Title
82299
    1SAPS     N    1   6.798   3.274  11.340 -0.6903  0.3823  0.1258
    1SAPS   HN1    2   6.775   3.173  11.348  1.7922 -0.3045 -0.7651
    1SAPS   HN2    3   6.716   3.333  11.365 -0.4539  0.5137  0.6049
    1SAPS   HN3    4   6.810   3.292  11.238 -1.2603  0.4943  0.0709
    1SAPS   C12    5   6.910   3.321  11.418  0.2202  0.4150 -0.4512
    1SAPS  H12A    6   6.882   3.359  11.515 -0.1434  0.4239 -0.5579
    1SAPS   C13    7   7.026   3.213  11.432 -0.4119 -0.5561 -0.0664
    1SAPS  O13A    8   7.012   3.095  11.397 -0.2302  0.2643 -0.1194
    1SAPS  O13B    9   7.125   3.254  11.495  0.3002  0.2250 -0.0796
    1SAPS   C11   10   6.972   3.444  11.336  0.0176  0.1523 -0.7724
    1SAPS  H11A   11   6.998   3.411  11.234 -1.3202  1.3670 -1.5510
    1SAPS  H11B   12   7.061   3.472  11.396 -1.2327 -0.4579  1.5210
    1SAPS     P   13   6.893   3.670  11.226 -0.3455  0.0393  0.2610
    1SAPS   O13   14   6.792   3.769  11.262  0.5171  0.2327  0.0454
    1SAPS   O14   15   7.027   3.724  11.219 -0.1238  0.6488  0.0359
    1SAPS   O12   16   6.887   3.554  11.335 -0.1532 -0.0197 -0.0718
    1SAPS   O11   17   6.860   3.588  11.092 -0.3433  0.1387  0.4691
    1SAPS    C1   18   6.729   3.532  11.070 -0.2674 -0.6896  0.5580
    1SAPS    HA   19   6.688   3.487  11.162 -0.4955 -0.1837  0.7011
    1SAPS    HB   20   6.669   3.622  11.047 -0.1683 -1.2482 -2.3003
    1SAPS    C2   21   6.733   3.434  10.949  0.0815 -0.0434  0.0916
    1SAPS    HS   22   6.672   3.346  10.977 -1.0189  1.8004  4.2296
    1SAPS   O21   23   6.868   3.399  10.900 -0.5043  0.5553 -0.4764
    1SAPS   C21   24   6.943   3.332  10.981  0.4916  0.1590  0.2083
    1SAPS   O22   25   6.906   3.263  11.072 -0.2951  0.6178  0.1159
    1SAPS   C22   26   7.091   3.346  10.944  0.0090 -0.1454 -0.2479
    1SAPS   H2R   27   7.099   3.428  10.870  0.6756 -0.5577 -0.6438
    1SAPS   H2S   28   7.147   3.365  11.038  1.0836 -1.5663 -0.5649
    1SAPS    C3   29   6.652   3.503  10.830 -0.0032  0.0718 -0.3928
    1SAPS    HX   30   6.687   3.608  10.829 -1.3457  0.5603  0.5691
    1SAPS    HY   31   6.543   3.509  10.853 -0.7615 -1.0888 -3.3424
    1SAPS   O31   32   6.664   3.427  10.710 -0.1320  0.0431  0.1685
    1SAPS   C31   33   6.703   3.498  10.599  0.2482 -0.7088 -0.3605
    1SAPS   O32   34   6.698   3.618  10.585 -0.5110  0.4355 -0.2188
    1SAPS   C32   35   6.740   3.390  10.501  0.3345 -0.8486  0.3535
    1SAPS   H2X   36   6.649   3.332  10.472  0.6957 -0.0737 -2.5740
    1SAPS   H2Y   37   6.818   3.336  10.558 -1.2601 -2.0074  1.5554
    1SAPS   C23   38   7.153   3.228  10.865 -0.2399 -0.4722  0.3206
    1SAPS   H3R   39   7.111   3.133  10.903 -0.3321 -0.4383  0.3054
    1SAPS   H3S   40   7.261   3.218  10.888 -0.3526 -0.6363  0.8013
    1SAPS   C24   41   7.124   3.243  10.713  0.2951 -0.5898 -0.2504
    1SAPS   H4R   42   7.020   3.282  10.705  0.5816  0.1199 -0.6394
    1SAPS   H4S   43   7.123   3.143  10.665  1.5136  0.0355 -1.6647
    1SAPS   C25   44   7.221   3.338  10.638  0.3276  0.2153  0.7502
    1SAPS   H5R   45   7.281   3.403  10.703  0.7406 -0.3641  0.9600
    1SAPS   C26   46   7.252   3.350  10.509 -1.0003  0.1680 -0.1505
    1SAPS   H6R   47   7.322   3.425  10.468 -0.0265 -1.0186 -0.7090
    1SAPS   C27   48   7.187   3.270  10.390 -0.0835  0.4319  0.7167
    1SAPS   H7R   49   7.084   3.240  10.418 -0.5390 -0.5138 -1.7554
    1SAPS   H7S   50   7.243   3.174  10.388 -1.7261 -0.5510  0.0592
    1SAPS   C28   51   7.176   3.342  10.253 -0.0614 -0.1737 -0.3949
    1SAPS   H8R   52   7.093   3.415  10.256 -1.5188 -1.8002  1.4531
    1SAPS   C29   53   7.239   3.304  10.140  0.7153  0.1642 -0.1486
    1SAPS   H9R   54   7.219   3.346  10.040  0.9794  1.7211  0.4366
    1SAPS  C210   55   7.333   3.183  10.127  0.8431  0.1545 -0.0843
    1SAPS  H10R   56   7.317   3.114  10.213 -0.5090  0.7486  0.1747
    1SAPS  H10S   57   7.437   3.221  10.130  1.1726 -0.6378  3.9048
    1SAPS  C211   58   7.312   3.097  10.009 -0.2042 -0.2392 -0.6840
    1SAPS  H11R   59   7.266   3.001  10.037  0.9207 -1.1389 -1.7641
    1SAPS  C212   60   7.341   3.125   9.882  0.2140 -0.4888  0.2024
    1SAPS  H12R   61   7.331   3.043   9.809  0.6595 -0.1926 -0.1993
    1SAPS  C213   62   7.413   3.245   9.834 -0.1711 -0.4101 -0.2995
    1SAPS  H13R   63   7.509   3.217   9.786  0.5197 -0.1360  0.8917
    1SAPS  H13S   64   7.423   3.317   9.918 -3.2743  0.9801 -0.9565
    1SAPS  C214   65   7.329   3.332   9.741 -0.2462 -0.1946  0.8589
    1SAPS  H14R   66   7.231   3.369   9.776 -0.8077  0.4188 -1.2117
    1SAPS  C215   67   7.352   3.364   9.608 -0.2643  0.3015 -0.6086
    1SAPS  H15R   68   7.283   3.438   9.565 -2.2470 -1.6493 -0.9979
    1SAPS  C216   69   7.470   3.326   9.530 -0.0304 -0.0996 -0.5661
    1SAPS  H16R   70   7.486   3.216   9.527  1.3962  0.0469  0.5652
    1SAPS  H16S   71   7.553   3.359   9.595 -2.3077  3.5573  0.8018
    1SAPS  C217   72   7.490   3.393   9.393 -0.7464 -0.4388 -0.3825
    1SAPS  H17R   73   7.595   3.390   9.355 -0.1704  0.2806  1.0669
    1SAPS  H17S   74   7.461   3.500   9.399  0.9917  0.1369 -1.3839
    1SAPS  C218   75   7.418   3.323   9.272  0.2725 -0.1088 -0.2029
    1SAPS  H18R   76   7.314   3.311   9.312  0.4763  1.6926  1.0013
    1SAPS  H18S   77   7.466   3.224   9.258 -1.0507 -1.2348  2.4186
    1SAPS  C219   78   7.415   3.402   9.145 -0.1708 -0.1021  0.2623
    1SAPS  H19R   79   7.514   3.413   9.096 -1.0691  3.4368 -1.0543
    1SAPS  H19S   80   7.382   3.503   9.175  0.4321 -0.1932  1.2963
    1SAPS  C220   81   7.309   3.348   9.045 -0.5278 -0.0985  0.4989
    1SAPS  H20R   82   7.348   3.252   9.007  0.8394 -0.2054  2.0145
    1SAPS  H20S   83   7.305   3.426   8.966  2.1673 -0.5546 -0.1760
    1SAPS  H20T   84   7.208   3.337   9.089 -0.5654 -2.2481 -0.0266
    1SAPS   C33   85   6.815   3.448  10.381 -0.5932 -0.3500  0.7967
    1SAPS   H3X   86   6.873   3.366  10.332  0.8152  1.1184 -0.0825
    1SAPS   H3Y   87   6.879   3.536  10.402  0.2992 -0.3041 -1.7098
    1SAPS   C34   88   6.722   3.504  10.270  0.0079 -0.0123  0.4100
    1SAPS   H4X   89   6.664   3.588  10.314 -1.6103 -1.4412  1.1599
    1SAPS   H4Y   90   6.646   3.427  10.243 -1.0479  1.3644 -0.6963
    1SAPS   C35   91   6.794   3.545  10.140 -0.2173 -0.3482  0.3578
    1SAPS   H5X   92   6.848   3.467  10.082 -0.8984 -0.6206  0.0757
    1SAPS   H5Y   93   6.866   3.627  10.160  0.4139 -0.2432 -2.0870
    1SAPS   C36   94   6.686   3.610  10.051 -0.3140  0.2210 -0.7861
    1SAPS   H6X   95   6.665   3.710  10.095 -0.7114  0.1986 -0.9142
    1SAPS   H6Y   96   6.590   3.556  10.065 -0.7036  1.3427  1.3657
    1SAPS   C37   97   6.732   3.626   9.905  0.2991  0.0709  0.4167
    1SAPS   H7X   98   6.759   3.525   9.868 -0.5561  0.5367 -1.6518
    1SAPS   H7Y   99   6.817   3.696   9.897  0.2073  0.2068  0.6287
    1SAPS   C38  100   6.624   3.677   9.806 -0.2152  0.1256 -0.0948
    1SAPS   H8X  101   6.622   3.788   9.817  2.0467  0.6487 -3.4192
    1SAPS   H8Y  102   6.520   3.642   9.822 -0.8684  2.4271  1.0571
    1SAPS   C39  103   6.661   3.656   9.661 -0.8054  0.7803  0.2348
    1SAPS   H9X  104   6.672   3.546   9.651  3.7592  1.1735 -2.1277
    1SAPS   H9Y  105   6.766   3.689   9.648  0.4562 -2.2622  1.7316
    1SAPS  C310  106   6.575   3.699   9.540  0.9833 -0.5014  0.0473
    1SAPS  H10X  107   6.553   3.807   9.553  2.2420 -0.4451  2.1075
    1SAPS  H10Y  108   6.474   3.653   9.551  1.0632 -0.2600  2.1889
    1SAPS  C311  109   6.632   3.692   9.397 -0.1434 -0.4781  0.1507
    1SAPS  H11X  110   6.674   3.593   9.371  2.4484  0.9135 -1.4548
    1SAPS  H11Y  111   6.716   3.766   9.393 -1.0273  0.5061 -1.5671
    1SAPS  C312  112   6.528   3.742   9.293  0.1669  0.7841  0.1031
    1SAPS  H12X  113   6.580   3.746   9.195  2.0235 -0.6374  0.9467
    1SAPS  H12Y  114   6.505   3.843   9.332  0.3838  0.9472 -0.1916
    1SAPS  C313  115   6.391   3.665   9.286  0.0268  0.0644  0.3397
    1SAPS  H13X  116   6.306   3.728   9.320 -0.1413  0.8796 -1.4656
    1SAPS  H13Y  117   6.399   3.576   9.352 -0.4384 -2.1339 -2.3573
    1SAPS  C314  118   6.351   3.625   9.141 -0.9988 -0.2041 -0.0680
    1SAPS  H14X  119   6.257   3.566   9.147 -0.7844 -0.8174 -2.0607
    1SAPS  H14Y  120   6.438   3.566   9.103 -1.3879  0.7319 -2.5860
    1SAPS  C315  121   6.333   3.744   9.044  0.2773 -0.5840 -0.1170
    1SAPS  H15X  122   6.425   3.805   9.034 -0.3596  0.5745  0.8146
    1SAPS  H15Y  123   6.258   3.807   9.096 -0.8242 -2.1612  0.2904
    1SAPS  C316  124   6.279   3.711   8.905 -0.2267  0.5064  0.2987
    1SAPS  H16X  125   6.178   3.665   8.919 -0.1898 -0.1172 -1.2804
    1SAPS  H16Y  126   6.345   3.628   8.873 -1.9435 -1.2389  1.0361
    1SAPS  C317  127   6.286   3.832   8.818  0.0524  0.4662  0.0601
    1SAPS  H17X  128   6.388   3.874   8.829  0.0455  0.2054  1.4124
    1SAPS  H17Y  129   6.215   3.908   8.857  0.5102  0.2801  1.3413
    1SAPS  C318  130   6.265   3.797   8.669  0.0524  0.1279  0.6384
    1SAPS  H18X  131   6.239   3.889   8.613  1.9831  1.2081  1.4405
    1SAPS  H18Y  132   6.182   3.724   8.656 -0.0770  0.2294  0.8842
    1SAPS  H18Z  133   6.359   3.757   8.626 -0.0062 -0.2301  0.8396
    2SAPS     N  134   0.058   5.212  11.129  0.0582  0.7282 -0.0617
    2SAPS   HN1  135   0.074   5.141  11.204  0.2468  0.9967  0.1537
    2SAPS   HN2  136   0.059   5.169  11.035 -2.3544  2.1620 -0.8379
    2SAPS   HN3  137   0.135   5.280  11.143 -0.1956  0.6762  1.9131
    2SAPS   C12  138  -0.068   5.277  11.171 -0.3216 -0.1915  0.5055
    2SAPS  H12A  139  -0.157   5.218  11.160 -4.1167  4.7271  1.3115
    2SAPS   C13  140  -0.073   5.332  11.315 -0.7914  0.4999 -0.1935
    2SAPS  O13A  141   0.033   5.319  11.381  0.0342  0.5319  0.4018
    2SAPS  O13B  142  -0.177   5.392  11.356  0.7335 -0.1209 -0.6953
    2SAPS   C11  143  -0.098   5.391  11.074  0.2076  0.2485 -0.2731
    2SAPS  H11A  144  -0.198   5.430  11.103  0.3831 -2.1973  4.7707
    2SAPS  H11B  145  -0.105   5.343  10.974 -1.9870  0.9241 -0.5014
    2SAPS     P  146  -0.020   5.631  10.991  0.0240  0.5141  0.0637
    2SAPS   O13  147  -0.150   5.686  11.026 -0.4302  0.0048  0.2268
    2SAPS   O14  148   0.097   5.708  11.025 -0.2874  0.6066 -0.1362
    2SAPS   O12  149   0.004   5.488  11.064  0.7541 -0.1841 -0.3147
    2SAPS   O11  150  -0.020   5.603  10.839 -0.0254  0.3814  0.1795
    2SAPS    C1  151   0.071   5.511  10.777  0.0478  0.4589  0.0517
    2SAPS    HA  152   0.163   5.568  10.753 -0.1346 -0.3675 -3.1580
    2SAPS    HB  153   0.106   5.430  10.845 -3.7387 -2.1359 -0.7768
    2SAPS    C2  154   0.020   5.445  10.646  0.2124  1.0058 -0.2352
    2SAPS    HS  155   0.093   5.374  10.603  0.2733  0.6500  0.4426
    2SAPS   O21  156  -0.008   5.544  10.548  0.2084  0.0524 -0.6548
    2SAPS   C21  157   0.087   5.604  10.491 -0.0177  0.2300  0.5241
    2SAPS   O22  158   0.207   5.574  10.481  0.5598  0.8039 -0.7999
    2SAPS   C22  159   0.034   5.732  10.432 -0.0781  0.3579 -0.0273
    2SAPS   H2R  160  -0.053   5.763  10.493 -1.8147  0.8156 -2.5956
    2SAPS   H2S  161   0.115   5.808  10.437  0.1717  0.1593 -0.8196
    2SAPS    C3  162  -0.104   5.363  10.674  0.5719 -0.2072  0.0337
    2SAPS    HX  163  -0.166   5.422  10.744 -0.0377 -1.6453  0.7643
    2SAPS    HY  164  -0.079   5.276  10.739 -2.1869  0.1227  1.6844
    2SAPS   O31  165  -0.179   5.324  10.557 -0.2529  0.1578 -0.2893
    2SAPS   C31  166  -0.144   5.218  10.486 -1.0405 -0.6777  0.3947
    2SAPS   O32  167  -0.050   5.145  10.512 -0.0173  0.2080 -0.1211
    2SAPS   C32  168  -0.211   5.210  10.351 -0.6825  1.0777 -0.1355
    2SAPS   H2X  169  -0.217   5.311  10.307  1.5727  0.5264 -1.8971
    2SAPS   H2Y  170  -0.315   5.176  10.372 -0.1130  0.0567  1.2730
    2SAPS   C23  171  -0.032   5.700  10.297  0.0981  0.6397  0.5703
    2SAPS   H3R  172  -0.087   5.788  10.258 -0.5243 -0.1161 -0.3228
    2SAPS   H3S  173  -0.118   5.629  10.307  0.5023 -0.0427 -0.5799
    2SAPS   C24  174   0.067   5.653  10.183 -0.0986  0.6530 -0.1248
    2SAPS   H4R  175  -0.003   5.642  10.097 -0.9379 -0.9796  0.7234
    2SAPS   H4S  176   0.114   5.556  10.207  1.9053  0.8631 -2.7860
    2SAPS   C25  177   0.188   5.737  10.155  0.0181  0.4293  0.4835
    2SAPS   H5R  178   0.241   5.767  10.246 -0.1234  1.1506  0.3282
    2SAPS   C26  179   0.215   5.783  10.032 -0.6344 -0.0492 -0.5403
    2SAPS   H6R  180   0.305   5.845  10.031 -1.6074  1.4385  0.2867
    2SAPS   C27  181   0.145   5.758   9.903 -0.4602 -0.2630 -0.3897
    2SAPS   H7R  182   0.156   5.852   9.846  2.5255 -0.2338  0.0827
    2SAPS   H7S  183   0.037   5.735   9.919 -0.1986 -3.1241 -1.9784
    2SAPS   C28  184   0.210   5.648   9.829 -0.3407  0.1997 -0.3164
    2SAPS   H8R  185   0.211   5.545   9.869 -1.2660 -0.6706 -2.3997
    2SAPS   C29  186   0.252   5.643   9.699  0.1465 -0.6089  0.0944
    2SAPS   H9R  187   0.297   5.547   9.667  3.5578  0.8405  0.0644
    2SAPS  C210  188   0.253   5.761   9.599  0.1256 -0.3601  0.7105
    2SAPS  H10R  189   0.336   5.827   9.631 -1.2292  2.7393 -1.6780
    2SAPS  H10S  190   0.153   5.809   9.605 -0.6707 -1.7631 -0.7349
    2SAPS  C211  191   0.280   5.715   9.461 -0.5953 -0.0599 -0.5551
    2SAPS  H11R  192   0.192   5.721   9.394 -0.9967 -2.8143 -0.4149
    2SAPS  C212  193   0.402   5.680   9.408 -0.5401 -0.1619 -0.5112
    2SAPS  H12R  194   0.414   5.644   9.305  2.0282  0.8596 -0.6601
    2SAPS  C213  195   0.534   5.676   9.485  0.2975 -0.1983  0.0914
    2SAPS  H13R  196   0.588   5.581   9.465  1.6250  0.5484  0.0540
    2SAPS  H13S  197   0.515   5.706   9.591  0.5669  0.9995 -0.1813
    2SAPS  C214  198   0.629   5.783   9.431  0.6812 -0.5847  1.1085
    2SAPS  H14R  199   0.635   5.874   9.492 -0.6578 -1.3897  2.5271
    2SAPS  C215  200   0.707   5.773   9.317  0.1358  0.0980 -0.5193
    2SAPS  H15R  201   0.727   5.871   9.270 -0.9209  1.1093  1.0331
    2SAPS  C216  202   0.722   5.653   9.224  0.1414 -0.5187  0.4158
    2SAPS  H16R  203   0.710   5.565   9.290  0.2385  0.6783  2.1190
    2SAPS  H16S  204   0.825   5.653   9.182  0.2191  0.4929  0.5801
    2SAPS  C217  205   0.627   5.650   9.100 -0.0908  0.1439  0.4569
    2SAPS  H17R  206   0.666   5.729   9.032  2.5286 -2.0447 -0.7778
    2SAPS  H17S  207   0.526   5.685   9.128 -0.1869  0.4972 -0.3044
    2SAPS  C218  208   0.636   5.512   9.035 -0.2805 -0.4429 -0.0659
    2SAPS  H18R  209   0.574   5.433   9.081  2.0581 -2.9010 -0.8325
    2SAPS  H18S  210   0.738   5.467   9.038  0.0400 -0.0077 -2.3256
    2SAPS  C219  211   0.583   5.517   8.890  0.0936  0.6083  0.3269
    2SAPS  H19R  212   0.571   5.416   8.846 -0.0151  1.1749 -1.0298
    2SAPS  H19S  213   0.666   5.562   8.831 -0.7171  0.2933 -1.1052
    2SAPS  C220  214   0.453   5.597   8.867 -0.0907 -0.1039 -0.3806
    2SAPS  H20R  215   0.368   5.585   8.937  0.7308 -0.7981  0.5265
    2SAPS  H20S  216   0.422   5.569   8.764 -0.5919  0.5039 -0.4016
    2SAPS  H20T  217   0.477   5.705   8.865 -2.5094  0.5554  1.6065
    2SAPS   C33  218  -0.140   5.120  10.248  0.3923  0.1910  0.2652
    2SAPS   H3X  219  -0.217   5.109  10.169  0.4161  0.5427  0.1933
    2SAPS   H3Y  220  -0.109   5.026  10.300 -0.9089  0.8994  2.4448
    2SAPS   C34  221  -0.018   5.190  10.197 -0.3410  0.0131  0.6729
    2SAPS   H4X  222   0.053   5.191  10.282 -1.6674  1.8787  1.8265
    2SAPS   H4Y  223  -0.037   5.296  10.171  1.2352  0.4369  1.1712
    2SAPS   C35  224   0.059   5.120  10.082 -0.1844 -0.0613 -0.2322
    2SAPS   H5X  225   0.036   5.012  10.082 -0.1509 -0.0913  1.4629
    2SAPS   H5Y  226   0.168   5.141  10.089 -0.1991  0.4939 -1.3140
    2SAPS   C36  227   0.012   5.167   9.940 -0.0846 -0.4067 -0.5891
    2SAPS   H6X  228   0.015   5.276   9.923 -1.2868 -0.0313  1.3825
    2SAPS   H6Y  229  -0.096   5.144   9.925 -0.4143  0.6582  0.0762
    2SAPS   C37  230   0.092   5.097   9.826 -0.6929  0.0589  0.2941
    2SAPS   H7X  231   0.088   4.986   9.829  2.8643 -0.1953  0.0289
    2SAPS   H7Y  232   0.201   5.114   9.835 -0.4971 -1.5867  1.6198
    2SAPS   C38  233   0.043   5.133   9.690 -0.4329 -0.4571  0.2870
    2SAPS   H8X  234  -0.067   5.127   9.676 -0.2204 -0.8958 -1.4611
    2SAPS   H8Y  235   0.088   5.066   9.614 -0.9055  0.4426 -0.8181
    2SAPS   C39  236   0.077   5.279   9.647  0.0109  0.1127 -0.0142
    2SAPS   H9X  237   0.187   5.297   9.655  0.5838 -1.2385 -3.2103
    2SAPS   H9Y  238   0.030   5.355   9.713  0.4248  0.4741 -0.1253
    2SAPS  C310  239   0.049   5.310   9.497  0.2337  0.8454  0.5213
    2SAPS  H10X  240   0.056   5.420   9.491 -0.0506  0.8223 -0.3013
    2SAPS  H10Y  241  -0.055   5.281   9.471  0.3452 -0.4362  1.4028
    2SAPS  C311  242   0.153   5.258   9.400  0.3957 -0.6649 -0.3135
    2SAPS  H11X  243   0.179   5.150   9.405 -0.4645 -0.8327  0.9891
    2SAPS  H11Y  244   0.243   5.321   9.416 -2.0424  2.4959  2.3580
    2SAPS  C312  245   0.134   5.293   9.258 -0.0657 -0.6199  0.1160
    2SAPS  H12X  246   0.052   5.228   9.221 -1.6727  1.0063  0.7007
    2SAPS  H12Y  247   0.234   5.276   9.212  0.2611 -1.7239  1.1985
    2SAPS  C313  248   0.112   5.438   9.221  0.0652 -0.3345  0.2060
    2SAPS  H13X  249   0.199   5.488   9.267  0.1040 -0.8227  0.6787
    2SAPS  H13Y  250   0.018   5.482   9.260  0.9301  2.1424 -0.3708
    2SAPS  C314  251   0.110   5.474   9.074 -0.4914  0.6917 -0.3446
    2SAPS  H14X  252   0.017   5.417   9.051  0.7816 -1.9660  0.6933
    2SAPS  H14Y  253   0.203   5.426   9.037 -1.0336 -0.1472 -0.6645
    2SAPS  C315  254   0.111   5.623   9.042  0.1375 -0.3504  0.5176
    2SAPS  H15X  255   0.205   5.678   9.064 -0.0166 -0.6050  1.9190
    2SAPS  H15Y  256   0.028   5.668   9.100 -1.6232 -2.3937 -0.2820
    2SAPS  C316  257   0.061   5.647   8.897 -0.6735 -0.5313 -0.5561
    2SAPS  H16X  258  -0.029   5.588   8.870 -2.4930  0.6096  2.4830
    2SAPS  H16Y  259   0.151   5.622   8.836  0.2662  3.2678 -0.9512
    2SAPS  C317  260  -0.002   5.786   8.873  0.6363 -0.0057 -0.1557
    2SAPS  H17X  261   0.012   5.806   8.764 -1.3252 -0.5851 -0.5543
    2SAPS  H17Y  262   0.067   5.842   8.941  0.6178  1.5669 -1.3558
    2SAPS  C318  263  -0.150   5.814   8.910 -0.3904  0.5413 -0.2049
    2SAPS  H18X  264  -0.210   5.742   8.850 -0.3896  1.0443 -0.8147
    2SAPS  H18Y  265  -0.159   5.922   8.886  1.7101  0.7871 -0.0560
    2SAPS  H18Z  266  -0.170   5.782   9.015 -3.0244 -1.6330 -1.2361
    3SAPS     N  267   5.286   1.466  10.986 -0.9355 -0.6519 -0.2427
    3SAPS   HN1  268   5.187   1.478  10.960 -0.8463 -1.5593 -1.0470
    3SAPS   HN2  269   5.334   1.556  10.965 -0.6036 -1.0204 -1.1043
    3SAPS   HN3  270   5.333   1.393  10.930 -1.2476 -0.8153 -0.2915
    3SAPS   C12  271   5.300   1.429  11.128 -0.2946  0.2875 -0.8187
    3SAPS  H12A  272   5.318   1.518  11.187 -0.1556 -0.9553  1.1153
    3SAPS   C13  273   5.178   1.357  11.179  0.3501 -0.7355  0.4040
    3SAPS  O13A  274   5.085   1.333  11.094  0.1152  0.5940  0.5938
    3SAPS  O13B  275   5.166   1.335  11.303 -0.0578 -0.5960  0.3350
    3SAPS   C11  276   5.439   1.353  11.142 -0.1498  0.8524  0.1079
    3SAPS  H11A  277   5.425   1.262  11.079  4.3110 -0.7112  0.9711
    3SAPS  H11B  278   5.456   1.312  11.244  0.2513 -0.1302 -0.3412
    3SAPS     P  279   5.651   1.354  10.995  0.3248  0.4886 -0.2762
    3SAPS   O13  280   5.748   1.455  10.947  0.0390  0.3835 -0.2435
    3SAPS   O14  281   5.704   1.227  11.053 -0.2973  0.0851 -0.1066
    3SAPS   O12  282   5.552   1.430  11.105 -0.0962  0.3059 -0.2202
    3SAPS   O11  283   5.557   1.322  10.883  0.4297 -0.6620 -0.2369
    3SAPS    C1  284   5.545   1.385  10.758  0.4558  0.3468  0.1841
    3SAPS    HA  285   5.446   1.364  10.712  0.2393 -1.1161  1.2650
    3SAPS    HB  286   5.543   1.496  10.759  0.2198  0.3391  0.4700
    3SAPS    C2  287   5.658   1.348  10.659  0.1468  0.1571 -0.3655
    3SAPS    HS  288   5.756   1.381  10.701  0.8231 -1.2087 -0.7826
    3SAPS   O21  289   5.628   1.406  10.529 -0.7734 -0.0964 -0.2840
    3SAPS   C21  290   5.736   1.436  10.455 -0.4608  0.3442 -0.1194
    3SAPS   O22  291   5.850   1.421  10.492 -0.2568  0.3402  0.3449
    3SAPS   C22  292   5.692   1.479  10.311 -0.2433  0.5332  0.2591
    3SAPS   H2R  293   5.612   1.406  10.285 -0.8888  0.9665  0.9824
    3SAPS   H2S  294   5.654   1.583  10.321 -0.0460  0.5022  1.4074
    3SAPS    C3  295   5.667   1.194  10.656  0.9055 -0.0487  0.1196
    3SAPS    HX  296   5.566   1.155  10.629  0.6075  1.4042 -0.9530
    3SAPS    HY  297   5.692   1.164  10.761 -1.4849 -1.1834  0.4602
    3SAPS   O31  298   5.756   1.141  10.555  0.2753 -0.8535 -0.4549
    3SAPS   C31  299   5.880   1.113  10.609  0.6636 -0.2997 -0.1381
    3SAPS   O32  300   5.906   1.108  10.727 -0.0603 -0.1944 -0.3465
    3SAPS   C32  301   5.985   1.117  10.493 -0.4658 -0.2121 -0.2112
    3SAPS   H2X  302   6.085   1.086  10.531  0.8261  1.1497 -2.3296
    3SAPS   H2Y  303   5.991   1.226  10.474 -0.1024 -0.0780  0.6134
    3SAPS   C23  304   5.808   1.480  10.207 -0.1608 -0.6212 -0.1265
    3SAPS   H3R  305   5.899   1.519  10.257 -0.5451 -0.3957  0.4025
    3SAPS   H3S  306   5.788   1.553  10.126 -2.6417  1.3520  2.0937
    3SAPS   C24  307   5.841   1.343  10.149  0.0829  0.1118  0.8502
    3SAPS   H4R  308   5.863   1.272  10.231 -0.6967 -0.9048  0.2148
    3SAPS   H4S  309   5.931   1.350  10.084 -1.2809  3.6568 -0.8925
    3SAPS   C25  310   5.730   1.277  10.065  0.3057  0.0071 -0.5186
    3SAPS   H5R  311   5.637   1.277  10.124 -1.2835  1.0572 -2.8715
    3SAPS   C26  312   5.733   1.222   9.941  0.3945 -0.5968 -0.1678
    3SAPS   H6R  313   5.640   1.180   9.900  0.4204 -2.2529  1.3460
    3SAPS   C27  314   5.852   1.208   9.853  0.3620  0.4046  0.6958
    3SAPS   H7R  315   5.936   1.278   9.874  2.5633 -1.1640 -2.1106
    3SAPS   H7S  316   5.830   1.232   9.746 -2.9425 -1.0786  0.9257
    3SAPS   C28  317   5.916   1.069   9.860  0.0066  0.5935 -0.3709
    3SAPS   H8R  318   5.939   1.046   9.965  1.1652 -0.9308 -0.9237
    3SAPS   C29  319   5.943   0.969   9.773 -0.4858  0.3143  0.1745
    3SAPS   H9R  320   5.996   0.881   9.815  1.2289  1.6314  0.9151
    3SAPS  C210  321   5.918   0.957   9.622 -0.7185  1.0017 -0.0412
    3SAPS  H10R  322   5.965   1.046   9.575  0.5202  0.6518  0.4750
    3SAPS  H10S  323   5.810   0.982   9.615 -0.4806  1.8810 -0.8620
    3SAPS  C211  324   5.947   0.828   9.540 -0.0118  0.3651 -0.1852
    3SAPS  H11R  325   6.005   0.752   9.594  2.5874  0.2488 -2.8809
    3SAPS  C212  326   5.933   0.809   9.406  0.4406  0.0893  0.6791
    3SAPS  H12R  327   5.939   0.705   9.370  3.7666  0.4154 -0.0494
    3SAPS  C213  328   5.861   0.898   9.306  0.0088  0.2380  0.2390
    3SAPS  H13R  329   5.819   0.996   9.339 -0.4308  0.5219 -1.0874
    3SAPS  H13S  330   5.775   0.841   9.263 -0.0540  0.1440  0.4908
    3SAPS  C214  331   5.974   0.934   9.211  0.3815  0.0924 -1.3026
    3SAPS  H14R  332   6.047   0.995   9.267 -1.4684  0.6708  0.6090
    3SAPS  C215  333   5.975   0.895   9.082 -0.3831  0.5027  0.2487
    3SAPS  H15R  334   6.072   0.915   9.033 -0.4270 -0.8173 -0.4207
    3SAPS  C216  335   5.880   0.808   8.994  0.1075  0.9134 -0.6806
    3SAPS  H16R  336   5.778   0.796   9.036  0.6485 -1.8570  0.0585
    3SAPS  H16S  337   5.928   0.713   8.964 -2.9691 -1.5534  1.4879
    3SAPS  C217  338   5.851   0.887   8.866 -0.3413  0.4400 -0.0321
    3SAPS  H17R  339   5.789   0.820   8.803 -1.5481  0.0131  1.5719
    3SAPS  H17S  340   5.949   0.905   8.814 -1.0963  2.9963 -0.7474
    3SAPS  C218  341   5.779   1.017   8.887  0.2633  0.0598 -0.4716
    3SAPS  H18R  342   5.833   1.084   8.958 -0.5729 -0.0175  0.2652
    3SAPS  H18S  343   5.682   1.006   8.941  0.4155  1.2063  0.0669
    3SAPS  C219  344   5.744   1.084   8.755 -0.3366 -0.1820  0.1928
    3SAPS  H19R  345   5.685   1.012   8.694  1.4569 -2.3052  0.8509
    3SAPS  H19S  346   5.841   1.108   8.706 -1.2710  0.3197 -1.4769
    3SAPS  C220  347   5.664   1.215   8.764  0.4697  0.3172  1.0085
    3SAPS  H20R  348   5.566   1.196   8.813  0.4189  1.2082  1.2714
    3SAPS  H20S  349   5.624   1.254   8.668 -1.4874 -2.5065  0.5369
    3SAPS  H20T  350   5.728   1.290   8.814  0.9126  0.6861 -0.0788
    3SAPS   C33  351   5.953   1.035  10.362  0.0531 -0.1564 -0.4309
    3SAPS   H3X  352   6.025   1.066  10.284 -1.9772  1.1661 -1.8620
    3SAPS   H3Y  353   5.845   1.039  10.335  0.1689 -1.7541 -1.2706
    3SAPS   C34  354   5.979   0.887  10.360  0.5069  1.1423  0.3947
    3SAPS   H4X  355   5.905   0.844  10.431  1.3263  0.8621  1.1093
    3SAPS   H4Y  356   6.083   0.864  10.392  0.0924 -1.4313  0.1289
    3SAPS   C35  357   5.957   0.825  10.221  0.3629  0.2237  0.1978
    3SAPS   H5X  358   6.014   0.886  10.148  0.4281  1.4105  1.2005
    3SAPS   H5Y  359   5.847   0.837  10.205  0.0755  0.4258  2.0922
    3SAPS   C36  360   5.994   0.671  10.203 -0.3693 -0.1294 -0.6067
    3SAPS   H6X  361   5.965   0.612  10.292  0.2708 -0.7638 -0.8111
    3SAPS   H6Y  362   6.105   0.672  10.193 -0.4725 -0.6726 -1.9626
    3SAPS   C37  363   5.923   0.609  10.083  0.0872 -0.1159 -0.2305
    3SAPS   H7X  364   5.927   0.691  10.009 -0.4859  1.9043  1.8729
    3SAPS   H7Y  365   5.814   0.593  10.099  0.1625 -2.1135 -1.4313
    3SAPS   C38  366   5.990   0.487  10.032 -0.3244  0.5838  0.1665
    3SAPS   H8X  367   5.980   0.409  10.110  1.9216 -0.7570 -0.7726
    3SAPS   H8Y  368   6.100   0.500  10.016 -0.1852 -1.1358 -0.4556
    3SAPS   C39  369   5.931   0.433   9.900 -0.5270  0.3639 -0.6621
    3SAPS   H9X  370   5.823   0.454   9.914 -0.2980 -0.7537  4.4532
    3SAPS   H9Y  371   5.953   0.324   9.891  3.8813  1.0398 -0.0427
    3SAPS  C310  372   5.995   0.490   9.776 -0.5857 -0.4610  0.6090
    3SAPS  H10X  373   6.101   0.479   9.807  0.8173 -1.6441 -3.8895
    3SAPS  H10Y  374   5.968   0.597   9.768 -1.5684 -0.7068  0.5241
    3SAPS  C311  375   5.951   0.433   9.640  0.7377 -0.4848  0.1026
    3SAPS  H11X  376   5.859   0.489   9.611 -0.3925 -1.5593  1.5021
    3SAPS  H11Y  377   5.920   0.327   9.651 -0.8970 -0.4174 -2.7538
    3SAPS  C312  378   6.055   0.450   9.532  0.6695 -0.4443 -0.4727
    3SAPS  H12X  379   6.144   0.398   9.573  1.9196  1.9201 -0.0170
    3SAPS  H12Y  380   6.069   0.559   9.521 -2.7764  0.1523 -0.0235
    3SAPS  C313  381   6.000   0.388   9.402 -0.2916  0.1673  0.1340
    3SAPS  H13X  382   5.897   0.423   9.381 -0.2238  1.0000  1.0587
    3SAPS  H13Y  383   5.985   0.279   9.407 -1.8521  0.3928  1.0269
    3SAPS  C314  384   6.086   0.431   9.285 -0.0095  0.0361  0.7572
    3SAPS  H14X  385   6.186   0.385   9.302 -0.5952 -2.1582 -1.3107
    3SAPS  H14Y  386   6.095   0.542   9.279  2.1622 -0.1780 -1.8586
    3SAPS  C315  387   6.031   0.380   9.156  0.2945  0.4533 -1.1523
    3SAPS  H15X  388   5.927   0.416   9.168  0.7693  1.1768  1.6093
    3SAPS  H15Y  389   6.040   0.270   9.162  0.1009  0.4913  0.3006
    3SAPS  C316  390   6.101   0.439   9.027  0.6544 -0.1725  0.3669
    3SAPS  H16X  391   6.198   0.391   9.002  0.3039 -0.8447  0.2937
    3SAPS  H16Y  392   6.125   0.547   9.038 -2.1683  0.6430 -0.7115
    3SAPS  C317  393   5.998   0.446   8.904 -0.1398 -0.1881 -0.2255
    3SAPS  H17X  394   5.904   0.497   8.934  0.4054 -0.0519  1.3564
    3SAPS  H17Y  395   5.973   0.344   8.870 -1.7806  0.6120 -1.5490
    3SAPS  C318  396   6.071   0.530   8.789  0.0653  0.4538  0.1314
    3SAPS  H18X  397   6.022   0.496   8.695 -0.2031 -1.7644  1.0221
    3SAPS  H18Y  398   6.181   0.511   8.782  0.0145 -0.7727  2.0340
    3SAPS  H18Z  399   6.054   0.639   8.801  1.5546  0.7360 -0.0293
    4SAPS     N  400   3.268   0.399  10.887 -0.4711  0.3695  0.3888
    4SAPS   HN1  401   3.246   0.317  10.827 -0.9323  0.4400  0.4576
    4SAPS   HN2  402   3.196   0.432  10.954 -0.7155  0.4093  0.1087
    4SAPS   HN3  403   3.296   0.479  10.827 -4.7304  1.4626 -0.4717
    4SAPS   C12  404   3.385   0.362  10.976 -0.5607  0.1692 -0.6153
    4SAPS  H12A  405   3.451   0.447  10.981  0.0880 -0.3590 -0.1544
    4SAPS   C13  406   3.350   0.316  11.119  0.3261 -0.6226  0.9553
    4SAPS  O13A  407   3.235   0.322  11.164 -0.1774 -0.1331 -0.0768
    4SAPS  O13B  408   3.442   0.267  11.194  0.2116  0.0033 -0.0747
    4SAPS   C11  409   3.458   0.241  10.910  0.3651 -0.6123  0.3068
    4SAPS  H11A  410   3.398   0.149  10.919 -0.5796  0.1504  2.4785
    4SAPS  H11B  411   3.545   0.218  10.976  0.6188  0.8570  0.5339
    4SAPS     P  412   3.616   0.314  10.721 -0.1815  0.1831  0.3566
    4SAPS   O13  413   3.632   0.442  10.792 -0.0650 -0.1142 -0.1381
    4SAPS   O14  414   3.720   0.213  10.739  0.9467  0.2729 -0.5362
    4SAPS   O12  415   3.481   0.251  10.765 -1.1787  0.6997  0.7379
    4SAPS   O11  416   3.591   0.333  10.562 -0.4468 -0.2136 -0.1323
    4SAPS    C1  417   3.500   0.246  10.502  0.0044  0.2797  0.0537
    4SAPS    HA  418   3.530   0.140  10.509  1.9041  0.8338  0.7683
    4SAPS    HB  419   3.399   0.258  10.547 -0.8466  0.8805 -1.9210
    4SAPS    C2  420   3.465   0.281  10.353 -1.2484  0.4484 -0.0618
    4SAPS    HS  421   3.405   0.203  10.302  3.7244 -1.7695 -3.2263
    4SAPS   O21  422   3.588   0.299  10.277  0.1867  0.1661 -0.3980
    4SAPS   C21  423   3.595   0.259  10.154  0.5007 -0.1907 -1.1292
    4SAPS   O22  424   3.512   0.190  10.097 -0.5476  0.6629 -0.1461
    4SAPS   C22  425   3.714   0.327  10.095 -0.2557 -0.2660  0.7678
    4SAPS   H2R  426   3.737   0.432  10.120 -0.8029  0.1783 -0.5165
    4SAPS   H2S  427   3.792   0.268  10.147 -0.4313 -1.9919 -0.8191
    4SAPS    C3  428   3.390   0.416  10.349 -0.4267 -0.7847 -0.2936
    4SAPS    HX  429   3.434   0.499  10.408 -1.4857 -0.0383 -0.5060
    4SAPS    HY  430   3.290   0.400  10.395  0.8555  0.6788  3.4365
    4SAPS   O31  431   3.386   0.462  10.218  0.7434  0.2078  0.1521
    4SAPS   C31  432   3.280   0.400  10.150 -0.1503 -0.2389 -0.1578
    4SAPS   O32  433   3.187   0.341  10.192  0.6136  0.4566  0.0880
    4SAPS   C32  434   3.299   0.443  10.006 -0.5639 -0.3743 -0.3265
    4SAPS   H2X  435   3.401   0.483   9.988 -1.0635 -0.2021 -3.2127
    4SAPS   H2Y  436   3.237   0.535  10.003 -0.6994 -0.4717 -0.5177
    4SAPS   C23  437   3.733   0.303   9.941  0.3293 -0.6154 -0.9329
    4SAPS   H3R  438   3.694   0.399   9.898 -0.5434  0.1955  1.5184
    4SAPS   H3S  439   3.670   0.215   9.915 -0.0080 -1.1481  1.4838
    4SAPS   C24  440   3.876   0.280   9.893 -0.6695 -0.4579 -0.4121
    4SAPS   H4R  441   3.879   0.241   9.789  2.1107  0.2663 -0.6767
    4SAPS   H4S  442   3.912   0.201   9.961  0.8260  0.6454  0.1326
    4SAPS   C25  443   3.962   0.403   9.913  0.5628 -0.2218  0.0314
    4SAPS   H5R  444   3.977   0.438  10.016 -2.0770 -2.7755  1.4246
    4SAPS   C26  445   4.013   0.466   9.807 -0.4913  0.6846 -0.4461
    4SAPS   H6R  446   4.085   0.547   9.826  1.1749 -0.1249 -2.8026
    4SAPS   C27  447   4.000   0.430   9.661 -0.2336  0.1002  0.2673
    4SAPS   H7R  448   3.914   0.479   9.611 -0.1432  0.9976  0.9719
    4SAPS   H7S  449   3.985   0.322   9.643  1.1782 -0.8866  4.0830
    4SAPS   C28  450   4.126   0.461   9.577  0.6602  0.3988 -0.0452
    4SAPS   H8R  451   4.208   0.503   9.637 -0.1298  0.0895  1.2824
    4SAPS   C29  452   4.134   0.439   9.442  0.7370  0.4393  0.1855
    4SAPS   H9R  453   4.234   0.450   9.396  1.5190 -1.6380  1.2459
    4SAPS  C210  454   4.029   0.371   9.360 -0.2832 -0.0052 -0.1123
    4SAPS  H10R  455   3.978   0.298   9.427 -0.9284  1.3882  0.9689
    4SAPS  H10S  456   4.087   0.314   9.284  1.9234  0.9024  0.8273
    4SAPS  C211  457   3.925   0.465   9.306  0.2950 -0.0275 -1.2510
    4SAPS  H11R  458   3.849   0.506   9.373  0.4942 -0.5476 -0.6974
    4SAPS  C212  459   3.894   0.454   9.173  0.4166  0.1610 -0.2873
    4SAPS  H12R  460   3.819   0.526   9.137 -0.2711  0.1065  1.0133
    4SAPS  C213  461   3.954   0.384   9.058  0.4633 -0.4892 -0.1671
    4SAPS  H13R  462   4.034   0.309   9.075  0.7986  0.1860  1.2912
    4SAPS  H13S  463   4.005   0.468   9.007  0.4294  1.5329  2.9274
    4SAPS  C214  464   3.836   0.312   8.990 -0.8952 -0.4233 -0.1116
    4SAPS  H14R  465   3.763   0.264   9.057 -0.8480 -1.5515 -0.8317
    4SAPS  C215  466   3.811   0.314   8.857 -0.1521 -0.0447  0.2713
    4SAPS  H15R  467   3.728   0.261   8.809 -0.8782 -1.0993  2.5396
    4SAPS  C216  468   3.897   0.379   8.751  0.0794  0.0473 -0.1699
    4SAPS  H16R  469   3.894   0.306   8.667  2.3092 -1.8201  1.2650
    4SAPS  H16S  470   3.998   0.387   8.795 -0.2771  2.3516  0.3580
    4SAPS  C217  471   3.865   0.522   8.693  0.3122 -0.4588  0.6740
    4SAPS  H17R  472   3.949   0.556   8.628 -1.0213  2.3355  0.2615
    4SAPS  H17S  473   3.867   0.597   8.774 -1.6441  1.1713 -0.6751
    4SAPS  C218  474   3.731   0.534   8.620  0.9205  0.2197  1.0086
    4SAPS  H18R  475   3.644   0.511   8.685  0.4722  0.0468  0.3486
    4SAPS  H18S  476   3.715   0.458   8.541  0.4333 -0.3795  1.6687
    4SAPS  C219  477   3.707   0.683   8.575 -0.0277  0.8001 -0.0716
    4SAPS  H19R  478   3.797   0.714   8.518  1.3742 -1.4853  0.7808
    4SAPS  H19S  479   3.716   0.743   8.668  1.1766 -2.3275  1.9613
    4SAPS  C220  480   3.577   0.706   8.494  0.6601  0.8461  0.7177
    4SAPS  H20R  481   3.609   0.715   8.388 -1.0465 -2.2773 -0.1808
    4SAPS  H20S  482   3.522   0.794   8.534 -0.0419  0.6087  0.2839
    4SAPS  H20T  483   3.515   0.614   8.497 -1.1520  1.8777 -1.9173
    4SAPS   C33  484   3.250   0.336   9.904  0.6282 -0.7782 -0.7577
    4SAPS   H3X  485   3.142   0.312   9.917  0.4096  0.4225 -0.2042
    4SAPS   H3Y  486   3.306   0.242   9.921 -0.1151 -1.1299 -0.1925
    4SAPS   C34  487   3.263   0.368   9.758  0.5644 -0.5382 -0.2968
    4SAPS   H4X  488   3.370   0.385   9.734  1.0709  0.4580  2.2984
    4SAPS   H4Y  489   3.211   0.462   9.730  2.0987 -0.4428 -3.2362
    4SAPS   C35  490   3.198   0.257   9.672 -0.0821  0.3142  0.4616
    4SAPS   H5X  491   3.097   0.238   9.714  0.0218 -0.3920  0.3950
    4SAPS   H5Y  492   3.259   0.166   9.691  1.1056  1.1761  0.9440
    4SAPS   C36  493   3.196   0.281   9.524  0.4360 -0.4082  0.4743
    4SAPS   H6X  494   3.294   0.252   9.482  0.8487  0.9775  0.4472
    4SAPS   H6Y  495   3.188   0.390   9.504  2.1288 -0.3935 -0.2780
    4SAPS   C37  496   3.084   0.202   9.455  0.0081  0.2063  0.8704
    4SAPS   H7X  497   2.986   0.249   9.479  0.6608  1.8570  0.4281
    4SAPS   H7Y  498   3.083   0.102   9.502 -1.4693 -0.3748 -0.3040
    4SAPS   C38  499   3.112   0.188   9.305 -0.6861  0.4641  1.3944
    4SAPS   H8X  500   3.212   0.144   9.283 -1.2781  0.3176 -1.4664
    4SAPS   H8Y  501   3.105   0.281   9.244  0.9577 -1.2683 -1.6667
    4SAPS   C39  502   3.010   0.093   9.236 -0.2743  0.0222  0.2992
    4SAPS   H9X  503   2.913   0.139   9.265 -0.9916 -0.8510 -0.6224
    4SAPS   H9Y  504   3.017  -0.010   9.276  0.4767  0.5909  1.7030
    4SAPS  C310  505   3.004   0.087   9.086 -0.3775 -0.3935 -0.5448
    4SAPS  H10X  506   3.007   0.193   9.053 -2.0871  1.1777  3.7209
    4SAPS  H10Y  507   2.910   0.038   9.051 -0.3067 -0.3563 -0.7846
    4SAPS  C311  508   3.114   0.003   9.020 -0.1333  0.1127  0.2498
    4SAPS  H11X  509   3.215   0.013   9.064  0.7575 -0.8076 -1.4979
    4SAPS  H11Y  510   3.126   0.036   8.915 -1.8643 -0.4393 -0.1555
    4SAPS  C312  511   3.074  -0.149   9.028 -0.7156  0.3476  0.3715
    4SAPS  H12X  512   2.966  -0.168   9.048 -1.3612  0.7982 -2.3091
    4SAPS  H12Y  513   3.132  -0.180   9.117 -0.0139 -1.3092 -0.6157
    4SAPS  C313  514   3.099  -0.230   8.901 -0.5821  0.1017 -0.5602
    4SAPS  H13X  515   3.100  -0.339   8.923  1.3545 -0.2928 -2.2843
    4SAPS  H13Y  516   3.195  -0.195   8.857 -0.1442 -0.2612  0.0928
    4SAPS  C314  517   2.984  -0.207   8.805 -0.3574 -0.1851  0.2172
    4SAPS  H14X  518   2.946  -0.103   8.819  1.1365  0.2831  0.9655
    4SAPS  H14Y  519   2.899  -0.274   8.831 -0.4066 -0.0171  0.4859
    4SAPS  C315  520   3.004  -0.214   8.654  0.1887 -0.5040 -0.7746
    4SAPS  H15X  521   3.043  -0.316   8.634 -1.6791 -1.2384 -0.8567
    4SAPS  H15Y  522   3.062  -0.124   8.623 -0.9119  0.0312 -1.3388
    4SAPS  C316  523   2.868  -0.198   8.576 -0.4723  0.1096 -0.8577
    4SAPS  H16X  524   2.884  -0.229   8.471  1.9918  1.2248 -0.8698
    4SAPS  H16Y  525   2.843  -0.090   8.570 -2.3003 -0.1850  0.4407
    4SAPS  C317  526   2.747  -0.273   8.628  0.2106 -0.0586  0.0316
    4SAPS  H17X  527   2.734  -0.239   8.733  1.7628  0.6460  0.0306
    4SAPS  H17Y  528   2.770  -0.381   8.636 -0.0279 -0.0211  1.3887
    4SAPS  C318  529   2.624  -0.256   8.538  0.1426 -0.6600 -0.0270
    4SAPS  H18X  530   2.641  -0.286   8.433  1.4120  1.0594 -0.3509
    4SAPS  H18Y  531   2.584  -0.152   8.538  0.8042 -0.4008 -1.0110
    4SAPS  H18Z  532   2.534  -0.306   8.579  1.3170 -0.9796  2.3533
    5SAPS     N  533   0.069   1.204  11.062 -0.6412 -0.3066 -0.1091
    5SAPS   HN1  534  -0.027   1.222  11.027 -0.4200 -0.4089 -0.7884
    5SAPS   HN2  535   0.100   1.293  11.106  2.0283 -0.5565 -1.2575
    5SAPS   HN3  536   0.137   1.192  10.984  0.5934  1.6538  0.5988
    5SAPS   C12  537   0.064   1.086  11.152  0.6338  0.0898  0.4643
    5SAPS  H12A  538   0.162   1.060  11.190  0.6372 -0.0863  0.3395
    5SAPS   C13  539  -0.026   1.110  11.273  0.3995  0.4197 -0.3564
    5SAPS  O13A  540  -0.048   1.233  11.305 -0.0482  0.6865  0.1727
    5SAPS  O13B  541  -0.046   1.010  11.352 -1.2855 -0.5319  0.2677
    5SAPS   C11  542   0.012   0.952  11.071 -0.7351  0.0328 -0.3796
    5SAPS  H11A  543  -0.099   0.956  11.077 -0.8534  0.1610 -2.1953
    5SAPS  H11B  544   0.039   0.866  11.136 -2.1702  0.3717  0.7168
    5SAPS     P  545   0.189   0.852  10.910  0.1078 -0.1018 -0.1614
    5SAPS   O13  546   0.296   0.951  10.865 -0.2681  0.4472  0.1200
    5SAPS   O14  547   0.228   0.761  11.023 -0.2798  0.7645 -0.9857
    5SAPS   O12  548   0.062   0.942  10.943  0.1919  0.3208 -0.2248
    5SAPS   O11  549   0.143   0.757  10.791 -0.0946  0.5380 -0.1545
    5SAPS    C1  550   0.016   0.704  10.775  1.2717  0.1183  0.0331
    5SAPS    HA  551   0.015   0.595  10.751  0.6432  0.5216 -1.9564
    5SAPS    HB  552  -0.043   0.717  10.868  0.5600 -2.4699  0.0317
    5SAPS    C2  553  -0.068   0.766  10.662 -0.4083 -0.3313 -0.3509
    5SAPS    HS  554  -0.161   0.705  10.651 -0.9277  0.3816 -0.0526
    5SAPS   O21  555   0.009   0.774  10.546  0.0224  0.3575 -0.2947
    5SAPS   C21  556  -0.017   0.695  10.442  0.3906 -0.4031  0.4679
    5SAPS   O22  557  -0.082   0.592  10.458  0.1334 -0.4564  0.6580
    5SAPS   C22  558   0.065   0.736  10.316  0.6563 -1.4042 -0.4294
    5SAPS   H2R  559   0.172   0.755  10.342  0.5607  0.7533 -1.3885
    5SAPS   H2S  560   0.084   0.653  10.245  4.1146  0.6222 -2.1528
    5SAPS    C3  561  -0.120   0.911  10.696  0.3145  0.3831 -0.6677
    5SAPS    HX  562  -0.029   0.974  10.683  0.3121  0.7712  1.0692
    5SAPS    HY  563  -0.149   0.912  10.803  0.8059 -0.2847 -0.5211
    5SAPS   O31  564  -0.227   0.952  10.603 -0.0104  0.2832 -0.1349
    5SAPS   C31  565  -0.341   0.912  10.634  0.4557 -0.0655  0.2518
    5SAPS   O32  566  -0.374   0.851  10.743  0.5401  0.3956 -0.0101
    5SAPS   C32  567  -0.440   0.932  10.520 -0.0610 -0.1305  0.0710
    5SAPS   H2X  568  -0.472   1.038  10.529 -1.6136 -0.3014 -2.5141
    5SAPS   H2Y  569  -0.535   0.879  10.538  0.3833 -1.8301 -2.2086
    5SAPS   C23  570   0.031   0.872  10.254  0.1876 -1.2959  0.6613
    5SAPS   H3R  571   0.120   0.940  10.258 -0.5314 -0.3190  0.3934
    5SAPS   H3S  572  -0.044   0.921  10.320  0.3461  0.1181 -0.1498
    5SAPS   C24  573  -0.017   0.860  10.109 -0.1457 -0.0425 -0.5303
    5SAPS   H4R  574  -0.082   0.776  10.077 -0.4091  0.2003 -0.6394
    5SAPS   H4S  575   0.069   0.838  10.043 -0.2039  1.2444 -1.0698
    5SAPS   C25  576  -0.066   0.996  10.057  0.4364 -0.0123 -0.2102
    5SAPS   H5R  577  -0.102   1.053  10.145 -1.9559 -1.4223 -0.1854
    5SAPS   C26  578  -0.056   1.050   9.936 -0.6303 -0.0288 -0.0880
    5SAPS   H6R  579  -0.097   1.150   9.920 -0.5701 -0.0662 -0.4803
    5SAPS   C27  580   0.001   0.979   9.813  0.4868 -0.4943 -0.1009
    5SAPS   H7R  581  -0.017   0.869   9.813  2.8525 -0.9417  0.0770
    5SAPS   H7S  582   0.111   0.992   9.811  0.6007 -0.5379  2.3608
    5SAPS   C28  583  -0.065   1.035   9.690 -0.1448 -0.4496 -0.2559
    5SAPS   H8R  584  -0.175   1.028   9.692 -0.2642  1.0769  1.0601
    5SAPS   C29  585  -0.002   1.079   9.577 -0.0216 -0.2958 -0.0294
    5SAPS   H9R  586  -0.052   1.122   9.489  1.8758  0.2657 -0.8803
    5SAPS  C210  587   0.144   1.080   9.551 -0.4164 -0.3629  0.2137
    5SAPS  H10R  588   0.201   1.095   9.645  2.0375  1.9987 -1.5233
    5SAPS  H10S  589   0.160   1.179   9.503  1.6305  0.0492  1.6452
    5SAPS  C211  590   0.201   0.961   9.474  0.3367  0.0043  0.2489
    5SAPS  H11R  591   0.201   0.874   9.542 -1.1121  0.1764  0.4819
    5SAPS  C212  592   0.239   0.947   9.346 -0.0637 -0.0846 -0.2619
    5SAPS  H12R  593   0.277   0.850   9.313 -0.7370  0.4888 -2.9418
    5SAPS  C213  594   0.237   1.054   9.235 -0.4231  0.2963 -0.2583
    5SAPS  H13R  595   0.195   1.146   9.279  0.3077  0.3202  0.4102
    5SAPS  H13S  596   0.174   1.024   9.148  1.4783 -1.4120 -1.1333
    5SAPS  C214  597   0.381   1.095   9.203  0.0798  0.3433  0.2370
    5SAPS  H14R  598   0.444   1.137   9.282 -0.8761 -0.6798  1.5736
    5SAPS  C215  599   0.436   1.081   9.076 -0.2438  0.2750 -1.0717
    5SAPS  H15R  600   0.535   1.122   9.052 -0.7292  1.2198 -1.5404
    5SAPS  C216  601   0.351   1.040   8.955  0.0697 -0.1863 -0.1604
    5SAPS  H16R  602   0.247   1.074   8.973 -0.5654 -1.8513 -0.4799
    5SAPS  H16S  603   0.353   0.929   8.944  1.8720 -0.4328  1.8234
    5SAPS  C217  604   0.385   1.101   8.818 -0.6166  0.6550  0.4525
    5SAPS  H17R  605   0.323   1.034   8.754  0.2491  0.3573 -0.1030
    5SAPS  H17S  606   0.492   1.085   8.791 -0.5163  2.6565 -0.4814
    5SAPS  C218  607   0.359   1.246   8.787  0.0082  0.3821  0.6804
    5SAPS  H18R  608   0.262   1.273   8.833  0.5255  4.0023 -0.0637
    5SAPS  H18S  609   0.442   1.295   8.844  1.0277  0.5366 -0.8892
    5SAPS  C219  610   0.360   1.284   8.638 -0.3471  0.6020 -0.3009
    5SAPS  H19R  611   0.386   1.192   8.582  1.1220  1.5048 -1.1555
    5SAPS  H19S  612   0.447   1.351   8.620 -0.1925  0.4539 -0.1028
    5SAPS  C220  613   0.239   1.352   8.581 -0.1134 -0.3997 -0.1145
    5SAPS  H20R  614   0.220   1.455   8.619 -2.1410 -0.5801 -0.5173
    5SAPS  H20S  615   0.138   1.310   8.602 -0.6339  0.4998 -0.7041
    5SAPS  H20T  616   0.251   1.366   8.471 -0.0912  0.7161  0.0191
    5SAPS   C33  617  -0.393   0.900  10.374 -0.4567  0.4592  0.2371
    5SAPS   H3X  618  -0.372   0.791  10.364  0.1594  0.7342 -2.1814
    5SAPS   H3Y  619  -0.296   0.953  10.365  1.0637 -1.5975  3.0369
    5SAPS   C34  620  -0.497   0.932  10.267 -0.2773 -0.0816 -0.0190
    5SAPS   H4X  621  -0.538   1.033  10.287 -0.8830 -0.0459 -1.3643
    5SAPS   H4Y  622  -0.581   0.861  10.283  1.0002 -1.2701  1.8904
    5SAPS   C35  623  -0.431   0.919  10.128  0.1167 -0.0043 -0.4824
    5SAPS   H5X  624  -0.357   0.837  10.136  1.2797  0.9967 -0.8205
    5SAPS   H5Y  625  -0.388   1.020  10.112 -0.1525  0.5630  1.9353
    5SAPS   C36  626  -0.522   0.880  10.007  0.6533 -1.1869 -0.3151
    5SAPS   H6X  627  -0.583   0.962   9.964 -1.0645 -3.5799 -2.7491
    5SAPS   H6Y  628  -0.582   0.791  10.031  1.4507 -2.0135 -1.2853
    5SAPS   C37  629  -0.438   0.844   9.885  0.0788  0.2795 -0.2558
    5SAPS   H7X  630  -0.395   0.743   9.903 -1.9335 -0.1481  2.7583
    5SAPS   H7Y  631  -0.375   0.930   9.853 -0.9256  1.9474  2.0227
    5SAPS   C38  632  -0.510   0.829   9.748 -0.2909  0.0698  0.1713
    5SAPS   H8X  633  -0.551   0.928   9.717 -0.1206  0.1083  0.0648
    5SAPS   H8Y  634  -0.586   0.748   9.751 -1.0025  0.7465  1.1706
    5SAPS   C39  635  -0.416   0.782   9.645 -0.4075  0.3026  0.4957
    5SAPS   H9X  636  -0.370   0.682   9.661  0.3595  0.4617 -0.5539
    5SAPS   H9Y  637  -0.328   0.850   9.650  1.9038 -2.4228 -0.0932
    5SAPS  C310  638  -0.484   0.788   9.506  0.6935 -0.1837  0.3662
    5SAPS  H10X  639  -0.531   0.887   9.489 -2.6781 -1.6814  0.1390
    5SAPS  H10Y  640  -0.563   0.710   9.516 -0.4265  0.4585 -2.4186
    5SAPS  C311  641  -0.388   0.745   9.392 -0.3554  0.2915  0.6634
    5SAPS  H11X  642  -0.355   0.639   9.400  1.2492  0.3391 -3.1776
    5SAPS  H11Y  643  -0.304   0.816   9.411  0.8751 -1.0110  0.2545
    5SAPS  C312  644  -0.455   0.752   9.251  0.7206 -0.4049  0.2940
    5SAPS  H12X  645  -0.505   0.851   9.246  1.0198 -0.3038 -1.3315
    5SAPS  H12Y  646  -0.534   0.674   9.244  1.2096 -0.8579 -0.2766
    5SAPS  C313  647  -0.351   0.718   9.145  0.2375 -0.0965 -0.2084
    5SAPS  H13X  648  -0.315   0.613   9.146 -0.1794 -0.2568 -1.0147
    5SAPS  H13Y  649  -0.264   0.786   9.156 -2.4344  3.4636  0.7493
    5SAPS  C314  650  -0.408   0.746   9.010  0.0727  0.2351  0.4695
    5SAPS  H14X  651  -0.506   0.693   9.007  0.0586  0.1642  1.5766
    5SAPS  H14Y  652  -0.344   0.704   8.930 -1.1375  0.6461 -0.7512
    5SAPS  C315  653  -0.421   0.892   8.976 -0.1285  0.1085  0.4176
    5SAPS  H15X  654  -0.317   0.930   8.961 -0.5843  0.4941 -2.4354
    5SAPS  H15Y  655  -0.464   0.950   9.060  0.1331  0.4161  0.3450
    5SAPS  C316  656  -0.495   0.909   8.842  0.2066  0.0429 -0.8438
    5SAPS  H16X  657  -0.580   0.841   8.825  0.0880  0.0318 -0.2249
    5SAPS  H16Y  658  -0.421   0.877   8.766 -0.4749 -0.0145 -1.4959
    5SAPS  C317  659  -0.551   1.056   8.809 -0.3429 -0.7114 -0.1521
    5SAPS  H17X  660  -0.486   1.123   8.869  1.6925 -2.7237  0.0461
    5SAPS  H17Y  661  -0.653   1.079   8.848 -0.7645 -2.4209 -0.1558
    5SAPS  C318  662  -0.548   1.090   8.662 -0.4114  0.3121  0.6798
    5SAPS  H18X  663  -0.586   1.191   8.636  0.0440  0.8988  2.1572
    5SAPS  H18Y  664  -0.604   1.016   8.601  0.4718  0.5007 -0.3847
    5SAPS  H18Z  665  -0.442   1.093   8.629 -1.0609 -0.4690 -1.6684
    6SAPS     N  666   4.784   5.986  10.716  0.0109 -0.8304  0.0002
    6SAPS   HN1  667   4.681   5.989  10.704 -0.0195 -0.5055  0.3215
    6SAPS   HN2  668   4.820   5.995  10.619  1.2093 -2.0609  0.2897
    6SAPS   HN3  669   4.812   5.895  10.759  0.5244 -1.3539 -1.3825
    6SAPS   C12  670   4.829   6.097  10.803  0.4857 -0.1646 -0.1199
    6SAPS  H12A  671   4.828   6.193  10.753  1.1490 -0.5739 -0.9363
    6SAPS   C13  672   4.745   6.120  10.929  0.2050 -0.7129 -0.2195
    6SAPS  O13A  673   4.649   6.046  10.961  0.0647 -0.0306  0.5779
    6SAPS  O13B  674   4.782   6.216  10.997 -0.3213 -0.5384 -0.2767
    6SAPS   C11  675   4.976   6.075  10.848 -0.4269 -0.2120 -0.0586
    6SAPS  H11A  676   4.975   5.995  10.925 -1.4174  0.2295  0.4207
    6SAPS  H11B  677   5.006   6.173  10.891 -2.3252 -0.0635  1.0606
    6SAPS     P  678   5.201   5.969  10.773  0.2602 -0.0774 -0.0235
    6SAPS   O13  679   5.286   6.086  10.809 -0.1625 -0.3583 -0.1436
    6SAPS   O14  680   5.194   5.856  10.863 -0.0129 -0.0346  0.1375
    6SAPS   O12  681   5.059   6.030  10.737  0.2610 -0.3088  0.1619
    6SAPS   O11  682   5.252   5.908  10.639 -0.4599  0.1056  0.3581
    6SAPS    C1  683   5.163   5.892  10.531  0.3616  0.4469 -0.3066
    6SAPS    HA  684   5.201   5.819  10.456 -2.7552 -1.9271  0.1968
    6SAPS    HB  685   5.066   5.845  10.560  0.3242  0.9102  0.3256
    6SAPS    C2  686   5.139   6.018  10.449 -0.6783  0.0189 -0.2060
    6SAPS    HS  687   5.093   6.094  10.517 -0.8591 -0.1700 -0.1165
    6SAPS   O21  688   5.048   5.985  10.343 -0.1766  0.2429 -0.0476
    6SAPS   C21  689   4.925   5.972  10.364 -0.5460  0.8924  0.0455
    6SAPS   O22  690   4.863   5.993  10.469  0.0194  0.3765  0.2469
    6SAPS   C22  691   4.866   5.915  10.233  0.5511 -0.3366 -0.7113
    6SAPS   H2R  692   4.874   5.994  10.155  2.8064  1.6930  1.4161
    6SAPS   H2S  693   4.937   5.832  10.213  1.3543  0.6163 -1.9215
    6SAPS    C3  694   5.275   6.077  10.406  0.5288  0.0345 -0.5320
    6SAPS    HX  695   5.293   6.010  10.319 -1.1867 -0.0816 -0.8199
    6SAPS    HY  696   5.354   6.055  10.481 -0.6156 -0.6721  0.5015
    6SAPS   O31  697   5.257   6.215  10.363 -0.3452 -0.0167  0.2383
    6SAPS   C31  698   5.345   6.300  10.412  0.1120  0.3693  0.7522
    6SAPS   O32  699   5.423   6.279  10.504  0.4605  0.1649 -0.0689
    6SAPS   C32  700   5.313   6.437  10.353 -0.0130 -0.4818 -0.4442
    6SAPS   H2X  701   5.317   6.502  10.442  0.5740  0.0475 -0.8421
    6SAPS   H2Y  702   5.216   6.444  10.300  0.6633  0.0117 -1.6847
    6SAPS   C23  703   4.717   5.869  10.240  0.2074 -0.0045  0.4694
    6SAPS   H3R  704   4.667   5.945  10.303  0.1123 -0.5730  1.1042
    6SAPS   H3S  705   4.724   5.774  10.298  4.7151 -0.4636 -0.4381
    6SAPS   C24  706   4.650   5.854  10.106  0.3267 -0.4545 -0.3285
    6SAPS   H4R  707   4.649   5.949  10.049 -2.2704  0.3113  0.8557
    6SAPS   H4S  708   4.540   5.844  10.120  0.2901 -0.7770 -0.8084
    6SAPS   C25  709   4.697   5.736  10.032 -0.2038 -0.5724  0.7066
    6SAPS   H5R  710   4.656   5.642  10.071 -0.4128 -1.0486 -0.6203
    6SAPS   C26  711   4.776   5.723   9.928  0.8941  0.0566  1.2312
    6SAPS   H6R  712   4.792   5.624   9.884  0.8575  0.6764 -0.2194
    6SAPS   C27  713   4.843   5.833   9.848  0.6079  0.4158 -0.1133
    6SAPS   H7R  714   4.899   5.901   9.916  3.1881  0.5104 -2.1624
    6SAPS   H7S  715   4.772   5.893   9.787  0.0004  0.1544  0.3219
    6SAPS   C28  716   4.942   5.764   9.753  0.3504 -0.5089 -0.0886
    6SAPS   H8R  717   5.045   5.766   9.794 -0.3659 -3.4391  2.1848
    6SAPS   C29  718   4.913   5.719   9.633 -0.1020  0.4869 -0.3577
    6SAPS   H9R  719   4.991   5.676   9.568  1.7106  1.4551  1.0922
    6SAPS  C210  720   4.778   5.708   9.568 -0.1625 -0.3727 -0.3957
    6SAPS  H10R  721   4.703   5.776   9.614 -0.4331  0.5169 -2.0880
    6SAPS  H10S  722   4.738   5.606   9.590 -2.6285  0.4883 -0.5343
    6SAPS  C211  723   4.790   5.757   9.429 -0.0824 -0.1821 -0.0215
    6SAPS  H11R  724   4.821   5.861   9.416 -0.7360  0.0049 -0.1117
    6SAPS  C212  725   4.762   5.684   9.325 -0.2389  0.0779 -0.0214
    6SAPS  H12R  726   4.781   5.722   9.223  3.3460 -1.6308 -0.1259
    6SAPS  C213  727   4.707   5.544   9.332 -0.1457 -0.4005  0.9679
    6SAPS  H13R  728   4.731   5.499   9.431  2.5967  3.2950  2.2400
    6SAPS  H13S  729   4.763   5.479   9.261 -0.6109 -0.7700  0.9322
    6SAPS  C214  730   4.559   5.525   9.299 -0.5613 -0.1300  0.2472
    6SAPS  H14R  731   4.494   5.500   9.384  2.2432  1.9528  3.2459
    6SAPS  C215  732   4.505   5.529   9.173  0.2587 -0.5924 -0.7016
    6SAPS  H15R  733   4.397   5.513   9.160  0.0008  1.2889 -1.2015
    6SAPS  C216  734   4.571   5.539   9.038 -0.3692  0.0377 -0.5086
    6SAPS  H16R  735   4.645   5.458   9.023  0.8566  0.2835  3.2197
    6SAPS  H16S  736   4.627   5.634   9.029  0.4805 -0.5118 -1.1293
    6SAPS  C217  737   4.469   5.525   8.925 -0.7592 -0.2616  0.3196
    6SAPS  H17R  738   4.391   5.604   8.918  3.2020  3.9314 -3.6541
    6SAPS  H17S  739   4.430   5.423   8.946  0.4418 -0.6092  0.9795
    6SAPS  C218  740   4.531   5.524   8.781  0.2277 -0.3806  0.2949
    6SAPS  H18R  741   4.599   5.612   8.770  0.8922 -0.9961 -0.5755
    6SAPS  H18S  742   4.453   5.548   8.706  1.5795  1.0536 -0.7258
    6SAPS  C219  743   4.604   5.390   8.749 -0.2951  0.8034 -0.0833
    6SAPS  H19R  744   4.540   5.301   8.769  1.7591 -0.7536 -0.0566
    6SAPS  H19S  745   4.693   5.392   8.816  0.8067  3.8744 -1.4698
    6SAPS  C220  746   4.666   5.393   8.611 -0.0381  0.1492 -0.2517
    6SAPS  H20R  747   4.736   5.308   8.597  1.1909  1.3357 -1.6760
    6SAPS  H20S  748   4.718   5.491   8.612  0.0695  0.1228  2.3218
    6SAPS  H20T  749   4.580   5.379   8.542 -0.4698 -3.7759  0.8454
    6SAPS   C33  750   5.418   6.482  10.249 -0.1498  0.5008  0.3293
    6SAPS   H3X  751   5.514   6.425  10.258  0.0054  0.0665 -3.0451
    6SAPS   H3Y  752   5.433   6.591  10.266  1.6242  0.0723  1.9217
    6SAPS   C34  753   5.356   6.461  10.115 -0.0590  0.0625  0.5190
    6SAPS   H4X  754   5.256   6.511  10.112  0.1219  0.4970  1.3905
    6SAPS   H4Y  755   5.344   6.357  10.078 -2.6305  0.0671  1.1643
    6SAPS   C35  756   5.447   6.535  10.004 -0.0787  0.0791 -0.4614
    6SAPS   H5X  757   5.555   6.507  10.005 -0.3797 -1.1490  0.2551
    6SAPS   H5Y  758   5.437   6.643  10.029  0.1337  0.1130 -0.5195
    6SAPS   C36  759   5.397   6.516   9.863 -0.6862 -0.3525 -0.7090
    6SAPS   H6X  760   5.291   6.548   9.860 -0.7465  0.1019  2.7591
    6SAPS   H6Y  761   5.401   6.412   9.825 -2.3648 -0.8976  0.5273
    6SAPS   C37  762   5.477   6.609   9.762  0.5780 -0.1697 -1.2093
    6SAPS   H7X  763   5.583   6.577   9.748  1.0613  0.5795  0.4343
    6SAPS   H7Y  764   5.468   6.713   9.800  1.5629 -0.7289  0.6866
    6SAPS   C38  765   5.431   6.617   9.616 -0.2862 -0.2606  0.4548
    6SAPS   H8X  766   5.501   6.683   9.560  0.0539  2.6807  3.9829
    6SAPS   H8Y  767   5.330   6.663   9.601 -0.8177 -1.3907  0.4823
    6SAPS   C39  768   5.415   6.473   9.546  0.4746  0.7981  0.2842
    6SAPS   H9X  769   5.331   6.421   9.598 -0.3390  1.6681 -0.1297
    6SAPS   H9Y  770   5.507   6.416   9.571 -1.5762 -2.0819  1.9584
    6SAPS  C310  771   5.393   6.469   9.391  0.7436 -0.2631 -0.2315
    6SAPS  H10X  772   5.306   6.531   9.360  0.8639 -1.0291 -2.2626
    6SAPS  H10Y  773   5.370   6.364   9.363  1.4801 -0.5471  0.2052
    6SAPS  C311  774   5.508   6.522   9.302 -0.1879  0.0408  0.7437
    6SAPS  H11X  775   5.590   6.448   9.299 -0.4790 -0.2578  0.1688
    6SAPS  H11Y  776   5.538   6.619   9.348 -2.5506  0.7089  1.0248
    6SAPS  C312  777   5.455   6.541   9.160 -0.4782  0.3999 -0.0339
    6SAPS  H12X  778   5.362   6.601   9.147 -0.5654  0.0005 -1.4567
    6SAPS  H12Y  779   5.425   6.439   9.129 -0.0971  1.1073 -3.1486
    6SAPS  C313  780   5.559   6.595   9.064  0.2383  0.3765 -0.2218
    6SAPS  H13X  781   5.588   6.700   9.083  0.0292  0.3725  0.1142
    6SAPS  H13Y  782   5.508   6.598   8.965 -1.3285  1.1179  0.5885
    6SAPS  C314  783   5.685   6.507   9.053  0.1358  0.1071  0.2140
    6SAPS  H14X  784   5.663   6.399   9.061  3.1825 -0.6047  0.2711
    6SAPS  H14Y  785   5.760   6.529   9.132  2.3623  0.2467 -1.7994
    6SAPS  C315  786   5.750   6.540   8.916  0.0670 -1.0849  0.2231
    6SAPS  H15X  787   5.842   6.478   8.924 -1.3332 -3.1882  0.8847
    6SAPS  H15Y  788   5.778   6.647   8.913 -1.2072 -0.6762  1.6319
    6SAPS  C316  789   5.669   6.495   8.789 -0.6537  0.5909 -0.3303
    6SAPS  H16X  790   5.653   6.575   8.713 -0.3409 -0.0986 -1.1377
    6SAPS  H16Y  791   5.565   6.466   8.815 -0.2968 -1.0625 -0.6709
    6SAPS  C317  792   5.737   6.383   8.702  0.1772  0.1105 -0.4356
    6SAPS  H17X  793   5.672   6.358   8.615  0.1836 -2.4794  0.2268
    6SAPS  H17Y  794   5.747   6.287   8.757  0.6725  0.2680 -0.2410
    6SAPS  C318  795   5.867   6.434   8.660 -0.4404 -0.1073 -0.6742
    6SAPS  H18X  796   5.937   6.448   8.745 -0.4568  0.2877 -0.7222
    6SAPS  H18Y  797   5.872   6.532   8.607  0.1843 -0.9075 -2.1652
    6SAPS  H18Z  798   5.912   6.361   8.590  1.7438 -1.6042  2.0932
    7SAPS     N  799   0.204   0.280  10.867  0.0185 -0.0726 -0.8784
    7SAPS   HN1  800   0.229   0.378  10.844 -0.2377  0.4939  1.1151
    7SAPS   HN2  801   0.139   0.245  10.793 -2.1823  0.4416  0.6818
    7SAPS   HN3  802   0.140   0.280  10.949  1.5244  2.0383  0.3637
    7SAPS   C12  803   0.319   0.188  10.883 -0.3369 -0.1842  0.6135
    7SAPS  H12A  804   0.361   0.178  10.784 -0.8279  2.1446  0.1188
    7SAPS   C13  805   0.433   0.251  10.967 -0.2831  0.4936  0.6050
    7SAPS  O13A  806   0.401   0.342  11.049 -0.6075  0.1771  0.0169
    7SAPS  O13B  807   0.535   0.183  10.987  0.1656  0.9244  0.6608
    7SAPS   C11  808   0.272   0.053  10.931  0.7138  0.3923 -0.3807
    7SAPS  H11A  809   0.214   0.060  11.025 -0.9778 -3.9422 -0.8608
    7SAPS  H11B  810   0.349  -0.018  10.968 -1.4382 -0.8255  2.1414
    7SAPS     P  811   0.229  -0.151  10.789  0.4741 -0.3946  0.0280
    7SAPS   O13  812   0.216  -0.237  10.904 -0.0905 -0.1513 -0.4844
    7SAPS   O14  813   0.149  -0.206  10.677  0.4577  0.1588  0.3491
    7SAPS   O12  814   0.194  -0.003  10.827  0.5063  0.7380  0.3422
    7SAPS   O11  815   0.379  -0.150  10.742  0.0054 -0.8155  0.0446
    7SAPS    C1  816   0.437  -0.062  10.643  1.1393 -0.1528  0.3040
    7SAPS    HA  817   0.360  -0.019  10.576  1.7741  0.3005 -0.1479
    7SAPS    HB  818   0.495   0.020  10.691  2.2389 -0.0156 -1.1994
    7SAPS    C2  819   0.526  -0.149  10.547 -0.3259  0.1744  0.3581
    7SAPS    HS  820   0.633  -0.158  10.576 -0.9224 -0.9402  2.4723
    7SAPS   O21  821   0.519  -0.090  10.420  0.5266  0.2437 -0.1354
    7SAPS   C21  822   0.573   0.030  10.402  0.2904  0.7003 -0.0419
    7SAPS   O22  823   0.657   0.085  10.478 -0.1846  0.4589  0.0716
    7SAPS   C22  824   0.543   0.075  10.261  0.4325  0.1538 -0.5808
    7SAPS   H2R  825   0.525  -0.016  10.200 -2.1817  0.4126 -0.2875
    7SAPS   H2S  826   0.451   0.134  10.279  0.4478 -0.2820  1.1858
    7SAPS    C3  827   0.468  -0.293  10.536 -0.3080 -0.5361 -0.6318
    7SAPS    HX  828   0.359  -0.272  10.539 -0.6379 -2.1774  1.9068
    7SAPS    HY  829   0.492  -0.349  10.629  2.0262  1.0367 -0.1953
    7SAPS   O31  830   0.518  -0.373  10.425  0.0749 -0.5840  0.3765
    7SAPS   C31  831   0.427  -0.454  10.374 -0.3823 -0.3917 -0.7379
    7SAPS   O32  832   0.323  -0.478  10.431  0.6281  0.0791 -0.3887
    7SAPS   C32  833   0.461  -0.494  10.231 -0.5154  0.7184  0.0410
    7SAPS   H2X  834   0.559  -0.545  10.244 -2.9767 -4.2884  1.7778
    7SAPS   H2Y  835   0.473  -0.410  10.160 -2.9075  0.7741 -0.3902
    7SAPS   C23  836   0.645   0.170  10.198 -0.6083 -0.4073 -0.0056
    7SAPS   H3R  837   0.734   0.107  10.174 -0.2411 -0.4182  1.2959
    7SAPS   H3S  838   0.683   0.253  10.261 -0.1016  2.3049 -3.5608
    7SAPS   C24  839   0.598   0.227  10.055 -0.0056 -0.6320  0.3121
    7SAPS   H4R  840   0.502   0.281  10.072  1.1592  2.0888 -1.1763
    7SAPS   H4S  841   0.578   0.146   9.981  1.4551 -1.2970  0.6201
    7SAPS   C25  842   0.695   0.327  10.015 -0.6470 -0.4625  1.0590
    7SAPS   H5R  843   0.722   0.404  10.088 -2.6679  0.0470  1.3348
    7SAPS   C26  844   0.749   0.326   9.892  1.0598  0.4945 -1.2318
    7SAPS   H6R  845   0.819   0.409   9.877  1.0111  0.6726 -0.4942
    7SAPS   C27  846   0.724   0.235   9.777  0.1424  0.5989  0.7795
    7SAPS   H7R  847   0.683   0.303   9.699  0.9111 -1.5432 -1.5905
    7SAPS   H7S  848   0.656   0.149   9.797  2.2715 -1.7243 -1.2855
    7SAPS   C28  849   0.862   0.184   9.732 -0.6355 -0.2980 -0.1727
    7SAPS   H8R  850   0.916   0.155   9.823  1.7391  2.7481 -0.4633
    7SAPS   C29  851   0.915   0.170   9.604  0.8123  0.7428  0.5484
    7SAPS   H9R  852   1.016   0.130   9.591  0.5441  0.6904 -1.7142
    7SAPS  C210  853   0.834   0.204   9.481  0.5668 -0.1326 -0.0260
    7SAPS  H10R  854   0.731   0.162   9.484  0.5679 -0.1880 -0.6403
    7SAPS  H10S  855   0.884   0.149   9.399  1.8218  0.0271  0.6149
    7SAPS  C211  856   0.833   0.339   9.428 -0.5504 -0.4689 -0.0886
    7SAPS  H11R  857   0.863   0.418   9.499  0.1727 -1.7215  1.0360
    7SAPS  C212  858   0.812   0.380   9.303 -0.4062  0.0985  0.2964
    7SAPS  H12R  859   0.832   0.486   9.281  0.4460  0.2173  1.5582
    7SAPS  C213  860   0.776   0.302   9.176  0.3390  0.7165 -0.3254
    7SAPS  H13R  861   0.702   0.357   9.114  0.9810  0.5922 -1.2291
    7SAPS  H13S  862   0.711   0.219   9.212  1.7195 -1.0379 -1.6720
    7SAPS  C214  863   0.894   0.256   9.084  0.1586  0.5547 -0.0726
    7SAPS  H14R  864   0.995   0.254   9.126  0.0811  0.6253  0.1199
    7SAPS  C215  865   0.883   0.230   8.953  0.0850 -0.3098  0.0064
    7SAPS  H15R  866   0.975   0.205   8.898 -0.8573 -3.0705 -0.4577
    7SAPS  C216  867   0.758   0.237   8.865 -0.1833  0.2151 -0.2167
    7SAPS  H16R  868   0.776   0.312   8.785  1.1748 -0.5905 -0.6934
    7SAPS  H16S  869   0.669   0.273   8.921 -0.7275  2.1412 -2.1840
    7SAPS  C217  870   0.721   0.099   8.819  0.4381 -0.3501  0.6160
    7SAPS  H17R  871   0.613   0.111   8.792  0.5296  4.3198  1.3880
    7SAPS  H17S  872   0.727   0.019   8.896  2.1798 -0.4241  0.4264
    7SAPS  C218  873   0.811   0.041   8.702 -0.3268 -0.2728  0.0512
    7SAPS  H18R  874   0.774  -0.063   8.685 -0.7729 -0.1306  0.1388
    7SAPS  H18S  875   0.917   0.027   8.732 -0.7592 -1.7814  1.0154
    7SAPS  C219  876   0.814   0.124   8.573  0.4437  0.6567  0.7820
    7SAPS  H19R  877   0.877   0.213   8.592  0.5254  1.7365 -3.4286
    7SAPS  H19S  878   0.712   0.160   8.546  1.0941  1.3548 -0.9071
    7SAPS  C220  879   0.868   0.034   8.453 -0.5865 -0.2824 -0.4916
    7SAPS  H20R  880   0.971   0.000   8.477  0.5668  1.6054 -2.4215
    7SAPS  H20S  881   0.877   0.100   8.364  1.4026 -0.7028 -0.6505
    7SAPS  H20T  882   0.795  -0.047   8.431  0.2080 -0.9830 -0.5735
    7SAPS   C33  883   0.354  -0.587  10.173  0.2713 -0.0243  0.0242
    7SAPS   H3X  884   0.264  -0.522  10.164 -1.8722 -2.9771 -1.7864
    7SAPS   H3Y  885   0.325  -0.670  10.240 -1.1955 -0.4614 -1.0966
    7SAPS   C34  886   0.385  -0.662  10.037 -0.1182  0.9009 -0.1214
    7SAPS   H4X  887   0.293  -0.714  10.001 -0.4382  0.3590  1.3937
    7SAPS   H4Y  888   0.455  -0.746  10.057 -2.7867 -1.5261 -0.2655
    7SAPS   C35  889   0.446  -0.571   9.928 -0.1580  0.4254 -0.1575
    7SAPS   H5X  890   0.547  -0.530   9.949 -1.0751  1.5225  2.6463
    7SAPS   H5Y  891   0.374  -0.489   9.908 -0.5997 -0.0334 -0.4594
    7SAPS   C36  892   0.469  -0.637   9.791  0.6025  1.3251  0.1743
    7SAPS   H6X  893   0.371  -0.668   9.749  1.2134  0.0611 -0.3567
    7SAPS   H6Y  894   0.531  -0.727   9.810  1.6011  1.8579 -0.4932
    7SAPS   C37  895   0.516  -0.542   9.680  0.0855 -0.7742 -0.0088
    7SAPS   H7X  896   0.612  -0.491   9.703  0.9252 -1.9184 -0.9293
    7SAPS   H7Y  897   0.442  -0.462   9.658  0.1409 -0.5615  0.5309
    7SAPS   C38  898   0.540  -0.623   9.558 -0.0081 -0.9236 -0.3643
    7SAPS   H8X  899   0.441  -0.674   9.556 -0.3112 -0.3248 -0.9876
    7SAPS   H8Y  900   0.622  -0.697   9.563  0.3567 -0.4449  1.8023
    7SAPS   C39  901   0.548  -0.535   9.436 -0.0606 -0.1908 -0.4762
    7SAPS   H9X  902   0.646  -0.484   9.424  0.2975 -0.3566  1.5257
    7SAPS   H9Y  903   0.459  -0.468   9.437 -2.4426 -3.1523 -0.0755
    7SAPS  C310  904   0.519  -0.627   9.307  0.0851  0.0088 -1.0386
    7SAPS  H10X  905   0.473  -0.549   9.243  0.5986  1.8900  0.7785
    7SAPS  H10Y  906   0.456  -0.711   9.344  2.3225 -0.7629  1.3751
    7SAPS  C311  907   0.647  -0.667   9.228 -0.1197  0.2683  0.1662
    7SAPS  H11X  908   0.697  -0.751   9.281  1.3328  2.9410  3.3687
    7SAPS  H11Y  909   0.708  -0.575   9.239 -0.5218  0.5541 -0.0010
    7SAPS  C312  910   0.613  -0.709   9.094  1.0943  0.7913  0.1445
    7SAPS  H12X  911   0.553  -0.634   9.039 -1.9201 -0.6036  1.2693
    7SAPS  H12Y  912   0.543  -0.796   9.093  0.9508  0.8134 -3.3351
    7SAPS  C313  913   0.738  -0.752   9.017 -0.6194  0.4815 -0.3476
    7SAPS  H13X  914   0.783  -0.836   9.073  0.4296 -0.0493 -1.9182
    7SAPS  H13Y  915   0.821  -0.678   9.016  0.1015  0.1990  5.1795
    7SAPS  C314  916   0.704  -0.801   8.876 -0.4739 -0.2324 -0.0221
    7SAPS  H14X  917   0.670  -0.711   8.820 -3.3642 -0.0373  1.8294
    7SAPS  H14Y  918   0.621  -0.874   8.884 -1.7561  1.2671  0.9951
    7SAPS  C315  919   0.814  -0.882   8.802 -0.3702  0.2160 -0.0069
    7SAPS  H15X  920   0.855  -0.962   8.869  0.5843  0.1636 -0.6286
    7SAPS  H15Y  921   0.908  -0.826   8.784 -0.2225  0.2733  0.8852
    7SAPS  C316  922   0.758  -0.948   8.674  0.0834 -0.4439 -0.4446
    7SAPS  H16X  923   0.704  -0.869   8.617 -0.3104  0.8737  1.6414
    7SAPS  H16Y  924   0.688  -1.030   8.697 -0.0620 -0.9988 -2.6157
    7SAPS  C317  925   0.858  -1.012   8.580 -0.2004 -0.0575  0.3782
    7SAPS  H17X  926   0.798  -1.017   8.487  1.4773  2.6976 -0.9678
    7SAPS  H17Y  927   0.890  -1.116   8.602  0.2652 -0.3226 -1.4016
    7SAPS  C318  928   0.988  -0.934   8.549 -0.0029 -0.3896  0.3058
    7SAPS  H18X  929   0.951  -0.845   8.495 -0.6968 -0.7296  0.2149
    7SAPS  H18Y  930   1.066  -0.992   8.495  1.8309  0.3253  2.0454
    7SAPS  H18Z  931   1.033  -0.902   8.646  0.1469 -1.4154  0.5890
    8SAPS     N  932   1.014   1.016  11.059  0.3373  0.4102 -0.5357
    8SAPS   HN1  933   0.959   1.069  11.130 -1.7310  0.4659 -2.1057
    8SAPS   HN2  934   1.003   1.061  10.966  0.4973  1.6302  0.0203
    8SAPS   HN3  935   0.993   0.914  11.051 -0.2663  0.5507 -0.8135
    8SAPS   C12  936   1.153   1.019  11.100  0.0230  0.7160 -0.3579
    8SAPS  H12A  937   1.181   1.115  11.140  1.6647  0.8221 -1.6090
    8SAPS   C13  938   1.204   0.919  11.210 -0.4556  0.0810 -0.0787
    8SAPS  O13A  939   1.116   0.856  11.279  0.4746  0.2530 -0.1949
    8SAPS  O13B  940   1.322   0.934  11.254 -0.0944 -0.0516  0.6519
    8SAPS   C11  941   1.230   0.995  10.963  0.1512  0.0021  0.6154
    8SAPS  H11A  942   1.339   1.010  10.971  0.3746 -1.6673  1.0691
    8SAPS  H11B  943   1.187   1.072  10.894 -1.7244 -0.4711  1.1826
    8SAPS     P  944   1.249   0.817  10.776 -0.4068  0.4064  0.3586
    8SAPS   O13  945   1.380   0.749  10.788 -0.0885 -0.3321 -1.1413
    8SAPS   O14  946   1.143   0.747  10.710  0.6499 -0.3960  0.1044
    8SAPS   O12  947   1.208   0.858  10.920  0.0555 -0.0652 -0.2891
    8SAPS   O11  948   1.271   0.950  10.694  0.6323  0.4344  0.0782
    8SAPS    C1  949   1.330   0.943  10.561  1.1742  0.2046 -0.6739
    8SAPS    HA  950   1.407   1.022  10.552 -1.1715  2.9942  1.6153
    8SAPS    HB  951   1.367   0.842  10.532 -0.9362 -0.5606 -0.8887
    8SAPS    C2  952   1.221   0.962  10.453 -0.1396 -0.6715 -0.3883
    8SAPS    HS  953   1.142   0.885  10.468  0.6579 -1.3900  0.2248
    8SAPS   O21  954   1.294   0.956  10.327 -0.0014 -0.3585  0.2885
    8SAPS   C21  955   1.302   0.839  10.270 -0.3080  0.4140  0.3947
    8SAPS   O22  956   1.261   0.736  10.313  0.2119 -0.0594  0.0467
    8SAPS   C22  957   1.350   0.864  10.127  0.4811  0.1507 -0.3138
    8SAPS   H2R  958   1.263   0.900  10.068 -0.3707 -0.2866  0.6670
    8SAPS   H2S  959   1.430   0.941  10.132 -0.1565  0.7625  0.7242
    8SAPS    C3  960   1.144   1.104  10.466 -0.1484  0.4830  0.4399
    8SAPS    HX  961   1.211   1.192  10.470 -0.9019  1.0385  1.2564
    8SAPS    HY  962   1.083   1.100  10.559 -0.0852  0.0762  0.4648
    8SAPS   O31  963   1.053   1.112  10.352  0.4204 -0.1593  0.4300
    8SAPS   C31  964   1.019   1.234  10.317  0.4451  0.0542  0.2161
    8SAPS   O32  965   1.055   1.333  10.375 -0.8814 -0.4297  0.0188
    8SAPS   C32  966   0.932   1.226  10.184  0.2083  0.1757 -0.1884
    8SAPS   H2X  967   0.841   1.290  10.192 -1.3886 -1.8855 -0.8143
    8SAPS   H2Y  968   0.899   1.123  10.161 -1.2713  0.3778  0.8924
    8SAPS   C23  969   1.413   0.738  10.065  0.1454  0.2928  0.5569
    8SAPS   H3R  970   1.342   0.652  10.060 -0.9704  1.2614 -2.0180
    8SAPS   H3S  971   1.501   0.708  10.125  0.7257  1.0427  0.0917
    8SAPS   C24  972   1.450   0.773   9.916  0.3728 -0.2740  0.0254
    8SAPS   H4R  973   1.352   0.811   9.881 -1.2920 -1.3218  3.1062
    8SAPS   H4S  974   1.481   0.681   9.862  2.2979  1.8492 -2.7096
    8SAPS   C25  975   1.555   0.884   9.898  0.0156 -0.1124 -0.0969
    8SAPS   H5R  976   1.560   0.950   9.986  0.7522 -2.6835  1.9050
    8SAPS   C26  977   1.621   0.907   9.782  0.2045 -0.3302  0.3231
    8SAPS   H6R  978   1.696   0.988   9.781 -1.1243  0.9356 -0.8062
    8SAPS   C27  979   1.606   0.831   9.653  0.8225  0.7828 -0.4582
    8SAPS   H7R  980   1.499   0.828   9.622  0.1668  1.1568  1.6148
    8SAPS   H7S  981   1.644   0.731   9.681 -0.8014  0.1863 -0.2490
    8SAPS   C28  982   1.700   0.871   9.545 -0.1842  0.4457 -0.5221
    8SAPS   H8R  983   1.803   0.835   9.550  0.0841  1.1658 -0.7626
    8SAPS   C29  984   1.668   0.937   9.439  0.2878 -0.6481  0.6623
    8SAPS   H9R  985   1.755   0.947   9.373 -0.2853  0.6044  0.0600
    8SAPS  C210  986   1.532   0.990   9.404 -0.5760  0.3875  0.7777
    8SAPS  H10R  987   1.493   1.055   9.485 -0.4946  0.1461  1.0133
    8SAPS  H10S  988   1.460   0.907   9.391  1.2210 -1.5375  2.3802
    8SAPS  C211  989   1.542   1.079   9.285  0.2426  0.0109  0.5781
    8SAPS  H11R  990   1.637   1.134   9.278  0.5197 -0.5098  0.2437
    8SAPS  C212  991   1.454   1.092   9.183  0.6661  0.0711  0.1544
    8SAPS  H12R  992   1.470   1.161   9.099  0.3890 -1.0927 -0.8909
    8SAPS  C213  993   1.318   1.014   9.173 -0.1108  0.0315  0.2442
    8SAPS  H13R  994   1.325   0.911   9.214  0.0478 -0.3452 -0.6838
    8SAPS  H13S  995   1.300   1.001   9.064  2.2846  2.9520 -0.6409
    8SAPS  C214  996   1.217   1.094   9.245 -0.3116  0.4495 -0.2615
    8SAPS  H14R  997   1.194   1.058   9.346 -1.3732 -3.8834 -1.8248
    8SAPS  C215  998   1.142   1.201   9.203 -1.2092  0.1078 -0.1184
    8SAPS  H15R  999   1.071   1.239   9.278 -1.0002  1.1204 -0.4250
    8SAPS  C216 1000   1.150   1.263   9.066  0.2096  0.4504  0.4130
    8SAPS  H16R 1001   1.242   1.240   9.007  1.4330  1.7915  1.7284
    8SAPS  H16S 1002   1.153   1.374   9.074  0.4046  0.4870 -0.1135
    8SAPS  C217 1003   1.027   1.216   8.981  0.0737 -0.7713 -0.6102
    8SAPS  H17R 1004   0.933   1.256   9.024  1.2747  1.0782  0.4030
    8SAPS  H17S 1005   1.013   1.106   8.982 -0.7337 -0.6957 -1.4584
    8SAPS  C218 1006   1.037   1.267   8.837  0.0652 -0.3596 -0.0904
    8SAPS  H18R 1007   1.096   1.198   8.773  0.6679  0.5735 -0.5629
    8SAPS  H18S 1008   1.097   1.359   8.826 -1.2996  0.3780 -1.8996
    8SAPS  C219 1009   0.904   1.302   8.758 -0.2099 -0.0472 -0.3424
    8SAPS  H19R 1010   0.925   1.314   8.650 -0.9537  0.8090 -0.4040
    8SAPS  H19S 1011   0.845   1.388   8.796  0.7799  0.3861  0.2360
    8SAPS  C220 1012   0.801   1.181   8.766  0.0190 -0.1121 -0.2403
    8SAPS  H20R 1013   0.706   1.205   8.715  0.0992 -1.2385 -0.9470
    8SAPS  H20S 1014   0.768   1.146   8.866 -1.7693 -0.1695 -0.8101
    8SAPS  H20T 1015   0.839   1.092   8.712  0.9906  0.7024 -0.9467
    8SAPS   C33 1016   1.015   1.283  10.063 -0.1069 -0.2080 -0.1951
    8SAPS   H3X 1017   1.059   1.381  10.089  1.8652 -1.0050 -0.3375
    8SAPS   H3Y 1018   0.945   1.294   9.977 -1.8845 -1.4316  1.0262
    8SAPS   C34 1019   1.133   1.187  10.041 -0.4107 -0.1922  0.3092
    8SAPS   H4X 1020   1.093   1.085  10.023 -1.8735  0.4176 -0.0536
    8SAPS   H4Y 1021   1.197   1.198  10.131  0.3230 -0.6861 -0.1444
    8SAPS   C35 1022   1.223   1.237   9.931  0.0230  0.4249  0.6892
    8SAPS   H5X 1023   1.316   1.177   9.918  0.2062  1.0888 -1.6545
    8SAPS   H5Y 1024   1.253   1.343   9.946  0.6745  0.1616  1.3186
    8SAPS   C36 1025   1.152   1.208   9.798 -0.0439 -0.5624  0.7360
    8SAPS   H6X 1026   1.060   1.270   9.787 -2.1462 -3.3924  1.1702
    8SAPS   H6Y 1027   1.114   1.104   9.793  0.5663 -0.7403 -2.0731
    8SAPS   C37 1028   1.244   1.222   9.673 -0.3905 -0.9339  0.2452
    8SAPS   H7X 1029   1.194   1.160   9.595 -2.0786  0.9189 -0.2386
    8SAPS   H7Y 1030   1.342   1.181   9.707 -0.0370 -0.7577 -0.5425
    8SAPS   C38 1031   1.242   1.371   9.623  0.6268 -0.3969 -0.9265
    8SAPS   H8X 1032   1.262   1.446   9.702 -0.0774 -1.4365  0.2745
    8SAPS   H8Y 1033   1.138   1.390   9.590  0.4757  0.5853  0.0847
    8SAPS   C39 1034   1.329   1.388   9.497 -0.2840  0.4884 -0.1813
    8SAPS   H9X 1035   1.303   1.323   9.411  0.6993 -0.2565  0.0804
    8SAPS   H9Y 1036   1.425   1.344   9.529 -0.4122  0.3046 -0.0537
    8SAPS  C310 1037   1.342   1.530   9.454  0.6830 -0.0013 -0.0614
    8SAPS  H10X 1038   1.373   1.580   9.548 -1.0428 -1.1386  1.1664
    8SAPS  H10Y 1039   1.243   1.569   9.422  0.1411 -0.1531  1.3782
    8SAPS  C311 1040   1.460   1.545   9.354 -0.4153 -0.5130 -0.6010
    8SAPS  H11X 1041   1.553   1.498   9.393  0.6393  1.2397 -0.9073
    8SAPS  H11Y 1042   1.466   1.654   9.332 -0.2655 -0.7276 -1.6818
    8SAPS  C312 1043   1.431   1.475   9.218  0.2412 -0.0593  0.9610
    8SAPS  H12X 1044   1.334   1.517   9.183  0.6596 -0.8873 -1.2992
    8SAPS  H12Y 1045   1.402   1.368   9.231  1.3930 -0.8053 -1.9665
    8SAPS  C313 1046   1.547   1.481   9.110  0.5271 -0.3090 -0.4142
    8SAPS  H13X 1047   1.636   1.425   9.145  0.3339 -0.3017  0.0924
    8SAPS  H13Y 1048   1.567   1.590   9.102  0.0130  0.1073  2.8235
    8SAPS  C314 1049   1.514   1.442   8.969  0.7115 -0.2590  0.1109
    8SAPS  H14X 1050   1.465   1.342   8.965 -0.4619  0.3304 -2.4215
    8SAPS  H14Y 1051   1.613   1.434   8.919  0.3578  0.9756 -0.8389
    8SAPS  C315 1052   1.425   1.547   8.895  0.0449 -0.0682 -0.1977
    8SAPS  H15X 1053   1.463   1.650   8.882 -1.2136  0.4183 -0.1640
    8SAPS  H15Y 1054   1.331   1.561   8.953  0.0261  0.8318 -0.4280
    8SAPS  C316 1055   1.393   1.493   8.750  0.3807  0.0001 -0.0263
    8SAPS  H16X 1056   1.298   1.543   8.723 -0.9928 -0.4052  3.4962
    8SAPS  H16Y 1057   1.366   1.385   8.748 -0.8110  0.2813 -2.4129
    8SAPS  C317 1058   1.504   1.545   8.656  0.0457  0.4344 -0.7757
    8SAPS  H17X 1059   1.597   1.495   8.690 -0.9837 -1.1708 -0.2040
    8SAPS  H17Y 1060   1.526   1.654   8.665  2.3927  0.4266 -4.1919
    8SAPS  C318 1061   1.471   1.518   8.509 -0.3128  0.8152 -0.0368
    8SAPS  H18X 1062   1.392   1.584   8.469  0.0284  1.0068 -0.3898
    8SAPS  H18Y 1063   1.435   1.414   8.491  1.2305 -0.0294  1.4458
    8SAPS  H18Z 1064   1.565   1.521   8.450  1.4975  0.6709  2.6509
    9SAPS     N 1065   0.152   5.356   6.521  0.4800 -0.7940  0.5035
    9SAPS   HN1 1066   0.224   5.430   6.532 -0.7935  0.7632 -1.0004
    9SAPS   HN2 1067   0.055   5.393   6.509  0.9187  0.8645  1.8355
    9SAPS   HN3 1068   0.149   5.303   6.611  0.9869 -1.2349  0.2619
    9SAPS   C12 1069   0.183   5.256   6.411  1.0450 -0.0193 -0.3545
    9SAPS  H12A 1070   0.112   5.175   6.408  2.7584 -1.6554  1.0732
    9SAPS   C13 1071   0.189   5.316   6.262  0.2092  0.0388 -0.2899
    9SAPS  O13A 1072   0.150   5.433   6.252 -0.0357  0.2196  0.8175
    9SAPS  O13B 1073   0.255   5.260   6.176  0.2853  0.0793  0.0971
    9SAPS   C11 1074   0.328   5.198   6.447  0.0665  0.0053 -0.3554
    9SAPS  H11A 1075   0.393   5.286   6.428  0.2008 -0.3354 -1.5419
    9SAPS  H11B 1076   0.349   5.116   6.375 -2.2297 -0.3796 -0.6621
    9SAPS     P 1077   0.391   5.022   6.628 -0.1811 -0.3270  0.4964
    9SAPS   O13 1078   0.454   4.953   6.511 -0.5138 -0.5174 -0.5503
    9SAPS   O14 1079   0.482   5.054   6.740 -0.8315 -0.0237 -0.4651
    9SAPS   O12 1080   0.329   5.160   6.588  0.2048  0.4469  0.6057
    9SAPS   O11 1081   0.276   4.939   6.688  0.2032 -0.4354 -0.3302
    9SAPS    C1 1082   0.140   4.965   6.671  0.3928  0.4976 -0.0247
    9SAPS    HA 1083   0.121   5.057   6.611  0.1528 -0.1359 -0.9419
    9SAPS    HB 1084   0.097   4.885   6.606 -0.8384 -0.6778  2.1207
    9SAPS    C2 1085   0.042   4.972   6.795  0.2430  0.7157 -0.0257
    9SAPS    HS 1086  -0.056   5.013   6.762 -0.1829  0.6266  1.0859
    9SAPS   O21 1087   0.108   5.048   6.904 -0.0111 -0.4548 -0.4902
    9SAPS   C21 1088   0.138   5.171   6.862  0.5180  0.8898  1.1277
    9SAPS   O22 1089   0.087   5.227   6.766 -0.1768  0.0145  0.1292
    9SAPS   C22 1090   0.241   5.234   6.952  0.0932  0.9364  0.8063
    9SAPS   H2R 1091   0.310   5.155   6.990 -1.7573 -1.0111  0.2715
    9SAPS   H2S 1092   0.294   5.295   6.876  0.3315 -1.2967 -0.9268
    9SAPS    C3 1093   0.016   4.827   6.848  0.0473 -0.0589 -0.0376
    9SAPS    HX 1094   0.115   4.776   6.848 -0.7410 -2.2218  5.3268
    9SAPS    HY 1095  -0.053   4.796   6.766 -1.5328  1.8803  0.4715
    9SAPS   O31 1096  -0.017   4.819   6.993  0.0259  0.0932  0.1456
    9SAPS   C31 1097  -0.141   4.857   7.022  0.8121 -0.9113  0.2799
    9SAPS   O32 1098  -0.222   4.891   6.943 -0.0323  0.3844  0.7547
    9SAPS   C32 1099  -0.176   4.858   7.175 -0.3311 -0.0391 -0.0378
    9SAPS   H2X 1100  -0.155   4.960   7.213  0.2313  0.2009 -0.9547
    9SAPS   H2Y 1101  -0.102   4.786   7.218  2.4809  0.0797 -4.0357
    9SAPS   C23 1102   0.181   5.320   7.072  0.1931 -0.2474  0.4481
    9SAPS   H3R 1103   0.120   5.404   7.032 -1.4510 -0.3790  2.5324
    9SAPS   H3S 1104   0.246   5.384   7.136  1.5332  1.3894 -2.3480
    9SAPS   C24 1105   0.095   5.235   7.168  0.4894 -0.4225  0.3698
    9SAPS   H4R 1106   0.042   5.164   7.102  0.9376 -0.1395 -0.3027
    9SAPS   H4S 1107   0.029   5.313   7.212  0.5269 -0.4343  0.4482
    9SAPS   C25 1108   0.178   5.166   7.268 -0.2924 -0.0999  0.3230
    9SAPS   H5R 1109   0.260   5.107   7.227 -0.8887 -1.5055  1.0840
    9SAPS   C26 1110   0.164   5.175   7.398 -0.6450  0.1016  0.2024
    9SAPS   H6R 1111   0.219   5.107   7.464 -2.5893 -0.9549  0.8051
    9SAPS   C27 1112   0.067   5.255   7.478 -0.4796 -0.3745 -0.5743
    9SAPS   H7R 1113   0.017   5.336   7.420 -1.9823 -0.5622  0.4101
    9SAPS   H7S 1114   0.131   5.306   7.552 -0.2323  0.9045 -1.6387
    9SAPS   C28 1115  -0.036   5.173   7.541  0.0289  0.1284 -0.2226
    9SAPS   H8R 1116  -0.130   5.166   7.485 -0.3028  0.1382  0.3287
    9SAPS   C29 1117  -0.036   5.129   7.670 -0.0577 -0.0808  0.0000
    9SAPS   H9R 1118  -0.110   5.065   7.720  0.9762  0.9489  3.0755
    9SAPS  C210 1119   0.081   5.141   7.769  0.8286 -0.8138 -0.2439
    9SAPS  H10R 1120   0.044   5.186   7.864 -0.1605  1.3922 -1.5887
    9SAPS  H10S 1121   0.162   5.212   7.738 -0.7483  0.2283 -2.2126
    9SAPS  C211 1122   0.137   5.011   7.793 -0.1467  0.0056 -0.0215
    9SAPS  H11R 1123   0.174   4.956   7.706  0.6115  0.9163 -0.2965
    9SAPS  C212 1124   0.147   4.951   7.918  0.0108 -0.2882  0.4522
    9SAPS  H12R 1125   0.186   4.850   7.933  0.5635  0.0375  1.2061
    9SAPS  C213 1126   0.100   5.000   8.054 -0.3084 -0.4072 -0.1002
    9SAPS  H13R 1127   0.028   4.926   8.096 -2.6649  1.1880 -1.1280
    9SAPS  H13S 1128   0.024   5.081   8.056 -0.1141 -0.2287  1.6230
    9SAPS  C214 1129   0.216   5.053   8.139  0.9382 -0.0103  0.6466
    9SAPS  H14R 1130   0.314   5.059   8.091  1.1166  0.5412  1.0683
    9SAPS  C215 1131   0.215   5.073   8.274 -0.2887 -0.1431 -0.4854
    9SAPS  H15R 1132   0.308   5.098   8.325  0.0242 -1.3222 -0.4408
    9SAPS  C216 1133   0.099   5.046   8.370 -0.6366 -0.2933  0.5798
    9SAPS  H16R 1134   0.000   5.066   8.323 -1.3857 -3.4023  0.6228
    9SAPS  H16S 1135   0.109   5.112   8.459  0.7621  1.4097 -0.7648
    9SAPS  C217 1136   0.087   4.893   8.399  0.6608  0.6668 -0.0958
    9SAPS  H17R 1137   0.104   4.833   8.307  0.1928  1.1741 -0.5237
    9SAPS  H17S 1138  -0.019   4.868   8.421  0.0798  1.4187 -1.8319
    9SAPS  C218 1139   0.167   4.855   8.521 -0.2101  0.3834  0.0432
    9SAPS  H18R 1140   0.105   4.871   8.612 -1.1226  5.0341 -1.1408
    9SAPS  H18S 1141   0.261   4.914   8.519  0.8105 -1.1872 -0.1037
    9SAPS  C219 1142   0.227   4.713   8.517  0.3870  0.2771  0.2148
    9SAPS  H19R 1143   0.296   4.697   8.432 -0.0663  1.1317 -0.3349
    9SAPS  H19S 1144   0.144   4.643   8.494  0.3729  1.0508 -2.4811
    9SAPS  C220 1145   0.299   4.675   8.640 -0.6441 -0.6464 -0.2389
    9SAPS  H20R 1146   0.351   4.579   8.622  2.2444  0.7876 -0.0546
    9SAPS  H20S 1147   0.237   4.657   8.731 -0.0634  2.3457  0.8446
    9SAPS  H20T 1148   0.377   4.746   8.673 -2.4779  1.5458 -0.3304
    9SAPS   C33 1149  -0.323   4.825   7.209 -0.6340 -0.2563  0.5497
    9SAPS   H3X 1150  -0.344   4.718   7.190  1.7763 -0.3260 -2.7334
    9SAPS   H3Y 1151  -0.395   4.884   7.149 -1.1639 -0.5833  0.8560
    9SAPS   C34 1152  -0.358   4.854   7.357  0.0417 -0.2738 -0.3037
    9SAPS   H4X 1153  -0.463   4.826   7.381 -0.1209 -0.9186 -1.6518
    9SAPS   H4Y 1154  -0.366   4.962   7.380 -3.9967 -0.1210 -1.5103
    9SAPS   C35 1155  -0.275   4.773   7.456  0.7187  0.3323 -0.0292
    9SAPS   H5X 1156  -0.168   4.801   7.452  1.4236 -2.1082 -0.3759
    9SAPS   H5Y 1157  -0.305   4.670   7.424 -0.1313  0.3908  0.5305
    9SAPS   C36 1158  -0.330   4.784   7.601 -0.3672  0.5028 -0.4327
    9SAPS   H6X 1159  -0.438   4.760   7.601 -0.0919 -0.8685  0.3063
    9SAPS   H6Y 1160  -0.308   4.892   7.617 -1.4810  0.6869 -0.0736
    9SAPS   C37 1161  -0.250   4.698   7.704  0.8696 -0.1963 -0.6401
    9SAPS   H7X 1162  -0.141   4.705   7.685  1.4517 -0.0490  2.2515
    9SAPS   H7Y 1163  -0.295   4.598   7.684  2.0068 -0.6018 -1.2451
    9SAPS   C38 1164  -0.276   4.754   7.849 -0.4229  0.2807  0.5179
    9SAPS   H8X 1165  -0.384   4.748   7.877 -0.3327  0.2458  0.8645
    9SAPS   H8Y 1166  -0.242   4.860   7.853 -0.4256  0.3897 -1.4798
    9SAPS   C39 1167  -0.216   4.665   7.954 -0.2187 -0.5408 -0.6425
    9SAPS   H9X 1168  -0.107   4.680   7.937 -0.0397 -1.4848 -0.3824
    9SAPS   H9Y 1169  -0.247   4.558   7.949  0.0291 -0.6818  0.5060
    9SAPS  C310 1170  -0.237   4.718   8.100  0.3809  0.5492 -0.3252
    9SAPS  H10X 1171  -0.202   4.822   8.116  2.0209 -0.0190 -0.0510
    9SAPS  H10Y 1172  -0.156   4.664   8.153  0.0489  1.0968  0.7711
    9SAPS  C311 1173  -0.370   4.671   8.161 -0.1318  0.1037 -0.1059
    9SAPS  H11X 1174  -0.378   4.561   8.174 -1.1978 -0.0453 -1.8006
    9SAPS  H11Y 1175  -0.453   4.705   8.095  0.2520  2.5579  0.5973
    9SAPS  C312 1176  -0.385   4.746   8.293 -0.3959 -0.1500  0.2157
    9SAPS  H12X 1177  -0.493   4.741   8.319 -0.3029 -1.1988  0.4747
    9SAPS  H12Y 1178  -0.337   4.845   8.280 -0.3555 -0.1449  0.3978
    9SAPS  C313 1179  -0.321   4.666   8.406 -0.4371 -0.2831  0.0870
    9SAPS  H13X 1180  -0.212   4.679   8.388 -0.7270  0.2024 -1.4958
    9SAPS  H13Y 1181  -0.349   4.560   8.394 -1.1966  0.2206 -4.5405
    9SAPS  C314 1182  -0.339   4.712   8.554 -0.6692 -0.0027  0.4874
    9SAPS  H14X 1183  -0.263   4.648   8.604  0.3973 -0.8134 -2.0043
    9SAPS  H14Y 1184  -0.444   4.696   8.586 -1.3013  1.0367 -0.9688
    9SAPS  C315 1185  -0.293   4.853   8.574  0.7134  0.0820 -1.4251
    9SAPS  H15X 1186  -0.379   4.914   8.539 -0.4531 -1.1966 -0.8814
    9SAPS  H15Y 1187  -0.218   4.873   8.495  0.4420 -0.4393 -1.8183
    9SAPS  C316 1188  -0.251   4.882   8.721  0.2667 -0.3104 -0.2644
    9SAPS  H16X 1189  -0.181   4.967   8.716  0.1278 -0.2061 -0.4558
    9SAPS  H16Y 1190  -0.196   4.799   8.771 -0.4416  0.1217  1.2826
    9SAPS  C317 1191  -0.372   4.898   8.817 -0.6486  0.2221 -0.6830
    9SAPS  H17X 1192  -0.419   4.798   8.821 -1.1795  0.4496 -1.1059
    9SAPS  H17Y 1193  -0.441   4.966   8.762  0.0684  0.0710 -1.7881
    9SAPS  C318 1194  -0.348   4.951   8.954  0.0561  0.1443 -0.0375
    9SAPS  H18X 1195  -0.434   4.953   9.025  2.1674  2.5012  2.6773
    9SAPS  H18Y 1196  -0.302   5.051   8.942  3.8140 -1.4775 -0.4842
    9SAPS  H18Z 1197  -0.274   4.882   8.999 -0.3123 -0.6638 -0.6468
   10SAPS     N 1198   6.114   0.164   6.293 -0.3167  0.0778  0.0424
   10SAPS   HN1 1199   6.211   0.202   6.304 -0.2420  0.0389 -0.4416
   10SAPS   HN2 1200   6.059   0.250   6.274  2.2045  2.5356  2.7320
   10SAPS   HN3 1201   6.084   0.117   6.380  0.0123 -1.9703 -0.8942
   10SAPS   C12 1202   6.106   0.068   6.175  0.2659 -0.3379  0.9834
   10SAPS  H12A 1203   6.006   0.030   6.162  0.6788 -2.3291  2.9799
   10SAPS   C13 1204   6.149   0.130   6.046 -0.0096  0.8999  0.5155
   10SAPS  O13A 1205   6.205   0.243   6.042  0.0350  0.9264  0.3013
   10SAPS  O13B 1206   6.115   0.065   5.942 -0.1385 -0.0058  0.5385
   10SAPS   C11 1207   6.199  -0.060   6.197  0.2477  0.8004  0.8672
   10SAPS  H11A 1208   6.299  -0.012   6.205  0.3852  0.8592 -0.8965
   10SAPS  H11B 1209   6.172  -0.123   6.109  0.1210  0.3682  1.2088
   10SAPS     P 1210   6.242  -0.254   6.373 -0.1664 -0.2563 -0.5995
   10SAPS   O13 1211   6.184  -0.329   6.484 -0.3982  0.2026 -0.1199
   10SAPS   O14 1212   6.282  -0.341   6.262 -0.1043  0.7171 -0.4740
   10SAPS   O12 1213   6.152  -0.131   6.318  0.0294 -0.6460  0.6309
   10SAPS   O11 1214   6.369  -0.182   6.433  0.1998  0.8161 -0.3186
   10SAPS    C1 1215   6.356  -0.054   6.482  0.2720 -0.2439 -0.3654
   10SAPS    HA 1216   6.456  -0.006   6.471 -0.7450  2.4219  0.9953
   10SAPS    HB 1217   6.278   0.012   6.439  0.1227  1.2319  1.9448
   10SAPS    C2 1218   6.311  -0.066   6.631  0.4242 -0.9998  0.1152
   10SAPS    HS 1219   6.205  -0.097   6.633 -0.7137  2.4941  0.7156
   10SAPS   O21 1220   6.322   0.067   6.687 -0.0549  0.2840 -0.6451
   10SAPS   C21 1221   6.228   0.161   6.662 -0.5388  0.1497 -0.8889
   10SAPS   O22 1222   6.128   0.138   6.598  0.4176  0.4385 -0.0597
   10SAPS   C22 1223   6.271   0.288   6.737 -0.6906 -0.5081 -0.9196
   10SAPS   H2R 1224   6.374   0.276   6.775 -1.5126 -1.4010  1.1838
   10SAPS   H2S 1225   6.258   0.376   6.670 -1.8007  0.4451  0.4905
   10SAPS    C3 1226   6.409  -0.160   6.716  0.2675  0.5966 -0.0751
   10SAPS    HX 1227   6.508  -0.109   6.708  0.2930  0.3696 -1.5465
   10SAPS    HY 1228   6.407  -0.258   6.664 -2.2733  0.5682 -0.0336
   10SAPS   O31 1229   6.376  -0.160   6.866 -0.9439 -0.0880  0.6343
   10SAPS   C31 1230   6.354  -0.280   6.921 -0.9481 -0.2552 -0.2138
   10SAPS   O32 1231   6.349  -0.388   6.864  0.2962 -0.4507 -0.3662
   10SAPS   C32 1232   6.324  -0.263   7.066  0.5816  0.0785  0.1876
   10SAPS   H2X 1233   6.215  -0.242   7.074  0.8682  1.1882  1.7009
   10SAPS   H2Y 1234   6.373  -0.170   7.101 -0.8014  1.1948 -0.7442
   10SAPS   C23 1235   6.182   0.321   6.864 -0.4933  0.1267 -0.3716
   10SAPS   H3R 1236   6.078   0.339   6.828 -0.4255  1.2708 -0.0350
   10SAPS   H3S 1237   6.228   0.409   6.912  0.1879 -0.0219 -0.7406
   10SAPS   C24 1238   6.187   0.202   6.966  0.0723 -0.0664  0.5100
   10SAPS   H4R 1239   6.119   0.129   6.918  1.4782  0.1771 -2.0330
   10SAPS   H4S 1240   6.138   0.242   7.057  0.0096  2.3123 -0.4818
   10SAPS   C25 1241   6.315   0.143   7.001 -0.6194 -0.2257 -0.0185
   10SAPS   H5R 1242   6.374   0.092   6.923 -1.9010 -0.9876 -0.5207
   10SAPS   C26 1243   6.382   0.153   7.114  0.2059 -0.2578 -0.0888
   10SAPS   H6R 1244   6.480   0.103   7.121 -1.0168 -2.9530 -0.7637
   10SAPS   C27 1245   6.353   0.221   7.242  0.4661  0.5812 -0.3148
   10SAPS   H7R 1246   6.273   0.294   7.219  2.4277  2.3459 -2.0108
   10SAPS   H7S 1247   6.450   0.265   7.272  0.1247  0.7213  0.6088
   10SAPS   C28 1248   6.313   0.107   7.344  0.5709  0.0435  0.2014
   10SAPS   H8R 1249   6.246   0.036   7.295  1.7956  0.2321 -1.8676
   10SAPS   C29 1250   6.352   0.091   7.470  0.1478 -0.3774 -0.3417
   10SAPS   H9R 1251   6.309   0.015   7.536  0.6928  1.3157  2.0905
   10SAPS  C210 1252   6.434   0.200   7.538 -0.0222 -0.4826 -0.0063
   10SAPS  H10R 1253   6.388   0.300   7.530  1.9148  0.5744  1.1432
   10SAPS  H10S 1254   6.531   0.202   7.483 -0.8307 -2.3172 -1.5884
   10SAPS  C211 1255   6.465   0.168   7.686 -0.3946 -0.4351  0.4207
   10SAPS  H11R 1256   6.566   0.128   7.705 -1.1791 -1.7408  2.1766
   10SAPS  C212 1257   6.397   0.195   7.797  0.1217 -0.4167 -0.3227
   10SAPS  H12R 1258   6.448   0.166   7.890  1.1356 -1.2900 -1.1235
   10SAPS  C213 1259   6.259   0.252   7.801 -0.7585 -0.4175  0.0093
   10SAPS  H13R 1260   6.228   0.311   7.712  0.7314 -0.2373 -0.4213
   10SAPS  H13S 1261   6.246   0.317   7.890 -2.7586  0.5112 -0.8981
   10SAPS  C214 1262   6.157   0.146   7.808  0.1828  1.1062 -0.4784
   10SAPS  H14R 1263   6.086   0.145   7.724 -1.3107 -0.7195  0.7091
   10SAPS  C215 1264   6.141   0.051   7.904  0.3629  0.4343 -0.8318
   10SAPS  H15R 1265   6.068  -0.032   7.897 -0.6655  0.8832  2.7425
   10SAPS  C216 1266   6.207   0.047   8.041 -0.1639  1.1227 -0.2783
   10SAPS  H16R 1267   6.223   0.153   8.070 -0.5255  1.3361 -0.8287
   10SAPS  H16S 1268   6.311   0.009   8.038 -0.3762  0.4918  0.0443
   10SAPS  C217 1269   6.115  -0.024   8.142 -0.1008  0.1509  0.3785
   10SAPS  H17R 1270   6.071  -0.119   8.107 -0.1355  0.3931 -0.2510
   10SAPS  H17S 1271   6.037   0.049   8.171  0.9281  2.3472 -1.9723
   10SAPS  C218 1272   6.192  -0.062   8.269  0.8084  0.0293 -0.3678
   10SAPS  H18R 1273   6.280  -0.007   8.310  1.3298 -0.8403 -0.2922
   10SAPS  H18S 1274   6.223  -0.166   8.243 -2.6842 -0.8458 -1.5273
   10SAPS  C219 1275   6.096  -0.077   8.382 -0.3621  0.5395 -0.7889
   10SAPS  H19R 1276   6.018  -0.146   8.342  1.1114  0.3557 -3.5795
   10SAPS  H19S 1277   6.052   0.021   8.410  0.3766 -0.0110  2.7533
   10SAPS  C220 1278   6.157  -0.146   8.510  0.0163 -0.4735  0.8504
   10SAPS  H20R 1279   6.109  -0.119   8.606  0.7126  1.0994  0.7797
   10SAPS  H20S 1280   6.263  -0.115   8.527 -0.1858  1.1742 -0.6239
   10SAPS  H20T 1281   6.167  -0.257   8.499  1.0142 -0.1428 -3.8361
   10SAPS   C33 1282   6.342  -0.383   7.163 -0.2025  0.2732 -0.3460
   10SAPS   H3X 1283   6.447  -0.417   7.155  0.1160  0.5337  1.9383
   10SAPS   H3Y 1284   6.281  -0.465   7.120  0.7493 -0.1652 -0.8795
   10SAPS   C34 1285   6.309  -0.341   7.308  0.4419 -0.2124  0.7481
   10SAPS   H4X 1286   6.296  -0.436   7.363 -0.3296  0.0822  1.0903
   10SAPS   H4Y 1287   6.216  -0.280   7.305  1.3380  1.2061 -1.4802
   10SAPS   C35 1288   6.432  -0.270   7.370 -0.2197 -0.9496 -0.6000
   10SAPS   H5X 1289   6.449  -0.170   7.325 -0.7031 -0.6688 -0.1711
   10SAPS   H5Y 1290   6.526  -0.327   7.356  0.2400 -0.7462  1.3087
   10SAPS   C36 1291   6.431  -0.247   7.531  0.7478  0.4181 -0.2779
   10SAPS   H6X 1292   6.432  -0.346   7.581  2.6474  0.7654  0.4329
   10SAPS   H6Y 1293   6.341  -0.200   7.577  0.4827 -1.7562  1.5445
   10SAPS   C37 1294   6.562  -0.187   7.587 -0.7715  0.3241 -0.0366
   10SAPS   H7X 1295   6.584  -0.082   7.555  0.2503  0.2280  0.3220
   10SAPS   H7Y 1296   6.641  -0.247   7.537 -1.5341 -1.1672  0.4985
   10SAPS   C38 1297   6.567  -0.202   7.738  0.1517  0.0496 -1.2944
   10SAPS   H8X 1298   6.574  -0.311   7.762  1.3911  0.3555 -0.1771
   10SAPS   H8Y 1299   6.473  -0.164   7.783  0.2172 -1.6620  0.4134
   10SAPS   C39 1300   6.693  -0.143   7.799 -0.5653  0.0572  0.3008
   10SAPS   H9X 1301   6.691  -0.166   7.907 -0.5536 -0.2856  0.2307
   10SAPS   H9Y 1302   6.711  -0.034   7.786 -2.0160  0.3847  0.8311
   10SAPS  C310 1303   6.814  -0.219   7.736  0.7128 -0.6975 -0.2167
   10SAPS  H10X 1304   6.838  -0.197   7.630 -2.2621  1.5189 -0.5459
   10SAPS  H10Y 1305   6.791  -0.325   7.710 -1.6636  0.0740 -1.5783
   10SAPS  C311 1306   6.951  -0.202   7.805  0.3823 -0.0781  0.1981
   10SAPS  H11X 1307   6.968  -0.092   7.799 -0.5196  0.0080 -3.7748
   10SAPS  H11Y 1308   7.033  -0.247   7.744  0.3476  0.4199 -0.2246
   10SAPS  C312 1309   6.953  -0.264   7.949 -0.1255  0.2239  0.0034
   10SAPS  H12X 1310   6.892  -0.202   8.018 -1.2172  1.5089 -2.0276
   10SAPS  H12Y 1311   7.054  -0.270   7.996 -0.2513  0.0967  0.2590
   10SAPS  C313 1312   6.886  -0.405   7.956 -0.1045 -0.2124 -0.3332
   10SAPS  H13X 1313   6.922  -0.467   7.871 -2.5180  0.7112 -2.1404
   10SAPS  H13Y 1314   6.777  -0.390   7.943 -0.2550 -1.4829 -0.6479
   10SAPS  C314 1315   6.909  -0.479   8.084  0.3462  0.5281 -0.3803
   10SAPS  H14X 1316   7.012  -0.505   8.118 -0.8844 -1.1118  2.4859
   10SAPS  H14Y 1317   6.857  -0.577   8.076  3.1972 -1.0263 -1.5340
   10SAPS  C315 1318   6.836  -0.406   8.196  0.1610  0.1498  0.2478
   10SAPS  H15X 1319   6.733  -0.395   8.156 -0.0983 -2.6439 -0.0381
   10SAPS  H15Y 1320   6.888  -0.311   8.220 -0.6240  0.7959 -0.5246
   10SAPS  C316 1321   6.826  -0.487   8.329 -0.0571 -0.3803 -0.1468
   10SAPS  H16X 1322   6.927  -0.525   8.353 -0.5548 -2.2593 -0.8291
   10SAPS  H16Y 1323   6.762  -0.576   8.309 -2.2322  0.7935  1.1282
   10SAPS  C317 1324   6.751  -0.407   8.435 -0.2141  0.2458  0.0844
   10SAPS  H17X 1325   6.724  -0.486   8.508  1.3583  0.2390  0.7003
   10SAPS  H17Y 1326   6.651  -0.370   8.403  1.1500  2.8254 -1.5760
   10SAPS  C318 1327   6.831  -0.295   8.512  0.2045  0.0927  0.4175
   10SAPS  H18X 1328   6.934  -0.318   8.547 -0.1649  2.1393  3.0944
   10SAPS  H18Y 1329   6.780  -0.285   8.610 -0.9518 -0.5532 -0.0986
   10SAPS  H18Z 1330   6.824  -0.200   8.454  0.4100  1.3262  2.3506
   11SAPS     N 1331   2.003   6.777   5.921 -0.6370  0.5357  0.0081
   11SAPS   HN1 1332   1.943   6.841   5.977  0.2000  1.1134  0.2541
   11SAPS   HN2 1333   1.958   6.684   5.905  0.7116  0.1894 -2.1816
   11SAPS   HN3 1334   2.090   6.757   5.974 -1.1500  1.6064  1.3055
   11SAPS   C12 1335   2.041   6.828   5.787  0.5157  0.2065  0.4521
   11SAPS  H12A 1336   2.126   6.767   5.761 -0.8060 -1.3056 -0.4922
   11SAPS   C13 1337   1.941   6.812   5.681  0.6725  0.1421  0.0727
   11SAPS  O13A 1338   1.843   6.734   5.697 -0.5391 -0.0544  0.0818
   11SAPS  O13B 1339   1.961   6.851   5.562  0.6640  1.3021  0.3003
   11SAPS   C11 1340   2.095   6.974   5.796 -1.1034  0.3329  0.5444
   11SAPS  H11A 1341   2.162   6.990   5.709  0.9999 -2.3708  1.5411
   11SAPS  H11B 1342   2.168   6.979   5.880 -2.1468  3.3194  1.3958
   11SAPS     P 1343   2.004   7.225   5.795  0.0764  0.0047  0.2472
   11SAPS   O13 1344   2.141   7.263   5.833  0.0576 -0.1944 -0.8504
   11SAPS   O14 1345   1.949   7.250   5.660  0.7056 -0.0967  0.3821
   11SAPS   O12 1346   1.992   7.072   5.816 -1.0184  0.2149  0.1308
   11SAPS   O11 1347   1.913   7.280   5.906 -0.3347  0.4322 -1.5317
   11SAPS    C1 1348   1.844   7.209   6.008  0.2081 -0.2247  0.1298
   11SAPS    HA 1349   1.765   7.271   6.056 -1.3338 -1.4901 -0.6772
   11SAPS    HB 1350   1.797   7.123   5.956  2.1692 -1.1593 -0.1990
   11SAPS    C2 1351   1.932   7.169   6.127  0.5447  0.1717 -0.2334
   11SAPS    HS 1352   2.010   7.105   6.082  0.6296  0.6713 -0.8044
   11SAPS   O21 1353   1.856   7.105   6.226  0.3022 -0.3659  0.1464
   11SAPS   C21 1354   1.839   6.975   6.203 -0.2254  0.1732 -0.7245
   11SAPS   O22 1355   1.908   6.904   6.136  0.0291 -0.2145  0.5894
   11SAPS   C22 1356   1.736   6.921   6.313  0.6189  0.2287 -0.2539
   11SAPS   H2R 1357   1.725   6.986   6.402 -0.7319  3.2965 -2.4647
   11SAPS   H2S 1358   1.633   6.933   6.275  1.0245  1.2331 -1.1080
   11SAPS    C3 1359   2.006   7.289   6.201  0.6113  0.2611 -0.1627
   11SAPS    HX 1360   1.933   7.355   6.253 -1.4054 -1.7598 -0.3038
   11SAPS    HY 1361   2.061   7.339   6.118  0.2619 -0.9609 -1.1469
   11SAPS   O31 1362   2.100   7.238   6.297 -0.3020  0.1248 -0.5753
   11SAPS   C31 1363   2.099   7.298   6.419 -0.1213 -0.0021  0.3947
   11SAPS   O32 1364   2.044   7.403   6.448  0.1979  0.4875 -0.0326
   11SAPS   C32 1365   2.187   7.221   6.509  0.0747  0.2633 -0.0375
   11SAPS   H2X 1366   2.287   7.268   6.509 -0.3470  1.1784 -0.3486
   11SAPS   H2Y 1367   2.189   7.112   6.485  0.5859  0.5553 -1.4207
   11SAPS   C23 1368   1.747   6.770   6.340  0.3924  0.0895  0.5296
   11SAPS   H3R 1369   1.756   6.720   6.241  0.3964 -0.1203  0.6373
   11SAPS   H3S 1370   1.649   6.745   6.385 -0.6517 -0.6498 -1.9653
   11SAPS   C24 1371   1.879   6.743   6.422 -0.2207  0.0486  0.1022
   11SAPS   H4R 1372   1.885   6.798   6.519 -2.8542  1.5599 -0.4935
   11SAPS   H4S 1373   1.975   6.753   6.367  0.1656  1.6778  1.0154
   11SAPS   C25 1374   1.866   6.596   6.446  0.2533 -0.4658 -0.2054
   11SAPS   H5R 1375   1.815   6.547   6.361  0.3703 -1.7184  0.4250
   11SAPS   C26 1376   1.907   6.529   6.559  0.2176 -0.2483  0.3902
   11SAPS   H6R 1377   1.883   6.422   6.562  0.0682 -0.2307 -0.0756
   11SAPS   C27 1378   1.973   6.605   6.679  0.3698  0.4548  0.1304
   11SAPS   H7R 1379   1.891   6.652   6.737 -0.9937 -2.1111  0.4295
   11SAPS   H7S 1380   2.040   6.685   6.642  0.1787  0.3176 -0.5213
   11SAPS   C28 1381   2.043   6.512   6.778 -0.0119  0.5566  0.0227
   11SAPS   H8R 1382   2.087   6.422   6.734  1.3021  0.6928  1.0154
   11SAPS   C29 1383   2.061   6.526   6.913 -0.6515 -0.0683  0.3252
   11SAPS   H9R 1384   2.119   6.451   6.969  1.2608 -0.7517 -2.3795
   11SAPS  C210 1385   2.020   6.650   6.990  0.8437  0.0235  0.3576
   11SAPS  H10R 1386   1.934   6.619   7.054  1.4825 -1.9978  0.2998
   11SAPS  H10S 1387   1.990   6.735   6.926  0.3232  1.1291  2.0019
   11SAPS  C211 1388   2.143   6.692   7.065  0.0070  0.5260 -0.2940
   11SAPS  H11R 1389   2.227   6.718   6.999  0.6679  2.1087  1.0927
   11SAPS  C212 1390   2.158   6.708   7.198 -0.9447  0.4990  0.3550
   11SAPS  H12R 1391   2.246   6.758   7.238 -1.6989  2.2879 -0.1371
   11SAPS  C213 1392   2.051   6.670   7.301 -0.5226 -0.4128  0.3318
   11SAPS  H13R 1393   2.091   6.638   7.400  0.7270  1.3878  0.4724
   11SAPS  H13S 1394   1.997   6.580   7.265  0.4988 -1.5480  1.5301
   11SAPS  C214 1395   1.952   6.786   7.322 -0.6245 -0.2293 -0.3725
   11SAPS  H14R 1396   1.892   6.807   7.233  2.0687  1.8782 -1.8559
   11SAPS  C215 1397   1.932   6.860   7.440  0.1037 -0.3825  0.4014
   11SAPS  H15R 1398   1.845   6.927   7.441  1.4710  1.4674  1.1126
   11SAPS  C216 1399   2.010   6.845   7.564 -0.4110 -0.4678  0.5387
   11SAPS  H16R 1400   2.053   6.944   7.588  2.1285 -0.9017 -1.6970
   11SAPS  H16S 1401   2.099   6.780   7.545 -0.0493  0.7916 -2.6338
   11SAPS  C217 1402   1.952   6.775   7.690 -0.6601 -0.3539  0.0067
   11SAPS  H17R 1403   1.872   6.843   7.726  0.1783  0.1915  0.9060
   11SAPS  H17S 1404   2.033   6.777   7.767  0.3966  1.5875 -1.0512
   11SAPS  C218 1405   1.887   6.640   7.663 -0.4105  0.5570  0.4067
   11SAPS  H18R 1406   1.969   6.566   7.658 -0.8169  0.1079  0.2892
   11SAPS  H18S 1407   1.835   6.650   7.565  0.5465 -0.7570 -0.2509
   11SAPS  C219 1408   1.794   6.599   7.772 -0.0112  0.2325  0.3865
   11SAPS  H19R 1409   1.716   6.678   7.768  1.2503  1.4755 -1.0585
   11SAPS  H19S 1410   1.846   6.604   7.870  1.3534  1.7466 -0.3474
   11SAPS  C220 1411   1.725   6.462   7.751 -0.4504 -0.4490 -0.3579
   11SAPS  H20R 1412   1.629   6.462   7.805 -0.6880  1.3619 -0.7149
   11SAPS  H20S 1413   1.782   6.379   7.798  0.4308 -0.0304 -0.6577
   11SAPS  H20T 1414   1.694   6.444   7.646 -2.0729  1.9527 -0.3573
   11SAPS   C33 1415   2.137   7.244   6.655  0.7738  0.6392  0.0534
   11SAPS   H3X 1416   2.034   7.204   6.668  0.8415  0.9674  1.7389
   11SAPS   H3Y 1417   2.130   7.354   6.662  1.5868  0.8773 -2.1069
   11SAPS   C34 1418   2.230   7.172   6.755  0.4403 -0.1637  0.4810
   11SAPS   H4X 1419   2.318   7.238   6.767  0.1194  0.1326  1.2495
   11SAPS   H4Y 1420   2.266   7.071   6.728  0.4094 -0.2663  0.8272
   11SAPS   C35 1421   2.172   7.150   6.890 -0.1943 -0.0880  0.4925
   11SAPS   H5X 1422   2.247   7.096   6.953 -0.2987  1.6010  2.1500
   11SAPS   H5Y 1423   2.071   7.104   6.887 -0.5597  0.7572 -0.2643
   11SAPS   C36 1424   2.169   7.284   6.968  0.6519  0.5128 -0.5292
   11SAPS   H6X 1425   2.108   7.351   6.903  0.3116  1.7655  1.0171
   11SAPS   H6Y 1426   2.271   7.327   6.971  0.4317  1.0202 -0.1673
   11SAPS   C37 1427   2.112   7.278   7.112 -0.1509 -0.7361  0.6704
   11SAPS   H7X 1428   2.003   7.263   7.099 -0.6282  3.2045 -1.0772
   11SAPS   H7Y 1429   2.126   7.372   7.168 -1.4558 -1.4617  2.2830
   11SAPS   C38 1430   2.168   7.165   7.197  0.6180  0.1583 -0.3530
   11SAPS   H8X 1431   2.276   7.144   7.180  1.0321  1.3362  0.6769
   11SAPS   H8Y 1432   2.119   7.074   7.156  0.4716  0.3845 -0.6936
   11SAPS   C39 1433   2.136   7.184   7.342  0.3220 -0.4588 -0.7818
   11SAPS   H9X 1434   2.214   7.255   7.377 -0.0752  0.1034 -1.0237
   11SAPS   H9Y 1435   2.151   7.096   7.408 -1.7187  0.2737  0.7774
   11SAPS  C310 1436   1.994   7.245   7.374 -0.7762 -0.1643 -0.5352
   11SAPS  H10X 1437   1.926   7.179   7.315 -0.0100 -0.9171 -0.6016
   11SAPS  H10Y 1438   1.996   7.351   7.341 -1.0464  0.1534  0.4374
   11SAPS  C311 1439   1.944   7.233   7.522  0.1787 -0.1291  0.9550
   11SAPS  H11X 1440   1.931   7.124   7.537 -1.3398 -0.0569  0.3863
   11SAPS  H11Y 1441   1.839   7.271   7.520  0.4143  0.5036 -0.4967
   11SAPS  C312 1442   2.033   7.313   7.617 -0.0361  0.4237  0.0976
   11SAPS  H12X 1443   2.035   7.416   7.574 -0.8821 -0.1300 -1.3499
   11SAPS  H12Y 1444   2.135   7.272   7.630 -0.4128 -0.8677 -0.8525
   11SAPS  C313 1445   1.968   7.327   7.755 -0.1075 -0.2331 -0.2961
   11SAPS  H13X 1446   1.869   7.375   7.745 -1.0379 -1.8492  0.8818
   11SAPS  H13Y 1447   2.030   7.396   7.816  0.4478 -0.2496 -0.8274
   11SAPS  C314 1448   1.968   7.200   7.835 -0.4101 -0.1025 -0.0864
   11SAPS  H14X 1449   2.072   7.162   7.841 -0.5773 -0.4893  0.4549
   11SAPS  H14Y 1450   1.908   7.125   7.779 -0.2661  1.0533 -1.8906
   11SAPS  C315 1451   1.903   7.230   7.968  0.2762 -0.0843  0.4896
   11SAPS  H15X 1452   1.797   7.261   7.953  0.8776  1.9534  0.1248
   11SAPS  H15Y 1453   1.956   7.315   8.016  0.1160 -0.2295  0.9354
   11SAPS  C316 1454   1.911   7.116   8.070 -0.0239  0.4536 -0.3911
   11SAPS  H16X 1455   1.860   7.151   8.162  0.1590 -0.9079  0.2337
   11SAPS  H16Y 1456   2.019   7.115   8.094 -0.2383  0.2913  0.5970
   11SAPS  C317 1457   1.860   6.984   8.013 -0.2188 -0.0441 -0.4090
   11SAPS  H17X 1458   1.914   6.968   7.917 -0.3055  0.2650 -0.5082
   11SAPS  H17Y 1459   1.750   6.981   8.002 -0.3493 -0.4440  0.8247
   11SAPS  C318 1460   1.908   6.864   8.091 -0.5057 -0.0565  0.3548
   11SAPS  H18X 1461   1.876   6.871   8.197  0.6895  3.0476  0.6011
   11SAPS  H18Y 1462   2.019   6.872   8.088 -0.4860  0.8981  2.1826
   11SAPS  H18Z 1463   1.876   6.763   8.057 -0.8138 -0.0809  0.7061
   12SAPS     N 1464   1.975   2.779   6.169  0.6000 -0.3423  0.0952
   12SAPS   HN1 1465   2.017   2.718   6.242 -1.1548 -0.4720  1.0565
   12SAPS   HN2 1466   1.996   2.877   6.199 -2.4070  0.3685  0.2443
   12SAPS   HN3 1467   1.873   2.760   6.180  0.7735 -0.7307  1.1583
   12SAPS   C12 1468   2.022   2.762   6.030 -0.0667  0.1942  0.1711
   12SAPS  H12A 1469   2.012   2.656   6.009  2.2355 -0.1338  0.5210
   12SAPS   C13 1470   1.948   2.851   5.923  0.6220 -0.2777  0.3509
   12SAPS  O13A 1471   1.842   2.908   5.958 -0.1990  0.3763  0.1627
   12SAPS  O13B 1472   1.993   2.852   5.806 -0.7504 -0.2436  0.0535
   12SAPS   C11 1473   2.178   2.789   6.034  0.1984  0.0138 -0.1037
   12SAPS  H11A 1474   2.199   2.894   6.064 -0.3956 -0.0153  0.4380
   12SAPS  H11B 1475   2.210   2.758   5.932  0.5071  0.3137 -0.0983
   12SAPS     P 1476   2.393   2.709   6.186 -0.4895  0.3310 -0.2761
   12SAPS   O13 1477   2.495   2.727   6.083 -0.4965  0.6175  0.2528
   12SAPS   O14 1478   2.393   2.810   6.293  0.1764  0.3672 -0.0307
   12SAPS   O12 1479   2.247   2.703   6.127 -0.3282  0.1734 -0.4033
   12SAPS   O11 1480   2.401   2.559   6.244 -0.3215  0.3581 -0.6753
   12SAPS    C1 1481   2.353   2.515   6.370 -0.7073  0.0693 -0.2941
   12SAPS    HA 1482   2.276   2.584   6.409 -0.9010  0.2846 -1.0422
   12SAPS    HB 1483   2.299   2.419   6.355 -0.2619 -0.5409  1.7140
   12SAPS    C2 1484   2.463   2.480   6.471 -0.5039  0.5260 -0.3674
   12SAPS    HS 1485   2.518   2.394   6.427 -2.3806 -0.9632  0.0931
   12SAPS   O21 1486   2.403   2.444   6.596  0.2720  0.0470  0.0252
   12SAPS   C21 1487   2.470   2.360   6.679 -0.9332 -0.3374 -0.0608
   12SAPS   O22 1488   2.571   2.302   6.650  0.1247 -0.5847  0.0121
   12SAPS   C22 1489   2.403   2.365   6.817  0.0447 -0.0170  0.6040
   12SAPS   H2R 1490   2.387   2.471   6.842  1.0483  0.2645  0.0990
   12SAPS   H2S 1491   2.308   2.306   6.813 -0.2155  0.4311 -0.0919
   12SAPS    C3 1492   2.564   2.604   6.491  0.0292  0.1068  0.2374
   12SAPS    HX 1493   2.494   2.689   6.478 -0.7477 -0.4647  0.5764
   12SAPS    HY 1494   2.648   2.594   6.420  0.4152  1.5520  0.4736
   12SAPS   O31 1495   2.631   2.596   6.623  0.6030  0.2052  0.4051
   12SAPS   C31 1496   2.614   2.687   6.708 -0.2023 -0.1064  0.0279
   12SAPS   O32 1497   2.528   2.771   6.702  0.0165  0.5905  0.0699
   12SAPS   C32 1498   2.697   2.658   6.836 -0.0583 -0.4189  0.5331
   12SAPS   H2X 1499   2.785   2.597   6.808 -0.2085 -1.0141  1.3065
   12SAPS   H2Y 1500   2.621   2.602   6.895 -1.3424  1.1085  0.3687
   12SAPS   C23 1501   2.489   2.301   6.917  0.6240 -0.2106  0.7080
   12SAPS   H3R 1502   2.589   2.348   6.913  0.3673  0.2764 -0.4986
   12SAPS   H3S 1503   2.501   2.198   6.878 -2.3413  0.3994 -2.2368
   12SAPS   C24 1504   2.448   2.309   7.064  0.6746  0.0267  0.0400
   12SAPS   H4R 1505   2.425   2.412   7.099 -1.6185 -0.9037  1.5153
   12SAPS   H4S 1506   2.533   2.283   7.131 -0.2688 -1.2761  0.7844
   12SAPS   C25 1507   2.326   2.222   7.075  0.4899  0.0134 -0.6111
   12SAPS   H5R 1508   2.233   2.277   7.052  0.5616  1.1264  1.4900
   12SAPS   C26 1509   2.317   2.092   7.111 -0.3560 -0.4771  0.3543
   12SAPS   H6R 1510   2.220   2.041   7.104  0.0418 -1.2976  0.6499
   12SAPS   C27 1511   2.442   2.016   7.140 -0.4813  0.0357  0.3860
   12SAPS   H7R 1512   2.437   1.959   7.235  1.4660 -1.9682 -0.6465
   12SAPS   H7S 1513   2.529   2.081   7.161 -2.1657  2.6766 -0.2670
   12SAPS   C28 1514   2.478   1.931   7.027 -0.4704  0.1379 -0.5194
   12SAPS   H8R 1515   2.547   1.965   6.949  0.8845 -1.2404  0.0289
   12SAPS   C29 1516   2.431   1.797   7.025  0.2729 -0.1957 -0.1322
   12SAPS   H9R 1517   2.454   1.738   6.935  1.1534  1.7871 -1.2932
   12SAPS  C210 1518   2.343   1.744   7.129  0.5395 -0.7677  0.7547
   12SAPS  H10R 1519   2.360   1.776   7.234 -0.4300 -3.2665  1.7739
   12SAPS  H10S 1520   2.369   1.636   7.123 -2.0701 -1.3995 -1.3816
   12SAPS  C211 1521   2.196   1.736   7.088  0.2406 -0.0458 -0.4515
   12SAPS  H11R 1522   2.159   1.811   7.016  0.8147 -0.0467 -0.7547
   12SAPS  C212 1523   2.101   1.659   7.147  0.3975 -0.5168 -0.0950
   12SAPS  H12R 1524   1.998   1.666   7.110  0.9869 -0.1196 -1.7847
   12SAPS  C213 1525   2.121   1.567   7.264  0.5372  0.0581 -0.4734
   12SAPS  H13R 1526   2.210   1.503   7.249 -1.0538 -2.4765  0.1606
   12SAPS  H13S 1527   2.042   1.489   7.261  0.2472  0.3892 -1.9228
   12SAPS  C214 1528   2.132   1.631   7.402  0.0475  0.0499  0.5838
   12SAPS  H14R 1529   2.130   1.740   7.387 -1.5937 -0.1713 -1.2722
   12SAPS  C215 1530   2.152   1.588   7.530  0.3091  0.1761 -0.1491
   12SAPS  H15R 1531   2.148   1.669   7.604 -0.5463  0.1192 -0.1125
   12SAPS  C216 1532   2.168   1.444   7.570  0.3923  0.1096  1.0556
   12SAPS  H16R 1533   2.252   1.436   7.642  1.0579 -0.0707  0.2789
   12SAPS  H16S 1534   2.195   1.366   7.495 -1.3302  0.9823 -0.5537
   12SAPS  C217 1535   2.038   1.391   7.639 -0.3042  0.0490 -0.1641
   12SAPS  H17R 1536   2.063   1.297   7.694 -1.7866  0.3940  1.1526
   12SAPS  H17S 1537   1.964   1.378   7.557  0.5186 -3.0245 -0.5401
   12SAPS  C218 1538   1.979   1.481   7.747  0.7620  0.5485  0.3270
   12SAPS  H18R 1539   1.938   1.574   7.701 -0.6129 -1.2218 -2.2237
   12SAPS  H18S 1540   2.061   1.513   7.816 -1.6799  0.2404  3.6069
   12SAPS  C219 1541   1.860   1.426   7.835  0.4159 -0.4749  0.1288
   12SAPS  H19R 1542   1.768   1.403   7.777 -0.2285  2.2861 -0.0877
   12SAPS  H19S 1543   1.851   1.505   7.914  3.5802  0.2360 -0.0533
   12SAPS  C220 1544   1.893   1.304   7.908 -0.4994  0.8111  0.4979
   12SAPS  H20R 1545   1.874   1.209   7.853  0.3971  0.8570  0.0921
   12SAPS  H20S 1546   1.832   1.285   8.000  0.0097 -0.6379  0.5666
   12SAPS  H20T 1547   2.001   1.305   7.931 -0.1786  0.7423 -0.9143
   12SAPS   C33 1548   2.731   2.778   6.930  0.1519 -0.4973 -0.0704
   12SAPS   H3X 1549   2.641   2.812   6.984 -1.2338 -0.9405 -1.9756
   12SAPS   H3Y 1550   2.784   2.856   6.871  2.6653 -2.7607 -1.0739
   12SAPS   C34 1551   2.821   2.727   7.050 -0.4610  0.0998  0.6603
   12SAPS   H4X 1552   2.832   2.811   7.122 -1.7360  0.3285  0.6194
   12SAPS   H4Y 1553   2.917   2.685   7.012 -0.4551  0.5589  0.1493
   12SAPS   C35 1554   2.758   2.617   7.142  0.5536  0.4487  0.0883
   12SAPS   H5X 1555   2.835   2.585   7.215 -0.0249  2.5280  1.7277
   12SAPS   H5Y 1556   2.736   2.529   7.078 -0.7260  0.0420  1.0337
   12SAPS   C36 1557   2.633   2.668   7.221 -0.0734 -0.5568  0.8533
   12SAPS   H6X 1558   2.550   2.704   7.156  0.4873 -2.0803 -0.7990
   12SAPS   H6Y 1559   2.662   2.756   7.282  0.8191 -0.8621  0.8710
   12SAPS   C37 1560   2.576   2.572   7.325  0.1973 -0.6032 -0.2186
   12SAPS   H7X 1561   2.561   2.472   7.280 -1.3072 -0.7614  0.5859
   12SAPS   H7Y 1562   2.481   2.621   7.355  1.4357  0.9975  1.3532
   12SAPS   C38 1563   2.676   2.561   7.448 -0.4153  0.0794  0.0714
   12SAPS   H8X 1564   2.687   2.662   7.492 -2.6464  0.1284  0.6037
   12SAPS   H8Y 1565   2.781   2.526   7.432  0.2203  1.7608  0.3833
   12SAPS   C39 1566   2.615   2.473   7.554  0.8127 -0.0987 -0.0308
   12SAPS   H9X 1567   2.608   2.365   7.530 -0.8745  0.3317 -1.7720
   12SAPS   H9Y 1568   2.509   2.508   7.559 -0.0796 -2.7718  2.0978
   12SAPS  C310 1569   2.670   2.501   7.699 -0.3153 -0.0565 -0.3285
   12SAPS  H10X 1570   2.711   2.604   7.704  2.1485 -0.8989 -1.4681
   12SAPS  H10Y 1571   2.757   2.434   7.718 -0.3495  0.0559  0.2325
   12SAPS  C311 1572   2.563   2.489   7.807  0.6203  0.4043 -0.3822
   12SAPS  H11X 1573   2.533   2.382   7.804  0.3250  0.5055 -3.4710
   12SAPS  H11Y 1574   2.480   2.560   7.787 -0.1179 -0.6033 -0.9872
   12SAPS  C312 1575   2.622   2.552   7.937 -0.3984  0.3774 -0.6069
   12SAPS  H12X 1576   2.601   2.660   7.956 -0.7614 -0.0198  1.3843
   12SAPS  H12Y 1577   2.732   2.544   7.929 -0.5791 -3.3806 -1.1547
   12SAPS  C313 1578   2.589   2.472   8.068 -0.5144 -0.2585 -0.4343
   12SAPS  H13X 1579   2.643   2.375   8.069 -1.9867 -1.1134  1.2982
   12SAPS  H13Y 1580   2.484   2.439   8.063  0.1912 -2.8761  0.6646
   12SAPS  C314 1581   2.605   2.559   8.196 -0.3939 -0.1816 -0.2357
   12SAPS  H14X 1582   2.576   2.661   8.165  0.4469  0.2101  0.2220
   12SAPS  H14Y 1583   2.709   2.558   8.236 -0.6557 -2.0586  0.5061
   12SAPS  C315 1584   2.518   2.506   8.310  0.3423 -0.1579  0.2410
   12SAPS  H15X 1585   2.412   2.519   8.279  0.4762  0.1538 -0.0852
   12SAPS  H15Y 1586   2.525   2.572   8.400  1.2274 -0.4617  0.3982
   12SAPS  C316 1587   2.560   2.368   8.353  0.1121  0.6005  0.2397
   12SAPS  H16X 1588   2.527   2.344   8.456  1.5663 -1.2638  0.3278
   12SAPS  H16Y 1589   2.670   2.359   8.341 -0.1668  0.2006 -2.7266
   12SAPS  C317 1590   2.500   2.240   8.279 -0.2391 -0.3501 -0.0661
   12SAPS  H17X 1591   2.533   2.246   8.173  0.7755  0.6108  0.2863
   12SAPS  H17Y 1592   2.389   2.252   8.277 -0.2080 -0.1067 -0.3514
   12SAPS  C318 1593   2.546   2.095   8.328  0.8450 -0.1750 -0.0755
   12SAPS  H18X 1594   2.507   2.013   8.264 -0.7679 -0.5251  1.2641
   12SAPS  H18Y 1595   2.486   2.084   8.421 -1.2407  0.9735 -1.2071
   12SAPS  H18Z 1596   2.656   2.090   8.342  0.9567  1.8471  0.1656
   13SAPS     N 1597   0.719   4.926   6.443 -0.2019 -0.2319  0.5541
   13SAPS   HN1 1598   0.735   4.823   6.438 -1.3143 -0.4782  1.5136
   13SAPS   HN2 1599   0.775   4.965   6.522 -0.7189 -0.8634  1.2543
   13SAPS   HN3 1600   0.619   4.950   6.460 -0.0776  2.6244 -1.9795
   13SAPS   C12 1601   0.752   5.002   6.318 -0.1455  0.3039  0.1073
   13SAPS  H12A 1602   0.856   5.001   6.291 -0.3037  2.3145 -0.6989
   13SAPS   C13 1603   0.688   4.929   6.198  0.0914  0.3642  0.3119
   13SAPS  O13A 1604   0.592   4.848   6.208  0.0829  0.2098 -0.2461
   13SAPS  O13B 1605   0.719   4.975   6.084 -0.2314 -0.6471 -0.3731
   13SAPS   C11 1606   0.703   5.150   6.342  0.0952  0.0392  0.9596
   13SAPS  H11A 1607   0.593   5.158   6.351  0.0759  1.6342 -0.3152
   13SAPS  H11B 1608   0.728   5.208   6.251  0.4227 -1.1679  0.2568
   13SAPS     P 1609   0.901   5.274   6.469 -0.3402  0.0536  0.0583
   13SAPS   O13 1610   0.999   5.185   6.400  0.3803  0.4271 -0.2789
   13SAPS   O14 1611   0.884   5.415   6.431 -0.4960 -0.3178 -0.0793
   13SAPS   O12 1612   0.756   5.211   6.459  0.1098 -0.0542  0.6406
   13SAPS   O11 1613   0.929   5.271   6.623 -0.2186 -0.1078  0.3979
   13SAPS    C1 1614   0.847   5.333   6.725 -0.0311 -0.0736  0.1423
   13SAPS    HA 1615   0.741   5.343   6.694  0.2873  0.0110 -0.9394
   13SAPS    HB 1616   0.848   5.270   6.817  0.8802 -0.9144 -0.4182
   13SAPS    C2 1617   0.900   5.479   6.769 -0.5080 -0.0242 -0.4831
   13SAPS    HS 1618   0.940   5.535   6.682  0.5056 -1.9077 -1.2874
   13SAPS   O21 1619   0.991   5.463   6.878  0.3776 -0.0028 -0.1784
   13SAPS   C21 1620   1.058   5.568   6.923 -0.1317  0.0127 -0.0892
   13SAPS   O22 1621   1.061   5.677   6.869  0.5634  0.2192  0.0178
   13SAPS   C22 1622   1.149   5.521   7.036  0.2043 -0.1737  0.6730
   13SAPS   H2R 1623   1.167   5.413   7.018 -0.8872 -0.2164 -0.2934
   13SAPS   H2S 1624   1.244   5.567   7.001 -0.0807 -0.6906 -0.8414
   13SAPS    C3 1625   0.785   5.567   6.822  0.4756  0.5553  0.3198
   13SAPS    HX 1626   0.731   5.583   6.726  2.3496 -1.1745 -1.1055
   13SAPS    HY 1627   0.819   5.666   6.861 -1.6792  1.9289 -1.0844
   13SAPS   O31 1628   0.708   5.488   6.917  0.5661 -0.1979 -0.1306
   13SAPS   C31 1629   0.658   5.559   7.018 -0.2571  1.0408 -0.2869
   13SAPS   O32 1630   0.671   5.679   7.037  0.1173 -0.1993  0.4010
   13SAPS   C32 1631   0.577   5.459   7.112 -0.0599 -0.4685 -0.0509
   13SAPS   H2X 1632   0.649   5.377   7.133  0.3833  0.0873  0.6819
   13SAPS   H2Y 1633   0.491   5.422   7.052  0.0437  3.0558 -2.6954
   13SAPS   C23 1634   1.120   5.558   7.178  0.1825  0.6469  0.6204
   13SAPS   H3R 1635   1.133   5.665   7.203 -0.9926  0.7296  0.9198
   13SAPS   H3S 1636   1.198   5.507   7.239 -0.1324 -0.4301  0.1405
   13SAPS   C24 1637   0.978   5.525   7.224 -0.1922  0.4415  0.1306
   13SAPS   H4R 1638   0.949   5.431   7.173 -2.3932  1.5056 -0.7080
   13SAPS   H4S 1639   0.907   5.601   7.186 -0.1243  1.4446  1.8964
   13SAPS   C25 1640   0.963   5.510   7.374  0.4200  0.3238  0.5729
   13SAPS   H5R 1641   0.951   5.597   7.440 -1.3911  0.0861  0.6123
   13SAPS   C26 1642   0.972   5.394   7.441  0.0323  0.1015  0.2132
   13SAPS   H6R 1643   0.967   5.398   7.551  0.4356  1.4019  0.2036
   13SAPS   C27 1644   0.992   5.252   7.382  0.2231  0.0553 -0.3698
   13SAPS   H7R 1645   1.097   5.223   7.362  0.6176  0.0955  1.5255
   13SAPS   H7S 1646   0.954   5.256   7.277  0.1844  3.1568 -0.3162
   13SAPS   C28 1647   0.910   5.147   7.454  0.3915  0.0503  0.3249
   13SAPS   H8R 1648   0.814   5.136   7.402 -0.6241  0.5245  2.0016
   13SAPS   C29 1649   0.943   5.071   7.567 -0.0245  0.0363  0.0118
   13SAPS   H9R 1650   0.873   4.997   7.607 -1.6838  1.7845  0.4612
   13SAPS  C210 1651   1.067   5.092   7.651  0.5900 -0.2961  0.0921
   13SAPS  H10R 1652   1.050   5.139   7.750 -1.0152 -3.6597  1.5933
   13SAPS  H10S 1653   1.137   5.160   7.599  1.0440  1.2478  2.5780
   13SAPS  C211 1654   1.129   4.961   7.688 -0.1796 -0.1583 -0.7707
   13SAPS  H11R 1655   1.218   4.944   7.625 -0.5910  0.9970 -1.7016
   13SAPS  C212 1656   1.099   4.872   7.785 -0.4672 -1.2841 -0.5245
   13SAPS  H12R 1657   1.153   4.777   7.774 -1.2133 -1.9824  1.2835
   13SAPS  C213 1658   0.993   4.867   7.890  0.4130 -0.2109 -0.1843
   13SAPS  H13R 1659   0.930   4.777   7.874  0.6706 -0.7170  1.4550
   13SAPS  H13S 1660   0.917   4.947   7.874  1.3295  0.9071  0.8767
   13SAPS  C214 1661   1.053   4.882   8.031  0.1103  0.6704 -0.0863
   13SAPS  H14R 1662   1.138   4.950   8.048  0.3934 -0.0808  1.6269
   13SAPS  C215 1663   1.019   4.807   8.139 -0.1934  0.0710 -0.4417
   13SAPS  H15R 1664   1.064   4.836   8.236 -2.1329 -1.0553  0.8721
   13SAPS  C216 1665   0.909   4.701   8.144  0.0311 -0.3751 -0.4335
   13SAPS  H16R 1666   0.891   4.671   8.039  0.5056  1.1070 -0.9660
   13SAPS  H16S 1667   0.819   4.747   8.191  0.6705 -0.2414  0.6742
   13SAPS  C217 1668   0.934   4.565   8.214 -0.5609 -0.2783  0.5380
   13SAPS  H17R 1669   1.032   4.523   8.184 -0.6029 -1.1369  1.5302
   13SAPS  H17S 1670   0.854   4.503   8.169  0.3769  0.5259 -2.4710
   13SAPS  C218 1671   0.922   4.569   8.370  0.1127 -0.2522  1.0865
   13SAPS  H18R 1672   0.814   4.586   8.390  0.4742  0.2546  2.7197
   13SAPS  H18S 1673   0.978   4.660   8.400 -0.0230  1.0421 -2.1790
   13SAPS  C219 1674   0.963   4.443   8.436  0.2634  0.5275 -0.0111
   13SAPS  H19R 1675   1.069   4.431   8.408  0.4979  2.1189  0.1079
   13SAPS  H19S 1676   0.905   4.354   8.404 -0.0796  0.1898  1.4450
   13SAPS  C220 1677   0.944   4.454   8.584 -0.1226 -0.6477  0.1578
   13SAPS  H20R 1678   0.990   4.549   8.620 -1.3774  0.1288 -0.2472
   13SAPS  H20S 1679   0.996   4.371   8.638 -2.0121 -2.5542 -0.7985
   13SAPS  H20T 1680   0.836   4.464   8.607 -0.2986  0.7395 -1.1819
   13SAPS   C33 1681   0.530   5.532   7.237  0.4559  0.5273 -0.7135
   13SAPS   H3X 1682   0.470   5.623   7.219  0.4642  0.6920  0.0585
   13SAPS   H3Y 1683   0.621   5.565   7.292  0.4417 -1.4140  0.5923
   13SAPS   C34 1684   0.457   5.442   7.338 -0.3234 -0.2334  0.1791
   13SAPS   H4X 1685   0.360   5.396   7.310 -0.8573 -1.3263  3.3180
   13SAPS   H4Y 1686   0.447   5.503   7.430  0.2454  1.0737 -0.6013
   13SAPS   C35 1687   0.535   5.311   7.370  0.4630 -0.4722  0.3517
   13SAPS   H5X 1688   0.642   5.341   7.371 -0.4255  3.1680  0.0857
   13SAPS   H5Y 1689   0.512   5.238   7.290  0.8745 -0.7050  0.4406
   13SAPS   C36 1690   0.499   5.235   7.494 -0.4789  0.1644 -0.0251
   13SAPS   H6X 1691   0.518   5.127   7.480 -0.4091 -0.0402  1.5059
   13SAPS   H6Y 1692   0.390   5.250   7.514  0.0068  2.7220  1.0770
   13SAPS   C37 1693   0.583   5.257   7.614 -0.0976 -0.6736  0.7090
   13SAPS   H7X 1694   0.572   5.361   7.650 -2.0637 -0.5459 -0.1151
   13SAPS   H7Y 1695   0.691   5.242   7.589 -0.1032 -1.8508  1.3258
   13SAPS   C38 1696   0.536   5.158   7.720  0.4409 -0.3007  0.2270
   13SAPS   H8X 1697   0.555   5.052   7.692  0.3504 -0.6259  1.3482
   13SAPS   H8Y 1698   0.431   5.185   7.743 -0.3834 -0.3712 -3.0050
   13SAPS   C39 1699   0.630   5.171   7.845 -0.7077 -0.2144 -0.6454
   13SAPS   H9X 1700   0.631   5.275   7.885 -3.7634 -1.2649  2.6799
   13SAPS   H9Y 1701   0.731   5.154   7.802  0.5932 -0.3880  2.2498
   13SAPS  C310 1702   0.591   5.067   7.952 -0.4294 -0.7168  0.5493
   13SAPS  H10X 1703   0.605   4.968   7.905 -1.8593 -1.0103  0.6971
   13SAPS  H10Y 1704   0.482   5.081   7.973 -0.3812  1.3920 -0.3308
   13SAPS  C311 1705   0.668   5.079   8.080  0.2760 -0.3602  0.7850
   13SAPS  H11X 1706   0.655   5.179   8.127 -0.4225 -0.1512  0.1678
   13SAPS  H11Y 1707   0.778   5.066   8.073  0.1696 -1.3704  0.8921
   13SAPS  C312 1708   0.611   4.972   8.180 -0.2041  0.0266  0.1935
   13SAPS  H12X 1709   0.630   4.870   8.141 -0.2112 -0.8417  2.3430
   13SAPS  H12Y 1710   0.501   4.987   8.188 -0.2736  0.4539 -1.1883
   13SAPS  C313 1711   0.678   4.982   8.317  0.2302  0.7972 -0.4275
   13SAPS  H13X 1712   0.660   5.089   8.341  0.7970  1.6456 -3.3825
   13SAPS  H13Y 1713   0.786   4.970   8.296 -0.1438 -1.7009 -1.2704
   13SAPS  C314 1714   0.622   4.877   8.414 -0.2874 -0.6937 -0.5008
   13SAPS  H14X 1715   0.628   4.777   8.367 -2.2938 -1.6528  1.1425
   13SAPS  H14Y 1716   0.513   4.881   8.436  0.4338 -1.2601  4.2041
   13SAPS  C315 1717   0.702   4.884   8.547  0.3389 -0.2478  0.8344
   13SAPS  H15X 1718   0.659   4.958   8.618 -0.3640 -0.8045  0.9996
   13SAPS  H15Y 1719   0.807   4.910   8.523  0.1600 -0.2483  0.0445
   13SAPS  C316 1720   0.694   4.748   8.620  0.3124  0.2980 -0.6928
   13SAPS  H16X 1721   0.768   4.686   8.566 -0.7094 -0.6578 -1.0279
   13SAPS  H16Y 1722   0.600   4.698   8.590  2.2730 -3.0191 -1.9269
   13SAPS  C317 1723   0.711   4.760   8.772 -0.4967 -0.2689 -0.4743
   13SAPS  H17X 1724   0.665   4.854   8.808 -1.1836 -0.4781 -0.7868
   13SAPS  H17Y 1725   0.819   4.766   8.799 -0.4834 -3.2020  0.5778
   13SAPS  C318 1726   0.656   4.638   8.840 -0.2214  0.3042  0.7603
   13SAPS  H18X 1727   0.680   4.641   8.948 -2.4839 -0.0371  1.3207
   13SAPS  H18Y 1728   0.693   4.544   8.792  2.6621  1.1812  1.0642
   13SAPS  H18Z 1729   0.546   4.632   8.824 -0.1449  0.0122  0.2863
   14SAPS     N 1730   1.077   1.543   6.184  0.3767  0.1716 -0.0841
   14SAPS   HN1 1731   1.100   1.521   6.283  2.0831  1.2132 -0.2038
   14SAPS   HN2 1732   1.129   1.632   6.167 -1.6302  1.6605  1.0634
   14SAPS   HN3 1733   0.973   1.550   6.180 -0.2127 -4.7499  0.2780
   14SAPS   C12 1734   1.113   1.436   6.091  0.0366  0.4076  1.1066
   14SAPS  H12A 1735   1.072   1.340   6.121  0.0542 -0.1023 -0.3957
   14SAPS   C13 1736   1.090   1.462   5.935 -0.6160 -0.9264 -0.9594
   14SAPS  O13A 1737   1.046   1.570   5.890 -0.2001  0.2811  0.5810
   14SAPS  O13B 1738   1.126   1.373   5.859  0.2344  0.9909  0.3020
   14SAPS   C11 1739   1.266   1.405   6.106  0.5593  0.1654  0.2874
   14SAPS  H11A 1740   1.313   1.497   6.064 -1.3627  1.7590  1.4417
   14SAPS  H11B 1741   1.297   1.319   6.043 -0.0603  1.7156 -2.2956
   14SAPS     P 1742   1.463   1.441   6.268  0.0610 -0.0806  0.2831
   14SAPS   O13 1743   1.551   1.395   6.159 -0.0859 -0.4675  0.0078
   14SAPS   O14 1744   1.470   1.587   6.303 -0.1975  0.8358  0.1968
   14SAPS   O12 1745   1.310   1.395   6.241  0.5310 -0.4378  0.1499
   14SAPS   O11 1746   1.491   1.362   6.397 -0.8802  0.2993  0.1506
   14SAPS    C1 1747   1.439   1.233   6.422 -0.8529 -0.0421 -0.3925
   14SAPS    HA 1748   1.423   1.165   6.336 -0.0558 -0.8985  0.1208
   14SAPS    HB 1749   1.519   1.173   6.471 -1.7948 -1.7037 -0.7926
   14SAPS    C2 1750   1.313   1.234   6.513  0.1807 -1.0443 -1.2203
   14SAPS    HS 1751   1.228   1.294   6.475 -1.2332 -2.6120 -0.6383
   14SAPS   O21 1752   1.358   1.271   6.642  0.2117 -0.0169  0.6654
   14SAPS   C21 1753   1.316   1.384   6.693 -0.1959 -0.3650  1.1649
   14SAPS   O22 1754   1.222   1.449   6.654  0.1429  0.3070  0.4347
   14SAPS   C22 1755   1.410   1.419   6.811  0.2323 -0.2094  0.2976
   14SAPS   H2R 1756   1.406   1.335   6.884 -1.5733  0.6153  1.2030
   14SAPS   H2S 1757   1.514   1.425   6.771  0.3298 -2.0863  0.1702
   14SAPS    C3 1758   1.259   1.085   6.535 -0.5683  0.2466  0.0137
   14SAPS    HX 1759   1.234   1.046   6.434 -2.3663  0.0934  0.4798
   14SAPS    HY 1760   1.157   1.097   6.578 -1.0571 -0.5991 -0.8737
   14SAPS   O31 1761   1.352   0.999   6.611  0.7824 -0.2824 -0.0639
   14SAPS   C31 1762   1.318   0.872   6.588 -0.2953 -0.5610 -0.3618
   14SAPS   O32 1763   1.212   0.834   6.544 -0.3461 -0.8066  0.1605
   14SAPS   C32 1764   1.428   0.782   6.640  0.6868  0.6034  0.0589
   14SAPS   H2X 1765   1.506   0.837   6.698  0.3530  1.8332 -0.6213
   14SAPS   H2Y 1766   1.484   0.737   6.555  0.4010  1.6082 -0.6762
   14SAPS   C23 1767   1.364   1.542   6.889 -0.8380 -0.1749 -0.7970
   14SAPS   H3R 1768   1.257   1.528   6.917 -0.8918  2.7428  0.8871
   14SAPS   H3S 1769   1.368   1.632   6.824  3.5864  0.2851 -0.2164
   14SAPS   C24 1770   1.436   1.560   7.022  0.1951 -0.1774 -0.3264
   14SAPS   H4R 1771   1.410   1.473   7.086  3.2867 -2.3385 -1.7649
   14SAPS   H4S 1772   1.402   1.654   7.070 -0.2460  0.4766 -1.8859
   14SAPS   C25 1773   1.585   1.575   7.007 -0.7158 -0.4369 -0.4767
   14SAPS   H5R 1774   1.626   1.574   6.905 -0.2737 -0.6529 -0.2963
   14SAPS   C26 1775   1.669   1.600   7.103 -0.1534  0.1855 -0.7403
   14SAPS   H6R 1776   1.777   1.604   7.081 -0.0070 -0.7326 -0.2518
   14SAPS   C27 1777   1.636   1.609   7.255 -0.0925  0.2710  0.1142
   14SAPS   H7R 1778   1.548   1.544   7.275  0.6296 -1.0032 -0.6627
   14SAPS   H7S 1779   1.600   1.712   7.276  0.7681  0.3251  1.4619
   14SAPS   C28 1780   1.760   1.571   7.343  0.4680 -0.0412  0.2143
   14SAPS   H8R 1781   1.855   1.550   7.292  1.1466  1.7933  0.6406
   14SAPS   C29 1782   1.755   1.580   7.478 -0.2031 -1.0041 -0.1838
   14SAPS   H9R 1783   1.842   1.542   7.534 -2.3789 -3.6315  1.6796
   14SAPS  C210 1784   1.640   1.619   7.567 -0.2671  0.2179 -0.4008
   14SAPS  H10R 1785   1.657   1.572   7.666 -0.6447  1.9025  0.4877
   14SAPS  H10S 1786   1.555   1.559   7.526 -0.6821  0.8633 -0.5064
   14SAPS  C211 1787   1.606   1.769   7.574  0.3308  0.1152  0.0315
   14SAPS  H11R 1788   1.523   1.794   7.505 -1.2314  0.1963  1.8631
   14SAPS  C212 1789   1.676   1.865   7.639 -0.4825  0.2540  0.0237
   14SAPS  H12R 1790   1.642   1.970   7.632 -2.3038 -0.2881  0.2887
   14SAPS  C213 1791   1.805   1.837   7.719  0.1501 -0.0471  1.4284
   14SAPS  H13R 1792   1.892   1.821   7.652 -0.8816 -3.6005  0.7577
   14SAPS  H13S 1793   1.790   1.747   7.782  1.2968 -0.2872  1.3842
   14SAPS  C214 1794   1.838   1.945   7.812 -0.2258 -0.2302  0.1415
   14SAPS  H14R 1795   1.767   2.029   7.807 -0.1491 -0.2027 -0.5606
   14SAPS  C215 1796   1.944   1.949   7.888  0.1824  0.5690 -0.3141
   14SAPS  H15R 1797   1.953   2.044   7.942 -1.8428  0.6463 -0.0019
   14SAPS  C216 1798   2.056   1.840   7.901 -0.0521  0.8255  0.0950
   14SAPS  H16R 1799   2.035   1.749   7.842  0.8193  2.4834 -2.9950
   14SAPS  H16S 1800   2.063   1.801   8.004  2.6080 -0.1421 -0.3927
   14SAPS  C217 1801   2.196   1.880   7.845  0.0547 -0.7970  0.6076
   14SAPS  H17R 1802   2.182   1.922   7.743  1.4504  1.3404  1.2402
   14SAPS  H17S 1803   2.249   1.782   7.838  0.2790 -0.5512 -2.2300
   14SAPS  C218 1804   2.261   1.979   7.937  0.0929 -0.2016 -1.5073
   14SAPS  H18R 1805   2.283   1.930   8.034 -1.4544  0.7783 -0.6369
   14SAPS  H18S 1806   2.198   2.070   7.950 -1.1306 -0.8200 -2.8339
   14SAPS  C219 1807   2.412   2.010   7.886  0.2823 -0.6636  0.0276
   14SAPS  H19R 1808   2.463   1.916   7.856  0.4159 -0.7003  0.3622
   14SAPS  H19S 1809   2.473   2.048   7.971 -1.3876  1.6236  0.2848
   14SAPS  C220 1810   2.416   2.108   7.766 -0.6383  0.0609  0.1034
   14SAPS  H20R 1811   2.333   2.179   7.787 -1.7494 -1.7998  2.6316
   14SAPS  H20S 1812   2.391   2.060   7.669 -2.0649  0.8907  0.0212
   14SAPS  H20T 1813   2.507   2.167   7.747 -0.2768 -0.9471 -1.5074
   14SAPS   C33 1814   1.371   0.670   6.736 -0.6167  0.7806  0.0548
   14SAPS   H3X 1815   1.460   0.609   6.762 -2.5763 -1.9635  0.7020
   14SAPS   H3Y 1816   1.301   0.605   6.680  1.4778 -1.0410 -0.6082
   14SAPS   C34 1817   1.305   0.732   6.856  0.7544 -0.5281  0.1907
   14SAPS   H4X 1818   1.216   0.786   6.818  1.4882 -0.6294 -1.7487
   14SAPS   H4Y 1819   1.379   0.812   6.881 -0.5655  2.3140 -3.9927
   14SAPS   C35 1820   1.277   0.650   6.975  0.1149  0.0624  0.4617
   14SAPS   H5X 1821   1.373   0.608   7.012 -0.0904 -0.8510 -0.0125
   14SAPS   H5Y 1822   1.203   0.568   6.965 -0.7895  0.9427 -0.2330
   14SAPS   C36 1823   1.231   0.744   7.093 -0.2930  0.1382 -0.1314
   14SAPS   H6X 1824   1.143   0.806   7.062 -1.5044 -1.6791 -0.4779
   14SAPS   H6Y 1825   1.306   0.826   7.099  0.0752 -0.1376 -0.8402
   14SAPS   C37 1826   1.201   0.659   7.226  0.1096  0.4714 -1.1741
   14SAPS   H7X 1827   1.291   0.597   7.250  1.3425  2.5736 -0.1053
   14SAPS   H7Y 1828   1.112   0.593   7.220 -0.0138  0.3063  1.2935
   14SAPS   C38 1829   1.167   0.768   7.331  0.3706  0.3444  0.5995
   14SAPS   H8X 1830   1.065   0.806   7.308 -0.1119 -0.7609  0.8211
   14SAPS   H8Y 1831   1.240   0.851   7.337 -0.0761  0.6765  1.5979
   14SAPS   C39 1832   1.149   0.721   7.476 -0.4304  0.2371 -0.4150
   14SAPS   H9X 1833   1.234   0.654   7.500  0.9022  0.1462 -4.4867
   14SAPS   H9Y 1834   1.057   0.659   7.480 -2.1496  2.7304  2.6378
   14SAPS  C310 1835   1.143   0.839   7.577 -0.7265 -0.3954 -0.0406
   14SAPS  H10X 1836   1.066   0.909   7.537  0.0140 -1.0822 -2.9394
   14SAPS  H10Y 1837   1.239   0.895   7.568  0.1033 -0.9487  3.7886
   14SAPS  C311 1838   1.115   0.799   7.721  0.4247 -0.2863 -0.4822
   14SAPS  H11X 1839   1.158   0.704   7.757 -1.7262 -0.7970  0.9684
   14SAPS  H11Y 1840   1.006   0.779   7.735  0.6044 -2.4747 -1.8672
   14SAPS  C312 1841   1.154   0.904   7.825  0.0760  0.3322  0.6314
   14SAPS  H12X 1842   1.117   1.003   7.790  0.3497  0.4734  0.7322
   14SAPS  H12Y 1843   1.265   0.910   7.829  0.0738 -0.0113  1.4019
   14SAPS  C313 1844   1.101   0.879   7.966 -0.1922 -0.1586 -0.2032
   14SAPS  H13X 1845   1.137   0.775   7.984 -0.0329  0.0520  0.7304
   14SAPS  H13Y 1846   0.990   0.871   7.960 -0.2293 -1.4457  1.5964
   14SAPS  C314 1847   1.132   0.979   8.075 -0.6341  0.3042  0.1302
   14SAPS  H14X 1848   1.101   1.082   8.045  1.0293  0.9715  0.6338
   14SAPS  H14Y 1849   1.241   0.974   8.095 -1.1360 -1.4314  2.8853
   14SAPS  C315 1850   1.067   0.948   8.207 -0.0752 -0.3012 -0.8165
   14SAPS  H15X 1851   1.070   0.838   8.226  1.5378 -0.7192 -3.0809
   14SAPS  H15Y 1852   0.962   0.983   8.198 -0.6171 -1.0772  1.5990
   14SAPS  C316 1853   1.109   1.024   8.336 -0.8861 -0.6049 -0.1042
   14SAPS  H16X 1854   1.204   0.986   8.380  1.4651  1.0722 -3.3296
   14SAPS  H16Y 1855   1.039   1.002   8.420 -1.1849 -1.1003 -0.4795
   14SAPS  C317 1856   1.120   1.170   8.331  0.1283 -0.2161 -0.1338
   14SAPS  H17X 1857   1.017   1.211   8.332  0.7312  2.0965 -4.8309
   14SAPS  H17Y 1858   1.150   1.195   8.227 -0.6565  1.3423 -0.0185
   14SAPS  C318 1859   1.193   1.244   8.436 -1.1068 -0.4193 -0.4149
   14SAPS  H18X 1860   1.224   1.341   8.392 -0.9554 -0.7541 -1.0548
   14SAPS  H18Y 1861   1.280   1.188   8.476 -1.9798 -0.1146  2.1148
   14SAPS  H18Z 1862   1.128   1.262   8.525  3.5822 -0.4271  3.4551
   15SAPS     N 1863   6.455   3.091   6.272  0.4207 -0.4847  0.3742
   15SAPS   HN1 1864   6.432   3.188   6.303  0.0776 -0.6017  0.4763
   15SAPS   HN2 1865   6.508   3.088   6.182 -1.4988 -0.3415 -0.8322
   15SAPS   HN3 1866   6.362   3.048   6.259  0.3546 -0.6513  1.3810
   15SAPS   C12 1867   6.527   3.022   6.382  0.6629 -0.6144  0.2218
   15SAPS  H12A 1868   6.477   3.060   6.470 -0.4040 -0.4415 -0.4381
   15SAPS   C13 1869   6.514   2.868   6.374  0.0318  0.2021  0.3970
   15SAPS  O13A 1870   6.441   2.811   6.289 -0.0598  0.4194 -0.3887
   15SAPS  O13B 1871   6.563   2.802   6.465 -0.8621 -0.1264  0.4750
   15SAPS   C11 1872   6.670   3.090   6.377 -0.3246 -0.1998  0.1313
   15SAPS  H11A 1873   6.721   3.057   6.470  1.1381  2.9065  0.5531
   15SAPS  H11B 1874   6.679   3.200   6.382  1.9910 -0.2957 -1.0652
   15SAPS     P 1875   6.858   3.114   6.205 -0.6279 -0.1519 -0.1203
   15SAPS   O13 1876   6.937   3.016   6.130  0.3988  0.1481 -0.6869
   15SAPS   O14 1877   6.814   3.227   6.116  0.1244  0.1701 -0.5431
   15SAPS   O12 1878   6.741   3.043   6.267  1.3327 -0.0266  0.0943
   15SAPS   O11 1879   6.940   3.160   6.333 -0.0309 -0.1194  0.2260
   15SAPS    C1 1880   6.934   3.297   6.378  0.3359  0.3234  0.5451
   15SAPS    HA 1881   6.947   3.376   6.301 -2.4117  0.6704  0.3034
   15SAPS    HB 1882   6.831   3.325   6.412  0.1283  0.0218  0.1721
   15SAPS    C2 1883   7.030   3.325   6.501 -0.3153 -0.0365  0.6205
   15SAPS    HS 1884   7.134   3.320   6.463 -0.9982 -0.5546 -1.2867
   15SAPS   O21 1885   7.012   3.218   6.597 -0.0934 -0.1090  0.3975
   15SAPS   C21 1886   7.100   3.215   6.694  0.4392 -0.7643 -0.2667
   15SAPS   O22 1887   7.185   3.295   6.722 -0.1308  0.4609 -0.0554
   15SAPS   C22 1888   7.100   3.082   6.763  0.2192 -0.5271 -0.5403
   15SAPS   H2R 1889   7.084   3.006   6.683  0.1974 -0.5557 -0.5085
   15SAPS   H2S 1890   7.201   3.061   6.805  1.9254  0.8463 -3.6380
   15SAPS    C3 1891   7.002   3.459   6.570  0.4316 -0.3872 -0.3470
   15SAPS    HX 1892   7.063   3.491   6.658  0.5050 -0.3163 -0.4234
   15SAPS    HY 1893   6.902   3.443   6.615  0.5783 -0.6992 -0.1240
   15SAPS   O31 1894   7.000   3.567   6.472 -0.1624 -0.3141  0.0473
   15SAPS   C31 1895   7.102   3.652   6.480 -0.0390 -0.7731 -0.2146
   15SAPS   O32 1896   7.199   3.635   6.542  0.1282 -0.1812  0.1600
   15SAPS   C32 1897   7.065   3.779   6.404  0.4304 -0.5584 -0.5684
   15SAPS   H2X 1898   6.960   3.774   6.367 -0.1833 -1.2649  1.1877
   15SAPS   H2Y 1899   7.135   3.785   6.318  0.8900  0.0131 -0.1644
   15SAPS   C23 1900   6.983   3.064   6.865 -0.7375 -0.4657 -0.0319
   15SAPS   H3R 1901   6.990   2.960   6.902 -3.4399  0.0850  2.3692
   15SAPS   H3S 1902   6.888   3.080   6.811 -0.4720  1.9785  0.0863
   15SAPS   C24 1903   6.995   3.165   6.984 -0.8409  0.5996  0.5243
   15SAPS   H4R 1904   6.895   3.165   7.033 -1.2245  1.9764 -0.2163
   15SAPS   H4S 1905   7.013   3.265   6.941 -1.0362  0.6221  0.4924
   15SAPS   C25 1906   7.109   3.139   7.077 -0.1330 -0.5211  0.2313
   15SAPS   H5R 1907   7.204   3.170   7.031 -1.1707  1.1762 -0.8824
   15SAPS   C26 1908   7.117   3.104   7.205  0.0393 -0.4225  0.6763
   15SAPS   H6R 1909   7.216   3.122   7.250  1.9458  0.8365 -3.5126
   15SAPS   C27 1910   7.002   3.075   7.295 -0.4218  0.2602 -0.5973
   15SAPS   H7R 1911   7.014   2.975   7.340 -0.2726 -0.0730 -1.3635
   15SAPS   H7S 1912   6.913   3.063   7.230  0.8389  0.9336 -2.5452
   15SAPS   C28 1913   6.984   3.184   7.399  0.1358 -0.2867  0.1954
   15SAPS   H8R 1914   7.016   3.284   7.368 -0.6192 -0.6489 -1.9250
   15SAPS   C29 1915   6.956   3.167   7.527  0.5872 -0.4405  0.5187
   15SAPS   H9R 1916   6.955   3.260   7.586 -0.2553  1.1973 -1.9302
   15SAPS  C210 1917   6.922   3.039   7.595 -0.4600  0.0622  0.7120
   15SAPS  H10R 1918   7.015   2.978   7.605 -0.4946 -0.5572 -2.0123
   15SAPS  H10S 1919   6.855   2.985   7.524 -0.2246  1.7050 -0.8267
   15SAPS  C211 1920   6.855   3.049   7.726  0.7084 -0.6699 -0.7140
   15SAPS  H11R 1921   6.745   3.043   7.722  0.4319 -0.3977  3.2154
   15SAPS  C212 1922   6.911   3.069   7.850  0.1246 -0.7644  0.7531
   15SAPS  H12R 1923   6.842   3.070   7.935 -1.9306 -1.5781 -0.8179
   15SAPS  C213 1924   7.056   3.080   7.879  0.5787 -0.6130 -0.2267
   15SAPS  H13R 1925   7.069   3.177   7.931  2.1766 -0.7212 -0.3693
   15SAPS  H13S 1926   7.107   3.094   7.781  1.1555 -1.8573 -0.1288
   15SAPS  C214 1927   7.107   2.950   7.942  0.5483 -0.0470  0.2990
   15SAPS  H14R 1928   7.042   2.863   7.961  0.1406 -0.2195 -1.6781
   15SAPS  C215 1929   7.235   2.926   7.965 -0.1203  0.0771  0.1731
   15SAPS  H15R 1930   7.272   2.833   8.011 -0.3409  0.0043  0.2040
   15SAPS  C216 1931   7.346   3.028   7.947  0.1156 -0.2160 -0.4608
   15SAPS  H16R 1932   7.308   3.120   7.896 -1.1470 -0.2418  0.3710
   15SAPS  H16S 1933   7.431   2.981   7.894  2.5583  1.1304  2.0014
   15SAPS  C217 1934   7.386   3.076   8.095 -0.1377 -0.0752 -0.0316
   15SAPS  H17R 1935   7.294   3.104   8.151  0.9584  3.8837  0.0868
   15SAPS  H17S 1936   7.436   3.175   8.100  1.8172 -1.0726  2.8118
   15SAPS  C218 1937   7.467   2.966   8.165 -0.4131 -0.9650  0.5532
   15SAPS  H18R 1938   7.555   2.927   8.111 -0.8638  0.2113 -1.1352
   15SAPS  H18S 1939   7.396   2.881   8.169 -0.3874 -1.0496 -0.4723
   15SAPS  C219 1940   7.505   2.997   8.315  0.0177  0.3329 -0.4101
   15SAPS  H19R 1941   7.573   3.085   8.314  1.0832 -0.4671  0.2739
   15SAPS  H19S 1942   7.556   2.904   8.349 -0.7889  0.0474  0.0538
   15SAPS  C220 1943   7.388   3.030   8.401  0.3133  0.0412 -0.1705
   15SAPS  H20R 1944   7.354   3.133   8.377 -0.3144  0.3084  1.6846
   15SAPS  H20S 1945   7.428   3.028   8.505 -1.1217 -0.6500  0.4042
   15SAPS  H20T 1946   7.298   2.965   8.406 -0.1412  0.6573 -0.2073
   15SAPS   C33 1947   7.076   3.899   6.491  0.0463 -0.2061  0.3775
   15SAPS   H3X 1948   7.071   3.983   6.418  1.2312  0.4453  1.0228
   15SAPS   H3Y 1949   7.168   3.909   6.553 -0.5046  0.5938  1.0903
   15SAPS   C34 1950   6.958   3.926   6.590 -0.1902 -0.0368  0.1351
   15SAPS   H4X 1951   6.868   3.918   6.525 -0.1106  0.2781 -0.0194
   15SAPS   H4Y 1952   6.962   4.030   6.630 -2.4281 -1.4408  4.6185
   15SAPS   C35 1953   6.941   3.835   6.710 -0.0282 -0.2753  0.2904
   15SAPS   H5X 1954   6.976   3.730   6.703 -1.6012 -1.0110  2.4189
   15SAPS   H5Y 1955   6.834   3.810   6.722 -0.6847  2.3492  0.6151
   15SAPS   C36 1956   7.012   3.897   6.830  0.3245  0.0630 -0.4046
   15SAPS   H6X 1957   6.978   4.002   6.836 -1.3299 -0.3917 -1.3719
   15SAPS   H6Y 1958   7.123   3.893   6.840  0.3456  3.5177  4.0101
   15SAPS   C37 1959   6.969   3.821   6.962  0.1004 -0.6473 -0.5836
   15SAPS   H7X 1960   6.982   3.711   6.956 -0.3839 -0.6974 -0.8250
   15SAPS   H7Y 1961   6.861   3.847   6.967  0.5846  1.4882  3.4250
   15SAPS   C38 1962   7.036   3.885   7.084  0.0698  0.3081 -0.7486
   15SAPS   H8X 1963   7.020   3.994   7.079  1.6634  0.5801 -0.3449
   15SAPS   H8Y 1964   7.144   3.859   7.082  0.3673  1.0783  1.8035
   15SAPS   C39 1965   6.979   3.833   7.219  0.0484  0.2351 -0.3582
   15SAPS   H9X 1966   7.001   3.725   7.233  2.3738  0.7647  0.5571
   15SAPS   H9Y 1967   6.869   3.847   7.216 -0.3656 -2.2348  0.5136
   15SAPS  C310 1968   7.049   3.889   7.340  0.5109  0.0090 -0.1432
   15SAPS  H10X 1969   7.047   4.000   7.340 -0.1543  0.0007  0.0777
   15SAPS  H10Y 1970   7.154   3.853   7.335 -0.3577 -2.7218 -0.3481
   15SAPS  C311 1971   6.990   3.833   7.469 -0.0555 -0.4986 -0.7730
   15SAPS  H11X 1972   6.993   3.723   7.479  0.8382 -0.3890  0.3738
   15SAPS  H11Y 1973   6.881   3.856   7.465  0.4848  3.6450  2.1349
   15SAPS  C312 1974   7.041   3.914   7.594  0.4909  0.4378  0.0670
   15SAPS  H12X 1975   7.043   4.021   7.566  3.4757  0.7845  1.3001
   15SAPS  H12Y 1976   7.148   3.885   7.596  1.6517  4.1207 -1.5147
   15SAPS  C313 1977   6.979   3.889   7.733  0.1781  0.1107  0.1526
   15SAPS  H13X 1978   6.980   3.778   7.739  3.7523  0.0330 -0.2566
   15SAPS  H13Y 1979   6.872   3.921   7.732  0.5986  1.6764  1.4665
   15SAPS  C314 1980   7.063   3.949   7.842  0.3430  0.1880 -0.3688
   15SAPS  H14X 1981   7.100   4.053   7.833  0.9802  0.1878  1.7862
   15SAPS  H14Y 1982   7.152   3.881   7.846  0.8401  0.7955 -0.9537
   15SAPS  C315 1983   6.977   3.935   7.979  0.2868  0.0592  0.6949
   15SAPS  H15X 1984   6.968   3.826   8.001 -1.6031 -0.0793 -0.5581
   15SAPS  H15Y 1985   6.875   3.970   7.955  0.8550  0.5992 -1.0727
   15SAPS  C316 1986   7.043   4.017   8.090 -0.2199  0.0566  0.4331
   15SAPS  H16X 1987   7.019   4.125   8.097 -1.0949 -0.1958  1.6399
   15SAPS  H16Y 1988   7.154   4.022   8.089 -0.0996 -1.8767 -0.5713
   15SAPS  C317 1989   7.011   3.948   8.230  0.1625 -0.0284  0.1318
   15SAPS  H17X 1990   7.047   3.844   8.225 -0.0629 -0.0814 -0.3887
   15SAPS  H17Y 1991   6.901   3.947   8.249  0.2611 -0.7821  0.7107
   15SAPS  C318 1992   7.072   4.029   8.339  0.2599 -0.4436  0.2177
   15SAPS  H18X 1993   7.182   4.035   8.326  0.5658 -1.7451  1.7990
   15SAPS  H18Y 1994   7.048   3.994   8.442 -0.8504 -0.0918  0.0895
   15SAPS  H18Z 1995   7.028   4.130   8.327 -0.4646 -0.8929 -1.0651
   16SAPS     N 1996   5.639   2.092   6.278 -0.1724  0.5773 -0.2394
   16SAPS   HN1 1997   5.547   2.046   6.266 -0.9768  1.5553  1.7274
   16SAPS   HN2 1998   5.613   2.187   6.311  3.4946  1.5432  0.3241
   16SAPS   HN3 1999   5.688   2.096   6.186 -0.9457  0.1365 -0.6776
   16SAPS   C12 2000   5.728   2.021   6.381  0.2834  0.0866 -0.4471
   16SAPS  H12A 2001   5.764   1.932   6.330  1.8401  1.5694 -2.0810
   16SAPS   C13 2002   5.852   2.097   6.448 -0.1549 -0.5327 -0.0188
   16SAPS  O13A 2003   5.886   2.206   6.389 -0.0205  0.2153 -0.4205
   16SAPS  O13B 2004   5.903   2.064   6.561 -0.3424 -0.3762  0.0355
   16SAPS   C11 2005   5.628   1.976   6.494 -0.6231  0.3015  0.1034
   16SAPS  H11A 2006   5.587   2.067   6.543  0.6847  0.4054  1.0746
   16SAPS  H11B 2007   5.681   1.926   6.578 -1.8062 -2.2980 -0.5903
   16SAPS     P 2008   5.430   1.793   6.532 -0.2585 -0.0757  0.2437
   16SAPS   O13 2009   5.296   1.778   6.473  0.1137  0.7495 -0.2846
   16SAPS   O14 2010   5.515   1.672   6.544 -0.2772  0.5252  0.3724
   16SAPS   O12 2011   5.511   1.906   6.442 -0.4462  0.7674 -0.1688
   16SAPS   O11 2012   5.440   1.856   6.679  0.6037  0.4154 -0.6188
   16SAPS    C1 2013   5.337   1.844   6.777 -0.6939  0.8135 -0.5099
   16SAPS    HA 2014   5.242   1.886   6.738 -2.0604  0.4729  2.2523
   16SAPS    HB 2015   5.329   1.736   6.805  2.2569  0.7371  0.4348
   16SAPS    C2 2016   5.378   1.931   6.902  0.0659  0.9941  0.6436
   16SAPS    HS 2017   5.385   2.036   6.866  1.1526  0.0918 -2.0299
   16SAPS   O21 2018   5.497   1.881   6.958 -0.2580  0.3785 -0.0128
   16SAPS   C21 2019   5.613   1.935   6.919  0.4179  0.9448  0.7185
   16SAPS   O22 2020   5.627   2.035   6.849 -0.3880 -0.2018  0.0867
   16SAPS   C22 2021   5.723   1.852   6.983  0.4032 -0.0648  0.2461
   16SAPS   H2R 2022   5.685   1.750   7.009  2.3277 -0.6963  0.7420
   16SAPS   H2S 2023   5.798   1.833   6.904 -0.4901  0.1087 -0.6701
   16SAPS    C3 2024   5.260   1.932   7.011 -0.3616  0.2020 -0.5915
   16SAPS    HX 2025   5.269   1.832   7.059  2.3025  0.2447 -0.8646
   16SAPS    HY 2026   5.164   1.941   6.956 -0.7158 -2.8699 -0.6696
   16SAPS   O31 2027   5.270   2.033   7.112  0.1304 -0.0046 -0.5015
   16SAPS   C31 2028   5.169   2.030   7.203 -0.6193  0.0505  1.0482
   16SAPS   O32 2029   5.072   1.961   7.205 -0.0456  0.5407 -0.5331
   16SAPS   C32 2030   5.193   2.146   7.296  0.1229  1.1012 -0.2796
   16SAPS   H2X 2031   5.146   2.238   7.256 -0.1676  0.7467 -0.7721
   16SAPS   H2Y 2032   5.300   2.173   7.296  0.4549 -0.1341  0.3539
   16SAPS   C23 2033   5.786   1.918   7.101  0.2641  0.1668 -0.6065
   16SAPS   H3R 2034   5.712   1.986   7.149 -0.0091  0.4965 -1.4868
   16SAPS   H3S 2035   5.873   1.980   7.069  0.8459  0.0072  0.6108
   16SAPS   C24 2036   5.838   1.805   7.194  0.5584  0.3620  0.3945
   16SAPS   H4R 2037   5.898   1.743   7.125 -1.4773 -1.7683  0.4326
   16SAPS   H4S 2038   5.762   1.742   7.245  0.0205  2.6809  2.6869
   16SAPS   C25 2039   5.926   1.863   7.304 -0.5581 -0.0118  0.7038
   16SAPS   H5R 2040   6.018   1.905   7.262 -2.2861  2.5808 -0.8001
   16SAPS   C26 2041   5.904   1.878   7.434  0.1210  0.5390  0.2990
   16SAPS   H6R 2042   5.976   1.933   7.497 -1.2545 -0.3322  2.7969
   16SAPS   C27 2043   5.783   1.841   7.516 -0.0568 -0.1577  0.1770
   16SAPS   H7R 2044   5.703   1.916   7.496 -0.8169 -0.5491  1.6339
   16SAPS   H7S 2045   5.791   1.863   7.624  2.5872  0.3529 -0.0501
   16SAPS   C28 2046   5.721   1.701   7.501  0.0571 -0.9895  0.0769
   16SAPS   H8R 2047   5.659   1.696   7.411  1.6995 -2.0126 -1.0547
   16SAPS   C29 2048   5.746   1.592   7.575  0.4112 -0.4074 -0.0409
   16SAPS   H9R 2049   5.681   1.507   7.550 -1.7297  0.6170  1.7014
   16SAPS  C210 2050   5.833   1.574   7.696 -0.1120 -0.6002 -0.0419
   16SAPS  H10R 2051   5.865   1.671   7.742 -1.6364 -1.0136  2.0403
   16SAPS  H10S 2052   5.926   1.527   7.659 -0.7439 -1.8838 -0.0451
   16SAPS  C211 2053   5.759   1.511   7.808  0.3489  0.0361 -0.0439
   16SAPS  H11R 2054   5.727   1.571   7.895  4.0564  0.6634  1.0581
   16SAPS  C212 2055   5.730   1.377   7.818 -0.8576 -0.2532  0.8655
   16SAPS  H12R 2056   5.662   1.341   7.896 -0.7980 -1.5202  0.3590
   16SAPS  C213 2057   5.758   1.265   7.717  0.0019  0.3516 -0.3607
   16SAPS  H13R 2058   5.831   1.202   7.772  0.9181  1.7620  0.1057
   16SAPS  H13S 2059   5.817   1.305   7.632  0.6924 -0.1203 -0.1083
   16SAPS  C214 2060   5.646   1.175   7.680  0.0186  1.0056 -0.0247
   16SAPS  H14R 2061   5.562   1.175   7.751 -1.2105 -2.7425 -1.2448
   16SAPS  C215 2062   5.642   1.080   7.585  0.1340 -0.0196  0.0977
   16SAPS  H15R 2063   5.549   1.026   7.561  0.1797 -0.0656  0.0228
   16SAPS  C216 2064   5.765   1.035   7.497  0.3172 -0.8074 -0.4926
   16SAPS  H16R 2065   5.801   0.935   7.529  1.0979 -0.4661 -0.2624
   16SAPS  H16S 2066   5.854   1.101   7.507 -1.6406  2.1658 -1.5672
   16SAPS  C217 2067   5.717   1.058   7.347  0.0194 -0.5942  0.4933
   16SAPS  H17R 2068   5.809   1.062   7.285 -1.7841 -1.8534 -2.4492
   16SAPS  H17S 2069   5.677   1.162   7.340  0.1784 -0.5177  0.6893
   16SAPS  C218 2070   5.631   0.959   7.281  0.5108 -0.0308 -0.3893
   16SAPS  H18R 2071   5.527   0.973   7.318  1.3342  1.8507  1.4167
   16SAPS  H18S 2072   5.675   0.857   7.294  0.9647  0.3410  1.2245
   16SAPS  C219 2073   5.613   0.994   7.127 -0.7916 -0.6003 -0.3731
   16SAPS  H19R 2074   5.699   0.943   7.078 -0.0634  2.3600 -2.4603
   16SAPS  H19S 2075   5.626   1.104   7.116  0.3284 -0.6171  0.5694
   16SAPS  C220 2076   5.482   0.955   7.065 -0.3241 -0.4973 -0.1082
   16SAPS  H20R 2077   5.473   0.962   6.954  0.4534 -1.6310 -0.2677
   16SAPS  H20S 2078   5.408   1.024   7.108  0.8676 -0.1260  1.4344
   16SAPS  H20T 2079   5.472   0.846   7.082  0.7703 -0.5658  0.2278
   16SAPS   C33 2080   5.132   2.124   7.438  0.1341 -0.5306  0.1421
   16SAPS   H3X 2081   5.032   2.076   7.442  0.0735 -0.3351  2.2538
   16SAPS   H3Y 2082   5.118   2.227   7.478 -0.0694 -1.1093  1.6395
   16SAPS   C34 2083   5.233   2.059   7.538 -0.9787  0.5200  0.0877
   16SAPS   H4X 2084   5.325   2.119   7.522 -0.8823  0.0017 -1.4378
   16SAPS   H4Y 2085   5.246   1.950   7.516  0.2827  0.5589  0.5768
   16SAPS   C35 2086   5.199   2.079   7.685 -0.2974 -0.4435  0.4559
   16SAPS   H5X 2087   5.094   2.042   7.692 -0.2818 -0.4566  0.6195
   16SAPS   H5Y 2088   5.204   2.188   7.709 -0.9898  0.2355 -2.1244
   16SAPS   C36 2089   5.291   1.999   7.782  0.1476  1.0999  0.3102
   16SAPS   H6X 2090   5.299   1.892   7.752 -3.0664  1.6144 -3.2315
   16SAPS   H6Y 2091   5.235   2.002   7.878 -0.6736 -0.5327 -0.0937
   16SAPS   C37 2092   5.431   2.062   7.803 -0.2226 -0.3107  0.9599
   16SAPS   H7X 2093   5.419   2.166   7.839  0.1617 -0.0413  0.3268
   16SAPS   H7Y 2094   5.464   2.068   7.697 -0.3597  0.2874  0.9505
   16SAPS   C38 2095   5.531   1.986   7.893  0.2291  0.1740  0.7621
   16SAPS   H8X 2096   5.633   2.023   7.870  0.3543  1.0570  2.5386
   16SAPS   H8Y 2097   5.538   1.878   7.866 -0.4850  0.1589  0.6281
   16SAPS   C39 2098   5.513   2.002   8.043  0.1346  0.4627  0.0444
   16SAPS   H9X 2099   5.407   1.984   8.072  0.4802  0.7052  1.5363
   16SAPS   H9Y 2100   5.533   2.107   8.072 -0.3109  0.8229 -0.9138
   16SAPS  C310 2101   5.619   1.919   8.127 -0.4743 -0.6035 -0.2246
   16SAPS  H10X 2102   5.587   1.922   8.233 -1.8396 -0.2283 -0.6216
   16SAPS  H10Y 2103   5.719   1.967   8.125  0.0100 -1.6220 -0.5254
   16SAPS  C311 2104   5.630   1.774   8.090  0.1089 -0.7332  0.4186
   16SAPS  H11X 2105   5.670   1.778   7.987 -1.3286  2.7403 -0.1340
   16SAPS  H11Y 2106   5.532   1.722   8.090 -0.8642  1.0182 -0.5661
   16SAPS  C312 2107   5.734   1.703   8.182  0.3556  0.1008 -0.0863
   16SAPS  H12X 2108   5.814   1.770   8.221 -2.2627  3.6090 -0.2114
   16SAPS  H12Y 2109   5.779   1.623   8.119 -1.4856  0.5851 -2.1381
   16SAPS  C313 2110   5.663   1.633   8.303 -0.0052 -0.0928 -0.1770
   16SAPS  H13X 2111   5.605   1.545   8.270 -1.2166  0.2503  0.9239
   16SAPS  H13Y 2112   5.595   1.706   8.353  0.0128  0.0110 -0.3041
   16SAPS  C314 2113   5.765   1.583   8.398  0.1804  0.2336  0.2083
   16SAPS  H14X 2114   5.862   1.634   8.382 -0.3295  1.1384 -0.0899
   16SAPS  H14Y 2115   5.790   1.480   8.364 -2.8478 -0.0531 -1.4571
   16SAPS  C315 2116   5.729   1.566   8.550 -0.9304  0.7219 -0.6892
   16SAPS  H15X 2117   5.814   1.513   8.598 -0.2443  1.2840 -1.2642
   16SAPS  H15Y 2118   5.640   1.500   8.563  0.2314 -0.2984  3.3863
   16SAPS  C316 2119   5.727   1.694   8.621  0.2558 -0.4605 -0.0486
   16SAPS  H16X 2120   5.633   1.733   8.576  0.1447  0.2012  0.7338
   16SAPS  H16Y 2121   5.808   1.764   8.592 -0.1935 -0.3004 -0.9879
   16SAPS  C317 2122   5.720   1.679   8.773  0.3251  0.1909 -0.5678
   16SAPS  H17X 2123   5.722   1.782   8.816  1.8284  0.3655 -1.0035
   16SAPS  H17Y 2124   5.821   1.644   8.802  0.3939 -0.6422 -1.7466
   16SAPS  C318 2125   5.600   1.589   8.830  0.1917 -0.2963  0.1832
   16SAPS  H18X 2126   5.623   1.485   8.799 -3.5949 -0.6599 -2.0159
   16SAPS  H18Y 2127   5.506   1.618   8.779 -1.7070 -0.9615  3.0538
   16SAPS  H18Z 2128   5.590   1.599   8.941 -1.8271 -1.1300  0.1179
   17SAPC     N 2129   4.648   5.067  10.838  0.2649 -0.7231  0.1753
   17SAPC   C12 2130   4.530   4.996  10.778 -0.5475  1.0622 -0.0275
   17SAPC  H12A 2131   4.448   5.064  10.762 -0.7626  0.7764 -0.1596
   17SAPC  H12B 2132   4.507   4.920  10.852  1.6017  0.0892 -0.2820
   17SAPC   C13 2133   4.772   4.991  10.836  0.3902  0.2860 -0.2459
   17SAPC  H13A 2134   4.848   5.051  10.883  2.4507 -0.2164 -2.7310
   17SAPC  H13B 2135   4.769   4.895  10.886 -1.8106 -0.2215 -1.2441
   17SAPC  H13C 2136   4.802   4.971  10.735 -2.5472  1.1069 -1.3978
   17SAPC   C14 2137   4.671   5.201  10.773  0.5770  0.4334  0.2085
   17SAPC  H14A 2138   4.578   5.255  10.785 -0.6709 -1.1171 -1.6863
   17SAPC  H14B 2139   4.751   5.241  10.832 -1.4615 -0.5229  3.9031
   17SAPC  H14C 2140   4.714   5.193  10.674  0.0907  1.0052 -0.0558
   17SAPC   C15 2141   4.615   5.100  10.983  0.2134  0.8246 -0.5949
   17SAPC  H15A 2142   4.693   5.153  11.037 -1.7519  1.5011  1.7644
   17SAPC  H15B 2143   4.524   5.153  11.007  0.3946  0.0025  2.2720
   17SAPC  H15C 2144   4.611   5.004  11.032  1.8799 -1.0071 -3.7282
   17SAPC   C11 2145   4.544   4.921  10.641 -0.7347  0.2416  0.2524
   17SAPC  H11A 2146   4.554   4.992  10.557 -1.3148  0.3838  0.2997
   17SAPC  H11B 2147   4.450   4.862  10.632 -1.7465  1.8458 -0.1846
   17SAPC     P 2148   4.639   4.687  10.685 -0.4211  0.6278  0.0172
   17SAPC   O13 2149   4.774   4.634  10.709  0.2818  0.1698  0.0757
   17SAPC   O14 2150   4.541   4.672  10.796 -0.2456  0.4064  0.1466
   17SAPC   O12 2151   4.660   4.837  10.632  0.5534  0.1749 -0.1068
   17SAPC   O11 2152   4.574   4.631  10.548 -0.4549 -0.5679 -0.1423
   17SAPC    C1 2153   4.634   4.504  10.497 -0.3192 -0.0142  0.7490
   17SAPC    HA 2154   4.743   4.517  10.481 -0.3498 -2.6015 -2.7727
   17SAPC    HB 2155   4.627   4.427  10.576  2.0195 -1.1727 -0.0897
   17SAPC    C2 2156   4.588   4.454  10.357 -0.4300 -0.4664  0.1726
   17SAPC    HS 2157   4.671   4.414  10.296 -2.1758 -1.1292 -1.8938
   17SAPC   O21 2158   4.529   4.554  10.286 -0.1796  0.2784 -0.6813
   17SAPC   C21 2159   4.612   4.651  10.245 -0.1194 -0.1231  0.5580
   17SAPC   O22 2160   4.734   4.655  10.262 -0.5591 -1.0569  0.4903
   17SAPC   C22 2161   4.533   4.767  10.172  0.3148  0.2527  0.2854
   17SAPC   H2R 2162   4.424   4.747  10.175  0.4816 -0.7423  0.2216
   17SAPC   H2S 2163   4.556   4.858  10.231  1.0042  0.5183 -0.3652
   17SAPC    C3 2164   4.480   4.343  10.368 -0.6557  0.0833  0.5693
   17SAPC    HX 2165   4.384   4.386  10.402  0.1124  0.6462  2.1445
   17SAPC    HY 2166   4.499   4.267  10.447 -1.9613 -0.7493  0.1154
   17SAPC   O31 2167   4.465   4.283  10.238 -0.3901  0.3127  0.1175
   17SAPC   C31 2168   4.363   4.314  10.161 -0.8466  0.0804 -0.7631
   17SAPC   O32 2169   4.286   4.404  10.177  0.4608 -0.1214 -0.5759
   17SAPC   C32 2170   4.384   4.243  10.027 -0.1542  0.1538 -0.5816
   17SAPC   H2X 2171   4.489   4.211  10.006  0.2989  0.7875  0.6044
   17SAPC   H2Y 2172   4.341   4.313   9.952  1.1351  0.6651 -0.8712
   17SAPC   C23 2173   4.596   4.787  10.031 -0.5095 -0.2885  0.0183
   17SAPC   H3R 2174   4.706   4.791  10.044 -0.5728  2.0276  0.2494
   17SAPC   H3S 2175   4.565   4.885   9.990  1.2092 -0.6432 -2.2782
   17SAPC   C24 2176   4.558   4.677   9.923  0.0590 -0.3127  0.0573
   17SAPC   H4R 2177   4.565   4.580   9.977  1.7753  0.6077  1.5931
   17SAPC   H4S 2178   4.642   4.686   9.851  0.3623  1.0443  0.5559
   17SAPC   C25 2179   4.433   4.693   9.844 -0.1783  0.4624  0.1600
   17SAPC   H5R 2180   4.353   4.635   9.892  1.1195 -0.6890  0.9913
   17SAPC   C26 2181   4.401   4.780   9.749 -1.0833 -0.0983 -0.2728
   17SAPC   H6R 2182   4.305   4.772   9.697 -1.2222  1.7475 -0.3591
   17SAPC   C27 2183   4.491   4.884   9.686 -0.0511 -0.2623 -0.2576
   17SAPC   H7R 2184   4.546   4.840   9.600 -0.6752  1.4317 -1.5848
   17SAPC   H7S 2185   4.567   4.907   9.763 -1.4828 -0.4001  1.2619
   17SAPC   C28 2186   4.422   5.016   9.654 -1.0148  0.6937 -0.3132
   17SAPC   H8R 2187   4.338   5.053   9.715 -0.6537 -0.2141  0.7682
   17SAPC   C29 2188   4.451   5.097   9.552 -0.4545  0.7598  0.3369
   17SAPC   H9R 2189   4.391   5.188   9.543 -1.2891  0.1492 -0.6021
   17SAPC  C210 2190   4.557   5.079   9.439  0.3139 -0.3245 -0.2439
   17SAPC  H10R 2191   4.510   5.022   9.356  0.2699 -2.3525  1.0896
   17SAPC  H10S 2192   4.628   5.001   9.474 -2.3909 -1.9093  2.1122
   17SAPC  C211 2193   4.630   5.196   9.384  0.1273  0.1951 -0.1202
   17SAPC  H11R 2194   4.619   5.292   9.437 -0.4723  0.0816 -0.0287
   17SAPC  C212 2195   4.704   5.185   9.272  0.0664  0.3484  0.2791
   17SAPC  H12R 2196   4.733   5.281   9.225 -1.8102 -0.3021 -2.4277
   17SAPC  C213 2197   4.731   5.066   9.181 -0.4924  0.4557 -0.0084
   17SAPC  H13R 2198   4.732   4.970   9.236 -2.7928 -0.1827 -0.9425
   17SAPC  H13S 2199   4.831   5.074   9.134 -1.3625 -2.2102 -2.6324
   17SAPC  C214 2200   4.623   5.041   9.090 -0.0303 -0.0066  0.5891
   17SAPC  H14R 2201   4.521   5.044   9.131 -0.2582 -0.2375  0.0578
   17SAPC  C215 2202   4.634   5.022   8.955  0.2359 -0.1101  0.4924
   17SAPC  H15R 2203   4.548   5.008   8.889  0.8820 -2.7062  0.1043
   17SAPC  C216 2204   4.759   5.024   8.868  0.1320 -0.5411 -0.4932
   17SAPC  H16R 2205   4.838   5.072   8.930 -0.3764 -1.9951  1.3515
   17SAPC  H16S 2206   4.742   5.080   8.773  3.1437 -0.3785 -1.0276
   17SAPC  C217 2207   4.813   4.887   8.822 -0.0261 -0.4359  0.5052
   17SAPC  H17R 2208   4.891   4.909   8.746  1.1919 -0.8646  1.5890
   17SAPC  H17S 2209   4.732   4.834   8.768 -0.7116 -0.4371  1.4896
   17SAPC  C218 2210   4.846   4.800   8.942 -0.2296  0.2880  0.1548
   17SAPC  H18R 2211   4.745   4.770   8.978 -0.4063  0.2085 -0.3957
   17SAPC  H18S 2212   4.896   4.872   9.011  1.7275  2.3262 -3.1498
   17SAPC  C219 2213   4.946   4.701   8.908 -0.1484 -0.3373 -0.1704
   17SAPC  H19R 2214   5.048   4.744   8.914  0.0985 -0.8440 -0.6706
   17SAPC  H19S 2215   4.929   4.653   8.809  1.2008  0.5784 -0.8644
   17SAPC  C220 2216   4.953   4.578   8.998  0.2386  0.2326 -0.6898
   17SAPC  H20R 2217   5.000   4.596   9.098 -1.4790 -1.6839  0.5345
   17SAPC  H20S 2218   5.009   4.498   8.946  1.6416  1.6199 -1.4187
   17SAPC  H20T 2219   4.851   4.549   9.029  0.4986  1.5769  1.6740
   17SAPC   C33 2220   4.285   4.117  10.016 -0.0149 -0.3139 -0.3653
   17SAPC   H3X 2221   4.186   4.163   9.991  0.0923 -0.0607 -0.3235
   17SAPC   H3Y 2222   4.287   4.061  10.111 -0.4198 -0.0394 -0.1901
   17SAPC   C34 2223   4.309   4.025   9.897  0.2927  0.0202 -0.3215
   17SAPC   H4X 2224   4.415   3.992   9.899  0.0288 -1.0029 -1.6314
   17SAPC   H4Y 2225   4.285   4.093   9.812 -2.0557 -0.9084 -0.4707
   17SAPC   C35 2226   4.210   3.910   9.886 -0.1632 -0.0809  0.1023
   17SAPC   H5X 2227   4.103   3.940   9.893 -0.6668 -1.7318 -0.1030
   17SAPC   H5Y 2228   4.222   3.831   9.963 -2.0602 -1.8765 -1.3167
   17SAPC   C36 2229   4.222   3.853   9.742  0.0346 -0.1723 -0.0281
   17SAPC   H6X 2230   4.328   3.843   9.710 -0.7097 -1.6472 -2.3280
   17SAPC   H6Y 2231   4.189   3.925   9.664  0.6142 -0.6967 -0.7790
   17SAPC   C37 2232   4.142   3.723   9.724  0.5190 -0.1335 -0.4706
   17SAPC   H7X 2233   4.035   3.747   9.744  0.6185  1.4523 -1.6841
   17SAPC   H7Y 2234   4.169   3.649   9.803  1.0034  0.0322 -0.4789
   17SAPC   C38 2235   4.163   3.650   9.589  0.6301 -0.6335  0.1685
   17SAPC   H8X 2236   4.099   3.559   9.579 -1.5713  0.8317  0.1315
   17SAPC   H8Y 2237   4.270   3.625   9.582  1.1222  0.8842  1.5333
   17SAPC   C39 2238   4.128   3.734   9.467  0.2738  0.4371  0.2600
   17SAPC   H9X 2239   4.203   3.816   9.457  0.6837  0.0152 -0.1506
   17SAPC   H9Y 2240   4.020   3.757   9.478  0.6186  1.2255  2.5797
   17SAPC  C310 2241   4.148   3.652   9.341  0.1603 -0.0742 -0.0635
   17SAPC  H10X 2242   4.083   3.562   9.347  0.3607 -0.1691  0.8050
   17SAPC  H10Y 2243   4.247   3.604   9.325  0.4387  0.7889 -1.0443
   17SAPC  C311 2244   4.096   3.726   9.213 -0.6752 -0.2140 -0.4001
   17SAPC  H11X 2245   4.162   3.815   9.197 -1.8384  1.1873  2.0831
   17SAPC  H11Y 2246   3.999   3.778   9.226  0.6982  1.8593  2.9628
   17SAPC  C312 2247   4.094   3.633   9.087 -0.5602  0.5171 -1.0690
   17SAPC  H12X 2248   4.049   3.533   9.101  0.2989  0.3604  1.0568
   17SAPC  H12Y 2249   4.200   3.625   9.055  0.6011 -1.6107  2.6820
   17SAPC  C313 2250   4.016   3.692   8.966 -0.4314  0.1867 -0.4301
   17SAPC  H13X 2251   4.068   3.775   8.914 -0.5794 -1.1305 -2.8438
   17SAPC  H13Y 2252   3.914   3.725   8.996 -0.6514 -1.0590  0.2295
   17SAPC  C314 2253   3.996   3.593   8.850 -0.3564  0.0250  0.2335
   17SAPC  H14X 2254   3.943   3.503   8.889  1.1359 -0.8832  0.2148
   17SAPC  H14Y 2255   4.099   3.558   8.832 -0.7309 -0.3506 -1.2677
   17SAPC  C315 2256   3.903   3.647   8.737  0.2994 -0.4305 -0.4017
   17SAPC  H15X 2257   3.935   3.744   8.693 -0.0815 -0.0198  0.2050
   17SAPC  H15Y 2258   3.803   3.675   8.778  0.7276  0.1911  0.2392
   17SAPC  C316 2259   3.880   3.546   8.623  0.4305 -0.4858  0.1270
   17SAPC  H16X 2260   3.816   3.588   8.542  1.0096 -1.6867 -0.9949
   17SAPC  H16Y 2261   3.823   3.458   8.659  0.5924 -0.4236  0.5449
   17SAPC  C317 2262   4.002   3.510   8.548 -0.6702 -0.0437 -0.4981
   17SAPC  H17X 2263   4.086   3.491   8.618 -0.5392  2.5021  0.1486
   17SAPC  H17Y 2264   4.027   3.602   8.492  0.4237 -2.1086 -3.6594
   17SAPC  C318 2265   3.985   3.393   8.452  0.1747  0.0888  0.4662
   17SAPC  H18X 2266   3.901   3.413   8.382  0.8410 -0.1940 -0.4137
   17SAPC  H18Y 2267   4.079   3.364   8.402 -0.6678  0.4576 -1.4192
   17SAPC  H18Z 2268   3.966   3.303   8.514 -0.3727  1.0499  1.7657
   18SAPC     N 2269   3.176   5.629  10.901 -0.3096 -0.1225 -0.0372
   18SAPC   C12 2270   3.053   5.544  10.863  0.1520 -0.1450  0.9707
   18SAPC  H12A 2271   2.995   5.604  10.795  2.0693 -0.8389 -1.3947
   18SAPC  H12B 2272   2.992   5.525  10.951 -0.1974  0.4883  0.8696
   18SAPC   C13 2273   3.267   5.568  11.006  0.0587  0.2285 -0.0301
   18SAPC  H13A 2274   3.334   5.491  10.970 -0.3358 -0.9595  1.6938
   18SAPC  H13B 2275   3.325   5.646  11.053 -1.4213  1.7976 -0.7109
   18SAPC  H13C 2276   3.210   5.506  11.074 -1.0442 -1.8791 -2.6571
   18SAPC   C14 2277   3.252   5.664  10.777 -0.6554  0.2659 -0.4131
   18SAPC  H14A 2278   3.199   5.706  10.693  1.5908  1.3409 -1.3708
   18SAPC  H14B 2279   3.326   5.738  10.804 -2.2073  1.7500 -0.0095
   18SAPC  H14C 2280   3.305   5.573  10.753  0.0403 -0.0758  2.1840
   18SAPC   C15 2281   3.124   5.757  10.961  0.1962 -0.8391  0.6605
   18SAPC  H15A 2282   3.193   5.837  10.988  0.1811  0.3711 -2.4548
   18SAPC  H15B 2283   3.067   5.806  10.884 -1.7480 -1.1900  1.8210
   18SAPC  H15C 2284   3.061   5.740  11.047 -1.9899  0.6083 -0.5697
   18SAPC   C11 2285   3.075   5.399  10.794 -0.2949 -0.0660 -0.0196
   18SAPC  H11A 2286   2.980   5.342  10.792  0.3066 -1.2165  1.5820
   18SAPC  H11B 2287   3.140   5.355  10.873  1.9103  0.3371 -1.5148
   18SAPC     P 2288   3.195   5.280  10.594  0.4276 -0.0916 -0.3140
   18SAPC   O13 2289   3.338   5.260  10.620  0.3000 -0.0068 -0.3696
   18SAPC   O14 2290   3.109   5.161  10.620 -0.1933 -0.1252 -0.7195
   18SAPC   O12 2291   3.148   5.407  10.671  0.5522 -0.0606  0.2547
   18SAPC   O11 2292   3.170   5.330  10.445  0.0452  0.2937 -0.2706
   18SAPC    C1 2293   3.268   5.420  10.381 -0.5405  0.0165 -0.4787
   18SAPC    HA 2294   3.221   5.520  10.371 -0.0139  0.3484  0.2739
   18SAPC    HB 2295   3.363   5.430  10.437  0.4102  1.6736 -2.2400
   18SAPC    C2 2296   3.322   5.358  10.247  0.8068 -0.2406 -0.0175
   18SAPC    HS 2297   3.401   5.421  10.201  1.9369 -0.4190  1.6060
   18SAPC   O21 2298   3.214   5.344  10.155 -0.0462 -0.1028  0.6747
   18SAPC   C21 2299   3.167   5.444  10.085 -0.0016 -0.2256  0.4003
   18SAPC   O22 2300   3.214   5.556  10.092 -0.2036  0.2773 -0.2252
   18SAPC   C22 2301   3.073   5.383   9.978  0.3215 -0.0369  0.0977
   18SAPC   H2R 2302   2.994   5.331  10.036 -0.4307  1.0480  0.0818
   18SAPC   H2S 2303   3.016   5.469   9.935  2.4675  2.3621  1.7360
   18SAPC    C3 2304   3.380   5.217  10.262 -0.7268 -0.0202  0.2540
   18SAPC    HX 2305   3.307   5.156  10.320  0.6298 -0.6187  1.3616
   18SAPC    HY 2306   3.472   5.221  10.323 -0.0279 -2.1772 -0.5639
   18SAPC   O31 2307   3.400   5.144  10.136  0.0288  0.0735  0.1958
   18SAPC   C31 2308   3.484   5.201  10.050 -0.5701  0.7981  0.3069
   18SAPC   O32 2309   3.545   5.302  10.068 -0.2993  0.4014 -0.4472
   18SAPC   C32 2310   3.485   5.121   9.922  0.8378 -0.1386  0.2431
   18SAPC   H2X 2311   3.507   5.187   9.836  3.2605 -1.7170 -0.4739
   18SAPC   H2Y 2312   3.389   5.071   9.898 -0.0515  2.4632 -2.0909
   18SAPC   C23 2313   3.142   5.306   9.860 -0.0932 -0.2650 -0.4842
   18SAPC   H3R 2314   3.058   5.249   9.814  0.3003 -0.5873 -0.8122
   18SAPC   H3S 2315   3.221   5.239   9.899  2.9192  2.9701 -0.6359
   18SAPC   C24 2316   3.202   5.396   9.750  0.0871  0.2396  0.3403
   18SAPC   H4R 2317   3.264   5.468   9.807  1.2017  1.3916 -2.1368
   18SAPC   H4S 2318   3.112   5.438   9.701 -0.4065 -1.1569 -0.0028
   18SAPC   C25 2319   3.280   5.313   9.650 -0.7586 -0.5705  0.7256
   18SAPC   H5R 2320   3.372   5.273   9.694  0.4018 -0.3969 -1.4230
   18SAPC   C26 2321   3.248   5.280   9.524 -0.6076 -0.6578  0.9857
   18SAPC   H6R 2322   3.313   5.199   9.487 -1.4031 -0.8115 -0.1371
   18SAPC   C27 2323   3.131   5.310   9.436 -0.0355 -0.0272 -0.1575
   18SAPC   H7R 2324   3.063   5.390   9.471 -0.8790 -0.5368 -0.6133
   18SAPC   H7S 2325   3.068   5.220   9.430 -0.4764  0.2925 -0.3870
   18SAPC   C28 2326   3.189   5.335   9.301  0.4101 -0.1894  0.5194
   18SAPC   H8R 2327   3.231   5.437   9.302 -1.4948  0.6426  0.8637
   18SAPC   C29 2328   3.176   5.259   9.189  0.2688  0.4864 -0.2793
   18SAPC   H9R 2329   3.234   5.287   9.100  0.7990  2.3427  0.6001
   18SAPC  C210 2330   3.114   5.121   9.176 -0.6400  0.3046 -0.5158
   18SAPC  H10R 2331   3.033   5.131   9.101  0.0277  1.6300 -1.0854
   18SAPC  H10S 2332   3.070   5.076   9.268 -0.5870 -0.6085 -0.9271
   18SAPC  C211 2333   3.230   5.027   9.141 -0.1641 -0.5200  0.0257
   18SAPC  H11R 2334   3.302   5.022   9.225 -1.1267 -1.9232  0.8201
   18SAPC  C212 2335   3.241   4.946   9.037 -0.1780 -0.0681  0.5822
   18SAPC  H12R 2336   3.333   4.884   9.033 -0.3691 -0.3857  0.9920
   18SAPC  C213 2337   3.139   4.955   8.929 -0.2028 -0.2364  0.5926
   18SAPC  H13R 2338   3.041   4.994   8.964 -1.0018 -0.3591 -1.4003
   18SAPC  H13S 2339   3.127   4.853   8.888  2.6820 -0.7246  0.7539
   18SAPC  C214 2340   3.189   5.043   8.817  0.6112 -0.1950  0.2867
   18SAPC  H14R 2341   3.297   5.057   8.804  0.1082  2.5665 -1.7711
   18SAPC  C215 2342   3.113   5.125   8.739 -0.2805 -0.5881  0.3679
   18SAPC  H15R 2343   3.151   5.196   8.664 -2.3789 -0.1632 -0.3734
   18SAPC  C216 2344   2.965   5.146   8.752 -0.2954 -0.1494 -0.4126
   18SAPC  H16R 2345   2.940   5.231   8.684  0.9336  0.2171 -0.4296
   18SAPC  H16S 2346   2.946   5.209   8.842  2.2481  0.8379 -0.4670
   18SAPC  C217 2347   2.866   5.033   8.730 -0.0093  0.1008 -0.5649
   18SAPC  H17R 2348   2.769   5.050   8.781  0.1653  0.4665 -0.3497
   18SAPC  H17S 2349   2.904   4.944   8.786  0.8495  0.8490  0.0657
   18SAPC  C218 2350   2.834   4.996   8.585 -0.1791 -0.0403 -0.0222
   18SAPC  H18R 2351   2.930   4.970   8.535 -0.6458 -0.7412 -0.5825
   18SAPC  H18S 2352   2.784   5.077   8.529  0.6263  0.0821 -0.5833
   18SAPC  C219 2353   2.736   4.875   8.595 -0.2101  0.4565 -1.0120
   18SAPC  H19R 2354   2.669   4.893   8.681  0.3518 -1.2054 -0.1851
   18SAPC  H19S 2355   2.774   4.776   8.626 -0.4857  0.8982  0.8362
   18SAPC  C220 2356   2.645   4.869   8.477  0.1466  0.0464  0.6343
   18SAPC  H20R 2357   2.598   4.969   8.466 -0.7135 -0.2860  1.2080
   18SAPC  H20S 2358   2.556   4.806   8.497  0.4912 -1.5835 -2.3498
   18SAPC  H20T 2359   2.702   4.839   8.386 -1.1314  1.7900 -0.8163
   18SAPC   C33 2360   3.603   5.011   9.908 -0.0104  0.1259  0.0408
   18SAPC   H3X 2361   3.580   4.924   9.973 -1.4960  1.4651  1.4000
   18SAPC   H3Y 2362   3.694   5.065   9.943  0.4043 -0.1389 -0.6194
   18SAPC   C34 2363   3.622   4.972   9.764 -0.0288 -0.6221  0.4079
   18SAPC   H4X 2364   3.716   4.917   9.745  0.7671  1.1703 -1.2116
   18SAPC   H4Y 2365   3.644   5.070   9.716 -2.7443  1.0691  2.2915
   18SAPC   C35 2366   3.495   4.911   9.707  0.2189 -0.0445 -0.0414
   18SAPC   H5X 2367   3.404   4.912   9.771 -0.2102 -1.8365 -0.5590
   18SAPC   H5Y 2368   3.517   4.802   9.697  0.5701  0.0549 -0.3851
   18SAPC   C36 2369   3.457   4.960   9.570 -0.5174 -0.4140  0.2884
   18SAPC   H6X 2370   3.461   5.070   9.586  0.5150 -0.7104  2.2750
   18SAPC   H6Y 2371   3.357   4.934   9.530 -1.6773  2.1517  1.2730
   18SAPC   C37 2372   3.555   4.924   9.452 -0.0093  0.1001 -0.3145
   18SAPC   H7X 2373   3.661   4.936   9.485  0.5906  1.0865 -2.4296
   18SAPC   H7Y 2374   3.535   4.983   9.360 -1.3128 -3.6170 -2.6028
   18SAPC   C38 2375   3.535   4.783   9.405 -0.1210  0.1202  0.1066
   18SAPC   H8X 2376   3.442   4.769   9.346 -0.0886 -1.4747  0.3817
   18SAPC   H8Y 2377   3.526   4.721   9.497 -2.5726 -0.3376 -0.3824
   18SAPC   C39 2378   3.654   4.721   9.320  0.8120 -0.0030 -0.4747
   18SAPC   H9X 2379   3.730   4.698   9.398 -1.6933 -1.9455  1.5836
   18SAPC   H9Y 2380   3.686   4.808   9.259  1.8092  1.0708  1.4732
   18SAPC  C310 2381   3.606   4.595   9.252  0.1564 -1.0685  0.9995
   18SAPC  H10X 2382   3.542   4.533   9.319 -0.3090 -0.1522  1.4069
   18SAPC  H10Y 2383   3.690   4.523   9.238 -0.3722 -1.8694  1.8267
   18SAPC  C311 2384   3.527   4.620   9.120 -0.2212 -0.2143  0.3223
   18SAPC  H11X 2385   3.564   4.720   9.089 -1.4761  0.0610 -0.3612
   18SAPC  H11Y 2386   3.420   4.625   9.148  0.3068  1.9157  2.3414
   18SAPC  C312 2387   3.554   4.521   9.008  0.2742  0.5772  0.2225
   18SAPC  H12X 2388   3.513   4.423   9.041  0.2027  1.3481  2.6271
   18SAPC  H12Y 2389   3.664   4.506   9.009 -0.0189 -2.0779  0.4606
   18SAPC  C313 2390   3.495   4.557   8.872  0.9212 -0.3607 -0.0240
   18SAPC  H13X 2391   3.511   4.666   8.873  0.1602 -0.2367  1.6236
   18SAPC  H13Y 2392   3.389   4.523   8.865  0.8398  0.1175 -1.5067
   18SAPC  C314 2393   3.577   4.492   8.763  0.8897 -0.5721 -0.1226
   18SAPC  H14X 2394   3.547   4.385   8.768 -1.7259  0.1194  0.1464
   18SAPC  H14Y 2395   3.685   4.505   8.786  1.0537 -1.0557 -0.5908
   18SAPC  C315 2396   3.546   4.540   8.618  0.3007  0.2846 -0.7207
   18SAPC  H15X 2397   3.626   4.502   8.551 -0.0973 -1.8913 -0.0572
   18SAPC  H15Y 2398   3.565   4.649   8.625 -0.2656  0.3580 -0.1907
   18SAPC  C316 2399   3.405   4.532   8.553 -0.0876  0.0173 -0.4489
   18SAPC  H16X 2400   3.403   4.596   8.463 -0.1825  0.9790  0.2195
   18SAPC  H16Y 2401   3.331   4.585   8.616  1.6985  1.2228  0.7547
   18SAPC  C317 2402   3.359   4.394   8.514 -0.0090  0.2642 -0.2329
   18SAPC  H17X 2403   3.434   4.325   8.470  0.6608  1.0425 -0.3440
   18SAPC  H17Y 2404   3.286   4.412   8.432 -0.7878 -0.2523  0.3436
   18SAPC  C318 2405   3.286   4.320   8.632 -0.1031 -0.1653 -0.5184
   18SAPC  H18X 2406   3.192   4.274   8.595 -1.2032  1.1352  0.5246
   18SAPC  H18Y 2407   3.264   4.397   8.709 -0.9053  0.1878 -1.0931
   18SAPC  H18Z 2408   3.351   4.248   8.687 -0.4705  0.3176  0.5922
   19SAPC     N 2409   2.263   0.900  11.203  0.4941  0.5471  0.0914
   19SAPC   C12 2410   2.380   0.945  11.111 -0.5404 -0.1764  0.1372
   19SAPC  H12A 2411   2.449   1.004  11.169 -1.5082 -0.8939  2.0991
   19SAPC  H12B 2412   2.344   1.014  11.036  0.9045 -0.0097 -0.4454
   19SAPC   C13 2413   2.148   0.826  11.133 -0.1969  0.4049  0.6460
   19SAPC  H13A 2414   2.111   0.887  11.052  3.5814  2.1759  0.0285
   19SAPC  H13B 2415   2.179   0.725  11.110  1.8065  0.8863  1.0864
   19SAPC  H13C 2416   2.079   0.808  11.214  2.1023 -1.6868  2.2701
   19SAPC   C14 2417   2.313   0.819  11.321 -0.7119  0.4050  0.2965
   19SAPC  H14A 2418   2.231   0.803  11.390 -1.3439  2.4688  0.0943
   19SAPC  H14B 2419   2.350   0.726  11.281 -0.6141 -0.0327  1.3562
   19SAPC  H14C 2420   2.385   0.875  11.379 -0.8768  0.2962  0.6149
   19SAPC   C15 2421   2.200   1.016  11.266 -0.4133 -0.0701 -0.2354
   19SAPC  H15A 2422   2.117   0.989  11.329  0.3659  0.9695  1.2967
   19SAPC  H15B 2423   2.269   1.075  11.324  2.2679 -0.6724 -2.5709
   19SAPC  H15C 2424   2.161   1.084  11.192 -0.6360 -0.1128 -0.1558
   19SAPC   C11 2425   2.468   0.832  11.040  0.6625  0.6368  0.7582
   19SAPC  H11A 2426   2.476   0.747  11.111 -0.2211 -0.7594 -0.7452
   19SAPC  H11B 2427   2.575   0.857  11.020  2.0897 -5.2796 -0.8749
   19SAPC     P 2428   2.403   0.879  10.794  0.2302 -0.1762  0.0021
   19SAPC   O13 2429   2.342   1.010  10.815 -0.1254 -0.3766 -0.0516
   19SAPC   O14 2430   2.540   0.879  10.745  0.8882 -0.3215  0.6786
   19SAPC   O12 2431   2.397   0.782  10.919 -0.6372  0.2072 -0.0596
   19SAPC   O11 2432   2.310   0.812  10.689 -0.0399  0.3461  0.2251
   19SAPC    C1 2433   2.320   0.679  10.657  0.0275  0.2647  0.2799
   19SAPC    HA 2434   2.334   0.609  10.742  2.0603 -1.1405 -1.1191
   19SAPC    HB 2435   2.227   0.659  10.600 -0.3412  2.4296  0.0356
   19SAPC    C2 2436   2.430   0.645  10.556 -0.4263 -0.0435 -0.1289
   19SAPC    HS 2437   2.532   0.666  10.595 -1.0664  3.2909  0.0770
   19SAPC   O21 2438   2.404   0.713  10.429  0.2205 -0.0176  0.9154
   19SAPC   C21 2439   2.515   0.722  10.353  1.2124  0.0314  0.4679
   19SAPC   O22 2440   2.627   0.685  10.379 -0.5639 -0.3266 -0.6653
   19SAPC   C22 2441   2.477   0.803  10.225  0.4507 -0.4998 -0.2089
   19SAPC   H2R 2442   2.369   0.828  10.239  0.7632 -0.4345  3.0144
   19SAPC   H2S 2443   2.533   0.899  10.232  1.1346 -0.8547 -0.7636
   19SAPC    C3 2444   2.436   0.495  10.527  0.3157  1.3296 -0.3130
   19SAPC    HX 2445   2.463   0.442  10.621 -1.4342 -2.3040 -1.7132
   19SAPC    HY 2446   2.521   0.473  10.458  2.4932 -1.1348  2.8295
   19SAPC   O31 2447   2.304   0.439  10.490  0.0391 -0.5018  0.0885
   19SAPC   C31 2448   2.294   0.420  10.355 -0.5090  0.5199  0.1838
   19SAPC   O32 2449   2.381   0.450  10.277  0.1562  0.1885  0.4044
   19SAPC   C32 2450   2.155   0.371  10.320 -0.6406 -0.6309  0.8364
   19SAPC   H2X 2451   2.119   0.335  10.419 -0.6919 -0.0436  1.0346
   19SAPC   H2Y 2452   2.161   0.278  10.261 -0.8087  0.9406 -1.8021
   19SAPC   C23 2453   2.490   0.723  10.092  0.0602 -0.0067  0.5603
   19SAPC   H3R 2454   2.447   0.622  10.108  0.2930 -0.4117 -1.2206
   19SAPC   H3S 2455   2.595   0.722  10.057 -0.1894  0.0271 -0.2083
   19SAPC   C24 2456   2.403   0.767   9.965 -0.2099 -0.2511 -0.4720
   19SAPC   H4R 2457   2.296   0.766   9.997 -0.6980  0.0548 -2.0457
   19SAPC   H4S 2458   2.421   0.687   9.890  1.8544  1.7513 -2.2456
   19SAPC   C25 2459   2.450   0.905   9.918 -0.3735  0.8657  0.1956
   19SAPC   H5R 2460   2.451   0.989   9.989  0.9814  2.5012 -1.6529
   19SAPC   C26 2461   2.513   0.928   9.801 -0.2019  0.5109  0.1165
   19SAPC   H6R 2462   2.535   1.032   9.770  0.0290  1.2669  2.5551
   19SAPC   C27 2463   2.533   0.820   9.691 -0.2469  0.4619  0.2391
   19SAPC   H7R 2464   2.449   0.817   9.619  0.0127 -2.3818 -0.0672
   19SAPC   H7S 2465   2.540   0.719   9.737 -1.3363 -1.1428 -2.8123
   19SAPC   C28 2466   2.661   0.850   9.624  0.4188  0.3169  0.6012
   19SAPC   H8R 2467   2.754   0.827   9.678  1.6920 -0.8503 -1.9172
   19SAPC   C29 2468   2.670   0.908   9.503 -0.1698 -0.4221 -0.4168
   19SAPC   H9R 2469   2.771   0.935   9.469  0.3984 -1.5907  0.2902
   19SAPC  C210 2470   2.555   0.941   9.421  0.5761 -0.3003  0.4858
   19SAPC  H10R 2471   2.472   0.868   9.432 -0.7971  1.2026  0.3783
   19SAPC  H10S 2472   2.590   0.946   9.316 -0.2738  0.6376  0.2291
   19SAPC  C211 2473   2.508   1.083   9.460  0.5354  0.3109 -0.4827
   19SAPC  H11R 2474   2.504   1.109   9.566 -0.1554  2.5358 -1.0121
   19SAPC  C212 2475   2.469   1.180   9.377  0.0015 -0.2361 -0.2918
   19SAPC  H12R 2476   2.432   1.271   9.428  3.3811  1.3442 -0.3959
   19SAPC  C213 2477   2.469   1.184   9.230 -0.0261  0.5381  0.0304
   19SAPC  H13R 2478   2.382   1.233   9.181 -0.0453 -0.9439 -1.5351
   19SAPC  H13S 2479   2.451   1.078   9.199  0.9516  0.5239 -0.5228
   19SAPC  C214 2480   2.594   1.235   9.171  0.6046  0.4939 -0.2862
   19SAPC  H14R 2481   2.675   1.258   9.241 -0.0244 -1.4568  1.1626
   19SAPC  C215 2482   2.607   1.268   9.039  0.4206  0.4994 -0.4048
   19SAPC  H15R 2483   2.707   1.282   8.997  1.1770  0.2723  1.2406
   19SAPC  C216 2484   2.495   1.244   8.943 -0.4975  0.1249  0.8604
   19SAPC  H16R 2485   2.402   1.194   8.978  0.4398 -1.5441  1.0825
   19SAPC  H16S 2486   2.531   1.173   8.866 -1.9361 -1.8380  1.9008
   19SAPC  C217 2487   2.472   1.379   8.879  0.1022  0.7031  0.3520
   19SAPC  H17R 2488   2.557   1.432   8.832  1.8527 -1.3747  1.0129
   19SAPC  H17S 2489   2.419   1.454   8.941 -0.5819  1.3742 -1.0054
   19SAPC  C218 2490   2.380   1.351   8.750  0.3971 -0.1763 -0.8829
   19SAPC  H18R 2491   2.281   1.312   8.779  0.6051 -0.2453 -0.2444
   19SAPC  H18S 2492   2.435   1.279   8.685  3.1516  1.8769 -1.0223
   19SAPC  C219 2493   2.357   1.475   8.663 -0.4265 -0.2241 -0.1905
   19SAPC  H19R 2494   2.460   1.501   8.631 -0.5293 -0.4745 -0.7228
   19SAPC  H19S 2495   2.315   1.555   8.728  0.2251  0.9013 -1.1100
   19SAPC  C220 2496   2.269   1.438   8.546  0.2372 -0.1004 -0.8369
   19SAPC  H20R 2497   2.320   1.356   8.491 -0.0273 -0.4640 -0.5401
   19SAPC  H20S 2498   2.259   1.532   8.487  1.8492  1.2682  0.9672
   19SAPC  H20T 2499   2.169   1.407   8.583  0.4763  0.0852 -0.0213
   19SAPC   C33 2500   2.061   0.466  10.238 -0.3704  0.4357  0.1994
   19SAPC   H3X 2501   2.058   0.563  10.294  1.4433  1.4901 -1.4162
   19SAPC   H3Y 2502   1.957   0.428  10.224  0.2601 -0.9103 -1.0032
   19SAPC   C34 2503   2.121   0.517  10.106 -0.0774  0.3673 -0.3361
   19SAPC   H4X 2504   2.217   0.561  10.140  0.1753  0.0706 -0.6641
   19SAPC   H4Y 2505   2.058   0.597  10.062 -1.8412 -0.9178 -0.2631
   19SAPC   C35 2506   2.137   0.404  10.001  0.0091 -0.7442 -0.0518
   19SAPC   H5X 2507   2.041   0.380   9.950  0.1233 -2.3703  0.4348
   19SAPC   H5Y 2508   2.182   0.310  10.040  1.9301  0.3468  0.4944
   19SAPC   C36 2509   2.231   0.447   9.889  0.9239 -0.6008  0.6656
   19SAPC   H6X 2510   2.334   0.418   9.920  1.6262  0.3303 -0.6690
   19SAPC   H6Y 2511   2.230   0.555   9.863 -1.3710 -1.3170 -3.0878
   19SAPC   C37 2512   2.207   0.379   9.753  0.6761  0.0045 -0.3818
   19SAPC   H7X 2513   2.103   0.400   9.720  0.8300  1.6251  0.0708
   19SAPC   H7Y 2514   2.202   0.269   9.770 -1.9224  0.5130  3.3791
   19SAPC   C38 2515   2.303   0.427   9.638 -0.4868 -0.3258  0.5882
   19SAPC   H8X 2516   2.405   0.393   9.669  0.6315  1.2436 -1.1381
   19SAPC   H8Y 2517   2.291   0.537   9.646 -1.8105 -0.1261 -2.5810
   19SAPC   C39 2518   2.263   0.409   9.498  0.5485 -0.2628  0.2814
   19SAPC   H9X 2519   2.311   0.488   9.436 -2.0122  1.5921  0.4970
   19SAPC   H9Y 2520   2.155   0.434   9.489 -0.0934 -1.9730  2.3557
   19SAPC  C310 2521   2.299   0.272   9.444  0.5694  0.4416 -0.2547
   19SAPC  H10X 2522   2.228   0.197   9.485  0.2561  1.3536  0.9099
   19SAPC  H10Y 2523   2.401   0.247   9.478  0.6274  0.3551 -0.4918
   19SAPC  C311 2524   2.294   0.262   9.287 -0.1972 -0.4908 -0.0025
   19SAPC  H11X 2525   2.333   0.160   9.267  0.0038 -0.4454  0.1527
   19SAPC  H11Y 2526   2.358   0.338   9.238  0.5780 -1.3692 -0.3871
   19SAPC  C312 2527   2.159   0.273   9.218  0.0515 -0.0559 -0.1530
   19SAPC  H12X 2528   2.123   0.378   9.222  0.0339 -0.0349 -0.7324
   19SAPC  H12Y 2529   2.085   0.218   9.280  0.1832 -0.3891 -0.2878
   19SAPC  C313 2530   2.166   0.234   9.070  0.9155  0.6210  0.5145
   19SAPC  H13X 2531   2.210   0.134   9.053  0.6578  0.5935 -0.0267
   19SAPC  H13Y 2532   2.233   0.303   9.015  2.0424 -2.7796 -2.8535
   19SAPC  C314 2533   2.022   0.227   9.003 -0.7549  0.8483  0.1075
   19SAPC  H14X 2534   1.990   0.331   9.024  0.0132  1.3027 -0.8439
   19SAPC  H14Y 2535   1.951   0.170   9.066 -0.9599 -0.3175 -1.1385
   19SAPC  C315 2536   2.019   0.191   8.850  0.6559 -0.0283 -0.1404
   19SAPC  H15X 2537   2.068   0.092   8.835 -2.5030 -1.6220 -0.7780
   19SAPC  H15Y 2538   2.063   0.268   8.784 -0.0348 -0.3939 -1.0522
   19SAPC  C316 2539   1.873   0.175   8.808 -0.4281  0.1922 -0.1305
   19SAPC  H16X 2540   1.869   0.198   8.700  0.2223  1.6236  0.1264
   19SAPC  H16Y 2541   1.814   0.252   8.860  1.2247  0.9673  0.6850
   19SAPC  C317 2542   1.821   0.036   8.842 -0.2514  0.1180 -0.0843
   19SAPC  H17X 2543   1.815   0.017   8.951 -0.3388  0.8099  0.0325
   19SAPC  H17Y 2544   1.899  -0.029   8.796  0.5833  2.9351 -2.9483
   19SAPC  C318 2545   1.680   0.008   8.796 -0.1301  0.3155 -0.3302
   19SAPC  H18X 2546   1.618   0.094   8.830  2.5171  1.5729  1.6447
   19SAPC  H18Y 2547   1.641  -0.086   8.841  0.9790  0.0791  0.1692
   19SAPC  H18Z 2548   1.674   0.009   8.685  2.1955  2.1004 -0.5070
   20SAPC     N 2549   1.936   4.093  11.203  0.1061 -0.3535 -0.6386
   20SAPC   C12 2550   1.983   4.213  11.126  0.0751 -1.0363  0.2506
   20SAPC  H12A 2551   2.058   4.263  11.185  0.0891  0.5048 -1.0118
   20SAPC  H12B 2552   1.897   4.278  11.126  0.5552 -0.2945  2.8873
   20SAPC   C13 2553   2.051   4.004  11.252  0.1085  0.1990  0.2090
   20SAPC  H13A 2554   2.129   4.060  11.302  0.7898 -0.1359 -0.4650
   20SAPC  H13B 2555   2.010   3.927  11.315  0.4151  0.3707  0.6256
   20SAPC  H13C 2556   2.088   3.958  11.162 -0.2545  0.4567 -0.0742
   20SAPC   C14 2557   1.869   4.157  11.325  0.0266 -0.0393  0.5477
   20SAPC  H14A 2558   1.939   4.218  11.381  0.4308 -0.6326  0.6989
   20SAPC  H14B 2559   1.784   4.222  11.311  0.1904  0.0859  0.1295
   20SAPC  H14C 2560   1.837   4.077  11.391 -1.1717 -1.2248 -1.3664
   20SAPC   C15 2561   1.834   4.017  11.135 -0.7573  0.0527  0.1474
   20SAPC  H15A 2562   1.747   4.075  11.108 -0.8418  0.3819  1.0740
   20SAPC  H15B 2563   1.880   3.973  11.048  0.7090 -1.4183  1.5709
   20SAPC  H15C 2564   1.802   3.930  11.191  2.4070 -1.9016 -0.8603
   20SAPC   C11 2565   2.045   4.190  10.986 -0.5938 -0.0137  0.3905
   20SAPC  H11A 2566   2.061   4.289  10.938 -0.3187 -0.2124  0.0636
   20SAPC  H11B 2567   1.978   4.140  10.914 -0.9641  2.5942 -1.2109
   20SAPC     P 2568   2.306   4.199  10.989  0.2624 -0.2512  0.5199
   20SAPC   O13 2569   2.302   4.322  11.067 -0.3121  0.4726 -0.2551
   20SAPC   O14 2570   2.424   4.113  11.017 -0.2248 -0.0945 -0.2217
   20SAPC   O12 2571   2.170   4.120  11.002  0.1164  0.0569 -0.6359
   20SAPC   O11 2572   2.314   4.231  10.827 -0.5135 -0.3384 -0.2138
   20SAPC    C1 2573   2.261   4.353  10.768 -0.4113  0.5518  0.2569
   20SAPC    HA 2574   2.198   4.413  10.837 -0.8814  0.7020 -0.2911
   20SAPC    HB 2575   2.339   4.418  10.721 -0.3040  0.3511  0.1545
   20SAPC    C2 2576   2.163   4.305  10.651 -0.8914 -0.9518  0.3145
   20SAPC    HS 2577   2.073   4.263  10.700 -1.0148  0.0136  0.9614
   20SAPC   O21 2578   2.233   4.206  10.566 -0.0400 -0.4042  0.2910
   20SAPC   C21 2579   2.170   4.154  10.465  0.4046 -0.6236  0.5313
   20SAPC   O22 2580   2.056   4.179  10.428 -0.0308  0.3408 -0.2428
   20SAPC   C22 2581   2.267   4.063  10.386  0.4594  0.3455 -0.2764
   20SAPC   H2R 2582   2.258   3.966  10.440 -2.1712  0.5697 -0.1730
   20SAPC   H2S 2583   2.232   4.062  10.280 -1.2134  1.6011  0.2093
   20SAPC    C3 2584   2.117   4.428  10.564  0.5345  0.5454 -0.6369
   20SAPC    HX 2585   2.070   4.499  10.634 -1.3613 -1.9537  0.8007
   20SAPC    HY 2586   2.037   4.404  10.490  0.7314  0.5048 -0.8378
   20SAPC   O31 2587   2.235   4.486  10.502  0.2696  0.2611 -0.5373
   20SAPC   C31 2588   2.213   4.550  10.387 -0.3983  0.2219 -0.2509
   20SAPC   O32 2589   2.103   4.601  10.357 -0.5675  0.1597  0.0214
   20SAPC   C32 2590   2.340   4.550  10.303  0.6788 -0.3960 -0.5662
   20SAPC   H2X 2591   2.412   4.480  10.351 -1.9889 -1.9525  1.4285
   20SAPC   H2Y 2592   2.382   4.651  10.320 -1.9104  0.7474 -0.4442
   20SAPC   C23 2593   2.408   4.115  10.394 -0.3955  0.4136 -0.5001
   20SAPC   H3R 2594   2.451   4.107  10.496 -2.4731 -0.4222  0.3699
   20SAPC   H3S 2595   2.420   4.220  10.360  2.5538  0.1852 -0.4122
   20SAPC   C24 2596   2.512   4.051  10.296 -0.0508  0.0267 -0.1082
   20SAPC   H4R 2597   2.603   4.093  10.344  0.6235 -2.0145  0.5161
   20SAPC   H4S 2598   2.490   4.104  10.201 -2.6769 -1.7579 -0.6084
   20SAPC   C25 2599   2.515   3.904  10.287  0.2962  0.4834  0.4683
   20SAPC   H5R 2600   2.523   3.848  10.382 -0.0595  2.6582  1.8582
   20SAPC   C26 2601   2.516   3.834  10.173  0.3538  0.4152  0.1064
   20SAPC   H6R 2602   2.509   3.725  10.187 -0.7704  0.5547  0.7728
   20SAPC   C27 2603   2.516   3.885  10.028 -0.4947  0.0350  0.2915
   20SAPC   H7R 2604   2.626   3.884  10.010 -0.0982  0.1931  2.3921
   20SAPC   H7S 2605   2.497   3.993  10.014  1.8662  0.6004  1.0068
   20SAPC   C28 2606   2.435   3.807   9.926 -0.1371  0.6753 -0.2297
   20SAPC   H8R 2607   2.330   3.798   9.956  0.4998  0.0899  2.0234
   20SAPC   C29 2608   2.483   3.742   9.816 -0.1700  0.4607  0.0431
   20SAPC   H9R 2609   2.411   3.693   9.748  1.1010  0.4954 -1.3920
   20SAPC  C210 2610   2.621   3.737   9.762 -0.3035  0.4918 -0.1328
   20SAPC  H10R 2611   2.681   3.822   9.801  1.1210 -0.3329 -0.4496
   20SAPC  H10S 2612   2.617   3.767   9.655  0.2541 -0.9449 -0.5790
   20SAPC  C211 2613   2.701   3.603   9.770  0.8316 -0.2610  0.3378
   20SAPC  H11R 2614   2.688   3.544   9.862 -0.3507  1.0989  1.1002
   20SAPC  C212 2615   2.792   3.566   9.682  0.3604  0.6384  0.0176
   20SAPC  H12R 2616   2.852   3.475   9.697  0.5622  0.7761  0.0487
   20SAPC  C213 2617   2.846   3.636   9.561 -0.0170 -0.0456  0.3459
   20SAPC  H13R 2618   2.952   3.670   9.565 -0.1790  0.5742 -0.4515
   20SAPC  H13S 2619   2.799   3.737   9.554  1.0918  0.5954  1.7072
   20SAPC  C214 2620   2.823   3.545   9.440 -0.6712 -0.1455 -0.6943
   20SAPC  H14R 2621   2.863   3.443   9.452 -0.9277  0.0431  2.8101
   20SAPC  C215 2622   2.777   3.583   9.323 -0.7863  0.7144  0.0422
   20SAPC  H15R 2623   2.746   3.508   9.249  1.8879  0.5760 -1.0724
   20SAPC  C216 2624   2.746   3.726   9.285  0.0731  0.8224 -0.2126
   20SAPC  H16R 2625   2.846   3.768   9.261 -0.7000  1.9354 -1.6723
   20SAPC  H16S 2626   2.715   3.788   9.372  1.3708  1.2566 -0.0406
   20SAPC  C217 2627   2.645   3.752   9.166  0.0905  0.1731 -0.0286
   20SAPC  H17R 2628   2.616   3.858   9.159 -0.1372  0.0015 -2.7382
   20SAPC  H17S 2629   2.552   3.696   9.193  0.7340  0.3297  2.8930
   20SAPC  C218 2630   2.694   3.715   9.023  0.4367  0.6776  0.1726
   20SAPC  H18R 2631   2.781   3.648   9.040 -0.9473 -1.3197 -0.2475
   20SAPC  H18S 2632   2.725   3.813   8.982  0.4867 -0.1179 -1.8155
   20SAPC  C219 2633   2.598   3.629   8.932  0.4106  0.1084 -0.1914
   20SAPC  H19R 2634   2.502   3.685   8.937 -0.2541 -1.0643  0.5249
   20SAPC  H19S 2635   2.575   3.535   8.985 -0.0074  1.5816  2.3792
   20SAPC  C220 2636   2.637   3.616   8.783  0.2156 -1.0538 -0.1824
   20SAPC  H20R 2637   2.564   3.556   8.724 -2.0956  2.4890 -1.2251
   20SAPC  H20S 2638   2.741   3.576   8.777 -0.0094 -2.0947  1.9544
   20SAPC  H20T 2639   2.648   3.715   8.733 -0.2854  0.2632  2.1877
   20SAPC   C33 2640   2.314   4.524  10.162  0.4781  0.2367  0.0914
   20SAPC   H3X 2641   2.405   4.563  10.112  0.5328  1.1130  0.8526
   20SAPC   H3Y 2642   2.233   4.585  10.117  1.2352 -1.1638 -3.5067
   20SAPC   C34 2643   2.298   4.378  10.115  0.3141 -0.2584 -0.4487
   20SAPC   H4X 2644   2.217   4.326  10.170  2.5158 -1.3645  1.9002
   20SAPC   H4Y 2645   2.396   4.328  10.125  0.2411 -0.0805  1.3915
   20SAPC   C35 2646   2.254   4.366   9.973 -0.3787  0.0115  0.6874
   20SAPC   H5X 2647   2.315   4.437   9.913 -1.0724 -0.6510 -0.8638
   20SAPC   H5Y 2648   2.149   4.399   9.959 -0.3667 -0.3688 -0.3657
   20SAPC   C36 2649   2.278   4.228   9.915 -0.1639  1.1118  0.0801
   20SAPC   H6X 2650   2.202   4.155   9.950 -0.5176  1.0674 -0.7631
   20SAPC   H6Y 2651   2.374   4.184   9.950  0.8338  3.3898  0.3558
   20SAPC   C37 2652   2.272   4.217   9.756  0.1781 -0.0770  0.1935
   20SAPC   H7X 2653   2.342   4.292   9.713 -0.4647 -0.4508 -1.5526
   20SAPC   H7Y 2654   2.167   4.240   9.726  0.2245 -1.4068 -1.0641
   20SAPC   C38 2655   2.312   4.087   9.701  0.1062  0.2577  0.7420
   20SAPC   H8X 2656   2.238   4.006   9.720 -0.0648  0.5076  1.1590
   20SAPC   H8Y 2657   2.416   4.066   9.734  0.6514  0.9682 -0.4663
   20SAPC   C39 2658   2.321   4.094   9.548 -0.2018  0.7128 -0.7851
   20SAPC   H9X 2659   2.398   4.159   9.501  0.5100 -0.6366 -1.5600
   20SAPC   H9Y 2660   2.224   4.131   9.510  0.0880 -0.0055 -2.2981
   20SAPC  C310 2661   2.349   3.954   9.492 -0.0033 -0.2169 -0.6883
   20SAPC  H10X 2662   2.256   3.893   9.491 -0.6468  0.6115  1.9976
   20SAPC  H10Y 2663   2.426   3.903   9.554 -1.4550 -0.4645  0.9932
   20SAPC  C311 2664   2.393   3.958   9.345  0.2152 -0.0836  0.0678
   20SAPC  H11X 2665   2.406   3.856   9.302 -1.0577 -0.5493  0.7272
   20SAPC  H11Y 2666   2.493   4.006   9.339 -0.5304  1.8713  2.0699
   20SAPC  C312 2667   2.296   4.031   9.255 -0.0950  0.2362 -0.0581
   20SAPC  H12X 2668   2.278   4.137   9.282  1.7646  0.6237 -0.1610
   20SAPC  H12Y 2669   2.196   3.983   9.256 -0.5262  1.1149 -0.5125
   20SAPC  C313 2670   2.358   4.036   9.108 -0.3077 -0.7724  0.2458
   20SAPC  H13X 2671   2.389   3.933   9.081  0.6738 -0.5265  0.3872
   20SAPC  H13Y 2672   2.462   4.074   9.116 -0.0407 -1.7877  2.3183
   20SAPC  C314 2673   2.273   4.112   9.007  0.2725 -0.2039  1.0471
   20SAPC  H14X 2674   2.241   4.214   9.034 -0.4071 -0.0228 -0.3379
   20SAPC  H14Y 2675   2.178   4.054   9.002  0.5722 -0.6303 -0.6180
   20SAPC  C315 2676   2.344   4.119   8.871  0.6415 -0.1335 -0.1862
   20SAPC  H15X 2677   2.422   4.199   8.867  0.1390  0.3684 -0.1233
   20SAPC  H15Y 2678   2.270   4.168   8.803  2.4451  0.9105 -1.4910
   20SAPC  C316 2679   2.417   3.996   8.825 -0.9333  0.0288 -0.2852
   20SAPC  H16X 2680   2.340   3.917   8.834  0.0731 -0.8741  0.7619
   20SAPC  H16Y 2681   2.497   3.967   8.897 -2.8009 -0.9062  1.5012
   20SAPC  C317 2682   2.484   3.999   8.688  0.5014 -0.1617 -0.1628
   20SAPC  H17X 2683   2.404   4.024   8.614  2.0071  2.6117 -0.9756
   20SAPC  H17Y 2684   2.524   3.896   8.671 -0.3606 -0.7570  1.2417
   20SAPC  C318 2685   2.592   4.112   8.677  0.3896  0.4027  0.8772
   20SAPC  H18X 2686   2.641   4.085   8.581  0.0436 -0.6672  0.9805
   20SAPC  H18Y 2687   2.677   4.103   8.748  3.4471  0.9279 -2.4089
   20SAPC  H18Z 2688   2.552   4.215   8.675  0.3754  0.4086  1.4121
   21SAPC     N 2689   1.259   2.525  11.186 -0.5197  0.2824  0.1475
   21SAPC   C12 2690   1.334   2.452  11.069  0.4482  0.8279 -0.3016
   21SAPC  H12A 2691   1.357   2.348  11.090  1.7559  1.5299  2.1996
   21SAPC  H12B 2692   1.429   2.503  11.064  0.0784  1.5635  0.1004
   21SAPC   C13 2693   1.333   2.512  11.311  0.3339 -0.0657 -0.3078
   21SAPC  H13A 2694   1.354   2.415  11.353  3.1084  1.7743  3.1478
   21SAPC  H13B 2695   1.431   2.556  11.299  0.6016 -1.1746 -2.6444
   21SAPC  H13C 2696   1.281   2.559  11.393  1.2008 -1.9282  1.4087
   21SAPC   C14 2697   1.248   2.676  11.156 -0.0494 -0.6768 -0.2266
   21SAPC  H14A 2698   1.182   2.683  11.071  1.9897 -2.3260 -2.0527
   21SAPC  H14B 2699   1.202   2.734  11.234 -0.2551  0.6236 -1.2959
   21SAPC  H14C 2700   1.342   2.718  11.125  0.3322 -0.3057  1.3505
   21SAPC   C15 2701   1.126   2.473  11.212  0.8194  0.6608 -0.2163
   21SAPC  H15A 2702   1.064   2.472  11.124  0.8642  1.5631 -0.2736
   21SAPC  H15B 2703   1.135   2.374  11.253  0.1335  0.5629 -0.2945
   21SAPC  H15C 2704   1.071   2.536  11.280  1.9016  0.4154  0.9191
   21SAPC   C11 2705   1.284   2.456  10.926  0.7924  0.4519  0.2601
   21SAPC  H11A 2706   1.191   2.396  10.934 -0.5887  2.4600 -0.2154
   21SAPC  H11B 2707   1.364   2.408  10.864  1.8383  1.3310  0.8922
   21SAPC     P 2708   1.348   2.671  10.797 -0.0394  0.1659 -0.1553
   21SAPC   O13 2709   1.290   2.804  10.765 -0.1342 -0.6596  0.6348
   21SAPC   O14 2710   1.478   2.659  10.869  0.4840  0.6097 -0.3672
   21SAPC   O12 2711   1.247   2.589  10.884  0.2364  0.1675  0.3631
   21SAPC   O11 2712   1.358   2.581  10.670 -0.1638  0.3737 -0.1623
   21SAPC    C1 2713   1.246   2.561  10.581 -0.2450  0.4210  0.1388
   21SAPC    HA 2714   1.150   2.582  10.633  0.0537  0.6670  0.5948
   21SAPC    HB 2715   1.251   2.613  10.483  1.6958 -0.8450 -0.5013
   21SAPC    C2 2716   1.236   2.408  10.551  0.3783  0.1965 -0.1563
   21SAPC    HS 2717   1.213   2.353  10.645  1.2009  0.9168  0.4758
   21SAPC   O21 2718   1.368   2.374  10.499  0.0612 -0.6176 -0.3822
   21SAPC   C21 2719   1.393   2.247  10.507 -0.6918 -0.1402 -0.0732
   21SAPC   O22 2720   1.333   2.167  10.583 -1.4285 -0.2675  0.2609
   21SAPC   C22 2721   1.508   2.226  10.414 -0.2465 -0.7311  0.9491
   21SAPC   H2R 2722   1.549   2.323  10.376  0.4477 -1.6581 -0.7935
   21SAPC   H2S 2723   1.590   2.190  10.478  1.6375 -0.6370 -1.2965
   21SAPC    C3 2724   1.120   2.386  10.443  0.6751  0.6886  0.7838
   21SAPC    HX 2725   1.143   2.455  10.358 -2.6478  1.4360  0.3631
   21SAPC    HY 2726   1.024   2.423  10.485  1.0252  1.5647  0.8518
   21SAPC   O31 2727   1.112   2.253  10.394 -0.0994 -0.1793 -0.4312
   21SAPC   C31 2728   1.025   2.165  10.458  0.3087  0.1470 -0.0534
   21SAPC   O32 2729   0.964   2.183  10.558 -0.5342 -0.4562 -0.1222
   21SAPC   C32 2730   1.032   2.024  10.383  0.1269  0.2147 -0.2787
   21SAPC   H2X 2731   1.101   1.965  10.447  0.9234  1.7251  0.3021
   21SAPC   H2Y 2732   1.075   2.045  10.283 -1.7014 -3.6265 -2.0645
   21SAPC   C23 2733   1.477   2.138  10.289  0.5537 -0.1888 -0.7956
   21SAPC   H3R 2734   1.414   2.052  10.317  2.2167 -1.3445 -0.4676
   21SAPC   H3S 2735   1.579   2.102  10.262  0.7685 -0.5530  0.4286
   21SAPC   C24 2736   1.428   2.226  10.168 -0.8334  0.7144 -0.4122
   21SAPC   H4R 2737   1.518   2.290  10.154  0.1810 -0.8311 -1.2717
   21SAPC   H4S 2738   1.341   2.281  10.210 -1.7419 -0.6514 -0.4223
   21SAPC   C25 2739   1.391   2.138  10.050  0.3854 -0.0165 -0.1206
   21SAPC   H5R 2740   1.468   2.064  10.025  1.4336  0.6416  1.0345
   21SAPC   C26 2741   1.276   2.144   9.981  0.6079  0.5116  0.6002
   21SAPC   H6R 2742   1.260   2.072   9.899  2.4875  2.9847 -2.1457
   21SAPC   C27 2743   1.168   2.246  10.003 -0.2794  0.5759  0.2151
   21SAPC   H7R 2744   1.128   2.226  10.104  1.9673  2.0063  1.4668
   21SAPC   H7S 2745   1.086   2.220   9.932 -1.4614  1.1993  1.3267
   21SAPC   C28 2746   1.207   2.394   9.991 -0.2761  0.4011  0.4688
   21SAPC   H8R 2747   1.246   2.443  10.082 -1.6896  1.9012  0.2968
   21SAPC   C29 2748   1.203   2.468   9.875  0.0003  0.8352  0.7932
   21SAPC   H9R 2749   1.230   2.575   9.870 -0.1440  0.8095 -1.8955
   21SAPC  C210 2750   1.163   2.419   9.743  0.9525 -0.2811 -0.3631
   21SAPC  H10R 2751   1.088   2.496   9.715 -0.9800 -1.9712 -0.1228
   21SAPC  H10S 2752   1.113   2.320   9.743  1.6262 -0.6288 -0.0932
   21SAPC  C211 2753   1.265   2.422   9.628  0.5239  0.1498 -0.7942
   21SAPC  H11R 2754   1.367   2.395   9.658  0.6467  0.2033 -1.1644
   21SAPC  C212 2755   1.234   2.445   9.502  0.1372 -0.5867 -0.0358
   21SAPC  H12R 2756   1.325   2.436   9.441  1.0382  1.6016  0.8658
   21SAPC  C213 2757   1.101   2.459   9.435 -0.1385  0.6490 -0.4849
   21SAPC  H13R 2758   1.083   2.556   9.384 -1.4152 -0.1776 -1.6549
   21SAPC  H13S 2759   1.030   2.465   9.520  2.6020 -0.0162  2.0237
   21SAPC  C214 2760   1.066   2.336   9.354 -0.0114  0.2540  0.3804
   21SAPC  H14R 2761   1.043   2.252   9.421 -1.6734 -0.1991 -0.7106
   21SAPC  C215 2762   1.084   2.308   9.229  0.2785  0.2918 -0.0878
   21SAPC  H15R 2763   1.041   2.212   9.197  0.6693  0.2310 -0.4461
   21SAPC  C216 2764   1.151   2.401   9.130 -0.7250 -0.8068  0.3610
   21SAPC  H16R 2765   1.244   2.358   9.087 -1.1852 -1.0430 -0.4257
   21SAPC  H16S 2766   1.187   2.502   9.160 -2.5563 -0.0765  0.2802
   21SAPC  C217 2767   1.055   2.415   9.009 -0.3651  0.4983 -0.3099
   21SAPC  H17R 2768   0.970   2.471   9.054 -0.6863 -2.6080  3.4625
   21SAPC  H17S 2769   1.028   2.315   8.970  0.0174  0.0931  0.4444
   21SAPC  C218 2770   1.123   2.499   8.890  0.0805  0.5556 -1.0501
   21SAPC  H18R 2771   1.217   2.443   8.873  0.3823  0.4029  0.9385
   21SAPC  H18S 2772   1.145   2.603   8.922 -2.3871  0.3713  1.6689
   21SAPC  C219 2773   1.033   2.516   8.767 -0.3217 -0.1485  0.1298
   21SAPC  H19R 2774   1.023   2.417   8.718 -1.2131 -0.0465  0.1034
   21SAPC  H19S 2775   1.101   2.579   8.705 -0.0903 -0.7703 -0.2523
   21SAPC  C220 2776   0.902   2.587   8.792  0.0482 -0.4603  0.1124
   21SAPC  H20R 2777   0.861   2.634   8.700 -0.9261  0.4204  0.9796
   21SAPC  H20S 2778   0.914   2.672   8.862 -1.1763  1.4223 -1.8524
   21SAPC  H20T 2779   0.823   2.530   8.846 -0.6099 -0.1343 -0.4879
   21SAPC   C33 2780   0.897   1.964  10.354  0.0754  0.0445 -0.2039
   21SAPC   H3X 2781   0.824   2.036  10.309  0.0221  0.2778  0.2471
   21SAPC   H3Y 2782   0.865   1.932  10.456  1.5491  1.2039  0.6715
   21SAPC   C34 2783   0.913   1.849  10.250  0.1101  0.1011 -0.6651
   21SAPC   H4X 2784   0.984   1.770  10.283 -1.1029 -0.3538  1.0326
   21SAPC   H4Y 2785   0.950   1.886  10.152  1.6468 -3.0348 -1.4025
   21SAPC   C35 2786   0.779   1.768  10.234 -0.0504  0.2438 -0.2161
   21SAPC   H5X 2787   0.698   1.834  10.196 -0.4968 -1.6448 -2.8020
   21SAPC   H5Y 2788   0.739   1.736  10.332 -4.9377 -0.6889 -2.1871
   21SAPC   C36 2789   0.789   1.641  10.143 -0.2644  0.0705  0.1498
   21SAPC   H6X 2790   0.686   1.601  10.150 -0.8881  1.8606  2.2664
   21SAPC   H6Y 2791   0.869   1.569  10.171  0.9387  1.4938  0.5533
   21SAPC   C37 2792   0.815   1.676   9.996  0.2902  0.2746  0.0169
   21SAPC   H7X 2793   0.910   1.730   9.978  0.4683  0.3627  1.1844
   21SAPC   H7Y 2794   0.741   1.753   9.965 -1.8192 -1.5336  0.2914
   21SAPC   C38 2795   0.788   1.556   9.896 -0.5722 -0.5969 -0.1134
   21SAPC   H8X 2796   0.695   1.498   9.918 -0.7306 -0.9071 -1.5076
   21SAPC   H8Y 2797   0.871   1.484   9.914 -0.1628 -0.5673 -1.7254
   21SAPC   C39 2798   0.787   1.590   9.742  0.1974 -0.2726  0.2776
   21SAPC   H9X 2799   0.714   1.671   9.723 -1.7447 -1.7563  1.0293
   21SAPC   H9Y 2800   0.735   1.505   9.692 -0.8148  0.4230  0.1151
   21SAPC  C310 2801   0.924   1.614   9.669  0.1411  0.3787 -0.7184
   21SAPC  H10X 2802   0.998   1.536   9.695  1.3255  1.0051 -2.0716
   21SAPC  H10Y 2803   0.959   1.709   9.714  0.5231 -0.2287  0.3014
   21SAPC  C311 2804   0.919   1.642   9.521 -0.2311  0.9363  0.2525
   21SAPC  H11X 2805   1.016   1.686   9.491  0.8712 -0.4943  1.5468
   21SAPC  H11Y 2806   0.844   1.721   9.500 -1.4657 -0.8130 -2.4200
   21SAPC  C312 2807   0.888   1.514   9.431 -0.5283  0.5062 -0.1951
   21SAPC  H12X 2808   0.810   1.459   9.487 -0.4957  1.7177  1.0938
   21SAPC  H12Y 2809   0.978   1.451   9.414 -0.7411  0.3750 -0.8859
   21SAPC  C313 2810   0.820   1.547   9.293  0.0412 -0.7688 -0.5745
   21SAPC  H13X 2811   0.725   1.602   9.312  1.0517  0.4519  1.1914
   21SAPC  H13Y 2812   0.816   1.455   9.231  0.9647 -2.6708  2.0303
   21SAPC  C314 2813   0.900   1.643   9.209  0.2321  0.2722 -0.1486
   21SAPC  H14X 2814   1.006   1.608   9.211 -0.0958 -0.7943 -0.9120
   21SAPC  H14Y 2815   0.895   1.745   9.255  0.5100  0.7480 -1.1394
   21SAPC  C315 2816   0.869   1.656   9.060  0.3610  0.4094  0.4084
   21SAPC  H15X 2817   0.768   1.701   9.050 -0.0243 -0.1713  1.4893
   21SAPC  H15Y 2818   0.875   1.553   9.020 -1.3186  1.1875 -2.0846
   21SAPC  C316 2819   0.970   1.754   8.992 -0.0438 -0.4035  0.5057
   21SAPC  H16X 2820   1.071   1.712   9.009  0.6081  0.3363 -1.2708
   21SAPC  H16Y 2821   0.948   1.849   9.045 -2.3024 -0.9156  0.6194
   21SAPC  C317 2822   0.950   1.786   8.839 -0.9720 -0.1834  0.1316
   21SAPC  H17X 2823   0.972   1.894   8.823 -1.4749  0.2640  2.1770
   21SAPC  H17Y 2824   0.842   1.788   8.812 -0.5586 -0.4392 -1.7413
   21SAPC  C318 2825   1.036   1.691   8.754  0.5395 -0.2356  0.6301
   21SAPC  H18X 2826   0.990   1.593   8.730 -0.4809  0.6513 -1.2272
   21SAPC  H18Y 2827   1.136   1.689   8.803  0.5447 -0.1532  0.6229
   21SAPC  H18Z 2828   1.055   1.740   8.656 -0.3052 -0.7711  0.1883
   22SAPC     N 2829   1.862   6.232  11.029 -0.2476  0.6554 -0.0171
   22SAPC   C12 2830   1.728   6.288  10.970  0.1343  0.5707  0.0797
   22SAPC  H12A 2831   1.766   6.343  10.885  1.1841 -0.9123 -0.4555
   22SAPC  H12B 2832   1.683   6.359  11.037 -0.2405  0.7953 -0.4076
   22SAPC   C13 2833   1.839   6.152  11.150  0.3300  0.5018 -0.7696
   22SAPC  H13A 2834   1.788   6.059  11.133 -1.0927  1.0760  0.1852
   22SAPC  H13B 2835   1.931   6.120  11.195 -0.0150  1.8514  1.0205
   22SAPC  H13C 2836   1.779   6.203  11.224  2.6096 -0.1440  1.6833
   22SAPC   C14 2837   1.920   6.136  10.935  0.3254  0.5130 -0.5610
   22SAPC  H14A 2838   2.011   6.088  10.969  0.2948  0.1603 -0.9642
   22SAPC  H14B 2839   1.847   6.058  10.916  2.8427 -1.7865 -1.5987
   22SAPC  H14C 2840   1.928   6.184  10.838  0.4090  0.0204 -0.8064
   22SAPC   C15 2841   1.966   6.340  11.047  0.3664  0.3400  0.0756
   22SAPC  H15A 2842   2.057   6.320  11.102  1.3984  2.5364 -0.6835
   22SAPC  H15B 2843   1.993   6.386  10.953 -0.0684  1.7687  0.6131
   22SAPC  H15C 2844   1.908   6.419  11.092  1.1283  1.7257 -1.2669
   22SAPC   C11 2845   1.611   6.202  10.918  0.0423 -0.8734  0.0092
   22SAPC  H11A 2846   1.548   6.283  10.876  3.0220  0.3549 -2.5374
   22SAPC  H11B 2847   1.561   6.141  10.996 -0.6497  0.1259  0.3686
   22SAPC     P 2848   1.618   6.143  10.673 -0.6936  0.0719 -0.0826
   22SAPC   O13 2849   1.471   6.163  10.664  0.1296 -0.4087 -0.4929
   22SAPC   O14 2850   1.692   6.259  10.626 -0.7064  0.1919  0.1698
   22SAPC   O12 2851   1.664   6.115  10.823  0.3674  0.2840  0.6173
   22SAPC   O11 2852   1.659   6.003  10.600  0.4165 -0.1294  0.0755
   22SAPC    C1 2853   1.789   5.942  10.616  0.0066  0.1682 -0.5764
   22SAPC    HA 2854   1.821   5.933  10.722  0.2586  0.8254 -0.5926
   22SAPC    HB 2855   1.781   5.843  10.567  2.7691 -0.3510 -0.1514
   22SAPC    C2 2856   1.895   6.018  10.536 -0.6039  0.1316  0.5457
   22SAPC    HS 2857   1.895   6.124  10.570  0.0304  0.5892 -0.7925
   22SAPC   O21 2858   1.851   6.010  10.398 -0.1329  0.2037  0.5937
   22SAPC   C21 2859   1.918   6.085  10.307  0.5275  0.0314 -0.1993
   22SAPC   O22 2860   2.008   6.165  10.329 -0.0647 -0.1308  0.0916
   22SAPC   C22 2861   1.877   6.032  10.171 -0.0745 -0.1691  0.4363
   22SAPC   H2R 2862   1.905   6.105  10.093 -1.3852 -0.2939 -0.1900
   22SAPC   H2S 2863   1.919   5.931  10.149  0.0667 -0.3952  1.6844
   22SAPC    C3 2864   2.039   5.965  10.561  0.0433 -0.0565  1.1812
   22SAPC    HX 2865   2.061   5.967  10.670 -0.9124 -0.2596  1.3823
   22SAPC    HY 2866   2.114   6.031  10.511 -2.5927  0.6057 -2.2471
   22SAPC   O31 2867   2.068   5.841  10.503 -0.2214 -0.2678 -0.2508
   22SAPC   C31 2868   2.051   5.734  10.578 -0.2570  0.1746  0.1987
   22SAPC   O32 2869   2.001   5.728  10.691 -0.3268 -0.1308 -0.1937
   22SAPC   C32 2870   2.090   5.610  10.496  0.4314  0.1407 -0.3798
   22SAPC   H2X 2871   2.199   5.595  10.508  0.3641  1.2013  2.1250
   22SAPC   H2Y 2872   2.071   5.631  10.389  0.2265  0.2840 -0.3157
   22SAPC   C23 2873   1.725   6.009  10.148 -0.3911 -0.4525  0.1732
   22SAPC   H3R 2874   1.659   6.093  10.177 -2.6301 -1.9469 -0.3545
   22SAPC   H3S 2875   1.689   5.922  10.208 -0.1625 -1.9496 -1.7523
   22SAPC   C24 2876   1.688   5.995  10.001 -0.9458 -0.1273 -0.5525
   22SAPC   H4R 2877   1.719   6.091   9.954  0.0969 -0.1433  0.0651
   22SAPC   H4S 2878   1.581   6.019   9.982 -0.6919  2.6272  0.9176
   22SAPC   C25 2879   1.734   5.862   9.936  0.0292 -0.0719  0.2003
   22SAPC   H5R 2880   1.842   5.845   9.937 -0.2548 -2.5449 -1.6165
   22SAPC   C26 2881   1.657   5.762   9.892  0.1446  0.0626 -0.3428
   22SAPC   H6R 2882   1.709   5.670   9.861  1.9956  0.8573  0.2499
   22SAPC   C27 2883   1.509   5.757   9.879  0.1173  0.3455 -0.2603
   22SAPC   H7R 2884   1.450   5.842   9.918 -0.1946  0.5983 -1.2583
   22SAPC   H7S 2885   1.481   5.674   9.948  0.8626 -0.0946 -0.4654
   22SAPC   C28 2886   1.453   5.704   9.749 -0.0615  0.2017 -0.0930
   22SAPC   H8R 2887   1.441   5.595   9.754 -2.2104  0.3823 -0.5812
   22SAPC   C29 2888   1.417   5.778   9.646 -0.1791  0.6381  0.0754
   22SAPC   H9R 2889   1.378   5.713   9.567 -0.0839 -1.3903  1.6193
   22SAPC  C210 2890   1.432   5.932   9.624 -0.2805 -0.1618 -0.2935
   22SAPC  H10R 2891   1.415   5.987   9.719 -0.7587  0.2225 -0.5996
   22SAPC  H10S 2892   1.358   5.971   9.552  1.1681 -1.7335 -2.7701
   22SAPC  C211 2893   1.574   5.983   9.594 -0.3789 -0.2502  0.0317
   22SAPC  H11R 2894   1.641   5.960   9.678  0.2895  1.3519 -0.0218
   22SAPC  C212 2895   1.614   6.012   9.472  0.6944  0.4508 -1.5607
   22SAPC  H12R 2896   1.720   6.040   9.482  0.5006  0.3162  3.5661
   22SAPC  C213 2897   1.545   6.017   9.337 -0.2374 -0.5227 -0.0491
   22SAPC  H13R 2898   1.597   6.095   9.278 -3.4434  2.8771  1.1842
   22SAPC  H13S 2899   1.441   6.056   9.351 -0.7670 -1.3387 -1.5535
   22SAPC  C214 2900   1.545   5.879   9.271 -0.2500 -0.2808 -0.0997
   22SAPC  H14R 2901   1.482   5.801   9.317  1.0699 -0.5934  1.2775
   22SAPC  C215 2902   1.611   5.837   9.162 -0.0645  0.0936 -0.8141
   22SAPC  H15R 2903   1.590   5.734   9.131  0.0397 -0.8303  1.9220
   22SAPC  C216 2904   1.687   5.930   9.062 -0.6597  0.0246 -0.4184
   22SAPC  H16R 2905   1.699   6.036   9.095 -1.1369 -0.6747  2.2293
   22SAPC  H16S 2906   1.641   5.938   8.962 -0.2104  0.7400 -0.5800
   22SAPC  C217 2907   1.830   5.871   9.035 -0.4956  0.7432  0.6210
   22SAPC  H17R 2908   1.818   5.808   8.944 -1.1217  2.7247 -0.7523
   22SAPC  H17S 2909   1.867   5.826   9.129 -0.6949  1.3826  1.0047
   22SAPC  C218 2910   1.941   5.963   8.991  0.0988 -1.1742 -0.2670
   22SAPC  H18R 2911   1.954   6.045   9.065 -1.2958 -2.3590  1.3616
   22SAPC  H18S 2912   1.916   5.998   8.889  0.2704 -3.6795 -1.2369
   22SAPC  C219 2913   2.074   5.887   8.996  0.3953 -0.1748 -0.2871
   22SAPC  H19R 2914   2.096   5.846   9.097  0.1632 -1.2869 -0.6661
   22SAPC  H19S 2915   2.156   5.954   8.960  0.7545 -0.2805  0.3238
   22SAPC  C220 2916   2.072   5.776   8.896 -0.1296 -0.8805  0.4431
   22SAPC  H20R 2917   2.176   5.759   8.863 -0.3562 -0.6405 -0.4208
   22SAPC  H20S 2918   2.016   5.808   8.805 -1.1363 -1.7456  0.7413
   22SAPC  H20T 2919   2.026   5.685   8.942 -0.6205  0.1826  2.1143
   22SAPC   C33 2920   2.014   5.485  10.531  0.0040  0.3197  0.1717
   22SAPC   H3X 2921   2.059   5.457  10.629  3.4468  0.2514 -1.2755
   22SAPC   H3Y 2922   2.036   5.397  10.466  1.3618 -1.5896  2.9573
   22SAPC   C34 2923   1.866   5.494  10.537 -0.3979  0.1858  0.0203
   22SAPC   H4X 2924   1.831   5.567  10.614  1.3267 -1.1686  2.2346
   22SAPC   H4Y 2925   1.828   5.395  10.571  1.0404 -1.5200 -2.9704
   22SAPC   C35 2926   1.798   5.518  10.402 -0.2575 -0.0971  0.5886
   22SAPC   H5X 2927   1.840   5.443  10.330  1.5904 -0.7858  2.2904
   22SAPC   H5Y 2928   1.827   5.614  10.354 -3.1418  0.3046 -0.5680
   22SAPC   C36 2929   1.641   5.529  10.404  0.4132  0.5393  0.3430
   22SAPC   H6X 2930   1.620   5.623  10.459  0.5986 -0.6113  2.4626
   22SAPC   H6Y 2931   1.601   5.441  10.458 -1.6336  0.6411 -0.8662
   22SAPC   C37 2932   1.576   5.529  10.255  0.1245 -0.5914 -0.4052
   22SAPC   H7X 2933   1.622   5.617  10.205  0.4757 -1.2811 -1.3302
   22SAPC   H7Y 2934   1.469   5.558  10.255  0.1246 -0.5898  0.4213
   22SAPC   C38 2935   1.595   5.399  10.174 -0.4709  0.4707 -0.5548
   22SAPC   H8X 2936   1.544   5.317  10.228 -0.3197 -0.3189 -1.5743
   22SAPC   H8Y 2937   1.704   5.382  10.160 -0.5882 -0.8336  0.0464
   22SAPC   C39 2938   1.523   5.401  10.040 -0.1757 -0.4900  0.7272
   22SAPC   H9X 2939   1.579   5.471   9.975  1.6854 -0.3392  2.4066
   22SAPC   H9Y 2940   1.427   5.453  10.060  0.4514  0.8134  0.4292
   22SAPC  C310 2941   1.505   5.265   9.971 -0.4766 -0.4623 -0.0519
   22SAPC  H10X 2942   1.460   5.187  10.036 -0.5804  0.8619  1.5518
   22SAPC  H10Y 2943   1.605   5.223   9.948 -0.8497 -2.2601  1.3549
   22SAPC  C311 2944   1.431   5.285   9.838 -0.1375 -0.4254 -0.4531
   22SAPC  H11X 2945   1.443   5.388   9.799  0.6420 -0.5660 -0.5962
   22SAPC  H11Y 2946   1.321   5.280   9.858  0.3501  1.2771  3.7624
   22SAPC  C312 2947   1.482   5.189   9.727  0.4097 -0.4374 -0.5970
   22SAPC  H12X 2948   1.473   5.085   9.766 -0.6955 -0.3105 -0.4826
   22SAPC  H12Y 2949   1.589   5.217   9.714 -0.1663  1.3525 -1.9989
   22SAPC  C313 2950   1.411   5.211   9.596 -0.2025  0.2479  0.5598
   22SAPC  H13X 2951   1.305   5.181   9.605 -0.0350 -0.2051  1.0772
   22SAPC  H13Y 2952   1.451   5.133   9.528  1.4936  0.7270  0.9592
   22SAPC  C314 2953   1.413   5.356   9.536  0.0437  0.0934  0.2937
   22SAPC  H14X 2954   1.514   5.402   9.537 -0.3362  0.9497  0.3255
   22SAPC  H14Y 2955   1.346   5.422   9.595  0.1426  1.2826 -0.8805
   22SAPC  C315 2956   1.364   5.370   9.390 -0.6297  0.1194  0.2252
   22SAPC  H15X 2957   1.362   5.479   9.372  0.4912  0.0224 -0.6220
   22SAPC  H15Y 2958   1.260   5.331   9.390 -0.4245 -0.4380  0.4789
   22SAPC  C316 2959   1.469   5.306   9.296  0.3202 -0.1401  0.6979
   22SAPC  H16X 2960   1.515   5.216   9.341 -0.0453  0.8092  3.1453
   22SAPC  H16Y 2961   1.554   5.377   9.286 -0.7383  0.9561 -1.0226
   22SAPC  C317 2962   1.413   5.274   9.159 -0.9449 -0.1540  0.2338
   22SAPC  H17X 2963   1.500   5.246   9.095 -1.2523 -0.2560 -0.1454
   22SAPC  H17Y 2964   1.356   5.362   9.124 -1.6188 -0.1904  1.2024
   22SAPC  C318 2965   1.314   5.157   9.171 -0.4813 -0.9006  0.4561
   22SAPC  H18X 2966   1.237   5.174   9.249 -0.9868 -0.9148 -0.0341
   22SAPC  H18Y 2967   1.371   5.067   9.205 -0.5639 -0.8629  0.6934
   22SAPC  H18Z 2968   1.270   5.157   9.069  1.3694  0.0106 -0.3842
   23SAPC     N 2969   4.170   1.763  10.803 -0.1061 -0.3448 -0.2009
   23SAPC   C12 2970   4.264   1.881  10.798 -0.1569 -0.7668 -0.2064
   23SAPC  H12A 2971   4.241   1.942  10.711 -0.9378  0.2552  0.6895
   23SAPC  H12B 2972   4.361   1.844  10.768  0.3418  0.5728 -0.3026
   23SAPC   C13 2973   4.175   1.686  10.675  0.1263  0.4778 -0.2957
   23SAPC  H13A 2974   4.092   1.617  10.674  0.7642 -0.3352  0.7361
   23SAPC  H13B 2975   4.159   1.754  10.593  4.2626 -1.0759 -2.6919
   23SAPC  H13C 2976   4.266   1.628  10.674  0.8770  1.3759  2.9107
   23SAPC   C14 2977   4.201   1.668  10.917 -0.0456  0.3655  0.0638
   23SAPC  H14A 2978   4.135   1.582  10.913 -0.5484  0.6832  1.0844
   23SAPC  H14B 2979   4.305   1.643  10.927  0.1787  1.9462  2.8239
   23SAPC  H14C 2980   4.171   1.712  11.011 -1.4071 -1.9382  0.7981
   23SAPC   C15 2981   4.032   1.815  10.823 -0.0446 -0.1871 -0.3326
   23SAPC  H15A 2982   4.015   1.852  10.923 -0.8098 -2.6356  0.5148
   23SAPC  H15B 2983   4.001   1.891  10.753 -2.9431 -0.1186  0.8604
   23SAPC  H15C 2984   3.956   1.738  10.817 -1.1834  0.9971 -2.5548
   23SAPC   C11 2985   4.277   1.978  10.919  0.2385  0.6453  0.2084
   23SAPC  H11A 2986   4.376   2.027  10.912  0.7443 -0.2464  0.8482
   23SAPC  H11B 2987   4.269   1.907  11.004 -0.7844  1.0555  0.4769
   23SAPC     P 2988   4.176   2.218  10.879 -0.0067 -0.1625 -0.1965
   23SAPC   O13 2989   4.042   2.279  10.901 -0.0425  1.1626  0.8636
   23SAPC   O14 2990   4.289   2.287  10.952  0.1972  0.0511  0.1911
   23SAPC   O12 2991   4.163   2.068  10.921 -0.0158 -0.0307  0.2642
   23SAPC   O11 2992   4.201   2.203  10.727  0.4396 -0.3743  0.1953
   23SAPC    C1 2993   4.329   2.230  10.661 -0.0511 -0.1243 -0.9188
   23SAPC    HA 2994   4.410   2.211  10.734 -0.6610  0.2911 -0.1092
   23SAPC    HB 2995   4.349   2.147  10.590  1.4349 -1.3005  0.7905
   23SAPC    C2 2996   4.334   2.369  10.591  0.3541  0.9401  0.0478
   23SAPC    HS 2997   4.316   2.444  10.671 -2.3669  2.0189 -1.4225
   23SAPC   O21 2998   4.247   2.385  10.475  0.3250 -0.5097  0.4386
   23SAPC   C21 2999   4.117   2.408  10.505  0.5796  0.1004 -0.2144
   23SAPC   O22 3000   4.067   2.427  10.613 -0.7630  0.2181 -0.2390
   23SAPC   C22 3001   4.038   2.402  10.376  0.2575 -0.1183  0.2642
   23SAPC   H2R 3002   4.096   2.358  10.292  1.0500  1.6503 -0.1630
   23SAPC   H2S 3003   3.947   2.343  10.398 -0.0567  0.2675 -0.0041
   23SAPC    C3 3004   4.478   2.386  10.543  0.0072  0.1863 -0.6275
   23SAPC    HX 3005   4.549   2.387  10.629 -0.3624  1.8774 -0.3185
   23SAPC    HY 3006   4.482   2.486  10.497 -1.6362  1.1600  1.1525
   23SAPC   O31 3007   4.513   2.281  10.453  0.1686  0.1008 -0.1010
   23SAPC   C31 3008   4.630   2.294  10.393  0.1597  0.2471 -0.5477
   23SAPC   O32 3009   4.719   2.368  10.428 -0.1059  0.2268  0.3986
   23SAPC   C32 3010   4.632   2.212  10.269  0.0886  0.0580 -0.2043
   23SAPC   H2X 3011   4.529   2.214  10.227  0.3717 -0.7973 -0.9587
   23SAPC   H2Y 3012   4.665   2.111  10.300 -1.9062 -0.4637  0.3492
   23SAPC   C23 3013   3.994   2.536  10.317  0.1749 -0.4400 -0.2598
   23SAPC   H3R 3014   4.078   2.609  10.317 -1.0159  0.9795 -0.5420
   23SAPC   H3S 3015   3.923   2.574  10.393 -0.1230  1.6372 -1.4948
   23SAPC   C24 3016   3.926   2.515  10.181 -0.4832 -0.3926  0.3984
   23SAPC   H4R 3017   3.862   2.424  10.190 -0.0895 -0.7475 -0.3135
   23SAPC   H4S 3018   4.013   2.494  10.115 -0.8208  2.4723 -1.1111
   23SAPC   C25 3019   3.824   2.625  10.152 -0.0959  1.1144  0.0880
   23SAPC   H5R 3020   3.755   2.642  10.236 -3.2368  1.9962 -2.4624
   23SAPC   C26 3021   3.801   2.685  10.035  0.1455  0.2038  0.4831
   23SAPC   H6R 3022   3.720   2.759  10.025  1.5495  1.9618  1.4983
   23SAPC   C27 3023   3.896   2.670   9.914  0.1713  0.3090  0.0328
   23SAPC   H7R 3024   3.882   2.577   9.856 -3.9103  1.3501 -1.0582
   23SAPC   H7S 3025   4.000   2.671   9.952 -0.0116 -0.5132  0.5866
   23SAPC   C28 3026   3.876   2.790   9.827  0.1647  0.1454 -0.5002
   23SAPC   H8R 3027   3.872   2.888   9.877 -1.5675 -0.0535 -0.1988
   23SAPC   C29 3028   3.872   2.781   9.695  1.0234 -0.1278  0.2260
   23SAPC   H9R 3029   3.856   2.876   9.642 -0.6329  0.0003  0.8777
   23SAPC  C210 3030   3.871   2.672   9.591 -0.7308 -0.3845  0.2086
   23SAPC  H10R 3031   3.937   2.586   9.615 -1.5661 -1.2590 -0.5490
   23SAPC  H10S 3032   3.928   2.707   9.503 -1.0259 -0.2014  0.0898
   23SAPC  C211 3033   3.747   2.618   9.536  0.1152  0.1487 -0.4603
   23SAPC  H11R 3034   3.724   2.519   9.579  2.8887 -1.3556 -2.1299
   23SAPC  C212 3035   3.677   2.662   9.432 -0.2151 -0.1631  0.6233
   23SAPC  H12R 3036   3.595   2.596   9.401 -0.6837  1.3226 -1.5431
   23SAPC  C213 3037   3.700   2.778   9.338  0.9705 -0.0556 -0.8898
   23SAPC  H13R 3038   3.698   2.730   9.238 -0.7781 -1.4320 -0.2456
   23SAPC  H13S 3039   3.800   2.823   9.352  1.1992 -0.7883 -0.0627
   23SAPC  C214 3040   3.614   2.900   9.332  0.0472 -0.1331  0.5343
   23SAPC  H14R 3041   3.535   2.915   9.407 -2.2874 -2.3835 -1.2771
   23SAPC  C215 3042   3.632   2.992   9.226  0.5023 -0.2475 -0.7428
   23SAPC  H15R 3043   3.567   3.081   9.227  0.4180 -0.2813  1.5363
   23SAPC  C216 3044   3.728   2.990   9.109 -0.5024 -0.2607  0.2731
   23SAPC  H16R 3045   3.798   2.903   9.112  0.6686  0.6394 -0.3410
   23SAPC  H16S 3046   3.778   3.088   9.094 -2.8501  0.8020 -1.1415
   23SAPC  C217 3047   3.680   2.948   8.962  0.4008 -0.0794 -0.2460
   23SAPC  H17R 3048   3.767   2.974   8.898  2.5158 -2.3978  1.4766
   23SAPC  H17S 3049   3.594   3.011   8.930 -1.8036 -0.6814  3.8250
   23SAPC  C218 3050   3.646   2.798   8.948  0.9325  0.2030 -0.0945
   23SAPC  H18R 3051   3.589   2.756   9.034 -0.2368 -0.2388 -1.0624
   23SAPC  H18S 3052   3.739   2.738   8.942 -0.4521 -2.0464 -0.5610
   23SAPC  C219 3053   3.553   2.755   8.833  0.2915 -0.4162  0.4680
   23SAPC  H19R 3054   3.450   2.794   8.852 -0.7347 -1.2166 -2.7359
   23SAPC  H19S 3055   3.556   2.644   8.826 -1.5601 -0.5843  1.6593
   23SAPC  C220 3056   3.598   2.825   8.701  0.0936  0.0668 -0.1075
   23SAPC  H20R 3057   3.571   2.932   8.710 -0.5116  0.1807 -2.5744
   23SAPC  H20S 3058   3.542   2.778   8.618 -0.9024  0.4410  0.3367
   23SAPC  H20T 3059   3.709   2.818   8.697  0.2765  2.0700  0.6895
   23SAPC   C33 3060   4.720   2.265  10.162 -0.2017 -0.3847 -0.1030
   23SAPC   H3X 3061   4.723   2.202  10.071  1.8282  0.0064 -0.3427
   23SAPC   H3Y 3062   4.826   2.283  10.189  0.5835 -2.1661 -1.8319
   23SAPC   C34 3063   4.684   2.399  10.093  0.6622 -0.3055 -0.1767
   23SAPC   H4X 3064   4.692   2.481  10.167 -0.2336 -0.5733  0.2208
   23SAPC   H4Y 3065   4.579   2.395  10.059  0.9851  0.8905 -1.3908
   23SAPC   C35 3066   4.763   2.433   9.967 -0.6266  0.4506  0.4739
   23SAPC   H5X 3067   4.873   2.427   9.986 -0.9563  0.1603  2.6029
   23SAPC   H5Y 3068   4.753   2.538   9.933 -0.3367 -0.2093 -1.7806
   23SAPC   C36 3069   4.706   2.342   9.855  0.6067  0.5791  0.2147
   23SAPC   H6X 3070   4.598   2.359   9.838  0.5974 -0.2619 -0.6889
   23SAPC   H6Y 3071   4.724   2.233   9.868 -0.3291  0.4098  0.1375
   23SAPC   C37 3072   4.777   2.383   9.725  1.0614  1.0718  0.3660
   23SAPC   H7X 3073   4.885   2.409   9.739  0.7100  1.4022  2.8357
   23SAPC   H7Y 3074   4.737   2.477   9.681 -0.9865  0.6842  1.3330
   23SAPC   C38 3075   4.774   2.277   9.612 -0.9342  1.0808 -0.2806
   23SAPC   H8X 3076   4.689   2.208   9.629  1.5294 -1.8674  1.0653
   23SAPC   H8Y 3077   4.857   2.205   9.629 -2.1866  0.1697  2.4603
   23SAPC   C39 3078   4.794   2.348   9.475  0.3549  0.2941  0.5660
   23SAPC   H9X 3079   4.891   2.402   9.469 -0.0751  0.8804 -1.5879
   23SAPC   H9Y 3080   4.721   2.430   9.459  0.0625 -0.0439  0.1528
   23SAPC  C310 3081   4.762   2.248   9.359  0.1301 -0.2258  0.8833
   23SAPC  H10X 3082   4.661   2.203   9.370  0.3683 -0.6621  1.2764
   23SAPC  H10Y 3083   4.833   2.163   9.353 -1.4935 -1.5813  0.2806
   23SAPC  C311 3084   4.774   2.325   9.220  0.2762  0.3383  0.3387
   23SAPC  H11X 3085   4.874   2.372   9.211  1.0933 -1.6070 -1.6206
   23SAPC  H11Y 3086   4.695   2.403   9.213 -0.3328 -0.2234  0.8574
   23SAPC  C312 3087   4.749   2.244   9.090  0.2811 -0.7743 -1.1464
   23SAPC  H12X 3088   4.813   2.154   9.100  0.9048 -0.2125  0.1899
   23SAPC  H12Y 3089   4.778   2.305   9.002 -0.7633  0.7278 -0.4851
   23SAPC  C313 3090   4.602   2.204   9.082  0.3945 -0.0466 -0.0838
   23SAPC  H13X 3091   4.533   2.290   9.067  0.6581  0.2765  0.5582
   23SAPC  H13Y 3092   4.571   2.159   9.178  0.3165  1.6961  0.7478
   23SAPC  C314 3093   4.589   2.093   8.975  0.4432 -0.0423 -0.2939
   23SAPC  H14X 3094   4.614   2.145   8.879 -1.1552  0.7241 -0.3222
   23SAPC  H14Y 3095   4.484   2.061   8.960  0.9991 -1.8787 -0.5909
   23SAPC  C315 3096   4.678   1.976   8.989 -0.2539  0.4730  0.2216
   23SAPC  H15X 3097   4.694   1.946   9.094 -1.6588  1.3226  0.7064
   23SAPC  H15Y 3098   4.780   1.992   8.947  0.4597 -1.0200  1.2937
   23SAPC  C316 3099   4.630   1.860   8.888 -0.2314 -0.1061  0.6263
   23SAPC  H16X 3100   4.602   1.907   8.791 -1.3077 -0.5931  0.6856
   23SAPC  H16Y 3101   4.536   1.820   8.932 -0.9461  1.0879  0.2316
   23SAPC  C317 3102   4.746   1.764   8.854 -0.1155  0.3303 -0.2235
   23SAPC  H17X 3103   4.790   1.717   8.944  1.0996  0.3472 -0.7870
   23SAPC  H17Y 3104   4.829   1.823   8.809  0.9066 -0.1999  0.9102
   23SAPC  C318 3105   4.697   1.646   8.764  0.5882 -0.1285  0.4689
   23SAPC  H18X 3106   4.616   1.588   8.812  0.3021 -0.4136 -0.3432
   23SAPC  H18Y 3107   4.774   1.570   8.738 -0.0449 -0.3832 -0.6946
   23SAPC  H18Z 3108   4.656   1.695   8.674 -1.1955  0.4776  1.5732
   24SAPC     N 3109   0.718   6.654  10.981 -0.0958 -0.9899  0.1804
   24SAPC   C12 3110   0.772   6.712  10.849  0.3057  0.0715  0.3542
   24SAPC  H12A 3111   0.843   6.785  10.885 -1.5549  0.8339  2.7581
   24SAPC  H12B 3112   0.695   6.769  10.800  1.1569 -1.8007 -3.5515
   24SAPC   C13 3113   0.828   6.592  11.062 -0.6131 -0.4560 -0.0984
   24SAPC  H13A 3114   0.899   6.667  11.094  0.4172 -1.0114 -1.0302
   24SAPC  H13B 3115   0.793   6.529  11.142  0.9366 -0.9944  0.1822
   24SAPC  H13C 3116   0.884   6.531  10.992  3.1305  3.6707 -1.1353
   24SAPC   C14 3117   0.661   6.762  11.064 -0.1378 -0.2376  0.4223
   24SAPC  H14A 3118   0.597   6.825  11.004 -0.7605 -1.4199 -0.1970
   24SAPC  H14B 3119   0.589   6.722  11.134  1.2734  0.5915  2.4284
   24SAPC  H14C 3120   0.727   6.826  11.119 -1.6876  1.8570 -0.0203
   24SAPC   C15 3121   0.618   6.549  10.940  0.5610 -0.1722  0.0050
   24SAPC  H15A 3122   0.570   6.491  11.017  1.2447 -1.3626 -0.4324
   24SAPC  H15B 3123   0.549   6.591  10.868  0.9212  1.5042  0.5883
   24SAPC  H15C 3124   0.672   6.478  10.878  0.0390 -1.9674  1.5146
   24SAPC   C11 3125   0.846   6.621  10.750 -0.5465 -0.3180 -0.5014
   24SAPC  H11A 3126   0.863   6.678  10.657 -0.6178  0.7969  0.1465
   24SAPC  H11B 3127   0.787   6.534  10.714 -0.2066  0.1962 -2.4102
   24SAPC     P 3128   1.110   6.635  10.772  0.3410  0.7393 -0.1708
   24SAPC   O13 3129   1.113   6.782  10.768  0.2130  0.0447 -0.1545
   24SAPC   O14 3130   1.216   6.577  10.862 -0.1316 -0.2954  0.3633
   24SAPC   O12 3131   0.967   6.576  10.813 -0.2885 -0.4465  0.2758
   24SAPC   O11 3132   1.122   6.574  10.626  0.9176 -0.1954 -0.1882
   24SAPC    C1 3133   1.198   6.651  10.524  0.5419  0.1769 -0.3646
   24SAPC    HA 3134   1.253   6.736  10.569 -1.4604  1.0119  0.6211
   24SAPC    HB 3135   1.259   6.579  10.466  0.6119  0.5384 -0.7444
   24SAPC    C2 3136   1.098   6.730  10.423  0.6290 -0.0092  0.9303
   24SAPC    HS 3137   1.079   6.819  10.486 -0.4915 -1.6848  3.1030
   24SAPC   O21 3138   0.973   6.656  10.409 -0.2992 -0.6851  0.9029
   24SAPC   C21 3139   0.971   6.547  10.336 -0.0518  0.0006 -0.4526
   24SAPC   O22 3140   1.063   6.490  10.284 -0.0025  0.2917 -0.2522
   24SAPC   C22 3141   0.830   6.499  10.318 -1.2262  0.0347 -0.6858
   24SAPC   H2R 3142   0.850   6.397  10.278  0.9300 -0.9747  2.5318
   24SAPC   H2S 3143   0.788   6.492  10.421  1.5087 -0.5441  0.4962
   24SAPC    C3 3144   1.159   6.780  10.288  0.4275 -0.8191 -0.2886
   24SAPC    HX 3145   1.200   6.701  10.222  2.1058 -0.6172  0.4676
   24SAPC    HY 3146   1.247   6.841  10.320 -3.1181  3.2046  3.1887
   24SAPC   O31 3147   1.066   6.855  10.208 -0.4567  0.2037  0.3637
   24SAPC   C31 3148   1.067   6.985  10.245 -0.0804 -0.1045  0.6981
   24SAPC   O32 3149   1.105   7.028  10.356 -0.4803  0.3108  0.0933
   24SAPC   C32 3150   1.011   7.065  10.131 -0.0428 -0.0949  0.2714
   24SAPC   H2X 3151   0.963   7.157  10.170  0.9024  0.8649 -0.7545
   24SAPC   H2Y 3152   0.933   7.015  10.070 -0.1228 -1.0287  1.1220
   24SAPC   C23 3153   0.739   6.572  10.214 -0.0599 -0.5950  0.0354
   24SAPC   H3R 3154   0.753   6.680  10.240  5.8247 -0.9803 -0.1177
   24SAPC   H3S 3155   0.633   6.545  10.231  0.0418 -0.8300  0.3043
   24SAPC   C24 3156   0.774   6.524  10.072 -0.4244  0.0992  0.6384
   24SAPC   H4R 3157   0.677   6.539  10.018  0.1533 -1.5892 -0.9892
   24SAPC   H4S 3158   0.794   6.415  10.074  1.8556  0.4894  0.8760
   24SAPC   C25 3159   0.881   6.613  10.005  0.0496  0.9597 -0.3835
   24SAPC   H5R 3160   0.951   6.656  10.078  0.4410 -0.2926  0.0056
   24SAPC   C26 3161   0.903   6.613   9.871 -1.0559  0.3627  0.2122
   24SAPC   H6R 3162   0.978   6.689   9.842 -0.1617  0.4489  2.4722
   24SAPC   C27 3163   0.823   6.549   9.764  0.4767  0.6312 -0.1299
   24SAPC   H7R 3164   0.745   6.489   9.815 -0.8864  0.6683 -2.0482
   24SAPC   H7S 3165   0.880   6.473   9.705 -0.7040 -0.1138 -0.3533
   24SAPC   C28 3166   0.764   6.643   9.665 -0.5349 -0.3213 -0.0224
   24SAPC   H8R 3167   0.703   6.721   9.712 -1.4722 -0.1793 -1.4212
   24SAPC   C29 3168   0.807   6.671   9.543 -0.5460  0.2292 -0.8965
   24SAPC   H9R 3169   0.739   6.735   9.486 -2.3240 -0.9446 -0.1697
   24SAPC  C210 3170   0.925   6.604   9.471 -0.0175  0.7072  0.0961
   24SAPC  H10R 3171   0.902   6.506   9.424 -2.8652  0.4426  1.8256
   24SAPC  H10S 3172   1.006   6.588   9.544  0.3173 -1.0206 -0.6177
   24SAPC  C211 3173   0.962   6.698   9.357  0.3363 -0.4139 -0.0820
   24SAPC  H11R 3174   1.042   6.772   9.370 -0.8692  1.4405 -2.3064
   24SAPC  C212 3175   0.912   6.686   9.229 -0.3789  0.3610  0.7518
   24SAPC  H12R 3176   0.951   6.757   9.154  2.7026 -1.1931  0.7059
   24SAPC  C213 3177   0.816   6.581   9.175  0.1471 -0.4542  0.1542
   24SAPC  H13R 3178   0.783   6.526   9.266 -0.3038 -0.3268  0.0735
   24SAPC  H13S 3179   0.862   6.499   9.116  1.8069  1.2770 -1.0823
   24SAPC  C214 3180   0.683   6.640   9.119 -0.7168  0.0204  0.2939
   24SAPC  H14R 3181   0.643   6.722   9.181  0.4597 -0.2998  1.5264
   24SAPC  C215 3182   0.617   6.589   9.014 -0.3609 -0.2858 -0.8468
   24SAPC  H15R 3183   0.529   6.645   8.981  1.0345  0.8488 -2.8070
   24SAPC  C216 3184   0.646   6.468   8.925  1.1174  0.5684 -0.0697
   24SAPC  H16R 3185   0.551   6.413   8.912  0.6407  0.5718  2.8241
   24SAPC  H16S 3186   0.722   6.403   8.974  0.0917  0.5728  1.5867
   24SAPC  C217 3187   0.700   6.520   8.792 -0.1527 -0.0940  0.0178
   24SAPC  H17R 3188   0.763   6.609   8.815 -0.5620  0.0187  0.7353
   24SAPC  H17S 3189   0.609   6.560   8.742  0.4857 -0.3930 -1.4470
   24SAPC  C218 3190   0.764   6.402   8.706 -0.7344 -0.4023  0.7425
   24SAPC  H18R 3191   0.688   6.321   8.716 -1.0471 -0.4648 -1.6882
   24SAPC  H18S 3192   0.850   6.365   8.766 -2.6285  0.8871  4.6249
   24SAPC  C219 3193   0.812   6.438   8.564 -0.7656 -0.4391  0.3847
   24SAPC  H19R 3194   0.877   6.528   8.564  0.3623 -1.2203  0.1765
   24SAPC  H19S 3195   0.717   6.475   8.520 -1.2654 -1.6305  0.4292
   24SAPC  C220 3196   0.877   6.318   8.483 -0.0740 -0.4701  0.1461
   24SAPC  H20R 3197   0.878   6.334   8.373 -0.8071  0.0082  0.2013
   24SAPC  H20S 3198   0.817   6.225   8.491 -0.1052 -0.3134  2.3519
   24SAPC  H20T 3199   0.975   6.289   8.526  1.1010 -0.1525 -2.1667
   24SAPC   C33 3200   1.138   7.107  10.050 -0.5951 -0.3766 -0.0869
   24SAPC   H3X 3201   1.210   7.155  10.121 -0.2059 -2.2064  0.8223
   24SAPC   H3Y 3202   1.106   7.185   9.977  1.2263  0.1000 -0.4204
   24SAPC   C34 3203   1.220   7.004   9.970 -0.2073  1.1934  1.0736
   24SAPC   H4X 3204   1.160   6.953   9.892  1.0117  1.1214  0.1637
   24SAPC   H4Y 3205   1.270   6.933  10.039  0.6574 -0.3934 -1.0923
   24SAPC   C35 3206   1.335   7.067   9.886  0.5688 -0.2454 -0.4211
   24SAPC   H5X 3207   1.397   7.117   9.964  1.4255 -0.2130 -1.1120
   24SAPC   H5Y 3208   1.306   7.151   9.820  1.7432  0.7595  0.2944
   24SAPC   C36 3209   1.412   6.965   9.799 -0.1851 -0.7492  0.1130
   24SAPC   H6X 3210   1.434   6.872   9.855 -2.2554 -0.8746  0.7836
   24SAPC   H6Y 3211   1.512   7.012   9.789  0.0942 -0.7189  2.4025
   24SAPC   C37 3212   1.341   6.925   9.667  0.5759 -0.3069  0.0863
   24SAPC   H7X 3213   1.235   6.957   9.676  1.0029  0.7347  1.7569
   24SAPC   H7Y 3214   1.325   6.815   9.659  0.4223 -0.1731 -1.9681
   24SAPC   C38 3215   1.406   6.982   9.537 -0.1716 -0.1984  0.6152
   24SAPC   H8X 3216   1.515   6.958   9.533  0.1234  0.1692  3.8378
   24SAPC   H8Y 3217   1.403   7.093   9.527  0.4281 -0.2832 -0.7217
   24SAPC   C39 3218   1.341   6.927   9.402  0.3930  0.0357 -0.5619
   24SAPC   H9X 3219   1.233   6.949   9.417  0.4644 -0.2005  0.3929
   24SAPC   H9Y 3220   1.347   6.816   9.402  1.7566  0.0811  0.3615
   24SAPC  C310 3221   1.391   7.003   9.281 -0.1824 -0.1541 -0.4390
   24SAPC  H10X 3222   1.501   7.017   9.283 -0.2987  0.7302  0.6329
   24SAPC  H10Y 3223   1.357   7.109   9.292  1.5591  0.6092 -1.8001
   24SAPC  C311 3224   1.332   6.952   9.150 -0.1775  0.1497 -0.0639
   24SAPC  H11X 3225   1.344   7.032   9.073  1.4503 -1.9005 -2.1255
   24SAPC  H11Y 3226   1.224   6.930   9.156 -0.5723  1.3157 -2.0235
   24SAPC  C312 3227   1.398   6.823   9.090 -0.0450 -0.0308 -1.2130
   24SAPC  H12X 3228   1.406   6.746   9.170  1.8517 -0.4199 -1.7117
   24SAPC  H12Y 3229   1.499   6.851   9.054  0.2236 -0.1873 -0.5889
   24SAPC  C313 3230   1.316   6.765   8.978  0.2140 -0.6285  0.1774
   24SAPC  H13X 3231   1.226   6.726   9.030  0.4828 -0.8760  0.4587
   24SAPC  H13Y 3232   1.352   6.665   8.947 -3.1156 -1.6270 -0.9206
   24SAPC  C314 3233   1.304   6.862   8.856 -0.2430 -0.6218 -0.4529
   24SAPC  H14X 3234   1.402   6.908   8.831 -1.5415  2.3199 -0.5999
   24SAPC  H14Y 3235   1.239   6.948   8.883 -2.0113 -1.8701 -0.6164
   24SAPC  C315 3236   1.246   6.800   8.736  0.8526  0.2145  0.1609
   24SAPC  H15X 3237   1.213   6.875   8.661  0.9950 -0.1086 -0.2297
   24SAPC  H15Y 3238   1.153   6.742   8.756  1.3553 -1.6200 -2.2868
   24SAPC  C316 3239   1.345   6.704   8.672 -0.1122  0.8643 -0.8961
   24SAPC  H16X 3240   1.381   6.633   8.749 -0.0824  3.8378  2.0749
   24SAPC  H16Y 3241   1.436   6.761   8.645 -0.4409  1.0266 -1.6940
   24SAPC  C317 3242   1.289   6.618   8.559  0.1230  0.6545  0.3104
   24SAPC  H17X 3243   1.256   6.674   8.469  1.6849 -0.4422 -0.9955
   24SAPC  H17Y 3244   1.192   6.581   8.599  0.1424  0.7727  0.4694
   24SAPC  C318 3245   1.377   6.505   8.511  0.1327  0.3057 -0.1101
   24SAPC  H18X 3246   1.308   6.444   8.448 -1.7848  0.9396  1.2713
   24SAPC  H18Y 3247   1.410   6.445   8.599 -1.0548  0.2277  0.3059
   24SAPC  H18Z 3248   1.474   6.535   8.466 -0.0025  1.1697  0.1725
   25SAPC     N 3249   0.443   0.778   6.054 -0.6131 -0.0628 -0.6786
   25SAPC   C12 3250   0.372   0.650   6.107 -0.0671 -0.4193  0.1054
   25SAPC  H12A 3251   0.425   0.561   6.076 -2.1092 -2.3430  1.8075
   25SAPC  H12B 3252   0.271   0.650   6.067  0.2136  2.0465 -0.8133
   25SAPC   C13 3253   0.379   0.907   6.089  0.8039  0.3019  0.4842
   25SAPC  H13A 3254   0.286   0.930   6.039 -0.1019 -0.5953  1.7021
   25SAPC  H13B 3255   0.355   0.913   6.195 -0.5046 -1.1011  0.2971
   25SAPC  H13C 3256   0.439   0.993   6.062 -1.4129  2.3343  1.5878
   25SAPC   C14 3257   0.581   0.777   6.111 -0.2617 -0.2213 -0.2865
   25SAPC  H14A 3258   0.640   0.692   6.080 -1.1316 -0.9425 -0.0235
   25SAPC  H14B 3259   0.639   0.859   6.072  0.6434 -1.6264 -2.0532
   25SAPC  H14C 3260   0.576   0.798   6.217 -0.4786  2.0828 -0.7042
   25SAPC   C15 3261   0.455   0.759   5.898 -0.5547 -1.1441 -0.4409
   25SAPC  H15A 3262   0.523   0.831   5.857 -1.7846 -0.8310 -2.0186
   25SAPC  H15B 3263   0.490   0.663   5.862  0.7620  0.0176 -2.4055
   25SAPC  H15C 3264   0.359   0.788   5.857  0.6711 -0.5978 -3.1178
   25SAPC   C11 3265   0.354   0.638   6.264  0.1451  0.3972  0.0480
   25SAPC  H11A 3266   0.283   0.556   6.288 -2.8068  2.4531 -1.0123
   25SAPC  H11B 3267   0.313   0.731   6.309  0.1314  0.7125 -0.6045
   25SAPC     P 3268   0.563   0.477   6.305  0.2955 -0.2660  0.0803
   25SAPC   O13 3269   0.535   0.418   6.168 -0.0584 -0.2323 -0.5083
   25SAPC   O14 3270   0.703   0.514   6.331  0.3310 -0.2223 -0.1105
   25SAPC   O12 3271   0.481   0.612   6.326  0.1213 -0.0912 -0.1085
   25SAPC   O11 3272   0.521   0.376   6.420  0.1940  0.0702  0.1575
   25SAPC    C1 3273   0.614   0.280   6.469  0.2124 -0.1260  0.9687
   25SAPC    HA 3274   0.582   0.181   6.431 -0.2353  0.4233 -0.1588
   25SAPC    HB 3275   0.718   0.293   6.431 -0.3173  2.1456  0.0751
   25SAPC    C2 3276   0.625   0.283   6.627  0.1730  0.4339  0.6609
   25SAPC    HS 3277   0.682   0.192   6.655  1.3755  1.1544  0.6091
   25SAPC   O21 3278   0.491   0.290   6.685 -0.7782  0.0512 -0.6148
   25SAPC   C21 3279   0.425   0.180   6.678  0.0661 -0.0282  0.4792
   25SAPC   O22 3280   0.466   0.073   6.637  0.0498 -0.9672  0.1471
   25SAPC   C22 3281   0.289   0.206   6.722  1.4949 -0.3461 -0.9562
   25SAPC   H2R 3282   0.243   0.295   6.676  0.2640  0.1342  1.0706
   25SAPC   H2S 3283   0.232   0.119   6.681 -1.2129 -0.5255  2.5852
   25SAPC    C3 3284   0.706   0.409   6.676 -0.1976 -0.1339  0.4563
   25SAPC    HX 3285   0.646   0.498   6.646  0.5523  0.2359  0.0194
   25SAPC    HY 3286   0.798   0.408   6.614  0.9975  0.2412  2.1379
   25SAPC   O31 3287   0.734   0.415   6.815  0.6343  0.3603 -0.6429
   25SAPC   C31 3288   0.765   0.528   6.872  0.0648  0.4405 -0.9740
   25SAPC   O32 3289   0.765   0.634   6.819 -0.0593 -0.5345 -0.3605
   25SAPC   C32 3290   0.788   0.501   7.020 -0.2470 -1.1083 -0.3555
   25SAPC   H2X 3291   0.865   0.422   7.030  2.3947  1.0904 -1.8028
   25SAPC   H2Y 3292   0.693   0.463   7.064 -1.5574 -0.1396 -2.1699
   25SAPC   C23 3293   0.280   0.211   6.875 -0.6486  0.0242 -0.0281
   25SAPC   H3R 3294   0.183   0.259   6.902  1.1528  3.2500  1.1821
   25SAPC   H3S 3295   0.354   0.286   6.910 -1.6412  2.0701 -1.9988
   25SAPC   C24 3296   0.312   0.077   6.945 -0.3491 -0.4911 -0.7212
   25SAPC   H4R 3297   0.263  -0.011   6.898  2.6885 -1.3153 -2.6783
   25SAPC   H4S 3298   0.266   0.080   7.046 -0.5510 -1.3126 -0.7844
   25SAPC   C25 3299   0.459   0.041   6.963 -0.1108 -0.3153  0.2573
   25SAPC   H5R 3300   0.500  -0.012   6.876  2.3499  2.4655 -0.4596
   25SAPC   C26 3301   0.534   0.069   7.070  0.5721 -0.1317 -1.3539
   25SAPC   H6R 3302   0.640   0.041   7.076  0.1722 -1.3747  2.8798
   25SAPC   C27 3303   0.489   0.166   7.181  0.0667  0.1041 -0.7719
   25SAPC   H7R 3304   0.439   0.102   7.257 -0.6474 -0.6007 -1.8107
   25SAPC   H7S 3305   0.414   0.242   7.149  1.1644  1.1079 -1.0037
   25SAPC   C28 3306   0.603   0.243   7.247  0.4529 -0.0847 -0.1600
   25SAPC   H8R 3307   0.699   0.252   7.194  0.8965 -0.7456  0.5265
   25SAPC   C29 3308   0.600   0.293   7.369  0.2543 -0.0863  0.4795
   25SAPC   H9R 3309   0.686   0.343   7.416  1.3627 -2.6310  1.3142
   25SAPC  C210 3310   0.475   0.305   7.457  0.4500 -0.1520  0.3959
   25SAPC  H10R 3311   0.379   0.292   7.403 -0.6270  1.2842  1.8627
   25SAPC  H10S 3312   0.469   0.404   7.507  2.1924 -0.5652  1.4856
   25SAPC  C211 3313   0.467   0.201   7.569  0.7872 -0.8159  0.3010
   25SAPC  H11R 3314   0.455   0.097   7.536 -0.6923 -1.2745  2.1230
   25SAPC  C212 3315   0.477   0.210   7.699  0.3248 -0.0507 -0.4382
   25SAPC  H12R 3316   0.444   0.123   7.757 -1.1905  0.3134 -0.7254
   25SAPC  C213 3317   0.511   0.329   7.786 -0.9835 -0.1393  0.2012
   25SAPC  H13R 3318   0.432   0.348   7.861  0.7039  1.0329  1.7356
   25SAPC  H13S 3319   0.519   0.424   7.729 -1.4300  0.4080  1.0403
   25SAPC  C214 3320   0.645   0.302   7.858 -0.1935  0.6644 -0.5805
   25SAPC  H14R 3321   0.734   0.347   7.811  1.2314  0.0522  1.4108
   25SAPC  C215 3322   0.662   0.239   7.975  0.1350  0.3067  0.3229
   25SAPC  H15R 3323   0.766   0.228   8.011  1.2581 -1.6264 -3.0263
   25SAPC  C216 3324   0.542   0.193   8.055 -0.3037  0.2009 -0.4071
   25SAPC  H16R 3325   0.571   0.115   8.129 -2.4307 -1.0454 -0.8165
   25SAPC  H16S 3326   0.455   0.151   8.000  0.3532 -1.7206 -0.0669
   25SAPC  C217 3327   0.486   0.309   8.136  0.2318 -0.0522 -0.3551
   25SAPC  H17R 3328   0.426   0.263   8.218  1.6645 -0.1236  0.6992
   25SAPC  H17S 3329   0.418   0.370   8.072 -2.2157 -0.5745  1.5790
   25SAPC  C218 3330   0.573   0.417   8.197 -0.0369  0.7834 -0.3699
   25SAPC  H18R 3331   0.499   0.484   8.245 -0.1976 -0.2492  0.8826
   25SAPC  H18S 3332   0.623   0.476   8.117  0.3452 -0.7233 -1.2758
   25SAPC  C219 3333   0.667   0.376   8.310 -0.8354  0.2002  0.2547
   25SAPC  H19R 3334   0.755   0.332   8.258 -0.2614 -0.6682  1.8621
   25SAPC  H19S 3335   0.643   0.294   8.382  6.1859 -2.4681  0.3849
   25SAPC  C220 3336   0.698   0.502   8.388 -0.7836  0.3146 -0.2120
   25SAPC  H20R 3337   0.601   0.540   8.428 -1.2796 -2.1916  1.1542
   25SAPC  H20S 3338   0.746   0.578   8.322 -0.7986  1.5052  1.0849
   25SAPC  H20T 3339   0.748   0.470   8.482 -0.2553 -0.1488 -0.6423
   25SAPC   C33 3340   0.832   0.626   7.099  0.5062 -0.2163 -0.0584
   25SAPC   H3X 3341   0.917   0.675   7.047  0.4543  0.5519  0.5593
   25SAPC   H3Y 3342   0.875   0.587   7.194  0.5659  1.0602  0.4566
   25SAPC   C34 3343   0.699   0.713   7.116 -0.5464  0.4924 -0.1660
   25SAPC   H4X 3344   0.640   0.651   7.187  0.1151  1.4317  1.2715
   25SAPC   H4Y 3345   0.650   0.722   7.017  1.2759 -1.7991 -1.3744
   25SAPC   C35 3346   0.716   0.859   7.179 -0.0104  0.5223  0.2078
   25SAPC   H5X 3347   0.623   0.918   7.189 -0.1382  0.6817 -1.5933
   25SAPC   H5Y 3348   0.778   0.922   7.110 -0.2725 -0.2517 -0.7582
   25SAPC   C36 3349   0.781   0.855   7.312 -0.2901 -0.1160  0.3414
   25SAPC   H6X 3350   0.851   0.937   7.337 -1.5193  0.9522  0.3764
   25SAPC   H6Y 3351   0.841   0.762   7.323  1.3678  0.8086 -0.5324
   25SAPC   C37 3352   0.681   0.856   7.429 -0.0407 -0.0492  0.1052
   25SAPC   H7X 3353   0.596   0.786   7.418  0.2332 -0.2925 -0.4707
   25SAPC   H7Y 3354   0.644   0.960   7.414  0.7601 -0.1624 -3.6958
   25SAPC   C38 3355   0.756   0.846   7.561  0.2719 -0.5682  0.0408
   25SAPC   H8X 3356   0.828   0.930   7.572  0.0812 -0.4336  0.2594
   25SAPC   H8Y 3357   0.817   0.752   7.559  1.7416  0.3556 -1.7461
   25SAPC   C39 3358   0.662   0.852   7.683  0.4278 -0.0516 -0.2157
   25SAPC   H9X 3359   0.573   0.789   7.665 -0.6661  1.2104  0.4971
   25SAPC   H9Y 3360   0.622   0.955   7.699  0.1665 -0.6422  4.5358
   25SAPC  C310 3361   0.721   0.810   7.813  0.2808 -0.4486 -0.0225
   25SAPC  H10X 3362   0.788   0.891   7.851 -0.9010  0.5195  0.0550
   25SAPC  H10Y 3363   0.779   0.715   7.812  1.6847  0.3280  1.6228
   25SAPC  C311 3364   0.604   0.774   7.914 -0.5202  0.4287 -0.0566
   25SAPC  H11X 3365   0.556   0.676   7.894  1.6727 -1.0617  1.4467
   25SAPC  H11Y 3366   0.528   0.854   7.910 -1.4016 -0.0336  3.5690
   25SAPC  C312 3367   0.649   0.762   8.061 -0.4167 -0.1697 -0.4509
   25SAPC  H12X 3368   0.723   0.680   8.070 -1.8354 -1.6429 -1.4556
   25SAPC  H12Y 3369   0.556   0.743   8.120  0.7919 -2.0623  0.9726
   25SAPC  C313 3370   0.697   0.894   8.131  0.1368 -0.0669  0.3695
   25SAPC  H13X 3371   0.605   0.954   8.143  0.9217  1.2480  0.0795
   25SAPC  H13Y 3372   0.767   0.938   8.057  1.6904 -1.2716  1.0590
   25SAPC  C314 3373   0.757   0.864   8.264  1.0021 -0.2168 -0.3915
   25SAPC  H14X 3374   0.809   0.952   8.306  0.4735 -0.0549 -0.0719
   25SAPC  H14Y 3375   0.826   0.777   8.252  0.6204 -0.9486  2.1965
   25SAPC  C315 3376   0.646   0.841   8.370 -0.3918 -0.7171 -0.4153
   25SAPC  H15X 3377   0.583   0.751   8.356  0.2037 -0.9163 -2.0574
   25SAPC  H15Y 3378   0.571   0.919   8.345 -1.1186 -1.0789  0.5574
   25SAPC  C316 3379   0.705   0.850   8.511  0.2393  0.3788 -0.5705
   25SAPC  H16X 3380   0.783   0.929   8.509  0.1247  0.5060 -0.0265
   25SAPC  H16Y 3381   0.761   0.760   8.544 -0.4168 -0.1029 -0.7279
   25SAPC  C317 3382   0.603   0.876   8.623 -0.5363 -0.4175 -0.0878
   25SAPC  H17X 3383   0.546   0.969   8.602  0.4045  0.6854  1.9105
   25SAPC  H17Y 3384   0.657   0.891   8.719  1.4239  2.1317 -1.4531
   25SAPC  C318 3385   0.491   0.765   8.645 -0.3139 -0.1093 -0.1447
   25SAPC  H18X 3386   0.462   0.776   8.751  2.3298 -0.7521  0.7012
   25SAPC  H18Y 3387   0.542   0.667   8.640  3.2300  1.5767 -0.1499
   25SAPC  H18Z 3388   0.407   0.779   8.573  0.9487  0.8060 -1.5252
   26SAPC     N 3389   1.344   2.447   6.065 -0.6720  0.1030  0.5968
   26SAPC   C12 3390   1.250   2.499   6.179 -0.0532  0.0597  0.0955
   26SAPC  H12A 3391   1.152   2.460   6.158 -0.2337 -0.9912  2.5264
   26SAPC  H12B 3392   1.241   2.607   6.173 -1.1958  0.0022  0.4794
   26SAPC   C13 3393   1.301   2.488   5.928 -0.1974  0.6279  0.1261
   26SAPC  H13A 3394   1.213   2.437   5.892  1.1870 -2.4672  0.8514
   26SAPC  H13B 3395   1.267   2.591   5.925 -0.1811  0.6910  1.6660
   26SAPC  H13C 3396   1.380   2.469   5.856 -0.8255  0.8386 -0.6390
   26SAPC   C14 3397   1.479   2.514   6.090  0.4713 -0.2569 -0.0486
   26SAPC  H14A 3398   1.461   2.615   6.126 -0.4680  0.5493 -2.5581
   26SAPC  H14B 3399   1.528   2.456   6.167 -1.2893 -2.5196 -0.5162
   26SAPC  H14C 3400   1.536   2.517   5.999 -2.7703 -0.2347 -2.2687
   26SAPC   C15 3401   1.361   2.300   6.064 -0.4394 -0.3457 -0.0727
   26SAPC  H15A 3402   1.401   2.271   6.160  0.4467 -0.0087 -0.3352
   26SAPC  H15B 3403   1.267   2.249   6.047 -1.5713  0.9044  2.0146
   26SAPC  H15C 3404   1.437   2.261   5.998  0.5600 -0.5139  1.1325
   26SAPC   C11 3405   1.279   2.461   6.324 -0.6271 -0.7318 -0.2072
   26SAPC  H11A 3406   1.198   2.504   6.387  0.2303  0.1251  0.3369
   26SAPC  H11B 3407   1.375   2.509   6.355  0.6971 -2.0243 -2.0916
   26SAPC     P 3408   1.143   2.238   6.341  0.0371  0.1530 -0.6051
   26SAPC   O13 3409   1.032   2.318   6.287  0.7834  0.1103 -0.4043
   26SAPC   O14 3410   1.165   2.101   6.280  0.9016  0.1528 -0.1066
   26SAPC   O12 3411   1.282   2.322   6.331  0.2809 -0.3247  0.0843
   26SAPC   O11 3412   1.119   2.213   6.498  0.1190  0.3264  0.3400
   26SAPC    C1 3413   1.232   2.195   6.578  0.1279  0.3784 -0.4575
   26SAPC    HA 3414   1.321   2.178   6.515 -0.9531  0.4580 -2.0708
   26SAPC    HB 3415   1.247   2.271   6.658 -3.4076  0.9438 -0.1312
   26SAPC    C2 3416   1.213   2.068   6.664 -0.2483 -0.7046 -0.3057
   26SAPC    HS 3417   1.136   2.090   6.740  0.6725  1.5761  0.0418
   26SAPC   O21 3418   1.341   2.056   6.732  0.0596  0.1412 -0.4969
   26SAPC   C21 3419   1.341   2.022   6.856 -0.5306  0.4548 -1.2142
   26SAPC   O22 3420   1.239   1.996   6.916  0.3481 -0.5535 -0.5779
   26SAPC   C22 3421   1.488   2.005   6.907 -0.1853  0.1342  0.0772
   26SAPC   H2R 3422   1.499   1.909   6.962  2.5496  0.8163  0.8527
   26SAPC   H2S 3423   1.550   2.015   6.816  0.1358 -1.3404  0.1045
   26SAPC    C3 3424   1.171   1.950   6.571 -0.2593  1.1365 -0.4129
   26SAPC    HX 3425   1.249   1.928   6.495 -0.7029 -0.4773 -0.4472
   26SAPC    HY 3426   1.079   1.970   6.511 -0.4956  0.1002 -0.4274
   26SAPC   O31 3427   1.148   1.831   6.648  0.0736 -0.5954 -0.2721
   26SAPC   C31 3428   1.029   1.812   6.707  0.4341 -0.3529 -0.2743
   26SAPC   O32 3429   0.935   1.892   6.710  0.0074  0.1402  0.5631
   26SAPC   C32 3430   1.033   1.671   6.771 -0.0519 -0.2858 -0.6605
   26SAPC   H2X 3431   1.141   1.650   6.790 -0.3989 -1.3566  0.2268
   26SAPC   H2Y 3432   0.992   1.591   6.707  2.5832 -0.6499 -2.0562
   26SAPC   C23 3433   1.518   2.104   7.017 -0.9332  0.0397 -0.1302
   26SAPC   H3R 3434   1.463   2.086   7.112  0.9780 -0.1084  0.9983
   26SAPC   H3S 3435   1.471   2.201   6.990  1.5333  1.4891  0.4784
   26SAPC   C24 3436   1.668   2.129   7.028 -0.1894 -0.4149 -0.4797
   26SAPC   H4R 3437   1.679   2.212   7.101  1.6751 -1.1013  0.0758
   26SAPC   H4S 3438   1.695   2.163   6.926 -0.1262  0.2451 -0.2435
   26SAPC   C25 3439   1.746   2.007   7.058  0.0846  0.4572 -0.1298
   26SAPC   H5R 3440   1.750   1.943   6.968  1.0268 -1.4746  1.2163
   26SAPC   C26 3441   1.802   1.958   7.164 -0.2432 -0.3261 -0.1492
   26SAPC   H6R 3442   1.850   1.859   7.155  1.6578  0.5549 -0.2148
   26SAPC   C27 3443   1.798   2.008   7.306  0.6238  0.3202  0.7051
   26SAPC   H7R 3444   1.711   1.956   7.352  0.1548 -0.9155 -1.4117
   26SAPC   H7S 3445   1.763   2.113   7.296  1.2577  0.3317 -2.8279
   26SAPC   C28 3446   1.922   1.970   7.374 -1.0496  0.2148  0.4823
   26SAPC   H8R 3447   1.941   1.865   7.399  0.5178  0.8219  2.1434
   26SAPC   C29 3448   2.009   2.057   7.424 -0.7698 -0.3491  0.7340
   26SAPC   H9R 3449   2.105   2.023   7.466 -1.5156 -2.3088  0.9415
   26SAPC  C210 3450   2.003   2.211   7.417  0.3164  0.6655 -0.6943
   26SAPC  H10R 3451   1.992   2.240   7.523 -1.3946  1.4025 -1.0318
   26SAPC  H10S 3452   1.916   2.249   7.359  0.0287 -0.1305 -0.8063
   26SAPC  C211 3453   2.128   2.280   7.368  0.5801 -0.3952 -0.5170
   26SAPC  H11R 3454   2.139   2.270   7.259  0.7781  0.3054 -0.5607
   26SAPC  C212 3455   2.218   2.357   7.434 -0.7661 -0.6885  0.0030
   26SAPC  H12R 3456   2.304   2.406   7.386 -0.7948 -1.1898 -0.5595
   26SAPC  C213 3457   2.218   2.381   7.587  0.5928 -0.2517  0.6193
   26SAPC  H13R 3458   2.326   2.393   7.614  0.9763  2.1383 -1.6025
   26SAPC  H13S 3459   2.189   2.296   7.653  1.0959  1.6459  3.4812
   26SAPC  C214 3460   2.135   2.505   7.628 -0.6240 -0.1900 -0.9283
   26SAPC  H14R 3461   2.089   2.561   7.546 -2.0780 -1.4251 -1.0138
   26SAPC  C215 3462   2.123   2.557   7.754 -0.2994  0.6892  0.3027
   26SAPC  H15R 3463   2.047   2.635   7.772 -2.0378 -1.1957  1.6393
   26SAPC  C216 3464   2.188   2.507   7.887  0.0650  0.4900 -0.4453
   26SAPC  H16R 3465   2.266   2.434   7.858  2.9896  2.2628  2.3251
   26SAPC  H16S 3466   2.116   2.455   7.954  0.7044  1.5612  1.1389
   26SAPC  C217 3467   2.253   2.615   7.970  0.2706  0.4954 -0.0346
   26SAPC  H17R 3468   2.322   2.671   7.903  1.3363  0.8296  1.3261
   26SAPC  H17S 3469   2.301   2.561   8.053  2.2462  0.2108 -1.3062
   26SAPC  C218 3470   2.153   2.709   8.040 -0.2257  0.6409 -0.6476
   26SAPC  H18R 3471   2.081   2.639   8.087 -1.2200 -0.7805 -3.9898
   26SAPC  H18S 3472   2.094   2.775   7.972  0.3400 -0.5297 -2.3502
   26SAPC  C219 3473   2.208   2.787   8.160 -1.4252 -0.4183  0.5067
   26SAPC  H19R 3474   2.266   2.720   8.227 -1.2742 -0.2569  0.5372
   26SAPC  H19S 3475   2.124   2.832   8.218 -2.4244 -1.5664 -0.0038
   26SAPC  C220 3476   2.291   2.907   8.110 -0.3517  0.0797 -0.2161
   26SAPC  H20R 3477   2.314   2.963   8.204 -2.9557  0.5612  0.2003
   26SAPC  H20S 3478   2.248   2.978   8.036 -0.6646 -0.6861 -0.7720
   26SAPC  H20T 3479   2.388   2.870   8.070  1.0714  3.0379  0.2348
   26SAPC   C33 3480   0.969   1.669   6.911  0.7600 -0.8962 -0.1173
   26SAPC   H3X 3481   0.966   1.567   6.955  0.0522  0.0745  2.2506
   26SAPC   H3Y 3482   0.867   1.710   6.897  0.6527  0.2123  2.9878
   26SAPC   C34 3483   1.033   1.755   7.017  0.1525 -0.8158 -0.6547
   26SAPC   H4X 3484   0.982   1.854   7.026  1.2789 -0.1266 -1.6027
   26SAPC   H4Y 3485   1.137   1.767   6.981 -0.4813  0.9550 -2.0491
   26SAPC   C35 3486   1.024   1.687   7.158  0.1796 -0.2603  0.0856
   26SAPC   H5X 3487   1.059   1.583   7.140 -1.4172 -0.8644  0.3272
   26SAPC   H5Y 3488   0.923   1.679   7.203 -0.3472 -1.1314 -1.2051
   26SAPC   C36 3489   1.106   1.761   7.268  0.2126  0.8092 -0.9967
   26SAPC   H6X 3490   1.065   1.863   7.285 -0.8841  0.2313 -0.0119
   26SAPC   H6Y 3491   1.211   1.763   7.230  0.6850 -2.4436 -0.1695
   26SAPC   C37 3492   1.103   1.682   7.407 -0.6039  0.1583  0.0481
   26SAPC   H7X 3493   1.138   1.577   7.406 -1.7365 -0.2568 -1.8166
   26SAPC   H7Y 3494   0.995   1.666   7.426 -1.5928  1.3364 -3.6952
   26SAPC   C38 3495   1.162   1.765   7.519  1.0084  0.3873 -0.0393
   26SAPC   H8X 3496   1.086   1.844   7.540 -0.9132 -0.7560 -2.2476
   26SAPC   H8Y 3497   1.257   1.810   7.485  2.1179 -1.4186  0.5182
   26SAPC   C39 3498   1.189   1.680   7.638  0.4947  0.2707  0.1435
   26SAPC   H9X 3499   1.259   1.600   7.606 -1.1911 -0.1158 -3.0124
   26SAPC   H9Y 3500   1.097   1.628   7.675  0.6309  1.4486  2.3160
   26SAPC  C310 3501   1.255   1.747   7.755  0.2785  0.2019 -0.2868
   26SAPC  H10X 3502   1.201   1.836   7.793  0.4298 -0.2182  0.9726
   26SAPC  H10Y 3503   1.361   1.774   7.738  0.7693 -1.5564 -0.2387
   26SAPC  C311 3504   1.275   1.644   7.879  0.3393  0.1691 -0.0287
   26SAPC  H11X 3505   1.338   1.563   7.838 -0.3128  0.5038 -1.7583
   26SAPC  H11Y 3506   1.177   1.601   7.909  0.6982 -0.9000 -0.3435
   26SAPC  C312 3507   1.323   1.695   8.011 -0.4005 -0.1810  0.0715
   26SAPC  H12X 3508   1.273   1.633   8.089  0.9798  0.2431  1.3520
   26SAPC  H12Y 3509   1.285   1.797   8.032 -0.0253 -0.1347  0.5728
   26SAPC  C313 3510   1.470   1.691   8.030  0.1045  0.0339 -0.2299
   26SAPC  H13X 3511   1.514   1.732   7.937  0.4907 -1.1963 -0.6099
   26SAPC  H13Y 3512   1.505   1.585   8.028 -1.1173 -0.3847 -0.0626
   26SAPC  C314 3513   1.517   1.754   8.162 -1.0827 -0.2688 -0.2293
   26SAPC  H14X 3514   1.472   1.706   8.252 -1.8136 -0.3424 -0.6227
   26SAPC  H14Y 3515   1.503   1.864   8.153 -0.0796  0.0548  1.8342
   26SAPC  C315 3516   1.671   1.738   8.159 -0.1665  0.1854  0.2883
   26SAPC  H15X 3517   1.722   1.814   8.096 -0.2640  0.5414  0.6336
   26SAPC  H15Y 3518   1.702   1.639   8.119 -2.7478 -0.8414  0.6313
   26SAPC  C316 3519   1.736   1.738   8.296 -0.2997  0.4488  0.5303
   26SAPC  H16X 3520   1.688   1.669   8.368  2.3584  0.0308  2.0476
   26SAPC  H16Y 3521   1.721   1.838   8.341 -1.8385  0.0653  0.9102
   26SAPC  C317 3522   1.883   1.697   8.296 -0.1813 -0.2484 -0.2766
   26SAPC  H17X 3523   1.942   1.758   8.224 -0.8384  2.1035  1.0608
   26SAPC  H17Y 3524   1.895   1.589   8.272 -0.1360 -0.6490  1.4169
   26SAPC  C318 3525   1.953   1.710   8.437 -0.6067  0.2419  0.4429
   26SAPC  H18X 3526   1.884   1.665   8.513  1.8934 -2.7975  1.1117
   26SAPC  H18Y 3527   1.978   1.813   8.471  3.3401 -0.2704 -0.4949
   26SAPC  H18Z 3528   2.044   1.648   8.435 -1.1345 -0.7072  2.4171
   27SAPC     N 3529   5.133   2.330   6.553 -0.4681  0.4079  0.2987
   27SAPC   C12 3530   5.240   2.285   6.644  0.3634 -0.2886 -0.8328
   27SAPC  H12A 3531   5.207   2.190   6.683 -1.4473  0.8705  0.6244
   27SAPC  H12B 3532   5.245   2.356   6.726  2.3847  0.1588 -1.2730
   27SAPC   C13 3533   4.995   2.284   6.609  0.2145 -0.6320 -0.1430
   27SAPC  H13A 3534   4.916   2.331   6.553 -0.1117  0.8368  1.4841
   27SAPC  H13B 3535   4.980   2.177   6.603  1.2451 -0.8179  0.2130
   27SAPC  H13C 3536   4.976   2.323   6.708 -0.9478 -2.2805  0.3229
   27SAPC   C14 3537   5.130   2.480   6.524 -0.5015 -0.1667 -0.2651
   27SAPC  H14A 3538   5.229   2.515   6.501 -0.7292 -0.5755 -1.9565
   27SAPC  H14B 3539   5.058   2.513   6.450  1.1783  0.4988 -1.6708
   27SAPC  H14C 3540   5.105   2.536   6.613  3.3169  1.2719  0.0793
   27SAPC   C15 3541   5.143   2.265   6.418 -0.4715 -0.1260  0.1135
   27SAPC  H15A 3542   5.052   2.292   6.366 -0.2863 -2.2631 -1.4606
   27SAPC  H15B 3543   5.218   2.322   6.364 -0.6307 -0.0730 -0.0540
   27SAPC  H15C 3544   5.167   2.160   6.406  2.6271  0.4911 -0.1262
   27SAPC   C11 3545   5.377   2.255   6.590 -0.4671 -0.0984  0.1530
   27SAPC  H11A 3546   5.354   2.184   6.508  0.4143  1.7200 -1.7776
   27SAPC  H11B 3547   5.444   2.203   6.661 -0.6504 -1.0930 -0.3852
   27SAPC     P 3548   5.498   2.490   6.636  0.1099 -0.2181  0.1888
   27SAPC   O13 3549   5.638   2.515   6.594  0.0414  0.3166 -0.1564
   27SAPC   O14 3550   5.412   2.613   6.631 -0.5612 -0.2667  0.1322
   27SAPC   O12 3551   5.441   2.375   6.545  0.0825 -0.1523  0.7738
   27SAPC   O11 3552   5.495   2.422   6.775 -0.1961 -0.6526 -0.8950
   27SAPC    C1 3553   5.424   2.478   6.886 -0.4795 -0.1966 -0.4082
   27SAPC    HA 3554   5.451   2.583   6.910 -0.3883 -0.3806  0.3229
   27SAPC    HB 3555   5.314   2.480   6.870 -0.3435  2.2448 -1.5362
   27SAPC    C2 3556   5.435   2.400   7.025  0.3455  0.6330 -0.2745
   27SAPC    HS 3557   5.377   2.306   7.019 -1.6272  1.5313  2.3911
   27SAPC   O21 3558   5.397   2.483   7.136  0.3518 -0.1689 -0.3825
   27SAPC   C21 3559   5.267   2.493   7.157  0.9027  0.6084 -0.7863
   27SAPC   O22 3560   5.182   2.426   7.102 -0.0296  0.5849  0.5558
   27SAPC   C22 3561   5.251   2.587   7.281 -0.7875 -0.1210 -0.4386
   27SAPC   H2R 3562   5.338   2.656   7.288 -1.2661  0.4379  0.1209
   27SAPC   H2S 3563   5.163   2.651   7.257  0.5453  1.2957 -1.7663
   27SAPC    C3 3564   5.583   2.349   7.040  0.0778 -0.6345 -0.3855
   27SAPC    HX 3565   5.643   2.442   7.027 -0.0102 -0.4317  0.6531
   27SAPC    HY 3566   5.600   2.279   6.955 -1.3021 -2.3515  0.6991
   27SAPC   O31 3567   5.604   2.286   7.170  0.1609 -0.7019  0.1700
   27SAPC   C31 3568   5.725   2.275   7.229  1.1488  0.7785 -0.4125
   27SAPC   O32 3569   5.827   2.322   7.188 -0.1721  0.3715 -0.2740
   27SAPC   C32 3570   5.718   2.197   7.364 -0.3207 -0.1896  0.2228
   27SAPC   H2X 3571   5.763   2.099   7.335 -3.5482 -1.0079 -2.7224
   27SAPC   H2Y 3572   5.610   2.185   7.385 -0.1706 -1.3141  0.4129
   27SAPC   C23 3573   5.231   2.528   7.416 -0.5882 -0.8647 -0.0927
   27SAPC   H3R 3574   5.151   2.452   7.414 -1.6295  0.0850 -3.8206
   27SAPC   H3S 3575   5.203   2.613   7.482 -1.8835 -0.1186 -1.5312
   27SAPC   C24 3576   5.361   2.478   7.480 -0.0812 -0.4319  0.6175
   27SAPC   H4R 3577   5.416   2.397   7.427  1.8497  1.6022 -0.6713
   27SAPC   H4S 3578   5.324   2.437   7.577  0.6502  1.1450  1.6030
   27SAPC   C25 3579   5.471   2.584   7.509  0.5335  0.0309  0.4076
   27SAPC   H5R 3580   5.463   2.679   7.454  0.3653  0.1715  0.6737
   27SAPC   C26 3581   5.561   2.580   7.609  0.2261  0.1012 -0.1536
   27SAPC   H6R 3582   5.630   2.665   7.620 -0.0667  0.5341 -1.4416
   27SAPC   C27 3583   5.582   2.460   7.708 -0.5974 -0.0120  0.1122
   27SAPC   H7R 3584   5.691   2.443   7.725 -1.0094  0.1255  3.3968
   27SAPC   H7S 3585   5.547   2.367   7.659  2.1108 -1.1456  0.1317
   27SAPC   C28 3586   5.505   2.460   7.833 -0.4406 -0.1729  0.2729
   27SAPC   H8R 3587   5.402   2.425   7.814 -1.3602  1.6842  1.5851
   27SAPC   C29 3588   5.539   2.501   7.955 -0.2680 -0.0085  0.3750
   27SAPC   H9R 3589   5.457   2.492   8.028 -0.7177 -1.0501 -0.2239
   27SAPC  C210 3590   5.663   2.569   7.999 -0.1399 -0.6913 -0.6532
   27SAPC  H10R 3591   5.643   2.676   8.020  2.3000  0.3211 -2.9672
   27SAPC  H10S 3592   5.734   2.569   7.914  0.3575  0.4599 -0.2508
   27SAPC  C211 3593   5.710   2.497   8.122  0.0024 -0.1928  0.7359
   27SAPC  H11R 3594   5.738   2.391   8.125 -1.4165 -0.6673 -1.0381
   27SAPC  C212 3595   5.724   2.548   8.245  0.4137 -0.3200 -0.1404
   27SAPC  H12R 3596   5.763   2.489   8.330  0.8279  0.2189  0.0531
   27SAPC  C213 3597   5.695   2.688   8.294 -0.3418 -0.2119  0.1811
   27SAPC  H13R 3598   5.763   2.754   8.236  1.7021 -1.7612  0.6473
   27SAPC  H13S 3599   5.723   2.700   8.401 -2.0336 -2.8614  1.0055
   27SAPC  C214 3600   5.547   2.718   8.278  0.0933  0.2584  0.2011
   27SAPC  H14R 3601   5.493   2.635   8.229  1.2092 -0.8441  0.7644
   27SAPC  C215 3602   5.480   2.830   8.310  0.2055  0.5289  0.7807
   27SAPC  H15R 3603   5.370   2.830   8.305  0.2347 -0.8737 -1.7079
   27SAPC  C216 3604   5.546   2.951   8.365 -0.2336 -0.3932  0.2057
   27SAPC  H16R 3605   5.516   3.047   8.317  1.1673  0.2247  0.5187
   27SAPC  H16S 3606   5.656   2.945   8.351 -0.3411  0.0716 -0.8815
   27SAPC  C217 3607   5.531   2.970   8.515 -0.0535 -0.1819  0.1809
   27SAPC  H17R 3608   5.582   2.888   8.571  2.4982  1.3464  0.2335
   27SAPC  H17S 3609   5.423   2.970   8.541 -0.6664 -0.7895 -2.1379
   27SAPC  C218 3610   5.604   3.090   8.572  0.8684  0.1618  0.1642
   27SAPC  H18R 3611   5.546   3.167   8.516 -0.2677 -0.5161  0.3829
   27SAPC  H18S 3612   5.714   3.095   8.557  0.6982 -1.0093 -1.6878
   27SAPC  C219 3613   5.563   3.100   8.718 -0.2342 -0.6575 -0.7230
   27SAPC  H19R 3614   5.627   3.041   8.787 -1.7354  0.4071  1.7190
   27SAPC  H19S 3615   5.459   3.062   8.725 -0.9639  1.1297 -1.2402
   27SAPC  C220 3616   5.565   3.248   8.769 -0.4174  0.7429 -0.0332
   27SAPC  H20R 3617   5.522   3.263   8.870  0.4099  1.2938  0.2495
   27SAPC  H20S 3618   5.510   3.319   8.703 -0.3945 -0.3882 -1.3140
   27SAPC  H20T 3619   5.674   3.265   8.775  0.1164 -2.4682  1.1362
   27SAPC   C33 3620   5.797   2.272   7.468  0.5742  0.2732 -0.8826
   27SAPC   H3X 3621   5.753   2.372   7.488  1.7080  0.4129  1.2541
   27SAPC   H3Y 3622   5.903   2.281   7.436 -0.2615  2.1519 -3.3546
   27SAPC   C34 3623   5.795   2.202   7.606 -0.2125 -0.0049  0.0175
   27SAPC   H4X 3624   5.813   2.093   7.594  1.7897  0.3199 -0.1907
   27SAPC   H4Y 3625   5.694   2.223   7.647 -1.1781 -1.4966 -1.4522
   27SAPC   C35 3626   5.899   2.261   7.699 -0.2832 -0.2334 -0.0596
   27SAPC   H5X 3627   5.880   2.368   7.718 -0.8399 -0.2984 -0.2355
   27SAPC   H5Y 3628   6.000   2.258   7.652 -0.0448  2.0843  0.2180
   27SAPC   C36 3629   5.918   2.187   7.835 -0.1239  0.6994 -0.0508
   27SAPC   H6X 3630   5.899   2.080   7.812  0.6701  0.6420 -0.4656
   27SAPC   H6Y 3631   5.849   2.221   7.915  0.5683  1.4662  0.2382
   27SAPC   C37 3632   6.061   2.209   7.890 -0.2026 -0.0770  0.0245
   27SAPC   H7X 3633   6.099   2.311   7.868 -0.0949  0.0937  0.9634
   27SAPC   H7Y 3634   6.133   2.142   7.838  0.7414  1.3066 -0.5162
   27SAPC   C38 3635   6.073   2.184   8.038  0.1370  0.3714 -0.2051
   27SAPC   H8X 3636   6.014   2.267   8.082  1.1155  0.3615  1.1799
   27SAPC   H8Y 3637   6.183   2.192   8.050  0.3927  0.3015 -2.1880
   27SAPC   C39 3638   6.015   2.046   8.077  0.1091  0.2938 -0.8956
   27SAPC   H9X 3639   5.916   2.022   8.032 -0.3970  1.6143 -0.5231
   27SAPC   H9Y 3640   6.004   2.017   8.184  0.3529  0.6401 -0.7754
   27SAPC  C310 3641   6.098   1.935   8.010 -0.8313  0.9458  0.1677
   27SAPC  H10X 3642   6.093   1.945   7.899 -1.7916  0.3158  0.1357
   27SAPC  H10Y 3643   6.042   1.840   8.026  1.6598 -0.4032  1.4264
   27SAPC  C311 3644   6.249   1.920   8.054  0.9465 -0.2219  0.2055
   27SAPC  H11X 3645   6.298   2.020   8.052 -0.0096  0.2649 -1.7804
   27SAPC  H11Y 3646   6.296   1.853   7.979  2.0278  1.8467 -1.0797
   27SAPC  C312 3647   6.267   1.869   8.199  0.4091  0.3836  0.1186
   27SAPC  H12X 3648   6.244   1.761   8.211 -4.7741  1.3424  1.1452
   27SAPC  H12Y 3649   6.200   1.918   8.273  2.6905  1.3810  1.6528
   27SAPC  C313 3650   6.411   1.885   8.251 -0.2506 -0.4837  0.9077
   27SAPC  H13X 3651   6.425   1.995   8.262  1.4666 -0.5552 -0.2932
   27SAPC  H13Y 3652   6.483   1.858   8.171  0.7502  0.0762  1.5976
   27SAPC  C314 3653   6.459   1.800   8.372  0.7982 -0.4616 -0.7187
   27SAPC  H14X 3654   6.562   1.833   8.397 -0.0533  3.0363 -1.2367
   27SAPC  H14Y 3655   6.462   1.691   8.350  0.6495 -0.4802 -0.6459
   27SAPC  C315 3656   6.375   1.813   8.503 -0.8007 -0.4966  1.0858
   27SAPC  H15X 3657   6.419   1.739   8.572 -0.6697 -1.8469 -0.3774
   27SAPC  H15Y 3658   6.269   1.795   8.475 -1.1723  1.8596  0.7569
   27SAPC  C316 3659   6.369   1.950   8.564 -0.1615 -0.0111 -0.0074
   27SAPC  H16X 3660   6.342   2.026   8.488  1.8835 -1.2082 -2.0686
   27SAPC  H16Y 3661   6.472   1.975   8.597  0.2443 -1.1605 -0.3249
   27SAPC  C317 3662   6.285   1.956   8.691  0.5011 -0.0180 -0.2999
   27SAPC  H17X 3663   6.319   1.881   8.765  0.4104 -1.1021 -1.3255
   27SAPC  H17Y 3664   6.181   1.922   8.667 -0.1225  0.6852  1.2755
   27SAPC  C318 3665   6.286   2.094   8.753  0.2429 -0.0490 -0.2075
   27SAPC  H18X 3666   6.199   2.097   8.823  0.6330 -0.2557  0.2941
   27SAPC  H18Y 3667   6.268   2.169   8.672  3.1769  0.2214 -0.7092
   27SAPC  H18Z 3668   6.381   2.124   8.802  0.4504 -1.1888  0.0974
   28SAPC     N 3669   2.892   5.262   6.274 -0.3658 -0.0881  0.8037
   28SAPC   C12 3670   2.944   5.325   6.405 -0.4262 -0.4902  0.0395
   28SAPC  H12A 3671   2.992   5.244   6.458  0.5236 -0.4599 -0.7475
   28SAPC  H12B 3672   2.858   5.347   6.466 -1.1930  0.1577 -1.2223
   28SAPC   C13 3673   2.775   5.172   6.311 -0.3887  0.5397  0.2833
   28SAPC  H13A 3674   2.816   5.083   6.358  1.6612  0.6132 -1.2372
   28SAPC  H13B 3675   2.706   5.230   6.371 -1.1796 -1.1140  1.0593
   28SAPC  H13C 3676   2.727   5.130   6.224  2.0055  0.2744 -0.9894
   28SAPC   C14 3677   2.838   5.377   6.194  0.0976 -0.2825  0.0372
   28SAPC  H14A 3678   2.912   5.453   6.173  0.4874 -0.5306  0.4843
   28SAPC  H14B 3679   2.801   5.343   6.098  3.0094  3.3631 -2.7084
   28SAPC  H14C 3680   2.746   5.417   6.232  0.7427  1.7966 -0.4824
   28SAPC   C15 3681   2.993   5.197   6.186  0.1427 -0.4365 -0.0838
   28SAPC  H15A 3682   3.065   5.277   6.171 -0.3537  0.5000  2.0847
   28SAPC  H15B 3683   3.047   5.113   6.226  0.5148 -0.4984 -0.7025
   28SAPC  H15C 3684   2.941   5.171   6.095 -1.1844 -2.2830  1.1252
   28SAPC   C11 3685   3.043   5.448   6.403  0.1404 -0.3559  0.4851
   28SAPC  H11A 3686   3.078   5.462   6.507  0.5223  0.4937  0.2567
   28SAPC  H11B 3687   2.990   5.544   6.386  0.1969 -0.5195 -0.7641
   28SAPC     P 3688   3.195   5.532   6.201 -0.1798 -0.5609  0.2786
   28SAPC   O13 3689   3.337   5.574   6.219 -0.2622  0.1052 -0.2143
   28SAPC   O14 3690   3.154   5.477   6.064 -0.4737 -0.6537 -0.5424
   28SAPC   O12 3691   3.159   5.434   6.314 -0.4005 -0.3589  0.1449
   28SAPC   O11 3692   3.116   5.661   6.222  0.1169  0.3961 -0.6865
   28SAPC    C1 3693   3.165   5.787   6.272  0.0639 -0.0402 -0.1239
   28SAPC    HA 3694   3.256   5.824   6.220  0.4389  2.1721  1.9507
   28SAPC    HB 3695   3.093   5.866   6.242  1.4014  1.0287 -0.6037
   28SAPC    C2 3696   3.165   5.799   6.421 -0.4779 -0.2810 -0.3381
   28SAPC    HS 3697   3.222   5.709   6.451  1.5266  1.2145  0.5792
   28SAPC   O21 3698   3.028   5.814   6.470  0.4121  0.4460  0.1528
   28SAPC   C21 3699   3.015   5.751   6.581 -0.0773  0.1340  0.5330
   28SAPC   O22 3700   3.102   5.685   6.637  0.2817  0.3609  0.0883
   28SAPC   C22 3701   2.881   5.787   6.660 -0.4361 -0.4149  0.3128
   28SAPC   H2R 3702   2.797   5.781   6.587  0.4623 -2.4524 -0.6416
   28SAPC   H2S 3703   2.856   5.707   6.732 -1.8971  1.0156  1.4660
   28SAPC    C3 3704   3.254   5.919   6.466  0.3979 -0.1793 -0.1791
   28SAPC    HX 3705   3.209   6.020   6.456  0.4025  0.0162  1.4759
   28SAPC    HY 3706   3.342   5.929   6.398  0.9313 -0.0033  0.5276
   28SAPC   O31 3707   3.309   5.904   6.602 -0.0286 -0.0618 -0.0093
   28SAPC   C31 3708   3.256   5.981   6.693  0.4495 -0.0723  0.8265
   28SAPC   O32 3709   3.176   6.070   6.663 -0.7873  0.1436  0.3939
   28SAPC   C32 3710   3.309   5.953   6.836 -0.5631 -0.3765  0.5339
   28SAPC   H2X 3711   3.398   6.017   6.857 -1.7273  1.1282  1.0863
   28SAPC   H2Y 3712   3.334   5.845   6.835 -3.0375 -1.0228 -1.4962
   28SAPC   C23 3713   2.894   5.922   6.733 -0.8016  0.2538  0.2413
   28SAPC   H3R 3714   2.912   6.005   6.660 -0.5872  0.6079  0.6922
   28SAPC   H3S 3715   2.988   5.922   6.791 -1.8271  4.9259  2.3512
   28SAPC   C24 3716   2.779   5.957   6.826 -0.4242 -0.0327  0.6454
   28SAPC   H4R 3717   2.806   6.061   6.855  1.5847 -0.6290  1.1105
   28SAPC   H4S 3718   2.688   5.970   6.764  0.9703  4.8111 -0.7553
   28SAPC   C25 3719   2.753   5.872   6.950 -0.3949 -0.2359  0.4890
   28SAPC   H5R 3720   2.755   5.767   6.917  2.9726  0.0600 -0.5585
   28SAPC   C26 3721   2.742   5.912   7.077  0.1436  0.1060 -0.6516
   28SAPC   H6R 3722   2.732   5.832   7.152 -0.7622  2.6810  2.2143
   28SAPC   C27 3723   2.762   6.052   7.132  0.4511  0.2715 -0.1210
   28SAPC   H7R 3724   2.668   6.099   7.169  0.6585  0.6133 -0.0277
   28SAPC   H7S 3725   2.781   6.121   7.047 -1.6097  1.5270  0.3520
   28SAPC   C28 3726   2.881   6.052   7.232 -0.0231  0.2823  0.1239
   28SAPC   H8R 3727   2.980   6.034   7.188 -0.1984  2.1646 -1.1195
   28SAPC   C29 3728   2.861   6.058   7.366 -0.3327  0.8603 -0.0588
   28SAPC   H9R 3729   2.952   6.072   7.425  0.6817 -1.2898 -1.0033
   28SAPC  C210 3730   2.725   6.066   7.428 -0.3106 -0.4258  0.1312
   28SAPC  H10R 3731   2.677   5.969   7.403  3.8002 -1.8929 -3.1271
   28SAPC  H10S 3732   2.671   6.154   7.386  1.7798  1.0254  0.3429
   28SAPC  C211 3733   2.696   6.102   7.577  0.7728  0.4219  1.1143
   28SAPC  H11R 3734   2.625   6.185   7.584  1.5085  1.5103 -2.3696
   28SAPC  C212 3735   2.762   6.051   7.680 -0.6428  0.0163 -0.1797
   28SAPC  H12R 3736   2.722   6.078   7.779 -2.2173 -1.0823 -0.4760
   28SAPC  C213 3737   2.878   5.948   7.687  0.3820  0.3403 -0.8185
   28SAPC  H13R 3738   2.921   5.929   7.586 -0.9232 -2.5037 -0.9316
   28SAPC  H13S 3739   2.827   5.852   7.711  0.7990  0.6350  1.5663
   28SAPC  C214 3740   2.982   5.982   7.795 -0.0599 -1.0897 -1.2626
   28SAPC  H14R 3741   3.070   6.037   7.760  1.2675 -2.1116  0.2885
   28SAPC  C215 3742   2.973   5.951   7.921  0.0576  0.2403 -0.4995
   28SAPC  H15R 3743   3.058   5.972   7.987  1.2159 -2.9992 -0.8104
   28SAPC  C216 3744   2.860   5.863   7.976  0.4889 -0.8188  0.1701
   28SAPC  H16R 3745   2.776   5.843   7.906 -1.0750  0.2465  1.6554
   28SAPC  H16S 3746   2.804   5.920   8.053 -0.0970  0.4720 -1.1724
   28SAPC  C217 3747   2.901   5.735   8.037 -0.2054 -0.5642 -0.2271
   28SAPC  H17R 3748   2.964   5.684   7.962 -0.8549 -1.9898  0.1648
   28SAPC  H17S 3749   2.817   5.667   8.062  0.6057 -2.5368 -2.4857
   28SAPC  C218 3750   2.990   5.749   8.163  0.3627 -0.6257 -0.1303
   28SAPC  H18R 3751   2.943   5.812   8.241  1.5192  1.1635 -0.8012
   28SAPC  H18S 3752   3.089   5.795   8.143  0.0552 -0.8333 -2.3671
   28SAPC  C219 3753   3.015   5.615   8.242  0.0588  0.3237 -0.6526
   28SAPC  H19R 3754   3.088   5.557   8.181  1.9170  2.5569 -0.6882
   28SAPC  H19S 3755   2.916   5.565   8.249  1.5107 -2.5267  1.8832
   28SAPC  C220 3756   3.068   5.633   8.376 -0.0845 -0.2656  0.0250
   28SAPC  H20R 3757   3.090   5.533   8.420 -1.0187 -1.2874 -1.7414
   28SAPC  H20S 3758   3.006   5.695   8.443 -1.4604 -1.2767 -0.2720
   28SAPC  H20T 3759   3.165   5.687   8.363 -1.0011  1.2331 -0.9336
   28SAPC   C33 3760   3.205   5.968   6.953  0.2656 -0.7835 -0.6530
   28SAPC   H3X 3761   3.185   5.868   6.996  2.8255 -0.7087  0.8686
   28SAPC   H3Y 3762   3.122   6.023   6.902  1.1496  0.7795 -0.4803
   28SAPC   C34 3763   3.247   6.062   7.068  0.6190  0.0387 -0.0929
   28SAPC   H4X 3764   3.154   6.072   7.128  0.9921  1.0115  0.3566
   28SAPC   H4Y 3765   3.280   6.161   7.029 -0.0858  0.2746 -0.1147
   28SAPC   C35 3766   3.353   6.009   7.167  0.0857  0.2982  0.0106
   28SAPC   H5X 3767   3.447   6.019   7.109 -0.7907 -0.4942 -1.6211
   28SAPC   H5Y 3768   3.346   5.900   7.186  0.7992 -0.4248 -3.3087
   28SAPC   C36 3769   3.348   6.087   7.301  0.1811 -0.1832  0.2279
   28SAPC   H6X 3770   3.243   6.111   7.327 -0.0319  2.4960 -2.5734
   28SAPC   H6Y 3771   3.404   6.182   7.291  1.2811 -0.7247  0.9983
   28SAPC   C37 3772   3.426   6.019   7.418 -0.3691 -0.3679  0.1745
   28SAPC   H7X 3773   3.529   6.059   7.415 -0.2197 -0.7413  0.2041
   28SAPC   H7Y 3774   3.427   5.910   7.397  0.5887 -0.8694  2.4640
   28SAPC   C38 3775   3.370   6.059   7.556  0.6542  0.7663 -0.8408
   28SAPC   H8X 3776   3.261   6.043   7.544  0.8075  0.6245 -2.1133
   28SAPC   H8Y 3777   3.387   6.168   7.571 -1.5750  1.1145 -0.4046
   28SAPC   C39 3778   3.427   5.985   7.675 -0.0699 -0.0583 -0.1298
   28SAPC   H9X 3779   3.536   6.002   7.669 -0.2302  0.7122 -0.8693
   28SAPC   H9Y 3780   3.414   5.875   7.660  0.7746 -0.3680  1.2294
   28SAPC  C310 3781   3.367   6.030   7.806 -0.3887 -0.3535  0.2244
   28SAPC  H10X 3782   3.260   6.006   7.821  0.1484 -2.6475  0.7161
   28SAPC  H10Y 3783   3.368   6.141   7.798  1.2858 -0.3652 -0.2868
   28SAPC  C311 3784   3.452   5.990   7.921  0.0215 -0.1546 -0.6480
   28SAPC  H11X 3785   3.553   6.037   7.914  0.5554 -1.4081 -1.6862
   28SAPC  H11Y 3786   3.483   5.885   7.904  0.9304  0.2070 -1.3483
   28SAPC  C312 3787   3.376   6.006   8.054  0.2731  0.1514  0.8617
   28SAPC  H12X 3788   3.288   5.939   8.061  0.6725 -0.3933  0.7681
   28SAPC  H12Y 3789   3.336   6.109   8.059 -2.1549 -0.7162  0.7936
   28SAPC  C313 3790   3.459   5.982   8.184 -0.3407 -0.3100  0.4669
   28SAPC  H13X 3791   3.407   6.023   8.273 -0.5279 -2.5349  1.4555
   28SAPC  H13Y 3792   3.550   6.043   8.171 -1.0071  0.4599 -0.8447
   28SAPC  C314 3793   3.495   5.837   8.197  0.8191  0.7910  0.5402
   28SAPC  H14X 3794   3.558   5.804   8.112 -0.9105 -1.1049 -0.0953
   28SAPC  H14Y 3795   3.399   5.782   8.189  1.6764 -0.7666  0.5646
   28SAPC  C315 3796   3.550   5.804   8.338  0.3524  0.2186  1.0684
   28SAPC  H15X 3797   3.480   5.863   8.401 -1.9202 -0.2104 -0.9031
   28SAPC  H15Y 3798   3.657   5.836   8.338  0.2880  0.4470  0.7430
   28SAPC  C316 3799   3.555   5.649   8.360  0.1305 -0.2712 -0.5030
   28SAPC  H16X 3800   3.621   5.598   8.286 -1.1615 -0.8119 -1.3281
   28SAPC  H16Y 3801   3.450   5.615   8.346  0.1466  0.1621 -1.8923
   28SAPC  C317 3802   3.617   5.603   8.497  0.1321  0.1317  0.2730
   28SAPC  H17X 3803   3.567   5.663   8.576 -0.0076  1.9018 -1.0926
   28SAPC  H17Y 3804   3.718   5.646   8.511 -1.0362  2.4158  2.3418
   28SAPC  C318 3805   3.601   5.458   8.530  0.6376 -0.3773  0.6722
   28SAPC  H18X 3806   3.677   5.424   8.604  1.5996  0.8950  0.2863
   28SAPC  H18Y 3807   3.621   5.406   8.434  1.0951  2.7578 -1.0500
   28SAPC  H18Z 3808   3.496   5.432   8.556  0.1363  0.4842 -0.4166
   29SAPC     N 3809   0.492   3.377   5.900  0.0149 -0.2801 -0.3728
   29SAPC   C12 3810   0.528   3.336   6.045  0.2701 -0.1892 -0.1496
   29SAPC  H12A 3811   0.473   3.395   6.117  0.2727 -1.4947  0.9510
   29SAPC  H12B 3812   0.634   3.353   6.046  0.1109  0.8810 -0.1594
   29SAPC   C13 3813   0.347   3.367   5.873  0.0204  0.1373  0.4583
   29SAPC  H13A 3814   0.330   3.373   5.767  1.5710 -1.1175  0.1087
   29SAPC  H13B 3815   0.303   3.276   5.910 -1.3672  0.2251 -0.8970
   29SAPC  H13C 3816   0.299   3.450   5.923  0.5658  1.9047 -1.7958
   29SAPC   C14 3817   0.536   3.521   5.876  1.0095  1.2122 -0.4395
   29SAPC  H14A 3818   0.504   3.560   5.781 -1.4442  2.0383  0.6575
   29SAPC  H14B 3819   0.502   3.586   5.955 -1.9294  0.0605 -0.6436
   29SAPC  H14C 3820   0.644   3.515   5.867  1.0543  0.1220  0.5993
   29SAPC   C15 3821   0.566   3.289   5.799 -0.4733  0.5144  0.7176
   29SAPC  H15A 3822   0.671   3.314   5.798  0.2748 -1.3079 -4.8803
   29SAPC  H15B 3823   0.556   3.182   5.813  0.1261  0.5924  1.8912
   29SAPC  H15C 3824   0.533   3.304   5.697  1.8969  0.4200 -0.1341
   29SAPC   C11 3825   0.500   3.188   6.088 -0.2372  0.5151 -0.0114
   29SAPC  H11A 3826   0.413   3.157   6.026  0.3022  0.8296 -0.9400
   29SAPC  H11B 3827   0.475   3.177   6.196 -1.7487  1.8263 -0.1823
   29SAPC     P 3828   0.743   3.094   6.143  0.3141  0.2488 -0.4237
   29SAPC   O13 3829   0.819   2.971   6.108  0.1762  0.0223  0.3123
   29SAPC   O14 3830   0.810   3.224   6.114 -0.0619 -0.0241 -0.7952
   29SAPC   O12 3831   0.608   3.095   6.060 -0.0505 -0.1483  0.5409
   29SAPC   O11 3832   0.700   3.087   6.295  0.0143 -0.1143  0.1252
   29SAPC    C1 3833   0.601   3.002   6.358 -0.2388 -0.8907  0.6307
   29SAPC    HA 3834   0.522   3.071   6.394  0.4872  0.5663 -0.4229
   29SAPC    HB 3835   0.559   2.933   6.282  1.9080 -1.7018  0.1149
   29SAPC    C2 3836   0.656   2.920   6.473  0.2464 -0.3959 -0.1711
   29SAPC    HS 3837   0.565   2.870   6.513  0.4740 -0.5227  0.1990
   29SAPC   O21 3838   0.734   2.994   6.571 -0.1213 -0.5865 -0.3661
   29SAPC   C21 3839   0.670   3.071   6.659  1.0080 -0.4386 -0.4394
   29SAPC   O22 3840   0.545   3.091   6.651 -0.2433  0.2320  0.0060
   29SAPC   C22 3841   0.767   3.127   6.768 -0.3954  0.3869 -0.1311
   29SAPC   H2R 3842   0.837   3.192   6.712 -2.3087  1.5089 -1.3764
   29SAPC   H2S 3843   0.698   3.173   6.842 -0.2573  1.8106 -0.8477
   29SAPC    C3 3844   0.755   2.817   6.410 -0.0595 -0.2211 -0.2743
   29SAPC    HX 3845   0.833   2.873   6.354  1.1497 -1.4192  0.1491
   29SAPC    HY 3846   0.689   2.770   6.334 -2.0360 -1.4558  2.0625
   29SAPC   O31 3847   0.805   2.721   6.504 -0.1808 -0.8180 -0.1812
   29SAPC   C31 3848   0.926   2.743   6.549 -0.8521 -0.0741 -0.8717
   29SAPC   O32 3849   1.010   2.823   6.510  0.1217  0.2003  0.4306
   29SAPC   C32 3850   0.957   2.644   6.661 -0.3540 -0.1460 -0.1123
   29SAPC   H2X 3851   0.952   2.701   6.757  2.7384  2.7436 -1.4295
   29SAPC   H2Y 3852   1.065   2.617   6.654 -0.3184  0.0690 -0.4165
   29SAPC   C23 3853   0.856   3.013   6.821 -0.0943  0.5813  0.4812
   29SAPC   H3R 3854   0.910   2.983   6.729 -1.1046  2.9868 -0.9796
   29SAPC   H3S 3855   0.800   2.925   6.860 -1.4183  1.1140 -0.1649
   29SAPC   C24 3856   0.957   3.044   6.927 -0.1224 -0.3826 -1.0087
   29SAPC   H4R 3857   0.910   3.049   7.027  0.2395 -2.7791 -0.6504
   29SAPC   H4S 3858   1.013   3.138   6.907  1.6708 -0.3336  3.2332
   29SAPC   C25 3859   1.064   2.936   6.944  0.4692  0.7261  0.7215
   29SAPC   H5R 3860   1.149   2.958   6.877 -0.8745  1.0560 -0.9538
   29SAPC   C26 3861   1.065   2.829   7.034 -0.1658 -0.5348 -1.0706
   29SAPC   H6R 3862   1.153   2.763   7.042 -0.0103 -0.4666 -2.0836
   29SAPC   C27 3863   0.969   2.806   7.145 -0.3671  0.0919  0.6866
   29SAPC   H7R 3864   0.934   2.701   7.139 -2.5434  0.8376 -1.2794
   29SAPC   H7S 3865   0.881   2.871   7.126 -0.3293 -0.0805 -0.0888
   29SAPC   C28 3866   1.046   2.853   7.269 -0.4091  0.2681 -0.7672
   29SAPC   H8R 3867   1.080   2.958   7.267 -3.1301  1.1986 -1.3165
   29SAPC   C29 3868   1.082   2.771   7.377 -0.3346  0.1575 -0.3433
   29SAPC   H9R 3869   1.145   2.812   7.457 -1.2214  1.7986 -0.4410
   29SAPC  C210 3870   1.051   2.619   7.386  0.5214 -0.5922  0.6328
   29SAPC  H10R 3871   1.143   2.557   7.381 -0.0287 -1.3845 -0.0689
   29SAPC  H10S 3872   0.994   2.594   7.294  1.1189 -0.3402  0.1889
   29SAPC  C211 3873   0.957   2.598   7.502 -0.5091 -0.1662 -0.0412
   29SAPC  H11R 3874   0.850   2.615   7.483 -0.6316  0.5907  1.2624
   29SAPC  C212 3875   0.997   2.559   7.632 -0.0192 -0.0706 -0.3661
   29SAPC  H12R 3876   0.913   2.554   7.701 -1.9727  2.5910 -2.3084
   29SAPC  C213 3877   1.144   2.552   7.670  0.6122  0.3075  0.0493
   29SAPC  H13R 3878   1.189   2.653   7.652  2.5425 -0.8066 -2.0240
   29SAPC  H13S 3879   1.186   2.486   7.591 -0.1160  1.5300 -1.4173
   29SAPC  C214 3880   1.167   2.486   7.804  0.8093  0.2440 -0.1414
   29SAPC  H14R 3881   1.135   2.382   7.819  1.5179 -0.2571 -1.9440
   29SAPC  C215 3882   1.240   2.541   7.897  0.0981  1.3059  0.1956
   29SAPC  H15R 3883   1.249   2.500   7.999 -1.0352 -0.3058 -0.3190
   29SAPC  C216 3884   1.309   2.670   7.879 -0.2839 -0.6744 -0.4801
   29SAPC  H16R 3885   1.342   2.687   7.774  0.5550 -0.7777 -0.2362
   29SAPC  H16S 3886   1.404   2.667   7.936 -0.0721  0.7841 -0.6971
   29SAPC  C217 3887   1.238   2.797   7.941  0.7060  0.0416 -0.3483
   29SAPC  H17R 3888   1.153   2.827   7.877 -0.0350  1.3988  1.1880
   29SAPC  H17S 3889   1.312   2.880   7.933  2.6094 -1.5878 -0.6374
   29SAPC  C218 3890   1.180   2.775   8.087 -0.6329  0.0124  0.9068
   29SAPC  H18R 3891   1.257   2.744   8.160  2.5893  1.5843 -1.5491
   29SAPC  H18S 3892   1.101   2.697   8.080 -1.4999  0.7701  1.9299
   29SAPC  C219 3893   1.119   2.905   8.155  0.2294  0.9186  0.4666
   29SAPC  H19R 3894   1.044   2.956   8.090 -0.3205  1.1104  1.2427
   29SAPC  H19S 3895   1.202   2.976   8.176  0.6098  0.9462 -0.9807
   29SAPC  C220 3896   1.044   2.874   8.282 -0.6264 -0.5113 -0.1011
   29SAPC  H20R 3897   1.114   2.812   8.341 -0.1268 -0.4619 -0.6393
   29SAPC  H20S 3898   0.950   2.815   8.275 -0.9336 -0.3946  2.1976
   29SAPC  H20T 3899   1.026   2.959   8.352 -0.0883 -2.1606  2.1602
   29SAPC   C33 3900   0.871   2.509   6.643 -0.0614  0.8242 -0.0984
   29SAPC   H3X 3901   0.875   2.473   6.537  0.1095  0.9896 -0.1487
   29SAPC   H3Y 3902   0.769   2.521   6.683  0.7456 -0.6038  2.6855
   29SAPC   C34 3903   0.932   2.397   6.728 -0.9547  0.3009  0.2048
   29SAPC   H4X 3904   1.012   2.360   6.660 -0.4264 -0.3587  1.1570
   29SAPC   H4Y 3905   0.858   2.315   6.724 -0.7757  0.0604  1.2839
   29SAPC   C35 3906   0.957   2.426   6.871  0.6075  0.3378  1.1177
   29SAPC   H5X 3907   0.860   2.420   6.925  0.3820 -0.6682  0.6399
   29SAPC   H5Y 3908   0.993   2.528   6.895 -1.3180  1.8073 -1.7107
   29SAPC   C36 3909   1.049   2.324   6.943  1.2189  0.4756 -0.2398
   29SAPC   H6X 3910   1.153   2.327   6.904  0.8609 -0.9347 -1.3945
   29SAPC   H6Y 3911   1.019   2.218   6.924 -1.7674  0.9146  1.4326
   29SAPC   C37 3912   1.050   2.310   7.098  0.4864  0.2896  0.4938
   29SAPC   H7X 3913   0.949   2.282   7.134  0.1555  1.9302  0.9360
   29SAPC   H7Y 3914   1.062   2.413   7.140 -0.3729  1.2567 -1.5244
   29SAPC   C38 3915   1.159   2.207   7.150  0.2679 -0.3163 -0.1890
   29SAPC   H8X 3916   1.252   2.194   7.092  0.5905 -2.3611  0.7127
   29SAPC   H8Y 3917   1.101   2.113   7.137 -1.9535  0.9410  0.1052
   29SAPC   C39 3918   1.195   2.229   7.298  0.5613 -0.1756  0.4751
   29SAPC   H9X 3919   1.099   2.225   7.355 -0.5553 -1.2294 -1.3696
   29SAPC   H9Y 3920   1.240   2.330   7.313 -0.5406  0.6376 -1.2523
   29SAPC  C310 3921   1.288   2.116   7.353 -0.3601  0.2031  0.2260
   29SAPC  H10X 3922   1.386   2.117   7.300 -0.1482 -0.3899  0.5903
   29SAPC  H10Y 3923   1.240   2.022   7.316 -0.6326  0.0485  0.9575
   29SAPC  C311 3924   1.306   2.103   7.503 -0.4063  0.4561 -0.4742
   29SAPC  H11X 3925   1.360   2.012   7.536 -0.0642  0.6354 -0.5379
   29SAPC  H11Y 3926   1.205   2.095   7.550 -0.3890  0.2866 -0.4673
   29SAPC  C312 3927   1.375   2.232   7.555 -0.5934 -0.0495  0.1534
   29SAPC  H12X 3928   1.294   2.308   7.561  1.3031  2.1447 -0.8960
   29SAPC  H12Y 3929   1.448   2.267   7.479 -1.8952  0.7685 -0.7652
   29SAPC  C313 3930   1.464   2.235   7.674 -0.2370  0.8386 -0.0279
   29SAPC  H13X 3931   1.511   2.332   7.699 -1.4054  2.4127 -3.3428
   29SAPC  H13Y 3932   1.551   2.170   7.649 -0.5802  0.6838 -0.8293
   29SAPC  C314 3933   1.397   2.168   7.802  0.1938  0.0785  0.6838
   29SAPC  H14X 3934   1.330   2.086   7.768  0.7918 -1.8380  3.6970
   29SAPC  H14Y 3935   1.340   2.247   7.855 -0.6118 -0.4747  0.6609
   29SAPC  C315 3936   1.493   2.099   7.903 -0.4858 -0.3040 -0.3319
   29SAPC  H15X 3937   1.559   2.028   7.850  3.0637  0.8048  2.2183
   29SAPC  H15Y 3938   1.430   2.042   7.974  1.1436 -2.3053 -0.3898
   29SAPC  C316 3939   1.572   2.205   7.976  0.3306  0.5293 -0.2213
   29SAPC  H16X 3940   1.501   2.286   8.003  1.2542  2.2228 -2.5403
   29SAPC  H16Y 3941   1.654   2.250   7.916  0.9147 -0.1387  0.0590
   29SAPC  C317 3942   1.636   2.149   8.107 -0.4097  0.6797  0.1766
   29SAPC  H17X 3943   1.725   2.086   8.083 -0.5944  1.1489 -1.9641
   29SAPC  H17Y 3944   1.555   2.085   8.147 -1.2859  0.3350 -1.9995
   29SAPC  C318 3945   1.676   2.250   8.212  0.6090 -0.0580 -0.5234
   29SAPC  H18X 3946   1.594   2.298   8.270 -1.4340 -2.0386 -1.5731
   29SAPC  H18Y 3947   1.734   2.337   8.174 -1.1540  0.9725 -0.9831
   29SAPC  H18Z 3948   1.739   2.182   8.273 -1.1749 -1.5320 -0.2357
   30SAPC     N 3949   1.687   3.247   6.215 -0.1970  0.3168  0.9733
   30SAPC   C12 3950   1.572   3.257   6.120 -0.2235  0.2818 -1.2576
   30SAPC  H12A 3951   1.601   3.227   6.021  1.7345 -0.6874 -0.4407
   30SAPC  H12B 3952   1.542   3.361   6.124  1.2935  0.7544 -1.4972
   30SAPC   C13 3953   1.745   3.113   6.206 -0.2236  0.8969 -0.3167
   30SAPC  H13A 3954   1.827   3.099   6.276 -0.2855  1.7177 -0.0725
   30SAPC  H13B 3955   1.675   3.036   6.234  0.3643  0.7389  0.7857
   30SAPC  H13C 3956   1.788   3.096   6.109  1.7505  3.1548  0.0464
   30SAPC   C14 3957   1.794   3.348   6.162 -0.3159 -0.1486 -0.8276
   30SAPC  H14A 3958   1.804   3.343   6.054 -1.3265  1.3982 -1.0344
   30SAPC  H14B 3959   1.764   3.449   6.186  0.6761 -0.6412  3.1011
   30SAPC  H14C 3960   1.878   3.330   6.226 -1.1031  2.3820  1.0737
   30SAPC   C15 3961   1.652   3.282   6.350  0.1567 -0.3473 -0.3966
   30SAPC  H15A 3962   1.556   3.249   6.387 -0.1552  2.0161  1.1987
   30SAPC  H15B 3963   1.725   3.247   6.421  0.9968 -0.0907 -1.1244
   30SAPC  H15C 3964   1.642   3.389   6.364 -0.9613 -0.6341  1.3140
   30SAPC   C11 3965   1.457   3.160   6.165  0.1354 -0.2503 -0.2344
   30SAPC  H11A 3966   1.377   3.185   6.091  1.3648  2.2247 -0.8533
   30SAPC  H11B 3967   1.426   3.181   6.269  0.0450 -2.1796  0.1500
   30SAPC     P 3968   1.389   2.919   6.210 -0.5217 -0.4332 -0.3729
   30SAPC   O13 3969   1.268   2.924   6.128 -0.1913 -0.5377  0.0523
   30SAPC   O14 3970   1.459   2.786   6.224 -0.3360  0.1668 -0.2123
   30SAPC   O12 3971   1.493   3.026   6.157 -0.5308 -0.1168 -0.3128
   30SAPC   O11 3972   1.350   2.968   6.356  0.1832 -0.7036 -0.2654
   30SAPC    C1 3973   1.429   2.974   6.470 -0.0390 -0.5819 -0.1589
   30SAPC    HA 3974   1.531   2.951   6.432 -0.0822  1.8638 -2.0264
   30SAPC    HB 3975   1.434   3.077   6.511  0.3245 -0.7187  0.1446
   30SAPC    C2 3976   1.374   2.879   6.585  0.1998 -0.1380  0.6364
   30SAPC    HS 3977   1.274   2.920   6.611 -0.4114  0.2210 -2.0121
   30SAPC   O21 3978   1.470   2.880   6.693  0.6012  0.1407  0.3138
   30SAPC   C21 3979   1.454   2.973   6.788  0.2677 -0.5323 -0.1936
   30SAPC   O22 3980   1.364   3.056   6.791 -0.6226 -0.2089  0.4062
   30SAPC   C22 3981   1.557   2.945   6.892  0.1367 -0.1956 -0.8468
   30SAPC   H2R 3982   1.564   2.837   6.913  1.6213  0.3219  1.6324
   30SAPC   H2S 3983   1.656   2.987   6.863 -0.2748  2.1102  0.7574
   30SAPC    C3 3984   1.354   2.749   6.519  0.6052 -0.0212 -0.4862
   30SAPC    HX 3985   1.452   2.720   6.476  1.0251 -0.1751  0.5349
   30SAPC    HY 3986   1.273   2.764   6.445 -0.3843  1.6247  0.8642
   30SAPC   O31 3987   1.322   2.651   6.616  0.3430  0.5825 -0.3911
   30SAPC   C31 3988   1.400   2.548   6.647  0.3199 -0.7696 -0.9631
   30SAPC   O32 3989   1.502   2.518   6.589  0.2095  0.7149 -0.4344
   30SAPC   C32 3990   1.345   2.486   6.771  0.3754  0.6553 -0.9346
   30SAPC   H2X 3991   1.398   2.389   6.777  1.5523  1.2608 -1.2275
   30SAPC   H2Y 3992   1.238   2.458   6.763  0.7479 -0.8316 -1.0846
   30SAPC   C23 3993   1.513   3.000   7.034 -0.0541 -0.2586 -0.6192
   30SAPC   H3R 3994   1.405   2.976   7.049  0.1734 -0.7374  0.3052
   30SAPC   H3S 3995   1.514   3.111   7.037  0.8799 -0.2776 -0.0504
   30SAPC   C24 3996   1.593   2.944   7.150 -0.2624  0.0767 -0.2124
   30SAPC   H4R 3997   1.696   2.943   7.109  0.7313 -0.4917  2.1526
   30SAPC   H4S 3998   1.555   2.841   7.163  2.2072 -1.2328 -2.4175
   30SAPC   C25 3999   1.592   3.037   7.268  0.6180 -0.2962  0.4259
   30SAPC   H5R 4000   1.653   3.128   7.259 -0.8810  0.7871  0.8123
   30SAPC   C26 4001   1.520   3.038   7.382  0.6741  0.3629 -0.5978
   30SAPC   H6R 4002   1.528   3.119   7.456  0.4495  0.6237 -0.8572
   30SAPC   C27 4003   1.414   2.935   7.418 -0.3833 -0.7271 -0.8263
   30SAPC   H7R 4004   1.443   2.833   7.384 -0.4197 -0.4443 -1.7287
   30SAPC   H7S 4005   1.320   2.949   7.360 -2.2113 -2.8028  1.3931
   30SAPC   C28 4006   1.366   2.919   7.561  0.2151 -0.0136 -0.4676
   30SAPC   H8R 4007   1.409   2.829   7.607 -0.4164  0.0789  0.3178
   30SAPC   C29 4008   1.281   2.995   7.624 -0.3453  0.7890  0.0524
   30SAPC   H9R 4009   1.256   2.967   7.727  0.1252  1.3066  0.3093
   30SAPC  C210 4010   1.213   3.122   7.577 -0.9946 -0.0323  0.3500
   30SAPC  H10R 4011   1.252   3.138   7.474  1.2369 -1.5748  0.8670
   30SAPC  H10S 4012   1.242   3.202   7.649  0.4921 -0.1953 -0.0328
   30SAPC  C211 4013   1.064   3.110   7.575 -0.4102 -1.0162 -0.2192
   30SAPC  H11R 4014   1.016   3.063   7.488 -0.3718  0.6654 -1.1886
   30SAPC  C212 4015   0.980   3.135   7.677 -0.4645  0.2552  0.0868
   30SAPC  H12R 4016   0.875   3.102   7.670 -0.7240  1.1803 -0.5090
   30SAPC  C213 4017   1.022   3.190   7.815  0.6855  0.1438 -0.4282
   30SAPC  H13R 4018   1.033   3.300   7.813  2.0745  0.0510  0.7508
   30SAPC  H13S 4019   1.124   3.154   7.838 -0.6812 -4.0685 -0.1392
   30SAPC  C214 4020   0.921   3.143   7.916  0.3220 -0.9716  0.3258
   30SAPC  H14R 4021   0.861   3.053   7.895 -2.6192  0.3940  2.2812
   30SAPC  C215 4022   0.898   3.213   8.027 -0.2226 -0.7663  0.0583
   30SAPC  H15R 4023   0.832   3.163   8.099 -0.9601  0.9712  0.6504
   30SAPC  C216 4024   0.971   3.332   8.083  0.3712  0.1221  0.3142
   30SAPC  H16R 4025   0.939   3.427   8.036 -1.9190 -0.0501  1.4205
   30SAPC  H16S 4026   1.081   3.314   8.076  0.2906 -0.2140 -0.1694
   30SAPC  C217 4027   0.932   3.355   8.232  0.3463  0.5756  0.2999
   30SAPC  H17R 4028   0.822   3.358   8.239  0.1549  2.9891 -1.8927
   30SAPC  H17S 4029   0.968   3.456   8.261 -0.4481  0.4384  1.8201
   30SAPC  C218 4030   0.986   3.258   8.338 -0.5668  0.3871  0.2869
   30SAPC  H18R 4031   1.094   3.282   8.350 -0.9291  1.3286  2.0804
   30SAPC  H18S 4032   0.979   3.154   8.301  0.7753 -0.3657  2.0197
   30SAPC  C219 4033   0.924   3.278   8.481  0.2483 -0.9793 -0.7883
   30SAPC  H19R 4034   0.813   3.270   8.481  0.2308 -0.8469  0.1966
   30SAPC  H19S 4035   0.947   3.381   8.515 -1.3338  0.5657 -3.9899
   30SAPC  C220 4036   0.988   3.181   8.582 -0.0512 -0.2063 -0.4831
   30SAPC  H20R 4037   1.089   3.217   8.609 -0.7055 -0.2292  2.2506
   30SAPC  H20S 4038   0.996   3.076   8.548  0.3984 -0.4743  0.4403
   30SAPC  H20T 4039   0.920   3.170   8.669  0.1004 -0.6272 -0.4172
   30SAPC   C33 4040   1.377   2.569   6.900 -0.5140 -0.2833  0.6369
   30SAPC   H3X 4041   1.276   2.606   6.930 -0.2730  1.1271 -0.1926
   30SAPC   H3Y 4042   1.445   2.655   6.888  1.0813 -1.3473  1.7017
   30SAPC   C34 4043   1.438   2.478   7.008  0.2171 -0.4736 -0.3528
   30SAPC   H4X 4044   1.515   2.411   6.964 -1.1805 -0.8507 -2.3518
   30SAPC   H4Y 4045   1.353   2.419   7.049 -1.5840  1.0116 -1.7412
   30SAPC   C35 4046   1.485   2.556   7.127 -0.1291 -0.5825 -0.5059
   30SAPC   H5X 4047   1.397   2.598   7.180  0.1893 -0.0297 -0.4116
   30SAPC   H5Y 4048   1.561   2.632   7.099 -2.8251  2.3953 -0.2113
   30SAPC   C36 4049   1.552   2.469   7.238  0.1191 -0.0303  0.0301
   30SAPC   H6X 4050   1.627   2.405   7.187 -0.0250 -0.4651  0.3590
   30SAPC   H6Y 4051   1.481   2.401   7.290 -1.6601  1.0668 -0.8269
   30SAPC   C37 4052   1.632   2.553   7.335 -0.2891 -0.7673 -0.0839
   30SAPC   H7X 4053   1.566   2.628   7.384 -1.2253 -0.8683 -1.1565
   30SAPC   H7Y 4054   1.706   2.607   7.272  0.2083  0.2323  1.2986
   30SAPC   C38 4055   1.704   2.463   7.435 -0.3015  0.1633  0.2055
   30SAPC   H8X 4056   1.767   2.388   7.383  0.9738  0.2783  1.5167
   30SAPC   H8Y 4057   1.629   2.414   7.501  0.6166  0.1506  1.2749
   30SAPC   C39 4058   1.792   2.545   7.528  0.2582  0.9865 -0.7843
   30SAPC   H9X 4059   1.858   2.621   7.480  3.0585 -0.4550  0.5203
   30SAPC   H9Y 4060   1.862   2.480   7.584  0.7351  1.3695 -0.9194
   30SAPC  C310 4061   1.706   2.612   7.649 -0.4985  0.5131  0.1470
   30SAPC  H10X 4062   1.627   2.535   7.668  0.3153 -1.2395 -2.8966
   30SAPC  H10Y 4063   1.667   2.711   7.617 -0.6414  0.5510  0.4266
   30SAPC  C311 4064   1.787   2.623   7.771 -0.6972  0.4740 -0.2387
   30SAPC  H11X 4065   1.875   2.688   7.750 -0.3113  1.0726  2.7732
   30SAPC  H11Y 4066   1.827   2.522   7.792  1.0126  0.9648 -0.9663
   30SAPC  C312 4067   1.708   2.666   7.895  0.0857 -0.3445 -0.2165
   30SAPC  H12X 4068   1.640   2.581   7.917  0.6932 -0.3892  1.6067
   30SAPC  H12Y 4069   1.641   2.753   7.881  0.2348 -0.4974 -2.2615
   30SAPC  C313 4070   1.801   2.689   8.020 -0.3818  0.4617  0.1231
   30SAPC  H13X 4071   1.846   2.789   8.000 -0.3077  0.2863 -0.6043
   30SAPC  H13Y 4072   1.874   2.605   8.013  0.7277  1.4161 -0.0745
   30SAPC  C314 4073   1.723   2.711   8.149 -0.3246  0.3419  0.6611
   30SAPC  H14X 4074   1.679   2.614   8.179 -0.6668  0.2314 -0.1679
   30SAPC  H14Y 4075   1.645   2.786   8.125 -1.1458 -1.3875 -2.8427
   30SAPC  C315 4076   1.817   2.778   8.250  0.8748 -0.4415 -0.0739
   30SAPC  H15X 4077   1.865   2.870   8.213  1.7841 -0.5123  0.8611
   30SAPC  H15Y 4078   1.909   2.715   8.254 -0.2099 -2.2494 -1.8242
   30SAPC  C316 4079   1.766   2.788   8.392  0.1051  0.0524  0.2513
   30SAPC  H16X 4080   1.760   2.685   8.432  1.7231  0.1931  0.9353
   30SAPC  H16Y 4081   1.663   2.830   8.400  0.8435  1.7573  1.3932
   30SAPC  C317 4082   1.855   2.865   8.486  0.0237  1.0031 -0.2252
   30SAPC  H17X 4083   1.875   2.965   8.442 -0.2305  1.1793  0.0564
   30SAPC  H17Y 4084   1.950   2.808   8.498  0.3887  1.4399 -0.9467
   30SAPC  C318 4085   1.781   2.897   8.619  0.3973 -0.4038 -0.1402
   30SAPC  H18X 4086   1.690   2.953   8.590 -0.6812 -0.5971  2.5640
   30SAPC  H18Y 4087   1.841   2.972   8.676 -1.0966 -0.3094  1.3922
   30SAPC  H18Z 4088   1.733   2.810   8.668 -1.4573  1.4728  1.5737
   31SAPC     N 4089   5.049   1.367   6.473  0.0895  0.1269  0.4284
   31SAPC   C12 4090   5.094   1.498   6.401  0.2607  0.0605  0.1434
   31SAPC  H12A 4091   5.075   1.481   6.296 -2.1207  2.7921 -0.0029
   31SAPC  H12B 4092   5.201   1.508   6.409  0.3058  0.2242 -0.5723
   31SAPC   C13 4093   5.135   1.253   6.428 -0.0006  0.2467 -0.8699
   31SAPC  H13A 4094   5.124   1.243   6.321 -4.7823  2.2806 -0.8049
   31SAPC  H13B 4095   5.239   1.271   6.452 -0.0305 -0.8941  0.1761
   31SAPC  H13C 4096   5.102   1.161   6.473  0.0004  0.8061  0.3239
   31SAPC   C14 4097   5.057   1.393   6.621 -0.1276  0.3156  0.2715
   31SAPC  H14A 4098   5.076   1.300   6.672  1.0290  0.5221  0.2436
   31SAPC  H14B 4099   5.145   1.450   6.649 -0.1004 -0.7678  2.6076
   31SAPC  H14C 4100   4.970   1.440   6.663 -0.4489  0.8877 -0.9691
   31SAPC   C15 4101   4.905   1.332   6.440 -0.2398 -0.0236 -0.0976
   31SAPC  H15A 4102   4.897   1.291   6.341  1.5902  0.9800 -0.7027
   31SAPC  H15B 4103   4.859   1.261   6.507 -2.3080  1.5567  0.2597
   31SAPC  H15C 4104   4.841   1.419   6.446  2.1925  1.8435  0.3831
   31SAPC   C11 4105   5.016   1.628   6.433  0.1323  0.5920 -0.0509
   31SAPC  H11A 4106   5.062   1.714   6.381  0.0820  0.3130 -0.5593
   31SAPC  H11B 4107   5.038   1.642   6.541  1.4519 -2.1992  0.1447
   31SAPC     P 4108   4.790   1.744   6.398  0.2873  0.3124  0.0472
   31SAPC   O13 4109   4.824   1.824   6.277 -0.2432  0.1485 -0.0710
   31SAPC   O14 4110   4.649   1.694   6.407  0.2912  0.2668  0.4116
   31SAPC   O12 4111   4.880   1.614   6.403  0.0949  0.3621 -1.6198
   31SAPC   O11 4112   4.826   1.829   6.523  0.8505 -0.4817  0.7104
   31SAPC    C1 4113   4.734   1.918   6.585  0.1147  0.1531 -1.1654
   31SAPC    HA 4114   4.722   2.017   6.536 -1.7490  0.8146  0.5285
   31SAPC    HB 4115   4.638   1.865   6.600  1.2517 -1.7254 -0.0505
   31SAPC    C2 4116   4.777   1.956   6.738 -0.4162  0.1190 -0.2146
   31SAPC    HS 4117   4.874   2.010   6.746 -1.2746  1.5785  0.9555
   31SAPC   O21 4118   4.785   1.833   6.816 -0.0275 -0.2196  0.6755
   31SAPC   C21 4119   4.901   1.767   6.795 -0.0026 -0.5630  0.0262
   31SAPC   O22 4120   5.006   1.812   6.749  0.0362  0.7619 -1.1227
   31SAPC   C22 4121   4.877   1.614   6.817 -0.0008 -0.2081  0.0780
   31SAPC   H2R 4122   4.976   1.567   6.801  0.4362  1.2079 -1.7195
   31SAPC   H2S 4123   4.848   1.600   6.923 -1.0826  2.6440  0.2467
   31SAPC    C3 4124   4.670   2.051   6.794 -0.2265  0.1047  0.0349
   31SAPC    HX 4125   4.571   2.025   6.750 -0.5046  0.0829  0.6621
   31SAPC    HY 4126   4.696   2.151   6.754  2.9290 -0.5152  0.3089
   31SAPC   O31 4127   4.661   2.055   6.939  0.7588 -0.6032 -0.5705
   31SAPC   C31 4128   4.733   2.144   6.995 -0.4564  0.1164 -0.6648
   31SAPC   O32 4129   4.826   2.206   6.940  0.0851 -0.5258 -0.2013
   31SAPC   C32 4130   4.702   2.158   7.145  0.4033 -0.0893 -0.1794
   31SAPC   H2X 4131   4.608   2.212   7.169  0.8002 -0.0195  1.3097
   31SAPC   H2Y 4132   4.771   2.234   7.188 -0.8288  0.1426  1.5209
   31SAPC   C23 4133   4.764   1.551   6.731  0.2269 -0.1105 -0.3914
   31SAPC   H3R 4134   4.822   1.512   6.644  0.9523  1.5679 -0.7138
   31SAPC   H3S 4135   4.695   1.629   6.694 -1.1318 -1.6977 -1.3399
   31SAPC   C24 4136   4.684   1.437   6.799 -0.0383  0.1808  0.4843
   31SAPC   H4R 4137   4.617   1.386   6.726  0.5141 -0.1315  0.1891
   31SAPC   H4S 4138   4.624   1.490   6.876  0.4549 -0.6032  1.4430
   31SAPC   C25 4139   4.771   1.334   6.862  0.2350  0.3935 -0.6398
   31SAPC   H5R 4140   4.813   1.259   6.793 -0.5250 -2.6865  1.9850
   31SAPC   C26 4141   4.808   1.320   6.992 -0.1936  0.4714 -0.1127
   31SAPC   H6R 4142   4.860   1.224   7.010  0.5394  1.0903  1.2449
   31SAPC   C27 4143   4.760   1.405   7.113  0.3435  0.5386 -0.3441
   31SAPC   H7R 4144   4.695   1.489   7.077 -0.4816 -0.0360 -0.2180
   31SAPC   H7S 4145   4.843   1.446   7.174  1.0318 -1.7533  0.3572
   31SAPC   C28 4146   4.692   1.320   7.216 -0.4346  0.5270 -0.5909
   31SAPC   H8R 4147   4.606   1.261   7.180  2.5949 -1.9266 -4.6175
   31SAPC   C29 4148   4.721   1.314   7.351 -0.6626  0.8533  0.7999
   31SAPC   H9R 4149   4.665   1.248   7.418  0.2300 -1.6789 -0.7993
   31SAPC  C210 4150   4.825   1.401   7.425  0.4386  0.1567  0.7715
   31SAPC  H10R 4151   4.898   1.455   7.361 -0.0184 -0.4486 -0.2897
   31SAPC  H10S 4152   4.892   1.335   7.483  0.2323 -0.8934 -0.1403
   31SAPC  C211 4153   4.739   1.496   7.511 -0.8458  0.6274 -0.0666
   31SAPC  H11R 4154   4.710   1.590   7.463 -0.1133  0.9738  0.1595
   31SAPC  C212 4155   4.711   1.480   7.638  0.1092 -0.4262 -0.3454
   31SAPC  H12R 4156   4.658   1.569   7.673  1.1085  1.0829 -2.4366
   31SAPC  C213 4157   4.737   1.376   7.743  0.2584  0.4053  0.2321
   31SAPC  H13R 4158   4.779   1.427   7.832  1.3256  1.3398 -0.7774
   31SAPC  H13S 4159   4.810   1.299   7.709 -0.0516 -0.2340  0.9676
   31SAPC  C214 4160   4.606   1.311   7.792 -1.0318 -0.4273 -0.2805
   31SAPC  H14R 4161   4.584   1.218   7.738 -0.4741 -0.4443 -0.4852
   31SAPC  C215 4162   4.518   1.357   7.884  0.1573 -0.2546  0.2064
   31SAPC  H15R 4163   4.429   1.292   7.896 -0.8806  0.6350 -2.1566
   31SAPC  C216 4164   4.543   1.485   7.966 -0.5140 -0.9650 -0.4328
   31SAPC  H16R 4165   4.489   1.563   7.908 -1.2456 -1.4218 -0.3835
   31SAPC  H16S 4166   4.649   1.517   7.968 -1.2832  1.9724 -1.9295
   31SAPC  C217 4167   4.475   1.485   8.100  0.0531  0.2955 -0.0125
   31SAPC  H17R 4168   4.365   1.476   8.092 -0.1583  1.5929  1.0307
   31SAPC  H17S 4169   4.502   1.580   8.151  1.8606 -1.5715  2.8421
   31SAPC  C218 4170   4.519   1.367   8.195  0.2364  0.8711  0.2583
   31SAPC  H18R 4171   4.628   1.360   8.174  0.5068  0.8593  1.5950
   31SAPC  H18S 4172   4.461   1.280   8.158 -1.4585  1.7713  0.6729
   31SAPC  C219 4173   4.495   1.403   8.343  0.2049 -0.8919  0.3351
   31SAPC  H19R 4174   4.385   1.414   8.354  0.0600 -1.4152 -0.4824
   31SAPC  H19S 4175   4.556   1.493   8.363  1.1412 -0.5863 -3.2539
   31SAPC  C220 4176   4.544   1.292   8.443 -0.5978 -0.5664 -0.4229
   31SAPC  H20R 4177   4.649   1.265   8.419  0.1737 -0.1976  2.2013
   31SAPC  H20S 4178   4.485   1.199   8.427 -0.0943 -0.5761 -2.3588
   31SAPC  H20T 4179   4.542   1.324   8.550  0.7084  1.2633 -0.9126
   31SAPC   C33 4180   4.722   2.034   7.230  0.2750 -0.1174 -0.5831
   31SAPC   H3X 4181   4.825   1.998   7.210 -0.5245 -3.8953  1.3327
   31SAPC   H3Y 4182   4.649   1.957   7.198  0.3762 -0.1212 -0.8139
   31SAPC   C34 4183   4.694   2.054   7.379  0.5455 -0.0423 -0.3228
   31SAPC   H4X 4184   4.591   2.096   7.380 -0.2515 -1.8639 -1.0963
   31SAPC   H4Y 4185   4.769   2.130   7.409  0.6636  0.2398 -1.3164
   31SAPC   C35 4186   4.713   1.923   7.457  0.5587 -0.0151  0.1804
   31SAPC   H5X 4187   4.814   1.884   7.431  0.0244 -1.5077  0.2371
   31SAPC   H5Y 4188   4.645   1.846   7.415  2.9231 -2.0494 -0.1936
   31SAPC   C36 4189   4.711   1.921   7.609  0.8519  0.0862 -0.5880
   31SAPC   H6X 4190   4.699   1.813   7.632  0.3659 -0.2640 -2.3465
   31SAPC   H6Y 4191   4.624   1.981   7.643 -1.9899 -3.6317 -0.6687
   31SAPC   C37 4192   4.833   1.977   7.687 -0.2277  0.4074  0.9969
   31SAPC   H7X 4193   4.846   2.087   7.676  0.8532  0.1956 -0.0669
   31SAPC   H7Y 4194   4.930   1.933   7.657 -0.4314  0.3771  0.3654
   31SAPC   C38 4195   4.812   1.962   7.838  0.2112  0.0942 -0.1543
   31SAPC   H8X 4196   4.794   1.855   7.858  0.8884 -0.0409 -0.2340
   31SAPC   H8Y 4197   4.720   2.014   7.874 -0.6640 -2.5867  1.7612
   31SAPC   C39 4198   4.930   2.010   7.917 -0.6995  0.1111 -0.6680
   31SAPC   H9X 4199   4.946   2.115   7.886  0.1775  0.2728  0.3166
   31SAPC   H9Y 4200   5.015   1.947   7.883 -1.3005  0.3465 -2.7665
   31SAPC  C310 4201   4.926   1.987   8.071 -0.1174 -0.2412  0.3362
   31SAPC  H10X 4202   5.030   1.998   8.107  0.4697  0.1289 -1.3911
   31SAPC  H10Y 4203   4.888   1.886   8.095 -0.3761  0.4246  2.9961
   31SAPC  C311 4204   4.835   2.091   8.141 -0.9673 -0.3773  0.8913
   31SAPC  H11X 4205   4.741   2.095   8.082  1.8802 -1.6253 -4.3984
   31SAPC  H11Y 4206   4.886   2.189   8.154 -0.5980 -0.5054  0.4489
   31SAPC  C312 4207   4.803   2.063   8.292 -0.3356  0.1171 -0.0472
   31SAPC  H12X 4208   4.800   1.955   8.317  2.5006  0.3751  1.7584
   31SAPC  H12Y 4209   4.708   2.110   8.324  0.9828  2.7875  0.2260
   31SAPC  C313 4210   4.909   2.129   8.388 -0.0910  0.1480  0.7946
   31SAPC  H13X 4211   4.893   2.239   8.383 -0.4933  0.1112  1.2675
   31SAPC  H13Y 4212   5.013   2.112   8.353 -0.6428 -2.6298  0.2944
   31SAPC  C314 4213   4.905   2.072   8.526  0.2804  0.0278  0.1201
   31SAPC  H14X 4214   4.937   1.966   8.520 -0.2996 -0.1729  0.4065
   31SAPC  H14Y 4215   4.807   2.075   8.580  0.7726  1.5367  0.9773
   31SAPC  C315 4216   4.986   2.141   8.636  0.0672 -0.8471  0.5604
   31SAPC  H15X 4217   5.092   2.163   8.610 -0.3775  2.4945  1.0913
   31SAPC  H15Y 4218   4.974   2.084   8.730  1.0174 -2.4197 -0.2340
   31SAPC  C316 4219   4.932   2.284   8.665 -0.4391 -0.1897  0.6781
   31SAPC  H16X 4220   4.824   2.269   8.687 -0.8041  1.0138 -0.2287
   31SAPC  H16Y 4221   4.940   2.345   8.572 -3.6238  0.9646  1.0374
   31SAPC  C317 4222   5.011   2.344   8.783 -0.5181 -0.1547 -0.4336
   31SAPC  H17X 4223   5.118   2.347   8.753 -1.4323  0.8198 -4.1246
   31SAPC  H17Y 4224   5.012   2.275   8.870  2.0489  0.9726  0.5262
   31SAPC  C318 4225   4.972   2.489   8.821 -0.0358 -0.1766  0.5168
   31SAPC  H18X 4226   5.045   2.537   8.890 -0.7781  0.5702  0.7945
   31SAPC  H18Y 4227   4.873   2.493   8.871  0.0712  0.1843  0.7036
   31SAPC  H18Z 4228   4.968   2.553   8.730 -0.8561  1.7615  1.8649
   32SAPC     N 4229   5.413   5.343   5.932  0.4478  0.8268 -0.9188
   32SAPC   C12 4230   5.429   5.382   6.076 -0.2091 -0.0323  0.8664
   32SAPC  H12A 4231   5.480   5.476   6.083 -0.9738  0.5454 -0.7891
   32SAPC  H12B 4232   5.501   5.309   6.110  2.5010  1.1702 -1.7690
   32SAPC   C13 4233   5.543   5.369   5.861  0.2000  0.3578  0.0092
   32SAPC  H13A 4234   5.626   5.317   5.906  1.6419  0.9167 -1.8896
   32SAPC  H13B 4235   5.545   5.328   5.761  1.3634 -1.0979  0.5962
   32SAPC  H13C 4236   5.562   5.475   5.853 -0.7717  0.4802 -0.9112
   32SAPC   C14 4237   5.385   5.188   5.922 -1.1665 -0.1289 -0.1305
   32SAPC  H14A 4238   5.298   5.160   5.981 -1.5186  1.2435  0.0395
   32SAPC  H14B 4239   5.376   5.156   5.819  1.5695 -0.1586 -0.4229
   32SAPC  H14C 4240   5.463   5.128   5.966 -1.4585 -1.7508 -1.7171
   32SAPC   C15 4241   5.312   5.421   5.863 -0.2878  0.8926 -0.0005
   32SAPC  H15A 4242   5.329   5.524   5.890  0.7195  0.1656  2.3879
   32SAPC  H15B 4243   5.325   5.418   5.755 -0.7792  0.3286 -0.0468
   32SAPC  H15C 4244   5.215   5.381   5.887  0.3266 -0.0267  1.0571
   32SAPC   C11 4245   5.315   5.369   6.179  0.5261 -0.0304  0.1766
   32SAPC  H11A 4246   5.243   5.445   6.142 -1.8799 -2.1192  0.2912
   32SAPC  H11B 4247   5.366   5.398   6.274  0.9824 -0.2289 -0.0056
   32SAPC     P 4248   5.113   5.241   6.259 -0.2752  0.0152  0.0837
   32SAPC   O13 4249   5.020   5.317   6.176  0.1055  0.8236  0.1655
   32SAPC   O14 4250   5.082   5.107   6.313 -0.0244 -0.2133  0.3040
   32SAPC   O12 4251   5.252   5.239   6.191 -0.3867  0.0017  0.7868
   32SAPC   O11 4252   5.141   5.329   6.383 -0.5204  0.1665 -1.0159
   32SAPC    C1 4253   5.232   5.291   6.486  0.7360  0.1471  0.5052
   32SAPC    HA 4254   5.318   5.228   6.454  2.9257  3.6049 -1.1163
   32SAPC    HB 4255   5.277   5.383   6.531  1.7016 -0.1913  0.2664
   32SAPC    C2 4256   5.167   5.211   6.597 -0.3499  0.2645 -0.3536
   32SAPC    HS 4257   5.158   5.107   6.560 -1.7444  0.0326  0.5495
   32SAPC   O21 4258   5.047   5.272   6.654 -0.3653  0.0139 -0.1970
   32SAPC   C21 4259   4.954   5.174   6.682  0.4387 -0.4123  0.5528
   32SAPC   O22 4260   4.973   5.060   6.656 -0.5765  0.3514 -0.2713
   32SAPC   C22 4261   4.827   5.224   6.742 -0.2908 -0.5505  0.2180
   32SAPC   H2R 4262   4.840   5.334   6.747  2.5254 -0.8742  1.4111
   32SAPC   H2S 4263   4.740   5.198   6.677 -1.0376  1.1547  0.4751
   32SAPC    C3 4264   5.264   5.205   6.720 -0.3844  0.0273  0.2930
   32SAPC    HX 4265   5.287   5.304   6.766  1.9105 -0.5359  0.4817
   32SAPC    HY 4266   5.364   5.168   6.688  0.1590  0.5600  1.3150
   32SAPC   O31 4267   5.205   5.126   6.829  0.6475  0.0040 -0.1596
   32SAPC   C31 4268   5.224   4.997   6.826 -0.2447 -0.1908  0.3708
   32SAPC   O32 4269   5.306   4.937   6.756  0.6988 -0.0947  0.3394
   32SAPC   C32 4270   5.132   4.932   6.926  0.0638  0.1513 -0.1745
   32SAPC   H2X 4271   5.123   4.827   6.892  2.1979  0.0042 -0.4044
   32SAPC   H2Y 4272   5.030   4.975   6.923 -0.7454 -1.7310 -1.6089
   32SAPC   C23 4273   4.802   5.180   6.884 -0.1689 -0.5035  0.1123
   32SAPC   H3R 4274   4.857   5.087   6.911 -0.8626 -1.7197 -2.3676
   32SAPC   H3S 4275   4.694   5.153   6.880 -0.4295  0.6209 -0.8886
   32SAPC   C24 4276   4.822   5.290   6.994 -0.5910  0.9339 -0.7662
   32SAPC   H4R 4277   4.752   5.274   7.079  0.8802 -2.4980 -0.0346
   32SAPC   H4S 4278   4.796   5.388   6.949 -0.6051 -0.9385 -5.4169
   32SAPC   C25 4279   4.967   5.296   7.036  0.3321  0.0515  0.2011
   32SAPC   H5R 4280   5.041   5.287   6.955  0.3291  1.2255  0.0580
   32SAPC   C26 4281   5.010   5.320   7.163  0.1173 -0.2867  0.8159
   32SAPC   H6R 4282   5.119   5.336   7.170 -0.0889  1.1904  1.0247
   32SAPC   C27 4283   4.925   5.340   7.283  0.7197  0.0523  0.2775
   32SAPC   H7R 4284   4.844   5.408   7.247  0.4845 -0.3953 -0.0622
   32SAPC   H7S 4285   4.987   5.397   7.356  0.5783  0.3865  0.1417
   32SAPC   C28 4286   4.871   5.209   7.344  0.6492 -0.3714 -0.1414
   32SAPC   H8R 4287   4.867   5.130   7.267 -0.5614  0.0920 -0.5863
   32SAPC   C29 4288   4.829   5.177   7.468  0.0142  0.6415 -0.6355
   32SAPC   H9R 4289   4.796   5.075   7.491 -0.5254  0.2351 -2.9279
   32SAPC  C210 4290   4.831   5.268   7.584  0.2801  0.2496 -0.3285
   32SAPC  H10R 4291   4.731   5.315   7.600 -0.8842 -0.5846 -4.0667
   32SAPC  H10S 4292   4.891   5.361   7.569 -0.2728  0.4663 -1.2982
   32SAPC  C211 4293   4.888   5.202   7.701 -0.8417 -0.7373  0.8276
   32SAPC  H11R 4294   4.965   5.128   7.674 -3.5914 -3.6498  0.3333
   32SAPC  C212 4295   4.845   5.214   7.827 -0.1496  0.2071  0.4529
   32SAPC  H12R 4296   4.866   5.133   7.898 -1.7932 -0.3080  0.3915
   32SAPC  C213 4297   4.746   5.307   7.880  0.3749 -0.4067  0.3559
   32SAPC  H13R 4298   4.744   5.278   7.987  3.4280 -3.1275 -0.1497
   32SAPC  H13S 4299   4.647   5.280   7.837 -1.0169  0.9924  2.4869
   32SAPC  C214 4300   4.777   5.456   7.862  0.3274  0.0928 -0.1552
   32SAPC  H14R 4301   4.791   5.490   7.758 -2.2553  1.6175 -0.0880
   32SAPC  C215 4302   4.773   5.551   7.956 -0.1826 -0.5762 -0.0999
   32SAPC  H15R 4303   4.811   5.651   7.929  0.6470 -1.2741 -1.6253
   32SAPC  C216 4304   4.728   5.539   8.100  1.1241  0.0200 -0.2045
   32SAPC  H16R 4305   4.818   5.538   8.165 -0.0506  2.2353  1.5824
   32SAPC  H16S 4306   4.669   5.446   8.117 -0.9696  1.5129  1.2518
   32SAPC  C217 4307   4.641   5.652   8.145 -1.2667 -0.1475 -0.2775
   32SAPC  H17R 4308   4.540   5.639   8.101 -0.0584 -0.3256 -3.1979
   32SAPC  H17S 4309   4.687   5.744   8.103  1.7969 -1.3319  0.2649
   32SAPC  C218 4310   4.628   5.670   8.299  0.1313 -0.6356 -0.7602
   32SAPC  H18R 4311   4.610   5.569   8.341 -1.2540  0.5281  1.6782
   32SAPC  H18S 4312   4.545   5.743   8.315 -0.3618 -1.0428 -1.4011
   32SAPC  C219 4313   4.753   5.738   8.354  0.4152 -0.3239  0.3874
   32SAPC  H19R 4314   4.794   5.824   8.298  0.2262 -0.5015 -0.0275
   32SAPC  H19S 4315   4.828   5.657   8.341 -1.8588 -3.0500  2.6954
   32SAPC  C220 4316   4.748   5.779   8.496 -0.5936 -0.5045 -0.1587
   32SAPC  H20R 4317   4.700   5.878   8.507  0.6125  0.2175 -1.1755
   32SAPC  H20S 4318   4.848   5.782   8.545 -0.4069  0.8279 -0.5871
   32SAPC  H20T 4319   4.684   5.712   8.558 -3.3363  1.4587 -0.7007
   32SAPC   C33 4320   5.194   4.934   7.064  1.1259  0.0329  0.2445
   32SAPC   H3X 4321   5.213   5.033   7.112 -2.6495  0.9016  0.2541
   32SAPC   H3Y 4322   5.286   4.874   7.074 -0.2077 -2.0079  0.9418
   32SAPC   C34 4323   5.103   4.864   7.167  0.2648  0.4297  0.3659
   32SAPC   H4X 4324   5.067   4.769   7.122 -0.3623  1.2348 -0.9014
   32SAPC   H4Y 4325   5.009   4.923   7.177 -1.2259 -1.6460 -0.5592
   32SAPC   C35 4326   5.160   4.853   7.307 -0.0774 -0.5845 -0.1504
   32SAPC   H5X 4327   5.202   4.953   7.327 -0.1690 -0.8233  1.3126
   32SAPC   H5Y 4328   5.245   4.781   7.309  1.1598  0.7383 -1.9696
   32SAPC   C36 4329   5.046   4.819   7.411 -0.3646  0.3734  0.4931
   32SAPC   H6X 4330   5.011   4.716   7.392 -0.6493 -0.0691  3.0380
   32SAPC   H6Y 4331   4.962   4.891   7.393  2.0592  3.3570  0.2396
   32SAPC   C37 4332   5.076   4.824   7.556  0.0417  0.3456 -0.0452
   32SAPC   H7X 4333   5.120   4.922   7.585  0.9188 -0.4902  1.6517
   32SAPC   H7Y 4334   5.157   4.753   7.584 -0.3786  0.2440  0.9573
   32SAPC   C38 4335   4.961   4.794   7.651 -0.3953 -0.5441 -0.1731
   32SAPC   H8X 4336   4.911   4.695   7.640 -0.2004 -0.5524 -1.0278
   32SAPC   H8Y 4337   4.884   4.869   7.626  1.3718  2.1009  1.7289
   32SAPC   C39 4338   5.001   4.805   7.794 -0.2469 -0.1731 -0.0864
   32SAPC   H9X 4339   5.082   4.881   7.802 -1.3946  1.0379  0.3336
   32SAPC   H9Y 4340   5.054   4.711   7.821  0.3256  0.2314  0.2315
   32SAPC  C310 4341   4.879   4.823   7.881 -0.3039 -0.0300 -0.3064
   32SAPC  H10X 4342   4.806   4.742   7.860 -0.1453 -0.4942  0.8471
   32SAPC  H10Y 4343   4.842   4.924   7.852 -3.3735 -0.3998  1.8681
   32SAPC  C311 4344   4.910   4.805   8.030 -0.1735 -0.6361 -0.1530
   32SAPC  H11X 4345   4.978   4.886   8.064 -0.0254 -0.6337 -0.4595
   32SAPC  H11Y 4346   4.937   4.700   8.052  1.4466 -0.8196 -2.6804
   32SAPC  C312 4347   4.785   4.840   8.112 -0.1392  0.3538 -0.0655
   32SAPC  H12X 4348   4.707   4.787   8.053  0.3187  0.7431 -1.0441
   32SAPC  H12Y 4349   4.772   4.950   8.114 -1.2964  0.2413 -0.4151
   32SAPC  C313 4350   4.800   4.779   8.254  0.2920  0.1621  0.1704
   32SAPC  H13X 4351   4.904   4.787   8.290  0.2930  1.3773 -0.0492
   32SAPC  H13Y 4352   4.792   4.669   8.244  1.6141  0.1824 -1.5634
   32SAPC  C314 4353   4.713   4.845   8.369 -0.6074  0.0951  0.3304
   32SAPC  H14X 4354   4.737   4.953   8.380 -1.9216  0.6930 -2.0041
   32SAPC  H14Y 4355   4.749   4.799   8.463 -0.7835 -1.8586 -0.5109
   32SAPC  C315 4356   4.568   4.821   8.356 -0.2622 -0.3265  0.1665
   32SAPC  H15X 4357   4.523   4.883   8.275 -2.9757 -1.0817  0.9637
   32SAPC  H15Y 4358   4.523   4.870   8.446 -5.3242 -1.2948 -1.4949
   32SAPC  C316 4359   4.515   4.682   8.355 -0.2721 -0.8118 -0.1429
   32SAPC  H16X 4360   4.545   4.630   8.448  1.6871 -1.0851 -0.8713
   32SAPC  H16Y 4361   4.564   4.631   8.269  2.5939  1.0129  0.2526
   32SAPC  C317 4362   4.364   4.679   8.333 -0.3643  0.4374  0.3053
   32SAPC  H17X 4363   4.343   4.685   8.224 -1.1829 -1.3041  0.3286
   32SAPC  H17Y 4364   4.330   4.770   8.387  1.7909  0.6241  1.4334
   32SAPC  C318 4365   4.291   4.554   8.388  0.1967 -0.1724 -0.0950
   32SAPC  H18X 4366   4.344   4.470   8.338 -1.2155 -1.6124  0.7506
   32SAPC  H18Y 4367   4.183   4.560   8.364  0.5949  1.9081 -1.5983
   32SAPC  H18Z 4368   4.303   4.551   8.499  2.8759  3.3478 -0.1014
   33POPC     N 4369   2.525   3.646  10.915  0.0254  0.1118  0.5318
   33POPC   C12 4370   2.429   3.630  10.797  0.0553 -0.0051 -0.4723
   33POPC  H12A 4371   2.482   3.584  10.715  0.7964  1.9106 -1.1262
   33POPC  H12B 4372   2.403   3.728  10.759 -1.6675  0.3396  1.4137
   33POPC   C13 4373   2.480   3.769  10.991 -0.4039 -0.2966  0.1790
   33POPC  H13A 4374   2.391   3.744  11.047 -0.4875  2.5823  1.5253
   33POPC  H13B 4375   2.552   3.794  11.067  2.2117 -2.2542 -1.4923
   33POPC  H13C 4376   2.458   3.851  10.924  0.2191 -1.3094 -1.3007
   33POPC   C14 4377   2.539   3.525  11.001 -0.3297 -0.0617 -0.1732
   33POPC  H14A 4378   2.582   3.548  11.097  0.0137  1.2442 -0.6265
   33POPC  H14B 4379   2.439   3.488  11.023 -0.4494  0.6788  0.5782
   33POPC  H14C 4380   2.591   3.446  10.949 -0.7651 -0.0134 -0.6890
   33POPC   C15 4381   2.655   3.682  10.856  0.5137 -0.5564  0.2837
   33POPC  H15A 4382   2.732   3.695  10.931 -0.0011 -0.1598  0.7545
   33POPC  H15B 4383   2.653   3.764  10.786 -2.2179 -2.0651 -1.5874
   33POPC  H15C 4384   2.697   3.608  10.789  1.2973  1.0853 -1.1122
   33POPC   C11 4385   2.297   3.554  10.818 -0.1034  0.2907 -0.0323
   33POPC  H11A 4386   2.254   3.566  10.716  0.2364 -0.0942 -0.2242
   33POPC  H11B 4387   2.225   3.594  10.892  0.0436  1.5606 -0.5540
   33POPC     P 4388   2.344   3.293  10.753  0.2810 -0.2392 -0.0915
   33POPC   O13 4389   2.311   3.173  10.832 -0.2007 -0.1067 -0.2788
   33POPC   O14 4390   2.481   3.295  10.687 -0.7520  0.1049  0.0108
   33POPC   O12 4391   2.330   3.417  10.850 -0.3128  0.2778 -0.2298
   33POPC   O11 4392   2.222   3.311  10.655 -0.1206  0.0412 -0.1659
   33POPC    C1 4393   2.196   3.236  10.541 -0.0628  0.5627  0.5502
   33POPC    HA 4394   2.244   3.137  10.554 -0.6044  0.1257 -0.6953
   33POPC    HB 4395   2.087   3.224  10.528  0.0875 -0.7114  0.3308
   33POPC    C2 4396   2.255   3.301  10.406 -0.2873  0.0200 -0.0886
   33POPC    HS 4397   2.366   3.300  10.404 -0.2879 -0.4810 -1.9087
   33POPC   O21 4398   2.199   3.434  10.386 -0.1795  0.5213  0.0967
   33POPC   C21 4399   2.286   3.541  10.394  1.0749  1.0618  0.3500
   33POPC   O22 4400   2.405   3.532  10.418 -0.3147 -0.1544  0.0245
   33POPC   C22 4401   2.202   3.667  10.355 -0.1503  0.1584  0.0930
   33POPC   H2R 4402   2.279   3.744  10.334  0.6873 -0.9042 -0.8453
   33POPC   H2S 4403   2.143   3.693  10.446 -0.5149 -0.3778  0.0106
   33POPC    C3 4404   2.212   3.220  10.287 -0.0946 -0.4405  0.1803
   33POPC    HX 4405   2.108   3.243  10.254  0.1868  0.4731 -0.0822
   33POPC    HY 4406   2.224   3.115  10.322 -0.2666 -0.6075 -0.2495
   33POPC   O31 4407   2.292   3.249  10.172 -0.4014  0.3325 -0.0601
   33POPC   C31 4408   2.421   3.203  10.165  0.3106 -0.1922  0.4686
   33POPC   O32 4409   2.477   3.134  10.245  0.3476  0.0139 -0.1953
   33POPC   C32 4410   2.485   3.267  10.040  0.6087  0.6081 -0.4615
   33POPC   H2X 4411   2.591   3.292  10.058  0.2333  2.0668 -0.0993
   33POPC   H2Y 4412   2.440   3.368  10.026  0.3037  0.9152  2.2293
   33POPC   C23 4413   2.106   3.642  10.239 -0.0273  0.2165 -0.3378
   33POPC   H3R 4414   2.045   3.735  10.238 -1.1253 -0.4714 -2.1007
   33POPC   H3S 4415   2.030   3.566  10.265  0.5978 -0.0080  0.9071
   33POPC   C24 4416   2.176   3.611  10.110 -0.6914  0.2956  0.3047
   33POPC   H4R 4417   2.239   3.521  10.132 -0.4517  0.3565 -0.1150
   33POPC   H4S 4418   2.256   3.682  10.079  1.5180 -1.6616  1.1267
   33POPC   C25 4419   2.086   3.582   9.987 -0.4670  0.5688  0.2457
   33POPC   H5R 4420   2.046   3.675   9.939  1.9559  2.2426  1.3092
   33POPC   H5S 4421   1.997   3.525  10.023 -0.7254 -0.4559 -1.8490
   33POPC   C26 4422   2.147   3.493   9.878  0.0099  0.1200 -0.3286
   33POPC   H6R 4423   2.183   3.397   9.921 -0.5197  0.4448  0.8632
   33POPC   H6S 4424   2.225   3.543   9.816 -0.6759  1.0298 -0.4581
   33POPC   C27 4425   2.046   3.440   9.775 -0.6044 -0.2460  0.1928
   33POPC   H7R 4426   1.977   3.519   9.737 -0.0830  0.6935  1.1575
   33POPC   H7S 4427   1.986   3.362   9.827  0.7769 -1.4780 -0.0087
   33POPC   C28 4428   2.117   3.366   9.658 -0.1848  0.2035  0.1562
   33POPC   H8R 4429   2.040   3.303   9.610 -0.7860  0.3090  0.9610
   33POPC   H8S 4430   2.191   3.297   9.704  3.2438  1.2326 -3.2529
   33POPC   C29 4431   2.186   3.459   9.560  0.0019 -0.1309  0.2027
   33POPC   H91 4432   2.276   3.513   9.595  1.1032 -0.1309 -2.3975
   33POPC  C210 4433   2.136   3.500   9.439 -0.1010  0.2970  0.0024
   33POPC  H101 4434   2.190   3.576   9.381  0.3878 -0.2987 -0.3454
   33POPC  C211 4435   2.012   3.453   9.373  0.5561  0.0002  0.3246
   33POPC  H11R 4436   1.952   3.544   9.349 -1.9802 -1.9425 -1.2945
   33POPC  H11S 4437   1.942   3.388   9.430  0.1894 -1.3384 -1.5379
   33POPC  C212 4438   2.028   3.372   9.245  0.2279  0.5147 -0.2822
   33POPC  H12R 4439   2.009   3.436   9.157 -0.7711  0.2554 -0.2671
   33POPC  H12S 4440   1.944   3.299   9.247  0.2948  0.4236 -0.7407
   33POPC  C213 4441   2.163   3.305   9.229 -0.2115  0.0290 -0.2896
   33POPC  H13R 4442   2.198   3.261   9.325  0.7474  1.0798 -0.1210
   33POPC  H13S 4443   2.228   3.390   9.196  1.3851 -0.6105  1.0641
   33POPC  C214 4444   2.155   3.197   9.125 -1.1009 -0.2228  0.3740
   33POPC  H14R 4445   2.078   3.120   9.149 -1.9231  0.6845  0.7186
   33POPC  H14S 4446   2.247   3.136   9.131 -2.3379 -2.6227 -2.3068
   33POPC  C215 4447   2.147   3.259   8.991 -0.7199 -0.5563 -0.4843
   33POPC  H15R 4448   2.232   3.328   8.975 -1.3491  0.0587 -1.3054
   33POPC  H15S 4449   2.058   3.325   8.986 -1.0736 -0.8153  1.5357
   33POPC  C216 4450   2.132   3.156   8.877  0.2032 -0.7853 -0.6514
   33POPC  H16R 4451   2.028   3.119   8.889 -0.6513  1.0711 -1.7081
   33POPC  H16S 4452   2.204   3.073   8.889 -0.4784 -1.1147  1.4673
   33POPC  C217 4453   2.157   3.222   8.746 -0.2137 -0.1505 -1.0807
   33POPC  H17R 4454   2.262   3.259   8.745 -0.6770  1.4822  1.2665
   33POPC  H17S 4455   2.096   3.310   8.717  0.0335  0.0697 -0.9393
   33POPC  C218 4456   2.142   3.122   8.626 -0.8564 -0.3107 -0.5031
   33POPC  H18R 4457   2.179   3.022   8.655  2.2444  0.2515 -2.1741
   33POPC  H18S 4458   2.209   3.160   8.547  1.5927  0.6257  1.8663
   33POPC  H18T 4459   2.034   3.113   8.600 -1.3143 -0.2084  1.1984
   33POPC   C33 4460   2.454   3.188   9.904 -0.1138 -1.5172  0.0816
   33POPC   H3X 4461   2.352   3.144   9.911 -0.2315 -1.2902 -0.1877
   33POPC   H3Y 4462   2.519   3.098   9.900  0.5896 -0.9733 -1.8130
   33POPC   C34 4463   2.484   3.279   9.788  0.5092  0.2564  0.9171
   33POPC   H4X 4464   2.583   3.326   9.805 -0.0717  1.3075  1.5025
   33POPC   H4Y 4465   2.410   3.361   9.771  1.4936  0.8734 -0.6234
   33POPC   C35 4466   2.498   3.196   9.655 -0.0278 -0.1304  0.1457
   33POPC   H5X 4467   2.397   3.151   9.638 -0.2559  0.1003  0.8278
   33POPC   H5Y 4468   2.569   3.117   9.690  0.7493  1.0942  1.4356
   33POPC   C36 4469   2.543   3.266   9.525 -0.6649  0.3639  0.2081
   33POPC   H6X 4470   2.653   3.278   9.521 -0.4308 -1.2411  1.0251
   33POPC   H6Y 4471   2.490   3.363   9.511  0.6244  0.9036 -1.3686
   33POPC   C37 4472   2.521   3.181   9.401 -0.2661 -0.1336  0.3622
   33POPC   H7X 4473   2.419   3.139   9.395 -0.2045 -0.1396 -1.3136
   33POPC   H7Y 4474   2.588   3.092   9.395 -0.5502 -0.5536  2.7009
   33POPC   C38 4475   2.554   3.257   9.272 -0.6715 -0.1522 -0.0496
   33POPC   H8X 4476   2.654   3.306   9.279  0.3053 -2.1856  1.3410
   33POPC   H8Y 4477   2.485   3.341   9.249 -0.1403  0.0526 -0.9616
   33POPC   C39 4478   2.569   3.163   9.152  0.1973 -0.5590 -0.3726
   33POPC   H9X 4479   2.469   3.116   9.147  1.0386 -2.4741  0.0136
   33POPC   H9Y 4480   2.638   3.081   9.183 -1.4771 -0.7564  3.3191
   33POPC  C310 4481   2.598   3.233   9.023 -0.7672  0.0793 -0.4075
   33POPC  H10X 4482   2.699   3.279   9.030 -0.7281  0.9035 -4.1226
   33POPC  H10Y 4483   2.522   3.313   9.009 -1.3529  0.0512  2.1495
   33POPC  C311 4484   2.585   3.131   8.904  0.0060  0.6303  0.1325
   33POPC  H11X 4485   2.478   3.102   8.892 -1.0224  3.8448  0.6762
   33POPC  H11Y 4486   2.639   3.042   8.942  1.7111  2.3344  1.9115
   33POPC  C312 4487   2.641   3.169   8.768 -0.5286 -0.3806 -0.6650
   33POPC  H12X 4488   2.591   3.262   8.732  1.9162  1.1922 -0.2037
   33POPC  H12Y 4489   2.622   3.085   8.698 -1.3222 -1.5109  0.8311
   33POPC  C313 4490   2.794   3.199   8.756 -0.3561 -0.0835  0.1265
   33POPC  H13X 4491   2.855   3.108   8.769 -0.0443  0.2531  1.1177
   33POPC  H13Y 4492   2.816   3.264   8.844 -1.7518 -1.4770  1.5706
   33POPC  C314 4493   2.835   3.285   8.638 -0.6446 -0.1066  0.0887
   33POPC  H14X 4494   2.791   3.386   8.646 -2.4575 -0.9167  0.8951
   33POPC  H14Y 4495   2.820   3.236   8.539  0.3809  0.2877 -0.2823
   33POPC  C315 4496   2.989   3.312   8.623 -0.3609  0.3606 -0.2629
   33POPC  H15X 4497   3.046   3.217   8.618 -0.2227  0.1474  3.2293
   33POPC  H15Y 4498   3.021   3.369   8.713 -0.7059  2.8613 -1.6299
   33POPC  C316 4499   3.018   3.402   8.498 -0.6256  0.3603  0.0830
   33POPC  H16X 4500   2.991   3.347   8.405 -1.0173 -0.9276  0.9504
   33POPC  H16Y 4501   3.125   3.431   8.500  0.3109 -2.7694  2.6667
   33POPC  H16Z 4502   2.952   3.491   8.511 -1.7278  0.3672 -3.9532
   34POPC     N 4503   2.463   6.715  11.228 -0.7760 -0.3049  0.4575
   34POPC   C12 4504   2.486   6.590  11.151  0.3358  0.2436 -0.6763
   34POPC  H12A 4505   2.394   6.534  11.139  0.8956 -0.2925 -2.7352
   34POPC  H12B 4506   2.550   6.530  11.215  0.0842  0.7086  0.0312
   34POPC   C13 4507   2.585   6.787  11.268 -0.2806 -0.1914  1.0018
   34POPC  H13A 4508   2.569   6.876  11.327  0.3539  0.5522  0.0845
   34POPC  H13B 4509   2.661   6.729  11.317 -0.5583  0.9631  2.9162
   34POPC  H13C 4510   2.616   6.829  11.173 -1.0291  0.3779  0.9958
   34POPC   C14 4511   2.384   6.813  11.151 -0.6845  0.4114 -0.0710
   34POPC  H14A 4512   2.362   6.904  11.204 -0.2330  1.1539 -1.1134
   34POPC  H14B 4513   2.444   6.846  11.067 -1.3282  1.3338 -0.1796
   34POPC  H14C 4514   2.298   6.766  11.105  1.1547 -1.0465 -2.2801
   34POPC   C15 4515   2.395   6.686  11.357  0.0050  0.0669 -0.8947
   34POPC  H15A 4516   2.472   6.630  11.409  0.7476  0.1610 -1.8636
   34POPC  H15B 4517   2.308   6.625  11.340 -0.2556  0.5400 -1.2801
   34POPC  H15C 4518   2.362   6.775  11.408 -1.0334 -0.7005 -0.1925
   34POPC   C11 4519   2.571   6.595  11.022  0.4795  0.0541 -0.1794
   34POPC  H11A 4520   2.621   6.498  11.005 -0.6820 -1.0517  2.2536
   34POPC  H11B 4521   2.653   6.669  11.034  0.2897  0.1095  0.9255
   34POPC     P 4522   2.394   6.526  10.841 -0.2019  0.1354 -0.0590
   34POPC   O13 4523   2.317   6.588  10.732 -0.0393  0.2792 -0.0963
   34POPC   O14 4524   2.319   6.442  10.940 -0.0398 -0.4871 -0.6927
   34POPC   O12 4525   2.491   6.631  10.906 -0.7329 -0.0793 -0.2050
   34POPC   O11 4526   2.501   6.428  10.775 -0.9222  0.0459  0.0268
   34POPC    C1 4527   2.591   6.475  10.679 -0.0281 -0.0293 -0.6344
   34POPC    HA 4528   2.669   6.397  10.665 -0.4157 -0.7071  0.8380
   34POPC    HB 4529   2.653   6.563  10.707  0.6385 -0.1221 -1.7427
   34POPC    C2 4530   2.537   6.511  10.536  0.6800  1.0439 -0.3867
   34POPC    HS 4531   2.444   6.572  10.538  1.1197  1.6991  0.4892
   34POPC   O21 4532   2.508   6.384  10.469  0.3894  0.4458  0.1875
   34POPC   C21 4533   2.383   6.337  10.465  0.6387 -0.3047  0.5611
   34POPC   O22 4534   2.288   6.386  10.517  0.2308 -0.4228 -0.0556
   34POPC   C22 4535   2.378   6.217  10.364 -0.0019  0.8453  0.0708
   34POPC   H2R 4536   2.311   6.140  10.407 -1.7752  1.1690 -1.9818
   34POPC   H2S 4537   2.477   6.172  10.345 -0.6049 -0.0915 -0.9306
   34POPC    C3 4538   2.650   6.589  10.464 -0.0687  0.0945  0.3154
   34POPC    HX 4539   2.753   6.559  10.491  0.5876  2.4788  0.6497
   34POPC    HY 4540   2.646   6.691  10.507 -0.9192 -0.0705  0.6457
   34POPC   O31 4541   2.622   6.589  10.322  0.1301 -0.2168  0.5366
   34POPC   C31 4542   2.675   6.492  10.255 -0.7318  0.1483 -0.3373
   34POPC   O32 4543   2.743   6.399  10.297  0.1932  0.4084  0.3301
   34POPC   C32 4544   2.614   6.501  10.112  0.7221 -0.0480  0.1798
   34POPC   H2X 4545   2.630   6.605  10.076  0.8974 -0.0528  0.2442
   34POPC   H2Y 4546   2.503   6.498  10.121  0.7827  0.8225  1.4474
   34POPC   C23 4547   2.314   6.253  10.231  0.7779 -0.1285 -0.3945
   34POPC   H3R 4548   2.355   6.353  10.206 -0.9575  0.2438 -2.0075
   34POPC   H3S 4549   2.206   6.274  10.246  0.5762 -0.7163 -0.9496
   34POPC   C24 4550   2.332   6.155  10.115  0.2348 -0.9873 -0.6689
   34POPC   H4R 4551   2.286   6.066  10.163  1.3804 -1.1540  0.1485
   34POPC   H4S 4552   2.439   6.126  10.111  0.4321 -0.7430  1.7112
   34POPC   C25 4553   2.266   6.196   9.987 -0.5377  0.1723 -0.4729
   34POPC   H5R 4554   2.315   6.288   9.948  1.9868 -0.8420  0.0908
   34POPC   H5S 4555   2.158   6.205  10.011  0.0002  1.9961  1.5616
   34POPC   C26 4556   2.277   6.100   9.874  0.4328  0.2385 -0.4879
   34POPC   H6R 4557   2.258   5.997   9.908  0.7670  0.5201  0.5866
   34POPC   H6S 4558   2.383   6.103   9.840  0.9987  1.0908  1.2603
   34POPC   C27 4559   2.194   6.154   9.754  0.0090  0.0837  0.1010
   34POPC   H7R 4560   2.247   6.118   9.663  0.9711 -0.1781  0.7476
   34POPC   H7S 4561   2.218   6.262   9.751  3.8305 -0.6227 -0.1920
   34POPC   C28 4562   2.042   6.108   9.752  0.4644  0.0185  0.7138
   34POPC   H8R 4563   1.996   6.167   9.835 -0.2724  1.3929 -0.6195
   34POPC   H8S 4564   2.040   6.000   9.776  0.2690  0.1135  1.1422
   34POPC   C29 4565   1.978   6.144   9.621  0.0976  0.3117  0.0037
   34POPC   H91 4566   1.904   6.225   9.627 -1.5153 -1.1874  1.9897
   34POPC  C210 4567   1.997   6.087   9.496  0.8370  0.8602 -0.6639
   34POPC  H101 4568   1.933   6.124   9.415 -0.6448  1.7509  0.8364
   34POPC  C211 4569   2.091   5.978   9.455  0.3810 -0.0053  0.4632
   34POPC  H11R 4570   2.150   5.936   9.539  0.5437 -3.2802 -1.1205
   34POPC  H11S 4571   2.153   6.029   9.378 -2.9398  2.2638 -0.9463
   34POPC  C212 4572   2.018   5.856   9.401  0.9527 -0.3126  0.3469
   34POPC  H12R 4573   2.094   5.786   9.361  0.7615 -0.0807 -0.4437
   34POPC  H12S 4574   1.967   5.874   9.303  1.6876 -1.2857 -0.2319
   34POPC  C213 4575   1.915   5.788   9.489  0.4046  0.1359  0.2759
   34POPC  H13R 4576   1.837   5.866   9.506 -0.6434 -0.2460 -2.3215
   34POPC  H13S 4577   1.972   5.764   9.581 -0.0778  2.2768  1.1959
   34POPC  C214 4578   1.853   5.668   9.421  0.0565 -0.0477 -0.1212
   34POPC  H14R 4579   1.926   5.595   9.379 -0.2507 -0.3590 -0.1245
   34POPC  H14S 4580   1.790   5.711   9.341 -1.7376 -2.1935  0.0205
   34POPC  C215 4581   1.753   5.588   9.508 -0.2313 -0.2365 -0.1129
   34POPC  H15R 4582   1.679   5.542   9.439 -1.4962  1.4409  0.0590
   34POPC  H15S 4583   1.696   5.661   9.570  3.7913  2.8284  0.3291
   34POPC  C216 4584   1.819   5.484   9.598  0.3526  0.5757 -0.4164
   34POPC  H16R 4585   1.769   5.486   9.697  0.4586 -1.3403 -0.2897
   34POPC  H16S 4586   1.926   5.505   9.617  0.2401  0.4645  0.3388
   34POPC  C217 4587   1.803   5.348   9.531  0.2150 -0.6841 -0.0875
   34POPC  H17R 4588   1.698   5.350   9.495  0.5380  0.6427 -1.0356
   34POPC  H17S 4589   1.823   5.259   9.594  0.2840 -1.3919 -1.0744
   34POPC  C218 4590   1.886   5.328   9.403 -0.4365 -0.0705  0.2792
   34POPC  H18R 4591   1.990   5.314   9.439 -0.1283  0.5160 -0.3466
   34POPC  H18S 4592   1.886   5.403   9.321  1.0909  0.5712  0.8261
   34POPC  H18T 4593   1.856   5.234   9.352 -0.1441 -0.9471  1.6688
   34POPC   C33 4594   2.666   6.394  10.005 -0.2981 -0.5468 -0.5935
   34POPC   H3X 4595   2.655   6.288  10.036  1.1651 -1.0815 -1.7941
   34POPC   H3Y 4596   2.775   6.408   9.988 -0.2422 -0.6701 -0.3476
   34POPC   C34 4597   2.594   6.416   9.872  0.0275  0.0096 -0.1378
   34POPC   H4X 4598   2.625   6.513   9.828  0.3422  0.6253  1.3971
   34POPC   H4Y 4599   2.483   6.415   9.879  0.0475 -1.6838  0.3643
   34POPC   C35 4600   2.627   6.303   9.770  0.1164  0.4850 -0.1645
   34POPC   H5X 4601   2.584   6.207   9.804  0.0160  0.3963 -0.5290
   34POPC   H5Y 4602   2.733   6.272   9.766 -0.1812 -0.4782 -1.2690
   34POPC   C36 4603   2.566   6.343   9.634 -0.4950  0.2982 -0.3961
   34POPC   H6X 4604   2.621   6.435   9.604  0.4799  0.3659  1.5148
   34POPC   H6Y 4605   2.463   6.380   9.656 -0.2182  0.6411  0.3368
   34POPC   C37 4606   2.543   6.242   9.522  0.3833  0.4226 -0.2753
   34POPC   H7X 4607   2.477   6.162   9.561 -0.0101 -0.1388 -2.0278
   34POPC   H7Y 4608   2.634   6.187   9.491  0.2648  1.6690 -3.1112
   34POPC   C38 4609   2.462   6.297   9.404 -0.1093  0.2424  0.4178
   34POPC   H8X 4610   2.534   6.361   9.349  0.2707 -1.2818 -0.9415
   34POPC   H8Y 4611   2.374   6.344   9.453 -0.3601 -0.5867  0.7870
   34POPC   C39 4612   2.414   6.197   9.299 -0.3509 -0.0329  0.4661
   34POPC   H9X 4613   2.342   6.244   9.229  0.8615 -0.5049 -1.1533
   34POPC   H9Y 4614   2.371   6.107   9.347 -4.0905  0.4220 -1.6994
   34POPC  C310 4615   2.527   6.131   9.210 -0.2147  0.1373  0.1066
   34POPC  H10X 4616   2.600   6.060   9.253  0.0154  0.8389  0.8996
   34POPC  H10Y 4617   2.593   6.215   9.179  3.0143 -2.9376 -2.0337
   34POPC  C311 4618   2.468   6.059   9.091  1.3014 -0.3082  0.7312
   34POPC  H11X 4619   2.398   6.125   9.035  2.8923 -0.9580 -2.2428
   34POPC  H11Y 4620   2.402   5.975   9.119  0.3214 -0.4498 -1.7261
   34POPC  C312 4621   2.578   6.024   8.990 -0.5692  0.4376  0.2880
   34POPC  H12X 4622   2.661   5.979   9.048 -1.0182  0.3749  0.8942
   34POPC  H12Y 4623   2.620   6.120   8.954 -0.2028 -0.3901 -1.5906
   34POPC  C313 4624   2.537   5.922   8.887 -0.1847  1.3544  0.5374
   34POPC  H13X 4625   2.457   5.968   8.825 -1.8804  0.1783  1.7863
   34POPC  H13Y 4626   2.509   5.827   8.937  0.5084  0.5405 -0.5603
   34POPC  C314 4627   2.654   5.892   8.781 -0.3124  1.1351  0.0433
   34POPC  H14X 4628   2.743   5.873   8.845 -1.5938  0.5662  1.7308
   34POPC  H14Y 4629   2.671   5.987   8.726 -0.0923  0.2240 -1.5287
   34POPC  C315 4630   2.619   5.783   8.677 -0.0120  0.2968  0.8651
   34POPC  H15X 4631   2.519   5.795   8.630 -0.2964 -0.1817  1.3462
   34POPC  H15Y 4632   2.616   5.685   8.728  2.2654 -1.5105 -2.1695
   34POPC  C316 4633   2.720   5.777   8.558  0.2374  0.5344 -0.0959
   34POPC  H16X 4634   2.825   5.757   8.586  0.4968  1.8305 -0.0871
   34POPC  H16Y 4635   2.715   5.870   8.498  2.2112 -1.0948 -3.0369
   34POPC  H16Z 4636   2.680   5.695   8.494  2.2950 -0.1368 -0.5980
   35POPC     N 4637   5.019   3.520  11.434 -0.2829 -0.6106  0.6772
   35POPC   C12 4638   5.064   3.477  11.296 -0.4059 -0.0452 -0.0288
   35POPC  H12A 4639   5.107   3.566  11.252 -0.7400  1.4699  2.5230
   35POPC  H12B 4640   4.975   3.457  11.238 -1.4943  3.3783  0.2687
   35POPC   C13 4641   4.921   3.624  11.414  0.4185  0.1126 -0.5117
   35POPC  H13A 4642   4.835   3.601  11.353  0.2387 -0.2470 -0.1210
   35POPC  H13B 4643   4.890   3.650  11.514 -0.8243  0.3073 -0.9281
   35POPC  H13C 4644   4.958   3.716  11.371  0.0565  0.0720 -0.9162
   35POPC   C14 4645   4.942   3.412  11.505  0.4715  0.5321  0.1168
   35POPC  H14A 4646   4.873   3.453  11.577  0.9812 -0.2127  1.0501
   35POPC  H14B 4647   4.876   3.364  11.435  1.5895 -2.8455  1.1654
   35POPC  H14C 4648   5.009   3.346  11.559  1.1062  0.9452 -0.1511
   35POPC   C15 4649   5.126   3.570  11.523 -0.0984 -0.3809  0.0639
   35POPC  H15A 4650   5.099   3.578  11.627  0.9460 -0.3142  0.3396
   35POPC  H15B 4651   5.171   3.657  11.478  1.4871  1.0090  3.8988
   35POPC  H15C 4652   5.203   3.496  11.526  0.7171  0.4700  1.5717
   35POPC   C11 4653   5.167   3.364  11.279  0.9013  0.5793 -0.3316
   35POPC  H11A 4654   5.158   3.326  11.175 -2.3364 -3.5102  1.1062
   35POPC  H11B 4655   5.143   3.273  11.339 -0.9881  1.3734  0.1920
   35POPC     P 4656   5.392   3.486  11.222  0.1502  0.4649 -0.5529
   35POPC   O13 4657   5.524   3.472  11.286  0.3498 -0.1501  0.7944
   35POPC   O14 4658   5.343   3.625  11.199  0.1572 -0.4780  0.5919
   35POPC   O12 4659   5.296   3.409  11.311  0.6726  0.6792  0.2301
   35POPC   O11 4660   5.405   3.413  11.086  0.5700  0.6815  0.2179
   35POPC    C1 4661   5.305   3.421  10.980  0.3031 -0.1192 -0.2770
   35POPC    HA 4662   5.234   3.506  10.994  0.3823  0.5398 -3.3261
   35POPC    HB 4663   5.267   3.316  10.979 -0.0497 -0.0736  2.0496
   35POPC    C2 4664   5.371   3.429  10.839  0.6219  0.6497 -0.5437
   35POPC    HS 4665   5.284   3.431  10.770  1.3011  2.5489 -1.4089
   35POPC   O21 4666   5.463   3.321  10.813 -0.0523 -0.7351  0.2057
   35POPC   C21 4667   5.464   3.271  10.689 -1.0881 -0.1752 -0.6213
   35POPC   O22 4668   5.416   3.326  10.590  0.0507 -0.0649  0.0918
   35POPC   C22 4669   5.530   3.126  10.691 -0.0403 -0.5403 -0.2847
   35POPC   H2R 4670   5.565   3.108  10.587  0.4108  0.5959 -0.3487
   35POPC   H2S 4671   5.449   3.055  10.720  1.0878 -1.6085  0.3243
   35POPC    C3 4672   5.441   3.562  10.811  0.0891 -0.5188 -0.7837
   35POPC    HX 4673   5.513   3.588  10.892  2.0273  0.3496 -2.6709
   35POPC    HY 4674   5.358   3.632  10.833 -0.8643 -1.6559 -0.6564
   35POPC   O31 4675   5.514   3.581  10.688 -0.7512  0.0897  0.0186
   35POPC   C31 4676   5.433   3.609  10.580  0.1538  0.2497 -0.5070
   35POPC   O32 4677   5.317   3.643  10.597  0.0246  0.4458  0.1207
   35POPC   C32 4678   5.505   3.614  10.444  0.0612  0.3054 -0.1809
   35POPC   H2X 4679   5.585   3.538  10.452  0.3710  0.5142 -1.1493
   35POPC   H2Y 4680   5.552   3.714  10.441 -1.4343  1.0164 -1.3998
   35POPC   C23 4681   5.646   3.114  10.790 -0.1210 -0.1842 -0.1357
   35POPC   H3R 4682   5.608   3.108  10.894 -1.0671  0.1418 -0.4522
   35POPC   H3S 4683   5.719   3.198  10.796  1.2518 -1.3400 -0.1991
   35POPC   C24 4684   5.724   2.991  10.753 -0.2850  0.4083  0.4116
   35POPC   H4R 4685   5.767   3.002  10.651 -0.9034  0.0878  0.1151
   35POPC   H4S 4686   5.661   2.900  10.757  1.0947 -0.5357  2.0273
   35POPC   C25 4687   5.860   2.989  10.832  0.9040 -0.2430  0.6395
   35POPC   H5R 4688   5.822   2.968  10.934  0.1475 -0.3271  0.3401
   35POPC   H5S 4689   5.908   3.088  10.849 -1.5658  0.9872  0.8551
   35POPC   C26 4690   5.941   2.870  10.797  0.4230  0.3649 -0.8860
   35POPC   H6R 4691   5.878   2.780  10.783  0.7761 -0.1185  0.4951
   35POPC   H6S 4692   6.014   2.848  10.877 -0.8145  2.4435  0.9507
   35POPC   C27 4693   6.033   2.881  10.669 -0.2001 -0.4731  0.1662
   35POPC   H7R 4694   6.090   2.976  10.676  1.2361 -1.3464  0.6768
   35POPC   H7S 4695   5.973   2.884  10.576  1.4049 -0.6158 -0.9144
   35POPC   C28 4696   6.129   2.768  10.652  0.2142 -0.3082 -0.1421
   35POPC   H8R 4697   6.170   2.738  10.750 -1.6034  0.0792  0.7659
   35POPC   H8S 4698   6.213   2.803  10.587 -2.6834  1.4834 -3.2451
   35POPC   C29 4699   6.060   2.657  10.583  0.4073 -0.0587  0.1831
   35POPC   H91 4700   5.983   2.605  10.640  0.8183 -0.5475  0.3059
   35POPC  C210 4701   6.083   2.607  10.459 -0.3713 -0.3959 -0.0135
   35POPC  H101 4702   6.019   2.526  10.419  1.9529 -2.0030 -0.6927
   35POPC  C211 4703   6.183   2.665  10.367 -0.4933 -0.1101  0.3743
   35POPC  H11R 4704   6.268   2.594  10.375 -1.7319 -1.5783  1.1603
   35POPC  H11S 4705   6.219   2.769  10.381 -0.0426 -0.1238 -0.6637
   35POPC  C212 4706   6.144   2.665  10.214 -0.2749  0.3296 -0.2755
   35POPC  H12R 4707   6.054   2.728  10.202 -0.2503  0.5186  0.4812
   35POPC  H12S 4708   6.117   2.559  10.196  2.7824 -0.7834  0.9450
   35POPC  C213 4709   6.251   2.718  10.120 -0.8213 -0.0483  0.5999
   35POPC  H13R 4710   6.345   2.659  10.121 -0.5180  0.4335  1.0735
   35POPC  H13S 4711   6.277   2.822  10.150 -0.2229 -0.6292  2.2047
   35POPC  C214 4712   6.190   2.743   9.977  1.2423  0.3196 -0.1377
   35POPC  H14R 4713   6.093   2.792   9.996  0.7428 -1.4247  2.2001
   35POPC  H14S 4714   6.180   2.646   9.922 -1.3186 -0.0715  0.8812
   35POPC  C215 4715   6.273   2.836   9.891  0.0438 -0.1693 -0.2709
   35POPC  H15R 4716   6.364   2.787   9.849 -0.6678  0.5432 -2.8315
   35POPC  H15S 4717   6.303   2.922   9.953  0.5118  0.4022 -1.2706
   35POPC  C216 4718   6.179   2.890   9.780 -0.0805  0.1115  0.3550
   35POPC  H16R 4719   6.099   2.945   9.834 -1.4570 -0.2098 -1.2660
   35POPC  H16S 4720   6.141   2.800   9.726 -2.3490  0.4925  1.2333
   35POPC  C217 4721   6.258   2.969   9.673 -0.3305  0.0932  0.5465
   35POPC  H17R 4722   6.356   2.995   9.719  1.5142 -1.9498 -1.8770
   35POPC  H17S 4723   6.197   3.061   9.663 -0.4087 -0.1385 -1.5676
   35POPC  C218 4724   6.263   2.893   9.539  0.3164  0.8826 -0.6131
   35POPC  H18R 4725   6.302   2.790   9.554  1.2027  1.1796 -0.8638
   35POPC  H18S 4726   6.316   2.947   9.458 -3.5524  2.3470 -2.4532
   35POPC  H18T 4727   6.161   2.881   9.495 -0.3152  2.6464  0.2550
   35POPC   C33 4728   5.407   3.584  10.327 -0.5147 -0.0084 -0.1655
   35POPC   H3X 4729   5.363   3.681  10.296 -2.1395 -0.5557  0.3403
   35POPC   H3Y 4730   5.321   3.516  10.344  0.1380 -0.5868  0.8497
   35POPC   C34 4731   5.500   3.525  10.215  0.3400 -0.0242 -0.7197
   35POPC   H4X 4732   5.549   3.428  10.238  2.6299  0.8967 -1.4064
   35POPC   H4Y 4733   5.585   3.594  10.201  0.3912  0.0447 -0.0931
   35POPC   C35 4734   5.434   3.520  10.074 -0.1339 -0.3782  0.5506
   35POPC   H5X 4735   5.400   3.625  10.055 -0.5673  0.2260  4.0852
   35POPC   H5Y 4736   5.340   3.463  10.084  0.0058 -0.9793 -1.2489
   35POPC   C36 4737   5.524   3.450   9.968 -0.1831  0.5364  0.0477
   35POPC   H6X 4738   5.575   3.364  10.015 -1.1322  0.6968  1.4172
   35POPC   H6Y 4739   5.599   3.521   9.927  0.7297  0.0210  0.7972
   35POPC   C37 4740   5.432   3.401   9.858  0.2237 -0.4747  0.3108
   35POPC   H7X 4741   5.336   3.456   9.864  0.0101 -0.8282  0.1694
   35POPC   H7Y 4742   5.416   3.291   9.869 -1.8283 -0.0339  2.4508
   35POPC   C38 4743   5.499   3.435   9.722  1.0137  0.2298  0.1232
   35POPC   H8X 4744   5.598   3.384   9.724  0.3503 -1.0742  1.2985
   35POPC   H8Y 4745   5.513   3.544   9.702 -0.1412  0.3322 -0.1697
   35POPC   C39 4746   5.412   3.379   9.597 -0.0529 -0.5080 -0.3102
   35POPC   H9X 4747   5.309   3.412   9.626  0.0193  0.1546 -0.7958
   35POPC   H9Y 4748   5.419   3.268   9.591  0.9996 -0.4176 -0.8178
   35POPC  C310 4749   5.446   3.442   9.464 -0.2166  0.8518 -0.8156
   35POPC  H10X 4750   5.555   3.434   9.444  0.2571 -3.5011  2.0534
   35POPC  H10Y 4751   5.420   3.549   9.479  1.7197  1.4121 -1.1710
   35POPC  C311 4752   5.376   3.391   9.341 -0.0139  0.5459 -0.4252
   35POPC  H11X 4753   5.271   3.359   9.362  0.4835 -0.5137  0.5600
   35POPC  H11Y 4754   5.425   3.295   9.313 -0.1885  0.5572 -0.7740
   35POPC  C312 4755   5.384   3.489   9.218  0.7962 -0.1032 -0.1068
   35POPC  H12X 4756   5.489   3.494   9.182  0.0278 -0.9603 -2.7182
   35POPC  H12Y 4757   5.350   3.588   9.255 -1.9502 -1.1138  0.3745
   35POPC  C313 4758   5.294   3.445   9.100 -0.5292  0.8132 -0.5525
   35POPC  H13X 4759   5.186   3.433   9.123 -0.1998  2.3549  2.2786
   35POPC  H13Y 4760   5.327   3.341   9.080 -1.9773  0.2314 -0.0435
   35POPC  C314 4761   5.302   3.525   8.967  0.1788  0.1049  0.0958
   35POPC  H14X 4762   5.407   3.529   8.931 -0.1586  0.6794 -0.8374
   35POPC  H14Y 4763   5.264   3.626   8.992 -1.4419 -0.1560 -1.1426
   35POPC  C315 4764   5.224   3.478   8.846 -0.6193 -0.6591  0.3052
   35POPC  H15X 4765   5.114   3.481   8.860 -0.5726  1.1274  0.5363
   35POPC  H15Y 4766   5.255   3.372   8.833  2.2350  0.1511 -0.0054
   35POPC  C316 4767   5.251   3.549   8.714  0.0218  0.9273 -0.0011
   35POPC  H16X 4768   5.359   3.548   8.687  0.3971 -2.9978  1.0693
   35POPC  H16Y 4769   5.199   3.647   8.720 -1.0475  0.4281 -0.8809
   35POPC  H16Z 4770   5.206   3.489   8.632 -0.1775 -1.0246  1.4713
   36POPC     N 4771   1.607   1.946  10.982  0.5561  0.3499  0.2841
   36POPC   C12 4772   1.664   1.965  10.843 -0.7035  0.6820 -0.7947
   36POPC  H12A 4773   1.593   1.918  10.776 -2.0988 -1.7558  2.1545
   36POPC  H12B 4774   1.755   1.908  10.830 -1.2002  0.0277 -1.4731
   36POPC   C13 4775   1.594   1.797  11.013  0.1557 -0.7409 -0.2082
   36POPC  H13A 4776   1.555   1.787  11.113 -1.1905  2.2435 -0.2966
   36POPC  H13B 4777   1.533   1.745  10.940 -0.2021  0.1483 -0.5628
   36POPC  H13C 4778   1.694   1.758  11.001  1.7740  2.7984  0.4699
   36POPC   C14 4779   1.693   2.009  11.083  0.2524 -0.4574 -0.2798
   36POPC  H14A 4780   1.700   2.116  11.075  0.0200 -0.4528 -0.4048
   36POPC  H14B 4781   1.664   1.986  11.185  0.3042 -0.1305 -0.1900
   36POPC  H14C 4782   1.793   1.969  11.071 -0.1844 -1.5437 -0.3460
   36POPC   C15 4783   1.469   2.004  10.981 -0.2123  0.1838  0.1596
   36POPC  H15A 4784   1.410   1.988  11.070  0.0204 -1.4303  0.0546
   36POPC  H15B 4785   1.411   1.964  10.899 -0.0310 -1.4099  0.7587
   36POPC  H15C 4786   1.470   2.110  10.965 -2.0664  0.0379 -1.3117
   36POPC   C11 4787   1.684   2.106  10.805 -0.3244 -0.3235  0.4057
   36POPC  H11A 4788   1.746   2.174  10.867 -0.7714 -0.6577  1.2382
   36POPC  H11B 4789   1.580   2.147  10.798  0.1781  0.9661  0.0509
   36POPC     P 4790   1.896   2.082  10.652 -0.2281  0.1361 -0.2988
   36POPC   O13 4791   1.930   1.970  10.741  0.0532  0.0230 -0.4691
   36POPC   O14 4792   1.979   2.206  10.657 -0.1420  0.6600 -0.3664
   36POPC   O12 4793   1.748   2.111  10.677 -0.3603 -0.3036 -0.4645
   36POPC   O11 4794   1.891   2.044  10.507 -0.1851  0.0419 -0.1928
   36POPC    C1 4795   1.798   1.952  10.454  0.3723  0.0328 -0.1183
   36POPC    HA 4796   1.696   1.998  10.452 -0.0154 -0.7499  0.7211
   36POPC    HB 4797   1.783   1.861  10.516 -0.8066  0.6813  0.5996
   36POPC    C2 4798   1.849   1.899  10.316  0.0155 -0.6798  0.0309
   36POPC    HS 4799   1.749   1.870  10.277 -0.6412 -0.4387  1.4879
   36POPC   O21 4800   1.943   1.796  10.336 -0.4346 -0.2104 -0.2062
   36POPC   C21 4801   1.936   1.689  10.258 -0.3570 -0.8027  0.1327
   36POPC   O22 4802   1.859   1.669  10.167  0.3523 -0.3685 -0.0718
   36POPC   C22 4803   2.049   1.603  10.293 -0.3180  0.6462 -0.1114
   36POPC   H2R 4804   2.053   1.577  10.401  0.7236 -2.6423 -0.8068
   36POPC   H2S 4805   2.144   1.652  10.265  0.1027 -1.0083 -1.8083
   36POPC    C3 4806   1.908   2.011  10.217  0.5728 -0.3387  0.2434
   36POPC    HX 4807   2.008   2.034  10.258  0.2770 -1.8860  1.9631
   36POPC    HY 4808   1.850   2.106  10.217  0.7079 -0.2545  0.0733
   36POPC   O31 4809   1.916   1.961  10.081 -1.0071  0.5731 -0.0293
   36POPC   C31 4810   1.805   1.972  10.012 -0.1947  0.3135 -0.3688
   36POPC   O32 4811   1.709   2.038  10.045 -0.5649 -0.5204 -0.0757
   36POPC   C32 4812   1.809   1.897   9.876 -0.5288  0.0249 -0.4659
   36POPC   H2X 4813   1.912   1.862   9.856 -0.4369  0.0909 -0.1019
   36POPC   H2Y 4814   1.778   1.972   9.800 -2.3206 -0.1869 -0.0077
   36POPC   C23 4815   2.046   1.466  10.219  1.2693  0.1812 -0.7376
   36POPC   H3R 4816   1.951   1.409  10.203  0.0400  0.9267  3.0026
   36POPC   H3S 4817   2.122   1.402  10.268 -0.0808 -0.6328  0.3916
   36POPC   C24 4818   2.107   1.476  10.080 -0.4625 -0.0677 -0.1847
   36POPC   H4R 4819   2.189   1.551  10.090 -1.9742  1.5344  0.7421
   36POPC   H4S 4820   2.035   1.531  10.016  0.1424  2.0849  0.8734
   36POPC   C25 4821   2.140   1.334  10.024  0.4272  0.6099 -0.0053
   36POPC   H5R 4822   2.045   1.289   9.985  0.0987  0.7635  0.6059
   36POPC   H5S 4823   2.181   1.280  10.111  0.1731  1.6637  0.7859
   36POPC   C26 4824   2.248   1.333   9.909  0.4322 -0.3391 -0.2640
   36POPC   H6R 4825   2.230   1.418   9.840 -1.8419 -0.9282 -0.4846
   36POPC   H6S 4826   2.240   1.244   9.843  0.3757  0.0093 -0.7319
   36POPC   C27 4827   2.396   1.341   9.960 -0.6521 -0.0965 -0.3407
   36POPC   H7R 4828   2.437   1.238   9.965  0.7567  0.4754  0.3210
   36POPC   H7S 4829   2.385   1.371  10.066 -3.1530 -0.9795 -0.2688
   36POPC   C28 4830   2.484   1.444   9.885  0.1062 -0.6311 -0.2203
   36POPC   H8R 4831   2.585   1.460   9.928 -0.0667  2.9251 -0.8147
   36POPC   H8S 4832   2.436   1.542   9.906  1.7323  0.3525 -0.9002
   36POPC   C29 4833   2.499   1.428   9.735 -0.1527 -0.3477  0.4457
   36POPC   H91 4834   2.410   1.454   9.675  0.4419 -1.6212 -1.0394
   36POPC  C210 4835   2.608   1.385   9.668  0.1235 -0.2711 -0.1406
   36POPC  H101 4836   2.591   1.370   9.560  1.6818 -0.3361 -0.4016
   36POPC  C211 4837   2.736   1.326   9.730  0.4702 -0.2999 -0.0263
   36POPC  H11R 4838   2.711   1.255   9.811 -2.2183 -0.8084 -1.2035
   36POPC  H11S 4839   2.784   1.420   9.767 -1.5325  2.1127 -3.0055
   36POPC  C212 4840   2.824   1.253   9.632  0.4188  0.5539  0.5256
   36POPC  H12R 4841   2.765   1.176   9.577 -0.2667  1.8313 -0.5666
   36POPC  H12S 4842   2.910   1.200   9.679 -0.3773 -1.3433 -0.0344
   36POPC  C213 4843   2.881   1.338   9.514  0.1555  0.0106  0.0229
   36POPC  H13R 4844   2.880   1.444   9.547 -1.0831 -0.6753  2.4481
   36POPC  H13S 4845   2.811   1.338   9.428 -1.4509  0.4203  1.2649
   36POPC  C214 4846   3.025   1.296   9.492 -0.2433 -0.0449  0.5867
   36POPC  H14R 4847   3.088   1.294   9.583  0.6755  2.2559  0.0654
   36POPC  H14S 4848   3.079   1.364   9.422 -1.5939 -0.2582 -0.7121
   36POPC  C215 4849   3.034   1.147   9.434  0.6166  0.1844  0.1176
   36POPC  H15R 4850   3.031   1.076   9.519  0.2713  0.6619  0.5078
   36POPC  H15S 4851   3.131   1.121   9.386 -1.7257 -3.9108 -3.0467
   36POPC  C216 4852   2.937   1.118   9.314 -0.0516 -0.0673 -0.2844
   36POPC  H16R 4853   2.831   1.120   9.347 -0.0332  3.1671 -0.0842
   36POPC  H16S 4854   2.954   1.015   9.275 -1.1046 -0.3619  0.0058
   36POPC  C217 4855   2.961   1.208   9.197 -0.2504 -0.1228  0.3049
   36POPC  H17R 4856   2.927   1.312   9.219 -0.8604 -0.3509  0.4571
   36POPC  H17S 4857   2.900   1.177   9.110 -2.8084  2.6119  0.9469
   36POPC  C218 4858   3.105   1.200   9.147 -0.3506 -0.8061 -0.1232
   36POPC  H18R 4859   3.141   1.097   9.125  2.9166  0.2976 -0.4590
   36POPC  H18S 4860   3.172   1.261   9.211 -0.7938  0.3165 -0.7048
   36POPC  H18T 4861   3.112   1.231   9.040  0.8288 -2.3223 -0.5329
   36POPC   C33 4862   1.713   1.771   9.872 -0.1887  0.0382 -0.2300
   36POPC   H3X 4863   1.610   1.812   9.858 -0.3222 -0.2438 -0.0719
   36POPC   H3Y 4864   1.722   1.710   9.964 -3.2987 -2.3238 -1.2918
   36POPC   C34 4865   1.758   1.689   9.750 -0.1111 -0.2442  0.4884
   36POPC   H4X 4866   1.707   1.591   9.745 -1.2563  0.3353  0.3572
   36POPC   H4Y 4867   1.868   1.674   9.755  0.0038  0.7420  1.2343
   36POPC   C35 4868   1.735   1.765   9.614  0.7593  0.1747 -0.5921
   36POPC   H5X 4869   1.792   1.859   9.627 -0.2292  0.8086 -0.7356
   36POPC   H5Y 4870   1.631   1.795   9.590  0.8540  0.5408 -0.5480
   36POPC   C36 4871   1.775   1.694   9.484  0.1382  0.0122 -0.4143
   36POPC   H6X 4872   1.734   1.739   9.391  0.5456  0.6156 -0.3137
   36POPC   H6Y 4873   1.726   1.595   9.495 -0.9627  0.3935 -1.7159
   36POPC   C37 4874   1.923   1.662   9.462 -0.4292 -0.3693  0.1516
   36POPC   H7X 4875   1.968   1.613   9.551 -0.5176 -0.1107  0.3401
   36POPC   H7Y 4876   1.986   1.754   9.455  0.4426 -1.0930 -2.4518
   36POPC   C38 4877   1.958   1.583   9.340 -0.0939 -0.2785 -0.1820
   36POPC   H8X 4878   1.868   1.519   9.331 -1.2421  1.1915  0.3418
   36POPC   H8Y 4879   2.055   1.533   9.358  0.6265  0.8106 -0.9110
   36POPC   C39 4880   1.979   1.665   9.212  0.3631 -0.1499 -0.3601
   36POPC   H9X 4881   2.060   1.736   9.241  0.2408 -0.4001  0.6460
   36POPC   H9Y 4882   1.884   1.720   9.197 -0.6493 -1.7697 -0.0372
   36POPC  C310 4883   2.033   1.606   9.085 -0.4261  0.0709  0.2718
   36POPC  H10X 4884   1.965   1.520   9.067 -1.7101  1.2049 -0.5259
   36POPC  H10Y 4885   2.139   1.576   9.100 -0.7060 -0.6442  0.8999
   36POPC  C311 4886   2.010   1.709   8.969 -0.4023 -0.0584 -0.6270
   36POPC  H11X 4887   2.090   1.695   8.894  0.5548  0.1098  0.3293
   36POPC  H11Y 4888   2.036   1.812   9.002 -1.2837 -0.1470  0.4026
   36POPC  C312 4889   1.879   1.702   8.896 -0.2544 -0.3564  0.3330
   36POPC  H12X 4890   1.807   1.711   8.980  2.2006  1.1846  2.3993
   36POPC  H12Y 4891   1.871   1.598   8.858  1.3825 -0.1101 -0.7564
   36POPC  C313 4892   1.870   1.819   8.796 -0.7407 -0.0707  0.2451
   36POPC  H13X 4893   1.961   1.811   8.734  0.8244  2.7789  1.9666
   36POPC  H13Y 4894   1.885   1.916   8.849 -1.6751  1.2727 -1.7969
   36POPC  C314 4895   1.732   1.840   8.733  0.1051 -0.5402  0.4397
   36POPC  H14X 4896   1.658   1.851   8.815  1.9225 -0.4262  2.1306
   36POPC  H14Y 4897   1.715   1.754   8.666  2.2903  1.2407 -2.6541
   36POPC  C315 4898   1.747   1.966   8.640  0.4701 -0.1034 -0.3001
   36POPC  H15X 4899   1.820   1.948   8.559  1.9035 -1.4782  1.2301
   36POPC  H15Y 4900   1.781   2.051   8.703 -0.5614  1.8143 -2.1841
   36POPC  C316 4901   1.620   2.017   8.573 -0.7156 -0.5015 -0.3048
   36POPC  H16X 4902   1.582   1.941   8.501 -1.7684 -0.6799  0.4218
   36POPC  H16Y 4903   1.632   2.117   8.526  1.4601 -0.9941 -0.9378
   36POPC  H16Z 4904   1.541   2.029   8.650  0.9015 -1.3708  1.5723
   37POPC     N 4905   1.172   5.904   6.498  0.2281  0.2067 -0.5762
   37POPC   C12 4906   1.220   6.036   6.441  0.5285 -0.8502 -0.4588
   37POPC  H12A 4907   1.243   6.097   6.527 -2.2468  0.8221 -0.7786
   37POPC  H12B 4908   1.131   6.081   6.398 -0.5650  0.2181  2.6269
   37POPC   C13 4909   1.160   5.798   6.389 -0.5821 -0.8546 -0.2593
   37POPC  H13A 4910   1.101   5.827   6.304 -1.4514 -2.9790 -0.4455
   37POPC  H13B 4911   1.255   5.760   6.354  0.0819  0.5570 -0.0679
   37POPC  H13C 4912   1.121   5.706   6.431 -2.1491  0.3341  1.0158
   37POPC   C14 4913   1.281   5.860   6.595  0.2228 -0.0050  0.4968
   37POPC  H14A 4914   1.320   5.938   6.658  1.4939  1.4855 -1.9756
   37POPC  H14B 4915   1.258   5.771   6.651  0.7039 -1.4635 -1.4981
   37POPC  H14C 4916   1.369   5.833   6.539 -0.2335  1.3156 -0.9237
   37POPC   C15 4917   1.042   5.908   6.571  0.3759  0.5615 -0.0612
   37POPC  H15A 4918   0.960   5.926   6.503 -0.7679  0.1099  1.1533
   37POPC  H15B 4919   1.037   5.990   6.642  0.2740  2.1713 -1.8446
   37POPC  H15C 4920   1.026   5.817   6.626  0.7247  0.0177 -0.8367
   37POPC   C11 4921   1.340   6.030   6.346  0.0769  0.0334 -0.1471
   37POPC  H11A 4922   1.345   6.140   6.328 -2.9707  0.1660 -0.6653
   37POPC  H11B 4923   1.321   5.978   6.250  0.3699 -1.2977  0.4964
   37POPC     P 4924   1.597   5.982   6.348 -0.0305  0.0264  0.1332
   37POPC   O13 4925   1.596   6.062   6.226  0.7576  0.0409 -0.6149
   37POPC   O14 4926   1.658   5.847   6.329  0.1800  0.3246  0.4749
   37POPC   O12 4927   1.456   5.974   6.407  0.0314 -0.3465 -0.0149
   37POPC   O11 4928   1.685   6.068   6.453  0.6836 -0.0588 -0.0292
   37POPC    C1 4929   1.688   6.011   6.585  0.8350  0.2586  0.2005
   37POPC    HA 4930   1.728   5.907   6.589 -1.0622 -0.5031  0.0784
   37POPC    HB 4931   1.589   5.999   6.634  0.6235  2.2161  0.3215
   37POPC    C2 4932   1.770   6.097   6.680 -0.2523  0.5766 -0.0661
   37POPC    HS 4933   1.756   6.050   6.779 -0.5204  1.2626  0.2232
   37POPC   O21 4934   1.722   6.231   6.673  0.2204 -0.1382 -0.5447
   37POPC   C21 4935   1.612   6.249   6.757 -0.2543 -0.6296 -0.1759
   37POPC   O22 4936   1.561   6.161   6.824  0.3189  0.4603 -0.3656
   37POPC   C22 4937   1.611   6.398   6.771 -0.0506  0.1776 -0.3705
   37POPC   H2R 4938   1.526   6.436   6.710 -0.9469 -1.4423 -0.1912
   37POPC   H2S 4939   1.708   6.439   6.736  0.7725 -0.7356  0.7688
   37POPC    C3 4940   1.920   6.096   6.634  0.0600  0.0788  0.3908
   37POPC    HX 4941   1.914   6.170   6.552 -1.7535 -0.0039  0.4032
   37POPC    HY 4942   1.958   5.999   6.595 -1.0467 -0.4277  0.5224
   37POPC   O31 4943   2.009   6.131   6.741  0.2513  0.4677  0.6583
   37POPC   C31 4944   2.019   6.049   6.846 -0.2557 -0.0440 -0.6173
   37POPC   O32 4945   1.986   5.932   6.846  0.0892  0.1809 -0.5127
   37POPC   C32 4946   2.082   6.134   6.962  0.5856 -0.3458  0.2029
   37POPC   H2X 4947   2.015   6.215   6.997 -1.2304 -1.1691 -1.2181
   37POPC   H2Y 4948   2.178   6.167   6.916 -0.4963  1.3297 -0.9477
   37POPC   C23 4949   1.591   6.434   6.925  0.3789  0.9378  0.1271
   37POPC   H3R 4950   1.490   6.396   6.952  1.6308 -2.4037  0.6103
   37POPC   H3S 4951   1.599   6.544   6.936  0.5743  1.0402 -0.9706
   37POPC   C24 4952   1.710   6.377   7.011 -0.2403  0.4194  0.9025
   37POPC   H4R 4953   1.803   6.412   6.961 -0.0094  1.0540  1.7409
   37POPC   H4S 4954   1.729   6.268   7.011  1.5726  0.6931  1.1384
   37POPC   C25 4955   1.713   6.420   7.148  0.3411  0.1812 -0.5930
   37POPC   H5R 4956   1.624   6.410   7.214  0.4840 -1.0965 -0.5739
   37POPC   H5S 4957   1.744   6.526   7.160  1.1002 -0.1891  1.1400
   37POPC   C26 4958   1.818   6.345   7.236  0.3919  0.5823  0.2755
   37POPC   H6R 4959   1.921   6.377   7.211  0.4665  2.3087  2.4793
   37POPC   H6S 4960   1.813   6.234   7.228  2.8366  0.2893  1.7600
   37POPC   C27 4961   1.808   6.379   7.392  0.0278  0.5336 -0.1534
   37POPC   H7R 4962   1.706   6.344   7.416 -0.1715 -0.5878 -2.3480
   37POPC   H7S 4963   1.818   6.489   7.401  0.1099  0.4645  0.6290
   37POPC   C28 4964   1.924   6.324   7.464  0.4406 -0.3169  0.2486
   37POPC   H8R 4965   1.915   6.359   7.570 -0.0674  0.0170  0.1002
   37POPC   H8S 4966   2.014   6.379   7.428  1.0112 -0.0530  1.9731
   37POPC   C29 4967   1.946   6.174   7.442  0.1547 -0.6527 -0.5330
   37POPC   H91 4968   1.971   6.147   7.338  2.3996  1.9566 -0.7744
   37POPC  C210 4969   1.944   6.080   7.541 -0.5268  0.2399  0.2638
   37POPC  H101 4970   1.953   5.973   7.521  0.0542  0.4546 -0.6996
   37POPC  C211 4971   1.908   6.109   7.680  0.0702  0.4917 -0.1484
   37POPC  H11R 4972   1.802   6.082   7.696 -0.1435  1.6698  0.5813
   37POPC  H11S 4973   1.899   6.219   7.697  0.0307  0.9723 -2.7970
   37POPC  C212 4974   1.994   6.046   7.792  0.4124 -0.0321 -0.5826
   37POPC  H12R 4975   2.081   6.110   7.815 -0.2045 -0.1976  2.7540
   37POPC  H12S 4976   2.048   5.959   7.748  3.5565  1.6987 -0.3512
   37POPC  C213 4977   1.916   6.002   7.919 -0.1134 -0.1635  0.3288
   37POPC  H13R 4978   1.979   5.926   7.971  0.6726 -0.5899 -1.1820
   37POPC  H13S 4979   1.824   5.948   7.889 -0.7066  0.8706  0.2582
   37POPC  C214 4980   1.883   6.125   8.011 -0.2361  0.9485 -0.5185
   37POPC  H14R 4981   1.825   6.203   7.956  0.3183  0.9118 -1.1706
   37POPC  H14S 4982   1.972   6.176   8.053 -0.2362  0.9263 -0.4906
   37POPC  C215 4983   1.806   6.084   8.133 -0.3645 -0.3918 -0.0655
   37POPC  H15R 4984   1.847   5.995   8.186 -0.7128 -0.3842  0.2217
   37POPC  H15S 4985   1.710   6.049   8.088 -0.3074 -2.5580  1.3503
   37POPC  C216 4986   1.772   6.206   8.226  0.1360  0.5424 -0.3953
   37POPC  H16R 4987   1.716   6.284   8.170 -1.1985 -0.7626 -0.9539
   37POPC  H16S 4988   1.871   6.253   8.243  1.1348 -1.1191 -1.3157
   37POPC  C217 4989   1.685   6.169   8.350 -0.3618 -0.2355  0.1107
   37POPC  H17R 4990   1.748   6.100   8.411 -0.4418 -0.2510  0.1743
   37POPC  H17S 4991   1.596   6.114   8.314 -1.3132  0.4728  1.3168
   37POPC  C218 4992   1.637   6.289   8.431  0.3386 -0.9328 -0.5734
   37POPC  H18R 4993   1.549   6.337   8.385  1.2990 -0.6471 -2.1755
   37POPC  H18S 4994   1.718   6.362   8.409  0.0155 -0.4592 -0.2015
   37POPC  H18T 4995   1.627   6.265   8.539  0.3936 -1.5697 -0.7055
   37POPC   C33 4996   2.106   6.034   7.077 -0.6259  0.0179 -0.6150
   37POPC   H3X 4997   2.021   5.971   7.112 -0.9121  0.5853 -0.2530
   37POPC   H3Y 4998   2.137   6.104   7.158 -1.0479 -0.8800  0.3449
   37POPC   C34 4999   2.225   5.941   7.058 -0.1040  0.0826  0.2182
   37POPC   H4X 5000   2.290   5.973   6.973 -1.6559  1.1901 -0.6002
   37POPC   H4Y 5001   2.188   5.841   7.027 -0.5922  0.6266 -1.0253
   37POPC   C35 5002   2.332   5.953   7.171 -0.4370 -0.0448  0.3379
   37POPC   H5X 5003   2.351   6.059   7.198 -3.4741  0.7809 -0.4299
   37POPC   H5Y 5004   2.432   5.910   7.148 -1.1875 -1.7842  0.2267
   37POPC   C36 5005   2.282   5.894   7.307 -0.4351  0.4648 -1.0248
   37POPC   H6X 5006   2.259   5.787   7.286 -1.8086 -0.3477  3.5203
   37POPC   H6Y 5007   2.182   5.940   7.327 -0.2964  0.1608  0.4262
   37POPC   C37 5008   2.370   5.909   7.437 -0.4866  0.8745  0.4181
   37POPC   H7X 5009   2.405   6.014   7.449 -0.0824  0.9442 -1.1613
   37POPC   H7Y 5010   2.463   5.850   7.426 -0.3490  0.9573  1.1051
   37POPC   C38 5011   2.298   5.862   7.566  0.0481  0.3440 -0.2567
   37POPC   H8X 5012   2.272   5.755   7.554 -0.9665  0.0537  3.3010
   37POPC   H8Y 5013   2.204   5.921   7.573 -0.3003 -0.2618  0.3495
   37POPC   C39 5014   2.387   5.857   7.692 -0.0827 -0.5179  0.0566
   37POPC   H9X 5015   2.456   5.944   7.683  0.0445 -0.5342  0.8101
   37POPC   H9Y 5016   2.449   5.765   7.699 -0.8197 -0.9367  1.3886
   37POPC  C310 5017   2.313   5.880   7.820  0.1940 -0.6017 -0.7603
   37POPC  H10X 5018   2.245   5.797   7.849  0.9689 -1.4316 -1.3020
   37POPC  H10Y 5019   2.256   5.976   7.814  1.0390  0.1233  1.6774
   37POPC  C311 5020   2.414   5.893   7.936 -0.3336 -0.6413  0.2286
   37POPC  H11X 5021   2.486   5.976   7.930 -3.7002  2.6911  1.8435
   37POPC  H11Y 5022   2.472   5.798   7.932  0.1666 -0.5319  2.8210
   37POPC  C312 5023   2.345   5.902   8.073 -0.1725  0.4754  0.5066
   37POPC  H12X 5024   2.417   5.890   8.157  2.0124  0.0527 -1.3346
   37POPC  H12Y 5025   2.268   5.823   8.083  1.3987 -1.0594  0.9839
   37POPC  C313 5026   2.267   6.032   8.099  0.2314  0.4888  0.5432
   37POPC  H13X 5027   2.201   6.068   8.018  1.6379  1.5092 -0.1858
   37POPC  H13Y 5028   2.331   6.123   8.112  0.4828  0.8654 -2.6044
   37POPC  C314 5029   2.177   6.014   8.225  0.3301 -0.3679 -0.5209
   37POPC  H14X 5030   2.089   5.947   8.216  0.7227 -1.2818  1.7050
   37POPC  H14Y 5031   2.132   6.109   8.262 -0.3552 -0.7165 -0.4402
   37POPC  C315 5032   2.247   5.958   8.352  0.0523  0.2691  0.1359
   37POPC  H15X 5033   2.329   6.032   8.366 -0.2446  1.0160 -1.8540
   37POPC  H15Y 5034   2.299   5.861   8.336 -2.0208 -0.7526 -0.7407
   37POPC  C316 5035   2.164   5.950   8.478 -0.1190  0.3178 -0.1552
   37POPC  H16X 5036   2.199   5.861   8.534  2.8965  2.1402  1.1109
   37POPC  H16Y 5037   2.057   5.926   8.464 -0.2131  0.1701  0.7473
   37POPC  H16Z 5038   2.168   6.045   8.536 -1.2805  1.2729 -1.5814
   38POPC     N 5039   4.858   0.403   6.105 -0.3610  0.1984  0.6587
   38POPC   C12 5040   5.003   0.443   6.064 -0.1803 -0.0350 -0.2940
   38POPC  H12A 5041   5.005   0.543   6.023  1.2497  0.4280  0.8334
   38POPC  H12B 5042   5.032   0.392   5.973 -2.6720  1.0566 -1.8319
   38POPC   C13 5043   4.758   0.393   5.993  0.4458  0.1555  0.1199
   38POPC  H13A 5044   4.724   0.486   5.951 -3.5479 -0.4880  1.5007
   38POPC  H13B 5045   4.791   0.330   5.911 -0.3240 -0.3652  0.2003
   38POPC  H13C 5046   4.669   0.346   6.033  1.3068 -1.4880  0.2147
   38POPC   C14 5047   4.862   0.269   6.159 -0.1336 -0.0897 -1.0131
   38POPC  H14A 5048   4.917   0.200   6.096 -0.1137 -0.2183 -0.8551
   38POPC  H14B 5049   4.920   0.269   6.250  2.0794 -0.3556 -2.3475
   38POPC  H14C 5050   4.762   0.234   6.183  0.2552 -2.6340 -2.6607
   38POPC   C15 5051   4.800   0.507   6.197 -0.2361  0.6632 -0.2884
   38POPC  H15A 5052   4.693   0.487   6.198 -0.0466 -0.3981 -0.2295
   38POPC  H15B 5053   4.810   0.610   6.169  3.0163  0.6648  0.4728
   38POPC  H15C 5054   4.847   0.491   6.293  2.5853  0.4516 -1.6151
   38POPC   C11 5055   5.114   0.436   6.167 -0.9515 -0.1374  0.7895
   38POPC  H11A 5056   5.094   0.491   6.261  3.3537 -0.8544  2.3970
   38POPC  H11B 5057   5.209   0.480   6.128 -1.3767  1.6280  1.6501
   38POPC     P 5058   5.216   0.277   6.347 -0.3276 -0.2635  0.1820
   38POPC   O13 5059   5.290   0.401   6.377 -0.5708 -0.0923 -0.4923
   38POPC   O14 5060   5.288   0.151   6.357  0.9363  0.3979 -0.3378
   38POPC   O12 5061   5.144   0.300   6.206  0.1235 -0.4861  0.0916
   38POPC   O11 5062   5.099   0.281   6.446 -0.4126 -0.9274  0.3388
   38POPC    C1 5063   5.085   0.384   6.546 -0.3404  0.5446 -0.3983
   38POPC    HA 5064   4.978   0.395   6.573 -0.2338 -0.0216  0.2534
   38POPC    HB 5065   5.122   0.483   6.509  0.0306  0.7267  0.4516
   38POPC    C2 5066   5.168   0.344   6.671 -0.4524  0.7397 -0.0932
   38POPC    HS 5067   5.272   0.316   6.643 -0.4220 -0.8264  1.3946
   38POPC   O21 5068   5.103   0.234   6.743 -0.1886  0.0311 -0.8219
   38POPC   C21 5069   5.180   0.120   6.764  0.4204  0.5805  0.4387
   38POPC   O22 5070   5.298   0.106   6.732 -0.3365  0.3521  0.0707
   38POPC   C22 5071   5.092   0.015   6.832  0.4348  0.3551 -0.6917
   38POPC   H2R 5072   5.126  -0.086   6.804 -0.1655 -0.4187  1.1957
   38POPC   H2S 5073   4.983   0.036   6.822 -0.3554 -0.8714  3.3319
   38POPC    C3 5074   5.185   0.465   6.766  0.3835  0.2895  0.5889
   38POPC    HX 5075   5.082   0.499   6.789  0.3178  1.5840 -1.3854
   38POPC    HY 5076   5.228   0.546   6.702  0.3201  0.0350  0.2196
   38POPC   O31 5077   5.270   0.437   6.881  0.0036  0.6350  0.2343
   38POPC   C31 5078   5.252   0.519   6.981 -0.6596  0.0600 -0.7304
   38POPC   O32 5079   5.173   0.612   6.991  0.0523  0.2270 -0.0074
   38POPC   C32 5080   5.350   0.482   7.097  0.9967 -0.0930 -0.4701
   38POPC   H2X 5081   5.451   0.518   7.068  0.5291  2.3253  0.6194
   38POPC   H2Y 5082   5.352   0.372   7.110 -0.4596  0.1572  2.9212
   38POPC   C23 5083   5.126   0.005   6.979  0.2148 -0.5908 -0.2092
   38POPC   H3R 5084   5.236  -0.006   6.976  0.3239  0.3411  0.1047
   38POPC   H3S 5085   5.083  -0.090   7.018 -2.2876  0.4779 -0.1673
   38POPC   C24 5086   5.098   0.124   7.070 -0.3817 -0.4751 -0.8204
   38POPC   H4R 5087   4.991   0.114   7.098  0.4059 -2.7324  1.8294
   38POPC   H4S 5088   5.111   0.223   7.022 -0.5599  0.5401  1.1083
   38POPC   C25 5089   5.183   0.118   7.198 -0.6037 -0.3128  0.4887
   38POPC   H5R 5090   5.290   0.147   7.190 -0.2823 -1.4076  0.7135
   38POPC   H5S 5091   5.180   0.012   7.230 -0.4759 -0.4524  0.0356
   38POPC   C26 5092   5.129   0.201   7.317  1.2378  0.3400 -0.0210
   38POPC   H6R 5093   5.020   0.185   7.302  1.3469  0.8831 -1.6240
   38POPC   H6S 5094   5.137   0.309   7.294 -1.2368  0.7156  0.5488
   38POPC   C27 5095   5.176   0.164   7.456 -1.0191  0.6562  0.7534
   38POPC   H7R 5096   5.286   0.168   7.469 -0.8785 -3.1033  1.8650
   38POPC   H7S 5097   5.145   0.057   7.463  2.8219 -0.5053  2.6481
   38POPC   C28 5098   5.116   0.251   7.561  0.5209  0.0422  1.0605
   38POPC   H8R 5099   5.006   0.252   7.543  0.9648  2.1781 -2.2479
   38POPC   H8S 5100   5.159   0.352   7.547 -1.3186  0.6381 -0.7415
   38POPC   C29 5101   5.151   0.193   7.698  0.3550 -0.1637 -0.0456
   38POPC   H91 5102   5.096   0.100   7.717 -0.6453  0.1222 -1.3746
   38POPC  C210 5103   5.235   0.230   7.792  1.3824 -0.3830  0.9322
   38POPC  H101 5104   5.241   0.168   7.882 -0.6039 -0.8876  0.7712
   38POPC  C211 5105   5.316   0.354   7.800 -0.5071 -0.6715  0.2408
   38POPC  H11R 5106   5.291   0.427   7.720  1.4412 -2.4009 -2.1310
   38POPC  H11S 5107   5.416   0.315   7.769 -0.9309 -0.6241 -1.2864
   38POPC  C212 5108   5.336   0.427   7.935  0.4716  0.2884 -0.1720
   38POPC  H12R 5109   5.405   0.513   7.919 -1.4414  1.7696 -0.9041
   38POPC  H12S 5110   5.365   0.355   8.014  0.8040  0.3507 -0.2336
   38POPC  C213 5111   5.205   0.492   7.980 -0.2543  0.2307 -0.2360
   38POPC  H13R 5112   5.121   0.420   7.971  1.0810 -1.1874 -2.4719
   38POPC  H13S 5113   5.175   0.579   7.918 -1.1926  0.3779  0.4232
   38POPC  C214 5114   5.213   0.535   8.126  1.1590  0.3236 -0.4603
   38POPC  H14R 5115   5.295   0.610   8.136  1.0603  0.7162 -2.1596
   38POPC  H14S 5116   5.238   0.445   8.185  2.6542  0.6016 -0.6304
   38POPC  C215 5117   5.085   0.599   8.172  0.1050 -0.2264  0.1085
   38POPC  H15R 5118   4.997   0.533   8.181 -0.2102  0.4258  2.4741
   38POPC  H15S 5119   5.061   0.687   8.108 -2.2264  0.1293  1.3789
   38POPC  C216 5120   5.092   0.645   8.321  0.4050 -0.2683 -0.1082
   38POPC  H16R 5121   5.110   0.555   8.384 -0.2607  0.0747  0.5974
   38POPC  H16S 5122   4.990   0.681   8.346  1.3020  1.7219  0.9637
   38POPC  C217 5123   5.187   0.761   8.352 -0.8532  0.5421  0.1779
   38POPC  H17R 5124   5.163   0.839   8.276 -1.3704  0.2934  0.0823
   38POPC  H17S 5125   5.292   0.724   8.347 -0.4573  1.7571 -1.3867
   38POPC  C218 5126   5.148   0.821   8.488 -0.2467 -0.3486 -0.3539
   38POPC  H18R 5127   5.216   0.895   8.534 -3.2213  0.8257  2.6042
   38POPC  H18S 5128   5.141   0.745   8.569  2.4238  1.0348  1.3072
   38POPC  H18T 5129   5.051   0.874   8.473 -0.7366 -1.3937 -0.9900
   38POPC   C33 5130   5.301   0.554   7.220  0.0095  0.2728 -0.1643
   38POPC   H3X 5131   5.199   0.512   7.230  1.1984 -3.5809 -2.2080
   38POPC   H3Y 5132   5.289   0.663   7.202  0.5437  0.5277  0.9731
   38POPC   C34 5133   5.385   0.524   7.343  0.4719 -0.0026  0.3944
   38POPC   H4X 5134   5.429   0.422   7.344  2.1961  0.6215 -1.9085
   38POPC   H4Y 5135   5.317   0.529   7.431 -2.5285  1.5605 -1.8097
   38POPC   C35 5136   5.498   0.629   7.369  0.2935 -0.1830  0.9346
   38POPC   H5X 5137   5.452   0.730   7.367 -0.4203 -0.5097  0.1982
   38POPC   H5Y 5138   5.569   0.610   7.285 -0.3800 -1.5891  0.6502
   38POPC   C36 5139   5.573   0.605   7.503  0.2807  0.5061  0.4124
   38POPC   H6X 5140   5.682   0.602   7.486  0.2351 -1.3185  0.2567
   38POPC   H6Y 5141   5.558   0.500   7.535 -0.0138  0.0382 -1.1831
   38POPC   C37 5142   5.553   0.714   7.606 -0.3076 -0.1709 -0.3998
   38POPC   H7X 5143   5.448   0.728   7.637  0.2370  0.9086  1.0763
   38POPC   H7Y 5144   5.580   0.816   7.571  0.2915  0.2686  1.2222
   38POPC   C38 5145   5.644   0.694   7.728 -0.4199 -0.6206 -0.9216
   38POPC   H8X 5146   5.750   0.682   7.696  0.7423  2.9962  0.9715
   38POPC   H8Y 5147   5.611   0.599   7.776 -0.2852 -0.5371 -0.6569
   38POPC   C39 5148   5.655   0.802   7.841  0.9390  0.0838  0.2930
   38POPC   H9X 5149   5.706   0.893   7.802 -1.5335  1.6927  0.6390
   38POPC   H9Y 5150   5.723   0.763   7.920  1.3951  1.9394  0.8484
   38POPC  C310 5151   5.520   0.845   7.897  0.1792  0.5909 -0.2230
   38POPC  H10X 5152   5.470   0.754   7.937 -0.8328  2.0474  2.0359
   38POPC  H10Y 5153   5.458   0.890   7.816  0.0601 -0.3073 -0.6420
   38POPC  C311 5154   5.533   0.955   7.999  0.1971 -0.3138  0.2782
   38POPC  H11X 5155   5.427   0.986   8.015 -1.0410 -3.7535 -0.5814
   38POPC  H11Y 5156   5.595   1.036   7.956  3.3304 -2.0403  1.2947
   38POPC  C312 5157   5.591   0.908   8.130 -0.2083 -0.2364 -0.5748
   38POPC  H12X 5158   5.686   0.852   8.113 -0.8768 -1.7749  0.4651
   38POPC  H12Y 5159   5.522   0.837   8.180 -0.3326  0.4988  0.3175
   38POPC  C313 5160   5.618   1.029   8.229 -0.1306 -0.3027  0.1706
   38POPC  H13X 5161   5.658   1.101   8.155 -2.6085  0.0561 -0.9172
   38POPC  H13Y 5162   5.687   0.995   8.309 -1.2770 -2.8351  0.1645
   38POPC  C314 5163   5.491   1.083   8.298  0.1388 -0.3666 -0.2052
   38POPC  H14X 5164   5.448   1.004   8.363  0.6027 -0.3929  0.0731
   38POPC  H14Y 5165   5.414   1.099   8.219 -1.7013 -2.0759  1.1191
   38POPC  C315 5166   5.517   1.212   8.373  0.0389 -0.6162  0.3079
   38POPC  H15X 5167   5.557   1.291   8.305 -2.4386  0.9203  0.4900
   38POPC  H15Y 5168   5.599   1.203   8.447 -1.1957  0.4100  1.8600
   38POPC  C316 5169   5.393   1.257   8.447 -0.5509  0.1266  0.7328
   38POPC  H16X 5170   5.342   1.188   8.517 -1.0425 -2.0234 -1.5942
   38POPC  H16Y 5171   5.316   1.282   8.371 -1.1609  1.6307  1.7892
   38POPC  H16Z 5172   5.405   1.350   8.507  1.1507  0.8903 -0.7037
   39POPC     N 5173   2.186   5.483   5.947 -0.5620  0.0680 -0.5311
   39POPC   C12 5174   2.173   5.352   6.028  0.2861  0.0798  0.2106
   39POPC  H12A 5175   2.249   5.281   5.999 -0.3788 -0.6811  0.2632
   39POPC  H12B 5176   2.077   5.305   6.010  0.8429 -1.9737  2.1864
   39POPC   C13 5177   2.142   5.461   5.800 -0.0643 -0.3221  0.1655
   39POPC  H13A 5178   2.177   5.538   5.732 -0.9003  0.0289  0.1275
   39POPC  H13B 5179   2.185   5.369   5.762  1.8573 -0.5876  2.7008
   39POPC  H13C 5180   2.037   5.454   5.778  0.0778 -1.1258 -0.2943
   39POPC   C14 5181   2.100   5.590   6.010 -0.2231  0.0344 -0.5823
   39POPC  H14A 5182   2.146   5.631   6.098 -2.7040  1.0759  0.2949
   39POPC  H14B 5183   2.092   5.671   5.939 -3.0938 -1.7035 -2.4632
   39POPC  H14C 5184   2.000   5.556   6.030  0.0440 -0.5667 -0.2434
   39POPC   C15 5185   2.332   5.522   5.948 -0.5658 -0.3812 -0.3167
   39POPC  H15A 5186   2.330   5.627   5.924  1.2156 -0.7396 -2.2952
   39POPC  H15B 5187   2.400   5.462   5.890  1.6407  0.8879  0.8297
   39POPC  H15C 5188   2.361   5.510   6.051 -0.6640 -1.1812 -0.3748
   39POPC   C11 5189   2.179   5.358   6.176 -0.5501  0.1786  0.2326
   39POPC  H11A 5190   2.154   5.260   6.222 -2.0699 -0.0954 -1.0916
   39POPC  H11B 5191   2.107   5.434   6.213 -0.2889  0.1499  0.8120
   39POPC     P 5192   2.431   5.286   6.195  0.2174  0.1351  0.3453
   39POPC   O13 5193   2.544   5.351   6.125  0.6054 -0.9801  0.4494
   39POPC   O14 5194   2.372   5.162   6.135 -0.0973 -0.6278  0.1836
   39POPC   O12 5195   2.314   5.392   6.216  0.3319  0.1453  0.3794
   39POPC   O11 5196   2.465   5.260   6.342  0.2422 -0.3925 -0.2824
   39POPC    C1 5197   2.352   5.225   6.427 -0.5332 -0.5733  0.4197
   39POPC    HA 5198   2.289   5.143   6.387 -0.2581 -0.3122 -0.5660
   39POPC    HB 5199   2.289   5.316   6.441  1.8118  1.1906  0.0404
   39POPC    C2 5200   2.390   5.190   6.569  0.0442  0.3087  0.2379
   39POPC    HS 5201   2.301   5.143   6.617  0.9915  0.0472  1.7971
   39POPC   O21 5202   2.419   5.309   6.640  0.4682  0.6090 -0.0716
   39POPC   C21 5203   2.362   5.332   6.751  0.3997  0.1751 -0.3028
   39POPC   O22 5204   2.301   5.247   6.819  0.4288 -0.2811 -0.2415
   39POPC   C22 5205   2.380   5.475   6.788  0.1753  0.4645  0.6318
   39POPC   H2R 5206   2.280   5.510   6.822 -1.6212 -3.2177 -0.3813
   39POPC   H2S 5207   2.408   5.537   6.699 -0.6417  0.3214  0.2670
   39POPC    C3 5208   2.502   5.089   6.574 -0.3297  0.2026  0.2625
   39POPC    HX 5209   2.601   5.131   6.543  1.2891 -1.9875  2.0974
   39POPC    HY 5210   2.481   5.005   6.505  0.6187  0.1967 -0.0341
   39POPC   O31 5211   2.510   5.029   6.707 -0.3826 -0.0948  0.1786
   39POPC   C31 5212   2.584   5.110   6.786  0.3291 -0.3610 -0.2225
   39POPC   O32 5213   2.648   5.206   6.757 -0.6441 -0.7238  0.4089
   39POPC   C32 5214   2.569   5.055   6.929  0.4411  0.1546 -0.0707
   39POPC   H2X 5215   2.471   5.077   6.977  0.6811 -1.5283  1.2841
   39POPC   H2Y 5216   2.574   4.944   6.931 -1.2028  0.0579  1.8663
   39POPC   C23 5217   2.490   5.498   6.887 -0.1533 -0.2520 -1.3075
   39POPC   H3R 5218   2.496   5.606   6.913 -0.5569 -1.0555  2.9025
   39POPC   H3S 5219   2.592   5.469   6.853 -0.1449 -2.0530  0.1369
   39POPC   C24 5220   2.469   5.433   7.030  0.0704 -0.2520  0.1809
   39POPC   H4R 5221   2.482   5.323   7.019  3.7636  0.0510  0.3304
   39POPC   H4S 5222   2.369   5.462   7.067  0.4828 -0.3340  1.3978
   39POPC   C25 5223   2.579   5.468   7.130 -0.1442 -0.2422  0.2033
   39POPC   H5R 5224   2.576   5.579   7.122  1.2922 -0.0799  1.5264
   39POPC   H5S 5225   2.680   5.433   7.101 -1.4912 -2.0582 -2.7623
   39POPC   C26 5226   2.549   5.419   7.270  0.2045  0.2925 -0.0306
   39POPC   H6R 5227   2.575   5.311   7.269 -1.0008 -0.0135 -0.2490
   39POPC   H6S 5228   2.442   5.424   7.299 -0.3925 -1.9291 -1.6116
   39POPC   C27 5229   2.640   5.490   7.376 -0.0647  0.3197  0.5117
   39POPC   H7R 5230   2.619   5.600   7.374 -2.0276  0.0088  1.2612
   39POPC   H7S 5231   2.743   5.461   7.347 -0.7997  0.3456 -2.3462
   39POPC   C28 5232   2.625   5.437   7.520 -0.2560 -1.2094  0.1559
   39POPC   H8R 5233   2.530   5.473   7.564 -0.6311  0.3126 -1.7511
   39POPC   H8S 5234   2.697   5.490   7.585 -3.4935  3.0757  0.7032
   39POPC   C29 5235   2.639   5.280   7.524  0.1182 -0.6116 -0.3755
   39POPC   H91 5236   2.743   5.248   7.511  0.4418 -0.3906  1.4482
   39POPC  C210 5237   2.545   5.195   7.570  0.1078 -0.0499  0.1819
   39POPC  H101 5238   2.561   5.086   7.572 -2.1977 -0.4363 -0.3560
   39POPC  C211 5239   2.405   5.234   7.605 -0.1306 -0.1480 -0.1200
   39POPC  H11R 5240   2.336   5.206   7.524  1.4503  3.2311 -2.9210
   39POPC  H11S 5241   2.393   5.345   7.606  0.6576 -0.0123 -2.0694
   39POPC  C212 5242   2.348   5.174   7.734  0.2679 -1.1894  0.0855
   39POPC  H12R 5243   2.371   5.065   7.739  3.5734 -0.5971 -0.2697
   39POPC  H12S 5244   2.237   5.183   7.738  0.2115 -2.0578  1.0949
   39POPC  C213 5245   2.414   5.246   7.854 -0.3138 -0.1832  0.0110
   39POPC  H13R 5246   2.396   5.356   7.846  0.7302 -0.0193 -0.2825
   39POPC  H13S 5247   2.524   5.236   7.843 -0.0212  1.4858  1.0574
   39POPC  C214 5248   2.382   5.185   7.996 -0.5625  0.4421  0.7022
   39POPC  H14R 5249   2.443   5.093   8.003  1.5024  1.7558  0.8731
   39POPC  H14S 5250   2.274   5.158   7.997 -0.6857  0.7216 -1.1232
   39POPC  C215 5251   2.402   5.287   8.114 -0.0256  0.1955  0.4627
   39POPC  H15R 5252   2.386   5.243   8.215  0.8371 -1.3046 -0.0232
   39POPC  H15S 5253   2.338   5.374   8.087  1.4475  0.6562 -1.8410
   39POPC  C216 5254   2.539   5.353   8.113 -0.4569 -0.2348 -0.2807
   39POPC  H16R 5255   2.554   5.413   8.021  0.6295  0.2866  0.2255
   39POPC  H16S 5256   2.610   5.268   8.126  1.6482  1.7504  2.1340
   39POPC  C217 5257   2.580   5.456   8.220 -0.4546  0.8397 -0.2036
   39POPC  H17R 5258   2.682   5.489   8.191  0.6809 -3.0318 -1.1213
   39POPC  H17S 5259   2.592   5.399   8.315 -1.5124  1.3549  0.2565
   39POPC  C218 5260   2.481   5.572   8.243  0.3826  0.5123 -0.4819
   39POPC  H18R 5261   2.378   5.533   8.233  0.8682 -1.6615  1.8805
   39POPC  H18S 5262   2.501   5.652   8.168 -0.8345  0.5715 -0.7583
   39POPC  H18T 5263   2.489   5.617   8.345 -1.6758 -3.8964  1.9001
   39POPC   C33 5264   2.667   5.097   7.034 -0.2918  0.1247 -0.6119
   39POPC   H3X 5265   2.679   5.205   7.053 -0.1972 -0.1143  0.8078
   39POPC   H3Y 5266   2.769   5.066   7.003 -0.5910 -0.3975 -1.1048
   39POPC   C34 5267   2.628   5.030   7.171  0.2214 -0.1125  0.2352
   39POPC   H4X 5268   2.538   5.076   7.217 -1.6039 -2.3485 -0.9014
   39POPC   H4Y 5269   2.716   5.044   7.238  1.9872  0.5133 -2.0906
   39POPC   C35 5270   2.601   4.879   7.172 -0.3686  0.0962 -0.0542
   39POPC   H5X 5271   2.681   4.818   7.125 -2.4721 -2.6613 -0.2996
   39POPC   H5Y 5272   2.506   4.852   7.122 -0.0912  0.1911 -0.6377
   39POPC   C36 5273   2.577   4.827   7.317  0.1389  1.3046 -0.0710
   39POPC   H6X 5274   2.492   4.868   7.376 -0.9335 -0.3010 -0.4520
   39POPC   H6Y 5275   2.680   4.831   7.361 -0.2872  0.2862  1.0864
   39POPC   C37 5276   2.541   4.673   7.321 -0.1307  0.1249 -0.8843
   39POPC   H7X 5277   2.630   4.626   7.274  0.6634  1.3471 -0.6438
   39POPC   H7Y 5278   2.448   4.658   7.262  0.0534  3.3031 -2.2003
   39POPC   C38 5279   2.520   4.605   7.458 -0.2054 -0.6185 -0.1035
   39POPC   H8X 5280   2.517   4.496   7.437  2.2455 -0.6483 -0.6224
   39POPC   H8Y 5281   2.428   4.645   7.505 -0.5659 -0.3881 -0.9916
   39POPC   C39 5282   2.639   4.623   7.554 -0.4542 -0.4709  0.1215
   39POPC   H9X 5283   2.640   4.730   7.584 -1.9394 -0.8776  1.8390
   39POPC   H9Y 5284   2.735   4.597   7.506  2.2689  2.3776  3.4714
   39POPC  C310 5285   2.633   4.543   7.679  0.1002 -0.3022 -0.2074
   39POPC  H10X 5286   2.653   4.435   7.661  3.7341  0.5982 -2.3712
   39POPC  H10Y 5287   2.529   4.555   7.719  0.6180 -1.1774  1.5277
   39POPC  C311 5288   2.726   4.592   7.785 -0.3429 -0.1703  0.6583
   39POPC  H11X 5289   2.709   4.697   7.818 -0.9205  0.3192 -1.0834
   39POPC  H11Y 5290   2.830   4.580   7.748  0.1638 -0.4545  2.0738
   39POPC  C312 5291   2.714   4.515   7.911 -0.0754 -0.2325 -1.0374
   39POPC  H12X 5292   2.740   4.408   7.897 -1.5885 -0.8347  0.3847
   39POPC  H12Y 5293   2.617   4.515   7.965  1.0935 -1.6450  1.2125
   39POPC  C313 5294   2.807   4.572   8.024  0.0209 -0.1977 -0.6620
   39POPC  H13X 5295   2.750   4.648   8.083 -0.5054  0.1242 -1.5613
   39POPC  H13Y 5296   2.895   4.617   7.973  0.6320 -0.0662  0.4725
   39POPC  C314 5297   2.865   4.454   8.112  0.0747 -0.3421  0.5798
   39POPC  H14X 5298   2.936   4.502   8.184 -0.3998  1.2687  0.0249
   39POPC  H14Y 5299   2.916   4.381   8.046 -1.7049  0.4562 -1.7976
   39POPC  C315 5300   2.774   4.384   8.211 -0.2283 -0.3305  0.0353
   39POPC  H15X 5301   2.676   4.343   8.176 -0.1208 -1.4800  1.0071
   39POPC  H15Y 5302   2.733   4.458   8.284 -0.9066 -2.2020  1.6565
   39POPC  C316 5303   2.843   4.272   8.286  0.1390 -0.1664  0.1391
   39POPC  H16X 5304   2.796   4.256   8.386  0.5753 -1.7975  0.1035
   39POPC  H16Y 5305   2.953   4.288   8.291  0.6536 -1.6652 -3.3295
   39POPC  H16Z 5306   2.822   4.177   8.233 -0.5604 -0.4046  0.8187
   40POPC     N 5307   3.781   3.155   6.163  1.0220 -0.1572  0.2313
   40POPC   C12 5308   3.665   3.241   6.119 -0.3624  0.7664 -0.2446
   40POPC  H12A 5309   3.584   3.234   6.189 -0.0942 -0.8066 -0.0463
   40POPC  H12B 5310   3.619   3.202   6.029  3.1090 -0.7767 -1.5439
   40POPC   C13 5311   3.822   3.211   6.298  0.3173 -0.4796  0.5024
   40POPC  H13A 5312   3.837   3.317   6.282 -1.8192 -0.4911 -2.5324
   40POPC  H13B 5313   3.735   3.204   6.361  0.5506 -2.2730  0.6709
   40POPC  H13C 5314   3.911   3.169   6.343  1.1659  0.6720 -0.0264
   40POPC   C14 5315   3.742   3.012   6.185  0.0978 -0.2280  0.1058
   40POPC  H14A 5316   3.725   2.968   6.088  2.7616  0.8437 -0.9551
   40POPC  H14B 5317   3.825   2.954   6.224  0.8881 -0.2186 -1.4911
   40POPC  H14C 5318   3.662   2.999   6.256 -0.8217  0.2209 -0.8226
   40POPC   C15 5319   3.891   3.166   6.067  0.5081 -0.5092  0.0114
   40POPC  H15A 5320   3.922   3.270   6.061 -2.8885  0.6337 -0.1924
   40POPC  H15B 5321   3.869   3.132   5.968  0.3968 -1.1316  0.2467
   40POPC  H15C 5322   3.973   3.102   6.095  2.0212  1.2858 -0.0814
   40POPC   C11 5323   3.686   3.395   6.113 -0.0356  0.2981  0.2128
   40POPC  H11A 5324   3.595   3.429   6.060 -1.0365 -0.3810  1.4355
   40POPC  H11B 5325   3.774   3.421   6.050  1.0929  0.5619  1.8164
   40POPC     P 5326   3.583   3.483   6.331 -0.2472  0.0139 -0.0641
   40POPC   O13 5327   3.517   3.356   6.373 -0.8417 -0.1585 -0.6201
   40POPC   O14 5328   3.495   3.573   6.256 -0.4097 -0.5767 -0.3631
   40POPC   O12 5329   3.708   3.453   6.241 -0.1762  0.9322  0.5629
   40POPC   O11 5330   3.654   3.553   6.452 -0.1301  0.1050 -0.2365
   40POPC    C1 5331   3.732   3.477   6.547  0.8465  0.1084 -0.6329
   40POPC    HA 5332   3.815   3.546   6.572  2.2470 -2.5598  2.9675
   40POPC    HB 5333   3.773   3.383   6.503  1.3422  0.1941 -0.3626
   40POPC    C2 5334   3.660   3.453   6.686 -0.4992 -0.3665 -0.8279
   40POPC    HS 5335   3.575   3.383   6.669 -3.0066  2.5294 -1.1364
   40POPC   O21 5336   3.625   3.579   6.744  0.2359 -0.0104  0.1337
   40POPC   C21 5337   3.493   3.601   6.740 -0.3731 -0.1939  0.0536
   40POPC   O22 5338   3.408   3.540   6.677 -0.1634 -0.4980  0.2941
   40POPC   C22 5339   3.462   3.714   6.833 -0.1632  0.0604 -0.7444
   40POPC   H2R 5340   3.442   3.803   6.770  0.1761  0.2668 -0.5679
   40POPC   H2S 5341   3.535   3.725   6.916  0.0603 -0.0722 -0.9222
   40POPC    C3 5342   3.753   3.375   6.782  0.1570 -0.1688  0.5012
   40POPC    HX 5343   3.848   3.431   6.799  0.8103 -1.1645  0.2326
   40POPC    HY 5344   3.771   3.278   6.731  0.7090  1.0984 -1.8388
   40POPC   O31 5345   3.681   3.350   6.906  0.5635  0.0036  0.2134
   40POPC   C31 5346   3.742   3.397   7.019  0.0558 -0.7009 -0.4077
   40POPC   O32 5347   3.847   3.458   7.023  0.3012 -0.0360 -0.3029
   40POPC   C32 5348   3.659   3.365   7.142  0.8154  0.4738  0.1685
   40POPC   H2X 5349   3.567   3.426   7.156  0.1697 -0.3862 -0.1842
   40POPC   H2Y 5350   3.718   3.383   7.235  0.7163  1.4600  0.0502
   40POPC   C23 5351   3.325   3.694   6.894 -0.1461  0.1396 -0.0811
   40POPC   H3R 5352   3.250   3.658   6.821 -0.6847 -0.4813  0.7575
   40POPC   H3S 5353   3.295   3.796   6.927 -0.0131  0.2317 -0.2421
   40POPC   C24 5354   3.334   3.607   7.023 -0.1167 -0.4238  0.1858
   40POPC   H4R 5355   3.374   3.668   7.106  2.1215 -0.9308 -0.4685
   40POPC   H4S 5356   3.408   3.527   6.999  0.0912 -0.0246 -0.5281
   40POPC   C25 5357   3.194   3.552   7.051  0.3326 -0.2618  0.0960
   40POPC   H5R 5358   3.167   3.457   7.001 -0.0569  0.5965 -1.3840
   40POPC   H5S 5359   3.123   3.629   7.014  1.1526  1.5974  2.1265
   40POPC   C26 5360   3.171   3.548   7.203 -0.9066  0.5728 -0.5469
   40POPC   H6R 5361   3.062   3.537   7.226 -1.2584  0.0742 -2.3197
   40POPC   H6S 5362   3.206   3.643   7.249  3.5039 -0.6504 -0.9073
   40POPC   C27 5363   3.253   3.442   7.275 -0.0908 -0.1869 -0.3703
   40POPC   H7R 5364   3.357   3.431   7.238  0.4685 -1.7279  1.4911
   40POPC   H7S 5365   3.211   3.340   7.260  0.4025 -0.2813 -1.1386
   40POPC   C28 5366   3.266   3.483   7.421 -0.2363  0.1350 -0.0406
   40POPC   H8R 5367   3.296   3.590   7.419 -1.1377  0.4487  1.8458
   40POPC   H8S 5368   3.350   3.424   7.465  0.7642  1.9517  0.5966
   40POPC   C29 5369   3.133   3.462   7.488  0.4080 -0.0980 -0.0972
   40POPC   H91 5370   3.043   3.474   7.425  0.9757  0.0959 -0.8977
   40POPC  C210 5371   3.112   3.397   7.608  0.1862 -0.1722  0.0303
   40POPC  H101 5372   3.014   3.365   7.647  0.8776 -2.0407  0.3653
   40POPC  C211 5373   3.217   3.343   7.706 -0.5933 -0.2818 -0.3093
   40POPC  H11R 5374   3.309   3.403   7.686 -0.0354 -0.4095  1.6698
   40POPC  H11S 5375   3.256   3.241   7.690  3.9057  1.1585 -0.0976
   40POPC  C212 5376   3.175   3.347   7.855 -0.0541  0.9561 -0.3758
   40POPC  H12R 5377   3.262   3.319   7.918 -1.0109  2.1488  1.5545
   40POPC  H12S 5378   3.108   3.262   7.879  1.3273 -0.2474 -0.6558
   40POPC  C213 5379   3.113   3.474   7.914 -0.2371 -0.7612  1.3527
   40POPC  H13R 5380   3.009   3.489   7.877 -0.0127 -3.1764 -0.5471
   40POPC  H13S 5381   3.177   3.561   7.888 -0.2080 -1.1894 -0.0870
   40POPC  C214 5382   3.121   3.469   8.073  0.7183 -0.0767  0.6318
   40POPC  H14R 5383   3.227   3.466   8.107  0.9537  1.6220  0.1334
   40POPC  H14S 5384   3.063   3.381   8.106 -2.0857  1.4977  0.2295
   40POPC  C215 5385   3.061   3.598   8.138 -0.3565  0.0410  0.8274
   40POPC  H15R 5386   3.060   3.598   8.250  0.1015  2.3761  0.8850
   40POPC  H15S 5387   2.954   3.600   8.107 -0.3311 -0.8892  0.6640
   40POPC  C216 5388   3.129   3.725   8.085  0.1619 -0.1976 -0.5285
   40POPC  H16R 5389   3.115   3.731   7.975 -0.2226  2.5768 -0.3998
   40POPC  H16S 5390   3.236   3.719   8.115 -0.4342  2.5442  2.8011
   40POPC  C217 5391   3.073   3.859   8.140  0.1365 -0.1575 -0.0896
   40POPC  H17R 5392   3.036   3.845   8.243  0.3478 -0.8819 -0.1085
   40POPC  H17S 5393   2.985   3.890   8.080  0.2964  1.2286  0.3526
   40POPC  C218 5394   3.166   3.982   8.146 -0.2893  0.2961 -0.3965
   40POPC  H18R 5395   3.256   3.959   8.208 -0.5388  0.3117 -0.0242
   40POPC  H18S 5396   3.110   4.074   8.174  0.1288  0.8015 -1.1678
   40POPC  H18T 5397   3.196   4.016   8.044  0.3655 -1.2870 -0.7571
   40POPC   C33 5398   3.615   3.212   7.139 -0.2193 -0.5475  0.8403
   40POPC   H3X 5399   3.699   3.150   7.101  0.0678 -1.2362  2.5112
   40POPC   H3Y 5400   3.527   3.185   7.076 -0.3313  2.1747 -0.3163
   40POPC   C34 5401   3.591   3.151   7.274  0.3846 -0.0408 -0.2631
   40POPC   H4X 5402   3.512   3.183   7.346 -1.7208 -2.2979 -1.4458
   40POPC   H4Y 5403   3.684   3.173   7.330  1.0710 -0.8554 -1.0570
   40POPC   C35 5404   3.574   2.999   7.255 -0.5971 -0.0557  0.3773
   40POPC   H5X 5405   3.663   2.960   7.201 -0.8909  0.9932 -0.9121
   40POPC   H5Y 5406   3.491   2.992   7.181 -0.1876 -1.6832  0.0349
   40POPC   C36 5407   3.539   2.928   7.380  0.5225 -0.6900 -0.3634
   40POPC   H6X 5408   3.516   2.823   7.352  0.7536 -0.7110 -0.4728
   40POPC   H6Y 5409   3.441   2.973   7.409 -0.8020 -2.9424 -1.1174
   40POPC   C37 5410   3.634   2.950   7.499 -0.1995 -0.2362  0.0213
   40POPC   H7X 5411   3.629   3.053   7.539 -2.1855  0.1066 -1.0050
   40POPC   H7Y 5412   3.741   2.938   7.468  1.0123  2.5312  2.6814
   40POPC   C38 5413   3.599   2.864   7.622  0.4524  0.0247  0.1812
   40POPC   H8X 5414   3.615   2.759   7.593 -1.0694 -0.8961  2.3729
   40POPC   H8Y 5415   3.488   2.859   7.633  0.3325  0.5368 -0.6835
   40POPC   C39 5416   3.669   2.901   7.751 -0.3036  0.3555 -0.5494
   40POPC   H9X 5417   3.635   3.003   7.778 -3.0502 -0.4752 -0.5921
   40POPC   H9Y 5418   3.780   2.906   7.748 -0.1890  0.6135  1.9987
   40POPC  C310 5419   3.625   2.811   7.869  0.3081  0.4388  0.8950
   40POPC  H10X 5420   3.656   2.706   7.851  0.4141  0.3823  1.4030
   40POPC  H10Y 5421   3.514   2.808   7.877  0.1447  0.3135 -0.8801
   40POPC  C311 5422   3.679   2.855   8.002 -0.1209  0.5503  0.0164
   40POPC  H11X 5423   3.667   2.965   8.016 -2.0223  0.3166  0.4526
   40POPC  H11Y 5424   3.789   2.840   8.013 -0.1955  0.9573  1.5175
   40POPC  C312 5425   3.617   2.781   8.123 -0.5829 -0.0986  0.1892
   40POPC  H12X 5426   3.641   2.673   8.111  1.6496  0.5997 -2.8588
   40POPC  H12Y 5427   3.508   2.801   8.113 -0.5419 -0.0333 -0.1450
   40POPC  C313 5428   3.656   2.834   8.259 -0.3165 -0.4049  0.0174
   40POPC  H13X 5429   3.593   2.777   8.331  1.9573 -0.4750  2.0632
   40POPC  H13Y 5430   3.637   2.942   8.272  0.8173 -0.0715 -0.9367
   40POPC  C314 5431   3.799   2.809   8.293  0.0096  0.0321  0.4157
   40POPC  H14X 5432   3.860   2.860   8.216 -2.3375  0.0162 -1.5698
   40POPC  H14Y 5433   3.817   2.700   8.304 -2.1885 -0.2915  1.4032
   40POPC  C315 5434   3.847   2.869   8.419  0.7831  0.5255  0.6192
   40POPC  H15X 5435   3.942   2.818   8.444  0.0165 -0.2200  2.0798
   40POPC  H15Y 5436   3.782   2.853   8.507 -1.2546  0.8191 -0.7671
   40POPC  C316 5437   3.883   3.018   8.419  0.0991 -0.4793  0.4362
   40POPC  H16X 5438   3.931   3.045   8.516 -1.7480 -2.1638  1.9068
   40POPC  H16Y 5439   3.795   3.085   8.407  1.2912  0.9723 -0.5716
   40POPC  H16Z 5440   3.949   3.040   8.333 -0.3555  0.9385  0.4336
   41CHL1    C3 5441   4.497   0.318  10.154 -0.1955 -0.1528  0.2936
   41CHL1    H3 5442   4.443   0.403  10.106 -0.6603 -0.7739 -0.2989
   41CHL1    O3 5443   4.506   0.348  10.291 -0.2990  0.2975  0.4584
   41CHL1   H3' 5444   4.543   0.269  10.332 -2.1420 -0.5379  0.6204
   41CHL1    C4 5445   4.423   0.182  10.124  0.0982 -0.2134 -0.7918
   41CHL1   H4A 5446   4.480   0.100  10.173 -0.6991 -1.8804 -2.5556
   41CHL1   H4B 5447   4.324   0.177  10.175  0.4038  0.3386 -0.1221
   41CHL1    C5 5448   4.406   0.159   9.979  0.5495  0.5085  0.3044
   41CHL1    C6 5449   4.284   0.151   9.920  0.4134 -0.3576 -0.3213
   41CHL1    H6 5450   4.194   0.174   9.978  2.0542  3.4536  1.1172
   41CHL1    C7 5451   4.265   0.111   9.777 -0.1094  0.1761 -0.2309
   41CHL1   H7A 5452   4.173   0.049   9.770  0.1132 -0.0026 -1.7730
   41CHL1   H7B 5453   4.243   0.211   9.733 -0.4252  0.9494  1.5680
   41CHL1    C8 5454   4.396   0.077   9.702  0.4210 -0.0031 -0.2601
   41CHL1    H8 5455   4.430  -0.026   9.722 -0.5708 -0.2882  0.0156
   41CHL1   C14 5456   4.378   0.096   9.548 -0.3187 -0.1676 -0.4431
   41CHL1   H14 5457   4.355   0.205   9.539  0.1979 -0.0675 -0.5464
   41CHL1   C15 5458   4.253   0.026   9.484  0.0010  0.7527  0.6406
   41CHL1  H15A 5459   4.262  -0.072   9.535 -0.3310  0.1450 -0.4505
   41CHL1  H15B 5460   4.159   0.069   9.524 -0.0262 -0.8341  2.4406
   41CHL1   C16 5461   4.276   0.028   9.335 -0.8920 -0.6945  0.1456
   41CHL1  H16A 5462   4.259  -0.069   9.285  1.9698 -1.1426 -0.1566
   41CHL1  H16B 5463   4.201   0.100   9.297 -0.2091  1.0155  1.8340
   41CHL1   C17 5464   4.435   0.082   9.324  0.1682 -0.6373 -0.6499
   41CHL1   H17 5465   4.414   0.190   9.307 -0.6986 -0.2875  2.1040
   41CHL1   C13 5466   4.501   0.067   9.462  0.3774 -0.4638  0.4381
   41CHL1   C18 5467   4.543  -0.080   9.477 -0.1307  0.3080  0.0753
   41CHL1  H18A 5468   4.550  -0.109   9.584  1.5449 -0.8954 -0.3173
   41CHL1  H18B 5469   4.472  -0.152   9.432  2.6152 -1.1977 -2.1814
   41CHL1  H18C 5470   4.642  -0.095   9.430 -1.0069 -1.9523 -1.1908
   41CHL1   C12 5471   4.618   0.171   9.499  0.2314 -0.4357 -0.2173
   41CHL1  H12A 5472   4.714   0.152   9.447  0.8039 -0.7367  0.9290
   41CHL1  H12B 5473   4.577   0.268   9.465  0.6493  0.4041  1.6034
   41CHL1   C11 5474   4.636   0.158   9.652  0.7000 -0.2042  0.9494
   41CHL1  H11A 5475   4.672   0.055   9.675 -1.1242 -1.0957  0.0075
   41CHL1  H11B 5476   4.716   0.228   9.683 -0.9759  1.5820  1.4624
   41CHL1    C9 5477   4.512   0.166   9.746 -0.0632  0.1147 -0.1370
   41CHL1    H9 5478   4.472   0.268   9.730  0.2178  0.1409 -0.6951
   41CHL1   C10 5479   4.534   0.152   9.899  0.2694  0.2057 -0.2206
   41CHL1   C19 5480   4.603   0.016   9.932  0.0789  0.0722  0.2103
   41CHL1  H19A 5481   4.697   0.008   9.874 -0.3474  3.5050 -1.2126
   41CHL1  H19B 5482   4.633   0.016  10.039  1.2915 -0.7226 -0.1091
   41CHL1  H19C 5483   4.538  -0.070   9.907 -1.5840  1.4707 -0.5244
   41CHL1    C1 5484   4.632   0.272   9.936 -0.0782 -0.5417  0.3165
   41CHL1   H1A 5485   4.735   0.237   9.911 -0.8902 -1.8673 -1.3744
   41CHL1   H1B 5486   4.607   0.359   9.872 -1.1765 -0.2578  1.1057
   41CHL1    C2 5487   4.636   0.316  10.085 -0.0917  0.7363 -0.1469
   41CHL1   H2A 5488   4.682   0.417  10.095 -0.6758  1.0510 -0.6122
   41CHL1   H2B 5489   4.701   0.245  10.141 -0.6137  0.4363  0.0817
   41CHL1   C20 5490   4.507   0.025   9.202 -0.4254  1.0364  0.5006
   41CHL1   H20 5491   4.527  -0.082   9.223 -0.8311  0.9757  0.5889
   41CHL1   C21 5492   4.645   0.089   9.186  0.1296  0.3459  0.8380
   41CHL1  H21A 5493   4.634   0.196   9.159 -2.7265 -0.4479 -1.6857
   41CHL1  H21B 5494   4.705   0.052   9.100  0.8758  1.0605  1.0298
   41CHL1  H21C 5495   4.711   0.088   9.276  2.5319  1.2398 -0.8106
   41CHL1   C22 5496   4.431   0.056   9.069  0.9231  0.4191 -0.1782
   41CHL1  H22A 5497   4.321   0.062   9.084  0.8394  0.9215 -0.9435
   41CHL1  H22B 5498   4.458   0.156   9.030 -3.0552  1.1984 -1.3715
   41CHL1   C23 5499   4.469  -0.038   8.950  0.0059 -0.3685 -0.8787
   41CHL1  H23A 5500   4.431   0.008   8.856 -0.1497 -0.7496 -1.0029
   41CHL1  H23B 5501   4.579  -0.038   8.940 -0.1113 -0.5349 -2.2994
   41CHL1   C24 5502   4.409  -0.177   8.975 -0.1937 -0.4276  0.4140
   41CHL1  H24A 5503   4.430  -0.221   9.075 -2.0734  1.0733  1.5252
   41CHL1  H24B 5504   4.298  -0.172   8.972 -0.1467  2.0102  0.7444
   41CHL1   C25 5505   4.456  -0.277   8.867 -0.4173 -0.1051  1.1739
   41CHL1   H25 5506   4.559  -0.243   8.841 -1.3964  1.7655 -0.5449
   41CHL1   C26 5507   4.454  -0.424   8.919  0.3314 -0.8125  0.2723
   41CHL1  H26A 5508   4.358  -0.446   8.970  0.0604  0.0606  0.1592
   41CHL1  H26B 5509   4.469  -0.494   8.834  0.0202  0.3476 -0.7547
   41CHL1  H26C 5510   4.522  -0.455   9.002  0.3142 -0.2942  0.4844
   41CHL1   C27 5511   4.372  -0.261   8.733 -0.1684 -0.7706  0.4648
   41CHL1  H27A 5512   4.424  -0.307   8.646 -0.2108  0.2373 -0.1084
   41CHL1  H27B 5513   4.268  -0.299   8.749 -0.2086 -0.8460  0.0389
   41CHL1  H27C 5514   4.369  -0.156   8.697 -2.4210 -0.7157  0.6308
   42CHL1    C3 5515   2.534   4.966  10.079  0.3471  0.8134 -0.3477
   42CHL1    H3 5516   2.496   5.051  10.019  1.3198  1.4182 -0.1253
   42CHL1    O3 5517   2.542   5.003  10.215  0.2588  0.1021 -0.2791
   42CHL1   H3' 5518   2.452   5.014  10.244  0.1004  0.0558 -0.7421
   42CHL1    C4 5519   2.454   4.835  10.091 -0.3294  0.4885 -0.2762
   42CHL1   H4A 5520   2.517   4.767  10.152 -2.2231  0.0984  1.3207
   42CHL1   H4B 5521   2.353   4.847  10.134 -0.4874  0.9415 -0.7619
   42CHL1    C5 5522   2.429   4.784   9.949 -0.3306  0.0658  0.3090
   42CHL1    C6 5523   2.315   4.761   9.892  0.7728 -0.0102  0.3262
   42CHL1    H6 5524   2.223   4.796   9.942  0.1927  0.2851 -0.8999
   42CHL1    C7 5525   2.292   4.696   9.758  0.3558  0.4553 -0.1692
   42CHL1   H7A 5526   2.220   4.612   9.768  0.0136  0.6211 -1.1462
   42CHL1   H7B 5527   2.241   4.765   9.688  1.6181  1.1454 -0.4360
   42CHL1    C8 5528   2.422   4.631   9.696 -0.0492 -0.0125  0.3221
   42CHL1    H8 5529   2.446   4.535   9.746  1.0645  0.5886  0.9723
   42CHL1   C14 5530   2.405   4.612   9.547 -0.1079  0.1923 -0.8472
   42CHL1   H14 5531   2.378   4.711   9.506 -0.3664  0.3668 -0.2593
   42CHL1   C15 5532   2.292   4.510   9.513  0.4146  0.2231  0.8293
   42CHL1  H15A 5533   2.306   4.413   9.565 -0.4191 -0.2200  0.2458
   42CHL1  H15B 5534   2.202   4.570   9.537  1.5642  2.5812 -0.4483
   42CHL1   C16 5535   2.311   4.481   9.367  0.4824 -0.1053  0.6805
   42CHL1  H16A 5536   2.317   4.371   9.353 -0.3914 -0.1304  0.4664
   42CHL1  H16B 5537   2.231   4.533   9.310  1.1743  1.3011  0.9328
   42CHL1   C17 5538   2.454   4.540   9.330 -0.6070  0.0395  0.0683
   42CHL1   H17 5539   2.435   4.644   9.294  0.6973  0.2605 -0.0321
   42CHL1   C13 5540   2.528   4.568   9.471  0.8803  0.0121  0.8252
   42CHL1   C18 5541   2.594   4.433   9.511  0.1370  0.6753  0.2050
   42CHL1  H18A 5542   2.531   4.343   9.491 -1.6531  0.9301  3.8203
   42CHL1  H18B 5543   2.697   4.437   9.470 -0.4517  0.8420 -1.3430
   42CHL1  H18C 5544   2.599   4.435   9.622  1.3220  0.9364  0.1566
   42CHL1   C12 5545   2.631   4.681   9.487  0.1614 -0.6011 -0.7724
   42CHL1  H12A 5546   2.724   4.673   9.427  0.2420  0.2597 -0.7837
   42CHL1  H12B 5547   2.572   4.767   9.448  1.1935  0.2360 -0.5193
   42CHL1   C11 5548   2.660   4.704   9.637 -0.1933 -0.0864  0.0211
   42CHL1  H11A 5549   2.723   4.621   9.674  2.8302  1.9838 -0.1068
   42CHL1  H11B 5550   2.736   4.785   9.645  0.4151 -0.7803  1.8650
   42CHL1    C9 5551   2.539   4.734   9.724 -0.0250  0.5507  0.5095
   42CHL1    H9 5552   2.500   4.830   9.683 -0.9529 -0.5673 -1.3394
   42CHL1   C10 5553   2.562   4.759   9.874  0.2709  0.0463  0.5662
   42CHL1   C19 5554   2.632   4.627   9.929 -0.1457  0.0603  0.2068
   42CHL1  H19A 5555   2.726   4.602   9.875  0.1831  1.1482  0.2502
   42CHL1  H19B 5556   2.657   4.655  10.034 -0.3424  2.2871 -0.2824
   42CHL1  H19C 5557   2.556   4.546   9.930 -0.0167 -0.0642  0.9697
   42CHL1    C1 5558   2.656   4.877   9.892  0.3162  0.1344  0.9219
   42CHL1   H1A 5559   2.754   4.839   9.856  1.0350  1.1675  1.7177
   42CHL1   H1B 5560   2.625   4.964   9.830 -2.6879 -0.9840  0.6767
   42CHL1    C2 5561   2.675   4.930  10.033  0.4917 -0.2641 -0.0972
   42CHL1   H2A 5562   2.748   5.012  10.020  0.9037 -0.6055  0.0532
   42CHL1   H2B 5563   2.730   4.852  10.089  1.2925 -1.1943 -2.0649
   42CHL1   C20 5564   2.526   4.470   9.218 -0.4593  0.3978  0.5203
   42CHL1   H20 5565   2.556   4.372   9.260  0.1285  1.4884  2.8283
   42CHL1   C21 5566   2.666   4.530   9.189  0.6019  0.3207  0.2418
   42CHL1  H21A 5567   2.720   4.475   9.109  0.6764  0.4589  0.1951
   42CHL1  H21B 5568   2.733   4.528   9.277  0.8413  2.3457  0.1544
   42CHL1  H21C 5569   2.649   4.639   9.171 -3.0442 -0.2495 -0.5081
   42CHL1   C22 5570   2.454   4.438   9.090  0.6745  0.6942  0.0856
   42CHL1  H22A 5571   2.529   4.384   9.028 -0.5527 -2.4641  1.1646
   42CHL1  H22B 5572   2.377   4.360   9.110  0.3590  0.3759 -2.1053
   42CHL1   C23 5573   2.384   4.550   9.008 -0.4923 -0.2238 -0.0958
   42CHL1  H23A 5574   2.306   4.593   9.073  0.3327  0.7466  0.2749
   42CHL1  H23B 5575   2.457   4.633   9.002 -0.0248 -0.5529  0.9069
   42CHL1   C24 5576   2.325   4.519   8.872 -0.2599  0.1677 -0.0424
   42CHL1  H24A 5577   2.412   4.483   8.813  2.1719  1.9980  2.1662
   42CHL1  H24B 5578   2.249   4.438   8.878 -0.0253  0.0656  2.4414
   42CHL1   C25 5579   2.271   4.647   8.795  0.4035 -0.3198  0.1585
   42CHL1   H25 5580   2.222   4.610   8.703 -0.3295  1.9799 -0.4553
   42CHL1   C26 5581   2.153   4.719   8.856  0.4918  0.2134  0.1710
   42CHL1  H26A 5582   2.176   4.756   8.958  1.4056  0.4640 -0.1116
   42CHL1  H26B 5583   2.136   4.812   8.797 -0.3786  0.2756  0.5100
   42CHL1  H26C 5584   2.066   4.650   8.855  0.1335  0.6653  0.1807
   42CHL1   C27 5585   2.371   4.758   8.751 -0.5533  0.1131 -0.3334
   42CHL1  H27A 5586   2.329   4.830   8.677 -1.3770 -0.1255 -0.1102
   42CHL1  H27B 5587   2.403   4.806   8.846 -0.5110 -2.1718  0.8891
   42CHL1  H27C 5588   2.456   4.701   8.709 -1.5660  0.3611 -2.8683
   43CHL1    C3 5589   6.241   5.123  10.161  0.0761 -0.4115  0.3690
   43CHL1    H3 5590   6.309   5.210  10.175 -0.8582  0.2828  0.6866
   43CHL1    O3 5591   6.192   5.086  10.286  0.0431 -0.2989 -0.5573
   43CHL1   H3' 5592   6.265   5.047  10.335 -0.2416 -0.3845 -0.1975
   43CHL1    C4 5593   6.122   5.158  10.071 -0.5606  0.4478 -0.1721
   43CHL1   H4A 5594   6.055   5.070  10.082  0.7933 -0.4282  1.5004
   43CHL1   H4B 5595   6.085   5.250  10.121  2.5172  0.9116  1.4573
   43CHL1    C5 5596   6.153   5.188   9.928 -0.5012  0.2805  0.1172
   43CHL1    C6 5597   6.114   5.302   9.867  0.3638  0.3003  0.4770
   43CHL1    H6 5598   6.043   5.368   9.919  1.4089  0.6268  1.5360
   43CHL1    C7 5599   6.133   5.327   9.724  0.1664  0.3005  0.5648
   43CHL1   H7A 5600   6.043   5.335   9.659 -1.2790 -0.5380  2.3764
   43CHL1   H7B 5601   6.179   5.428   9.721  0.1411  0.3308  1.1100
   43CHL1    C8 5602   6.222   5.227   9.646 -0.4152 -0.3815 -0.1190
   43CHL1    H8 5603   6.150   5.156   9.601 -1.7960  0.2548  1.0261
   43CHL1   C14 5604   6.284   5.294   9.526  0.6964 -0.0337 -0.5840
   43CHL1   H14 5605   6.347   5.376   9.567 -0.0470  0.1016  0.3178
   43CHL1   C15 5606   6.190   5.372   9.428  0.1496  0.1247 -0.0517
   43CHL1  H15A 5607   6.101   5.310   9.404  1.2258 -1.2913 -0.5784
   43CHL1  H15B 5608   6.161   5.473   9.465  1.2007  0.3011  0.3490
   43CHL1   C16 5609   6.278   5.382   9.302 -0.6092 -0.2742 -0.6510
   43CHL1  H16A 5610   6.230   5.344   9.209  1.1841 -1.3675 -1.1898
   43CHL1  H16B 5611   6.307   5.487   9.279  0.2814 -0.3479  0.0995
   43CHL1   C17 5612   6.409   5.304   9.327 -0.3036 -0.4310  0.2512
   43CHL1   H17 5613   6.483   5.369   9.378  0.3401 -0.9168 -0.0551
   43CHL1   C13 5614   6.372   5.206   9.438  0.4947  0.7660  0.4712
   43CHL1   C18 5615   6.290   5.085   9.378 -0.3101 -0.0995  0.1795
   43CHL1  H18A 5616   6.208   5.121   9.312 -1.4470 -1.8493  0.5751
   43CHL1  H18B 5617   6.360   5.018   9.324  1.7480  1.6433  0.5321
   43CHL1  H18C 5618   6.244   5.028   9.461  1.3183  1.2442  2.0832
   43CHL1   C12 5619   6.486   5.152   9.534 -0.5504  0.7181  0.0394
   43CHL1  H12A 5620   6.550   5.079   9.479 -0.9353  1.6756 -1.7652
   43CHL1  H12B 5621   6.552   5.238   9.555 -0.0992 -0.0013  1.7208
   43CHL1   C11 5622   6.435   5.087   9.661 -0.8060 -0.9211  0.2509
   43CHL1  H11A 5623   6.377   4.995   9.638 -0.8220 -0.5045 -1.4955
   43CHL1  H11B 5624   6.516   5.056   9.730  0.1642  3.7423  1.5837
   43CHL1    C9 5625   6.325   5.164   9.734  0.3112 -0.4947 -0.4095
   43CHL1    H9 5626   6.383   5.248   9.777  2.1214 -0.4392 -2.8191
   43CHL1   C10 5627   6.254   5.086   9.855 -0.2439 -0.7042  0.2377
   43CHL1   C19 5628   6.173   4.965   9.810  0.0031  0.6129  0.1922
   43CHL1  H19A 5629   6.239   4.877   9.797  0.8578  1.4559 -1.5136
   43CHL1  H19B 5630   6.099   4.939   9.888  0.6425  2.2681  1.4264
   43CHL1  H19C 5631   6.126   4.992   9.713  0.2122 -0.1079 -0.1096
   43CHL1    C1 5632   6.362   5.046   9.952 -0.4438  0.6529 -0.0612
   43CHL1   H1A 5633   6.433   4.975   9.904 -0.2263  0.8058  0.0316
   43CHL1   H1B 5634   6.435   5.128   9.969  1.8427 -1.0062 -1.2434
   43CHL1    C2 5635   6.310   5.004  10.094 -0.3773  0.1851 -0.9176
   43CHL1   H2A 5636   6.383   4.959  10.164 -1.9941  1.3034  1.6660
   43CHL1   H2B 5637   6.229   4.929  10.085  0.7717 -1.7039  2.4802
   43CHL1   C20 5638   6.476   5.263   9.201 -0.0057  0.1117 -0.5177
   43CHL1   H20 5639   6.415   5.188   9.145  1.7059 -1.5234 -0.2860
   43CHL1   C21 5640   6.609   5.194   9.221  0.1924  0.2363 -0.9305
   43CHL1  H21A 5641   6.600   5.104   9.286  0.8436  0.5045 -0.4587
   43CHL1  H21B 5642   6.675   5.267   9.272  1.9538 -1.2502 -0.9585
   43CHL1  H21C 5643   6.671   5.161   9.135 -0.4347 -2.1264 -0.5600
   43CHL1   C22 5644   6.498   5.386   9.102  0.2623 -0.3107  0.0374
   43CHL1  H22A 5645   6.416   5.460   9.112 -0.6628 -1.6345  3.7115
   43CHL1  H22B 5646   6.586   5.447   9.131 -1.5047  3.5989 -2.0797
   43CHL1   C23 5647   6.508   5.352   8.953  0.1007  0.0533 -0.5522
   43CHL1  H23A 5648   6.595   5.282   8.947  0.3282  0.4447 -2.3803
   43CHL1  H23B 5649   6.413   5.299   8.930  0.6315 -1.5474  0.7285
   43CHL1   C24 5650   6.535   5.468   8.870  0.2675  0.1066 -0.3627
   43CHL1  H24A 5651   6.453   5.542   8.878  0.0339 -0.0810 -0.9875
   43CHL1  H24B 5652   6.629   5.520   8.899  1.1621 -0.7078 -1.6654
   43CHL1   C25 5653   6.536   5.438   8.711 -0.3829 -0.1449 -0.8056
   43CHL1   H25 5654   6.627   5.377   8.696  0.5279  1.0997 -0.5422
   43CHL1   C26 5655   6.424   5.353   8.667 -0.0639  0.4664  0.3577
   43CHL1  H26A 5656   6.435   5.251   8.710 -2.5948  0.7878  2.0279
   43CHL1  H26B 5657   6.327   5.387   8.710 -0.1002  0.9443 -0.0848
   43CHL1  H26C 5658   6.432   5.355   8.556  1.1102  0.3016  0.4262
   43CHL1   C27 5659   6.552   5.572   8.642 -0.0561 -0.7545  0.0561
   43CHL1  H27A 5660   6.479   5.647   8.678  1.5125  0.2224  1.3630
   43CHL1  H27B 5661   6.651   5.619   8.658 -1.0130  1.2441  0.3748
   43CHL1  H27C 5662   6.541   5.556   8.533  2.8029  0.4834 -0.5034
   44CHL1    C3 5663   5.217   5.790  10.070 -0.1599  0.0868 -0.9802
   44CHL1    H3 5664   5.113   5.776  10.032 -0.6473  0.8423  0.0449
   44CHL1    O3 5665   5.197   5.766  10.202  0.2086  0.7208  0.4955
   44CHL1   H3' 5666   5.152   5.683  10.222  2.4491 -0.0749  2.6582
   44CHL1    C4 5667   5.308   5.680  10.016 -0.2417 -0.3343 -0.0567
   44CHL1   H4A 5668   5.407   5.692  10.064 -0.0033 -1.9175 -0.0856
   44CHL1   H4B 5669   5.259   5.582  10.035  1.5969 -1.6492 -1.6915
   44CHL1    C5 5670   5.316   5.699   9.868 -0.5616 -0.2727  0.0490
   44CHL1    C6 5671   5.287   5.598   9.780 -0.9680 -0.5506 -0.2630
   44CHL1    H6 5672   5.243   5.506   9.821  1.2917 -1.2747  0.7474
   44CHL1    C7 5673   5.315   5.599   9.628  0.5210 -0.4814 -0.9009
   44CHL1   H7A 5674   5.369   5.505   9.603  0.2291 -0.5249 -1.3940
   44CHL1   H7B 5675   5.216   5.608   9.577 -0.9186  3.4246  2.0796
   44CHL1    C8 5676   5.388   5.732   9.582 -0.3121  0.5553 -0.3527
   44CHL1    H8 5677   5.496   5.713   9.597 -0.5817 -1.2026 -0.4526
   44CHL1   C14 5678   5.370   5.753   9.437 -0.3436 -0.0521  0.5565
   44CHL1   H14 5679   5.263   5.782   9.438 -0.2497  0.3977  2.8485
   44CHL1   C15 5680   5.404   5.636   9.348  0.2104  0.0394  0.3233
   44CHL1  H15A 5681   5.503   5.596   9.379  0.6020  1.6276  1.2509
   44CHL1  H15B 5682   5.331   5.554   9.363 -0.6606  1.0013  1.5035
   44CHL1   C16 5683   5.398   5.710   9.209 -0.1035 -0.5397  0.6965
   44CHL1  H16A 5684   5.478   5.678   9.138 -1.1100  1.0744 -1.2615
   44CHL1  H16B 5685   5.310   5.682   9.148  1.4857 -1.7540 -1.1762
   44CHL1   C17 5686   5.401   5.866   9.236  0.0540 -0.0623  0.8872
   44CHL1   H17 5687   5.293   5.896   9.233 -0.0285 -0.3355  1.1727
   44CHL1   C13 5688   5.441   5.880   9.387  0.5380 -0.9713  0.2772
   44CHL1   C18 5689   5.589   5.862   9.407 -0.3700 -0.3679 -0.3876
   44CHL1  H18A 5690   5.621   5.767   9.357  0.1848 -0.7787  0.7144
   44CHL1  H18B 5691   5.647   5.945   9.361 -3.2546  2.9397  1.4633
   44CHL1  H18C 5692   5.623   5.862   9.513  2.2653  0.2394 -1.1503
   44CHL1   C12 5693   5.379   5.999   9.460  0.4636 -0.6617  0.3914
   44CHL1  H12A 5694   5.435   6.089   9.429 -0.4843  0.2294  1.1923
   44CHL1  H12B 5695   5.268   6.003   9.447  0.3884  3.1577  1.0404
   44CHL1   C11 5696   5.402   5.987   9.614  0.2272 -0.9581 -0.4833
   44CHL1  H11A 5697   5.512   5.993   9.630  0.0841  1.9251  0.0428
   44CHL1  H11B 5698   5.340   6.067   9.659  0.9584 -0.4481 -0.3623
   44CHL1    C9 5699   5.345   5.855   9.671 -0.4242  0.7171 -0.3564
   44CHL1    H9 5700   5.235   5.865   9.657 -0.3190  1.4699 -0.6789
   44CHL1   C10 5701   5.365   5.840   9.822 -0.8682 -0.0816  0.3426
   44CHL1   C19 5702   5.521   5.835   9.849 -0.2018 -0.6585 -0.6675
   44CHL1  H19A 5703   5.585   5.781   9.776  0.5217  0.4721 -0.8772
   44CHL1  H19B 5704   5.556   5.940   9.841  1.9695 -1.2996 -0.2685
   44CHL1  H19C 5705   5.536   5.811   9.957  0.9993  1.1107 -0.4093
   44CHL1    C1 5706   5.309   5.950   9.904  0.3345 -0.1874 -0.5596
   44CHL1   H1A 5707   5.384   6.031   9.912  0.8482 -0.7264  0.1512
   44CHL1   H1B 5708   5.211   5.972   9.855 -0.2969 -2.1515 -0.2620
   44CHL1    C2 5709   5.275   5.925  10.051 -0.4423  0.4588 -0.2971
   44CHL1   H2A 5710   5.208   6.001  10.096  0.0194  0.1707  0.9418
   44CHL1   H2B 5711   5.366   5.932  10.116  0.0534 -0.6736 -0.8482
   44CHL1   C20 5712   5.483   5.948   9.126 -0.7613  0.2339 -0.9797
   44CHL1   H20 5713   5.590   5.924   9.145 -0.9371  0.5702  0.5859
   44CHL1   C21 5714   5.473   6.095   9.148 -0.4477 -0.1535 -0.4507
   44CHL1  H21A 5715   5.365   6.123   9.153  0.0502  1.6588  2.2806
   44CHL1  H21B 5716   5.512   6.159   9.066 -0.3150 -0.4228 -0.5993
   44CHL1  H21C 5717   5.522   6.114   9.246 -0.7472 -1.3453 -0.0468
   44CHL1   C22 5718   5.445   5.911   8.980  0.6026 -1.5186 -0.0533
   44CHL1  H22A 5719   5.455   5.800   8.979  1.2434 -1.4740 -1.1802
   44CHL1  H22B 5720   5.340   5.937   8.958  0.9330 -1.3876 -1.6014
   44CHL1   C23 5721   5.542   5.954   8.860  0.6941 -0.8072  0.0089
   44CHL1  H23A 5722   5.544   6.065   8.851 -0.0978 -0.9082 -1.9154
   44CHL1  H23B 5723   5.648   5.934   8.888  0.4278 -0.1886  1.5751
   44CHL1   C24 5724   5.490   5.883   8.737  0.0526 -0.0177 -1.0724
   44CHL1  H24A 5725   5.456   5.784   8.773 -1.3950  0.4341 -1.1202
   44CHL1  H24B 5726   5.402   5.944   8.706  0.5447  1.0822 -0.4130
   44CHL1   C25 5727   5.590   5.862   8.622  0.2520  1.6911  0.1597
   44CHL1   H25 5728   5.688   5.828   8.661 -0.4173 -2.5994 -1.3115
   44CHL1   C26 5729   5.540   5.743   8.535 -0.9700  0.4193 -0.2616
   44CHL1  H26A 5730   5.511   5.669   8.613  1.0438 -0.2272 -0.0720
   44CHL1  H26B 5731   5.457   5.763   8.464 -1.2630 -0.9511 -0.3422
   44CHL1  H26C 5732   5.619   5.695   8.474 -0.0823  1.6602 -0.1060
   44CHL1   C27 5733   5.626   5.996   8.547  0.2152 -0.2469 -0.5802
   44CHL1  H27A 5734   5.657   6.072   8.622  1.5876 -0.4517 -0.9177
   44CHL1  H27B 5735   5.711   5.971   8.480  2.0360  0.5901  1.3029
   44CHL1  H27C 5736   5.538   6.032   8.490 -1.2994 -0.8782  1.2485
   45CHL1    C3 5737   1.817   4.740  10.277 -0.3196 -0.6073  0.4763
   45CHL1    H3 5738   1.721   4.792  10.298 -1.1258 -0.4433 -3.0000
   45CHL1    O3 5739   1.864   4.702  10.404  0.6670  0.0407 -0.2843
   45CHL1   H3' 5740   1.943   4.649  10.390  1.1215  0.6603 -0.0964
   45CHL1    C4 5741   1.793   4.620  10.187 -0.3214 -0.3415 -0.2556
   45CHL1   H4A 5742   1.892   4.572  10.169 -0.3140 -0.0950 -0.9122
   45CHL1   H4B 5743   1.730   4.547  10.242  0.5982 -0.3997  0.7505
   45CHL1    C5 5744   1.738   4.652  10.049  1.1240  0.2010  0.5708
   45CHL1    C6 5745   1.618   4.599   9.999 -0.4036  0.1707 -0.7715
   45CHL1    H6 5746   1.564   4.531  10.066  1.2136  0.7471  1.2194
   45CHL1    C7 5747   1.559   4.605   9.855 -0.5415  0.3359 -0.2247
   45CHL1   H7A 5748   1.574   4.501   9.819  1.0610  0.1690  0.8001
   45CHL1   H7B 5749   1.448   4.611   9.851 -0.6234 -1.1752 -0.6964
   45CHL1    C8 5750   1.636   4.712   9.767  0.2496  0.6003  0.9105
   45CHL1    H8 5751   1.557   4.780   9.726 -0.6819 -1.7738 -1.5694
   45CHL1   C14 5752   1.707   4.656   9.646  0.2420  0.8360  1.0639
   45CHL1   H14 5753   1.793   4.596   9.682  0.7748 -0.7832 -2.4309
   45CHL1   C15 5754   1.613   4.564   9.560 -0.6341  0.2444  0.5152
   45CHL1  H15A 5755   1.629   4.454   9.567 -0.0637  0.3317  0.6183
   45CHL1  H15B 5756   1.503   4.577   9.569 -0.6861  0.3353 -0.2341
   45CHL1   C16 5757   1.648   4.599   9.409  1.1635  0.0679  0.5477
   45CHL1  H16A 5758   1.734   4.541   9.370 -1.9688 -3.5315 -1.7375
   45CHL1  H16B 5759   1.569   4.575   9.336  0.7266  1.0071  0.6994
   45CHL1   C17 5760   1.693   4.743   9.416 -0.0221 -0.2559 -0.5714
   45CHL1   H17 5761   1.594   4.794   9.419 -0.4352 -1.1077  1.3547
   45CHL1   C13 5762   1.769   4.763   9.558 -0.6746 -0.9412  0.1506
   45CHL1   C18 5763   1.913   4.713   9.541 -0.3381 -0.8096 -0.0441
   45CHL1  H18A 5764   1.918   4.608   9.506 -3.0508 -0.8725 -0.4257
   45CHL1  H18B 5765   1.969   4.781   9.474 -1.0423 -0.6473 -0.4719
   45CHL1  H18C 5766   1.951   4.728   9.645  0.7779  2.0428 -0.7843
   45CHL1   C12 5767   1.755   4.911   9.613 -0.0571  0.1935  0.3907
   45CHL1  H12A 5768   1.825   4.981   9.561 -0.7141  0.5553 -0.0135
   45CHL1  H12B 5769   1.653   4.949   9.594 -0.5351 -1.8174 -1.3077
   45CHL1   C11 5770   1.793   4.913   9.761 -0.0024 -0.2394 -0.3715
   45CHL1  H11A 5771   1.904   4.906   9.763 -0.0952 -2.1355  0.7366
   45CHL1  H11B 5772   1.770   5.017   9.793 -1.3058 -0.3346 -0.9400
   45CHL1    C9 5773   1.729   4.808   9.847 -0.9736  0.2728  0.5775
   45CHL1    H9 5774   1.654   4.869   9.903 -0.8540 -0.5881  1.6890
   45CHL1   C10 5775   1.813   4.755   9.967 -0.0408 -0.4295  0.2571
   45CHL1   C19 5776   1.934   4.680   9.908 -0.4777 -0.1209  0.0324
   45CHL1  H19A 5777   1.992   4.748   9.842 -1.5991  0.4181 -0.4235
   45CHL1  H19B 5778   2.003   4.645   9.988  0.0580 -0.5916 -0.6280
   45CHL1  H19C 5779   1.905   4.585   9.859  2.1071 -0.9665 -0.0146
   45CHL1    C1 5780   1.859   4.869  10.065 -0.1522  0.3405 -0.2398
   45CHL1   H1A 5781   1.938   4.931  10.017 -0.8700  2.4113  1.1007
   45CHL1   H1B 5782   1.768   4.933  10.067 -0.8236 -0.4190 -2.4207
   45CHL1    C2 5783   1.909   4.843  10.210 -0.2165 -0.2116  0.3183
   45CHL1   H2A 5784   1.907   4.937  10.269  1.7825 -0.4600  0.8723
   45CHL1   H2B 5785   2.014   4.806  10.203 -0.2675 -0.0913 -1.9105
   45CHL1   C20 5786   1.782   4.787   9.293  0.2198  0.7836  0.0856
   45CHL1   H20 5787   1.886   4.747   9.304 -0.2632 -0.4560  0.3283
   45CHL1   C21 5788   1.796   4.938   9.299  0.6677  0.4375  0.8709
   45CHL1  H21A 5789   1.840   4.975   9.203  0.7317  0.6762  0.9922
   45CHL1  H21B 5790   1.865   4.976   9.377 -0.8640  0.2062  2.3844
   45CHL1  H21C 5791   1.701   4.991   9.320  0.9835  0.3501  2.6104
   45CHL1   C22 5792   1.730   4.742   9.159  0.4026  0.1006  0.5303
   45CHL1  H22A 5793   1.800   4.767   9.076 -0.3790  1.4093  0.2382
   45CHL1  H22B 5794   1.741   4.631   9.159  2.1925  0.2313 -0.9139
   45CHL1   C23 5795   1.593   4.791   9.113 -0.1485  1.0286  0.0062
   45CHL1  H23A 5796   1.506   4.750   9.169  0.4737 -0.1265  0.1501
   45CHL1  H23B 5797   1.591   4.901   9.129  0.4877  1.0511 -0.0453
   45CHL1   C24 5798   1.566   4.771   8.958  0.1478 -0.2699  0.4279
   45CHL1  H24A 5799   1.560   4.664   8.929  2.1257 -0.1714 -0.4808
   45CHL1  H24B 5800   1.466   4.814   8.936 -0.9027 -3.2560 -1.2977
   45CHL1   C25 5801   1.672   4.836   8.862  0.6559  0.1266 -0.0246
   45CHL1   H25 5802   1.764   4.774   8.873 -0.5591 -1.6425  0.7493
   45CHL1   C26 5803   1.628   4.832   8.714  0.0135  0.3603 -0.6050
   45CHL1  H26A 5804   1.548   4.905   8.688  0.3292  1.6594  1.7468
   45CHL1  H26B 5805   1.720   4.840   8.653 -0.2563 -0.7653 -1.2047
   45CHL1  H26C 5806   1.583   4.733   8.690  0.4553  0.0997 -0.3787
   45CHL1   C27 5807   1.694   4.985   8.906 -0.1807 -0.2862 -0.2309
   45CHL1  H27A 5808   1.604   5.047   8.882  0.0279  0.0220 -0.2156
   45CHL1  H27B 5809   1.728   4.998   9.010  0.9203  0.5849 -0.6833
   45CHL1  H27C 5810   1.777   5.034   8.850 -0.5932 -0.7718 -1.3066
   46CHL1    C3 5811   0.789   2.795  10.041  0.1388  0.2239  0.5209
   46CHL1    H3 5812   0.678   2.805  10.038 -0.2273 -3.0576 -1.5398
   46CHL1    O3 5813   0.824   2.784  10.176 -0.0330 -0.1558 -0.2200
   46CHL1   H3' 5814   0.919   2.788  10.179 -0.0562  1.5515 -0.3371
   46CHL1    C4 5815   0.820   2.665   9.958 -0.7624  0.3280 -0.0648
   46CHL1   H4A 5816   0.922   2.626   9.976  0.0039  1.9932 -0.6176
   46CHL1   H4B 5817   0.747   2.592   9.999 -0.2391 -0.4899 -0.5740
   46CHL1    C5 5818   0.791   2.687   9.809  1.4301 -0.5666 -0.2903
   46CHL1    C6 5819   0.702   2.607   9.746  0.0530  0.0373  0.1643
   46CHL1    H6 5820   0.659   2.525   9.807  0.8890 -0.3158  0.2934
   46CHL1    C7 5821   0.674   2.619   9.595  0.2290  1.3418  0.2592
   46CHL1   H7A 5822   0.675   2.516   9.555  1.7441  1.1954  0.6254
   46CHL1   H7B 5823   0.572   2.653   9.566 -0.4056 -0.5479  0.1499
   46CHL1    C8 5824   0.772   2.713   9.522 -0.6251 -0.1112  0.0154
   46CHL1    H8 5825   0.873   2.669   9.508  0.2110  1.7682 -0.0285
   46CHL1   C14 5826   0.720   2.739   9.384 -0.2066  0.2331 -0.3568
   46CHL1   H14 5827   0.627   2.795   9.406  0.0611  1.0716 -1.2651
   46CHL1   C15 5828   0.673   2.621   9.304 -0.1378  0.2871  0.0245
   46CHL1  H15A 5829   0.736   2.529   9.304  1.6467  1.4380  0.7607
   46CHL1  H15B 5830   0.571   2.595   9.340 -0.1930  0.3600 -0.0798
   46CHL1   C16 5831   0.663   2.684   9.165 -0.7600  0.3181 -0.0679
   46CHL1  H16A 5832   0.721   2.621   9.094  0.7136  1.2504  0.2590
   46CHL1  H16B 5833   0.556   2.686   9.137 -1.0571 -0.5146  0.9343
   46CHL1   C17 5834   0.714   2.836   9.173 -0.2176 -0.2067 -0.0041
   46CHL1   H17 5835   0.623   2.896   9.195  1.1170  2.0713 -0.3657
   46CHL1   C13 5836   0.804   2.843   9.306  0.3012  0.9525 -0.1833
   46CHL1   C18 5837   0.947   2.781   9.283  0.7672  0.2806 -0.0331
   46CHL1  H18A 5838   1.008   2.761   9.374 -1.7484 -2.8085  1.1428
   46CHL1  H18B 5839   0.935   2.701   9.206 -1.5711 -0.0637  0.6237
   46CHL1  H18C 5840   1.008   2.851   9.221 -0.6960 -0.6425 -2.6792
   46CHL1   C12 5841   0.809   2.973   9.386  0.5417 -0.0256 -0.4017
   46CHL1  H12A 5842   0.859   3.058   9.336  1.4632 -0.2346  0.1474
   46CHL1  H12B 5843   0.703   3.007   9.389  1.1151  1.7790  0.9230
   46CHL1   C11 5844   0.872   2.954   9.526 -0.7476  0.1877  0.0852
   46CHL1  H11A 5845   0.982   2.943   9.529 -0.6812  0.8027  0.1132
   46CHL1  H11B 5846   0.864   3.050   9.582  1.2557 -1.6162  3.8020
   46CHL1    C9 5847   0.801   2.836   9.606  0.2904 -0.0501 -0.0447
   46CHL1    H9 5848   0.696   2.869   9.621 -0.5113 -2.5376  0.2935
   46CHL1   C10 5849   0.860   2.810   9.747 -1.0687  0.7859  0.2265
   46CHL1   C19 5850   1.009   2.778   9.736 -0.2449 -1.3913 -0.1670
   46CHL1  H19A 5851   1.064   2.863   9.691  0.0495 -2.2225 -1.4338
   46CHL1  H19B 5852   1.052   2.741   9.831 -3.3443 -2.3072  1.0159
   46CHL1  H19C 5853   1.025   2.693   9.666  2.0802  0.4344 -2.0145
   46CHL1    C1 5854   0.845   2.936   9.829 -0.3187  0.8380 -0.5525
   46CHL1   H1A 5855   0.918   3.013   9.796 -1.1526  1.7553 -0.2872
   46CHL1   H1B 5856   0.747   2.980   9.804 -1.2716 -1.0590 -0.3355
   46CHL1    C2 5857   0.862   2.916   9.974 -0.9761  0.4115 -0.6964
   46CHL1   H2A 5858   0.836   3.008  10.030  0.5467 -0.0074  0.7935
   46CHL1   H2B 5859   0.970   2.896   9.995 -1.3166 -1.4437 -0.5102
   46CHL1   C20 5860   0.773   2.884   9.048  0.6327 -0.5416 -0.5078
   46CHL1   H20 5861   0.852   2.817   9.008  1.3364  0.0558 -0.1293
   46CHL1   C21 5862   0.830   3.031   9.051  0.3195 -1.0776 -0.6565
   46CHL1  H21A 5863   0.760   3.117   9.043 -0.2011 -1.0361  2.9537
   46CHL1  H21B 5864   0.899   3.044   8.965  0.5523 -0.4197 -0.3733
   46CHL1  H21C 5865   0.896   3.041   9.139 -2.2374  1.5529  1.1280
   46CHL1   C22 5866   0.671   2.869   8.924 -0.3603  0.3397 -0.2555
   46CHL1  H22A 5867   0.736   2.892   8.837  1.9371 -0.9949  1.0223
   46CHL1  H22B 5868   0.633   2.764   8.917  0.0899  0.2838 -2.5718
   46CHL1   C23 5869   0.542   2.960   8.922  0.8193 -0.1416  0.2027
   46CHL1  H23A 5870   0.486   2.948   9.017 -0.4456  1.4830 -0.2819
   46CHL1  H23B 5871   0.579   3.065   8.914  0.9393  0.0110  2.2719
   46CHL1   C24 5872   0.447   2.938   8.799 -0.6684 -0.3627  0.0477
   46CHL1  H24A 5873   0.494   2.962   8.701 -0.5983  1.1948  0.4475
   46CHL1  H24B 5874   0.431   2.828   8.788 -0.1894 -0.3982 -0.3439
   46CHL1   C25 5875   0.302   2.999   8.806  0.6716  0.2965 -0.6915
   46CHL1   H25 5876   0.245   2.939   8.732  0.8753  1.7473 -2.0838
   46CHL1   C26 5877   0.232   2.983   8.943  0.7305  0.3206 -0.1252
   46CHL1  H26A 5878   0.248   2.878   8.977 -0.4756  0.2912  0.3888
   46CHL1  H26B 5879   0.287   3.035   9.025  0.5159 -0.3171  0.4387
   46CHL1  H26C 5880   0.128   3.020   8.940  0.0987 -1.4218 -2.5440
   46CHL1   C27 5881   0.291   3.143   8.761 -0.0406  0.4088  0.4301
   46CHL1  H27A 5882   0.200   3.201   8.786  0.1298  1.2031 -0.6827
   46CHL1  H27B 5883   0.391   3.182   8.790  1.5081 -1.5804 -1.8367
   46CHL1  H27C 5884   0.300   3.160   8.651 -1.3498  2.5602  0.5927
   47CHL1    C3 5885   4.834   6.317  10.169 -0.4239  0.3886  0.4877
   47CHL1    H3 5886   4.864   6.210  10.181 -0.0985  0.6102  1.8023
   47CHL1    O3 5887   4.812   6.375  10.292 -0.0153 -0.3310 -0.2285
   47CHL1   H3' 5888   4.796   6.469  10.279 -3.1966 -0.3740  2.1624
   47CHL1    C4 5889   4.943   6.396  10.090 -0.2555  0.2869  0.0267
   47CHL1   H4A 5890   4.915   6.502  10.074  2.2449  0.9614 -0.3073
   47CHL1   H4B 5891   5.038   6.402  10.146 -0.7905 -1.0715  1.1437
   47CHL1    C5 5892   4.949   6.346   9.952 -1.0383 -1.1280 -0.0068
   47CHL1    C6 5893   5.066   6.321   9.898 -0.1480 -0.4579  0.1803
   47CHL1    H6 5894   5.152   6.322   9.967 -0.3734 -3.9909  0.7171
   47CHL1    C7 5895   5.091   6.278   9.756 -0.2155 -0.2885  0.0409
   47CHL1   H7A 5896   5.172   6.349   9.727 -0.5457 -0.6685 -2.0266
   47CHL1   H7B 5897   5.120   6.171   9.750  0.1855 -0.1606 -0.4019
   47CHL1    C8 5898   4.974   6.305   9.664  0.0077 -0.0831 -0.2387
   47CHL1    H8 5899   4.974   6.415   9.651  0.9025  0.5342  3.6011
   47CHL1   C14 5900   4.992   6.221   9.533  0.1369 -0.8778 -0.7878
   47CHL1   H14 5901   5.016   6.118   9.567 -0.8865 -1.0424 -0.5159
   47CHL1   C15 5902   5.115   6.267   9.450 -0.0042 -0.1083  0.2126
   47CHL1  H15A 5903   5.125   6.377   9.434  0.3410 -0.3320 -1.3042
   47CHL1  H15B 5904   5.209   6.225   9.492  0.5269  0.8155 -0.0135
   47CHL1   C16 5905   5.082   6.189   9.319  0.0802 -0.2844  0.4021
   47CHL1  H16A 5906   5.102   6.252   9.230  0.9978 -0.9513  0.1141
   47CHL1  H16B 5907   5.145   6.098   9.307 -0.3137 -0.4438 -0.5210
   47CHL1   C17 5908   4.938   6.133   9.330  0.2589  0.3973 -0.2028
   47CHL1   H17 5909   4.941   6.032   9.377 -1.5835 -0.7360 -2.3168
   47CHL1   C13 5910   4.873   6.222   9.435 -0.7765 -0.4689  0.4478
   47CHL1   C18 5911   4.854   6.356   9.368  0.1022  0.4179 -0.0871
   47CHL1  H18A 5912   4.930   6.391   9.295 -0.0336  0.5358 -0.1732
   47CHL1  H18B 5913   4.749   6.374   9.336  0.3012  0.9886 -0.4305
   47CHL1  H18C 5914   4.853   6.438   9.443 -1.4468  1.8904 -1.6277
   47CHL1   C12 5915   4.754   6.166   9.508  0.3320 -0.3812 -0.4208
   47CHL1  H12A 5916   4.668   6.185   9.441  0.4539 -0.4879 -0.6086
   47CHL1  H12B 5917   4.776   6.061   9.536  1.2428 -0.2113 -0.4653
   47CHL1   C11 5918   4.729   6.252   9.629 -0.3770  0.3001 -0.4448
   47CHL1  H11A 5919   4.708   6.355   9.591 -2.4153 -0.2495 -0.9051
   47CHL1  H11B 5920   4.646   6.211   9.689 -0.1442 -0.7324 -0.8058
   47CHL1    C9 5921   4.840   6.264   9.733 -0.1467 -0.0278 -0.5453
   47CHL1    H9 5922   4.860   6.160   9.767 -0.3605 -0.4031 -1.5515
   47CHL1   C10 5923   4.817   6.343   9.869  0.2074 -0.0618  0.2210
   47CHL1   C19 5924   4.771   6.485   9.844 -0.8836  0.5232  0.1773
   47CHL1  H19A 5925   4.666   6.486   9.809 -0.6215  1.2393 -0.6287
   47CHL1  H19B 5926   4.783   6.548   9.934  2.5848  2.0797 -1.1887
   47CHL1  H19C 5927   4.841   6.526   9.768  0.3706 -0.2943  0.8647
   47CHL1    C1 5928   4.705   6.266   9.954  0.4435 -0.1234  0.3777
   47CHL1   H1A 5929   4.608   6.257   9.901  0.1994 -2.5904  1.1140
   47CHL1   H1B 5930   4.733   6.160   9.974 -1.6991 -0.5936  1.1792
   47CHL1    C2 5931   4.697   6.328  10.093  0.5207  0.1823 -0.3822
   47CHL1   H2A 5932   4.623   6.266  10.148 -0.8224  0.8933 -1.3383
   47CHL1   H2B 5933   4.667   6.435  10.095  2.0631  0.6283  0.6347
   47CHL1   C20 5934   4.875   6.118   9.189 -1.1671 -0.3351  0.2101
   47CHL1   H20 5935   4.865   6.220   9.147 -1.5090 -0.0970  0.8504
   47CHL1   C21 5936   4.731   6.061   9.201  0.5960  0.2817  0.3161
   47CHL1  H21A 5937   4.676   6.055   9.104  0.2690 -2.8770  0.6012
   47CHL1  H21B 5938   4.670   6.132   9.262  1.9850 -0.3279  2.5331
   47CHL1  H21C 5939   4.737   5.964   9.254  2.1309  1.1196  1.7690
   47CHL1   C22 5940   4.967   6.028   9.106  0.6490  0.2884 -0.6927
   47CHL1  H22A 5941   5.056   6.087   9.076  2.1900 -1.0376  1.0763
   47CHL1  H22B 5942   4.986   5.931   9.157  1.2027  1.6924  1.8834
   47CHL1   C23 5943   4.891   5.981   8.976  0.4215  0.4611 -0.5176
   47CHL1  H23A 5944   4.803   5.916   8.995  0.1582  1.0442  0.3040
   47CHL1  H23B 5945   4.859   6.076   8.928  1.5143  1.9351  1.5408
   47CHL1   C24 5946   4.985   5.911   8.870 -0.8185  0.5286  0.3215
   47CHL1  H24A 5947   4.922   5.904   8.779  0.5977  0.7617 -0.7070
   47CHL1  H24B 5948   5.066   5.986   8.860  0.1189 -0.3680  0.9493
   47CHL1   C25 5949   5.046   5.774   8.906 -0.5872 -0.3822 -0.2194
   47CHL1   H25 5950   5.101   5.766   9.002  0.2250 -3.4003 -0.8382
   47CHL1   C26 5951   4.929   5.671   8.915 -0.0586 -0.1711  0.1074
   47CHL1  H26A 5952   4.862   5.675   8.827 -0.7357 -0.5780  0.5928
   47CHL1  H26B 5953   4.876   5.696   9.009 -1.8843  0.7038 -1.0900
   47CHL1  H26C 5954   4.974   5.569   8.924  0.3139  0.1130  1.6738
   47CHL1   C27 5955   5.142   5.729   8.803  0.1961 -0.4640  0.3376
   47CHL1  H27A 5956   5.190   5.632   8.829  0.2064 -1.0650 -1.7775
   47CHL1  H27B 5957   5.102   5.705   8.702  1.4493 -3.0721  0.3687
   47CHL1  H27C 5958   5.226   5.799   8.788 -0.5573  0.0388 -2.0344
   48CHL1    C3 5959   3.880   6.744  10.170  0.3902 -0.6925 -0.0758
   48CHL1    H3 5960   3.856   6.852  10.159  2.9491 -0.1206 -0.8013
   48CHL1    O3 5961   3.920   6.734  10.305  0.4203 -0.2604  0.4654
   48CHL1   H3' 5962   3.939   6.640  10.306 -0.5146 -0.5142 -1.5041
   48CHL1    C4 5963   3.772   6.655  10.143  0.1023  0.2761  0.1977
   48CHL1   H4A 5964   3.805   6.549  10.147 -1.2713 -0.2991 -2.1018
   48CHL1   H4B 5965   3.692   6.667  10.219 -0.4974  2.0153 -0.6402
   48CHL1    C5 5966   3.718   6.673   9.999 -0.0467 -0.6800  0.2492
   48CHL1    C6 5967   3.593   6.723   9.976 -0.3965 -0.8309 -0.0475
   48CHL1    H6 5968   3.528   6.749  10.061 -0.4531  0.3447 -0.4210
   48CHL1    C7 5969   3.535   6.743   9.837  0.7797 -0.4961  0.0411
   48CHL1   H7A 5970   3.429   6.709   9.841  1.0240 -1.1844  1.6161
   48CHL1   H7B 5971   3.517   6.850   9.811  0.5601 -0.6848 -0.5984
   48CHL1    C8 5972   3.618   6.669   9.727  0.0996 -0.0882 -0.6586
   48CHL1    H8 5973   3.607   6.559   9.732 -0.5126  0.0166  0.6980
   48CHL1   C14 5974   3.580   6.730   9.591  1.0342 -0.6993 -0.2984
   48CHL1   H14 5975   3.594   6.840   9.604 -0.3575 -0.3750 -1.2054
   48CHL1   C15 5976   3.431   6.714   9.555 -0.0156  0.0588 -0.5664
   48CHL1  H15A 5977   3.407   6.606   9.566 -1.1695  0.3307 -0.3151
   48CHL1  H15B 5978   3.365   6.779   9.617  0.5041  2.7898 -2.6958
   48CHL1   C16 5979   3.426   6.753   9.405  0.0491  0.4916  0.2426
   48CHL1  H16A 5980   3.399   6.666   9.342  0.9951 -1.2450  2.1039
   48CHL1  H16B 5981   3.354   6.836   9.392  0.3747  0.5739 -1.1001
   48CHL1   C17 5982   3.579   6.778   9.364  0.5742 -0.4163  0.0260
   48CHL1   H17 5983   3.594   6.887   9.383 -0.2570 -0.4816  1.1942
   48CHL1   C13 5984   3.659   6.697   9.468  0.0130 -1.2185  0.0565
   48CHL1   C18 5985   3.642   6.544   9.433 -0.4521  0.0063  0.2961
   48CHL1  H18A 5986   3.694   6.508   9.342 -2.3015 -1.5913 -0.1915
   48CHL1  H18B 5987   3.679   6.487   9.522 -1.0510  2.6296  2.3429
   48CHL1  H18C 5988   3.536   6.519   9.410  0.0317 -2.5393  0.4497
   48CHL1   C12 5989   3.805   6.733   9.498  0.2558  0.2394 -0.2559
   48CHL1  H12A 5990   3.869   6.703   9.412 -3.8576 -0.8211 -3.2236
   48CHL1  H12B 5991   3.820   6.843   9.509  1.7195 -0.0790  1.4483
   48CHL1   C11 5992   3.857   6.669   9.622  0.5634  0.1778 -0.2923
   48CHL1  H11A 5993   3.872   6.561   9.606 -0.3662 -0.0204  0.1011
   48CHL1  H11B 5994   3.955   6.719   9.636  0.0290  0.9788  0.8120
   48CHL1    C9 5995   3.768   6.698   9.744 -0.0042 -0.4466  0.2357
   48CHL1    H9 5996   3.764   6.809   9.749 -1.8577 -0.3461 -1.9172
   48CHL1   C10 5997   3.822   6.649   9.882  0.2884  0.0040 -0.0675
   48CHL1   C19 5998   3.850   6.494   9.872  0.4198  0.1835  0.1666
   48CHL1  H19A 5999   3.765   6.444   9.822  1.7095 -0.5956 -1.3620
   48CHL1  H19B 6000   3.934   6.469   9.803  1.4117 -1.6083  1.9038
   48CHL1  H19C 6001   3.869   6.445   9.971 -2.0055 -1.8123 -0.2737
   48CHL1    C1 6002   3.950   6.722   9.921  0.0914 -0.6197 -0.4001
   48CHL1   H1A 6003   4.038   6.690   9.862 -0.2012 -1.8734 -0.1851
   48CHL1   H1B 6004   3.930   6.831   9.911 -0.0465 -0.4977  1.0310
   48CHL1    C2 6005   3.993   6.704  10.073  0.9480 -0.2736  0.8906
   48CHL1   H2A 6006   4.088   6.758  10.096  1.3635  0.2367 -1.6939
   48CHL1   H2B 6007   4.019   6.596  10.078 -0.6569 -0.8703 -1.6737
   48CHL1   C20 6008   3.608   6.766   9.217  1.2807  0.1393  0.3136
   48CHL1   H20 6009   3.591   6.660   9.186 -0.7756  1.3281 -3.2386
   48CHL1   C21 6010   3.754   6.811   9.188 -0.2863  0.0103 -0.0251
   48CHL1  H21A 6011   3.836   6.742   9.215  1.3060  1.7334 -0.2483
   48CHL1  H21B 6012   3.776   6.909   9.235 -0.4022  0.4596 -0.8868
   48CHL1  H21C 6013   3.774   6.831   9.080  0.9576 -0.1511  0.1640
   48CHL1   C22 6014   3.505   6.849   9.131 -0.2807 -0.0558 -0.3544
   48CHL1  H22A 6015   3.401   6.837   9.168 -0.2142 -0.8515 -0.4133
   48CHL1  H22B 6016   3.548   6.950   9.141 -0.3324 -0.0639 -0.0323
   48CHL1   C23 6017   3.509   6.803   8.981 -0.5056 -0.5443  0.0655
   48CHL1  H23A 6018   3.616   6.788   8.953 -0.3381 -0.6134  0.7227
   48CHL1  H23B 6019   3.461   6.703   8.968  1.3903 -1.5879  0.7172
   48CHL1   C24 6020   3.451   6.915   8.893  0.0732 -0.5887 -0.4307
   48CHL1  H24A 6021   3.342   6.917   8.915 -0.1391 -1.1912 -1.3851
   48CHL1  H24B 6022   3.499   7.011   8.923 -0.6177  0.7784 -3.3320
   48CHL1   C25 6023   3.469   6.898   8.745  0.4623  0.0348 -0.2924
   48CHL1   H25 6024   3.577   6.910   8.723 -0.0331  1.3758 -2.2329
   48CHL1   C26 6025   3.414   6.767   8.692  0.0528 -0.1574 -0.3591
   48CHL1  H26A 6026   3.418   6.767   8.581 -0.9174 -0.6486 -0.3987
   48CHL1  H26B 6027   3.475   6.684   8.734 -4.3341 -3.9057 -0.5720
   48CHL1  H26C 6028   3.314   6.743   8.734  0.4816 -1.4526 -0.0113
   48CHL1   C27 6029   3.410   7.021   8.672  0.1126  0.2502 -0.2805
   48CHL1  H27A 6030   3.299   7.027   8.670  0.0449  0.1171  1.5741
   48CHL1  H27B 6031   3.467   7.113   8.698  1.4000 -0.7545  0.6061
   48CHL1  H27C 6032   3.425   6.998   8.564 -0.9778  1.6548 -0.7608
   49CHL1    C3 6033   1.500   6.607  10.269 -0.1193 -0.3202 -0.5599
   49CHL1    H3 6034   1.423   6.686  10.253  0.7878  0.7745  0.2672
   49CHL1    O3 6035   1.533   6.602  10.406  0.4885  0.0464 -0.1956
   49CHL1   H3' 6036   1.466   6.544  10.441 -0.2588  1.0352  0.0613
   49CHL1    C4 6037   1.443   6.470  10.226  0.2233  0.2305  0.3712
   49CHL1   H4A 6038   1.510   6.386  10.252  0.0742 -0.7161 -2.0356
   49CHL1   H4B 6039   1.349   6.448  10.280 -2.2446  2.2119 -2.7729
   49CHL1    C5 6040   1.416   6.468  10.075  0.4148 -0.0559  0.3764
   49CHL1    C6 6041   1.289   6.452  10.027 -0.1876  0.7744 -0.0906
   49CHL1    H6 6042   1.208   6.418  10.092 -1.2318  1.8988 -0.7489
   49CHL1    C7 6043   1.258   6.451   9.883  0.2006 -0.3115 -0.0374
   49CHL1   H7A 6044   1.198   6.359   9.866 -0.3098 -0.2704  1.4145
   49CHL1   H7B 6045   1.194   6.541   9.865 -1.0790 -1.2973 -0.5495
   49CHL1    C8 6046   1.383   6.444   9.791 -0.0086  0.3484  0.1009
   49CHL1    H8 6047   1.433   6.345   9.791 -2.3614 -0.9339  0.8234
   49CHL1   C14 6048   1.346   6.472   9.648 -0.5319 -1.3822  0.1464
   49CHL1   H14 6049   1.301   6.573   9.639 -0.2282 -1.1162  1.3289
   49CHL1   C15 6050   1.247   6.375   9.583 -1.0375 -0.3014 -0.0781
   49CHL1  H15A 6051   1.276   6.268   9.595 -0.6078 -0.3625 -1.5331
   49CHL1  H15B 6052   1.145   6.396   9.620 -1.2110 -0.2713 -0.5647
   49CHL1   C16 6053   1.274   6.402   9.436  0.3605 -0.1800  0.2806
   49CHL1  H16A 6054   1.279   6.302   9.387 -0.8175  0.2115 -0.6887
   49CHL1  H16B 6055   1.187   6.450   9.385 -0.9628  0.8145  3.2739
   49CHL1   C17 6056   1.403   6.481   9.416 -0.4281  0.4309 -1.1706
   49CHL1   H17 6057   1.368   6.587   9.410 -2.2943  0.0263  1.3060
   49CHL1   C13 6058   1.467   6.473   9.557 -0.6116 -0.1838 -0.0340
   49CHL1   C18 6059   1.553   6.344   9.577  0.1541  0.0702 -0.0179
   49CHL1  H18A 6060   1.485   6.267   9.534  1.0967 -2.0595  2.0983
   49CHL1  H18B 6061   1.647   6.342   9.518 -0.0537  0.7779 -0.3905
   49CHL1  H18C 6062   1.579   6.326   9.684 -0.5268  3.7425  0.9206
   49CHL1   C12 6063   1.549   6.601   9.597 -0.2428 -0.2418 -0.3272
   49CHL1  H12A 6064   1.636   6.620   9.531  0.9017 -1.2537  0.8321
   49CHL1  H12B 6065   1.486   6.692   9.599 -0.3046 -0.2725  2.2403
   49CHL1   C11 6066   1.597   6.592   9.746 -0.4467 -0.1744 -0.6514
   49CHL1  H11A 6067   1.684   6.523   9.745  1.6368  2.2864 -0.2765
   49CHL1  H11B 6068   1.633   6.693   9.775 -1.2467  0.0174 -0.2858
   49CHL1    C9 6069   1.480   6.553   9.841 -0.3063  0.0376  0.7517
   49CHL1    H9 6070   1.421   6.647   9.844  0.5884  0.7095 -1.1927
   49CHL1   C10 6071   1.530   6.517   9.986 -0.6199  0.4764 -0.5047
   49CHL1   C19 6072   1.636   6.393   9.983 -0.0076 -0.5342 -0.3919
   49CHL1  H19A 6073   1.575   6.304   9.957  0.8485 -1.0759 -0.5849
   49CHL1  H19B 6074   1.722   6.406   9.914 -1.6459  3.6134 -1.9981
   49CHL1  H19C 6075   1.676   6.375  10.085  2.4528 -0.8918 -1.3459
   49CHL1    C1 6076   1.605   6.646  10.037  0.4979  0.4584  0.4862
   49CHL1   H1A 6077   1.696   6.671   9.978 -0.2309  0.0182 -0.8658
   49CHL1   H1B 6078   1.530   6.727  10.025 -1.9254 -1.6403  0.7244
   49CHL1    C2 6079   1.629   6.645  10.185  0.2269  0.2464 -1.2665
   49CHL1   H2A 6080   1.672   6.742  10.218  2.3089 -1.4539  1.5151
   49CHL1   H2B 6081   1.703   6.566  10.211  0.1642 -0.0192 -1.8951
   49CHL1   C20 6082   1.484   6.427   9.294 -0.5913 -0.0844  0.2754
   49CHL1   H20 6083   1.515   6.323   9.319 -0.8925  0.5812  3.9866
   49CHL1   C21 6084   1.609   6.518   9.270  0.1877  0.3684  0.0263
   49CHL1  H21A 6085   1.586   6.623   9.299 -1.5062  1.1825 -3.6490
   49CHL1  H21B 6086   1.647   6.515   9.166  1.1500 -1.0810  0.3985
   49CHL1  H21C 6087   1.692   6.488   9.337 -0.0935  0.3106  0.3531
   49CHL1   C22 6088   1.396   6.429   9.164 -0.8494 -0.1121 -0.0440
   49CHL1  H22A 6089   1.305   6.493   9.175  0.3584  1.7620 -0.5172
   49CHL1  H22B 6090   1.451   6.493   9.093 -0.5195  1.8642  1.8719
   49CHL1   C23 6091   1.384   6.288   9.106  0.7635 -0.4921  0.3463
   49CHL1  H23A 6092   1.489   6.255   9.090  1.5420  1.7102  0.5641
   49CHL1  H23B 6093   1.336   6.210   9.169 -1.1935  1.0940  0.9425
   49CHL1   C24 6094   1.312   6.303   8.966  0.1874 -0.1631 -0.5599
   49CHL1  H24A 6095   1.219   6.363   8.972  0.3056 -0.1109  1.6166
   49CHL1  H24B 6096   1.379   6.359   8.897 -1.3912  1.9267 -0.4932
   49CHL1   C25 6097   1.273   6.169   8.905  0.4266  0.8505 -0.4851
   49CHL1   H25 6098   1.210   6.115   8.979 -1.4536  1.9678 -1.2061
   49CHL1   C26 6099   1.182   6.176   8.780 -0.3684 -0.4835  0.0819
   49CHL1  H26A 6100   1.148   6.075   8.750 -0.9190  0.4783 -2.9128
   49CHL1  H26B 6101   1.091   6.240   8.792 -2.4727 -3.1397 -0.7349
   49CHL1  H26C 6102   1.240   6.215   8.693 -0.5389 -0.5782 -0.0765
   49CHL1   C27 6103   1.391   6.083   8.867  0.7567  0.3254 -0.1673
   49CHL1  H27A 6104   1.440   6.049   8.961 -1.6431  1.3616  1.5621
   49CHL1  H27B 6105   1.355   5.989   8.820  0.9798  0.5068 -0.7041
   49CHL1  H27C 6106   1.458   6.145   8.803 -0.3018  2.0061  0.2913
   50CHL1    C3 6107   0.927   4.416  10.204 -0.1923  0.3145  0.3557
   50CHL1    H3 6108   0.822   4.423  10.170 -0.3229 -0.7523  0.4953
   50CHL1    O3 6109   0.931   4.436  10.341 -0.1857 -0.1600 -0.8175
   50CHL1   H3' 6110   0.899   4.350  10.371  1.4144 -0.6218 -0.3446
   50CHL1    C4 6111   0.986   4.270  10.173  0.7435 -1.1540 -0.0194
   50CHL1   H4A 6112   1.080   4.266  10.232 -0.7703 -1.8920  2.4703
   50CHL1   H4B 6113   0.911   4.199  10.214 -1.5514  1.2289  0.2007
   50CHL1    C5 6114   1.015   4.244  10.024  0.2882 -0.5054 -0.3125
   50CHL1    C6 6115   0.958   4.139   9.958  0.2770  0.3302 -0.1237
   50CHL1    H6 6116   0.899   4.069  10.019  1.4109  0.6506  1.4027
   50CHL1    C7 6117   0.988   4.107   9.818 -0.3944  0.3162  0.6047
   50CHL1   H7A 6118   1.011   3.999   9.805  2.2969  0.9779 -0.8549
   50CHL1   H7B 6119   0.896   4.129   9.761 -0.1331  2.0903  0.8099
   50CHL1    C8 6120   1.103   4.189   9.765 -0.0662 -0.7034 -0.0578
   50CHL1    H8 6121   1.203   4.152   9.796  0.8035 -1.2539 -3.2039
   50CHL1   C14 6122   1.107   4.188   9.606  0.0086  0.3672 -0.2241
   50CHL1   H14 6123   1.021   4.257   9.585  0.1661  0.6805  0.1507
   50CHL1   C15 6124   1.092   4.057   9.528 -0.5441 -0.4821  0.6647
   50CHL1  H15A 6125   1.168   3.984   9.562  0.0300 -0.6815 -0.9602
   50CHL1  H15B 6126   0.992   4.017   9.555  0.0601 -1.1431  2.0368
   50CHL1   C16 6127   1.115   4.091   9.377  0.3749 -0.2562 -0.1743
   50CHL1  H16A 6128   1.167   4.001   9.337  0.3759  0.2836 -1.4235
   50CHL1  H16B 6129   1.021   4.099   9.319  1.4520 -2.0434 -2.3409
   50CHL1   C17 6130   1.196   4.228   9.387  0.1571 -0.5954 -0.1315
   50CHL1   H17 6131   1.117   4.301   9.359 -1.8975 -2.6113  0.1113
   50CHL1   C13 6132   1.218   4.264   9.537 -0.1189  0.0147  0.7145
   50CHL1   C18 6133   1.357   4.201   9.578 -0.4405 -0.3950 -0.0814
   50CHL1  H18A 6134   1.351   4.097   9.540 -0.9023  0.4295 -2.4297
   50CHL1  H18B 6135   1.436   4.248   9.516  1.5420 -1.1817  1.7594
   50CHL1  H18C 6136   1.389   4.210   9.684 -0.7422 -1.1931  0.0886
   50CHL1   C12 6137   1.210   4.410   9.576  0.1672 -0.6770  0.3060
   50CHL1  H12A 6138   1.301   4.461   9.538 -1.0915  0.2425 -1.6411
   50CHL1  H12B 6139   1.126   4.455   9.519  2.2284  1.2169 -1.4382
   50CHL1   C11 6140   1.193   4.432   9.729  0.1642 -0.0260  0.5080
   50CHL1  H11A 6141   1.295   4.410   9.765  0.6239  1.8178  0.4045
   50CHL1  H11B 6142   1.177   4.537   9.761  0.1386 -0.4407  1.9266
   50CHL1    C9 6143   1.094   4.335   9.804 -0.2352  0.0656 -0.1915
   50CHL1    H9 6144   0.992   4.362   9.770 -0.2971 -1.2380 -1.0879
   50CHL1   C10 6145   1.103   4.354   9.959 -0.3993 -0.6525  0.6267
   50CHL1   C19 6146   1.247   4.350  10.011 -0.3848 -0.5137 -0.6752
   50CHL1  H19A 6147   1.249   4.345  10.122 -1.5166  1.2608 -0.5315
   50CHL1  H19B 6148   1.304   4.267   9.965  0.7750 -2.1457  3.2595
   50CHL1  H19C 6149   1.302   4.446   9.999 -0.3152 -0.0531  2.3739
   50CHL1    C1 6150   1.025   4.480   9.984 -0.2346  0.7860  0.6766
   50CHL1   H1A 6151   1.096   4.558   9.948 -0.7755  0.5735 -0.8985
   50CHL1   H1B 6152   0.934   4.492   9.923  0.0772 -0.6248 -0.1087
   50CHL1    C2 6153   1.005   4.521  10.132 -0.0023  0.1645  0.1094
   50CHL1   H2A 6154   0.949   4.617  10.134 -1.2305 -0.5402  0.3672
   50CHL1   H2B 6155   1.101   4.539  10.185 -0.5508 -1.5453  1.7991
   50CHL1   C20 6156   1.297   4.237   9.285  0.2801  0.2306  0.4358
   50CHL1   H20 6157   1.363   4.150   9.302 -0.2842 -0.2348  0.2834
   50CHL1   C21 6158   1.375   4.369   9.287  1.6006 -0.3722 -0.0736
   50CHL1  H21A 6159   1.428   4.388   9.383  0.8255  0.0147  0.2907
   50CHL1  H21B 6160   1.296   4.446   9.270 -0.7662 -1.9795  2.7632
   50CHL1  H21C 6161   1.455   4.374   9.210  3.7459 -0.5331  2.0373
   50CHL1   C22 6162   1.237   4.225   9.138 -1.4282  0.8752 -0.1832
   50CHL1  H22A 6163   1.167   4.140   9.124 -0.2050 -0.3720  0.9718
   50CHL1  H22B 6164   1.173   4.313   9.115  0.3606  1.9144 -1.3547
   50CHL1   C23 6165   1.350   4.207   9.030  0.0907 -0.4458  1.2045
   50CHL1  H23A 6166   1.399   4.305   9.012 -1.7714  0.2703 -0.2817
   50CHL1  H23B 6167   1.425   4.137   9.072  2.0581 -0.9392 -2.7522
   50CHL1   C24 6168   1.311   4.154   8.890 -0.9686 -0.1178 -0.5133
   50CHL1  H24A 6169   1.404   4.112   8.846 -0.8646  0.1983 -0.5964
   50CHL1  H24B 6170   1.234   4.073   8.897 -0.5172 -0.4810  0.3875
   50CHL1   C25 6171   1.271   4.255   8.782 -0.0354  0.3356 -0.2096
   50CHL1   H25 6172   1.189   4.319   8.822  0.4196  1.6217 -1.2639
   50CHL1   C26 6173   1.392   4.349   8.748 -0.4519  0.3308  0.5000
   50CHL1  H26A 6174   1.373   4.408   8.655 -1.3977 -0.0160  0.4560
   50CHL1  H26B 6175   1.413   4.423   8.827  0.1568  1.4983 -0.7158
   50CHL1  H26C 6176   1.485   4.289   8.745 -0.5986 -0.0783  2.6989
   50CHL1   C27 6177   1.227   4.182   8.656  0.3852 -0.7277 -0.4049
   50CHL1  H27A 6178   1.206   4.255   8.575 -1.6980  0.5220  1.1635
   50CHL1  H27B 6179   1.310   4.114   8.626 -0.7192 -1.8883 -0.8852
   50CHL1  H27C 6180   1.136   4.124   8.682  0.4740 -0.2417  1.1253
   51CHL1    C3 6181   6.361   6.658  10.408  0.2064 -0.4299 -0.2891
   51CHL1    H3 6182   6.418   6.749  10.436 -0.5863 -0.3040  0.9680
   51CHL1    O3 6183   6.319   6.598  10.531  0.2514 -0.1330  0.1409
   51CHL1   H3' 6184   6.264   6.522  10.508  2.0326 -1.3453 -0.2899
   51CHL1    C4 6185   6.234   6.708  10.335  0.3724 -0.2098 -0.4275
   51CHL1   H4A 6186   6.163   6.626  10.310 -0.9129  1.0666 -1.0935
   51CHL1   H4B 6187   6.175   6.768  10.407 -0.9290 -2.3836  0.4394
   51CHL1    C5 6188   6.266   6.771  10.201 -0.8726 -0.3371  0.5198
   51CHL1    C6 6189   6.235   6.894  10.163  0.2589  0.1660  0.5364
   51CHL1    H6 6190   6.180   6.947  10.242  1.4938  2.2076  0.1011
   51CHL1    C7 6191   6.264   6.957  10.031  0.2511  0.2325 -0.0281
   51CHL1   H7A 6192   6.171   7.008   9.997 -0.1783 -0.5595 -0.0705
   51CHL1   H7B 6193   6.345   7.031  10.049 -0.6656  0.6612  2.7510
   51CHL1    C8 6194   6.313   6.853   9.930  0.3210  0.5987 -0.3471
   51CHL1    H8 6195   6.235   6.784   9.894 -0.0935  2.0351 -2.4168
   51CHL1   C14 6196   6.360   6.925   9.807  0.0655  0.4927 -0.5725
   51CHL1   H14 6197   6.451   6.981   9.837 -0.7043  0.3842  2.2370
   51CHL1   C15 6198   6.279   7.036   9.736 -0.0247  0.0080 -0.2611
   51CHL1  H15A 6199   6.173   7.002   9.727  0.7734 -2.3770 -1.6089
   51CHL1  H15B 6200   6.269   7.122   9.805 -1.1549 -1.0582  0.9468
   51CHL1   C16 6201   6.339   7.059   9.594 -0.0363  0.1139 -0.3676
   51CHL1  H16A 6202   6.269   7.034   9.512 -0.9201 -1.5674  0.8404
   51CHL1  H16B 6203   6.400   7.152   9.590  0.3264 -0.1388 -0.7329
   51CHL1   C17 6204   6.442   6.942   9.586 -0.2329  0.0327  0.6880
   51CHL1   H17 6205   6.536   6.993   9.618 -0.1652  0.5515 -0.3158
   51CHL1   C13 6206   6.407   6.838   9.694 -0.4592  0.4288 -0.0906
   51CHL1   C18 6207   6.299   6.751   9.637 -0.0235 -0.4360  0.1867
   51CHL1  H18A 6208   6.325   6.678   9.557 -0.4705 -1.0592  0.5994
   51CHL1  H18B 6209   6.244   6.695   9.715 -0.2141 -1.8723 -0.9322
   51CHL1  H18C 6210   6.218   6.810   9.590 -0.4143 -1.2765 -0.2102
   51CHL1   C12 6211   6.526   6.750   9.748 -0.0620  0.4289 -0.8285
   51CHL1  H12A 6212   6.562   6.680   9.669 -0.4720 -0.6252 -0.1002
   51CHL1  H12B 6213   6.604   6.827   9.767  0.2268  0.0884 -0.6188
   51CHL1   C11 6214   6.488   6.674   9.876 -0.0843  0.0149  0.7019
   51CHL1  H11A 6215   6.421   6.591   9.846 -0.0654 -0.9647  3.1337
   51CHL1  H11B 6216   6.585   6.631   9.910  1.6108  2.4064 -0.7737
   51CHL1    C9 6217   6.420   6.762   9.984  0.1124 -0.4798 -0.1177
   51CHL1    H9 6218   6.499   6.824  10.032 -1.2843  1.2528  0.0732
   51CHL1   C10 6219   6.360   6.682  10.114  0.2075  0.3550  0.6502
   51CHL1   C19 6220   6.281   6.549  10.070  0.0533  0.0215  0.1339
   51CHL1  H19A 6221   6.231   6.508  10.160 -0.2846  1.3481  0.5699
   51CHL1  H19B 6222   6.209   6.574   9.990 -0.9537 -3.3749 -0.1995
   51CHL1  H19C 6223   6.360   6.482  10.029  1.0691  1.4727 -0.3645
   51CHL1    C1 6224   6.479   6.626  10.192 -0.7589 -0.3967 -0.3111
   51CHL1   H1A 6225   6.542   6.560  10.129 -2.4040 -0.1962 -2.2933
   51CHL1   H1B 6226   6.551   6.703  10.226 -2.2347  0.8013  0.2171
   51CHL1    C2 6227   6.443   6.560  10.324  0.5043 -0.1735 -1.0637
   51CHL1   H2A 6228   6.533   6.534  10.383  0.2329  0.6815 -0.2381
   51CHL1   H2B 6229   6.373   6.474  10.316 -1.7678  1.0519  2.7902
   51CHL1   C20 6230   6.460   6.899   9.439  0.1277  0.6360  0.4112
   51CHL1   H20 6231   6.364   6.869   9.391 -0.0699  2.9294 -0.7435
   51CHL1   C21 6232   6.564   6.790   9.434 -0.0839 -0.0906 -0.1404
   51CHL1  H21A 6233   6.529   6.689   9.463 -0.7116 -0.1678 -1.1020
   51CHL1  H21B 6234   6.654   6.823   9.491  0.8939  0.0153 -1.6786
   51CHL1  H21C 6235   6.595   6.776   9.328 -1.0367 -0.5102 -0.3664
   51CHL1   C22 6236   6.510   7.023   9.354 -0.0304 -0.0643  0.4595
   51CHL1  H22A 6237   6.439   7.107   9.370 -0.3304 -0.2432  0.0855
   51CHL1  H22B 6238   6.611   7.051   9.394 -1.0097  0.2917  2.8610
   51CHL1   C23 6239   6.531   7.000   9.204 -0.5865 -0.1433 -0.1841
   51CHL1  H23A 6240   6.572   6.902   9.172 -1.4548 -0.7800  0.6109
   51CHL1  H23B 6241   6.436   7.023   9.151 -0.3846  2.0114  0.2759
   51CHL1   C24 6242   6.614   7.110   9.129  0.4768 -0.0573  0.2350
   51CHL1  H24A 6243   6.579   7.209   9.167  0.9164  1.2365 -2.4856
   51CHL1  H24B 6244   6.722   7.091   9.152  0.8919  0.1235 -1.4543
   51CHL1   C25 6245   6.598   7.097   8.975  0.3853  0.2566 -0.9692
   51CHL1   H25 6246   6.561   6.995   8.953 -1.5203  0.4624  0.9169
   51CHL1   C26 6247   6.508   7.209   8.915  0.0970  0.6888 -0.0985
   51CHL1  H26A 6248   6.515   7.304   8.971  0.2257  0.4301  0.3267
   51CHL1  H26B 6249   6.514   7.217   8.804 -1.0428  0.4130 -0.1912
   51CHL1  H26C 6250   6.402   7.177   8.925 -0.0461  0.9001 -0.8841
   51CHL1   C27 6251   6.735   7.100   8.908 -0.3372 -0.2380  0.1034
   51CHL1  H27A 6252   6.787   7.197   8.925  1.2700 -1.0985  0.2836
   51CHL1  H27B 6253   6.799   7.025   8.960 -4.0919 -3.4580  0.5593
   51CHL1  H27C 6254   6.730   7.076   8.800 -1.6706 -0.5201  0.2077
   52CHL1    C3 6255   3.485   4.138   9.947  0.7479 -0.1157 -0.6299
   52CHL1    H3 6256   3.440   4.036   9.946  1.2547 -0.3433 -1.3522
   52CHL1    O3 6257   3.501   4.197  10.079  0.1114 -0.1435  0.7694
   52CHL1   H3' 6258   3.411   4.205  10.111 -0.3478 -0.8187 -0.2776
   52CHL1    C4 6259   3.620   4.116   9.878 -0.0758  1.0167 -0.8995
   52CHL1   H4A 6260   3.655   4.221   9.867 -0.3494  1.0156 -1.9184
   52CHL1   H4B 6261   3.682   4.062   9.953 -0.1011  1.1050 -0.8134
   52CHL1    C5 6262   3.612   4.064   9.734 -0.5803 -0.6088  0.0166
   52CHL1    C6 6263   3.676   3.955   9.693  0.0251  0.0366  0.5403
   52CHL1    H6 6264   3.728   3.889   9.764  0.9308 -0.1171 -0.2410
   52CHL1    C7 6265   3.687   3.894   9.550 -0.0593 -0.1140 -0.2996
   52CHL1   H7A 6266   3.795   3.880   9.530  0.2191 -1.8877  1.9180
   52CHL1   H7B 6267   3.634   3.796   9.560 -0.2880  0.1724  2.0481
   52CHL1    C8 6268   3.634   4.004   9.450  0.8718  0.3015  0.3385
   52CHL1    H8 6269   3.713   4.080   9.433 -1.4243  2.8027  0.1792
   52CHL1   C14 6270   3.615   3.950   9.311  0.2274 -0.6769 -0.7863
   52CHL1   H14 6271   3.538   3.871   9.325  0.5584 -0.9704 -0.6126
   52CHL1   C15 6272   3.727   3.873   9.245 -0.1202 -0.7074  0.7558
   52CHL1  H15A 6273   3.819   3.935   9.251 -1.8270  1.8822  2.8348
   52CHL1  H15B 6274   3.755   3.772   9.282  0.7853 -0.3136  1.1678
   52CHL1   C16 6275   3.687   3.858   9.101 -0.4535  1.0592  0.1542
   52CHL1  H16A 6276   3.776   3.892   9.044  0.5094 -0.6769  0.5449
   52CHL1  H16B 6277   3.665   3.752   9.075 -1.3979  1.4286 -0.6297
   52CHL1   C17 6278   3.564   3.949   9.080  0.8292 -0.8527  0.3215
   52CHL1   H17 6279   3.479   3.879   9.101 -0.9728  0.8773 -0.8623
   52CHL1   C13 6280   3.565   4.043   9.204  0.9469  0.8510  0.6318
   52CHL1   C18 6281   3.675   4.157   9.187 -0.0445 -0.2956 -0.1584
   52CHL1  H18A 6282   3.694   4.225   9.273 -0.2360  2.6281 -2.3048
   52CHL1  H18B 6283   3.772   4.113   9.156  0.9576  0.8028  1.3148
   52CHL1  H18C 6284   3.645   4.221   9.102 -0.1425 -1.8436 -1.3402
   52CHL1   C12 6285   3.430   4.086   9.261 -0.0359 -0.0524  0.3147
   52CHL1  H12A 6286   3.392   4.161   9.188 -0.2551  0.1726  0.6566
   52CHL1  H12B 6287   3.351   4.009   9.268  1.2604 -1.3428  1.6222
   52CHL1   C11 6288   3.445   4.166   9.385  0.3477 -0.7952  0.4899
   52CHL1  H11A 6289   3.518   4.247   9.362  1.3731 -1.7003  0.4987
   52CHL1  H11B 6290   3.353   4.214   9.425  0.7385  0.2669  0.1686
   52CHL1    C9 6291   3.512   4.080   9.492  0.1265  0.0839  0.6904
   52CHL1    H9 6292   3.439   3.998   9.510 -0.1835  0.7580  2.6825
   52CHL1   C10 6293   3.531   4.153   9.633  0.8747 -0.0033  0.0511
   52CHL1   C19 6294   3.606   4.281   9.605 -0.2907  0.2185 -0.5249
   52CHL1  H19A 6295   3.541   4.351   9.547  1.0051  1.2857 -0.7481
   52CHL1  H19B 6296   3.638   4.333   9.697 -1.5837 -0.2228  0.2008
   52CHL1  H19C 6297   3.698   4.253   9.551 -0.5304 -1.7501  0.0241
   52CHL1    C1 6298   3.396   4.177   9.706  0.3179  0.8229 -0.6070
   52CHL1   H1A 6299   3.336   4.248   9.645  1.4378  1.7083 -0.7131
   52CHL1   H1B 6300   3.331   4.087   9.707  0.6647  0.5655 -0.9377
   52CHL1    C2 6301   3.401   4.228   9.852 -0.3009 -0.3015  0.5544
   52CHL1   H2A 6302   3.302   4.243   9.901  0.2738 -0.3480  1.7658
   52CHL1   H2B 6303   3.443   4.330   9.847  0.7300 -0.7569 -1.1014
   52CHL1   C20 6304   3.554   4.010   8.941 -0.2336  0.0633  0.3265
   52CHL1   H20 6305   3.639   4.081   8.931 -1.5621  1.5683 -0.9279
   52CHL1   C21 6306   3.423   4.094   8.938  0.1857 -0.7347 -0.2363
   52CHL1  H21A 6307   3.443   4.196   8.979  1.1378 -0.7650 -0.6015
   52CHL1  H21B 6308   3.344   4.043   8.998  1.5243 -0.2297  2.1023
   52CHL1  H21C 6309   3.382   4.107   8.836 -1.7976 -0.4486  0.5523
   52CHL1   C22 6310   3.575   3.916   8.817  0.1945 -0.1369  0.3758
   52CHL1  H22A 6311   3.664   3.850   8.823  0.5371  0.0448 -1.7234
   52CHL1  H22B 6312   3.486   3.849   8.812 -0.0060  0.0472  1.3510
   52CHL1   C23 6313   3.606   4.010   8.699  0.3438  0.1343 -0.1530
   52CHL1  H23A 6314   3.522   4.078   8.671  0.3961  0.0109 -0.6127
   52CHL1  H23B 6315   3.692   4.078   8.720 -0.0624  0.6149 -0.0287
   52CHL1   C24 6316   3.640   3.929   8.569  0.1405  0.4300  0.2165
   52CHL1  H24A 6317   3.721   3.855   8.584 -0.8997 -1.2588 -1.9915
   52CHL1  H24B 6318   3.545   3.879   8.539  0.4719 -0.7294  1.0419
   52CHL1   C25 6319   3.682   4.012   8.444 -0.0035  1.5587  0.6941
   52CHL1   H25 6320   3.594   4.069   8.409 -1.7539  0.2719  2.7399
   52CHL1   C26 6321   3.802   4.097   8.474  0.6174  0.1660 -0.3987
   52CHL1  H26A 6322   3.841   4.147   8.383 -0.0430 -1.5385 -1.6627
   52CHL1  H26B 6323   3.784   4.176   8.551  1.0412  0.6625 -0.7977
   52CHL1  H26C 6324   3.886   4.035   8.513  0.8196  1.4543  1.3772
   52CHL1   C27 6325   3.722   3.913   8.327  0.5054 -0.5354  0.2296
   52CHL1  H27A 6326   3.638   3.847   8.299  1.4280 -0.7517 -2.2577
   52CHL1  H27B 6327   3.775   3.962   8.242 -0.3320  0.4101  0.2301
   52CHL1  H27C 6328   3.795   3.843   8.373  0.6367 -0.3652  0.2818
   53CHL1    C3 6329   2.961   6.150   9.911 -0.3572  0.1338 -0.1274
   53CHL1    H3 6330   2.875   6.220   9.903 -0.0521  0.8385  1.9672
   53CHL1    O3 6331   3.050   6.211  10.007 -0.0207  0.5193 -0.4788
   53CHL1   H3' 6332   3.030   6.304  10.020  1.6827  0.6896  1.4384
   53CHL1    C4 6333   2.909   6.018   9.975  0.0699  0.2942  0.0282
   53CHL1   H4A 6334   3.001   5.958   9.989  0.9517  1.1627 -1.7054
   53CHL1   H4B 6335   2.878   6.038  10.080 -0.4572  0.7378 -0.2057
   53CHL1    C5 6336   2.812   5.948   9.885  0.4272 -1.0515  0.2561
   53CHL1    C6 6337   2.689   5.913   9.924 -1.0425  0.2188  0.0349
   53CHL1    H6 6338   2.666   5.929  10.030 -0.5467 -2.4451  0.6231
   53CHL1    C7 6339   2.579   5.839   9.860 -0.4077  0.1101  0.3440
   53CHL1   H7A 6340   2.554   5.758   9.931 -1.7425 -0.5985 -0.8874
   53CHL1   H7B 6341   2.492   5.902   9.832  0.8208  0.7985 -2.3146
   53CHL1    C8 6342   2.640   5.783   9.728 -1.0057 -0.1599  0.2378
   53CHL1    H8 6343   2.695   5.692   9.758 -0.1309  0.3041  0.0894
   53CHL1   C14 6344   2.525   5.742   9.633 -0.8598 -0.6797 -0.4651
   53CHL1   H14 6345   2.474   5.837   9.605 -2.5025 -1.5170 -0.4561
   53CHL1   C15 6346   2.426   5.644   9.686  1.0171  0.1167 -0.0616
   53CHL1  H15A 6347   2.465   5.565   9.754 -1.8916  0.0982  1.8008
   53CHL1  H15B 6348   2.353   5.701   9.749 -0.7199  0.0161 -1.8718
   53CHL1   C16 6349   2.348   5.596   9.560  0.1802 -0.0036 -0.2386
   53CHL1  H16A 6350   2.363   5.486   9.562  3.5394  0.3366 -0.1162
   53CHL1  H16B 6351   2.241   5.623   9.550  0.6435  1.3167 -2.0793
   53CHL1   C17 6352   2.426   5.659   9.441  0.3076  0.7394  0.1097
   53CHL1   H17 6353   2.381   5.760   9.432  0.4839  0.8224  0.1505
   53CHL1   C13 6354   2.571   5.690   9.496  0.1668  0.3094 -0.1460
   53CHL1   C18 6355   2.653   5.552   9.507  0.5075 -0.4864 -0.2321
   53CHL1  H18A 6356   2.600   5.482   9.574 -0.2259 -1.0019 -1.3243
   53CHL1  H18B 6357   2.672   5.494   9.414 -1.1273 -0.0901 -0.8540
   53CHL1  H18C 6358   2.753   5.567   9.553 -0.1843 -2.3093  2.0365
   53CHL1   C12 6359   2.654   5.800   9.419 -0.8238  0.2284 -0.5713
   53CHL1  H12A 6360   2.689   5.764   9.320 -0.7616  0.1730 -0.5300
   53CHL1  H12B 6361   2.581   5.882   9.397  0.2691  1.8855  1.6361
   53CHL1   C11 6362   2.772   5.852   9.508  0.5586  0.2629 -0.4921
   53CHL1  H11A 6363   2.836   5.761   9.515  2.1582  1.4315  0.6388
   53CHL1  H11B 6364   2.822   5.945   9.474  1.1108  0.1846  0.0859
   53CHL1    C9 6365   2.735   5.880   9.653 -0.0707 -0.4359 -0.3874
   53CHL1    H9 6366   2.679   5.976   9.655  0.7540  0.1316  3.0026
   53CHL1   C10 6367   2.861   5.921   9.738 -0.6569  0.0910  0.1570
   53CHL1   C19 6368   2.967   5.812   9.746  0.4203 -0.7659 -0.2441
   53CHL1  H19A 6369   2.994   5.770   9.646 -0.6743 -1.6168 -0.2005
   53CHL1  H19B 6370   3.058   5.834   9.805 -0.5395 -0.2558  1.0753
   53CHL1  H19C 6371   2.917   5.734   9.806 -0.8993  1.1895  1.3105
   53CHL1    C1 6372   2.927   6.055   9.687 -0.4654  0.0464 -0.5457
   53CHL1   H1A 6373   2.987   6.036   9.596  0.3105 -0.2997  0.0285
   53CHL1   H1B 6374   2.839   6.112   9.651 -0.2835  1.1146  0.5981
   53CHL1    C2 6375   3.027   6.130   9.776  0.3679 -0.2449 -0.0900
   53CHL1   H2A 6376   3.051   6.226   9.726 -1.3616  0.6038  0.5975
   53CHL1   H2B 6377   3.120   6.071   9.788  0.7453  0.0768 -1.2766
   53CHL1   C20 6378   2.407   5.580   9.305  0.3760 -0.8490  0.0377
   53CHL1   H20 6379   2.465   5.485   9.306 -0.4605 -1.3802  1.3647
   53CHL1   C21 6380   2.482   5.656   9.195  0.3554 -0.2062 -0.9639
   53CHL1  H21A 6381   2.453   5.630   9.091  0.1712  1.7474 -1.4314
   53CHL1  H21B 6382   2.593   5.645   9.201  0.6207  1.1957 -2.4811
   53CHL1  H21C 6383   2.456   5.764   9.192 -1.5384 -0.6170 -0.5948
   53CHL1   C22 6384   2.261   5.549   9.266 -0.2084  0.2517 -0.3812
   53CHL1  H22A 6385   2.223   5.497   9.357 -0.8453 -0.2394 -0.9217
   53CHL1  H22B 6386   2.198   5.639   9.251  0.3034  1.0028  1.5885
   53CHL1   C23 6387   2.244   5.466   9.145  0.2105 -0.2476 -0.1968
   53CHL1  H23A 6388   2.256   5.517   9.048  1.1704 -1.7917 -0.9221
   53CHL1  H23B 6389   2.308   5.376   9.148 -0.8812 -1.0287  1.3704
   53CHL1   C24 6390   2.106   5.393   9.139 -0.0000  0.5244 -0.7200
   53CHL1  H24A 6391   2.086   5.354   9.241 -3.3735  1.2458 -0.9816
   53CHL1  H24B 6392   2.019   5.460   9.126  0.3377  1.1919  0.3653
   53CHL1   C25 6393   2.100   5.279   9.036 -0.2842 -0.3076  0.8368
   53CHL1   H25 6394   2.192   5.218   9.049 -0.9050 -1.8776 -1.4306
   53CHL1   C26 6395   1.973   5.197   9.060  0.3191  0.6724  0.3942
   53CHL1  H26A 6396   1.956   5.122   8.980  2.1341  1.0557 -0.3976
   53CHL1  H26B 6397   1.980   5.134   9.151 -1.5098 -0.4904 -0.2152
   53CHL1  H26C 6398   1.881   5.259   9.062  0.5070  0.9797 -0.2939
   53CHL1   C27 6399   2.097   5.339   8.890  0.4585 -0.1511 -0.0757
   53CHL1  H27A 6400   2.193   5.391   8.871  0.1999 -0.2181 -1.6841
   53CHL1  H27B 6401   2.107   5.260   8.813  1.1686  0.2219 -0.3779
   53CHL1  H27C 6402   2.005   5.398   8.873  0.6930  0.4280  0.6042
   54CHL1    C3 6403   3.879   1.154  10.047  0.6305  0.2899  0.1763
   54CHL1    H3 6404   3.781   1.127  10.002 -0.2146  2.1481  0.7881
   54CHL1    O3 6405   3.851   1.181  10.186  0.0835 -0.0111  0.1784
   54CHL1   H3' 6406   3.913   1.127  10.235 -0.7474  0.6929  2.0781
   54CHL1    C4 6407   3.983   1.043  10.028 -0.1505 -0.1270 -0.2594
   54CHL1   H4A 6408   4.082   1.080  10.062 -0.4445 -0.0219  0.5057
   54CHL1   H4B 6409   3.956   0.957  10.094 -1.3364  0.6102  0.2567
   54CHL1    C5 6410   3.996   1.010   9.885  1.0047 -0.7597  0.2368
   54CHL1    C6 6411   3.966   0.884   9.839 -0.3174  0.5550  0.8137
   54CHL1    H6 6412   3.938   0.802   9.907  0.9408 -0.4524  0.1633
   54CHL1    C7 6413   3.972   0.852   9.694  0.1784 -0.2225  1.0671
   54CHL1   H7A 6414   3.997   0.746   9.672  2.3385  0.5845 -0.7852
   54CHL1   H7B 6415   3.869   0.869   9.655  1.6234 -0.7877 -3.7070
   54CHL1    C8 6416   4.058   0.947   9.606 -0.5950 -0.8093 -0.4068
   54CHL1    H8 6417   4.166   0.945   9.631 -0.2801  2.4157 -1.1690
   54CHL1   C14 6418   4.054   0.922   9.455 -0.2190  0.0045 -0.4931
   54CHL1   H14 6419   3.946   0.936   9.436 -0.2017  3.9627  1.3117
   54CHL1   C15 6420   4.090   0.780   9.418  0.6410 -0.5214  0.6613
   54CHL1  H15A 6421   4.184   0.745   9.464  0.8780 -1.8544 -0.7606
   54CHL1  H15B 6422   4.011   0.706   9.443 -0.3346  0.7440  1.4399
   54CHL1   C16 6423   4.121   0.809   9.269 -0.6638 -0.3831  0.1940
   54CHL1  H16A 6424   4.224   0.772   9.251 -0.4912 -0.1846  0.7600
   54CHL1  H16B 6425   4.056   0.745   9.206  1.3368 -2.0399 -0.3220
   54CHL1   C17 6426   4.104   0.963   9.239 -0.5752  0.3390  0.6926
   54CHL1   H17 6427   3.998   0.989   9.218 -1.5296 -0.5686  3.8628
   54CHL1   C13 6428   4.135   1.026   9.373  0.2416  0.1596 -0.3743
   54CHL1   C18 6429   4.287   1.009   9.398 -0.5709  0.0537 -0.5138
   54CHL1  H18A 6430   4.325   1.067   9.485 -2.3357  0.7317 -0.1649
   54CHL1  H18B 6431   4.318   0.904   9.415  1.5510  0.5172 -1.2015
   54CHL1  H18C 6432   4.337   1.060   9.313  0.3221 -0.1903 -0.1457
   54CHL1   C12 6433   4.068   1.159   9.393 -0.6185  0.0190  0.4184
   54CHL1  H12A 6434   4.105   1.240   9.327 -0.2123 -1.9130 -1.8283
   54CHL1  H12B 6435   3.963   1.154   9.359 -0.1985 -1.1046 -0.8260
   54CHL1   C11 6436   4.067   1.202   9.547  0.3272  0.4827  0.2304
   54CHL1  H11A 6437   4.172   1.230   9.565  0.4564 -0.1725  0.5298
   54CHL1  H11B 6438   4.004   1.293   9.548  1.8067  1.5519 -0.6774
   54CHL1    C9 6439   4.013   1.089   9.641  1.3624 -0.5303 -0.2662
   54CHL1    H9 6440   3.904   1.107   9.631  1.8095  2.2828 -0.9201
   54CHL1   C10 6441   4.032   1.130   9.795 -0.6654  0.2150  0.2141
   54CHL1   C19 6442   4.187   1.148   9.813  0.3965  0.9511 -0.3258
   54CHL1  H19A 6443   4.230   1.222   9.742  0.6617 -2.1950 -3.7780
   54CHL1  H19B 6444   4.208   1.186   9.915  1.0536  1.8769 -0.7901
   54CHL1  H19C 6445   4.239   1.051   9.796  1.8030  1.8614 -1.5175
   54CHL1    C1 6446   3.961   1.260   9.832 -0.6074 -0.3829  0.2003
   54CHL1   H1A 6447   4.008   1.352   9.790  1.1964 -0.7799  1.2519
   54CHL1   H1B 6448   3.861   1.253   9.785 -1.0971  1.9312  0.7473
   54CHL1    C2 6449   3.932   1.280   9.979  0.1637 -0.0440 -0.3575
   54CHL1   H2A 6450   3.859   1.363   9.991  0.1219 -0.1558  0.1883
   54CHL1   H2B 6451   4.023   1.318  10.030 -1.1305 -0.9344  2.8681
   54CHL1   C20 6452   4.178   1.009   9.109  0.9740  0.5885 -0.8089
   54CHL1   H20 6453   4.287   0.987   9.114  1.0917  1.2742  0.2553
   54CHL1   C21 6454   4.153   1.161   9.088  0.5180  0.2271  0.9953
   54CHL1  H21A 6455   4.177   1.179   8.981  0.3943 -1.6016  0.6117
   54CHL1  H21B 6456   4.219   1.218   9.157  1.9252  1.2635 -1.1063
   54CHL1  H21C 6457   4.047   1.191   9.096  0.7879  1.3539  0.5037
   54CHL1   C22 6458   4.121   0.927   8.994 -0.4165  0.6029  0.1871
   54CHL1  H22A 6459   4.138   0.818   9.013  1.8153  0.7616 -0.4886
   54CHL1  H22B 6460   4.015   0.953   8.977 -0.2523  0.0916 -2.0549
   54CHL1   C23 6461   4.200   0.951   8.866 -1.0446  0.3495  0.8056
   54CHL1  H23A 6462   4.204   1.055   8.828 -3.1653 -0.0112 -0.5427
   54CHL1  H23B 6463   4.307   0.934   8.892 -0.5019  3.8906  1.4070
   54CHL1   C24 6464   4.143   0.857   8.756  0.0354 -0.0882 -0.2586
   54CHL1  H24A 6465   4.176   0.753   8.777  0.6514  0.5547  2.2859
   54CHL1  H24B 6466   4.032   0.868   8.763 -0.0966 -1.5673  0.2777
   54CHL1   C25 6467   4.173   0.904   8.612  0.3688 -0.3244  0.3497
   54CHL1   H25 6468   4.133   1.006   8.598 -0.1117 -0.7409 -1.4748
   54CHL1   C26 6469   4.319   0.918   8.587  0.1103  0.2156 -0.2604
   54CHL1  H26A 6470   4.338   0.962   8.487  0.3617  1.5932  0.3807
   54CHL1  H26B 6471   4.358   0.989   8.662  1.2149 -0.2776 -0.3530
   54CHL1  H26C 6472   4.363   0.816   8.599 -2.2390 -0.7975  0.4457
   54CHL1   C27 6473   4.107   0.815   8.511 -0.4888  0.0710  0.5974
   54CHL1  H27A 6474   4.112   0.852   8.407  1.0906  0.1790  0.6808
   54CHL1  H27B 6475   4.163   0.718   8.513  0.0998  0.4117  0.8420
   54CHL1  H27C 6476   4.004   0.792   8.545 -0.7800  2.7572  1.7179
   55CHL1    C3 6477   2.051   2.372   9.920  0.0820  0.1255 -0.5050
   55CHL1    H3 6478   1.940   2.380   9.924  0.1548  0.9578  0.1319
   55CHL1    O3 6479   2.104   2.388  10.054  0.3521  0.0872  0.6479
   55CHL1   H3' 6480   2.081   2.309  10.102 -2.3710  0.6866  0.4772
   55CHL1    C4 6481   2.107   2.231   9.862 -0.4339  0.5192 -0.0887
   55CHL1   H4A 6482   2.216   2.215   9.876 -0.5164 -0.1663 -0.1954
   55CHL1   H4B 6483   2.050   2.161   9.926  0.9284  0.1924  0.8078
   55CHL1    C5 6484   2.076   2.217   9.714  0.0083  0.4068  0.0267
   55CHL1    C6 6485   2.025   2.106   9.667 -0.4765 -0.2255 -0.3864
   55CHL1    H6 6486   2.017   2.019   9.735 -3.4140  1.1746  1.2558
   55CHL1    C7 6487   2.004   2.088   9.516  0.4267  0.7373  0.6951
   55CHL1   H7A 6488   2.047   1.993   9.478 -0.2405  0.3437  0.9057
   55CHL1   H7B 6489   1.896   2.090   9.489  0.5723 -1.0745 -0.1654
   55CHL1    C8 6490   2.085   2.193   9.422 -0.5658  0.1953 -0.3002
   55CHL1    H8 6491   2.192   2.164   9.418 -1.3271 -2.7524 -1.8072
   55CHL1   C14 6492   2.023   2.198   9.281 -0.1215 -0.4814 -0.1476
   55CHL1   H14 6493   1.915   2.219   9.299 -0.0804  0.3030 -0.7766
   55CHL1   C15 6494   2.013   2.075   9.210  0.1268  0.5737 -0.2789
   55CHL1  H15A 6495   2.113   2.027   9.204  0.1810  0.7068 -0.4626
   55CHL1  H15B 6496   1.937   2.000   9.239  0.3209  0.9169  1.1917
   55CHL1   C16 6497   1.983   2.121   9.065  0.2158 -0.6204 -0.0189
   55CHL1  H16A 6498   2.035   2.067   8.983 -0.9694 -0.6589 -0.7727
   55CHL1  H16B 6499   1.874   2.109   9.049  0.0680  0.7359 -0.1707
   55CHL1   C17 6500   2.011   2.273   9.045 -0.4553  0.1695 -0.7471
   55CHL1   H17 6501   1.916   2.327   9.067 -0.3073 -0.5752  2.2583
   55CHL1   C13 6502   2.087   2.295   9.178 -0.7262 -0.1452  0.3672
   55CHL1   C18 6503   2.236   2.256   9.161 -0.3128  0.3681 -0.4498
   55CHL1  H18A 6504   2.243   2.157   9.110 -2.4035  1.0845 -2.2786
   55CHL1  H18B 6505   2.286   2.335   9.100 -1.3795 -0.4120 -2.4492
   55CHL1  H18C 6506   2.292   2.239   9.255 -0.6527 -3.3366 -0.7876
   55CHL1   C12 6507   2.078   2.436   9.237 -0.1920 -0.0868  0.7288
   55CHL1  H12A 6508   2.130   2.517   9.181 -0.1006 -0.4143  0.3316
   55CHL1  H12B 6509   1.972   2.469   9.228  0.2829  1.1559 -0.8534
   55CHL1   C11 6510   2.122   2.444   9.381 -0.3437  0.2092 -0.0947
   55CHL1  H11A 6511   2.233   2.441   9.389 -0.3929  0.7728  0.9710
   55CHL1  H11B 6512   2.097   2.547   9.414 -3.5455 -0.7907  0.9367
   55CHL1    C9 6513   2.068   2.335   9.481  0.4072  0.8099  0.4660
   55CHL1    H9 6514   1.958   2.352   9.483  0.6254  2.8699  4.2653
   55CHL1   C10 6515   2.116   2.341   9.621 -0.2180 -0.6370 -0.6157
   55CHL1   C19 6516   2.270   2.344   9.623 -0.2665  0.2760  0.5328
   55CHL1  H19A 6517   2.324   2.333   9.719  0.5000 -1.2276 -0.0415
   55CHL1  H19B 6518   2.303   2.255   9.566 -1.2227  0.3275 -0.1329
   55CHL1  H19C 6519   2.312   2.431   9.569 -0.7863 -0.9332 -1.9964
   55CHL1    C1 6520   2.071   2.479   9.687 -0.2005 -0.3217  0.4717
   55CHL1   H1A 6521   2.111   2.562   9.625  0.1037 -0.3020  0.6915
   55CHL1   H1B 6522   1.960   2.485   9.684 -0.1785  1.6216  1.9027
   55CHL1    C2 6523   2.101   2.494   9.840  0.5557 -0.1146  0.2386
   55CHL1   H2A 6524   2.052   2.589   9.869 -2.1321 -0.7335 -1.8885
   55CHL1   H2B 6525   2.211   2.509   9.840  0.5356  0.0269 -0.0708
   55CHL1   C20 6526   2.080   2.315   8.913  0.1624 -0.4051  0.6682
   55CHL1   H20 6527   2.183   2.277   8.900  0.1365 -1.1833  2.3666
   55CHL1   C21 6528   2.078   2.470   8.899 -0.5018  0.6292  0.3032
   55CHL1  H21A 6529   2.139   2.496   8.810 -0.0453 -0.4614  0.2922
   55CHL1  H21B 6530   2.113   2.531   8.985 -0.0728 -0.9193  1.2537
   55CHL1  H21C 6531   1.972   2.498   8.876 -0.5284  1.0709  0.9497
   55CHL1   C22 6532   1.998   2.256   8.798  0.4156 -0.2850  0.2458
   55CHL1  H22A 6533   1.992   2.145   8.799 -1.9348 -0.2106  0.4312
   55CHL1  H22B 6534   1.890   2.284   8.805 -0.3350 -2.8005 -0.2680
   55CHL1   C23 6535   2.054   2.280   8.657 -0.6456 -0.3284  0.5503
   55CHL1  H23A 6536   2.065   2.386   8.624  0.8486 -1.4058 -2.7831
   55CHL1  H23B 6537   2.162   2.258   8.654 -0.6205 -0.2113  0.5538
   55CHL1   C24 6538   1.983   2.221   8.533 -0.4618 -0.2126 -0.3954
   55CHL1  H24A 6539   1.983   2.114   8.561  1.0953  0.2186  1.4337
   55CHL1  H24B 6540   1.880   2.264   8.527 -0.2092  1.0812  2.8937
   55CHL1   C25 6541   2.067   2.234   8.402  1.0587 -0.5259  0.5957
   55CHL1   H25 6542   2.176   2.242   8.425  1.5391 -0.0999 -1.6055
   55CHL1   C26 6543   2.055   2.110   8.307  0.1735  0.3053  0.2131
   55CHL1  H26A 6544   2.141   2.103   8.236 -0.8210 -1.0674 -0.9261
   55CHL1  H26B 6545   2.050   2.019   8.369 -0.5871 -0.0462 -0.3512
   55CHL1  H26C 6546   1.967   2.105   8.239  0.9814  0.7756 -0.8997
   55CHL1   C27 6547   2.044   2.363   8.320  0.3029 -0.3128 -0.4751
   55CHL1  H27A 6548   1.944   2.375   8.273 -0.7914  2.1029  2.1467
   55CHL1  H27B 6549   2.073   2.450   8.383  0.8629  0.5081 -1.8172
   55CHL1  H27C 6550   2.114   2.368   8.234  1.0787 -0.7062  0.1162
   56CHL1    C3 6551   3.526   1.298  10.044 -0.2683 -0.7853 -0.1889
   56CHL1    H3 6552   3.636   1.295  10.058 -0.2207 -1.1335 -0.6163
   56CHL1    O3 6553   3.467   1.324  10.169  0.0576  0.1950 -0.0001
   56CHL1   H3' 6554   3.380   1.285  10.167  0.8089 -1.5514  0.3132
   56CHL1    C4 6555   3.483   1.405   9.927 -0.0584  1.1963  0.2495
   56CHL1   H4A 6556   3.372   1.409   9.936 -0.3395 -1.8483 -0.8015
   56CHL1   H4B 6557   3.518   1.506   9.956  2.3190  0.9525 -1.4552
   56CHL1    C5 6558   3.532   1.364   9.784 -0.0562 -0.0618  0.3346
   56CHL1    C6 6559   3.625   1.428   9.701  0.3452  0.1559 -0.6965
   56CHL1    H6 6560   3.677   1.523   9.723  0.8565  0.0928 -1.5826
   56CHL1    C7 6561   3.662   1.390   9.561 -0.1754  0.0869 -0.4433
   56CHL1   H7A 6562   3.649   1.474   9.489 -0.2321  0.7272  0.2900
   56CHL1   H7B 6563   3.768   1.357   9.553 -0.3073 -0.0765 -1.7275
   56CHL1    C8 6564   3.582   1.274   9.517  0.6657  0.5745  0.2484
   56CHL1    H8 6565   3.484   1.310   9.480  0.7640  1.1763  0.5642
   56CHL1   C14 6566   3.647   1.201   9.401  0.4408  0.3851  0.3741
   56CHL1   H14 6567   3.746   1.172   9.442  0.8971  0.3066 -0.7400
   56CHL1   C15 6568   3.674   1.282   9.268  0.4202 -0.6507 -0.1582
   56CHL1  H15A 6569   3.593   1.350   9.233  3.1260  2.1874 -1.4416
   56CHL1  H15B 6570   3.757   1.353   9.289 -0.1432  0.2503 -0.8781
   56CHL1   C16 6571   3.709   1.179   9.164 -0.1287 -0.0629  0.0625
   56CHL1  H16A 6572   3.651   1.201   9.072 -0.6884 -1.4126  0.0764
   56CHL1  H16B 6573   3.818   1.172   9.140 -0.6794 -2.1050 -2.3021
   56CHL1   C17 6574   3.667   1.043   9.227 -0.5480 -0.8786 -0.4011
   56CHL1   H17 6575   3.762   1.001   9.266 -1.6298 -2.3188  0.7821
   56CHL1   C13 6576   3.576   1.080   9.346  0.9591 -0.2719 -0.8633
   56CHL1   C18 6577   3.430   1.109   9.303  0.2266  0.5604 -0.5236
   56CHL1  H18A 6578   3.370   1.024   9.262  0.6075  0.9013 -1.8432
   56CHL1  H18B 6579   3.366   1.142   9.387 -0.8719 -1.9171 -0.2932
   56CHL1  H18C 6580   3.417   1.177   9.216  0.0046  0.2671 -0.7245
   56CHL1   C12 6581   3.581   0.976   9.456  0.0813  0.2285 -0.6633
   56CHL1  H12A 6582   3.549   0.879   9.413  1.8151 -0.3071 -0.8072
   56CHL1  H12B 6583   3.685   0.953   9.488  0.3582  2.0542 -0.1257
   56CHL1   C11 6584   3.507   1.031   9.581 -0.2181  0.3529  0.0817
   56CHL1  H11A 6585   3.398   1.037   9.563 -0.0720  0.3304 -0.8577
   56CHL1  H11B 6586   3.531   0.956   9.659  1.0235 -1.8342 -2.2842
   56CHL1    C9 6587   3.563   1.171   9.627 -0.6429  0.1255 -0.0905
   56CHL1    H9 6588   3.668   1.155   9.662 -0.7719 -0.0943  0.2074
   56CHL1   C10 6589   3.480   1.223   9.747  0.6439 -0.3129 -0.0042
   56CHL1   C19 6590   3.332   1.242   9.708  0.2427  0.7518  0.5880
   56CHL1  H19A 6591   3.281   1.280   9.799  0.1847 -0.8947  1.2898
   56CHL1  H19B 6592   3.326   1.313   9.623  2.6576 -0.3813 -0.6320
   56CHL1  H19C 6593   3.284   1.146   9.679 -0.1434  1.4287 -1.1046
   56CHL1    C1 6594   3.498   1.126   9.868  0.1554  0.3966 -0.3503
   56CHL1   H1A 6595   3.462   1.024   9.842  0.0365  1.0036 -2.7773
   56CHL1   H1B 6596   3.608   1.113   9.872 -0.0229 -2.5460 -2.2861
   56CHL1    C2 6597   3.463   1.167  10.014  0.8751 -0.3319  0.4013
   56CHL1   H2A 6598   3.466   1.080  10.083 -4.2895 -2.3884 -1.4765
   56CHL1   H2B 6599   3.356   1.191  10.003  0.5891 -1.7937 -0.3024
   56CHL1   C20 6600   3.604   0.934   9.141  0.6838 -0.8397  0.2861
   56CHL1   H20 6601   3.536   0.866   9.196  0.6957 -1.3123 -0.2661
   56CHL1   C21 6602   3.719   0.849   9.089  0.1969  0.3106 -0.5178
   56CHL1  H21A 6603   3.676   0.761   9.037 -1.9671  2.3252 -2.3694
   56CHL1  H21B 6604   3.784   0.821   9.175  0.7860  1.9369 -0.3971
   56CHL1  H21C 6605   3.794   0.903   9.027  2.1771 -1.4535  0.1957
   56CHL1   C22 6606   3.525   0.989   9.021  0.1542  0.3760  0.2287
   56CHL1  H22A 6607   3.472   1.081   9.053 -2.1480 -0.9373  0.4237
   56CHL1  H22B 6608   3.590   1.029   8.940  0.6099 -0.4215  0.1826
   56CHL1   C23 6609   3.422   0.890   8.964  0.0592  0.3677  0.2528
   56CHL1  H23A 6610   3.469   0.806   8.907 -2.0200  0.5767 -1.8985
   56CHL1  H23B 6611   3.369   0.849   9.052 -0.7680 -0.2293 -0.5069
   56CHL1   C24 6612   3.326   0.960   8.862 -0.1007 -0.0076 -0.2918
   56CHL1  H24A 6613   3.288   1.051   8.912  0.6565 -0.5246  1.3070
   56CHL1  H24B 6614   3.397   0.999   8.786  0.0868  0.3526  0.0625
   56CHL1   C25 6615   3.207   0.874   8.817  0.5515  0.9036 -0.2279
   56CHL1   H25 6616   3.201   0.798   8.897 -2.0171  2.1988  0.9148
   56CHL1   C26 6617   3.075   0.952   8.795  0.4042 -0.0219 -0.7253
   56CHL1  H26A 6618   3.047   0.986   8.898  1.4626  1.8242 -0.9907
   56CHL1  H26B 6619   3.094   1.054   8.754 -0.9025  0.7925  0.5782
   56CHL1  H26C 6620   2.993   0.895   8.747 -0.2050 -2.4550  2.7579
   56CHL1   C27 6621   3.252   0.817   8.678 -0.0655  0.0009  0.2160
   56CHL1  H27A 6622   3.199   0.725   8.646  0.6127 -0.0218 -0.8921
   56CHL1  H27B 6623   3.249   0.898   8.602  3.0775 -1.0575 -1.2427
   56CHL1  H27C 6624   3.356   0.776   8.679  0.3760  1.0792  1.6925
   57CHL1    C3 6625   5.518   5.141  10.112  0.5408  0.0488  0.2269
   57CHL1    H3 6626   5.548   5.037  10.137 -1.3000 -0.3935  0.7441
   57CHL1    O3 6627   5.489   5.219  10.234 -0.2996  0.2365 -0.2365
   57CHL1   H3' 6628   5.571   5.231  10.283 -0.3654  2.4775 -0.5656
   57CHL1    C4 6629   5.624   5.220  10.040  0.6489  0.9424  0.3996
   57CHL1   H4A 6630   5.584   5.324  10.035 -4.2303 -0.6998  0.4147
   57CHL1   H4B 6631   5.717   5.216  10.101 -0.9948  2.1386  3.1479
   57CHL1    C5 6632   5.643   5.162   9.901 -0.5938  0.0615  0.4820
   57CHL1    C6 6633   5.769   5.138   9.855 -0.6675 -0.1197  0.6441
   57CHL1    H6 6634   5.854   5.164   9.919  2.1999 -0.0026 -2.8569
   57CHL1    C7 6635   5.804   5.106   9.712 -0.6168 -0.1422  0.0309
   57CHL1   H7A 6636   5.899   5.161   9.694 -1.1129  1.3783  1.6837
   57CHL1   H7B 6637   5.822   4.999   9.687  1.1730  0.0521  0.3059
   57CHL1    C8 6638   5.700   5.163   9.622  0.2314 -0.2172 -0.1514
   57CHL1    H8 6639   5.690   5.273   9.613 -1.7541 -0.2298  1.2330
   57CHL1   C14 6640   5.735   5.101   9.483 -0.7003 -0.0473  0.4056
   57CHL1   H14 6641   5.744   4.992   9.502  1.9640  0.0790  0.1876
   57CHL1   C15 6642   5.869   5.135   9.414 -0.0878 -0.0179 -0.2340
   57CHL1  H15A 6643   5.881   5.246   9.410 -2.0830  0.2001 -1.8464
   57CHL1  H15B 6644   5.955   5.098   9.473 -0.2359  0.0928  0.0502
   57CHL1   C16 6645   5.856   5.087   9.271  0.1454  0.5671 -0.4707
   57CHL1  H16A 6646   5.884   5.170   9.203 -1.7747  2.0852  0.4874
   57CHL1  H16B 6647   5.923   5.002   9.247  1.4603  1.3601  0.3083
   57CHL1   C17 6648   5.705   5.048   9.252  0.7213  0.0087 -0.4498
   57CHL1   H17 6649   5.701   4.941   9.283  1.0382 -0.2246 -1.1851
   57CHL1   C13 6650   5.634   5.123   9.372  0.0488 -0.2778  0.2236
   57CHL1   C18 6651   5.615   5.271   9.334 -0.5448  0.1809  0.2499
   57CHL1  H18A 6652   5.708   5.309   9.286 -1.6182  1.7442 -0.7355
   57CHL1  H18B 6653   5.533   5.305   9.266 -0.8561  0.8345  0.9285
   57CHL1  H18C 6654   5.596   5.327   9.428  2.5502  0.9027  0.5636
   57CHL1   C12 6655   5.501   5.068   9.409  0.0080  0.2537  0.5000
   57CHL1  H12A 6656   5.420   5.080   9.334 -2.6183 -1.9905  2.7535
   57CHL1  H12B 6657   5.511   4.957   9.419 -3.7335 -0.1467  1.0266
   57CHL1   C11 6658   5.459   5.121   9.551 -0.1003  0.0182 -0.4032
   57CHL1  H11A 6659   5.436   5.229   9.540  0.0813  0.3198  1.7310
   57CHL1  H11B 6660   5.373   5.055   9.579  0.2883  0.0381  0.8723
   57CHL1    C9 6661   5.566   5.106   9.661  0.0235  0.3487  0.3918
   57CHL1    H9 6662   5.587   4.997   9.671  0.0687 -0.0654 -2.8958
   57CHL1   C10 6663   5.524   5.162   9.802  0.6607  0.3578 -1.0075
   57CHL1   C19 6664   5.480   5.313   9.786  0.0351 -0.2115  0.6125
   57CHL1  H19A 6665   5.452   5.356   9.885  1.4955  0.6116  0.6960
   57CHL1  H19B 6666   5.549   5.368   9.718 -2.1941  0.3925 -1.3024
   57CHL1  H19C 6667   5.381   5.306   9.736  0.3037 -1.1026  0.1985
   57CHL1    C1 6668   5.414   5.074   9.881  0.4055  0.4347 -0.3523
   57CHL1   H1A 6669   5.320   5.080   9.822 -1.8836 -0.5030  2.9294
   57CHL1   H1B 6670   5.453   4.969   9.880 -0.1390  0.2275 -1.5659
   57CHL1    C2 6671   5.386   5.125  10.030 -0.5131  1.0867  0.0013
   57CHL1   H2A 6672   5.313   5.059  10.081  0.5783  1.8873  2.7616
   57CHL1   H2B 6673   5.331   5.222  10.027 -2.4684  0.1139  1.7133
   57CHL1   C20 6674   5.661   5.075   9.111 -0.4950  0.4717  0.1224
   57CHL1   H20 6675   5.666   5.185   9.099 -1.4570  0.5975  0.7938
   57CHL1   C21 6676   5.513   5.030   9.091  0.0750  0.4653 -0.2483
   57CHL1  H21A 6677   5.483   4.945   9.156 -2.8880  0.5673 -1.3364
   57CHL1  H21B 6678   5.495   4.999   8.986 -2.2632 -2.4073  0.8483
   57CHL1  H21C 6679   5.445   5.111   9.125 -0.3532  0.0603 -0.1228
   57CHL1   C22 6680   5.746   5.010   9.002 -0.0788 -0.0879 -0.2742
   57CHL1  H22A 6681   5.709   5.048   8.905  1.4732 -0.5676 -1.0778
   57CHL1  H22B 6682   5.848   5.053   9.000  0.3401 -0.5890  3.1935
   57CHL1   C23 6683   5.763   4.858   9.008  0.2886 -0.5151  1.0150
   57CHL1  H23A 6684   5.801   4.837   9.110 -0.5171  1.7143  1.8419
   57CHL1  H23B 6685   5.662   4.815   8.994 -1.2571  2.4158  2.2606
   57CHL1   C24 6686   5.856   4.800   8.900 -0.4577  0.0129  0.4745
   57CHL1  H24A 6687   5.797   4.770   8.811  1.6005 -0.5737 -0.7716
   57CHL1  H24B 6688   5.940   4.870   8.881 -0.1104 -0.9088 -1.6175
   57CHL1   C25 6689   5.927   4.665   8.950  0.3541  0.1365 -0.3787
   57CHL1   H25 6690   5.978   4.695   9.044 -0.2437 -1.9247  0.6495
   57CHL1   C26 6691   5.833   4.553   8.982 -0.1645 -0.2645  0.9825
   57CHL1  H26A 6692   5.761   4.542   8.899  0.0706 -1.1939  0.8815
   57CHL1  H26B 6693   5.890   4.458   8.998 -0.4045 -0.4357  0.8307
   57CHL1  H26C 6694   5.790   4.564   9.084  0.0338 -2.4282  1.3588
   57CHL1   C27 6695   6.029   4.620   8.844 -0.1603 -0.0909  0.5116
   57CHL1  H27A 6696   6.054   4.513   8.855  1.5653  0.4995  3.9515
   57CHL1  H27B 6697   5.997   4.644   8.741 -1.3391 -1.6559  0.4886
   57CHL1  H27C 6698   6.128   4.668   8.864 -0.7746  0.1872  3.3996
   58CHL1    C3 6699   3.761   4.517  10.043  0.2274  0.2319  0.3517
   58CHL1    H3 6700   3.677   4.457  10.004 -0.4162 -1.0830  3.4341
   58CHL1    O3 6701   3.733   4.556  10.178 -0.6436 -0.4429 -0.1846
   58CHL1   H3' 6702   3.798   4.620  10.209 -0.2614 -1.4478  1.1664
   58CHL1    C4 6703   3.885   4.422  10.036 -0.4526 -0.1749 -0.4180
   58CHL1   H4A 6704   3.970   4.463  10.094 -0.0982 -0.3762 -0.7928
   58CHL1   H4B 6705   3.851   4.335  10.097  2.6348  0.3355  2.3284
   58CHL1    C5 6706   3.922   4.375   9.894  0.5945 -0.2502 -0.2041
   58CHL1    C6 6707   3.924   4.243   9.855 -0.5751 -0.2795  0.1085
   58CHL1    H6 6708   3.895   4.166   9.928  1.2508 -0.8605  0.2571
   58CHL1    C7 6709   3.962   4.195   9.721 -0.2940 -0.3768 -0.8510
   58CHL1   H7A 6710   4.019   4.100   9.728  0.2976 -0.1400 -2.2463
   58CHL1   H7B 6711   3.875   4.148   9.671 -0.5731 -0.1573 -0.5758
   58CHL1    C8 6712   4.023   4.310   9.628 -0.1781  0.0575  0.2320
   58CHL1    H8 6713   4.128   4.326   9.660 -0.7996  1.4329  1.7186
   58CHL1   C14 6714   4.009   4.265   9.490 -0.6411 -0.7468  0.7678
   58CHL1   H14 6715   3.901   4.254   9.466 -0.2447 -2.6070 -0.3521
   58CHL1   C15 6716   4.057   4.126   9.456 -0.3466 -0.2642  0.2092
   58CHL1  H15A 6717   4.160   4.103   9.491 -0.0499  0.4403 -0.1671
   58CHL1  H15B 6718   3.981   4.050   9.481 -1.4184  0.7777  0.2329
   58CHL1   C16 6719   4.074   4.134   9.305 -0.4171  0.0290 -0.0277
   58CHL1  H16A 6720   4.183   4.129   9.287 -0.3771 -0.5879  0.3633
   58CHL1  H16B 6721   4.010   4.056   9.258 -0.4761 -0.3210  0.6220
   58CHL1   C17 6722   4.041   4.279   9.257 -0.1759 -0.8140  0.0896
   58CHL1   H17 6723   3.932   4.277   9.240 -0.0310  1.7833 -1.8412
   58CHL1   C13 6724   4.061   4.366   9.386 -0.5705 -0.0471  0.2239
   58CHL1   C18 6725   4.211   4.391   9.404 -0.3140 -0.1782 -0.0495
   58CHL1  H18A 6726   4.254   4.451   9.487 -1.3392 -2.3151  2.1351
   58CHL1  H18B 6727   4.255   4.289   9.412 -1.3251 -0.6142  0.1181
   58CHL1  H18C 6728   4.249   4.440   9.312 -1.5159 -1.5613 -1.3321
   58CHL1   C12 6729   3.974   4.495   9.401 -0.1679  0.1754  0.3896
   58CHL1  H12A 6730   4.010   4.565   9.323 -1.7779 -0.6419 -1.1536
   58CHL1  H12B 6731   3.869   4.470   9.377 -0.6198  1.8361  0.5186
   58CHL1   C11 6732   3.987   4.552   9.543 -0.1888  0.2036 -0.0414
   58CHL1  H11A 6733   4.088   4.596   9.552 -0.9127  3.0725 -3.2982
   58CHL1  H11B 6734   3.920   4.640   9.551 -0.3202  0.0106  1.1472
   58CHL1    C9 6735   3.940   4.442   9.646  0.3977  0.4880 -0.0639
   58CHL1    H9 6736   3.836   4.419   9.616  0.2158  2.3255 -1.0100
   58CHL1   C10 6737   3.945   4.496   9.796  0.2002  0.3449  0.7302
   58CHL1   C19 6738   4.080   4.555   9.821 -0.3812 -0.2925 -0.0680
   58CHL1  H19A 6739   4.160   4.487   9.784  0.1262  0.4250 -0.3129
   58CHL1  H19B 6740   4.097   4.651   9.768  1.0895  0.0447  0.9507
   58CHL1  H19C 6741   4.096   4.568   9.930 -0.4826 -0.4264 -0.0373
   58CHL1    C1 6742   3.824   4.599   9.802  0.0113  0.5709 -0.3207
   58CHL1   H1A 6743   3.863   4.695   9.762 -0.1953  1.0684  0.6233
   58CHL1   H1B 6744   3.733   4.565   9.748 -0.1499  1.6219 -0.7318
   58CHL1    C2 6745   3.784   4.639   9.949  0.4482  0.2472 -0.1700
   58CHL1   H2A 6746   3.688   4.695   9.943  0.4176  0.3308  0.9616
   58CHL1   H2B 6747   3.861   4.697  10.006 -0.0746 -3.0742  4.4265
   58CHL1   C20 6748   4.104   4.324   9.124 -0.1382 -0.1387  0.2686
   58CHL1   H20 6749   4.212   4.328   9.149 -0.0954 -0.7666  0.2197
   58CHL1   C21 6750   4.056   4.462   9.086  0.4031 -0.5214  0.1504
   58CHL1  H21A 6751   4.112   4.498   8.997  1.5513 -4.6056 -1.0101
   58CHL1  H21B 6752   4.087   4.542   9.156 -0.9760  0.8899 -0.7769
   58CHL1  H21C 6753   3.946   4.462   9.071  0.5067 -0.5134 -0.6929
   58CHL1   C22 6754   4.079   4.221   9.013 -0.0627  0.4869 -0.4819
   58CHL1  H22A 6755   4.109   4.121   9.053  0.3386  0.1768 -1.5229
   58CHL1  H22B 6756   3.969   4.207   9.007 -0.1794  0.5387  1.1025
   58CHL1   C23 6757   4.145   4.253   8.880 -0.1467  0.3662  0.5025
   58CHL1  H23A 6758   4.081   4.333   8.838 -0.3062 -0.3410 -0.6399
   58CHL1  H23B 6759   4.248   4.293   8.890  0.6777 -1.2350 -0.9403
   58CHL1   C24 6760   4.148   4.130   8.789 -0.3817  0.4002  1.0330
   58CHL1  H24A 6761   4.198   4.039   8.830 -0.2359 -0.0613 -0.1536
   58CHL1  H24B 6762   4.041   4.104   8.774 -0.4076  1.9096 -2.0569
   58CHL1   C25 6763   4.216   4.153   8.650 -0.0485 -0.2958  0.2264
   58CHL1   H25 6764   4.313   4.201   8.673 -0.8754  1.0576  1.0383
   58CHL1   C26 6765   4.241   4.025   8.570  0.2270 -0.2068  0.2595
   58CHL1  H26A 6766   4.277   4.036   8.466  0.9596 -1.8740  0.3090
   58CHL1  H26B 6767   4.317   3.974   8.634 -2.1804 -1.9196  1.9130
   58CHL1  H26C 6768   4.155   3.955   8.571  0.4510 -0.4873  0.0129
   58CHL1   C27 6769   4.122   4.248   8.567 -0.8932 -0.0179  0.3386
   58CHL1  H27A 6770   4.020   4.206   8.560 -1.4936  1.6611 -2.6113
   58CHL1  H27B 6771   4.103   4.350   8.606 -2.9903  0.3139 -1.4081
   58CHL1  H27C 6772   4.153   4.245   8.460  1.8262  0.4036  1.0289
   59CHL1    C3 6773   1.766   4.144  10.194  0.2134  0.4061  0.0443
   59CHL1    H3 6774   1.716   4.045  10.197 -0.4855  0.7650  0.4199
   59CHL1    O3 6775   1.778   4.200  10.324 -0.7525  0.3181  0.2668
   59CHL1   H3' 6776   1.871   4.189  10.348 -0.2464  0.9577 -1.2653
   59CHL1    C4 6777   1.904   4.124  10.124  0.3260  0.8984 -0.1752
   59CHL1   H4A 6778   1.959   4.220  10.129 -0.8081  1.7458 -2.4833
   59CHL1   H4B 6779   1.949   4.051  10.194 -4.0192 -1.0302  0.9619
   59CHL1    C5 6780   1.887   4.080   9.989 -0.0429  0.3057 -0.1141
   59CHL1    C6 6781   1.935   3.962   9.948  0.1072 -0.0067 -0.2928
   59CHL1    H6 6782   1.980   3.890  10.018  2.9793  2.4810  0.5929
   59CHL1    C7 6783   1.926   3.914   9.815 -0.5586 -0.2317  0.5059
   59CHL1   H7A 6784   2.027   3.885   9.781 -0.9098  1.1896 -2.0117
   59CHL1   H7B 6785   1.851   3.833   9.804 -0.1851 -0.4074 -0.9093
   59CHL1    C8 6786   1.893   4.019   9.703 -0.0175 -0.1823 -0.2765
   59CHL1    H8 6787   1.988   4.073   9.680  0.7231 -2.0405 -1.8201
   59CHL1   C14 6788   1.849   3.947   9.584  0.7911  0.7885 -0.1703
   59CHL1   H14 6789   1.744   3.915   9.601  0.4837  1.4876 -0.7281
   59CHL1   C15 6790   1.939   3.837   9.532  0.0815 -0.6464 -0.2896
   59CHL1  H15A 6791   2.043   3.871   9.516 -1.1737  2.3966 -3.4710
   59CHL1  H15B 6792   1.937   3.745   9.593 -1.7642  0.1967  1.0303
   59CHL1   C16 6793   1.887   3.807   9.389 -0.1899 -0.5639 -0.5296
   59CHL1  H16A 6794   1.973   3.800   9.319  4.4038  3.1471  3.9255
   59CHL1  H16B 6795   1.821   3.718   9.394 -1.2636  0.2265 -0.2254
   59CHL1   C17 6796   1.795   3.928   9.357 -0.5632 -0.2278  0.6197
   59CHL1   H17 6797   1.694   3.893   9.386 -1.2032 -0.1567 -1.4167
   59CHL1   C13 6798   1.823   4.036   9.462  0.2006 -0.7554  0.6958
   59CHL1   C18 6799   1.945   4.112   9.419 -0.0315  0.7451  0.2135
   59CHL1  H18A 6800   2.031   4.047   9.392  0.3237  0.6157  1.5596
   59CHL1  H18B 6801   1.909   4.183   9.342 -2.3633  0.9213  1.3848
   59CHL1  H18C 6802   1.980   4.182   9.498 -2.1700  1.7189  0.3542
   59CHL1   C12 6803   1.709   4.132   9.500 -0.2745  0.5961  0.2022
   59CHL1  H12A 6804   1.711   4.207   9.418  0.3835  1.5890  1.1049
   59CHL1  H12B 6805   1.609   4.085   9.495 -0.3609  0.5511  1.9096
   59CHL1   C11 6806   1.737   4.197   9.634  0.5337 -0.0083  0.0300
   59CHL1  H11A 6807   1.825   4.264   9.628  1.7328 -1.2912  1.9482
   59CHL1  H11B 6808   1.647   4.252   9.668  0.1124 -0.5242 -0.2285
   59CHL1    C9 6809   1.780   4.104   9.758 -0.1203  0.9002  0.1203
   59CHL1    H9 6810   1.692   4.038   9.773  0.4244 -0.3106 -1.6451
   59CHL1   C10 6811   1.806   4.173   9.897 -0.7811 -0.4236  0.6072
   59CHL1   C19 6812   1.879   4.313   9.874  0.5599 -0.3947  0.2974
   59CHL1  H19A 6813   1.913   4.355   9.971 -1.1801  1.2481  0.2600
   59CHL1  H19B 6814   1.970   4.282   9.817  1.2769 -2.0574  2.2187
   59CHL1  H19C 6815   1.820   4.386   9.815 -0.5002 -0.5427  1.1526
   59CHL1    C1 6816   1.671   4.204   9.964  0.1018  0.3841 -0.6962
   59CHL1   H1A 6817   1.613   4.284   9.912 -2.2624 -0.8904 -0.1709
   59CHL1   H1B 6818   1.603   4.117   9.969  0.0826  0.3387 -1.6296
   59CHL1    C2 6819   1.686   4.248  10.113  0.1938 -0.4686  0.0353
   59CHL1   H2A 6820   1.588   4.256  10.164 -0.3429 -2.5503 -0.5695
   59CHL1   H2B 6821   1.739   4.346  10.114  0.8880 -0.7919  3.2294
   59CHL1   C20 6822   1.790   3.970   9.213  1.0943 -0.1522  0.3996
   59CHL1   H20 6823   1.874   4.039   9.191  0.3764  0.4967 -0.3688
   59CHL1   C21 6824   1.652   4.043   9.189 -0.9369 -0.0587 -0.6588
   59CHL1  H21A 6825   1.631   4.131   9.254  0.6194 -0.1888  0.0629
   59CHL1  H21B 6826   1.560   3.983   9.205 -1.3450  0.7444  0.0802
   59CHL1  H21C 6827   1.649   4.071   9.082 -1.6768  0.7684 -0.4392
   59CHL1   C22 6828   1.806   3.852   9.116 -0.0722 -0.5051 -0.0852
   59CHL1  H22A 6829   1.776   3.756   9.164  0.8827  0.2390  2.1322
   59CHL1  H22B 6830   1.729   3.857   9.036  1.0164  0.2579 -1.1281
   59CHL1   C23 6831   1.941   3.846   9.052 -0.6561 -0.2301 -0.2291
   59CHL1  H23A 6832   1.946   3.927   8.976  1.1277  0.5495  0.6431
   59CHL1  H23B 6833   2.026   3.879   9.116 -0.0253  0.0530 -1.1860
   59CHL1   C24 6834   1.973   3.717   8.978 -0.0029  0.2519 -0.4749
   59CHL1  H24A 6835   1.946   3.628   9.040  0.5209  1.1948  1.1782
   59CHL1  H24B 6836   1.909   3.709   8.888  0.1859 -0.9832 -0.5172
   59CHL1   C25 6837   2.122   3.707   8.941  0.2619 -0.3801  0.4326
   59CHL1   H25 6838   2.155   3.813   8.946 -1.9325  0.4449 -0.9735
   59CHL1   C26 6839   2.213   3.641   9.051  0.2498 -0.0661  0.2568
   59CHL1  H26A 6840   2.190   3.533   9.049 -1.2766  0.2313  0.2908
   59CHL1  H26B 6841   2.318   3.656   9.019  0.4058 -0.8757  0.3724
   59CHL1  H26C 6842   2.192   3.688   9.150  1.0992  0.9842 -0.0386
   59CHL1   C27 6843   2.134   3.645   8.800 -0.7155 -0.2456  0.5483
   59CHL1  H27A 6844   2.062   3.681   8.724  0.1403 -0.3303 -0.3218
   59CHL1  H27B 6845   2.233   3.657   8.751 -1.4168  0.0004 -0.8609
   59CHL1  H27C 6846   2.124   3.535   8.812  1.1372 -0.5195 -0.0809
   60CHL1    C3 6847   2.146   6.735  10.320 -0.4611 -0.8420  0.0335
   60CHL1    H3 6848   2.206   6.826  10.295 -1.8432  0.9183  2.7026
   60CHL1    O3 6849   2.140   6.726  10.462 -0.0063  0.1218  0.2607
   60CHL1   H3' 6850   2.073   6.786  10.493 -0.4767  1.9475 -3.6710
   60CHL1    C4 6851   2.000   6.744  10.271 -0.3540 -0.2423 -0.1563
   60CHL1   H4A 6852   1.946   6.656  10.311 -0.8959  1.1133  2.2977
   60CHL1   H4B 6853   1.963   6.836  10.321 -1.5136 -1.0416  0.5099
   60CHL1    C5 6854   2.005   6.750  10.119 -0.5241 -0.3312 -0.3097
   60CHL1    C6 6855   1.933   6.842  10.061 -0.4336  0.5872 -0.0839
   60CHL1    H6 6856   1.872   6.906  10.126 -0.7500 -0.0420  0.2522
   60CHL1    C7 6857   1.923   6.851   9.907  0.2051  0.3145 -0.6175
   60CHL1   H7A 6858   1.817   6.863   9.877  0.3706  0.0684 -1.3210
   60CHL1   H7B 6859   1.977   6.945   9.882 -0.9967  0.7934 -1.5498
   60CHL1    C8 6860   1.978   6.728   9.825  0.2168 -0.0387 -0.5779
   60CHL1    H8 6861   1.895   6.654   9.829  0.5109 -0.3792 -0.7237
   60CHL1   C14 6862   2.004   6.759   9.678  0.7692  0.4419 -0.0609
   60CHL1   H14 6863   2.084   6.836   9.685  0.5985  0.5779  0.4590
   60CHL1   C15 6864   1.896   6.831   9.596 -0.6969  0.3665  0.2633
   60CHL1  H15A 6865   1.797   6.782   9.601 -0.4228 -0.5011 -1.7360
   60CHL1  H15B 6866   1.894   6.941   9.612 -1.2503  0.5216 -0.7790
   60CHL1   C16 6867   1.944   6.814   9.448 -0.1386  0.3162 -0.0414
   60CHL1  H16A 6868   1.857   6.790   9.382  0.0236 -1.0995  0.2345
   60CHL1  H16B 6869   1.991   6.905   9.405 -1.1359  1.4110  1.1225
   60CHL1   C17 6870   2.058   6.702   9.448 -0.5082  0.8164 -0.2814
   60CHL1   H17 6871   2.159   6.748   9.449 -0.2476  0.2447  0.7184
   60CHL1   C13 6872   2.041   6.639   9.589 -0.1941  0.2434 -0.0137
   60CHL1   C18 6873   1.934   6.528   9.596  0.1983  0.1005 -0.4110
   60CHL1  H18A 6874   1.919   6.492   9.700  0.4988  1.7889  0.2432
   60CHL1  H18B 6875   1.834   6.563   9.564  1.2498  2.1178 -1.7056
   60CHL1  H18C 6876   1.953   6.442   9.528  0.4582  0.5766 -0.9461
   60CHL1   C12 6877   2.174   6.579   9.655  0.3574  0.4214  0.2854
   60CHL1  H12A 6878   2.220   6.487   9.614  0.2677 -0.3973  1.9356
   60CHL1  H12B 6879   2.247   6.662   9.645  0.7131  0.1769  0.8472
   60CHL1   C11 6880   2.153   6.550   9.804 -0.1222 -0.3421 -0.2405
   60CHL1  H11A 6881   2.085   6.463   9.809 -0.1560 -0.4369 -1.8397
   60CHL1  H11B 6882   2.253   6.523   9.845  1.5623  1.5560 -2.7715
   60CHL1    C9 6883   2.106   6.668   9.892 -0.3302  0.0810  0.3685
   60CHL1    H9 6884   2.189   6.741   9.897 -0.1442  0.0325 -1.2993
   60CHL1   C10 6885   2.088   6.641  10.048 -0.7097 -0.3064 -0.0831
   60CHL1   C19 6886   2.001   6.507  10.062  0.7764  0.3679 -0.4932
   60CHL1  H19A 6887   1.900   6.532  10.023  0.9625  1.0223 -0.5633
   60CHL1  H19B 6888   2.049   6.418  10.016 -0.6803 -1.1263  0.7771
   60CHL1  H19C 6889   1.985   6.478  10.168 -1.6838  0.2934 -0.8309
   60CHL1    C1 6890   2.237   6.622  10.117  0.0641 -0.3090 -0.0393
   60CHL1   H1A 6891   2.290   6.529  10.088  4.0355  1.9574 -0.7258
   60CHL1   H1B 6892   2.297   6.712  10.089  0.6534 -0.6189  0.2164
   60CHL1    C2 6893   2.232   6.615  10.271 -0.4694  0.0911 -0.4455
   60CHL1   H2A 6894   2.333   6.609  10.316 -0.2065 -0.3323 -1.0881
   60CHL1   H2B 6895   2.181   6.523  10.306 -0.8176 -0.3351 -1.9819
   60CHL1   C20 6896   2.051   6.610   9.326  0.3211 -0.0252  0.1358
   60CHL1   H20 6897   1.952   6.560   9.317 -0.4145  1.2019  0.9494
   60CHL1   C21 6898   2.150   6.498   9.337  0.4602  0.4530 -0.1888
   60CHL1  H21A 6899   2.253   6.539   9.344  0.4779  0.5101 -0.7146
   60CHL1  H21B 6900   2.143   6.438   9.243 -3.4140 -0.4265  0.4884
   60CHL1  H21C 6901   2.150   6.421   9.417  2.1599  0.4215 -0.1855
   60CHL1   C22 6902   2.060   6.696   9.189 -0.4449  0.2077 -0.3165
   60CHL1  H22A 6903   1.978   6.772   9.184  0.1083  0.9205  1.1053
   60CHL1  H22B 6904   2.156   6.752   9.195  1.2501 -2.6383  0.7647
   60CHL1   C23 6905   2.065   6.618   9.055 -1.0380  0.4233  0.1832
   60CHL1  H23A 6906   2.090   6.693   8.978  0.5580  0.3916  0.6481
   60CHL1  H23B 6907   2.146   6.542   9.056  1.4019  2.8974  0.1606
   60CHL1   C24 6908   1.929   6.560   9.029  0.5040  0.7786  0.4784
   60CHL1  H24A 6909   1.905   6.501   9.120  4.0802  2.2710  2.6480
   60CHL1  H24B 6910   1.860   6.646   9.015  0.5021  0.5726 -0.8846
   60CHL1   C25 6911   1.912   6.460   8.912 -0.1980  0.0615  0.2980
   60CHL1   H25 6912   1.936   6.506   8.814  0.7508 -1.5875 -0.2832
   60CHL1   C26 6913   1.997   6.334   8.940  0.7990 -0.5956 -0.2942
   60CHL1  H26A 6914   1.961   6.281   9.031 -0.8482  2.0568  0.7084
   60CHL1  H26B 6915   1.990   6.263   8.855  1.5781 -0.1461 -0.7514
   60CHL1  H26C 6916   2.105   6.346   8.966  0.0400  1.3425  2.4906
   60CHL1   C27 6917   1.767   6.426   8.905  0.1252  0.8676 -0.3734
   60CHL1  H27A 6918   1.730   6.374   8.995 -1.2315 -0.5888 -1.6993
   60CHL1  H27B 6919   1.707   6.520   8.907  0.0075  0.8346  2.9203
   60CHL1  H27C 6920   1.743   6.362   8.817  0.3213  1.4757 -0.8865
   61CHL1    C3 6921   0.665   2.270  10.098  0.3923  0.0934 -0.3326
   61CHL1    H3 6922   0.645   2.376  10.072 -0.5957 -0.1345 -0.5453
   61CHL1    O3 6923   0.672   2.280  10.240 -0.2883  0.6987 -0.4996
   61CHL1   H3' 6924   0.723   2.357  10.266  1.8351 -0.7348 -0.1755
   61CHL1    C4 6925   0.560   2.176  10.057  0.2671 -0.1224  0.0886
   61CHL1   H4A 6926   0.587   2.075  10.096  0.8524  0.4205  1.1342
   61CHL1   H4B 6927   0.472   2.219  10.110  1.4688  2.9017 -0.1425
   61CHL1    C5 6928   0.555   2.173   9.907  0.5203 -0.2668 -0.5088
   61CHL1    C6 6929   0.445   2.207   9.840  0.6341 -0.1210 -0.0434
   61CHL1    H6 6930   0.355   2.221   9.903  1.1874 -2.1247  1.3055
   61CHL1    C7 6931   0.425   2.182   9.695  0.1432 -0.0890 -0.3531
   61CHL1   H7A 6932   0.329   2.127   9.684 -1.6714  2.0268  3.0624
   61CHL1   H7B 6933   0.418   2.281   9.645  4.4297  1.0637  0.9142
   61CHL1    C8 6934   0.543   2.109   9.636 -0.1644 -0.0479 -0.2716
   61CHL1    H8 6935   0.535   2.001   9.658 -1.5939  0.1306  0.1885
   61CHL1   C14 6936   0.531   2.124   9.484  0.2021 -0.3495  1.0192
   61CHL1   H14 6937   0.527   2.232   9.460  0.3734 -0.5681 -0.0625
   61CHL1   C15 6938   0.398   2.072   9.419  0.5121  0.4180 -0.3423
   61CHL1  H15A 6939   0.376   1.974   9.465  3.3784 -2.5992 -4.5939
   61CHL1  H15B 6940   0.320   2.152   9.426 -0.2711 -0.4037  0.4794
   61CHL1   C16 6941   0.432   2.043   9.269 -0.2823 -0.0964 -0.5515
   61CHL1  H16A 6942   0.416   1.935   9.248  1.4020 -0.7815  1.3767
   61CHL1  H16B 6943   0.378   2.104   9.193  0.5288 -0.9514 -1.8640
   61CHL1   C17 6944   0.582   2.084   9.258 -0.5188 -0.0906 -0.2364
   61CHL1   H17 6945   0.574   2.194   9.248 -0.2858 -0.1819 -1.6979
   61CHL1   C13 6946   0.642   2.058   9.404 -0.3566 -0.6318  0.2206
   61CHL1   C18 6947   0.647   1.909   9.433 -0.3315 -0.7033 -0.4312
   61CHL1  H18A 6948   0.722   1.851   9.376  1.1488 -0.2528  0.9691
   61CHL1  H18B 6949   0.691   1.891   9.534  1.6689 -0.0523 -1.1563
   61CHL1  H18C 6950   0.544   1.866   9.427 -0.7459  0.0633  0.7220
   61CHL1   C12 6951   0.771   2.134   9.439 -0.3246  0.6107 -0.0090
   61CHL1  H12A 6952   0.871   2.106   9.401  2.5338  4.1430  3.9156
   61CHL1  H12B 6953   0.751   2.239   9.407  2.8770  0.6946 -2.1742
   61CHL1   C11 6954   0.787   2.145   9.590 -0.0573 -0.0305 -0.7680
   61CHL1  H11A 6955   0.812   2.041   9.620 -2.5685  0.0133  2.0189
   61CHL1  H11B 6956   0.876   2.209   9.606 -0.4655  0.2706  0.4622
   61CHL1    C9 6957   0.672   2.175   9.682 -0.6095  0.2054  0.9606
   61CHL1    H9 6958   0.663   2.285   9.669  2.4597  0.4913  0.6065
   61CHL1   C10 6959   0.691   2.144   9.837  0.2059  0.1849 -0.0106
   61CHL1   C19 6960   0.719   1.991   9.858 -0.3977  0.0201  0.0478
   61CHL1  H19A 6961   0.819   1.979   9.811  0.0237  2.9763  0.0221
   61CHL1  H19B 6962   0.740   1.961   9.963  0.3170  1.1466  0.2489
   61CHL1  H19C 6963   0.641   1.922   9.819 -2.0390  0.2405  2.7044
   61CHL1    C1 6964   0.806   2.236   9.885  0.1820 -0.4309  0.2747
   61CHL1   H1A 6965   0.905   2.210   9.841 -0.4497 -0.7952 -0.9829
   61CHL1   H1B 6966   0.785   2.342   9.859 -0.2552 -0.5946 -0.0545
   61CHL1    C2 6967   0.804   2.242  10.043 -0.2233 -0.4301  0.8533
   61CHL1   H2A 6968   0.875   2.324  10.068  0.1119 -0.1616 -0.8638
   61CHL1   H2B 6969   0.847   2.152  10.092  0.8587 -0.5331 -0.2156
   61CHL1   C20 6970   0.650   2.011   9.136 -0.3804 -0.6039 -0.5709
   61CHL1   H20 6971   0.674   1.905   9.154  1.8354 -0.5345 -2.5764
   61CHL1   C21 6972   0.783   2.085   9.105  0.2759  0.4445 -0.2403
   61CHL1  H21A 6973   0.766   2.194   9.105  1.5611  0.6655  0.3532
   61CHL1  H21B 6974   0.831   2.054   9.009  2.1579 -2.8955  1.5817
   61CHL1  H21C 6975   0.858   2.066   9.185  0.9768  0.6350 -0.8335
   61CHL1   C22 6976   0.570   2.016   9.001 -0.3081  0.4221 -0.1492
   61CHL1  H22A 6977   0.626   1.946   8.936 -0.2386 -1.2196  1.5973
   61CHL1  H22B 6978   0.476   1.962   9.026  1.2168 -1.7904  1.1546
   61CHL1   C23 6979   0.537   2.150   8.937  0.2677 -0.6469  0.5666
   61CHL1  H23A 6980   0.456   2.185   9.004 -0.9762  0.2790 -1.3098
   61CHL1  H23B 6981   0.627   2.215   8.946  1.5373 -2.5246  2.0356
   61CHL1   C24 6982   0.482   2.158   8.788 -0.2722  0.5896  0.0087
   61CHL1  H24A 6983   0.481   2.265   8.755 -0.6383  1.0802  1.5177
   61CHL1  H24B 6984   0.554   2.102   8.724 -0.6035 -0.1967  0.3131
   61CHL1   C25 6985   0.341   2.104   8.773  1.0405  0.4302  0.4528
   61CHL1   H25 6986   0.348   1.993   8.783  0.2794  0.1178 -1.8376
   61CHL1   C26 6987   0.234   2.151   8.870 -0.2960  0.0994 -0.3205
   61CHL1  H26A 6988   0.255   2.130   8.977 -0.6083 -1.1115 -0.4789
   61CHL1  H26B 6989   0.231   2.261   8.856  1.8949  0.2064 -0.2249
   61CHL1  H26C 6990   0.132   2.107   8.858 -0.5166  0.8541 -1.3743
   61CHL1   C27 6991   0.293   2.132   8.632 -0.5714  0.0631  0.1412
   61CHL1  H27A 6992   0.254   2.236   8.630 -0.0869  0.2400 -0.7468
   61CHL1  H27B 6993   0.377   2.122   8.561 -0.5482  0.0900  0.1641
   61CHL1  H27C 6994   0.212   2.065   8.594 -1.6535  2.9852 -3.3263
   62CHL1    C3 6995   4.257   3.364  10.085 -0.1170 -0.0331 -0.5250
   62CHL1    H3 6996   4.183   3.422  10.027 -0.7864  0.0474  0.3821
   62CHL1    O3 6997   4.219   3.369  10.217  0.0061  0.0081 -0.4642
   62CHL1   H3' 6998   4.301   3.355  10.264 -1.3197 -1.4161  1.5798
   62CHL1    C4 6999   4.251   3.213  10.041  0.8881  0.3295 -0.1640
   62CHL1   H4A 7000   4.324   3.153  10.099 -0.8595 -1.2244  0.5327
   62CHL1   H4B 7001   4.151   3.178  10.074  0.8433 -0.6744 -1.2872
   62CHL1    C5 7002   4.256   3.203   9.890  0.7534 -0.6526 -0.1410
   62CHL1    C6 7003   4.158   3.162   9.814 -0.1412 -0.9760  0.2059
   62CHL1    H6 7004   4.065   3.130   9.862 -0.0006 -0.7261  0.6506
   62CHL1    C7 7005   4.162   3.150   9.666  0.5454  0.0025  0.0472
   62CHL1   H7A 7006   4.125   3.046   9.651  1.7680 -0.2515 -1.3628
   62CHL1   H7B 7007   4.105   3.237   9.628  2.2090  0.5833 -1.1812
   62CHL1    C8 7008   4.309   3.157   9.612 -0.1774  0.1082 -0.2538
   62CHL1    H8 7009   4.365   3.064   9.637 -1.1653 -0.0330  1.6158
   62CHL1   C14 7010   4.300   3.188   9.465 -0.0433  0.4794  0.2022
   62CHL1   H14 7011   4.247   3.283   9.445  1.0053  0.6518 -2.0849
   62CHL1   C15 7012   4.222   3.083   9.383 -0.4775  0.2477 -0.4915
   62CHL1  H15A 7013   4.259   2.981   9.408 -0.5793 -0.1058 -1.7207
   62CHL1  H15B 7014   4.113   3.068   9.397 -0.0501 -0.7876  2.5178
   62CHL1   C16 7015   4.252   3.115   9.233 -0.3670  0.2474 -0.3239
   62CHL1  H16A 7016   4.257   3.025   9.168 -2.3976  0.3370 -0.6396
   62CHL1  H16B 7017   4.179   3.188   9.193 -0.4494  0.9687  1.0881
   62CHL1   C17 7018   4.391   3.187   9.249 -0.1655 -0.6223  0.4297
   62CHL1   H17 7019   4.366   3.293   9.228  0.3630 -0.4271  0.7658
   62CHL1   C13 7020   4.434   3.188   9.402 -0.2737 -0.1688  1.1470
   62CHL1   C18 7021   4.516   3.058   9.425  0.3188  0.8438  0.4062
   62CHL1  H18A 7022   4.469   2.970   9.376 -0.1539  0.8533  0.8322
   62CHL1  H18B 7023   4.616   3.077   9.380  0.3816 -0.5527 -0.0728
   62CHL1  H18C 7024   4.537   3.032   9.531 -1.4712 -3.2490 -0.0621
   62CHL1   C12 7025   4.513   3.300   9.457 -0.6885  0.4129 -0.1828
   62CHL1  H12A 7026   4.616   3.300   9.416 -0.8140  1.7328 -0.5348
   62CHL1  H12B 7027   4.469   3.399   9.434 -2.2466 -0.4470 -1.1424
   62CHL1   C11 7028   4.526   3.297   9.611  0.0098 -1.2884 -0.4994
   62CHL1  H11A 7029   4.604   3.219   9.625  0.7603 -0.6036 -0.7576
   62CHL1  H11B 7030   4.572   3.394   9.639 -0.0865 -1.4041  0.0751
   62CHL1    C9 7031   4.388   3.276   9.682 -0.3376  0.0087  0.1372
   62CHL1    H9 7032   4.326   3.366   9.664  1.0095  0.3749 -3.6094
   62CHL1   C10 7033   4.386   3.257   9.836 -0.6844 -0.4386  0.3523
   62CHL1   C19 7034   4.498   3.153   9.863 -0.0227 -0.2687 -0.3865
   62CHL1  H19A 7035   4.478   3.059   9.808  0.1559 -2.2299  2.6715
   62CHL1  H19B 7036   4.594   3.199   9.834 -0.8252  1.3256 -0.6431
   62CHL1  H19C 7037   4.503   3.123   9.970  1.1529 -1.6313 -0.8113
   62CHL1    C1 7038   4.421   3.391   9.908 -0.2465 -0.3107 -0.3638
   62CHL1   H1A 7039   4.529   3.412   9.899  0.0580  0.6438  3.6117
   62CHL1   H1B 7040   4.371   3.467   9.844  0.1462 -0.9189 -1.4135
   62CHL1    C2 7041   4.395   3.408  10.063  0.7399 -0.0217  0.5562
   62CHL1   H2A 7042   4.409   3.515  10.090 -0.3917  1.2074 -3.1300
   62CHL1   H2B 7043   4.464   3.346  10.125  0.2798 -0.4305  0.6647
   62CHL1   C20 7044   4.500   3.149   9.147 -0.3514 -0.9292  0.8312
   62CHL1   H20 7045   4.543   3.049   9.169  0.3027 -0.5542  1.2945
   62CHL1   C21 7046   4.622   3.254   9.140  0.4503  0.1752  0.5938
   62CHL1  H21A 7047   4.587   3.360   9.141 -0.6177 -0.1540 -0.1201
   62CHL1  H21B 7048   4.673   3.259   9.041  0.8522  1.3217  0.8427
   62CHL1  H21C 7049   4.703   3.236   9.214  1.6637  2.2525 -0.1264
   62CHL1   C22 7050   4.444   3.146   8.997 -0.1044 -0.1807 -0.0196
   62CHL1  H22A 7051   4.528   3.119   8.929 -1.4288 -2.5447 -0.8431
   62CHL1  H22B 7052   4.367   3.066   8.987  0.2478 -0.4823 -0.3941
   62CHL1   C23 7053   4.375   3.279   8.948  0.6995 -0.4477 -0.1633
   62CHL1  H23A 7054   4.285   3.298   9.011  0.7550  2.4212 -0.8419
   62CHL1  H23B 7055   4.436   3.369   8.969 -3.5845  2.8132 -0.4138
   62CHL1   C24 7056   4.341   3.277   8.793 -1.0797 -0.4829  0.6146
   62CHL1  H24A 7057   4.276   3.367   8.778 -0.5422 -0.5054 -2.4201
   62CHL1  H24B 7058   4.426   3.296   8.724 -2.2868  1.3818 -0.4725
   62CHL1   C25 7059   4.259   3.160   8.742 -0.0740 -0.3152  0.4185
   62CHL1   H25 7060   4.311   3.064   8.760  0.1017 -0.7852 -2.2221
   62CHL1   C26 7061   4.121   3.148   8.812  0.6212 -0.7535 -0.7206
   62CHL1  H26A 7062   4.078   3.248   8.792  1.4891 -0.3138 -0.4302
   62CHL1  H26B 7063   4.053   3.077   8.760  1.7871 -1.2221 -1.6586
   62CHL1  H26C 7064   4.132   3.133   8.921 -0.3437  0.7056 -0.3943
   62CHL1   C27 7065   4.238   3.181   8.593  0.2258  0.2583  0.4327
   62CHL1  H27A 7066   4.164   3.108   8.554 -1.0677  0.4675  2.3748
   62CHL1  H27B 7067   4.194   3.280   8.570 -3.0025 -1.1229  0.1316
   62CHL1  H27C 7068   4.339   3.176   8.547 -1.2992  1.6596 -3.4592
   63CHL1    C3 7069   6.817   6.225  10.308 -0.4103 -0.2163 -0.1833
   63CHL1    H3 7070   6.928   6.239  10.305 -0.0369 -2.6567 -2.5613
   63CHL1    O3 7071   6.762   6.225  10.438 -0.1204 -0.3356 -0.2837
   63CHL1   H3' 7072   6.830   6.263  10.495 -0.2768 -1.5457  0.7730
   63CHL1    C4 7073   6.753   6.351  10.242 -0.1695 -0.0736  0.9792
   63CHL1   H4A 7074   6.645   6.339  10.262  0.2171 -2.2019  2.1879
   63CHL1   H4B 7075   6.806   6.439  10.284  1.8719 -1.6564  1.9443
   63CHL1    C5 7076   6.776   6.356  10.087  0.4300 -0.5660 -0.5347
   63CHL1    C6 7077   6.837   6.463  10.031 -0.2139  0.9767  0.4990
   63CHL1    H6 7078   6.863   6.555  10.086  0.2052  2.2240 -1.7044
   63CHL1    C7 7079   6.868   6.471   9.887  0.0701  0.4942  0.4238
   63CHL1   H7A 7080   6.829   6.567   9.847 -0.7146 -0.1197 -0.3058
   63CHL1   H7B 7081   6.976   6.471   9.860  0.0408 -2.0711  0.0806
   63CHL1    C8 7082   6.807   6.364   9.796 -0.9637 -0.0900 -0.1256
   63CHL1    H8 7083   6.701   6.393   9.779 -0.4673  1.6941 -0.3639
   63CHL1   C14 7084   6.878   6.353   9.663  0.2486  0.5104 -0.2710
   63CHL1   H14 7085   6.984   6.326   9.685 -0.6914 -2.8954  0.6406
   63CHL1   C15 7086   6.878   6.482   9.576 -0.2982 -0.1935  0.4611
   63CHL1  H15A 7087   6.772   6.517   9.579 -1.2204 -2.8075  2.2412
   63CHL1  H15B 7088   6.954   6.557   9.606 -2.0749  0.9463  2.3901
   63CHL1   C16 7089   6.904   6.433   9.429  0.1082  0.0727 -0.1986
   63CHL1  H16A 7090   6.821   6.471   9.366 -3.3591 -1.0638  3.3173
   63CHL1  H16B 7091   6.993   6.483   9.385 -0.2214  0.0149 -0.9482
   63CHL1   C17 7092   6.912   6.272   9.442 -0.1598  0.2051  0.8839
   63CHL1   H17 7093   7.012   6.232   9.472 -0.4436 -0.2340  1.2535
   63CHL1   C13 7094   6.825   6.237   9.569  0.2071 -0.4087  0.3614
   63CHL1   C18 7095   6.675   6.261   9.519  0.4444 -0.7805 -0.0798
   63CHL1  H18A 7096   6.652   6.197   9.431 -2.6185  1.1770 -0.8595
   63CHL1  H18B 7097   6.596   6.235   9.592 -0.5291  0.7003 -0.5523
   63CHL1  H18C 7098   6.665   6.363   9.474  0.3155 -1.3045 -1.2880
   63CHL1   C12 7099   6.850   6.113   9.639  0.3363  1.0110 -0.3815
   63CHL1  H12A 7100   6.830   6.028   9.571 -1.1803  1.5957 -0.7102
   63CHL1  H12B 7101   6.959   6.099   9.653 -0.0486 -3.1406 -0.4586
   63CHL1   C11 7102   6.775   6.111   9.775 -0.6001  0.1832 -0.2463
   63CHL1  H11A 7103   6.666   6.121   9.759 -0.4996  0.8268 -0.5532
   63CHL1  H11B 7104   6.801   6.017   9.828  0.3915  1.4439  1.6252
   63CHL1    C9 7105   6.817   6.229   9.864  0.7089  0.1501  0.7925
   63CHL1    H9 7106   6.922   6.200   9.888  1.3967  1.7939 -0.0828
   63CHL1   C10 7107   6.752   6.228  10.007  0.3969  0.0503 -0.4964
   63CHL1   C19 7108   6.600   6.217   9.991  0.0191  0.5888  0.1173
   63CHL1  H19A 7109   6.573   6.122   9.939  1.9952  1.5833 -3.0637
   63CHL1  H19B 7110   6.535   6.212  10.081 -0.1553 -1.6417 -0.0604
   63CHL1  H19C 7111   6.577   6.305   9.927  1.2502  0.2437 -0.8448
   63CHL1    C1 7112   6.802   6.108  10.086  0.0179  0.0399 -0.1264
   63CHL1   H1A 7113   6.768   6.017  10.033 -0.9981  1.0536 -1.2914
   63CHL1   H1B 7114   6.913   6.096  10.084  0.0133 -0.5924  1.5075
   63CHL1    C2 7115   6.766   6.108  10.235  0.0362 -0.3091  0.3555
   63CHL1   H2A 7116   6.804   6.017  10.286 -1.4139 -0.6919  0.8009
   63CHL1   H2B 7117   6.655   6.110  10.240 -0.0326 -1.4144 -0.2955
   63CHL1   C20 7118   6.882   6.205   9.304 -0.0659 -0.1167 -0.4281
   63CHL1   H20 7119   6.794   6.256   9.260 -0.7173 -0.5499  0.3499
   63CHL1   C21 7120   6.863   6.059   9.316 -0.0491 -0.3989  0.4311
   63CHL1  H21A 7121   6.761   6.036   9.354 -0.2464  0.1237  0.2303
   63CHL1  H21B 7122   6.947   6.009   9.367  0.7255  0.5037  0.0600
   63CHL1  H21C 7123   6.862   6.005   9.219 -1.0045 -0.0008  0.2080
   63CHL1   C22 7124   7.000   6.220   9.210 -0.0247  0.2605  0.4756
   63CHL1  H22A 7125   7.041   6.323   9.207  1.0322 -0.1304 -2.4869
   63CHL1  H22B 7126   7.082   6.148   9.230  0.7849  0.5316 -1.6317
   63CHL1   C23 7127   6.956   6.198   9.065 -0.5080 -0.1148  0.0855
   63CHL1  H23A 7128   6.890   6.108   9.065 -1.8982  0.8603  0.4975
   63CHL1  H23B 7129   6.886   6.281   9.044  1.3297  1.9932  1.9004
   63CHL1   C24 7130   7.066   6.200   8.959 -0.3070  0.5195  0.2337
   63CHL1  H24A 7131   7.137   6.283   8.978 -1.1895  1.1785  0.6977
   63CHL1  H24B 7132   7.130   6.109   8.954  0.6673  1.2503 -1.9935
   63CHL1   C25 7133   7.015   6.225   8.816  0.1656 -0.1652 -0.7126
   63CHL1   H25 7134   6.964   6.323   8.819 -1.3064 -0.8832 -1.1595
   63CHL1   C26 7135   7.125   6.247   8.717 -0.1920  1.1344  0.5830
   63CHL1  H26A 7136   7.186   6.154   8.715 -1.2491  0.2986  3.1386
   63CHL1  H26B 7137   7.083   6.266   8.616  1.8027 -0.4121 -0.6133
   63CHL1  H26C 7138   7.185   6.338   8.741 -0.1724  1.2144  0.2368
   63CHL1   C27 7139   6.921   6.117   8.763  0.1304 -0.8086 -0.1268
   63CHL1  H27A 7140   6.835   6.096   8.830 -1.7170  2.8277 -1.0787
   63CHL1  H27B 7141   6.899   6.140   8.656  0.3637 -0.0664 -0.0250
   63CHL1  H27C 7142   6.984   6.029   8.740  1.6682 -0.0009  0.8306
   64CHL1    C3 7143   6.323   5.502  10.181  0.7949 -0.0529 -0.4396
   64CHL1    H3 7144   6.279   5.407  10.143 -0.0342 -0.9479  2.4526
   64CHL1    O3 7145   6.329   5.500  10.322  0.4570 -0.1929 -0.0404
   64CHL1   H3' 7146   6.271   5.434  10.362  0.2417  1.5915  2.8838
   64CHL1    C4 7147   6.463   5.520  10.132  0.3966  0.4701  0.9474
   64CHL1   H4A 7148   6.520   5.595  10.190  1.4139  1.8864 -1.6958
   64CHL1   H4B 7149   6.505   5.420  10.156 -0.3104 -0.2937 -0.8278
   64CHL1    C5 7150   6.477   5.549   9.985 -0.2864 -0.2699 -0.1398
   64CHL1    C6 7151   6.553   5.480   9.898 -0.1120  0.1240 -0.0037
   64CHL1    H6 7152   6.604   5.388   9.931  1.7142  1.3015  0.6469
   64CHL1    C7 7153   6.572   5.526   9.754 -0.5835 -0.1844  0.3147
   64CHL1   H7A 7154   6.677   5.527   9.716 -0.7550 -0.0353 -0.1578
   64CHL1   H7B 7155   6.521   5.450   9.692 -0.7376 -0.2243  0.4921
   64CHL1    C8 7156   6.515   5.665   9.717  0.1401 -0.3217 -0.3960
   64CHL1    H8 7157   6.578   5.751   9.745 -2.8834  1.6585  0.8542
   64CHL1   C14 7158   6.498   5.673   9.563  0.6840  0.5928 -0.6306
   64CHL1   H14 7159   6.425   5.591   9.550  0.4081  0.5645  0.9279
   64CHL1   C15 7160   6.618   5.650   9.469  0.4596  0.0186 -0.0534
   64CHL1  H15A 7161   6.700   5.714   9.510  2.3879 -0.3849 -2.9678
   64CHL1  H15B 7162   6.679   5.557   9.465  2.0119  0.9449  0.7427
   64CHL1   C16 7163   6.574   5.705   9.342  0.9857 -0.1265  0.4044
   64CHL1  H16A 7164   6.633   5.782   9.288  0.0757 -2.2621 -4.0908
   64CHL1  H16B 7165   6.541   5.628   9.269 -1.6303  2.0165 -0.8480
   64CHL1   C17 7166   6.439   5.773   9.374  0.0232 -0.7974  0.0865
   64CHL1   H17 7167   6.364   5.694   9.353  0.8074 -1.0190 -2.2341
   64CHL1   C13 7168   6.437   5.805   9.522  0.0216  0.4887  0.0777
   64CHL1   C18 7169   6.522   5.926   9.547 -0.6678 -0.4558 -0.6120
   64CHL1  H18A 7170   6.610   5.916   9.480 -0.4819 -1.4235 -0.2284
   64CHL1  H18B 7171   6.464   6.016   9.516  0.2210  0.0344 -0.8985
   64CHL1  H18C 7172   6.555   5.938   9.652  0.7537 -0.9908 -0.9744
   64CHL1   C12 7173   6.295   5.809   9.580  0.0440 -0.2773  0.1013
   64CHL1  H12A 7174   6.238   5.899   9.547 -0.7933 -1.0744 -0.6927
   64CHL1  H12B 7175   6.234   5.721   9.549  0.4572 -0.7350  0.5689
   64CHL1   C11 7176   6.307   5.809   9.732 -0.4642  0.0669 -0.1581
   64CHL1  H11A 7177   6.350   5.907   9.760 -0.0881 -0.0567 -0.2961
   64CHL1  H11B 7178   6.202   5.801   9.767 -0.6522 -1.2372 -0.9400
   64CHL1    C9 7179   6.384   5.682   9.788  0.2031 -0.0859 -0.0899
   64CHL1    H9 7180   6.325   5.596   9.750 -1.3031  1.7182 -1.9669
   64CHL1   C10 7181   6.394   5.671   9.937 -0.6237  0.3634  0.2967
   64CHL1   C19 7182   6.466   5.796   9.997  0.0290 -0.5089  0.2068
   64CHL1  H19A 7183   6.443   5.804  10.105 -3.2028  5.0036 -0.4985
   64CHL1  H19B 7184   6.572   5.785   9.964  0.1128  1.9083 -0.5378
   64CHL1  H19C 7185   6.430   5.890   9.950 -2.5198 -2.0117 -1.0537
   64CHL1    C1 7186   6.248   5.657   9.989 -0.4462  0.3262 -0.1051
   64CHL1   H1A 7187   6.186   5.747   9.970 -0.2290  0.9645  1.9710
   64CHL1   H1B 7188   6.198   5.570   9.941 -0.5617  0.2153  0.2088
   64CHL1    C2 7189   6.233   5.621  10.140  0.6977 -0.8130  0.3593
   64CHL1   H2A 7190   6.124   5.608  10.152  0.9071 -1.0957  2.1124
   64CHL1   H2B 7191   6.262   5.706  10.205 -0.8625 -2.3851  3.2753
   64CHL1   C20 7192   6.388   5.881   9.273 -0.0207  0.5133 -0.9400
   64CHL1   H20 7193   6.311   5.940   9.326  1.4396  0.9497  0.8007
   64CHL1   C21 7194   6.317   5.808   9.156 -1.0995 -0.1078 -0.1530
   64CHL1  H21A 7195   6.258   5.887   9.105 -2.1297 -0.4747  0.4456
   64CHL1  H21B 7196   6.246   5.728   9.187 -0.3434 -0.2421  1.2963
   64CHL1  H21C 7197   6.387   5.763   9.082 -0.3040 -1.8042  1.5353
   64CHL1   C22 7198   6.495   5.990   9.222  0.1520 -0.3109  0.1772
   64CHL1  H22A 7199   6.554   6.033   9.306 -0.1716  0.4943 -0.0032
   64CHL1  H22B 7200   6.566   5.930   9.162 -0.1923 -2.5880  1.8881
   64CHL1   C23 7201   6.437   6.105   9.138  0.7209  0.6017 -0.0676
   64CHL1  H23A 7202   6.387   6.054   9.053 -1.6034 -1.3288  2.2604
   64CHL1  H23B 7203   6.358   6.148   9.203  1.6220  0.3160  1.2628
   64CHL1   C24 7204   6.542   6.206   9.099  0.5707 -0.2172  0.1173
   64CHL1  H24A 7205   6.540   6.279   9.182 -3.2004  0.6864 -0.5750
   64CHL1  H24B 7206   6.643   6.159   9.088  0.5674 -0.0489 -0.7278
   64CHL1   C25 7207   6.499   6.284   8.972 -0.3214  0.3102  0.1915
   64CHL1   H25 7208   6.389   6.293   8.982 -0.1582  1.3840  1.3071
   64CHL1   C26 7209   6.557   6.428   8.984 -0.0420  1.3502  0.1886
   64CHL1  H26A 7210   6.531   6.471   8.885  0.9469 -0.6267 -0.9896
   64CHL1  H26B 7211   6.511   6.484   9.069 -2.1916 -0.1429  0.0945
   64CHL1  H26C 7212   6.668   6.430   8.994 -0.1154  2.0124  1.0619
   64CHL1   C27 7213   6.539   6.219   8.842  0.2272  0.0386 -0.2262
   64CHL1  H27A 7214   6.650   6.215   8.835  0.2244  1.2109 -1.2844
   64CHL1  H27B 7215   6.481   6.125   8.836  2.2765 -1.2756 -0.5349
   64CHL1  H27C 7216   6.496   6.289   8.767  0.4829 -0.6023 -0.9774
   65CHL1    C3 7217   3.321   4.800  10.147  0.3957 -0.7024  0.0688
   65CHL1    H3 7218   3.387   4.879  10.105 -2.8635  1.4833 -1.3624
   65CHL1    O3 7219   3.334   4.825  10.289 -0.6331  0.2408  0.4358
   65CHL1   H3' 7220   3.416   4.875  10.296 -0.8793  0.8482 -0.6717
   65CHL1    C4 7221   3.165   4.811  10.110 -0.2008  0.0069  0.9838
   65CHL1   H4A 7222   3.109   4.735  10.168 -0.8596 -0.3165 -0.0596
   65CHL1   H4B 7223   3.124   4.908  10.148 -1.4351  0.7993 -2.0955
   65CHL1    C5 7224   3.143   4.800   9.962 -0.2749  0.5372  0.0679
   65CHL1    C6 7225   3.094   4.898   9.885  0.0752  0.4038 -0.4406
   65CHL1    H6 7226   3.085   4.999   9.928 -0.0299 -0.5751  2.0062
   65CHL1    C7 7227   3.075   4.879   9.736  0.0217  0.5075  0.1180
   65CHL1   H7A 7228   2.976   4.927   9.717 -0.6394 -0.7873  0.1788
   65CHL1   H7B 7229   3.142   4.947   9.680  2.0947  0.0376  1.9088
   65CHL1    C8 7230   3.080   4.735   9.690  0.1977  0.2798  0.1262
   65CHL1    H8 7231   2.986   4.683   9.720  1.0710 -0.3723  1.8991
   65CHL1   C14 7232   3.102   4.732   9.538  0.2936 -0.3973 -0.1803
   65CHL1   H14 7233   3.203   4.779   9.532 -0.2462  1.7379  3.9684
   65CHL1   C15 7234   3.000   4.807   9.444  0.3038  0.4873 -0.7782
   65CHL1  H15A 7235   2.895   4.793   9.477  0.7685 -4.2120 -0.6502
   65CHL1  H15B 7236   3.023   4.916   9.438 -1.6598  0.9264 -0.9178
   65CHL1   C16 7237   3.018   4.754   9.306 -0.7494  0.2043  0.2961
   65CHL1  H16A 7238   2.924   4.714   9.263 -0.6193  1.1664 -0.9471
   65CHL1  H16B 7239   3.053   4.835   9.238 -2.5585  0.4097 -0.4395
   65CHL1   C17 7240   3.113   4.628   9.322 -0.2033 -0.5841 -0.2942
   65CHL1   H17 7241   3.216   4.667   9.310 -0.7746  1.7665  1.6866
   65CHL1   C13 7242   3.113   4.592   9.477 -0.8124 -1.6798  0.4325
   65CHL1   C18 7243   2.986   4.513   9.497  0.3940  0.1624 -0.3655
   65CHL1  H18A 7244   2.900   4.538   9.431 -0.6228 -0.6870  0.6029
   65CHL1  H18B 7245   3.006   4.407   9.471  2.2369  0.3008  0.3085
   65CHL1  H18C 7246   2.952   4.506   9.602  1.2752 -1.1951 -0.1330
   65CHL1   C12 7247   3.234   4.522   9.535  0.5356  0.6748  0.6184
   65CHL1  H12A 7248   3.219   4.413   9.521  0.8353  0.6566  0.4357
   65CHL1  H12B 7249   3.336   4.556   9.506  0.1913 -0.1485 -1.7678
   65CHL1   C11 7250   3.221   4.529   9.692  0.2672  0.1184 -0.2283
   65CHL1  H11A 7251   3.136   4.460   9.713  0.4051 -0.4449 -1.3878
   65CHL1  H11B 7252   3.308   4.468   9.726 -0.8850 -1.6709 -0.3086
   65CHL1    C9 7253   3.200   4.664   9.753 -0.4913 -0.1949  0.4422
   65CHL1    H9 7254   3.288   4.726   9.726  2.2654 -2.7440  2.9347
   65CHL1   C10 7255   3.190   4.665   9.908 -0.2153 -0.0518 -0.5115
   65CHL1   C19 7256   3.106   4.548   9.963  0.1953 -0.2458 -0.2493
   65CHL1  H19A 7257   3.150   4.451   9.931 -1.0208 -1.4941  1.6601
   65CHL1  H19B 7258   3.098   4.550  10.074  0.3238 -0.3467 -0.2397
   65CHL1  H19C 7259   3.007   4.564   9.915  1.0808  2.5099 -1.3851
   65CHL1    C1 7260   3.338   4.634   9.961  0.4970 -0.4012 -1.2157
   65CHL1   H1A 7261   3.362   4.526   9.951 -0.9401 -0.9803  0.7894
   65CHL1   H1B 7262   3.411   4.694   9.903 -1.8025  1.6708 -2.1751
   65CHL1    C2 7263   3.374   4.664  10.110  0.0320 -0.4826 -0.8398
   65CHL1   H2A 7264   3.484   4.671  10.123 -0.1547  0.6997  0.3585
   65CHL1   H2B 7265   3.334   4.596  10.189  1.6215  0.9101  1.2954
   65CHL1   C20 7266   3.086   4.523   9.222  0.1014  0.5319 -0.4274
   65CHL1   H20 7267   2.985   4.476   9.220  1.2192 -1.9459 -0.9682
   65CHL1   C21 7268   3.167   4.404   9.248 -0.2933  0.3465  0.3030
   65CHL1  H21A 7269   3.277   4.417   9.239 -0.3209  0.0900 -0.5286
   65CHL1  H21B 7270   3.152   4.338   9.160  1.1321 -0.5244  0.6708
   65CHL1  H21C 7271   3.144   4.344   9.338  0.7898 -1.8061 -0.7722
   65CHL1   C22 7272   3.099   4.567   9.073 -0.2145 -0.2140  0.1927
   65CHL1  H22A 7273   3.056   4.670   9.067  0.5632  0.1393  0.5628
   65CHL1  H22B 7274   3.206   4.583   9.047 -0.3969  1.1208  0.1686
   65CHL1   C23 7275   3.020   4.488   8.969  0.5332  0.1802  0.4338
   65CHL1  H23A 7276   3.067   4.388   8.973 -0.0970 -0.0918  1.2189
   65CHL1  H23B 7277   2.913   4.471   8.996  0.2151 -0.5776 -1.2066
   65CHL1   C24 7278   3.033   4.553   8.828 -0.1306 -0.3538 -0.0685
   65CHL1  H24A 7279   2.993   4.656   8.838 -1.9239 -0.8203 -1.8121
   65CHL1  H24B 7280   3.143   4.557   8.816 -0.1287  2.4572  0.2453
   65CHL1   C25 7281   2.963   4.484   8.712  0.1314  0.6100  0.1088
   65CHL1   H25 7282   2.988   4.376   8.704  3.2858  1.3541 -3.8144
   65CHL1   C26 7283   2.816   4.504   8.729  0.6500  0.0092  0.1181
   65CHL1  H26A 7284   2.764   4.463   8.639  1.4690 -0.1667 -0.2853
   65CHL1  H26B 7285   2.783   4.463   8.827 -1.2672  4.4326  1.6067
   65CHL1  H26C 7286   2.792   4.607   8.761 -1.2274 -1.1615  2.8745
   65CHL1   C27 7287   3.011   4.563   8.587 -0.2955  0.1733  0.1123
   65CHL1  H27A 7288   2.978   4.527   8.488  1.2976  0.2021 -0.4602
   65CHL1  H27B 7289   2.986   4.670   8.601  0.7173  0.1753  2.5023
   65CHL1  H27C 7290   3.122   4.554   8.590 -0.2975  0.0383 -0.1711
   66CHL1    C3 7291   0.002   6.767  10.400 -0.0237  0.5716 -0.4717
   66CHL1    H3 7292  -0.031   6.663  10.381  0.5500  0.2573  0.2010
   66CHL1    O3 7293  -0.017   6.790  10.543 -0.1649 -0.5604  0.2560
   66CHL1   H3' 7294   0.028   6.712  10.576 -1.0951 -0.9775  0.5784
   66CHL1    C4 7295   0.154   6.772  10.376 -0.3908 -0.1346 -0.2541
   66CHL1   H4A 7296   0.185   6.868  10.421 -2.0079 -0.4215  1.6392
   66CHL1   H4B 7297   0.196   6.684  10.430 -1.0228 -1.8685 -2.4299
   66CHL1    C5 7298   0.194   6.774  10.224  0.0469  0.0797 -0.3550
   66CHL1    C6 7299   0.282   6.686  10.170 -0.7774 -0.5231 -0.1904
   66CHL1    H6 7300   0.330   6.622  10.245 -1.3556 -1.0566 -0.2672
   66CHL1    C7 7301   0.333   6.686  10.028 -0.4288  0.4548  1.1349
   66CHL1   H7A 7302   0.443   6.698  10.033 -0.0575 -1.7687 -0.2209
   66CHL1   H7B 7303   0.302   6.596   9.971 -0.4336 -1.0984  3.4545
   66CHL1    C8 7304   0.285   6.812   9.949 -0.3561  0.0254  0.1102
   66CHL1    H8 7305   0.350   6.896   9.982 -0.7795 -0.9926  4.0819
   66CHL1   C14 7306   0.298   6.802   9.800 -0.6312  0.2133  0.0256
   66CHL1   H14 7307   0.226   6.723   9.769 -0.3204 -0.5739  1.2352
   66CHL1   C15 7308   0.435   6.757   9.739 -0.2433  0.2519  0.3445
   66CHL1  H15A 7309   0.517   6.807   9.795  1.7807  0.6261 -2.7078
   66CHL1  H15B 7310   0.435   6.646   9.734 -0.4368  0.2273  0.8168
   66CHL1   C16 7311   0.424   6.807   9.596  0.0175 -0.0420 -0.3504
   66CHL1  H16A 7312   0.507   6.878   9.576  0.6341 -0.7742 -0.4335
   66CHL1  H16B 7313   0.434   6.729   9.518 -0.0370 -0.2848 -0.1146
   66CHL1   C17 7314   0.284   6.874   9.575 -0.0889  0.4314 -0.0710
   66CHL1   H17 7315   0.215   6.793   9.546  0.4810 -0.9039  2.0652
   66CHL1   C13 7316   0.245   6.914   9.719  0.4107 -0.6047 -0.1387
   66CHL1   C18 7317   0.331   7.037   9.754 -0.6715 -0.5681  0.4502
   66CHL1  H18A 7318   0.437   7.026   9.720 -0.1859 -0.3328  1.8286
   66CHL1  H18B 7319   0.292   7.126   9.701 -2.4991  0.0844  2.7552
   66CHL1  H18C 7320   0.325   7.065   9.861 -2.2649  1.9590 -0.2244
   66CHL1   C12 7321   0.101   6.933   9.749 -0.2795  0.9723 -0.2828
   66CHL1  H12A 7322   0.061   7.023   9.697  1.5016  2.0154  0.0623
   66CHL1  H12B 7323   0.041   6.845   9.717 -0.6954  0.9568  0.5226
   66CHL1   C11 7324   0.079   6.955   9.897 -0.0144  0.2793 -0.0057
   66CHL1  H11A 7325   0.125   7.053   9.921  1.2614 -0.1804 -0.4492
   66CHL1  H11B 7326  -0.031   6.956   9.913  0.3847 -1.0216  3.6687
   66CHL1    C9 7327   0.136   6.844   9.985 -0.4562 -0.2237  0.1588
   66CHL1    H9 7328   0.073   6.759   9.952 -2.4091  1.8052 -1.7591
   66CHL1   C10 7329   0.119   6.875  10.138 -0.1677  0.1092 -0.2175
   66CHL1   C19 7330   0.184   7.016  10.167 -0.0852 -0.2856 -0.4164
   66CHL1  H19A 7331   0.285   7.023  10.121 -0.3201  1.6200 -0.7064
   66CHL1  H19B 7332   0.121   7.097  10.126 -1.0966 -0.6770  0.3225
   66CHL1  H19C 7333   0.183   7.042  10.275 -2.0966  0.1067 -0.4930
   66CHL1    C1 7334  -0.034   6.868  10.169 -0.3047 -0.0537  0.3005
   66CHL1   H1A 7335  -0.092   6.951  10.123 -1.7372  0.9275  3.5638
   66CHL1   H1B 7336  -0.073   6.775  10.125 -1.7453  0.8169 -0.3406
   66CHL1    C2 7337  -0.074   6.868  10.323  0.0212 -0.1067 -0.2090
   66CHL1   H2A 7338  -0.182   6.881  10.344  0.1969  1.3907 -0.1167
   66CHL1   H2B 7339  -0.041   6.968  10.357  0.9597 -0.6758  0.5935
   66CHL1   C20 7340   0.295   6.982   9.468 -0.3871 -0.1960  0.0589
   66CHL1   H20 7341   0.371   7.056   9.501  0.0427 -0.4605 -0.3283
   66CHL1   C21 7342   0.172   7.065   9.445  0.3150  0.2094 -1.0500
   66CHL1  H21A 7343   0.191   7.150   9.514  1.1897 -0.9402  0.1853
   66CHL1  H21B 7344   0.086   6.997   9.466  1.7626 -1.1444  0.8621
   66CHL1  H21C 7345   0.165   7.102   9.340  0.9789  1.5828 -0.6352
   66CHL1   C22 7346   0.342   6.914   9.337 -0.1823  0.4535  0.3878
   66CHL1  H22A 7347   0.346   6.997   9.263  1.4179  1.5463  1.6164
   66CHL1  H22B 7348   0.449   6.883   9.331 -0.8414 -1.7625 -1.7422
   66CHL1   C23 7349   0.256   6.798   9.276 -0.2220 -0.1921  0.8502
   66CHL1  H23A 7350   0.269   6.709   9.341  1.7588  0.1929  1.0351
   66CHL1  H23B 7351   0.150   6.829   9.284 -0.7333 -1.4910 -0.4465
   66CHL1   C24 7352   0.289   6.763   9.134 -0.3971  0.7341  0.0175
   66CHL1  H24A 7353   0.268   6.848   9.066 -1.1773  1.5345  1.2346
   66CHL1  H24B 7354   0.393   6.726   9.120 -1.2361 -1.7828 -0.1513
   66CHL1   C25 7355   0.199   6.643   9.082 -0.3362  0.9616  0.5078
   66CHL1   H25 7356   0.203   6.558   9.153 -2.3777 -1.3388 -1.9124
   66CHL1   C26 7357   0.042   6.663   9.089 -0.5220 -0.1820  0.5319
   66CHL1  H26A 7358  -0.002   6.675   9.190 -2.3220  2.0829 -0.4230
   66CHL1  H26B 7359   0.010   6.760   9.045 -1.2741  0.0892  1.6465
   66CHL1  H26C 7360  -0.014   6.582   9.037 -0.9882  0.1984  0.4236
   66CHL1   C27 7361   0.224   6.602   8.936  0.3997 -0.1365  0.1170
   66CHL1  H27A 7362   0.313   6.535   8.937 -1.1958 -2.3488 -0.3284
   66CHL1  H27B 7363   0.152   6.524   8.905 -0.3423 -0.0007  1.4322
   66CHL1  H27C 7364   0.234   6.693   8.872  2.7405  0.0337  0.6051
   67CHL1    C3 7365   4.219   1.919  10.305  0.1876  0.1717 -0.3136
   67CHL1    H3 7366   4.181   1.835  10.243 -2.1533  0.0200  1.2238
   67CHL1    O3 7367   4.233   1.883  10.441 -0.1058  0.3926 -0.4624
   67CHL1   H3' 7368   4.325   1.892  10.468 -0.2467 -0.5242  0.3755
   67CHL1    C4 7369   4.353   1.972  10.255  0.5866  0.8031  1.0557
   67CHL1   H4A 7370   4.388   2.055  10.320  1.1706  0.3143  1.3707
   67CHL1   H4B 7371   4.423   1.889  10.279 -1.5860 -1.0747  1.2584
   67CHL1    C5 7372   4.356   2.011  10.106 -0.5323 -0.1163  0.8675
   67CHL1    C6 7373   4.443   1.968  10.013  0.8257 -0.2570 -0.0747
   67CHL1    H6 7374   4.529   1.908  10.044  0.9516 -0.0619 -0.0434
   67CHL1    C7 7375   4.440   2.004   9.866 -0.2230  0.4787 -0.5353
   67CHL1   H7A 7376   4.540   2.020   9.823 -0.5336 -1.2637 -2.0352
   67CHL1   H7B 7377   4.399   1.914   9.815  1.0327 -1.2774  1.3651
   67CHL1    C8 7378   4.346   2.126   9.829 -0.4649  0.2757 -1.2022
   67CHL1    H8 7379   4.399   2.219   9.861  1.5439 -0.9905 -0.6916
   67CHL1   C14 7380   4.308   2.121   9.685 -0.3462  0.1594  0.3942
   67CHL1   H14 7381   4.254   2.025   9.667 -3.3433  2.0179 -1.2776
   67CHL1   C15 7382   4.418   2.107   9.580  0.1724  0.4993  0.2674
   67CHL1  H15A 7383   4.484   2.190   9.615  1.1679  0.1804 -0.8025
   67CHL1  H15B 7384   4.467   2.008   9.580 -1.4751 -0.3428  0.6533
   67CHL1   C16 7385   4.350   2.150   9.448  1.0193 -0.0003  0.1685
   67CHL1  H16A 7386   4.396   2.227   9.382 -1.3228  0.6403 -0.8192
   67CHL1  H16B 7387   4.337   2.062   9.381  2.5231 -0.4973  0.4891
   67CHL1   C17 7388   4.207   2.197   9.489 -0.2249 -0.6089  1.0178
   67CHL1   H17 7389   4.140   2.110   9.478  0.0861 -0.6945 -0.5822
   67CHL1   C13 7390   4.214   2.230   9.645  0.0267  0.8705  0.3715
   67CHL1   C18 7391   4.279   2.370   9.657 -0.8757  0.6270 -0.1008
   67CHL1  H18A 7392   4.204   2.451   9.638 -1.3438  0.3159  0.4158
   67CHL1  H18B 7393   4.322   2.379   9.759  1.4580 -1.4281 -0.8299
   67CHL1  H18C 7394   4.366   2.377   9.589  0.6096 -0.4606  1.6223
   67CHL1   C12 7395   4.081   2.217   9.726  0.2154 -0.3788  0.0989
   67CHL1  H12A 7396   4.024   2.311   9.711 -0.6485 -0.5600  1.9869
   67CHL1  H12B 7397   4.016   2.139   9.683  0.0746 -0.4255  0.3941
   67CHL1   C11 7398   4.106   2.219   9.875 -0.6590  0.0634  0.5117
   67CHL1  H11A 7399   4.140   2.320   9.905 -2.2532  0.3885  1.3600
   67CHL1  H11B 7400   4.015   2.197   9.935  1.2726  1.3929  4.2196
   67CHL1    C9 7401   4.211   2.114   9.911 -0.6830  0.1772  0.1243
   67CHL1    H9 7402   4.177   2.013   9.878  1.9250 -0.3948 -1.1256
   67CHL1   C10 7403   4.237   2.111  10.069  0.9099  0.7401  0.8020
   67CHL1   C19 7404   4.272   2.249  10.121 -0.3076 -0.0440 -0.1736
   67CHL1  H19A 7405   4.293   2.243  10.229 -1.1318 -1.6579 -0.0718
   67CHL1  H19B 7406   4.366   2.285  10.074 -1.9007  1.1752 -2.6261
   67CHL1  H19C 7407   4.191   2.324  10.105 -2.0925 -1.7128  0.6679
   67CHL1    C1 7408   4.105   2.063  10.139  0.1096 -0.1542  0.8286
   67CHL1   H1A 7409   4.020   2.134  10.131 -0.6728 -1.3100 -3.0577
   67CHL1   H1B 7410   4.069   1.970  10.090 -2.1469  1.0264  0.1174
   67CHL1    C2 7411   4.122   2.034  10.281  0.5881  0.4896 -0.2809
   67CHL1   H2A 7412   4.031   1.986  10.324  1.2382 -1.1472 -0.6444
   67CHL1   H2B 7413   4.148   2.115  10.352  0.1305 -0.6987  1.3117
   67CHL1   C20 7414   4.152   2.309   9.395  0.1024 -1.4130  0.4890
   67CHL1   H20 7415   4.201   2.406   9.418  2.3342 -2.6680  1.3666
   67CHL1   C21 7416   4.001   2.332   9.438 -0.2718  0.1721  0.2243
   67CHL1  H21A 7417   3.976   2.380   9.535  1.6441  2.6521 -0.3966
   67CHL1  H21B 7418   3.946   2.236   9.438  2.4396 -1.4943 -0.7533
   67CHL1  H21C 7419   3.944   2.402   9.372  1.4591  0.3046 -1.2299
   67CHL1   C22 7420   4.156   2.276   9.243 -0.0835  0.1237  0.2526
   67CHL1  H22A 7421   4.147   2.370   9.185 -0.7353  0.7101  1.2751
   67CHL1  H22B 7422   4.261   2.247   9.220  0.4921  1.5862  0.8913
   67CHL1   C23 7423   4.061   2.157   9.205 -0.8906  0.2567  1.1839
   67CHL1  H23A 7424   4.068   2.075   9.280 -1.8203  0.8321  1.9196
   67CHL1  H23B 7425   3.955   2.188   9.196 -1.0334 -0.3796  0.6969
   67CHL1   C24 7426   4.103   2.092   9.069 -0.7252 -0.1016 -0.4268
   67CHL1  H24A 7427   4.212   2.071   9.065 -0.9018 -1.6214  1.4063
   67CHL1  H24B 7428   4.047   1.996   9.063 -2.1073  0.6222  0.3674
   67CHL1   C25 7429   4.064   2.169   8.945 -0.5623 -0.0985  0.2702
   67CHL1   H25 7430   3.988   2.247   8.965  0.3431  0.5405  1.3130
   67CHL1   C26 7431   4.192   2.226   8.876  0.3381 -0.1892  0.3003
   67CHL1  H26A 7432   4.235   2.313   8.929  0.9768  0.4203 -1.1580
   67CHL1  H26B 7433   4.275   2.154   8.857  1.8710  1.8024 -1.0544
   67CHL1  H26C 7434   4.154   2.263   8.778 -0.9252  0.0221  0.8599
   67CHL1   C27 7435   4.019   2.057   8.848  0.3698  0.0456 -0.3811
   67CHL1  H27A 7436   3.924   2.007   8.875  0.5994 -0.2852 -0.1656
   67CHL1  H27B 7437   4.004   2.099   8.747 -2.2414 -1.1246 -0.5376
   67CHL1  H27C 7438   4.088   1.970   8.838  2.2207  1.3112  0.7128
   68CHL1    C3 7439   0.174   2.199  10.245  0.1872  0.7886 -0.0795
   68CHL1    H3 7440   0.272   2.206  10.193 -0.0162 -0.0987 -0.5968
   68CHL1    O3 7441   0.195   2.227  10.382  0.4978  0.0820 -0.1781
   68CHL1   H3' 7442   0.213   2.321  10.389  1.1403 -0.0265 -0.3607
   68CHL1    C4 7443   0.074   2.299  10.181  0.6897 -0.4432 -0.3385
   68CHL1   H4A 7444  -0.020   2.299  10.240  0.5091  0.4611 -0.6219
   68CHL1   H4B 7445   0.120   2.399  10.194  3.0897 -1.6068  0.9294
   68CHL1    C5 7446   0.040   2.260  10.039 -0.2564 -0.3844  0.4167
   68CHL1    C6 7447   0.050   2.358   9.949 -0.7838 -0.0280  0.5830
   68CHL1    H6 7448   0.063   2.459   9.990 -1.3177  0.6784 -0.9005
   68CHL1    C7 7449   0.032   2.337   9.803 -0.3602 -0.7853 -0.0781
   68CHL1   H7A 7450  -0.030   2.420   9.763  0.9307  0.7809  1.0794
   68CHL1   H7B 7451   0.134   2.351   9.763  0.2075 -1.2497  1.1736
   68CHL1    C8 7452  -0.021   2.198   9.755  0.0706  0.6635 -0.1852
   68CHL1    H8 7453  -0.131   2.194   9.770  0.2596 -0.1353  1.1524
   68CHL1   C14 7454   0.019   2.166   9.610  0.1794 -0.1644  0.1813
   68CHL1   H14 7455   0.130   2.170   9.610  0.2806 -1.5570 -1.9587
   68CHL1   C15 7456  -0.041   2.262   9.502 -0.2457 -0.6317 -0.7863
   68CHL1  H15A 7457  -0.150   2.268   9.522 -0.2244  0.6015 -0.9746
   68CHL1  H15B 7458   0.022   2.353   9.513 -1.3368  0.2003 -1.2122
   68CHL1   C16 7459  -0.004   2.187   9.371  0.1699 -0.0419 -0.6581
   68CHL1  H16A 7460  -0.092   2.194   9.303 -0.5119  0.9321  0.2913
   68CHL1  H16B 7461   0.087   2.226   9.321  0.3824 -0.3803 -0.5387
   68CHL1   C17 7462   0.022   2.041   9.425  0.4261 -0.2203 -0.4680
   68CHL1   H17 7463   0.133   2.034   9.437  0.5284  1.9792  0.5757
   68CHL1   C13 7464  -0.022   2.028   9.567  0.7899 -0.6225  0.2675
   68CHL1   C18 7465  -0.175   2.000   9.553 -0.3487 -0.1801 -0.1507
   68CHL1  H18A 7466  -0.224   2.077   9.489  0.0139  0.2310  0.0573
   68CHL1  H18B 7467  -0.204   1.909   9.497 -1.1432  0.3478 -0.6217
   68CHL1  H18C 7468  -0.232   2.005   9.648 -0.2671 -0.3747 -0.0904
   68CHL1   C12 7469   0.052   1.923   9.646 -0.0543 -0.0162 -0.0456
   68CHL1  H12A 7470   0.032   1.822   9.604 -2.0308  1.0308 -1.8041
   68CHL1  H12B 7471   0.159   1.948   9.630 -0.3945 -0.1493 -2.9418
   68CHL1   C11 7472   0.013   1.945   9.793 -0.2618  0.6156 -0.4462
   68CHL1  H11A 7473  -0.096   1.929   9.800 -0.2132  0.9551  1.3688
   68CHL1  H11B 7474   0.069   1.869   9.852 -2.2545 -0.0737  0.6470
   68CHL1    C9 7475   0.041   2.090   9.846 -0.2873  0.6353  0.4003
   68CHL1    H9 7476   0.150   2.089   9.825 -0.2964 -4.1870 -0.5152
   68CHL1   C10 7477   0.017   2.115   9.997 -0.1927  0.9908 -0.6488
   68CHL1   C19 7478  -0.130   2.090  10.030 -0.4213  0.3859 -0.4699
   68CHL1  H19A 7479  -0.153   1.983  10.011 -0.8358  0.0674  1.5938
   68CHL1  H19B 7480  -0.152   2.102  10.138 -2.0930 -1.0229 -0.6147
   68CHL1  H19C 7481  -0.192   2.167   9.979  0.5848  0.6821 -1.2935
   68CHL1    C1 7482   0.107   2.021  10.081  0.2262  0.2845 -0.4773
   68CHL1   H1A 7483   0.061   1.922  10.063  0.9018  0.0983 -1.2653
   68CHL1   H1B 7484   0.206   2.032  10.032  0.2442 -0.4328 -0.6156
   68CHL1    C2 7485   0.118   2.056  10.228  0.3878 -0.1160 -0.3208
   68CHL1   H2A 7486   0.186   1.981  10.275  0.7469  0.4184  0.0191
   68CHL1   H2B 7487   0.015   2.038  10.266  0.5301  0.2406  0.2368
   68CHL1   C20 7488  -0.016   1.921   9.338 -0.6469 -0.0382 -0.1162
   68CHL1   H20 7489  -0.033   1.826   9.393 -0.2955  1.9048  3.7182
   68CHL1   C21 7490   0.109   1.897   9.255 -0.0205  0.6717  0.4254
   68CHL1  H21A 7491   0.132   1.987   9.194 -1.6862  1.0130  0.2529
   68CHL1  H21B 7492   0.099   1.804   9.195 -3.7747  0.1274  1.5987
   68CHL1  H21C 7493   0.196   1.872   9.319 -0.9395 -2.4848  0.6189
   68CHL1   C22 7494  -0.139   1.944   9.241 -1.4087  0.5518 -0.5704
   68CHL1  H22A 7495  -0.221   2.006   9.286 -2.1094 -0.9223  0.2628
   68CHL1  H22B 7496  -0.091   1.990   9.152  2.9921  1.0426  1.7945
   68CHL1   C23 7497  -0.210   1.811   9.207  0.2747 -0.1042 -0.2362
   68CHL1  H23A 7498  -0.140   1.744   9.153  2.0809  3.0380 -2.0825
   68CHL1  H23B 7499  -0.252   1.762   9.297 -1.9754 -0.2523 -1.2953
   68CHL1   C24 7500  -0.334   1.821   9.123 -0.1812  0.1982 -0.1040
   68CHL1  H24A 7501  -0.408   1.892   9.166 -0.0811  0.7870 -0.8683
   68CHL1  H24B 7502  -0.303   1.860   9.023 -3.2877  1.7650 -0.6003
   68CHL1   C25 7503  -0.425   1.694   9.093 -0.0863 -0.0721  0.0390
   68CHL1   H25 7504  -0.449   1.652   9.193 -0.5534 -1.1060 -0.4911
   68CHL1   C26 7505  -0.564   1.739   9.038 -0.2045  0.1734 -0.2747
   68CHL1  H26A 7506  -0.613   1.783   9.128 -1.8991 -0.1033 -1.0253
   68CHL1  H26B 7507  -0.552   1.800   8.946 -0.9084  0.8196  0.0531
   68CHL1  H26C 7508  -0.629   1.653   9.012  2.0136 -1.6810 -0.0893
   68CHL1   C27 7509  -0.353   1.581   9.021  0.3668  0.0710  0.1287
   68CHL1  H27A 7510  -0.315   1.628   8.928 -0.7079  2.1262  0.6726
   68CHL1  H27B 7511  -0.275   1.535   9.085 -0.3666  0.1385  1.1019
   68CHL1  H27C 7512  -0.427   1.499   9.004  0.9712 -1.1122  2.6733
   69CHL1    C3 7513   5.272   1.396   6.946 -0.6246  0.4025 -0.9622
   69CHL1    H3 7514   5.165   1.367   6.956 -1.1401  2.4038 -0.2917
   69CHL1    O3 7515   5.309   1.406   6.812  0.2428  0.5102 -0.4024
   69CHL1   H3' 7516   5.401   1.433   6.820 -0.4434  2.5225  1.8322
   69CHL1    C4 7517   5.288   1.536   7.009 -0.3722 -0.0841 -0.2777
   69CHL1   H4A 7518   5.393   1.572   6.999 -0.5219  0.4407  0.0219
   69CHL1   H4B 7519   5.226   1.605   6.948 -0.1660 -0.8229 -1.3646
   69CHL1    C5 7520   5.245   1.546   7.157  0.0931  0.3576 -0.3829
   69CHL1    C6 7521   5.152   1.624   7.210  0.3794 -0.4043  0.0700
   69CHL1    H6 7522   5.094   1.696   7.150 -1.0514 -0.0302  1.8135
   69CHL1    C7 7523   5.119   1.637   7.360  0.0315  0.2213  0.2652
   69CHL1   H7A 7524   5.125   1.740   7.403  0.4224  0.7519 -1.0124
   69CHL1   H7B 7525   5.016   1.602   7.383 -0.1597  1.0825  0.7656
   69CHL1    C8 7526   5.218   1.557   7.444 -0.0130  0.2882  0.5069
   69CHL1    H8 7527   5.310   1.619   7.444 -0.0185  0.3125 -0.7585
   69CHL1   C14 7528   5.154   1.527   7.580  0.0601 -0.1631 -0.0423
   69CHL1   H14 7529   5.074   1.452   7.563  0.2098 -0.1262 -0.9846
   69CHL1   C15 7530   5.098   1.645   7.656 -0.1152  0.4227 -0.3051
   69CHL1  H15A 7531   5.160   1.735   7.638  2.9594 -1.8356 -2.1563
   69CHL1  H15B 7532   4.993   1.661   7.622 -0.6909 -0.4648  0.9555
   69CHL1   C16 7533   5.090   1.598   7.800 -0.3779  0.1958 -0.7842
   69CHL1  H16A 7534   5.135   1.680   7.860  0.8182 -1.0800  0.1302
   69CHL1  H16B 7535   4.986   1.587   7.837  0.4796  0.9722  2.1577
   69CHL1   C17 7536   5.161   1.464   7.805 -0.2224 -0.3634  0.2462
   69CHL1   H17 7537   5.088   1.382   7.791 -1.2083  0.3319  1.1362
   69CHL1   C13 7538   5.251   1.455   7.682  0.2197 -0.2733  0.8455
   69CHL1   C18 7539   5.365   1.557   7.707 -0.4981 -0.1602 -0.2259
   69CHL1  H18A 7540   5.443   1.518   7.776 -1.0091  0.1137  0.5219
   69CHL1  H18B 7541   5.421   1.586   7.615  0.5326 -2.0009 -0.2276
   69CHL1  H18C 7542   5.341   1.652   7.759 -1.5116 -0.7186  0.3569
   69CHL1   C12 7543   5.294   1.329   7.613 -0.1166  0.4383  0.2278
   69CHL1  H12A 7544   5.372   1.277   7.672  1.6699  1.1065 -1.4349
   69CHL1  H12B 7545   5.205   1.263   7.602  0.4541 -0.1948 -0.7392
   69CHL1   C11 7546   5.356   1.347   7.476 -0.2849  0.1975 -0.8297
   69CHL1  H11A 7547   5.449   1.406   7.491 -0.7000  0.6773 -0.0879
   69CHL1  H11B 7548   5.387   1.248   7.437  1.2150  0.4881 -0.4483
   69CHL1    C9 7549   5.270   1.423   7.379  0.5307  0.2078  0.1146
   69CHL1    H9 7550   5.185   1.355   7.364  0.2393  0.4983  0.4329
   69CHL1   C10 7551   5.336   1.443   7.242 -0.6312  0.1855 -0.9855
   69CHL1   C19 7552   5.473   1.508   7.253 -0.0455 -0.7683  0.4105
   69CHL1  H19A 7553   5.513   1.508   7.149  0.5656  1.3822  0.5922
   69CHL1  H19B 7554   5.468   1.610   7.298 -0.6701 -0.2444 -0.8042
   69CHL1  H19C 7555   5.540   1.441   7.311 -0.7137 -2.9499 -1.1908
   69CHL1    C1 7556   5.347   1.303   7.166 -0.6038 -0.2676  0.4328
   69CHL1   H1A 7557   5.414   1.226   7.210 -3.4864 -3.5338 -0.5253
   69CHL1   H1B 7558   5.246   1.258   7.165 -1.1236  0.6299 -3.1027
   69CHL1    C2 7559   5.368   1.300   7.015 -0.1759 -0.5308 -0.1230
   69CHL1   H2A 7560   5.351   1.198   6.976 -1.6215 -1.3939  2.5398
   69CHL1   H2B 7561   5.470   1.331   6.984  0.2070 -2.9953 -1.5837
   69CHL1   C20 7562   5.209   1.435   7.951 -0.5084 -0.1230 -0.0897
   69CHL1   H20 7563   5.278   1.519   7.975 -2.5920  1.8943 -0.7888
   69CHL1   C21 7564   5.297   1.304   7.954  0.3373  0.1232  0.2697
   69CHL1  H21A 7565   5.382   1.299   7.882  1.9181  0.3880  2.0470
   69CHL1  H21B 7566   5.235   1.221   7.913  0.4694 -0.7578  1.7937
   69CHL1  H21C 7567   5.320   1.279   8.059  0.7156  2.2365  0.7353
   69CHL1   C22 7568   5.112   1.425   8.065 -0.0136 -0.2879 -0.1893
   69CHL1  H22A 7569   5.015   1.460   8.021  0.0171 -0.5861 -0.5013
   69CHL1  H22B 7570   5.102   1.318   8.094  1.7059 -0.1391  1.0771
   69CHL1   C23 7571   5.153   1.494   8.194  0.3101  0.3515  0.0879
   69CHL1  H23A 7572   5.080   1.463   8.272 -1.8714 -0.3004 -2.1031
   69CHL1  H23B 7573   5.256   1.460   8.220  0.0676 -0.7083 -0.2754
   69CHL1   C24 7574   5.142   1.648   8.179 -0.0434 -0.3299 -0.4982
   69CHL1  H24A 7575   5.231   1.677   8.119 -1.3718  0.0265 -2.4219
   69CHL1  H24B 7576   5.047   1.657   8.121  0.6321 -1.6835 -1.8853
   69CHL1   C25 7577   5.135   1.740   8.305  0.4147 -0.4969 -0.0526
   69CHL1   H25 7578   5.133   1.843   8.262  0.0354 -0.9091 -1.0549
   69CHL1   C26 7579   5.012   1.704   8.384  0.4926 -0.2130 -0.3076
   69CHL1  H26A 7580   5.021   1.600   8.421  2.1109 -0.1202 -0.3461
   69CHL1  H26B 7581   4.990   1.767   8.473 -1.2319 -2.3699  0.8938
   69CHL1  H26C 7582   4.920   1.723   8.324 -0.7601  0.0639  1.6265
   69CHL1   C27 7583   5.264   1.729   8.400  0.0174  0.1693 -0.1772
   69CHL1  H27A 7584   5.275   1.822   8.460  3.4688 -0.6672  0.7202
   69CHL1  H27B 7585   5.258   1.641   8.469 -0.0451 -0.3039 -0.7797
   69CHL1  H27C 7586   5.354   1.726   8.336 -0.0306  1.6877 -0.3461
   70CHL1    C3 7587   6.801   5.637   7.128 -0.0719  0.0642  0.2528
   70CHL1    H3 7588   6.798   5.526   7.135  2.3784 -0.1453 -0.7467
   70CHL1    O3 7589   6.762   5.679   6.997 -0.6057  0.0723 -0.7549
   70CHL1   H3' 7590   6.835   5.649   6.942  0.6456 -0.1596  0.9649
   70CHL1    C4 7591   6.711   5.698   7.235 -0.1195  0.0655 -0.8567
   70CHL1   H4A 7592   6.717   5.809   7.224 -0.8112  0.0638 -1.2842
   70CHL1   H4B 7593   6.611   5.659   7.207  0.7165 -1.2376 -2.2136
   70CHL1    C5 7594   6.750   5.659   7.377 -0.2907  0.6747  0.1490
   70CHL1    C6 7595   6.665   5.598   7.462  0.8795 -0.2712  0.2926
   70CHL1    H6 7596   6.565   5.568   7.429  1.0471 -1.1197  0.5344
   70CHL1    C7 7597   6.712   5.563   7.604  0.2564 -0.3001  0.1731
   70CHL1   H7A 7598   6.626   5.586   7.670  0.2100 -0.7605  0.2739
   70CHL1   H7B 7599   6.724   5.453   7.597  3.0030 -0.1029  0.7550
   70CHL1    C8 7600   6.846   5.632   7.648 -0.1909  0.0184 -0.3396
   70CHL1    H8 7601   6.816   5.733   7.682 -1.2598  0.6934 -3.0798
   70CHL1   C14 7602   6.909   5.550   7.764  0.4489  0.3935 -0.2210
   70CHL1   H14 7603   6.932   5.455   7.711 -1.5656  0.9550 -2.2620
   70CHL1   C15 7604   6.818   5.509   7.883  0.0162  0.5023 -0.4450
   70CHL1  H15A 7605   6.775   5.610   7.899  1.5833  1.0793  0.3878
   70CHL1  H15B 7606   6.750   5.428   7.849  1.9418 -1.4994  0.1939
   70CHL1   C16 7607   6.918   5.462   7.992  0.0036  0.3978  0.3439
   70CHL1  H16A 7608   6.910   5.523   8.085  0.5437  1.5064 -0.3182
   70CHL1  H16B 7609   6.921   5.354   8.019 -1.9402  0.5310  1.2934
   70CHL1   C17 7610   7.062   5.505   7.936 -0.1585 -0.4721 -0.0132
   70CHL1   H17 7611   7.099   5.407   7.899 -2.6118 -1.6144  0.4000
   70CHL1   C13 7612   7.038   5.602   7.820 -0.4443 -0.1378  0.8635
   70CHL1   C18 7613   7.007   5.744   7.885 -0.0548  0.2280 -0.1909
   70CHL1  H18A 7614   6.944   5.740   7.976 -0.2951  0.5059 -0.3414
   70CHL1  H18B 7615   7.099   5.793   7.924 -1.1791  2.7446 -0.5213
   70CHL1  H18C 7616   6.963   5.823   7.820 -0.4975  1.7777  1.8813
   70CHL1   C12 7617   7.143   5.598   7.703 -0.2813 -0.0565  0.8170
   70CHL1  H12A 7618   7.242   5.643   7.726  0.5228 -0.9581 -0.7124
   70CHL1  H12B 7619   7.154   5.492   7.671 -1.1993  0.5409 -1.7378
   70CHL1   C11 7620   7.088   5.684   7.582  1.0505  0.0881 -0.2290
   70CHL1  H11A 7621   7.082   5.780   7.637 -0.5066  0.1426 -0.4395
   70CHL1  H11B 7622   7.163   5.695   7.501  1.1343 -1.4750 -0.3891
   70CHL1    C9 7623   6.951   5.632   7.540 -0.2744 -1.2547  0.3319
   70CHL1    H9 7624   6.972   5.527   7.511 -0.9765 -1.4959  0.6557
   70CHL1   C10 7625   6.900   5.695   7.407  0.7759 -0.0976 -0.4122
   70CHL1   C19 7626   6.915   5.842   7.429 -0.0709 -1.1835 -0.5885
   70CHL1  H19A 7627   7.019   5.879   7.441 -0.6175  0.5181 -0.8653
   70CHL1  H19B 7628   6.890   5.891   7.333  0.6984 -0.3007 -0.3522
   70CHL1  H19C 7629   6.846   5.882   7.506  0.7303 -1.7300  0.4543
   70CHL1    C1 7630   6.984   5.637   7.290 -0.4331 -0.1573  0.2564
   70CHL1   H1A 7631   7.089   5.668   7.309 -1.4155  2.4189  2.1034
   70CHL1   H1B 7632   6.979   5.526   7.295 -0.0356 -0.1635  0.6255
   70CHL1    C2 7633   6.943   5.683   7.150 -0.0294 -0.6977 -0.6248
   70CHL1   H2A 7634   7.004   5.628   7.075 -1.9764  0.3494 -3.0973
   70CHL1   H2B 7635   6.958   5.792   7.157 -1.0270 -0.6568  3.5650
   70CHL1   C20 7636   7.164   5.536   8.045  0.2737 -0.3665 -0.1322
   70CHL1   H20 7637   7.114   5.621   8.096 -2.8186 -0.1520 -3.1506
   70CHL1   C21 7638   7.303   5.572   7.984 -0.4678  0.2815 -0.1136
   70CHL1  H21A 7639   7.322   5.483   7.921 -1.6290  0.5104 -0.8114
   70CHL1  H21B 7640   7.384   5.588   8.059  1.0361  2.0926 -1.9914
   70CHL1  H21C 7641   7.291   5.659   7.916 -0.7712  1.4218  1.3357
   70CHL1   C22 7642   7.183   5.426   8.143 -0.3387  0.0231 -0.0748
   70CHL1  H22A 7643   7.092   5.413   8.206  0.3002  1.2260  1.1504
   70CHL1  H22B 7644   7.201   5.327   8.095 -0.0095 -0.0321  0.1574
   70CHL1   C23 7645   7.290   5.458   8.251  0.2138  0.0227 -0.1273
   70CHL1  H23A 7646   7.389   5.421   8.217  0.7797 -0.6002  2.0845
   70CHL1  H23B 7647   7.299   5.568   8.267  0.8325 -0.1089  0.4474
   70CHL1   C24 7648   7.247   5.390   8.382 -0.2430 -0.4536  0.4693
   70CHL1  H24A 7649   7.166   5.447   8.432 -3.4597 -3.0114 -1.4164
   70CHL1  H24B 7650   7.193   5.296   8.357 -1.5417  0.2044  0.7263
   70CHL1   C25 7651   7.366   5.360   8.469  0.0572  0.2615 -0.0735
   70CHL1   H25 7652   7.422   5.289   8.406  0.7764 -1.8133  2.6820
   70CHL1   C26 7653   7.458   5.480   8.486  0.4441 -0.0071 -0.7618
   70CHL1  H26A 7654   7.550   5.458   8.544  0.4838 -1.7789 -1.4493
   70CHL1  H26B 7655   7.487   5.529   8.390  0.7299  2.9009  0.7021
   70CHL1  H26C 7656   7.404   5.554   8.549 -1.0231 -1.1093 -0.6941
   70CHL1   C27 7657   7.319   5.282   8.594  0.1322  0.8223  0.4085
   70CHL1  H27A 7658   7.260   5.191   8.573 -0.3813  1.7605 -2.6282
   70CHL1  H27B 7659   7.406   5.251   8.655 -1.4100 -3.2553  0.8355
   70CHL1  H27C 7660   7.259   5.359   8.648 -0.3884  1.7856 -1.4618
   71CHL1    C3 7661   2.374   3.175   6.952 -0.6068  0.0024 -0.6987
   71CHL1    H3 7662   2.454   3.102   6.928 -0.2773 -0.4893  1.6478
   71CHL1    O3 7663   2.314   3.220   6.832 -0.4164 -0.0121  0.2007
   71CHL1   H3' 7664   2.220   3.233   6.841 -0.1022  1.8257  1.5168
   71CHL1    C4 7665   2.264   3.116   7.038 -0.5890 -0.1505 -0.1185
   71CHL1   H4A 7666   2.197   3.203   7.056 -1.9202 -1.3254  0.7586
   71CHL1   H4B 7667   2.211   3.033   6.987  0.2613 -1.0928  0.4924
   71CHL1    C5 7668   2.338   3.081   7.166 -0.7222  0.3307 -0.0634
   71CHL1    C6 7669   2.336   2.950   7.211  0.0646 -0.6155 -0.2092
   71CHL1    H6 7670   2.280   2.881   7.147 -2.3087  0.5632  0.4596
   71CHL1    C7 7671   2.377   2.912   7.350  0.0868 -0.1735 -0.2739
   71CHL1   H7A 7672   2.314   2.838   7.404  0.0335  0.8941  1.1722
   71CHL1   H7B 7673   2.476   2.862   7.339 -0.6749 -2.3974  2.2063
   71CHL1    C8 7674   2.397   3.033   7.448 -0.4445 -0.3131 -0.2123
   71CHL1    H8 7675   2.293   3.057   7.478  0.2621  0.5481  1.7136
   71CHL1   C14 7676   2.483   2.997   7.564  0.2813 -0.7377 -0.0764
   71CHL1   H14 7677   2.581   2.976   7.517 -0.2265 -2.2232 -0.5206
   71CHL1   C15 7678   2.458   2.863   7.636  0.0578  0.4901  0.6329
   71CHL1  H15A 7679   2.349   2.862   7.654 -0.0203  0.6676  0.1842
   71CHL1  H15B 7680   2.495   2.776   7.578  0.6645 -1.3309  3.5905
   71CHL1   C16 7681   2.529   2.870   7.769  0.7859 -0.3611 -0.4415
   71CHL1  H16A 7682   2.463   2.837   7.852 -2.3306  1.5763 -1.9685
   71CHL1  H16B 7683   2.621   2.808   7.766  2.1738  1.5963 -2.5269
   71CHL1   C17 7684   2.569   3.017   7.783  0.5378 -0.0623 -0.4874
   71CHL1   H17 7685   2.670   3.023   7.737 -0.6208  2.7385 -3.0361
   71CHL1   C13 7686   2.500   3.104   7.675  0.1781 -0.4760 -0.2952
   71CHL1   C18 7687   2.363   3.159   7.732  0.0581  0.3115  0.1108
   71CHL1  H18A 7688   2.300   3.204   7.653 -0.2108  0.8835  0.6411
   71CHL1  H18B 7689   2.305   3.081   7.787  1.0400  0.4831  1.4328
   71CHL1  H18C 7690   2.374   3.245   7.802 -1.1915 -0.3535  1.1610
   71CHL1   C12 7691   2.584   3.215   7.604  0.2034 -0.5147 -0.1862
   71CHL1  H12A 7692   2.606   3.288   7.685  0.3911 -3.1505  2.3399
   71CHL1  H12B 7693   2.678   3.166   7.569  1.1344  0.6986  0.5037
   71CHL1   C11 7694   2.522   3.267   7.469 -0.1690 -0.1173  0.5959
   71CHL1  H11A 7695   2.436   3.332   7.495 -1.1858 -0.9502 -0.5927
   71CHL1  H11B 7696   2.603   3.324   7.419 -0.1954 -0.0822  0.5925
   71CHL1    C9 7697   2.472   3.154   7.375 -0.0394  0.3538  0.4806
   71CHL1    H9 7698   2.559   3.099   7.335  0.5405  1.4927  0.1414
   71CHL1   C10 7699   2.396   3.198   7.244  0.6373  0.2162 -0.5941
   71CHL1   C19 7700   2.290   3.293   7.299  0.7771  0.2572 -0.0283
   71CHL1  H19A 7701   2.222   3.343   7.227 -2.8448 -0.6699  2.4771
   71CHL1  H19B 7702   2.233   3.254   7.386  1.4529  0.3751  0.4755
   71CHL1  H19C 7703   2.344   3.383   7.336  2.3572 -0.6365 -0.0767
   71CHL1    C1 7704   2.505   3.265   7.152  0.0003  0.0323 -0.1724
   71CHL1   H1A 7705   2.532   3.362   7.199 -0.2179  0.4843 -0.9736
   71CHL1   H1B 7706   2.595   3.202   7.133 -0.2510  0.2157 -2.1883
   71CHL1    C2 7707   2.443   3.299   7.016  0.1277  0.1832 -0.7269
   71CHL1   H2A 7708   2.509   3.347   6.942 -0.9400  1.6085 -0.7982
   71CHL1   H2B 7709   2.355   3.364   7.038 -1.0822 -1.3439 -0.8056
   71CHL1   C20 7710   2.587   3.058   7.929 -0.6918 -0.6171 -0.4350
   71CHL1   H20 7711   2.497   3.036   7.990 -1.0134 -0.0756 -0.7058
   71CHL1   C21 7712   2.621   3.203   7.940  0.1083  0.2592  0.3214
   71CHL1  H21A 7713   2.726   3.212   7.906  0.8594  0.4735  2.5352
   71CHL1  H21B 7714   2.633   3.239   8.044 -0.2473  0.0227  0.4455
   71CHL1  H21C 7715   2.551   3.265   7.881 -2.7306 -1.0865  2.0555
   71CHL1   C22 7716   2.704   2.974   7.993 -0.6989  0.5887 -0.0452
   71CHL1  H22A 7717   2.665   2.870   7.991  1.6615 -0.3861  0.6261
   71CHL1  H22B 7718   2.793   2.977   7.927 -0.9006  1.5821 -0.2866
   71CHL1   C23 7719   2.728   2.984   8.143  0.2213 -0.4077 -0.1581
   71CHL1  H23A 7720   2.817   2.936   8.189  0.5537 -1.4126 -1.7918
   71CHL1  H23B 7721   2.772   3.085   8.157  0.5741 -0.6720  0.7122
   71CHL1   C24 7722   2.601   2.969   8.233  0.4405 -0.0028 -0.0077
   71CHL1  H24A 7723   2.528   3.044   8.194 -0.8644  0.0528  2.3808
   71CHL1  H24B 7724   2.564   2.865   8.222 -0.7839  0.2650  1.3059
   71CHL1   C25 7725   2.608   2.988   8.380 -0.3829  0.9039  0.1325
   71CHL1   H25 7726   2.662   3.084   8.397  1.1059 -0.1031  1.3671
   71CHL1   C26 7727   2.465   3.003   8.438 -0.3455  0.2020 -0.0287
   71CHL1  H26A 7728   2.406   3.086   8.394  2.2560  1.7967 -0.7348
   71CHL1  H26B 7729   2.408   2.909   8.425  0.8648 -0.2441 -2.7223
   71CHL1  H26C 7730   2.467   3.010   8.549  0.1528 -1.1358  0.0689
   71CHL1   C27 7731   2.699   2.878   8.446  0.2396  0.2042  0.3327
   71CHL1  H27A 7732   2.725   2.902   8.551  0.0868  0.3908  0.3276
   71CHL1  H27B 7733   2.641   2.783   8.448 -1.3883  1.1320 -0.7885
   71CHL1  H27C 7734   2.791   2.853   8.388 -1.0800 -2.4967 -0.7722
   72CHL1    C3 7735   6.169   5.941   7.085 -0.2197  1.0703  0.1802
   72CHL1    H3 7736   6.059   5.934   7.100 -0.0326  1.7745  2.1879
   72CHL1    O3 7737   6.182   5.994   6.957 -0.1747 -0.3063  0.7161
   72CHL1   H3' 7738   6.277   6.003   6.940 -0.4770 -1.1777 -1.9632
   72CHL1    C4 7739   6.229   6.050   7.172 -0.2301  0.0653 -0.3362
   72CHL1   H4A 7740   6.336   6.069   7.148 -0.3979 -0.0401 -1.2026
   72CHL1   H4B 7741   6.183   6.149   7.150  0.9391  0.7104  0.0227
   72CHL1    C5 7742   6.218   6.009   7.320  0.6095  0.8018 -0.0138
   72CHL1    C6 7743   6.171   6.091   7.414  0.3061  0.3144 -0.0035
   72CHL1    H6 7744   6.138   6.191   7.385 -0.6824 -0.0640 -0.2204
   72CHL1    C7 7745   6.159   6.059   7.563 -0.4189  0.2460 -0.3585
   72CHL1   H7A 7746   6.219   6.134   7.619  1.4923 -1.1988 -0.3395
   72CHL1   H7B 7747   6.052   6.044   7.588 -0.0507 -2.0421  0.0527
   72CHL1    C8 7748   6.228   5.924   7.599 -0.0705  0.2679 -0.4226
   72CHL1    H8 7749   6.337   5.944   7.602  0.2871 -1.5424  0.5998
   72CHL1   C14 7750   6.174   5.875   7.734 -0.3319 -0.5850 -0.8586
   72CHL1   H14 7751   6.067   5.863   7.709 -0.8475 -1.2006  1.3781
   72CHL1   C15 7752   6.164   5.972   7.862 -0.4473  0.1498 -0.2206
   72CHL1  H15A 7753   6.257   6.033   7.870  1.5661 -2.8225  0.8407
   72CHL1  H15B 7754   6.075   6.038   7.866 -0.2552  0.4823 -1.1559
   72CHL1   C16 7755   6.163   5.873   7.974  0.1647 -0.1916  0.1154
   72CHL1  H16A 7756   6.261   5.869   8.026 -0.3010 -2.4845  0.9700
   72CHL1  H16B 7757   6.090   5.904   8.052 -1.1550 -1.3804 -0.5838
   72CHL1   C17 7758   6.149   5.732   7.907 -0.5465  0.4955 -0.5019
   72CHL1   H17 7759   6.042   5.727   7.878 -0.2367 -1.8306 -1.4700
   72CHL1   C13 7760   6.230   5.745   7.781  0.0280  0.3414  0.0762
   72CHL1   C18 7761   6.383   5.761   7.824  0.0336 -0.5375 -0.1951
   72CHL1  H18A 7762   6.395   5.670   7.887 -2.5234  2.7119  5.8881
   72CHL1  H18B 7763   6.440   5.761   7.729  1.4169  1.4448  0.5745
   72CHL1  H18C 7764   6.419   5.846   7.886  2.3814 -0.1734 -1.9297
   72CHL1   C12 7765   6.209   5.636   7.675  0.6600  1.3444  0.4499
   72CHL1  H12A 7766   6.247   5.542   7.721 -0.9891  1.1635  1.5165
   72CHL1  H12B 7767   6.099   5.624   7.665  0.8580 -0.1674 -0.2213
   72CHL1   C11 7768   6.268   5.675   7.541  0.0843  0.4442 -0.3423
   72CHL1  H11A 7769   6.378   5.684   7.557  0.4001 -0.8959 -1.5345
   72CHL1  H11B 7770   6.249   5.596   7.465 -1.6932  0.9385 -0.4582
   72CHL1    C9 7771   6.211   5.816   7.489  0.3793 -0.2333 -0.0119
   72CHL1    H9 7772   6.101   5.801   7.484  0.2189  0.8808  0.1067
   72CHL1   C10 7773   6.261   5.864   7.351  0.1243 -0.6824 -0.6191
   72CHL1   C19 7774   6.419   5.877   7.350 -0.0442  0.0800  0.3781
   72CHL1  H19A 7775   6.458   5.915   7.253  0.0846 -0.8976  0.0394
   72CHL1  H19B 7776   6.437   5.945   7.436 -0.8863  1.3525 -0.4041
   72CHL1  H19C 7777   6.453   5.774   7.372 -3.2286 -0.6704  2.3876
   72CHL1    C1 7778   6.220   5.762   7.246 -0.5489  0.0587  0.6564
   72CHL1   H1A 7779   6.280   5.671   7.266 -0.9643 -0.7347 -1.4373
   72CHL1   H1B 7780   6.115   5.726   7.241 -0.1346 -1.4406  2.0107
   72CHL1    C2 7781   6.245   5.804   7.097 -0.1040 -0.0823 -0.2551
   72CHL1   H2A 7782   6.217   5.719   7.031 -2.3767  0.2030  0.2583
   72CHL1   H2B 7783   6.353   5.829   7.084  0.2092 -0.1964  1.7229
   72CHL1   C20 7784   6.174   5.612   8.007 -0.3592 -0.2620  0.2750
   72CHL1   H20 7785   6.276   5.570   7.992  0.5478  0.8362  2.8386
   72CHL1   C21 7786   6.076   5.500   7.972 -0.7887  0.3369  0.6822
   72CHL1  H21A 7787   6.081   5.478   7.863  2.2240 -1.3007  1.0328
   72CHL1  H21B 7788   5.971   5.526   7.997 -1.3520 -0.9538 -0.2085
   72CHL1  H21C 7789   6.110   5.412   8.029  0.4676  1.2263  1.3475
   72CHL1   C22 7790   6.159   5.660   8.151 -0.0511 -0.0121  0.6463
   72CHL1  H22A 7791   6.256   5.705   8.181  0.6939 -0.8327 -0.4376
   72CHL1  H22B 7792   6.078   5.734   8.168 -0.3358 -0.4566  1.2682
   72CHL1   C23 7793   6.140   5.550   8.259  0.0321  0.2638  0.3789
   72CHL1  H23A 7794   6.043   5.502   8.234  0.7638  0.1202 -2.4311
   72CHL1  H23B 7795   6.212   5.470   8.234  2.2366  2.7510 -1.9174
   72CHL1   C24 7796   6.172   5.593   8.400  0.1638 -0.3122 -0.0386
   72CHL1  H24A 7797   6.190   5.515   8.476 -0.5437 -0.0200  0.4343
   72CHL1  H24B 7798   6.268   5.649   8.397  0.1325 -0.1246  1.4660
   72CHL1   C25 7799   6.067   5.690   8.453  0.6010 -0.1445  1.1230
   72CHL1   H25 7800   6.051   5.770   8.378  2.6503 -0.5382  0.1843
   72CHL1   C26 7801   5.931   5.620   8.473 -0.6459 -0.3692  0.3302
   72CHL1  H26A 7802   5.943   5.532   8.540 -0.5166 -0.2620  0.4492
   72CHL1  H26B 7803   5.866   5.693   8.525 -0.9493 -0.6629  0.3636
   72CHL1  H26C 7804   5.879   5.579   8.385 -0.4827 -0.5665  0.3247
   72CHL1   C27 7805   6.119   5.746   8.586 -0.5241 -0.0337 -0.4833
   72CHL1  H27A 7806   6.178   5.672   8.643 -2.9013 -1.1657  0.6085
   72CHL1  H27B 7807   6.179   5.839   8.573 -0.6751  0.0037 -0.9259
   72CHL1  H27C 7808   6.036   5.763   8.657  0.2551 -1.2616  0.7604
   73CHL1    C3 7809   3.102   0.354   6.878  1.1209  0.2363 -0.0814
   73CHL1    H3 7810   3.030   0.439   6.883 -0.2603 -0.9281  0.8133
   73CHL1    O3 7811   3.167   0.349   6.755 -0.2504  0.0214  0.4885
   73CHL1   H3' 7812   3.218   0.268   6.748  1.0317  0.9221 -1.4013
   73CHL1    C4 7813   3.200   0.389   6.982 -0.4492 -0.0698 -0.5535
   73CHL1   H4A 7814   3.283   0.316   6.975 -0.3685 -0.1722  0.9753
   73CHL1   H4B 7815   3.237   0.490   6.954  1.2596  0.0168  1.7217
   73CHL1    C5 7816   3.144   0.398   7.124 -0.8851 -0.0929  0.3906
   73CHL1    C6 7817   3.155   0.504   7.206  0.5717  0.3254  0.4698
   73CHL1    H6 7818   3.199   0.602   7.185  1.8104  1.1940  5.7987
   73CHL1    C7 7819   3.107   0.501   7.347  0.1027 -0.4402  0.9312
   73CHL1   H7A 7820   3.178   0.549   7.418  1.1746 -0.7935  0.1266
   73CHL1   H7B 7821   3.006   0.546   7.351 -1.3373 -3.1791 -0.9760
   73CHL1    C8 7822   3.070   0.360   7.406 -0.4318 -1.1521  0.2695
   73CHL1    H8 7823   3.170   0.324   7.441  0.8377  0.8431 -1.0513
   73CHL1   C14 7824   2.997   0.373   7.544 -0.5247  0.9410 -0.2556
   73CHL1   H14 7825   2.895   0.412   7.525 -1.2678 -0.7110  0.1423
   73CHL1   C15 7826   3.057   0.459   7.654  0.1162 -0.3561  0.0821
   73CHL1  H15A 7827   3.155   0.424   7.693  1.1676 -0.7331 -2.6297
   73CHL1  H15B 7828   3.076   0.567   7.633  1.2061 -0.6067 -0.3064
   73CHL1   C16 7829   2.967   0.439   7.770  0.0426  0.3928  0.0977
   73CHL1  H16A 7830   3.024   0.438   7.866 -0.2914  2.0781  0.3424
   73CHL1  H16B 7831   2.901   0.527   7.786 -1.7385 -0.9516  0.5169
   73CHL1   C17 7832   2.891   0.304   7.742 -0.4583 -0.2573  0.1845
   73CHL1   H17 7833   2.788   0.333   7.715 -0.0907  2.6790  1.5410
   73CHL1   C13 7834   2.963   0.239   7.617  0.4669 -0.3940  0.5496
   73CHL1   C18 7835   3.088   0.160   7.660 -0.4979 -0.0630 -0.9360
   73CHL1  H18A 7836   3.060   0.075   7.726 -0.2051  0.7785  0.2970
   73CHL1  H18B 7837   3.152   0.120   7.578 -0.5739 -0.8495 -0.6215
   73CHL1  H18C 7838   3.153   0.223   7.724 -1.6794 -0.6261  0.8588
   73CHL1   C12 7839   2.869   0.169   7.516 -0.6287  0.4226 -0.2571
   73CHL1  H12A 7840   2.849   0.069   7.560 -0.2886  1.3384  2.1844
   73CHL1  H12B 7841   2.781   0.237   7.515 -0.5315  0.6611  1.9497
   73CHL1   C11 7842   2.944   0.147   7.378  0.2042 -0.2245  0.2998
   73CHL1  H11A 7843   3.034   0.087   7.404  0.2888  0.5469  1.8801
   73CHL1  H11B 7844   2.878   0.090   7.309  2.1784  0.3021 -2.1818
   73CHL1    C9 7845   2.990   0.277   7.310  0.2404  0.3324  0.4390
   73CHL1    H9 7846   2.896   0.334   7.290 -0.3888 -0.8405 -0.1049
   73CHL1   C10 7847   3.065   0.270   7.170  0.4773 -0.0155  0.2589
   73CHL1   C19 7848   3.180   0.172   7.186  0.0924  0.2792 -0.0769
   73CHL1  H19A 7849   3.137   0.071   7.203 -1.7636  1.3746  2.2645
   73CHL1  H19B 7850   3.236   0.165   7.090 -1.9706  1.5341 -1.4483
   73CHL1  H19C 7851   3.247   0.200   7.270  0.1790 -1.6828  0.5511
   73CHL1    C1 7852   2.966   0.230   7.052 -0.1721 -0.0047  0.1482
   73CHL1   H1A 7853   2.932   0.128   7.079 -0.4588 -0.0180 -0.2460
   73CHL1   H1B 7854   2.882   0.304   7.057 -0.6150 -0.3526 -1.5050
   73CHL1    C2 7855   3.024   0.231   6.908 -0.4062  0.5666 -0.1504
   73CHL1   H2A 7856   2.941   0.208   6.838 -2.2998 -0.6927  2.3911
   73CHL1   H2B 7857   3.103   0.154   6.890 -0.2963  0.9492 -1.4533
   73CHL1   C20 7858   2.869   0.218   7.863 -0.1754 -0.3878  0.1617
   73CHL1   H20 7859   2.962   0.176   7.905 -0.6563 -1.5033  0.1390
   73CHL1   C21 7860   2.774   0.098   7.828 -0.5770 -0.8685 -0.4316
   73CHL1  H21A 7861   2.823   0.028   7.757 -0.1561 -2.0305  0.9629
   73CHL1  H21B 7862   2.671   0.133   7.805 -0.4180 -0.7283 -0.9315
   73CHL1  H21C 7863   2.764   0.041   7.923 -0.7161  0.1539  0.1899
   73CHL1   C22 7864   2.796   0.296   7.979 -0.1630  0.0810  0.3710
   73CHL1  H22A 7865   2.844   0.393   8.004  0.3405 -0.2738  0.7973
   73CHL1  H22B 7866   2.687   0.309   7.958  0.0320 -0.4493 -1.0276
   73CHL1   C23 7867   2.813   0.224   8.111 -0.0851  0.4442 -0.2289
   73CHL1  H23A 7868   2.772   0.121   8.109  1.1733 -0.0597 -1.4800
   73CHL1  H23B 7869   2.918   0.199   8.135 -0.1299 -0.5591 -1.0129
   73CHL1   C24 7870   2.760   0.298   8.240 -0.2142  0.0494 -0.1662
   73CHL1  H24A 7871   2.790   0.406   8.240  0.9472 -0.2554 -0.6576
   73CHL1  H24B 7872   2.650   0.304   8.227 -0.1092  1.2305 -0.6639
   73CHL1   C25 7873   2.794   0.233   8.377 -0.7283  0.3300  0.2290
   73CHL1   H25 7874   2.905   0.224   8.377 -0.7152  0.3182 -0.9592
   73CHL1   C26 7875   2.746   0.326   8.488 -0.2135  0.0703  0.3644
   73CHL1  H26A 7876   2.635   0.327   8.482 -0.3110 -2.2865  0.8254
   73CHL1  H26B 7877   2.789   0.291   8.584  3.7678 -0.4583 -1.4355
   73CHL1  H26C 7878   2.768   0.433   8.465 -0.3567  0.3529  1.4712
   73CHL1   C27 7879   2.733   0.093   8.392 -0.7396  0.1999  0.3415
   73CHL1  H27A 7880   2.640   0.078   8.332 -1.2746  0.5750  1.0642
   73CHL1  H27B 7881   2.809   0.022   8.353  0.0860  1.8745 -1.2568
   73CHL1  H27C 7882   2.711   0.067   8.498  0.0722  0.1615  0.5010
   74CHL1    C3 7883   3.044   1.018   6.694  0.0795  0.2088 -1.6792
   74CHL1    H3 7884   3.021   1.121   6.729 -1.2957 -0.7110  0.3545
   74CHL1    O3 7885   3.075   1.008   6.561 -0.0065 -0.3918 -0.5267
   74CHL1   H3' 7886   3.104   0.919   6.543 -4.1005 -2.3200  1.1346
   74CHL1    C4 7887   3.147   0.957   6.790  0.0320 -0.6956  0.4514
   74CHL1   H4A 7888   3.158   0.850   6.764 -0.1760 -0.1366 -2.2579
   74CHL1   H4B 7889   3.240   1.009   6.760 -1.0373  1.6860  1.0349
   74CHL1    C5 7890   3.097   0.983   6.936 -0.1132 -0.7505 -0.3958
   74CHL1    C6 7891   3.165   1.066   7.016 -0.6731  0.2091 -0.9200
   74CHL1    H6 7892   3.262   1.097   6.974  0.6672 -2.4432  0.0153
   74CHL1    C7 7893   3.127   1.097   7.156  0.4247 -1.0043  0.6989
   74CHL1   H7A 7894   3.208   1.116   7.229  0.9379  2.2541 -0.5360
   74CHL1   H7B 7895   3.076   1.195   7.156  0.3916 -1.0203  0.5547
   74CHL1    C8 7896   3.034   0.989   7.217  0.1542  0.2223  0.3911
   74CHL1    H8 7897   3.094   0.898   7.239  0.4700  1.0284  3.2307
   74CHL1   C14 7898   2.977   1.044   7.351  0.3858  0.0069 -0.0904
   74CHL1   H14 7899   2.929   1.141   7.325 -0.1338 -0.0838  0.4887
   74CHL1   C15 7900   3.067   1.069   7.460  0.1701 -0.9238 -0.8731
   74CHL1  H15A 7901   3.135   0.983   7.477  2.5802  1.0836  0.3861
   74CHL1  H15B 7902   3.142   1.150   7.446  0.7513 -0.8261  2.0930
   74CHL1   C16 7903   2.975   1.102   7.582 -0.4832 -0.3204  0.1789
   74CHL1  H16A 7904   3.005   1.045   7.672  0.2213 -1.9774 -1.0469
   74CHL1  H16B 7905   2.954   1.210   7.599 -1.0990 -0.7844  2.8570
   74CHL1   C17 7906   2.836   1.032   7.543  0.3412  0.0421 -0.4426
   74CHL1   H17 7907   2.773   1.118   7.514  0.9941  0.5799 -0.2953
   74CHL1   C13 7908   2.865   0.959   7.415  0.1115 -0.3281  0.1721
   74CHL1   C18 7909   2.920   0.826   7.462 -0.7215  0.2086  0.1674
   74CHL1  H18A 7910   2.978   0.831   7.557  0.4899 -0.1356 -0.5260
   74CHL1  H18B 7911   2.827   0.767   7.476 -1.1222  0.7490 -0.1994
   74CHL1  H18C 7912   2.990   0.789   7.384  1.2093 -1.0447  2.3595
   74CHL1   C12 7913   2.761   0.937   7.307 -0.1936 -0.0764  0.1564
   74CHL1  H12A 7914   2.687   0.866   7.349  1.6188 -1.8278  0.5436
   74CHL1  H12B 7915   2.703   1.032   7.302  0.6028  0.4149  0.1444
   74CHL1   C11 7916   2.813   0.875   7.178 -0.8524 -0.5692  0.3699
   74CHL1  H11A 7917   2.851   0.772   7.199 -0.4780 -0.3851  0.6074
   74CHL1  H11B 7918   2.723   0.872   7.113 -1.0175  0.0397  0.5623
   74CHL1    C9 7919   2.924   0.956   7.117 -0.3504  0.0964  0.6398
   74CHL1    H9 7920   2.877   1.055   7.098 -3.5705 -1.0867  1.6762
   74CHL1   C10 7921   2.977   0.911   6.974 -0.6102  0.0288 -0.9093
   74CHL1   C19 7922   3.007   0.758   6.984 -0.6568  0.2439 -0.0828
   74CHL1  H19A 7923   3.076   0.729   7.066 -0.7505  0.1142 -0.0487
   74CHL1  H19B 7924   2.907   0.709   6.989 -1.1170  0.6272 -3.2728
   74CHL1  H19C 7925   3.041   0.718   6.886 -0.1361  1.4112 -0.3951
   74CHL1    C1 7926   2.866   0.938   6.868 -0.3883 -1.0617 -0.3739
   74CHL1   H1A 7927   2.774   0.879   6.888 -0.1634 -0.4748  2.8657
   74CHL1   H1B 7928   2.831   1.042   6.889 -1.1854 -0.8225 -2.6365
   74CHL1    C2 7929   2.910   0.937   6.724 -0.3763 -0.7094 -0.3378
   74CHL1   H2A 7930   2.828   0.982   6.664 -0.8936  0.1260  0.9435
   74CHL1   H2B 7931   2.922   0.830   6.697 -0.3522 -0.3958 -1.6521
   74CHL1   C20 7932   2.756   0.975   7.663  0.2776  0.1441  0.9801
   74CHL1   H20 7933   2.813   0.893   7.711  1.5386  2.3195  3.4633
   74CHL1   C21 7934   2.625   0.913   7.615  0.0048  0.7330 -0.5254
   74CHL1  H21A 7935   2.573   0.859   7.698  0.8851  0.0801 -0.3859
   74CHL1  H21B 7936   2.658   0.844   7.535  2.0735  0.3646  0.5844
   74CHL1  H21C 7937   2.556   0.993   7.580 -0.8154 -0.8526 -2.7854
   74CHL1   C22 7938   2.718   1.089   7.762 -0.0724 -0.0451  0.0858
   74CHL1  H22A 7939   2.810   1.121   7.815  0.9533 -0.5887 -1.2944
   74CHL1  H22B 7940   2.690   1.180   7.706 -0.2797  0.6890  1.3547
   74CHL1   C23 7941   2.611   1.059   7.869 -0.7696  0.1043  0.1192
   74CHL1  H23A 7942   2.598   1.159   7.917  0.8344  0.6365 -0.4828
   74CHL1  H23B 7943   2.509   1.044   7.828 -1.5896  2.4070  1.1088
   74CHL1   C24 7944   2.657   0.949   7.971 -0.2260  0.3050 -0.8189
   74CHL1  H24A 7945   2.678   0.854   7.917 -1.4219 -0.3255 -0.2247
   74CHL1  H24B 7946   2.756   0.991   8.002 -0.3188 -0.7264  1.0433
   74CHL1   C25 7947   2.559   0.928   8.082 -0.4112 -0.1958  0.1277
   74CHL1   H25 7948   2.460   0.912   8.034 -0.7515  2.0053 -0.0361
   74CHL1   C26 7949   2.600   0.819   8.176 -0.6893 -0.3148 -0.0308
   74CHL1  H26A 7950   2.528   0.787   8.255  2.1979 -1.8157  2.1801
   74CHL1  H26B 7951   2.619   0.735   8.106  1.5192  0.7061 -0.7389
   74CHL1  H26C 7952   2.694   0.846   8.230 -1.4915  0.3720  1.0767
   74CHL1   C27 7953   2.523   1.054   8.166 -0.1007 -0.3595 -0.5388
   74CHL1  H27A 7954   2.464   1.132   8.113 -1.3656  0.6281  2.1465
   74CHL1  H27B 7955   2.449   1.021   8.242 -0.5358  2.8537  0.5782
   74CHL1  H27C 7956   2.606   1.096   8.227 -1.4622 -2.0403  2.7042
   75CHL1    C3 7957   0.192   1.046   6.961  0.1499 -0.5289 -0.4914
   75CHL1    H3 7958   0.155   0.943   6.981 -0.6539 -0.3655 -1.0885
   75CHL1    O3 7959   0.194   1.057   6.821 -0.4557 -0.2780  0.0438
   75CHL1   H3' 7960   0.270   1.004   6.795  0.6925  0.2207  2.1501
   75CHL1    C4 7961   0.106   1.146   7.036 -0.4145  0.3015 -0.2498
   75CHL1   H4A 7962   0.135   1.249   7.008 -1.3550  0.8921  0.8737
   75CHL1   H4B 7963   0.005   1.130   6.993 -0.0707 -0.5053 -0.7960
   75CHL1    C5 7964   0.115   1.139   7.191 -0.1095  0.0091  0.7601
   75CHL1    C6 7965  -0.005   1.114   7.251 -0.3993 -0.4912  0.1274
   75CHL1    H6 7966  -0.096   1.103   7.190 -1.5370  0.1913  1.6379
   75CHL1    C7 7967  -0.025   1.083   7.399  0.8762 -1.2047 -0.3126
   75CHL1   H7A 7968  -0.116   1.138   7.431  0.5646 -1.5683 -0.5570
   75CHL1   H7B 7969  -0.044   0.977   7.427 -1.7428 -0.4517  1.0533
   75CHL1    C8 7970   0.102   1.131   7.473  0.4958  0.0889  0.4141
   75CHL1    H8 7971   0.099   1.242   7.465  0.3602 -0.0364 -2.1246
   75CHL1   C14 7972   0.091   1.086   7.615 -0.0613 -0.3859 -0.6640
   75CHL1   H14 7973   0.093   0.975   7.615  0.3991 -0.3819 -0.1719
   75CHL1   C15 7974  -0.046   1.108   7.686 -0.0389  0.2210 -0.2046
   75CHL1  H15A 7975  -0.088   1.209   7.669 -0.7076 -0.1640 -0.8777
   75CHL1  H15B 7976  -0.129   1.041   7.658 -1.2980  1.1238  1.2320
   75CHL1   C16 7977  -0.006   1.079   7.831  0.2274  0.1652 -0.0395
   75CHL1  H16A 7978  -0.036   1.165   7.894 -1.2900  0.4678 -1.1249
   75CHL1  H16B 7979  -0.060   0.992   7.875 -0.8123  0.0767 -1.4004
   75CHL1   C17 7980   0.149   1.081   7.844  0.7169 -0.6218  0.4853
   75CHL1   H17 7981   0.189   0.977   7.846 -0.3478 -1.0461  0.2265
   75CHL1   C13 7982   0.200   1.136   7.704  0.7267  0.0922 -0.2814
   75CHL1   C18 7983   0.202   1.288   7.711  0.3868  0.3087  0.4567
   75CHL1  H18A 7984   0.104   1.326   7.747  1.0305 -0.4641  3.2626
   75CHL1  H18B 7985   0.273   1.325   7.788  2.5223  0.6550 -1.5561
   75CHL1  H18C 7986   0.214   1.342   7.615  1.9681 -0.8194 -0.0154
   75CHL1   C12 7987   0.334   1.085   7.656  0.0118 -0.3395  0.1531
   75CHL1  H12A 7988   0.421   1.103   7.722 -1.0724 -0.5750  1.6814
   75CHL1  H12B 7989   0.327   0.975   7.644 -0.7847 -0.7287  3.3886
   75CHL1   C11 7990   0.355   1.129   7.508 -0.3656 -0.4259 -0.0935
   75CHL1  H11A 7991   0.365   1.240   7.505 -3.7192 -0.0228  0.0170
   75CHL1  H11B 7992   0.443   1.064   7.486 -1.6822 -2.9218  1.6050
   75CHL1    C9 7993   0.235   1.101   7.408 -0.0720  0.3053 -0.2994
   75CHL1    H9 7994   0.228   0.990   7.401 -3.4113  0.4558 -0.7369
   75CHL1   C10 7995   0.246   1.141   7.257 -0.0767  0.5048 -0.4980
   75CHL1   C19 7996   0.306   1.279   7.248 -0.1876  0.3981  0.3575
   75CHL1  H19A 7997   0.288   1.330   7.151 -0.5681  0.1585  0.2992
   75CHL1  H19B 7998   0.260   1.337   7.331  0.7027 -0.3789  1.4221
   75CHL1  H19C 7999   0.417   1.283   7.253  0.1965  0.5146 -4.2759
   75CHL1    C1 8000   0.333   1.043   7.171  0.0353 -0.4588 -0.0863
   75CHL1   H1A 8001   0.436   1.054   7.213  0.8151 -1.1545 -1.7164
   75CHL1   H1B 8002   0.304   0.938   7.189  0.1731 -1.0517 -2.8753
   75CHL1    C2 8003   0.334   1.062   7.015  0.4473 -0.0072 -0.2315
   75CHL1   H2A 8004   0.397   0.979   6.976  1.2873 -0.5607  2.0869
   75CHL1   H2B 8005   0.393   1.149   6.979  0.7286 -0.3766 -0.6713
   75CHL1   C20 8006   0.207   1.145   7.978 -0.0896  0.6185  0.1399
   75CHL1   H20 8007   0.170   1.249   7.979 -1.4231  0.2839 -2.9060
   75CHL1   C21 8008   0.357   1.157   7.986 -0.6903 -0.6386 -0.8373
   75CHL1  H21A 8009   0.395   1.054   8.002 -0.2310 -0.5805 -1.4876
   75CHL1  H21B 8010   0.395   1.220   8.069  0.9302 -2.3697 -0.1981
   75CHL1  H21C 8011   0.404   1.200   7.894 -0.7796  2.0742  0.2901
   75CHL1   C22 8012   0.147   1.071   8.101  0.0379 -0.5018 -0.0865
   75CHL1  H22A 8013   0.039   1.051   8.083 -0.2473 -0.4690  1.4715
   75CHL1  H22B 8014   0.188   0.968   8.108  0.2468 -0.7652 -3.4368
   75CHL1   C23 8015   0.163   1.153   8.233 -0.1004  0.2449 -0.6261
   75CHL1  H23A 8016   0.269   1.136   8.259  0.7523 -0.2144 -3.9811
   75CHL1  H23B 8017   0.154   1.263   8.215  0.5057  0.3005 -0.5935
   75CHL1   C24 8018   0.077   1.114   8.346  0.3037 -0.2899  0.3660
   75CHL1  H24A 8019   0.098   1.193   8.421 -0.6570  0.9681 -0.6396
   75CHL1  H24B 8020  -0.031   1.133   8.326  0.4630  2.3134  1.5447
   75CHL1   C25 8021   0.077   0.975   8.400 -0.2744  0.1685 -0.7452
   75CHL1   H25 8022   0.057   0.900   8.320  1.9052 -0.9756 -0.2960
   75CHL1   C26 8023   0.223   0.959   8.455 -0.2700  0.3810 -0.1380
   75CHL1  H26A 8024   0.215   0.877   8.529  4.0325 -1.2023 -1.1376
   75CHL1  H26B 8025   0.286   0.914   8.376 -1.3644 -1.0624 -0.2316
   75CHL1  H26C 8026   0.267   1.047   8.506  2.6905 -2.4328  2.6064
   75CHL1   C27 8027  -0.016   0.949   8.523 -0.5109 -0.0918  0.0036
   75CHL1  H27A 8028  -0.013   0.840   8.543  1.6231  0.2355  1.8667
   75CHL1  H27B 8029   0.016   1.007   8.612 -0.6091  0.1688 -0.1291
   75CHL1  H27C 8030  -0.121   0.973   8.496  0.3116  1.4425 -2.1066
   76CHL1    C3 8031   5.947   4.080   7.119 -0.6684  0.1429 -0.3733
   76CHL1    H3 8032   5.853   4.022   7.119  0.4528 -1.7950  1.1116
   76CHL1    O3 8033   5.983   4.089   6.977  0.0037 -0.0558 -0.2096
   76CHL1   H3' 8034   6.014   4.003   6.950 -2.1495 -0.6082 -1.1407
   76CHL1    C4 8035   5.938   4.217   7.180  0.2747 -0.4413 -0.1772
   76CHL1   H4A 8036   6.029   4.280   7.171  0.4402 -0.2186  2.3975
   76CHL1   H4B 8037   5.864   4.270   7.117  1.7472  1.8449 -0.0848
   76CHL1    C5 8038   5.904   4.217   7.337  0.4265 -0.1866  0.2399
   76CHL1    C6 8039   5.794   4.284   7.388 -0.0011  0.6586  0.6821
   76CHL1    H6 8040   5.735   4.347   7.319 -2.1650 -1.1880  0.7116
   76CHL1    C7 8041   5.759   4.283   7.539  0.4686 -0.7646  0.0989
   76CHL1   H7A 8042   5.747   4.387   7.576  1.3550 -0.0879 -1.4105
   76CHL1   H7B 8043   5.660   4.235   7.556 -1.0266  1.7871 -0.7697
   76CHL1    C8 8044   5.871   4.221   7.623 -0.5084  0.4741 -0.2958
   76CHL1    H8 8045   5.956   4.293   7.623 -1.0340  1.1116 -0.1366
   76CHL1   C14 8046   5.822   4.184   7.761  0.1992  0.4981 -0.5511
   76CHL1   H14 8047   5.745   4.106   7.741  1.6079 -1.7864  2.1088
   76CHL1   C15 8048   5.758   4.293   7.839  0.8072 -0.0674 -0.5514
   76CHL1  H15A 8049   5.806   4.392   7.823 -2.4851  1.6327 -0.7432
   76CHL1  H15B 8050   5.651   4.306   7.814  0.6539 -0.6499 -0.2113
   76CHL1   C16 8051   5.770   4.228   7.977  0.0823  1.3969  0.0135
   76CHL1  H16A 8052   5.811   4.300   8.051 -3.4671  1.4889  2.1246
   76CHL1  H16B 8053   5.668   4.213   8.019 -0.0378  1.7001 -0.1679
   76CHL1   C17 8054   5.845   4.098   7.976  0.2111  0.4518  0.2891
   76CHL1   H17 8055   5.794   4.000   7.962  0.3856  0.6032 -1.7890
   76CHL1   C13 8056   5.926   4.110   7.850 -0.5666 -0.0633 -0.8247
   76CHL1   C18 8057   6.048   4.199   7.875  0.3184  0.2154  0.0061
   76CHL1  H18A 8058   6.021   4.298   7.917  0.9927  0.3024  0.2479
   76CHL1  H18B 8059   6.115   4.146   7.947  0.9638  0.0868 -0.6761
   76CHL1  H18C 8060   6.111   4.215   7.785  0.2203 -1.2518 -0.3417
   76CHL1   C12 8061   5.963   3.976   7.785  0.5478  0.1551  0.5107
   76CHL1  H12A 8062   6.034   3.921   7.850 -0.3065 -0.4457  0.9629
   76CHL1  H12B 8063   5.869   3.918   7.772  0.7958 -0.0084 -0.6453
   76CHL1   C11 8064   6.027   3.998   7.648 -0.5149  0.8028  0.0813
   76CHL1  H11A 8065   6.131   4.038   7.660 -0.5270  0.6930  0.5648
   76CHL1  H11B 8066   6.040   3.897   7.604  0.0975  0.8596  0.1134
   76CHL1    C9 8067   5.933   4.093   7.554  0.6632 -0.6554 -0.0510
   76CHL1    H9 8068   5.845   4.026   7.536 -2.4845  2.4639  2.3955
   76CHL1   C10 8069   5.995   4.125   7.416  0.6705  0.8421 -0.0158
   76CHL1   C19 8070   6.132   4.192   7.442  0.0067  0.0504 -0.5216
   76CHL1  H19A 8071   6.185   4.210   7.346  1.6369 -0.4340  0.2442
   76CHL1  H19B 8072   6.134   4.284   7.503 -3.1138  0.3360 -0.7251
   76CHL1  H19C 8073   6.205   4.129   7.498  0.0328  0.0565 -0.5485
   76CHL1    C1 8074   6.017   3.987   7.344  0.0638 -0.5973 -0.9759
   76CHL1   H1A 8075   6.102   3.936   7.393 -0.0127  0.9045  0.8161
   76CHL1   H1B 8076   5.925   3.926   7.355  0.1315 -0.4717  0.3284
   76CHL1    C2 8077   6.047   3.995   7.196  0.1763  0.3790  0.0788
   76CHL1   H2A 8078   6.040   3.894   7.149 -0.3659  1.2988 -1.9089
   76CHL1   H2B 8079   6.150   4.027   7.173 -0.1568  0.5085 -1.3588
   76CHL1   C20 8080   5.916   4.070   8.111  0.1361  0.6376  0.7347
   76CHL1   H20 8081   5.976   4.160   8.137  1.1174  0.0136  0.6852
   76CHL1   C21 8082   6.008   3.943   8.113  0.3500  0.9546 -0.4609
   76CHL1  H21A 8083   6.095   3.961   8.047  0.7172  3.3541  0.5538
   76CHL1  H21B 8084   5.941   3.859   8.084 -0.5246  0.0381  3.6051
   76CHL1  H21C 8085   6.044   3.917   8.215 -2.4889 -0.2000  0.3435
   76CHL1   C22 8086   5.816   4.071   8.232 -0.0360 -0.2913 -0.3594
   76CHL1  H22A 8087   5.745   4.156   8.228  2.0884  1.5299 -1.6673
   76CHL1  H22B 8088   5.768   3.971   8.224 -0.2367 -0.1879 -0.4282
   76CHL1   C23 8089   5.883   4.073   8.372  0.8059  0.5495 -0.4018
   76CHL1  H23A 8090   5.960   3.993   8.380  1.3156  1.0719  0.0239
   76CHL1  H23B 8091   5.941   4.164   8.399 -0.1857  0.7828  1.0396
   76CHL1   C24 8092   5.780   4.055   8.486 -0.1536  0.0228  0.0454
   76CHL1  H24A 8093   5.715   4.146   8.488  1.0500  0.9170 -0.0346
   76CHL1  H24B 8094   5.715   3.973   8.451  1.0089 -0.9502  0.1165
   76CHL1   C25 8095   5.825   4.033   8.634 -0.0801 -0.0597 -0.3282
   76CHL1   H25 8096   5.736   4.020   8.698 -0.8509  0.9332 -1.1609
   76CHL1   C26 8097   5.913   3.903   8.653 -0.0907 -0.2958 -0.2839
   76CHL1  H26A 8098   5.943   3.902   8.759  0.0260 -1.1672 -0.3184
   76CHL1  H26B 8099   5.849   3.818   8.621 -0.8389 -0.5767  1.8097
   76CHL1  H26C 8100   5.993   3.902   8.576  0.9312 -2.1385  0.7384
   76CHL1   C27 8101   5.902   4.153   8.681  0.4839  0.0764 -0.4191
   76CHL1  H27A 8102   5.919   4.120   8.786 -0.3465  0.8806 -0.0166
   76CHL1  H27B 8103   5.996   4.156   8.622 -0.8784  1.1806 -2.6677
   76CHL1  H27C 8104   5.837   4.243   8.674 -2.1938 -1.6226  0.7381
   77CHL1    C3 8105   4.573   6.210   6.857  0.4634  0.2921  0.1886
   77CHL1    H3 8106   4.481   6.192   6.916 -1.3369 -4.1161 -3.2902
   77CHL1    O3 8107   4.544   6.151   6.731 -0.4408 -0.3704  0.7755
   77CHL1   H3' 8108   4.631   6.156   6.690 -0.3953  0.5623  0.9505
   77CHL1    C4 8109   4.605   6.355   6.834  0.5676 -0.1602  0.2385
   77CHL1   H4A 8110   4.690   6.370   6.765  0.0532  0.4404 -0.2820
   77CHL1   H4B 8111   4.520   6.403   6.782 -0.8934 -0.1204  2.5326
   77CHL1    C5 8112   4.641   6.421   6.965  0.7310  0.2882 -0.1278
   77CHL1    C6 8113   4.573   6.528   7.007  0.0330 -0.3235  0.3674
   77CHL1    H6 8114   4.496   6.566   6.938 -0.1353 -0.6218  0.3915
   77CHL1    C7 8115   4.626   6.614   7.122 -0.7202  0.0539  0.2732
   77CHL1   H7A 8116   4.652   6.719   7.095  0.8707  0.0271  1.5165
   77CHL1   H7B 8117   4.552   6.623   7.205 -0.1599  0.2665  0.7602
   77CHL1    C8 8118   4.755   6.554   7.191 -1.0135  0.5733 -0.3987
   77CHL1    H8 8119   4.843   6.606   7.148 -0.6064 -0.5684 -0.9680
   77CHL1   C14 8120   4.767   6.608   7.338  0.1488  0.5106  0.4065
   77CHL1   H14 8121   4.674   6.567   7.384 -0.3694  1.2609  0.0272
   77CHL1   C15 8122   4.764   6.762   7.362 -0.0612 -0.5452 -0.3090
   77CHL1  H15A 8123   4.824   6.819   7.287 -0.2200 -0.7461 -0.5902
   77CHL1  H15B 8124   4.660   6.801   7.373 -0.1684 -0.8330 -0.3116
   77CHL1   C16 8125   4.834   6.773   7.501  0.1828 -1.0701  0.8547
   77CHL1  H16A 8126   4.927   6.831   7.484 -0.4357 -0.4917 -0.9066
   77CHL1  H16B 8127   4.767   6.827   7.571  1.2617 -0.5568  1.5147
   77CHL1   C17 8128   4.871   6.633   7.550 -0.8057  0.1675 -0.1656
   77CHL1   H17 8129   4.785   6.592   7.607 -0.3813 -0.5757 -0.0467
   77CHL1   C13 8130   4.889   6.558   7.419  0.3826 -0.3817 -0.1339
   77CHL1   C18 8131   5.020   6.605   7.340  0.1166  0.3050  0.0324
   77CHL1  H18A 8132   5.106   6.587   7.408 -0.4351  1.2719  1.0300
   77CHL1  H18B 8133   5.045   6.545   7.250 -0.4517 -0.2319  0.2292
   77CHL1  H18C 8134   5.007   6.711   7.309  1.8219  0.2999 -0.7959
   77CHL1   C12 8135   4.877   6.400   7.421  0.4858  0.4693 -0.9698
   77CHL1  H12A 8136   4.965   6.355   7.471  1.3347  0.4227 -2.4372
   77CHL1  H12B 8137   4.793   6.370   7.487  1.6055 -0.9951 -0.1474
   77CHL1   C11 8138   4.875   6.338   7.276 -0.0699 -0.3160 -0.8586
   77CHL1  H11A 8139   4.976   6.357   7.234  0.1090  1.0137  0.1125
   77CHL1  H11B 8140   4.849   6.230   7.284 -0.1513 -0.2188  0.2778
   77CHL1    C9 8141   4.766   6.404   7.182  0.1020  0.4484  0.1954
   77CHL1    H9 8142   4.675   6.370   7.236  0.5682 -0.7136  0.2774
   77CHL1   C10 8143   4.764   6.345   7.031  0.2287  0.3825 -0.6932
   77CHL1   C19 8144   4.897   6.376   6.957 -0.2800  0.6706 -0.0260
   77CHL1  H19A 8145   4.971   6.316   7.015 -0.3391  1.7982  1.2700
   77CHL1  H19B 8146   4.894   6.349   6.850 -1.5654 -2.2178  0.6310
   77CHL1  H19C 8147   4.922   6.484   6.965  2.9175 -0.0784  2.0345
   77CHL1    C1 8148   4.732   6.194   7.047  0.2328 -0.5250  0.1385
   77CHL1   H1A 8149   4.832   6.154   7.074  0.1195 -0.8725  0.0551
   77CHL1   H1B 8150   4.654   6.177   7.125  1.7550 -1.7115  1.4880
   77CHL1    C2 8151   4.686   6.132   6.915  0.5113  0.2660  0.0259
   77CHL1   H2A 8152   4.667   6.023   6.915  2.5367 -0.1288  0.4102
   77CHL1   H2B 8153   4.770   6.141   6.842 -0.1856  4.6322 -0.4861
   77CHL1   C20 8154   4.997   6.637   7.647 -0.1783 -0.3718  0.4287
   77CHL1   H20 8155   5.085   6.689   7.602  0.9732 -1.3654  1.4340
   77CHL1   C21 8156   5.044   6.495   7.679  0.5100  0.4691 -0.0405
   77CHL1  H21A 8157   5.093   6.444   7.593 -0.5798 -2.5552  1.0164
   77CHL1  H21B 8158   4.961   6.430   7.713 -0.9558  1.7486 -1.0237
   77CHL1  H21C 8159   5.124   6.511   7.754  0.2773 -1.3895  0.6584
   77CHL1   C22 8160   4.951   6.712   7.774  0.5008  0.3188  0.5314
   77CHL1  H22A 8161   4.908   6.808   7.739 -0.4719 -0.7249 -1.3226
   77CHL1  H22B 8162   4.866   6.657   7.822  0.7772 -0.9477 -0.3999
   77CHL1   C23 8163   5.056   6.726   7.884 -0.3171 -0.0643 -0.5440
   77CHL1  H23A 8164   5.066   6.621   7.919  0.3345  0.3088  0.4155
   77CHL1  H23B 8165   5.152   6.755   7.835  0.3857 -0.9344  0.2897
   77CHL1   C24 8166   5.003   6.807   7.991  0.2445  0.0505  0.0452
   77CHL1  H24A 8167   4.997   6.912   7.955 -0.1325 -0.1754 -0.5843
   77CHL1  H24B 8168   4.900   6.766   7.994 -0.2346  1.1866 -0.3836
   77CHL1   C25 8169   5.082   6.795   8.121  0.3354 -0.0255  0.0362
   77CHL1   H25 8170   5.084   6.690   8.157  1.0841 -0.4664 -1.2435
   77CHL1   C26 8171   5.233   6.830   8.094  1.2785  0.0478  1.0647
   77CHL1  H26A 8172   5.244   6.939   8.074 -0.3730  0.0113 -0.2617
   77CHL1  H26B 8173   5.293   6.790   8.179  1.9017 -2.6873 -0.5603
   77CHL1  H26C 8174   5.273   6.788   8.000 -1.4784 -0.1390 -0.1110
   77CHL1   C27 8175   5.020   6.864   8.242  0.3882  0.8182  0.1580
   77CHL1  H27A 8176   4.997   6.972   8.224 -4.2250  0.0383  0.0353
   77CHL1  H27B 8177   4.926   6.810   8.264  1.5552 -1.0618  0.7527
   77CHL1  H27C 8178   5.079   6.853   8.335 -2.0330  2.8710  2.0740
   78CHL1    C3 8179   1.314   3.508   6.839  0.1977 -0.8147  0.1870
   78CHL1    H3 8180   1.400   3.469   6.896  0.5408  1.2262  1.1451
   78CHL1    O3 8181   1.317   3.461   6.709 -0.3285  0.4382  0.1732
   78CHL1   H3' 8182   1.251   3.392   6.716 -0.3653  0.6038  1.8927
   78CHL1    C4 8183   1.182   3.498   6.907 -0.5128  0.5202  0.3501
   78CHL1   H4A 8184   1.097   3.548   6.855 -1.7168  0.7656  2.4538
   78CHL1   H4B 8185   1.174   3.388   6.904  1.6797  0.3117  0.5985
   78CHL1    C5 8186   1.192   3.547   7.046 -0.2144 -0.7379  0.3745
   78CHL1    C6 8187   1.173   3.472   7.153 -0.1383  0.3012 -0.6870
   78CHL1    H6 8188   1.153   3.364   7.146  1.8507 -0.1603  0.2233
   78CHL1    C7 8189   1.178   3.526   7.298  0.0930 -0.0039 -0.1009
   78CHL1   H7A 8190   1.097   3.477   7.357 -0.4663 -0.2989 -1.0860
   78CHL1   H7B 8191   1.276   3.495   7.341  1.2749 -0.3545 -2.8614
   78CHL1    C8 8192   1.179   3.676   7.307 -0.0258  0.1815  0.8209
   78CHL1    H8 8193   1.072   3.708   7.303 -0.3962 -0.9830  1.0995
   78CHL1   C14 8194   1.237   3.723   7.439 -0.1326  1.0786 -0.4824
   78CHL1   H14 8195   1.341   3.685   7.449 -0.9553 -1.3316 -0.2954
   78CHL1   C15 8196   1.158   3.656   7.558  0.0676 -0.0926 -0.4640
   78CHL1  H15A 8197   1.052   3.655   7.525  0.1252 -0.6927 -0.6476
   78CHL1  H15B 8198   1.186   3.553   7.589 -1.6286  0.5236  3.6433
   78CHL1   C16 8199   1.173   3.759   7.670 -0.2912 -0.1835 -0.4417
   78CHL1  H16A 8200   1.077   3.812   7.686  0.7802  1.5900  0.5422
   78CHL1  H16B 8201   1.200   3.719   7.770 -2.5110 -1.9747 -0.4938
   78CHL1   C17 8202   1.278   3.866   7.614 -0.1536  0.0686 -0.0302
   78CHL1   H17 8203   1.378   3.824   7.634 -0.5487 -0.8546  0.0339
   78CHL1   C13 8204   1.233   3.872   7.467  0.1857  0.8278  0.3819
   78CHL1   C18 8205   1.094   3.923   7.448  0.4504  0.0932  0.4010
   78CHL1  H18A 8206   1.010   3.869   7.497 -0.0784  0.7544  0.2485
   78CHL1  H18B 8207   1.073   4.023   7.492 -0.7075 -1.1509  2.9070
   78CHL1  H18C 8208   1.069   3.930   7.340 -1.1377 -0.2781  0.7232
   78CHL1   C12 8209   1.334   3.931   7.361 -0.0100  0.1198  0.5297
   78CHL1  H12A 8210   1.340   4.041   7.379 -1.0697 -0.0251  1.9167
   78CHL1  H12B 8211   1.433   3.880   7.372 -1.0156 -1.8862  0.7410
   78CHL1   C11 8212   1.305   3.894   7.215  0.1915 -0.2959  1.0206
   78CHL1  H11A 8213   1.218   3.955   7.185  0.5455 -0.4335 -0.3517
   78CHL1  H11B 8214   1.390   3.935   7.157  0.4233 -1.9499  0.1276
   78CHL1    C9 8215   1.274   3.748   7.200  0.7302  0.0648 -0.2862
   78CHL1    H9 8216   1.369   3.700   7.232  0.5446  0.7267  1.3397
   78CHL1   C10 8217   1.236   3.696   7.058  1.3833 -0.3305 -0.3714
   78CHL1   C19 8218   1.108   3.776   7.006 -0.8073  0.6224 -0.0907
   78CHL1  H19A 8219   1.081   3.745   6.902 -0.0470  0.0005 -0.1098
   78CHL1  H19B 8220   1.029   3.745   7.078 -1.3955  0.1454 -0.9245
   78CHL1  H19C 8221   1.117   3.887   7.007 -0.3501  0.6137 -1.2047
   78CHL1    C1 8222   1.359   3.725   6.959  0.3043  0.1704 -0.5003
   78CHL1   H1A 8223   1.348   3.835   6.943  1.7479  0.7394  1.7894
   78CHL1   H1B 8224   1.451   3.703   7.017 -1.2939 -0.6207  1.9242
   78CHL1    C2 8225   1.350   3.658   6.824 -0.8504  0.0983 -0.0552
   78CHL1   H2A 8226   1.445   3.668   6.768  0.6790 -1.5577  2.0601
   78CHL1   H2B 8227   1.277   3.699   6.751  0.3141  0.1922 -1.2103
   78CHL1   C20 8228   1.263   3.995   7.693  0.1935 -0.1478 -0.3101
   78CHL1   H20 8229   1.179   4.051   7.646  0.1361 -0.2841 -0.3714
   78CHL1   C21 8230   1.398   4.074   7.675 -0.3678  0.7560  0.0290
   78CHL1  H21A 8231   1.388   4.168   7.735 -0.3977 -1.4340  3.7344
   78CHL1  H21B 8232   1.423   4.091   7.568 -1.3575  0.5285 -0.2489
   78CHL1  H21C 8233   1.486   4.029   7.725 -0.6154  0.3225  0.0754
   78CHL1   C22 8234   1.224   3.990   7.842 -0.5795  0.5066  0.4633
   78CHL1  H22A 8235   1.214   4.088   7.894  0.8308  0.9337 -0.0257
   78CHL1  H22B 8236   1.124   3.941   7.840 -0.6300  0.6261  0.1167
   78CHL1   C23 8237   1.337   3.910   7.918 -0.6423  0.0775  0.7829
   78CHL1  H23A 8238   1.375   3.838   7.842 -3.0399 -0.5834  0.1316
   78CHL1  H23B 8239   1.415   3.976   7.960  0.9821 -1.1404 -0.1719
   78CHL1   C24 8240   1.288   3.817   8.035  0.1303 -0.0550 -0.7140
   78CHL1  H24A 8241   1.232   3.875   8.112  0.1279 -1.6312  0.5302
   78CHL1  H24B 8242   1.224   3.735   7.995  2.2683 -1.7386 -0.8716
   78CHL1   C25 8243   1.399   3.744   8.115  0.0408 -0.3701  0.0166
   78CHL1   H25 8244   1.443   3.660   8.056  1.0786  0.8522 -1.0118
   78CHL1   C26 8245   1.507   3.834   8.175  0.2961  0.2308 -0.5359
   78CHL1  H26A 8246   1.589   3.769   8.213 -2.1667 -2.6256  0.3169
   78CHL1  H26B 8247   1.556   3.902   8.102 -1.0569  2.1132  0.2385
   78CHL1  H26C 8248   1.477   3.907   8.252  1.9160 -0.3534  0.7192
   78CHL1   C27 8249   1.335   3.681   8.243 -0.4260 -0.4073  0.2023
   78CHL1  H27A 8250   1.420   3.633   8.296  1.8367  0.6992 -2.2180
   78CHL1  H27B 8251   1.291   3.766   8.298  3.3500  0.6009  2.0148
   78CHL1  H27C 8252   1.256   3.609   8.211  1.1324 -1.6506 -1.0465
   79CHL1    C3 8253   6.056   2.851   7.118 -0.1571  0.2800  0.4010
   79CHL1    H3 8254   6.164   2.826   7.124 -0.0859  0.1730 -0.9643
   79CHL1    O3 8255   6.023   2.849   6.982  0.1226  0.2685  0.5581
   79CHL1   H3' 8256   6.043   2.761   6.951 -1.9921  0.7402 -2.6317
   79CHL1    C4 8257   5.965   2.744   7.194 -0.3571 -0.1770 -0.2903
   79CHL1   H4A 8258   5.859   2.770   7.175 -0.3426 -0.2066 -0.4133
   79CHL1   H4B 8259   5.994   2.642   7.159  2.6103  0.8015 -0.9780
   79CHL1    C5 8260   5.984   2.758   7.343 -0.1330  0.2227 -0.1120
   79CHL1    C6 8261   6.017   2.652   7.421  0.7205 -0.0353 -0.0988
   79CHL1    H6 8262   6.043   2.562   7.364 -1.4105 -0.3052 -0.7417
   79CHL1    C7 8263   6.022   2.658   7.569 -0.3485 -0.5044 -0.4152
   79CHL1   H7A 8264   5.954   2.578   7.605 -1.6070  0.6907 -0.0337
   79CHL1   H7B 8265   6.126   2.649   7.607 -0.3023  4.1175  1.2202
   79CHL1    C8 8266   5.968   2.792   7.636 -0.2493 -0.2734 -0.2205
   79CHL1    H8 8267   5.857   2.791   7.627 -0.4079  1.3273  1.1505
   79CHL1   C14 8268   6.023   2.810   7.781 -0.7469  0.6884 -0.2383
   79CHL1   H14 8269   6.131   2.834   7.770 -0.2899 -1.1053  0.0312
   79CHL1   C15 8270   6.007   2.700   7.883  0.0879  0.7038  0.0823
   79CHL1  H15A 8271   5.904   2.660   7.877  0.3886 -0.2746  1.0346
   79CHL1  H15B 8272   6.074   2.611   7.877 -0.6958 -0.2032  3.0611
   79CHL1   C16 8273   6.025   2.769   8.023  0.0422  0.3600 -0.2736
   79CHL1  H16A 8274   5.938   2.730   8.082 -1.3233  1.5721 -1.4141
   79CHL1  H16B 8275   6.120   2.738   8.070 -0.5148 -0.7344  0.1679
   79CHL1   C17 8276   6.027   2.922   7.998  0.0907  0.0372 -0.9187
   79CHL1   H17 8277   6.134   2.952   7.985 -0.0312  0.7025 -0.4294
   79CHL1   C13 8278   5.969   2.933   7.853 -0.0707 -0.6389  0.2071
   79CHL1   C18 8279   5.813   2.922   7.867  0.4214  0.3571 -0.6196
   79CHL1  H18A 8280   5.777   3.008   7.929  1.1623  0.4160 -0.2656
   79CHL1  H18B 8281   5.766   2.940   7.768 -0.8825  0.2783 -0.0390
   79CHL1  H18C 8282   5.778   2.823   7.903  1.7550  0.1006  0.0251
   79CHL1   C12 8283   6.014   3.054   7.768  0.5169 -0.2229  0.6530
   79CHL1  H12A 8284   5.971   3.148   7.809 -0.4124  0.0700 -0.9179
   79CHL1  H12B 8285   6.125   3.064   7.769  0.4053  1.3854 -0.0737
   79CHL1   C11 8286   5.968   3.044   7.624  0.1097  0.3255 -0.4678
   79CHL1  H11A 8287   5.858   3.057   7.618 -0.2036  0.0369  2.6160
   79CHL1  H11B 8288   6.013   3.129   7.568 -0.2371  0.4994 -0.4866
   79CHL1    C9 8289   6.006   2.912   7.554  0.5993  0.1502  0.4520
   79CHL1    H9 8290   6.117   2.910   7.546  0.7017  2.4966  0.5757
   79CHL1   C10 8291   5.964   2.902   7.401  0.1150  0.2457 -0.8982
   79CHL1   C19 8292   5.808   2.938   7.385  0.2617  0.6397 -0.7548
   79CHL1  H19A 8293   5.776   2.935   7.278 -2.0638 -2.5543 -0.1249
   79CHL1  H19B 8294   5.737   2.886   7.453  0.5333 -0.3116 -1.1835
   79CHL1  H19C 8295   5.801   3.046   7.409  1.2136  0.8286 -1.2771
   79CHL1    C1 8296   6.055   2.997   7.320  1.1310  0.1946  0.5061
   79CHL1   H1A 8297   6.043   3.103   7.354 -1.9555 -0.3575  1.4252
   79CHL1   H1B 8298   6.160   2.963   7.334  0.6606 -1.8175 -0.4981
   79CHL1    C2 8299   6.032   2.994   7.166 -0.1966 -0.2582 -1.0109
   79CHL1   H2A 8300   6.097   3.056   7.100  1.0185 -0.8607 -0.4101
   79CHL1   H2B 8301   5.929   3.030   7.144  0.3008  0.8222 -1.6521
   79CHL1   C20 8302   5.985   3.008   8.117 -0.2000 -0.3992 -0.5921
   79CHL1   H20 8303   5.881   2.972   8.133 -0.2993  0.2000  0.2091
   79CHL1   C21 8304   5.993   3.166   8.096 -0.4999  0.3884  0.3583
   79CHL1  H21A 8305   6.094   3.198   8.062 -0.6357  0.3367 -0.0944
   79CHL1  H21B 8306   5.951   3.218   8.185  0.4871  1.5200  0.1827
   79CHL1  H21C 8307   5.930   3.180   8.006  1.7506  1.9706 -1.0900
   79CHL1   C22 8308   6.055   2.974   8.255  0.0352 -0.1755  0.7674
   79CHL1  H22A 8309   6.023   3.053   8.326 -1.5455  1.5216 -1.6693
   79CHL1  H22B 8310   6.005   2.888   8.305 -0.7716  0.6397  1.4003
   79CHL1   C23 8311   6.203   2.957   8.251 -1.2733  0.4511 -0.5377
   79CHL1  H23A 8312   6.228   2.859   8.204 -1.4698 -0.4000  1.0716
   79CHL1  H23B 8313   6.262   3.034   8.197 -0.9573  1.4129  1.1289
   79CHL1   C24 8314   6.259   2.969   8.397 -0.4744 -0.2903  0.0233
   79CHL1  H24A 8315   6.232   3.070   8.435 -0.1331  0.4716 -1.6599
   79CHL1  H24B 8316   6.207   2.905   8.472 -1.0178  1.6270  1.3693
   79CHL1   C25 8317   6.412   2.937   8.421  0.3438  0.1033  0.4270
   79CHL1   H25 8318   6.468   2.944   8.325 -1.0992 -0.4587 -0.4946
   79CHL1   C26 8319   6.480   3.041   8.512 -0.1497  0.7511 -0.1943
   79CHL1  H26A 8320   6.459   3.012   8.617 -1.3437 -0.0228 -0.6285
   79CHL1  H26B 8321   6.590   3.025   8.504 -0.3324 -0.1538 -1.1235
   79CHL1  H26C 8322   6.454   3.148   8.497 -0.7539  0.4681 -1.3211
   79CHL1   C27 8323   6.434   2.795   8.466 -0.0449 -0.7901  1.1423
   79CHL1  H27A 8324   6.539   2.758   8.457  0.3220 -0.9051  4.6693
   79CHL1  H27B 8325   6.403   2.769   8.569 -3.0954  0.7607  0.7091
   79CHL1  H27C 8326   6.365   2.732   8.406 -1.0482  0.7032  0.6818
   80CHL1    C3 8327   3.536   6.575   6.907 -0.5640 -0.1963  0.4203
   80CHL1    H3 8328   3.425   6.584   6.911 -0.4069  1.9788  1.1881
   80CHL1    O3 8329   3.566   6.575   6.767 -0.2637 -0.0959  0.4306
   80CHL1   H3' 8330   3.655   6.545   6.749 -0.4613 -1.7821  2.0130
   80CHL1    C4 8331   3.588   6.696   6.975 -1.0742 -0.1426  0.6128
   80CHL1   H4A 8332   3.695   6.709   6.950 -1.3619  0.7583 -0.1817
   80CHL1   H4B 8333   3.537   6.778   6.921  0.0579 -1.0920 -2.0564
   80CHL1    C5 8334   3.559   6.696   7.127 -0.1348 -0.1967  0.0085
   80CHL1    C6 8335   3.500   6.800   7.191  0.5940 -0.4198  0.9030
   80CHL1    H6 8336   3.490   6.897   7.140  0.5802 -0.1241  1.4582
   80CHL1    C7 8337   3.464   6.794   7.334 -0.0856  0.1945  0.2628
   80CHL1   H7A 8338   3.481   6.895   7.376 -0.0877  0.3551 -0.1237
   80CHL1   H7B 8339   3.357   6.776   7.359  0.2394  0.0462  1.6569
   80CHL1    C8 8340   3.550   6.696   7.416  0.9049 -0.5399 -0.7469
   80CHL1    H8 8341   3.653   6.739   7.418  1.8131 -2.4496  2.3469
   80CHL1   C14 8342   3.496   6.674   7.562 -0.5004  0.7882 -0.5489
   80CHL1   H14 8343   3.396   6.629   7.544  0.0804 -0.6231 -0.4396
   80CHL1   C15 8344   3.487   6.801   7.647 -0.2692 -0.0213 -0.4810
   80CHL1  H15A 8345   3.569   6.868   7.613  1.4631  0.2047  3.5638
   80CHL1  H15B 8346   3.387   6.848   7.634  0.2011  1.2229  0.2122
   80CHL1   C16 8347   3.503   6.766   7.790 -0.0178  0.0500  0.3832
   80CHL1  H16A 8348   3.594   6.817   7.829 -0.0162  0.0586  0.3679
   80CHL1  H16B 8349   3.414   6.798   7.847  0.2927 -0.3823  1.1179
   80CHL1   C17 8350   3.513   6.609   7.789  0.5827 -0.5898  0.4372
   80CHL1   H17 8351   3.412   6.564   7.794  0.8495 -1.2597 -0.0445
   80CHL1   C13 8352   3.573   6.577   7.650  0.0751 -0.0014  0.6574
   80CHL1   C18 8353   3.726   6.611   7.639  0.4014  0.9722  0.1318
   80CHL1  H18A 8354   3.733   6.720   7.659  3.7886  0.9369 -0.2506
   80CHL1  H18B 8355   3.781   6.550   7.713 -1.8903 -1.3664  0.0670
   80CHL1  H18C 8356   3.766   6.605   7.535 -1.0427 -0.8830 -0.3598
   80CHL1   C12 8357   3.546   6.441   7.578 -0.3256  0.1647 -0.2406
   80CHL1  H12A 8358   3.596   6.359   7.633 -1.7373 -0.8325 -0.3736
   80CHL1  H12B 8359   3.437   6.419   7.579 -0.3117 -0.4490 -2.9039
   80CHL1   C11 8360   3.583   6.442   7.432 -0.9190 -0.0453  0.1391
   80CHL1  H11A 8361   3.693   6.449   7.422 -1.1700  2.1744 -1.9452
   80CHL1  H11B 8362   3.566   6.343   7.385  2.0185  0.3175 -1.9377
   80CHL1    C9 8363   3.540   6.561   7.343 -0.1111 -0.0461  0.0416
   80CHL1    H9 8364   3.430   6.552   7.327  0.0804 -3.8505  0.0066
   80CHL1   C10 8365   3.596   6.561   7.198 -0.2258  0.1109 -0.0732
   80CHL1   C19 8366   3.750   6.561   7.198 -0.3263  0.1084  0.1005
   80CHL1  H19A 8367   3.796   6.471   7.245  0.2027 -0.2241 -1.0028
   80CHL1  H19B 8368   3.802   6.566   7.100 -1.9964  1.0767 -0.7766
   80CHL1  H19C 8369   3.797   6.636   7.265  0.1393  0.7578 -0.9273
   80CHL1    C1 8370   3.538   6.443   7.112 -0.4677  0.2887 -0.4361
   80CHL1   H1A 8371   3.583   6.350   7.152 -0.2167  0.5357 -0.1345
   80CHL1   H1B 8372   3.430   6.437   7.137 -0.2364  1.2001  0.8644
   80CHL1    C2 8373   3.573   6.444   6.964  0.2677 -0.1665 -0.4504
   80CHL1   H2A 8374   3.515   6.363   6.915  0.4377 -0.2742 -0.4761
   80CHL1   H2B 8375   3.684   6.436   6.957  0.1592 -0.7724 -1.7464
   80CHL1   C20 8376   3.589   6.573   7.916  0.2171  0.3977  0.5682
   80CHL1   H20 8377   3.692   6.614   7.910  0.3204  0.5310  2.6339
   80CHL1   C21 8378   3.593   6.419   7.909  0.6062 -0.7115 -0.1893
   80CHL1  H21A 8379   3.497   6.366   7.889 -0.0745  0.0982  0.8027
   80CHL1  H21B 8380   3.618   6.388   8.012  0.2068 -1.7754 -0.4026
   80CHL1  H21C 8381   3.673   6.381   7.843  0.5798 -2.3778  0.6945
   80CHL1   C22 8382   3.526   6.621   8.043  0.4091  0.2685  0.3048
   80CHL1  H22A 8383   3.570   6.558   8.123 -1.4303 -0.5652  0.7098
   80CHL1  H22B 8384   3.545   6.730   8.056 -0.2583  0.8358 -2.7461
   80CHL1   C23 8385   3.364   6.608   8.062 -0.3626 -0.1643  0.0966
   80CHL1  H23A 8386   3.318   6.661   7.976 -1.5153 -2.2673 -0.6619
   80CHL1  H23B 8387   3.332   6.502   8.053  1.6369 -1.0909  2.5702
   80CHL1   C24 8388   3.319   6.686   8.185 -0.0241 -0.3027  0.1765
   80CHL1  H24A 8389   3.380   6.647   8.269 -1.9262  0.6181  2.0680
   80CHL1  H24B 8390   3.352   6.787   8.150 -0.9568  0.2723  0.9236
   80CHL1   C25 8391   3.168   6.697   8.215 -0.2586  0.2060  0.9440
   80CHL1   H25 8392   3.122   6.596   8.206 -2.3808  1.2063 -0.3301
   80CHL1   C26 8393   3.111   6.749   8.354 -0.5354 -0.0457  0.0284
   80CHL1  H26A 8394   3.146   6.851   8.380 -1.0900 -0.2723  1.8663
   80CHL1  H26B 8395   3.000   6.747   8.346 -0.7290  2.6359  0.9986
   80CHL1  H26C 8396   3.139   6.674   8.432 -0.8525 -0.0847  0.1081
   80CHL1   C27 8397   3.105   6.772   8.100 -0.1685 -0.0351  1.5631
   80CHL1  H27A 8398   3.137   6.878   8.109 -0.8870  0.2372  0.9378
   80CHL1  H27B 8399   3.131   6.735   7.999  1.2962  2.1163  1.0924
   80CHL1  H27C 8400   2.994   6.779   8.110 -0.4826 -0.1638 -1.2380
   81CHL1    C3 8401   0.491   2.073   6.785 -0.6566 -0.3743 -0.5667
   81CHL1    H3 8402   0.385   2.085   6.818 -0.3089 -0.2944  0.5484
   81CHL1    O3 8403   0.496   2.078   6.643 -0.0312 -0.1823  0.9300
   81CHL1   H3' 8404   0.451   1.997   6.621  2.4758 -1.2378 -0.7274
   81CHL1    C4 8405   0.580   2.188   6.846  0.1704  0.0523  0.2784
   81CHL1   H4A 8406   0.679   2.184   6.798 -0.7407 -0.1732 -1.6848
   81CHL1   H4B 8407   0.527   2.278   6.807 -1.3662 -1.7974 -2.1633
   81CHL1    C5 8408   0.575   2.185   6.996 -0.5994 -0.0979 -0.6817
   81CHL1    C6 8409   0.526   2.289   7.068 -0.5648  0.4434  0.9552
   81CHL1    H6 8410   0.490   2.377   7.013  0.1715  0.5999  0.7143
   81CHL1    C7 8411   0.539   2.311   7.215 -0.7412  0.1450 -0.0811
   81CHL1   H7A 8412   0.598   2.405   7.222 -2.5094  1.6672 -3.2775
   81CHL1   H7B 8413   0.452   2.319   7.284 -0.6242  0.9520 -0.0148
   81CHL1    C8 8414   0.636   2.204   7.272 -0.2732 -0.9658  0.5055
   81CHL1    H8 8415   0.740   2.220   7.235 -0.2364 -4.0795 -1.0922
   81CHL1   C14 8416   0.631   2.207   7.417  0.1287  0.2467 -0.0405
   81CHL1   H14 8417   0.525   2.181   7.436 -0.2584  2.6037  1.4155
   81CHL1   C15 8418   0.655   2.341   7.493  0.4804 -0.1512  0.4029
   81CHL1  H15A 8419   0.730   2.403   7.440 -1.3052  0.0230 -2.1426
   81CHL1  H15B 8420   0.555   2.388   7.481 -0.9259 -3.4559 -2.2932
   81CHL1   C16 8421   0.692   2.302   7.637 -0.4597  0.8514 -0.0049
   81CHL1  H16A 8422   0.796   2.330   7.661 -0.4601  0.5479  0.3575
   81CHL1  H16B 8423   0.631   2.347   7.718 -1.1549  0.9252 -0.5592
   81CHL1   C17 8424   0.696   2.150   7.634  0.3942  0.5816  0.0553
   81CHL1   H17 8425   0.591   2.122   7.657  0.7673  0.6713  2.0316
   81CHL1   C13 8426   0.720   2.107   7.489 -0.6471 -0.0717  0.1556
   81CHL1   C18 8427   0.867   2.124   7.440 -0.0913  0.1393 -0.4349
   81CHL1  H18A 8428   0.868   2.124   7.329 -1.4578  1.9794 -0.4985
   81CHL1  H18B 8429   0.916   2.220   7.467  0.0968 -0.3588  1.1146
   81CHL1  H18C 8430   0.928   2.050   7.496  0.6607  1.6542  0.8303
   81CHL1   C12 8431   0.676   1.968   7.448 -0.2209  0.3682  0.3406
   81CHL1  H12A 8432   0.742   1.889   7.490  0.9868  0.4752 -1.2955
   81CHL1  H12B 8433   0.571   1.965   7.485 -0.1854 -1.4218  0.3967
   81CHL1   C11 8434   0.671   1.954   7.288  0.2776  0.2018 -0.7671
   81CHL1  H11A 8435   0.777   1.938   7.260 -0.2230 -2.4518 -1.3560
   81CHL1  H11B 8436   0.620   1.859   7.261 -0.2452  0.3673 -0.3840
   81CHL1    C9 8437   0.594   2.069   7.211  0.0091  0.3781  0.1345
   81CHL1    H9 8438   0.484   2.065   7.227 -0.1271  2.8265  0.2243
   81CHL1   C10 8439   0.617   2.056   7.066  0.6734  0.2792  0.2189
   81CHL1   C19 8440   0.768   2.029   7.034 -0.3770  0.5738  0.2406
   81CHL1  H19A 8441   0.838   2.077   7.104 -0.6114 -0.6548  1.3598
   81CHL1  H19B 8442   0.783   1.919   7.042  1.4058  0.9620  3.8575
   81CHL1  H19C 8443   0.798   2.065   6.933  0.2753  0.4750  0.3994
   81CHL1    C1 8444   0.530   1.947   6.992  0.1550  0.0259 -0.6195
   81CHL1   H1A 8445   0.563   1.845   7.024 -1.2766 -0.6723 -1.2735
   81CHL1   H1B 8446   0.427   1.973   7.024  0.9439  1.2591  1.1093
   81CHL1    C2 8447   0.537   1.937   6.838  0.0615 -0.6919 -0.6660
   81CHL1   H2A 8448   0.471   1.849   6.817  0.4554 -1.0803 -0.2841
   81CHL1   H2B 8449   0.638   1.918   6.798  1.4378  0.0272  2.2237
   81CHL1   C20 8450   0.785   2.082   7.747 -0.2852 -0.0865  0.1064
   81CHL1   H20 8451   0.886   2.061   7.706  1.0535  2.2098  2.0329
   81CHL1   C21 8452   0.720   1.949   7.787 -0.2496  0.1576 -0.2700
   81CHL1  H21A 8453   0.785   1.886   7.850 -0.6925 -1.4768 -1.3623
   81CHL1  H21B 8454   0.712   1.879   7.701  0.8510 -1.9285  1.2425
   81CHL1  H21C 8455   0.622   1.961   7.837  1.3924  1.9319  2.7391
   81CHL1   C22 8456   0.801   2.165   7.870 -0.3131  0.4573 -0.2067
   81CHL1  H22A 8457   0.837   2.266   7.841 -1.1160  0.7221 -0.3102
   81CHL1  H22B 8458   0.703   2.183   7.920  0.0645  1.2660  0.2759
   81CHL1   C23 8459   0.907   2.096   7.962  0.6348 -0.4994  0.2403
   81CHL1  H23A 8460   0.849   2.027   8.028  0.3994 -1.7420 -1.2019
   81CHL1  H23B 8461   0.974   2.031   7.901 -0.8858 -1.3877 -0.5646
   81CHL1   C24 8462   0.988   2.197   8.045 -0.9021 -0.1544 -0.2065
   81CHL1  H24A 8463   1.031   2.282   7.987  0.3363  0.4178  1.4750
   81CHL1  H24B 8464   0.922   2.245   8.120  1.0122  4.1648 -0.9709
   81CHL1   C25 8465   1.111   2.129   8.107  0.2508 -0.0562 -0.1813
   81CHL1   H25 8466   1.167   2.094   8.017  0.8973 -1.1697  0.6295
   81CHL1   C26 8467   1.200   2.230   8.176 -0.1108 -0.1735 -0.2859
   81CHL1  H26A 8468   1.221   2.309   8.100 -2.4898 -0.9197 -1.8419
   81CHL1  H26B 8469   1.151   2.276   8.265  0.2545  0.6241 -0.4876
   81CHL1  H26C 8470   1.291   2.185   8.220 -1.3994 -3.3490 -0.6398
   81CHL1   C27 8471   1.089   2.002   8.190 -0.3222  1.5213 -0.5433
   81CHL1  H27A 8472   1.182   1.943   8.207 -0.3530  1.3653 -0.9009
   81CHL1  H27B 8473   1.035   2.028   8.284  0.7584 -0.2720  0.6452
   81CHL1  H27C 8474   1.021   1.939   8.128 -0.2236 -0.5303  1.3015
   82CHL1    C3 8475   4.234   6.369   7.032 -0.0975  0.2286 -0.1558
   82CHL1    H3 8476   4.335   6.397   6.996  0.3337 -0.4128  0.5068
   82CHL1    O3 8477   4.149   6.300   6.939 -0.8542 -0.2838  0.1910
   82CHL1   H3' 8478   4.071   6.356   6.942 -0.7845 -0.1766  0.0038
   82CHL1    C4 8479   4.261   6.276   7.153 -0.3137  0.1991  0.3594
   82CHL1   H4A 8480   4.158   6.243   7.179 -0.1128  0.9176  2.2309
   82CHL1   H4B 8481   4.323   6.188   7.126  1.5310  0.2065  3.9913
   82CHL1    C5 8482   4.321   6.337   7.279 -0.6357 -0.1706  0.1732
   82CHL1    C6 8483   4.422   6.275   7.345 -0.5131 -0.1689  0.3166
   82CHL1    H6 8484   4.465   6.182   7.306  1.9263  1.7536 -1.9638
   82CHL1    C7 8485   4.471   6.319   7.477 -0.2228  0.3335 -0.3010
   82CHL1   H7A 8486   4.487   6.234   7.546  0.0575  0.3238 -0.3750
   82CHL1   H7B 8487   4.570   6.370   7.467 -0.1949  0.3319 -0.0432
   82CHL1    C8 8488   4.383   6.426   7.547 -0.6423  0.4715  0.0745
   82CHL1    H8 8489   4.293   6.371   7.584 -0.2148  0.6803  1.4766
   82CHL1   C14 8490   4.460   6.504   7.659 -0.1933  0.4689 -0.1075
   82CHL1   H14 8491   4.547   6.557   7.614  0.3244 -0.3255 -0.0731
   82CHL1   C15 8492   4.528   6.420   7.768 -0.3712  0.2155  0.2216
   82CHL1  H15A 8493   4.470   6.330   7.798  1.0444 -0.1434  2.0915
   82CHL1  H15B 8494   4.628   6.385   7.735  1.5171  1.2844  4.1704
   82CHL1   C16 8495   4.547   6.511   7.889  0.5308 -0.1813 -0.2624
   82CHL1  H16A 8496   4.477   6.472   7.966  1.1989  0.1128  0.5052
   82CHL1  H16B 8497   4.651   6.522   7.927 -0.5820  1.1089  2.6840
   82CHL1   C17 8498   4.492   6.654   7.836 -0.7386 -0.1551  0.3894
   82CHL1   H17 8499   4.576   6.706   7.786 -0.3632 -0.2161  0.9474
   82CHL1   C13 8500   4.389   6.620   7.728  0.6086  0.0898 -0.7143
   82CHL1   C18 8501   4.262   6.566   7.796  0.5413  0.2918 -0.0617
   82CHL1  H18A 8502   4.187   6.542   7.718  0.5046 -1.2058  0.3929
   82CHL1  H18B 8503   4.284   6.472   7.850  0.2209  0.6042  0.6171
   82CHL1  H18C 8504   4.214   6.641   7.863 -1.5690  0.4109 -1.6000
   82CHL1   C12 8505   4.358   6.721   7.621 -0.2976 -0.0457 -0.0607
   82CHL1  H12A 8506   4.299   6.809   7.655  1.1790  0.7558  0.5274
   82CHL1  H12B 8507   4.461   6.752   7.596  0.2156  0.3286  2.2452
   82CHL1   C11 8508   4.288   6.664   7.505  0.5626 -0.7962 -0.4483
   82CHL1  H11A 8509   4.183   6.649   7.537 -0.1173  0.4810 -1.9556
   82CHL1  H11B 8510   4.281   6.736   7.421 -1.8471 -1.3761 -0.8195
   82CHL1    C9 8511   4.343   6.530   7.438  0.7762  0.4248  0.4782
   82CHL1    H9 8512   4.435   6.563   7.386  1.3658  0.1832  1.3403
   82CHL1   C10 8513   4.253   6.468   7.331 -0.2647  1.2206  0.2125
   82CHL1   C19 8514   4.118   6.428   7.379  0.8642  0.6558 -0.1950
   82CHL1  H19A 8515   4.125   6.355   7.463  0.0829 -0.3214 -0.9523
   82CHL1  H19B 8516   4.060   6.511   7.425  0.8741  0.1145  0.8407
   82CHL1  H19C 8517   4.056   6.381   7.300  2.0822  0.3401 -0.9793
   82CHL1    C1 8518   4.241   6.555   7.204 -0.1098 -0.1904  0.2187
   82CHL1   H1A 8519   4.189   6.644   7.246  0.8320  0.4192  0.1161
   82CHL1   H1B 8520   4.340   6.580   7.162  1.1336 -0.9181  2.5195
   82CHL1    C2 8521   4.166   6.495   7.081  0.0901 -0.6063 -0.4385
   82CHL1   H2A 8522   4.172   6.571   7.000  0.7131  0.5981  0.7220
   82CHL1   H2B 8523   4.063   6.469   7.113  0.4093 -1.0955  0.2028
   82CHL1   C20 8524   4.450   6.742   7.954 -0.3364 -0.4557 -0.5203
   82CHL1   H20 8525   4.359   6.698   7.999  1.2983 -1.5770  1.9258
   82CHL1   C21 8526   4.410   6.875   7.902 -0.5270 -0.5200  0.5749
   82CHL1  H21A 8527   4.321   6.882   7.836  0.9756  1.1295 -1.3808
   82CHL1  H21B 8528   4.492   6.917   7.841 -2.5293 -1.0127 -2.7273
   82CHL1  H21C 8529   4.381   6.945   7.983 -2.1779 -1.5863  0.9848
   82CHL1   C22 8530   4.558   6.751   8.067 -0.1668  0.1660  0.3014
   82CHL1  H22A 8531   4.593   6.649   8.093 -0.5405 -0.2599 -0.7676
   82CHL1  H22B 8532   4.636   6.813   8.018  0.4844  0.1200  1.2717
   82CHL1   C23 8533   4.530   6.826   8.200 -0.0025  0.5931  0.1523
   82CHL1  H23A 8534   4.621   6.837   8.264 -1.1457 -0.4801  2.0777
   82CHL1  H23B 8535   4.488   6.927   8.183  2.2633  1.6748  0.5161
   82CHL1   C24 8536   4.415   6.756   8.290 -1.1269 -0.0418 -0.1822
   82CHL1  H24A 8537   4.317   6.737   8.240 -0.9119 -1.5467 -0.0820
   82CHL1  H24B 8538   4.449   6.655   8.322  0.3926  0.9244  1.4107
   82CHL1   C25 8539   4.372   6.837   8.417  0.7184 -0.6439 -0.1018
   82CHL1   H25 8540   4.299   6.776   8.475  0.3940 -0.0537  0.1091
   82CHL1   C26 8541   4.486   6.869   8.514  0.1098 -0.0319  0.3676
   82CHL1  H26A 8542   4.548   6.777   8.526  1.0809  0.7992  2.0626
   82CHL1  H26B 8543   4.549   6.955   8.485 -0.1091  0.5014  1.4426
   82CHL1  H26C 8544   4.441   6.914   8.604 -0.7321  1.8855 -0.9581
   82CHL1   C27 8545   4.288   6.965   8.381 -0.9405 -0.5928  0.2500
   82CHL1  H27A 8546   4.232   7.006   8.467 -4.6858 -1.2161 -1.6790
   82CHL1  H27B 8547   4.344   7.047   8.332 -1.6386 -1.6744 -2.5563
   82CHL1  H27C 8548   4.211   6.942   8.304 -0.3662  2.2928 -1.3331
   83CHL1    C3 8549   0.664   3.666   6.902 -0.5211 -0.1678 -0.9645
   83CHL1    H3 8550   0.728   3.750   6.938 -0.3593 -0.0280 -1.5611
   83CHL1    O3 8551   0.674   3.650   6.762  0.3478 -1.1256 -0.2884
   83CHL1   H3' 8552   0.762   3.674   6.732 -0.0199  0.9370  0.1292
   83CHL1    C4 8553   0.728   3.539   6.964 -0.1890 -0.2499 -0.5537
   83CHL1   H4A 8554   0.681   3.449   6.920  1.8079 -1.6971  0.1262
   83CHL1   H4B 8555   0.836   3.536   6.939 -0.4611  0.8809 -1.9735
   83CHL1    C5 8556   0.709   3.540   7.118  0.3722 -0.5786 -0.0778
   83CHL1    C6 8557   0.813   3.539   7.193 -0.0085  0.5602 -1.1207
   83CHL1    H6 8558   0.917   3.537   7.157  0.2545 -3.1173 -0.5894
   83CHL1    C7 8559   0.793   3.529   7.343  0.3434  0.0486  0.6124
   83CHL1   H7A 8560   0.875   3.464   7.381  0.8465  0.7041  0.6596
   83CHL1   H7B 8561   0.824   3.624   7.391 -0.1282  0.6655 -0.3010
   83CHL1    C8 8562   0.655   3.482   7.391  0.5355 -0.1174 -0.0710
   83CHL1    H8 8563   0.639   3.373   7.379  2.3457 -0.4093 -0.0550
   83CHL1   C14 8564   0.651   3.509   7.541 -0.6527  0.3434  0.4058
   83CHL1   H14 8565   0.657   3.620   7.539  2.5348  0.2499 -0.5488
   83CHL1   C15 8566   0.771   3.466   7.640  0.1994  0.2564  0.1196
   83CHL1  H15A 8567   0.804   3.364   7.611 -0.7443 -0.1399  0.3830
   83CHL1  H15B 8568   0.846   3.545   7.618  0.0254  0.7517  1.2021
   83CHL1   C16 8569   0.724   3.472   7.780  0.1467 -0.7844 -0.4159
   83CHL1  H16A 8570   0.738   3.372   7.826  2.0969 -0.1755  0.4155
   83CHL1  H16B 8571   0.773   3.550   7.843 -0.4802 -0.6152 -0.1249
   83CHL1   C17 8572   0.575   3.507   7.758  0.4098  0.1308  0.5273
   83CHL1   H17 8573   0.558   3.617   7.758 -0.3822  0.1120 -2.6141
   83CHL1   C13 8574   0.523   3.471   7.610 -0.0638  0.0132 -0.0788
   83CHL1   C18 8575   0.497   3.321   7.603  0.3215 -0.0657  0.5460
   83CHL1  H18A 8576   0.498   3.281   7.499  0.3038 -0.9885  0.8956
   83CHL1  H18B 8577   0.572   3.268   7.664 -0.4273 -0.3870  1.1975
   83CHL1  H18C 8578   0.391   3.303   7.632  0.1124  1.0203  0.5024
   83CHL1   C12 8579   0.416   3.551   7.540 -0.9242 -0.6266  0.1878
   83CHL1  H12A 8580   0.325   3.511   7.589 -0.6737 -1.7733 -0.2539
   83CHL1  H12B 8581   0.441   3.656   7.567 -0.5622 -0.3819 -1.0448
   83CHL1   C11 8582   0.418   3.538   7.382  0.2865 -0.0459 -0.3916
   83CHL1  H11A 8583   0.393   3.432   7.365 -1.3278  0.5587 -2.1304
   83CHL1  H11B 8584   0.339   3.597   7.330 -0.3025 -2.0808 -1.9119
   83CHL1    C9 8585   0.549   3.563   7.319 -0.9685 -0.3194  0.3231
   83CHL1    H9 8586   0.579   3.666   7.348  2.0244 -1.1844  0.5689
   83CHL1   C10 8587   0.559   3.542   7.163  0.1273 -0.0990  1.3091
   83CHL1   C19 8588   0.499   3.402   7.122  0.2931  0.5466  0.3310
   83CHL1  H19A 8589   0.487   3.398   7.012 -2.0215 -0.5840  0.5510
   83CHL1  H19B 8590   0.561   3.320   7.165 -0.1869  1.1537  2.3113
   83CHL1  H19C 8591   0.398   3.397   7.169  0.1894  1.5518  0.2466
   83CHL1    C1 8592   0.492   3.672   7.089  0.5914  0.6478  0.0555
   83CHL1   H1A 8593   0.384   3.662   7.112  0.6693  2.2656  1.2502
   83CHL1   H1B 8594   0.519   3.770   7.133 -1.0141  1.7638 -1.3366
   83CHL1    C2 8595   0.513   3.688   6.938 -0.2121  0.2151  0.6169
   83CHL1   H2A 8596   0.476   3.783   6.895  2.3019  0.8052 -0.4237
   83CHL1   H2B 8597   0.456   3.612   6.881  2.2205 -0.0424 -1.6463
   83CHL1   C20 8598   0.488   3.456   7.877 -0.1118 -0.5042  0.0544
   83CHL1   H20 8599   0.499   3.346   7.880  0.5315 -0.4255  0.7793
   83CHL1   C21 8600   0.331   3.480   7.857 -0.7368  0.0999  0.1436
   83CHL1  H21A 8601   0.320   3.584   7.821 -0.3739  0.1261  0.1026
   83CHL1  H21B 8602   0.274   3.461   7.951 -1.5724 -0.5684 -0.4753
   83CHL1  H21C 8603   0.287   3.415   7.778  1.4374 -1.2131 -0.0611
   83CHL1   C22 8604   0.539   3.509   8.017 -0.0762 -0.1827  0.5560
   83CHL1  H22A 8605   0.644   3.474   8.030  0.5410  1.4877  0.3385
   83CHL1  H22B 8606   0.543   3.619   8.008 -0.0259 -0.2625 -0.5140
   83CHL1   C23 8607   0.451   3.481   8.137 -0.2300  0.2729  0.2343
   83CHL1  H23A 8608   0.360   3.543   8.122  1.0921  1.8794 -1.6768
   83CHL1  H23B 8609   0.425   3.376   8.110  0.4155  0.3477 -0.7222
   83CHL1   C24 8610   0.514   3.486   8.280  0.4000  0.0880 -0.4315
   83CHL1  H24A 8611   0.610   3.430   8.290 -0.2896 -0.8445  1.4065
   83CHL1  H24B 8612   0.538   3.591   8.307 -0.0005  0.8155 -2.7411
   83CHL1   C25 8613   0.416   3.438   8.386 -0.3488  0.0173  0.6290
   83CHL1   H25 8614   0.387   3.331   8.380 -2.5931  0.3909  2.9918
   83CHL1   C26 8615   0.476   3.452   8.528 -0.6011 -0.2717 -0.6436
   83CHL1  H26A 8616   0.501   3.556   8.556  2.4352 -1.0105 -0.2594
   83CHL1  H26B 8617   0.412   3.409   8.608  1.6829 -0.1917  1.3428
   83CHL1  H26C 8618   0.574   3.400   8.532  0.8001  2.2831  1.2879
   83CHL1   C27 8619   0.288   3.526   8.382 -0.1106  0.5904  0.2338
   83CHL1  H27A 8620   0.231   3.503   8.290 -1.7547 -1.0368  1.5940
   83CHL1  H27B 8621   0.226   3.500   8.470  1.4605 -2.3320  0.5903
   83CHL1  H27C 8622   0.319   3.633   8.389  0.7249  0.2700  1.7793
   84CHL1    C3 8623   2.111   4.265   6.765  0.6756  0.1481  0.8262
   84CHL1    H3 8624   2.195   4.326   6.726 -1.1125  0.9118 -2.1694
   84CHL1    O3 8625   2.040   4.237   6.646  0.3728 -0.3060  0.0434
   84CHL1   H3' 8626   2.043   4.322   6.601 -1.9047  0.2891  0.8511
   84CHL1    C4 8627   2.150   4.134   6.829 -0.1519 -0.2419 -0.7871
   84CHL1   H4A 8628   2.053   4.081   6.842  0.7604 -1.3879  2.1122
   84CHL1   H4B 8629   2.206   4.078   6.751 -3.1061 -1.7830 -1.9596
   84CHL1    C5 8630   2.206   4.139   6.971 -0.0983 -0.0710 -0.1947
   84CHL1    C6 8631   2.320   4.080   7.001 -0.3487 -0.5330 -0.2151
   84CHL1    H6 8632   2.376   4.019   6.929  1.6287 -0.7800  1.4366
   84CHL1    C7 8633   2.371   4.076   7.146  0.7485  0.6265 -0.4662
   84CHL1   H7A 8634   2.401   3.970   7.158 -3.2569 -0.8221 -1.4657
   84CHL1   H7B 8635   2.457   4.142   7.169  0.3087  0.9680  0.2577
   84CHL1    C8 8636   2.259   4.109   7.240  0.2470  0.1038  0.5053
   84CHL1    H8 8637   2.191   4.022   7.257 -0.2358  0.7000  1.6861
   84CHL1   C14 8638   2.325   4.139   7.374 -0.1836  0.1569 -0.3532
   84CHL1   H14 8639   2.390   4.226   7.350  3.0951 -1.8158  0.7699
   84CHL1   C15 8640   2.422   4.031   7.436  0.4304  0.3341  0.2398
   84CHL1  H15A 8641   2.373   3.931   7.439 -1.7863  1.3133  4.1164
   84CHL1  H15B 8642   2.520   4.027   7.383  1.1176 -1.0080  1.5101
   84CHL1   C16 8643   2.444   4.078   7.580 -0.0192  0.0417  0.3129
   84CHL1  H16A 8644   2.415   3.984   7.631 -2.3295 -0.4394 -1.6735
   84CHL1  H16B 8645   2.549   4.108   7.600  0.0098  0.7353 -0.7503
   84CHL1   C17 8646   2.341   4.195   7.614 -0.2914  0.0876  0.1350
   84CHL1   H17 8647   2.392   4.291   7.591 -1.1697  0.1883 -1.5737
   84CHL1   C13 8648   2.235   4.185   7.497  0.4277  0.5503 -0.0460
   84CHL1   C18 8649   2.139   4.066   7.529  0.0130  0.1676  0.3051
   84CHL1  H18A 8650   2.060   4.109   7.594  1.0187 -1.0007  2.4276
   84CHL1  H18B 8651   2.085   4.023   7.441  2.6827 -0.3756 -1.1772
   84CHL1  H18C 8652   2.190   3.982   7.581  1.6200  0.6894 -0.3752
   84CHL1   C12 8653   2.167   4.314   7.449 -0.2773  0.3679 -0.6106
   84CHL1  H12A 8654   2.103   4.369   7.521 -1.0050  0.8815 -1.6154
   84CHL1  H12B 8655   2.250   4.382   7.420  1.4117 -1.2050  0.3136
   84CHL1   C11 8656   2.087   4.291   7.315 -0.2350 -0.0594 -0.9236
   84CHL1  H11A 8657   2.013   4.210   7.335 -1.7028  1.1801 -1.1791
   84CHL1  H11B 8658   2.036   4.384   7.283  0.3334  0.1220 -1.3200
   84CHL1    C9 8659   2.180   4.235   7.201 -0.0743  0.3492  0.1255
   84CHL1    H9 8660   2.259   4.312   7.192  1.0727 -0.2576  3.4111
   84CHL1   C10 8661   2.113   4.215   7.066 -0.6648 -0.2514  0.1935
   84CHL1   C19 8662   1.983   4.141   7.084  0.0439  0.9668 -0.8673
   84CHL1  H19A 8663   1.994   4.035   7.114 -2.2989  0.8977 -0.0127
   84CHL1  H19B 8664   1.916   4.193   7.156 -0.4100  0.5775 -1.0012
   84CHL1  H19C 8665   1.916   4.129   6.996  0.0964 -2.3638 -0.5579
   84CHL1    C1 8666   2.087   4.366   7.001 -0.0177  0.5099  0.3033
   84CHL1   H1A 8667   2.003   4.411   7.058 -1.3559 -0.5211 -0.8139
   84CHL1   H1B 8668   2.185   4.417   7.012 -1.2552  3.5009 -1.4353
   84CHL1    C2 8669   2.030   4.359   6.854 -0.3719  0.2929  0.4608
   84CHL1   H2A 8670   2.023   4.464   6.818 -1.9538 -0.0196 -0.2426
   84CHL1   H2B 8671   1.924   4.327   6.862 -0.2341  0.2611  2.8507
   84CHL1   C20 8672   2.290   4.195   7.764  0.2828 -0.4219  0.3003
   84CHL1   H20 8673   2.204   4.126   7.778  0.0034 -0.1483 -0.0383
   84CHL1   C21 8674   2.255   4.348   7.798  0.0603  0.1114 -0.0579
   84CHL1  H21A 8675   2.186   4.392   7.723  0.8037  0.3633 -0.6022
   84CHL1  H21B 8676   2.345   4.413   7.794  1.1475 -1.3568 -0.5259
   84CHL1  H21C 8677   2.217   4.351   7.903 -2.2525  0.1277 -0.8283
   84CHL1   C22 8678   2.406   4.139   7.846  0.1264 -0.0233 -0.2140
   84CHL1  H22A 8679   2.426   4.033   7.822  2.7079  0.2375  0.4830
   84CHL1  H22B 8680   2.497   4.196   7.819  0.8583  0.0627  2.2258
   84CHL1   C23 8681   2.365   4.134   7.999  0.1054  0.2531 -0.0852
   84CHL1  H23A 8682   2.376   4.231   8.052  1.1791 -0.9336  2.0158
   84CHL1  H23B 8683   2.259   4.101   8.006  0.2442 -0.3432 -0.6748
   84CHL1   C24 8684   2.459   4.036   8.074  0.6836  0.7347 -0.5429
   84CHL1  H24A 8685   2.452   3.930   8.042  0.4989  0.0520  1.6190
   84CHL1  H24B 8686   2.559   4.082   8.057 -0.3687  2.6112 -2.1694
   84CHL1   C25 8687   2.455   4.040   8.224  0.0612 -0.2503  0.0334
   84CHL1   H25 8688   2.475   4.145   8.254 -0.7487 -1.0676  4.0923
   84CHL1   C26 8689   2.320   4.002   8.283 -0.1715 -0.7225 -0.2330
   84CHL1  H26A 8690   2.248   4.080   8.248 -0.6217 -0.5066  1.0911
   84CHL1  H26B 8691   2.284   3.899   8.264  2.6139 -1.3707 -2.7424
   84CHL1  H26C 8692   2.314   4.007   8.394 -0.2941 -1.0046 -0.2267
   84CHL1   C27 8693   2.570   3.967   8.300 -0.1819 -0.0107  0.5701
   84CHL1  H27A 8694   2.575   3.856   8.286  2.8084  0.0435  0.5021
   84CHL1  H27B 8695   2.672   3.988   8.262  0.2906  2.9699  3.1025
   84CHL1  H27C 8696   2.576   3.977   8.410  2.1670 -1.9736  0.6959
   85CHL1    C3 8697   0.441   4.162   6.755 -0.1780 -0.6835 -0.0141
   85CHL1    H3 8698   0.341   4.132   6.794 -1.6635  2.9848 -0.5729
   85CHL1    O3 8699   0.428   4.184   6.614 -0.1633  0.2339 -0.0513
   85CHL1   H3' 8700   0.373   4.262   6.612  0.0381  0.3570 -0.8187
   85CHL1    C4 8701   0.488   4.295   6.823 -0.6015 -0.8364 -0.0622
   85CHL1   H4A 8702   0.571   4.333   6.760 -1.4757  0.2013 -0.6435
   85CHL1   H4B 8703   0.402   4.362   6.798  1.1374  1.2540 -0.8083
   85CHL1    C5 8704   0.518   4.278   6.973 -0.5024 -0.1656  0.4406
   85CHL1    C6 8705   0.456   4.358   7.060  0.1818 -0.2848  0.4929
   85CHL1    H6 8706   0.387   4.427   7.009  1.6248  1.0521  0.2843
   85CHL1    C7 8707   0.464   4.350   7.210  0.4549 -0.1890  0.5466
   85CHL1   H7A 8708   0.485   4.453   7.246 -1.5506  1.7320 -3.0730
   85CHL1   H7B 8709   0.364   4.313   7.241 -0.1927  0.5917 -0.5549
   85CHL1    C8 8710   0.576   4.254   7.261  0.2632  0.5333 -0.6481
   85CHL1    H8 8711   0.661   4.326   7.262 -1.6923  3.0059 -0.6968
   85CHL1   C14 8712   0.545   4.203   7.402  0.0715  0.0708  0.0761
   85CHL1   H14 8713   0.463   4.128   7.395  1.2156 -1.4421  1.8260
   85CHL1   C15 8714   0.500   4.309   7.508 -0.5899 -0.0926  0.2171
   85CHL1  H15A 8715   0.532   4.412   7.482  0.6566 -1.0361 -2.3692
   85CHL1  H15B 8716   0.389   4.310   7.499 -0.4914 -0.4435 -1.4827
   85CHL1   C16 8717   0.526   4.248   7.643  0.8005 -0.9814 -0.8776
   85CHL1  H16A 8718   0.596   4.317   7.695 -1.8728  2.4066 -1.3854
   85CHL1  H16B 8719   0.434   4.228   7.703  1.5246 -3.1422 -0.4225
   85CHL1   C17 8720   0.602   4.116   7.614  0.6396  0.2010  0.0437
   85CHL1   H17 8721   0.522   4.039   7.613 -0.2736  1.1467 -0.6846
   85CHL1   C13 8722   0.655   4.122   7.473  0.4448 -0.3061  0.5621
   85CHL1   C18 8723   0.780   4.204   7.477 -0.9811 -0.2481  1.0558
   85CHL1  H18A 8724   0.864   4.143   7.517 -1.0767  0.5445  2.5729
   85CHL1  H18B 8725   0.815   4.214   7.372  1.7857 -4.4198  1.3711
   85CHL1  H18C 8726   0.768   4.300   7.533  1.9006  0.9551 -0.1741
   85CHL1   C12 8727   0.674   3.996   7.384 -1.0108  0.1381 -0.2112
   85CHL1  H12A 8728   0.753   3.925   7.413 -0.2574  0.1854 -2.0344
   85CHL1  H12B 8729   0.583   3.932   7.387 -1.0564  0.2277  1.9444
   85CHL1   C11 8730   0.701   4.026   7.237 -0.4792 -0.2597 -0.2292
   85CHL1  H11A 8731   0.809   4.044   7.218  0.0404 -1.3676  1.4725
   85CHL1  H11B 8732   0.689   3.931   7.181 -0.2753 -1.6208  1.9112
   85CHL1    C9 8733   0.597   4.126   7.172  0.7195 -1.0638 -0.0376
   85CHL1    H9 8734   0.501   4.072   7.183 -0.1775  0.0282 -1.9408
   85CHL1   C10 8735   0.610   4.159   7.022  0.1218  0.3043  0.1880
   85CHL1   C19 8736   0.755   4.187   6.989  0.2021  0.7768  0.1912
   85CHL1  H19A 8737   0.769   4.231   6.888 -1.6482  0.1376 -0.3770
   85CHL1  H19B 8738   0.796   4.249   7.071 -0.8344 -0.6637  1.8566
   85CHL1  H19C 8739   0.805   4.088   6.981 -0.0545  0.6133  0.6181
   85CHL1    C1 8740   0.564   4.033   6.942 -0.4335 -0.0352  0.2891
   85CHL1   H1A 8741   0.644   3.957   6.954 -1.5417 -1.2912  0.0436
   85CHL1   H1B 8742   0.471   3.984   6.976  0.0972 -1.6360 -0.4601
   85CHL1    C2 8743   0.547   4.060   6.793  0.2016  0.1815 -1.0667
   85CHL1   H2A 8744   0.523   3.967   6.736  0.3227  0.2370 -1.2111
   85CHL1   H2B 8745   0.641   4.096   6.746 -1.1579 -0.1297 -4.3235
   85CHL1   C20 8746   0.693   4.071   7.726  0.3849 -0.7418 -0.1385
   85CHL1   H20 8747   0.780   4.139   7.742  0.9300 -1.0970 -1.4941
   85CHL1   C21 8748   0.755   3.936   7.699  0.4912 -0.1895  0.4242
   85CHL1  H21A 8749   0.818   3.941   7.608 -2.3733 -1.8683 -1.8064
   85CHL1  H21B 8750   0.683   3.858   7.665 -0.1373  0.8104 -0.6008
   85CHL1  H21C 8751   0.806   3.892   7.788  0.7162  0.5608  0.6721
   85CHL1   C22 8752   0.623   4.079   7.860 -0.2285  0.0424 -0.1987
   85CHL1  H22A 8753   0.590   4.182   7.884  1.3123  0.1211  1.9813
   85CHL1  H22B 8754   0.539   4.006   7.855  1.4118 -1.8390 -2.6860
   85CHL1   C23 8755   0.729   4.048   7.979  0.0562  0.3305  0.0212
   85CHL1  H23A 8756   0.809   3.974   7.959 -1.8173 -1.4361 -1.3736
   85CHL1  H23B 8757   0.770   4.149   8.004  0.4222  0.2443 -0.2239
   85CHL1   C24 8758   0.673   3.982   8.105  0.0632  1.3465  0.2821
   85CHL1  H24A 8759   0.601   4.055   8.148  1.9276  2.0080  2.5023
   85CHL1  H24B 8760   0.625   3.891   8.064  3.2241 -0.0206 -0.6270
   85CHL1   C25 8761   0.782   3.937   8.208 -0.7450 -0.4341  0.5316
   85CHL1   H25 8762   0.853   3.861   8.170  2.4762  1.0157  3.2345
   85CHL1   C26 8763   0.881   4.048   8.249 -0.4943 -0.9609 -0.3177
   85CHL1  H26A 8764   0.815   4.133   8.277  0.8154 -0.0558  0.1172
   85CHL1  H26B 8765   0.939   4.023   8.340  0.8874  2.3077 -0.1752
   85CHL1  H26C 8766   0.943   4.080   8.163 -1.9093 -1.7118 -1.6622
   85CHL1   C27 8767   0.713   3.884   8.333  0.4638 -0.0225 -0.0359
   85CHL1  H27A 8768   0.637   3.957   8.370  0.2874 -0.1948 -0.0570
   85CHL1  H27B 8769   0.660   3.788   8.316  1.2904 -0.8747  1.8933
   85CHL1  H27C 8770   0.789   3.866   8.412  0.8014  0.8897 -0.1322
   86CHL1    C3 8771   1.736   1.173   6.827 -0.6467  0.4097  0.9576
   86CHL1    H3 8772   1.665   1.255   6.853 -0.1698  0.8381  0.9188
   86CHL1    O3 8773   1.787   1.186   6.697 -0.8283 -0.5295  0.3064
   86CHL1   H3' 8774   1.869   1.138   6.688 -0.2900  0.7178 -2.7665
   86CHL1    C4 8775   1.851   1.170   6.928 -0.6131 -0.2866  0.2016
   86CHL1   H4A 8776   1.931   1.097   6.901  1.8106  1.0236  3.2976
   86CHL1   H4B 8777   1.894   1.272   6.921 -2.5680  0.5635  0.2068
   86CHL1    C5 8778   1.800   1.138   7.069  0.6445 -0.3756  0.0514
   86CHL1    C6 8779   1.829   1.219   7.173  0.6767  0.1873 -0.2150
   86CHL1    H6 8780   1.891   1.307   7.153 -2.0458  2.1089 -0.8495
   86CHL1    C7 8781   1.794   1.186   7.314 -0.5598  0.5935  0.2221
   86CHL1   H7A 8782   1.890   1.210   7.364 -0.2058 -0.3342 -0.0027
   86CHL1   H7B 8783   1.718   1.255   7.355 -0.3474 -0.9640  3.5238
   86CHL1    C8 8784   1.762   1.037   7.327 -0.3310  0.7781 -0.0038
   86CHL1    H8 8785   1.857   0.979   7.315 -0.7351 -0.5398  2.4419
   86CHL1   C14 8786   1.716   1.006   7.470  0.1581 -0.5545 -0.3346
   86CHL1   H14 8787   1.625   1.069   7.478 -1.2230 -1.8098 -4.1110
   86CHL1   C15 8788   1.805   1.040   7.591 -0.8623 -0.5128  0.7180
   86CHL1  H15A 8789   1.909   1.020   7.560 -1.0395 -0.3983  0.0316
   86CHL1  H15B 8790   1.796   1.149   7.612 -2.8874 -0.2890 -0.9134
   86CHL1   C16 8791   1.758   0.960   7.706 -0.0403 -0.1680 -0.5682
   86CHL1  H16A 8792   1.826   0.876   7.731  0.7752  0.6248 -0.0844
   86CHL1  H16B 8793   1.754   1.030   7.792  2.1513 -0.1952 -0.3999
   86CHL1   C17 8794   1.640   0.874   7.657  0.7471  0.0522 -0.0775
   86CHL1   H17 8795   1.551   0.939   7.672  1.1722  1.0668 -1.6293
   86CHL1   C13 8796   1.668   0.868   7.505 -0.2709  0.5175  0.7454
   86CHL1   C18 8797   1.786   0.774   7.478 -0.1699 -0.4503 -1.0280
   86CHL1  H18A 8798   1.873   0.775   7.547 -0.3813 -2.2855 -0.6859
   86CHL1  H18B 8799   1.752   0.668   7.479 -0.2618 -0.4196 -0.8573
   86CHL1  H18C 8800   1.818   0.787   7.372  0.5424  1.1661 -0.6393
   86CHL1   C12 8801   1.560   0.836   7.403  0.3355 -0.3046 -0.1505
   86CHL1  H12A 8802   1.530   0.729   7.407 -1.9147  0.2761 -0.1596
   86CHL1  H12B 8803   1.468   0.893   7.425  1.0424  0.0509  2.0698
   86CHL1   C11 8804   1.604   0.858   7.256 -0.0045 -0.0010 -0.8131
   86CHL1  H11A 8805   1.675   0.776   7.231  0.5129  0.5379 -1.1297
   86CHL1  H11B 8806   1.523   0.832   7.184 -0.4871 -0.4887 -0.1068
   86CHL1    C9 8807   1.664   0.995   7.223  0.0069  0.7314 -0.0314
   86CHL1    H9 8808   1.579   1.065   7.242 -0.8596 -0.3407  0.1212
   86CHL1   C10 8809   1.710   1.004   7.078  0.3246  0.2541  0.4956
   86CHL1   C19 8810   1.795   0.874   7.037 -0.6831 -0.5071 -0.2301
   86CHL1  H19A 8811   1.720   0.793   7.021 -0.3434 -1.2567  1.7221
   86CHL1  H19B 8812   1.846   0.885   6.938 -2.1474  0.3195 -0.9233
   86CHL1  H19C 8813   1.862   0.843   7.120 -0.8326  1.1838  0.5654
   86CHL1    C1 8814   1.592   1.029   6.974 -0.0404  0.3817  0.0490
   86CHL1   H1A 8815   1.531   0.936   6.975  0.5801 -0.1664 -2.9715
   86CHL1   H1B 8816   1.530   1.111   7.014 -1.0988 -0.5092  0.2839
   86CHL1    C2 8817   1.653   1.043   6.825  0.2161  0.2320 -0.4662
   86CHL1   H2A 8818   1.576   1.061   6.747 -0.9289 -1.9435  0.0888
   86CHL1   H2B 8819   1.711   0.955   6.791 -0.0478  0.1772 -0.7748
   86CHL1   C20 8820   1.613   0.747   7.734  0.4128 -0.5104 -0.0136
   86CHL1   H20 8821   1.707   0.688   7.734  1.0786  0.3155  3.5380
   86CHL1   C21 8822   1.495   0.663   7.681  0.1694 -0.2536 -0.5600
   86CHL1  H21A 8823   1.403   0.723   7.695 -0.1042 -0.8858  0.4247
   86CHL1  H21B 8824   1.479   0.566   7.733 -1.4890  0.5751  0.5400
   86CHL1  H21C 8825   1.515   0.623   7.579  1.0474  0.4791 -0.6883
   86CHL1   C22 8826   1.581   0.775   7.879 -0.4540  0.5764 -0.5941
   86CHL1  H22A 8827   1.658   0.842   7.925  0.0870 -0.0966 -0.5119
   86CHL1  H22B 8828   1.483   0.828   7.889 -1.4592 -1.1455 -0.9786
   86CHL1   C23 8829   1.575   0.657   7.976  0.0244  0.2240 -0.3364
   86CHL1  H23A 8830   1.488   0.600   7.939 -0.0874  0.4234 -0.3799
   86CHL1  H23B 8831   1.668   0.595   7.972  0.2852  0.2417  2.9956
   86CHL1   C24 8832   1.560   0.708   8.121 -0.2706  0.9995 -0.4116
   86CHL1  H24A 8833   1.653   0.759   8.154  0.1818 -0.7832  1.2595
   86CHL1  H24B 8834   1.472   0.775   8.121  0.2654  1.7454  1.1363
   86CHL1   C25 8835   1.537   0.587   8.217  0.0403 -0.5264 -0.1398
   86CHL1   H25 8836   1.610   0.506   8.197  0.5011 -0.5698  1.5752
   86CHL1   C26 8837   1.554   0.650   8.359 -0.5620  0.0089 -1.2454
   86CHL1  H26A 8838   1.659   0.656   8.393 -1.2291  0.0225  0.9749
   86CHL1  H26B 8839   1.505   0.749   8.367  1.5451  0.9338  2.3168
   86CHL1  H26C 8840   1.495   0.589   8.430  0.0539  1.2442  0.3811
   86CHL1   C27 8841   1.402   0.522   8.194 -1.3100  0.4025  0.3127
   86CHL1  H27A 8842   1.381   0.448   8.274 -0.1007  0.8636  1.0983
   86CHL1  H27B 8843   1.324   0.601   8.195  0.2112  2.0458  2.7260
   86CHL1  H27C 8844   1.406   0.488   8.088 -1.4162  1.7127 -0.1310
   87CHL1    C3 8845   2.916   6.456   6.792 -0.3949  0.3736  0.1715
   87CHL1    H3 8846   2.827   6.390   6.797  0.7844 -1.2354  0.3475
   87CHL1    O3 8847   2.936   6.504   6.663  0.0854  0.1025  0.2949
   87CHL1   H3' 8848   2.954   6.425   6.611  1.2729 -0.3971  1.4015
   87CHL1    C4 8849   2.882   6.583   6.885  0.3136  0.0743  0.1842
   87CHL1   H4A 8850   2.956   6.657   6.847 -1.6041  1.5910 -0.8029
   87CHL1   H4B 8851   2.784   6.606   6.838  0.6746  1.6590  0.1461
   87CHL1    C5 8852   2.880   6.566   7.033 -0.5420 -0.3573  0.2187
   87CHL1    C6 8853   2.772   6.607   7.106 -0.5892 -0.8623 -0.0920
   87CHL1    H6 8854   2.685   6.655   7.059  1.1944  1.3673 -1.2958
   87CHL1    C7 8855   2.762   6.574   7.253 -0.1823  0.4046  0.4146
   87CHL1   H7A 8856   2.717   6.659   7.307 -1.2176  0.5931 -0.7118
   87CHL1   H7B 8857   2.701   6.483   7.274  1.7734 -0.9396  0.6548
   87CHL1    C8 8858   2.908   6.554   7.306  0.4279 -0.5974  0.1705
   87CHL1    H8 8859   2.956   6.654   7.303 -2.0124  0.6854  1.4360
   87CHL1   C14 8860   2.894   6.503   7.446  0.0528 -0.2671  0.7744
   87CHL1   H14 8861   2.865   6.397   7.431 -1.5561  0.3423 -0.7140
   87CHL1   C15 8862   2.774   6.540   7.540 -0.5984 -0.4702 -0.6834
   87CHL1  H15A 8863   2.758   6.649   7.525  0.9652 -0.4772 -3.0013
   87CHL1  H15B 8864   2.683   6.482   7.512 -1.0358 -1.0832  1.8053
   87CHL1   C16 8865   2.827   6.519   7.681 -0.2867  0.3964 -0.4942
   87CHL1  H16A 8866   2.844   6.611   7.741  0.2128 -0.9983  1.5969
   87CHL1  H16B 8867   2.752   6.454   7.732 -0.3557  0.0560 -1.0204
   87CHL1   C17 8868   2.966   6.449   7.661  0.7371 -0.0681 -0.9201
   87CHL1   H17 8869   2.935   6.342   7.660  1.5330 -0.3893  1.4758
   87CHL1   C13 8870   3.021   6.493   7.523 -0.0066 -0.3146  0.8456
   87CHL1   C18 8871   3.083   6.630   7.537  0.4717 -0.1131  0.2986
   87CHL1  H18A 8872   3.143   6.654   7.447 -0.8230 -0.1403 -0.5865
   87CHL1  H18B 8873   3.013   6.716   7.540  1.8108  0.9846  1.9980
   87CHL1  H18C 8874   3.144   6.633   7.630  0.5015  1.1265  0.2545
   87CHL1   C12 8875   3.105   6.383   7.453 -0.4972  0.2963 -0.3607
   87CHL1  H12A 8876   3.210   6.369   7.485  0.7358  2.5124 -2.9455
   87CHL1  H12B 8877   3.053   6.287   7.473  2.6262 -1.3549  0.4813
   87CHL1   C11 8878   3.119   6.407   7.306 -0.2497 -0.6990  0.0458
   87CHL1  H11A 8879   3.190   6.493   7.301  0.3106 -1.1669 -0.0965
   87CHL1  H11B 8880   3.157   6.315   7.256 -1.7244  0.6338 -3.9505
   87CHL1    C9 8881   2.985   6.451   7.235  0.2196 -0.7844  0.2627
   87CHL1    H9 8882   2.924   6.358   7.226  1.8887 -2.1160  2.0343
   87CHL1   C10 8883   2.998   6.492   7.087 -0.4015  0.4811 -0.2123
   87CHL1   C19 8884   3.109   6.606   7.077  0.5182  0.3546  0.3217
   87CHL1  H19A 8885   3.197   6.582   7.140  0.1409  0.2057  0.7984
   87CHL1  H19B 8886   3.147   6.620   6.973  0.0816  0.4382  0.1703
   87CHL1  H19C 8887   3.072   6.708   7.100 -1.6783 -0.6832  1.7745
   87CHL1    C1 8888   3.024   6.372   6.998 -0.2768 -0.2202  0.1703
   87CHL1   H1A 8889   3.124   6.337   7.031  0.4776  1.7025  0.0305
   87CHL1   H1B 8890   2.937   6.302   7.001 -0.7198  0.2643 -0.8486
   87CHL1    C2 8891   3.046   6.398   6.846  0.2632  0.3961  0.3846
   87CHL1   H2A 8892   3.072   6.296   6.811 -1.2413 -0.2602  1.1038
   87CHL1   H2B 8893   3.128   6.472   6.833  2.0288 -1.6610 -0.8193
   87CHL1   C20 8894   3.043   6.466   7.797  0.0979 -0.2129  0.3081
   87CHL1   H20 8895   3.077   6.572   7.803 -2.1738  0.6190 -0.5062
   87CHL1   C21 8896   3.162   6.377   7.793  0.1643 -0.6461  0.3772
   87CHL1  H21A 8897   3.237   6.406   7.716  1.8005  2.0334  2.7761
   87CHL1  H21B 8898   3.121   6.276   7.770 -2.3058  0.2141  0.6570
   87CHL1  H21C 8899   3.217   6.378   7.889  2.7089 -2.7046 -0.9342
   87CHL1   C22 8900   2.958   6.469   7.930 -0.7344  0.0872  0.2085
   87CHL1  H22A 8901   3.032   6.490   8.011  0.8409 -0.1908 -1.1006
   87CHL1  H22B 8902   2.884   6.551   7.924 -0.4711  0.4010  1.0363
   87CHL1   C23 8903   2.885   6.338   7.972 -0.5582 -0.3631  0.4882
   87CHL1  H23A 8904   2.826   6.308   7.883  0.4101 -1.0318  0.0596
   87CHL1  H23B 8905   2.951   6.253   7.999  0.2161  0.6539  1.9401
   87CHL1   C24 8906   2.784   6.377   8.083  0.0091 -0.0483  0.1223
   87CHL1  H24A 8907   2.836   6.426   8.168 -0.0566  2.5574 -1.2468
   87CHL1  H24B 8908   2.719   6.449   8.028  1.2294  2.1553  1.4396
   87CHL1   C25 8909   2.691   6.257   8.130 -0.4560 -0.2282  0.1130
   87CHL1   H25 8910   2.661   6.209   8.034 -0.9751 -1.1699  0.7383
   87CHL1   C26 8911   2.759   6.152   8.220 -0.3511 -0.0550  0.2668
   87CHL1  H26A 8912   2.784   6.194   8.320  3.6311  0.9078 -0.9779
   87CHL1  H26B 8913   2.693   6.065   8.242 -1.3115  0.6271  0.1390
   87CHL1  H26C 8914   2.853   6.119   8.172  0.7867  1.9048  1.0092
   87CHL1   C27 8915   2.557   6.306   8.191 -0.0658 -0.3934  0.2183
   87CHL1  H27A 8916   2.477   6.229   8.188 -0.0045 -0.6491  2.9010
   87CHL1  H27B 8917   2.574   6.339   8.295 -1.9661  0.1780  0.3797
   87CHL1  H27C 8918   2.527   6.391   8.126 -2.4057 -0.3541  1.2462
   88CHL1    C3 8919   6.778   4.345   6.822  0.4748  0.8430  0.7237
   88CHL1    H3 8920   6.689   4.281   6.807  0.3219  0.8934  1.3755
   88CHL1    O3 8921   6.818   4.388   6.692 -0.1319 -0.9440  0.8726
   88CHL1   H3' 8922   6.746   4.448   6.670  1.6868  1.0699 -0.0068
   88CHL1    C4 8923   6.733   4.472   6.906 -0.1638  0.2828  0.0310
   88CHL1   H4A 8924   6.828   4.530   6.916  0.6414 -0.7972 -0.9818
   88CHL1   H4B 8925   6.656   4.524   6.845 -0.5504 -0.3012  0.0187
   88CHL1    C5 8926   6.679   4.435   7.042 -0.1834  0.3710 -0.3451
   88CHL1    C6 8927   6.553   4.471   7.076 -0.5083  0.1666  0.2685
   88CHL1    H6 8928   6.500   4.532   7.001 -2.3645 -1.6999 -0.0319
   88CHL1    C7 8929   6.490   4.446   7.210 -0.2666 -0.1526 -0.4429
   88CHL1   H7A 8930   6.429   4.526   7.257 -1.7338 -1.5124  0.0396
   88CHL1   H7B 8931   6.418   4.362   7.203 -0.1843 -0.1399 -1.7886
   88CHL1    C8 8932   6.595   4.396   7.319  0.4744 -0.6422 -0.4557
   88CHL1    H8 8933   6.653   4.487   7.347 -0.3718  0.3068 -1.6869
   88CHL1   C14 8934   6.520   4.319   7.439  0.1546 -0.3508  0.2215
   88CHL1   H14 8935   6.462   4.237   7.390 -0.9341  0.7556 -0.3979
   88CHL1   C15 8936   6.405   4.397   7.507  0.2922 -0.4116 -0.6496
   88CHL1  H15A 8937   6.431   4.502   7.533  0.8070 -0.9816  1.3199
   88CHL1  H15B 8938   6.309   4.406   7.453  1.3702  2.1444 -2.3365
   88CHL1   C16 8939   6.406   4.326   7.655  0.1908  0.5852  0.7940
   88CHL1  H16A 8940   6.440   4.404   7.727  3.7447  0.4300 -0.5196
   88CHL1  H16B 8941   6.311   4.276   7.681  1.4098 -0.9649  2.5675
   88CHL1   C17 8942   6.519   4.211   7.658  0.2747 -0.6031 -0.5756
   88CHL1   H17 8943   6.480   4.113   7.623  1.6415 -1.4845  0.2669
   88CHL1   C13 8944   6.613   4.268   7.546  1.0582 -0.6018  0.0132
   88CHL1   C18 8945   6.692   4.383   7.621 -0.3839  0.2199  0.1283
   88CHL1  H18A 8946   6.633   4.446   7.691  0.9584  0.6212  0.9454
   88CHL1  H18B 8947   6.775   4.333   7.675 -0.0441 -0.0163 -0.5924
   88CHL1  H18C 8948   6.741   4.448   7.544  1.2807 -1.6878 -0.5107
   88CHL1   C12 8949   6.710   4.172   7.482 -0.0713  0.7984 -0.1127
   88CHL1  H12A 8950   6.784   4.130   7.554 -2.3196 -2.4013  0.5393
   88CHL1  H12B 8951   6.655   4.083   7.446 -0.8573  1.2736 -0.1105
   88CHL1   C11 8952   6.789   4.232   7.355  0.0115  0.2924 -0.2705
   88CHL1  H11A 8953   6.867   4.299   7.396  0.4143  0.1036 -0.7240
   88CHL1  H11B 8954   6.837   4.142   7.312  1.8425  0.4503  1.2903
   88CHL1    C9 8955   6.698   4.299   7.255 -0.7654 -0.0565 -0.3876
   88CHL1    H9 8956   6.636   4.219   7.209  2.1476 -1.2606 -2.5385
   88CHL1   C10 8957   6.779   4.355   7.127 -0.5509  0.5173 -0.0453
   88CHL1   C19 8958   6.891   4.447   7.171  0.2648  0.1367  0.4845
   88CHL1  H19A 8959   6.962   4.392   7.236 -0.5097  0.0450  1.2749
   88CHL1  H19B 8960   6.946   4.479   7.081 -1.3871  1.2899 -0.1669
   88CHL1  H19C 8961   6.859   4.539   7.224  0.5505 -0.6578  2.1286
   88CHL1    C1 8962   6.836   4.234   7.045  0.2043 -0.1475 -0.3900
   88CHL1   H1A 8963   6.911   4.195   7.117  0.1512  1.5161  0.6230
   88CHL1   H1B 8964   6.755   4.160   7.031 -0.9053  0.6354  1.5440
   88CHL1    C2 8965   6.886   4.271   6.901  0.4051 -0.4508 -0.4995
   88CHL1   H2A 8966   6.924   4.180   6.849  1.6977  0.3224 -0.9223
   88CHL1   H2B 8967   6.970   4.340   6.919 -0.3744  0.3035  0.3523
   88CHL1   C20 8968   6.576   4.193   7.802  0.0075 -0.4472 -0.0449
   88CHL1   H20 8969   6.638   4.283   7.817  0.6407 -0.4164 -2.4119
   88CHL1   C21 8970   6.672   4.078   7.811  0.3668  0.7413 -0.1378
   88CHL1  H21A 8971   6.767   4.105   7.758  1.1995 -1.8353 -0.0693
   88CHL1  H21B 8972   6.635   3.981   7.774 -0.4915  0.7105  0.7627
   88CHL1  H21C 8973   6.703   4.061   7.916 -0.0263  0.0255 -0.1345
   88CHL1   C22 8974   6.472   4.183   7.910 -0.3663 -0.8122 -0.2264
   88CHL1  H22A 8975   6.369   4.191   7.870 -0.7609 -0.4713  0.8515
   88CHL1  H22B 8976   6.479   4.083   7.957  0.5098  0.9546  3.7759
   88CHL1   C23 8977   6.497   4.290   8.024  0.3184  0.5278  0.2558
   88CHL1  H23A 8978   6.597   4.283   8.073 -0.0052  0.9007  0.9823
   88CHL1  H23B 8979   6.500   4.392   7.978  0.7518  1.3267  1.9874
   88CHL1   C24 8980   6.393   4.294   8.136  0.3323  0.1109 -0.0681
   88CHL1  H24A 8981   6.423   4.359   8.221  0.8528 -1.1174  0.6990
   88CHL1  H24B 8982   6.297   4.333   8.096  0.5391  0.6781 -0.0273
   88CHL1   C25 8983   6.360   4.152   8.198 -0.1592 -0.8983 -0.0334
   88CHL1   H25 8984   6.307   4.094   8.120 -1.3090 -2.3513  1.7313
   88CHL1   C26 8985   6.482   4.068   8.234 -0.1693 -0.3312 -0.1041
   88CHL1  H26A 8986   6.560   4.112   8.301 -0.3317 -0.8691  0.4475
   88CHL1  H26B 8987   6.452   3.969   8.274  0.2936 -1.0819 -1.5691
   88CHL1  H26C 8988   6.545   4.054   8.144 -0.6568 -1.0829 -0.3320
   88CHL1   C27 8989   6.266   4.171   8.315  0.0337  0.9134 -0.7129
   88CHL1  H27A 8990   6.253   4.084   8.383 -2.4588  0.0200 -2.2215
   88CHL1  H27B 8991   6.283   4.267   8.368 -0.8723  2.7228 -3.5182
   88CHL1  H27C 8992   6.164   4.175   8.272  0.3066  0.3641 -1.4253
   89CHL1    C3 8993   1.489   5.860   6.981  0.4170 -0.1574 -0.0558
   89CHL1    H3 8994   1.457   5.754   6.993  0.2234 -0.0490  0.4049
   89CHL1    O3 8995   1.502   5.887   6.844  0.0059 -0.0377  0.1653
   89CHL1   H3' 8996   1.529   5.979   6.837  1.0724 -0.4332 -1.7612
   89CHL1    C4 8997   1.392   5.956   7.054  0.1046  0.1322 -0.0201
   89CHL1   H4A 8998   1.446   6.051   7.036  0.3197  0.1862  0.8472
   89CHL1   H4B 8999   1.290   5.961   7.010 -0.4567  2.2972  1.3869
   89CHL1    C5 9000   1.378   5.941   7.202  0.6725 -0.4113 -0.3417
   89CHL1    C6 9001   1.259   5.922   7.262  0.0488  0.0619 -0.0418
   89CHL1    H6 9002   1.170   5.921   7.198 -0.0878  0.6240  0.1254
   89CHL1    C7 9003   1.229   5.908   7.410 -0.6480  0.0773  0.0094
   89CHL1   H7A 9004   1.140   5.969   7.436 -0.7391  0.5942 -1.4283
   89CHL1   H7B 9005   1.187   5.806   7.422  1.2403 -0.5427  2.0966
   89CHL1    C8 9006   1.354   5.927   7.501  0.3103 -0.6855  0.3182
   89CHL1    H8 9007   1.376   6.035   7.510 -0.3784 -0.5980  1.0447
   89CHL1   C14 9008   1.331   5.861   7.636  0.1166  0.5119 -1.0883
   89CHL1   H14 9009   1.315   5.753   7.618  2.1563  0.3428 -2.1952
   89CHL1   C15 9010   1.206   5.908   7.723  0.2690 -0.0472 -0.0022
   89CHL1  H15A 9011   1.197   6.018   7.711  0.9024  0.0502  0.3437
   89CHL1  H15B 9012   1.110   5.869   7.685 -1.5821  2.9528  1.2019
   89CHL1   C16 9013   1.242   5.870   7.866  0.4927  0.0772  0.5777
   89CHL1  H16A 9014   1.233   5.949   7.944  1.0295  0.4486  0.2703
   89CHL1  H16B 9015   1.197   5.775   7.902 -3.1762  0.7103 -1.8901
   89CHL1   C17 9016   1.391   5.824   7.862  0.1449  0.3592 -0.6586
   89CHL1   H17 9017   1.396   5.713   7.854 -1.0695  0.0302  2.1304
   89CHL1   C13 9018   1.454   5.876   7.730 -0.1680 -0.0994  0.0965
   89CHL1   C18 9019   1.504   6.015   7.757  0.8213 -0.9293 -0.2010
   89CHL1  H18A 9020   1.429   6.084   7.802 -0.9447 -2.6709 -0.3431
   89CHL1  H18B 9021   1.601   6.026   7.811  2.0681 -0.7060 -2.3769
   89CHL1  H18C 9022   1.532   6.069   7.664  1.9095  0.6878  0.9902
   89CHL1   C12 9023   1.561   5.791   7.657 -0.3299  0.0395 -0.2027
   89CHL1  H12A 9024   1.646   5.794   7.728  0.5509  1.7879 -1.2764
   89CHL1  H12B 9025   1.536   5.685   7.633 -0.1127  0.4534 -2.4785
   89CHL1   C11 9026   1.608   5.858   7.527  0.4906  0.0970 -0.6740
   89CHL1  H11A 9027   1.649   5.961   7.540 -2.6130  1.5716 -1.4635
   89CHL1  H11B 9028   1.686   5.792   7.485  0.4891 -0.7434  0.5876
   89CHL1    C9 9029   1.480   5.870   7.432 -0.4531 -0.4355 -0.3603
   89CHL1    H9 9030   1.448   5.767   7.409 -2.3885 -0.2074  1.0908
   89CHL1   C10 9031   1.505   5.932   7.289  0.2862  0.1959  0.5603
   89CHL1   C19 9032   1.554   6.077   7.310  0.1670  0.3627  0.3487
   89CHL1  H19A 9033   1.604   6.119   7.220  0.5409 -0.2521  0.2609
   89CHL1  H19B 9034   1.479   6.147   7.352  1.8162  2.4141  0.0587
   89CHL1  H19C 9035   1.632   6.070   7.390  0.1390  1.7493  0.5361
   89CHL1    C1 9036   1.615   5.857   7.200  0.1256  0.4601  0.5504
   89CHL1   H1A 9037   1.713   5.874   7.249  0.0593  1.1625  0.4535
   89CHL1   H1B 9038   1.597   5.748   7.205 -0.9374  0.5611 -0.4126
   89CHL1    C2 9039   1.627   5.878   7.046 -0.4472  1.1070 -0.9080
   89CHL1   H2A 9040   1.698   5.810   6.993 -2.0980 -2.5525  1.1679
   89CHL1   H2B 9041   1.651   5.985   7.029 -1.5559  1.7330  1.1531
   89CHL1   C20 9042   1.457   5.853   7.995  0.1757  0.1418 -0.7420
   89CHL1   H20 9043   1.458   5.963   8.012  1.2368  0.2180 -1.2335
   89CHL1   C21 9044   1.601   5.799   7.985 -0.7820 -0.7829  0.1769
   89CHL1  H21A 9045   1.665   5.862   7.921  0.5346 -1.3567  0.8928
   89CHL1  H21B 9046   1.604   5.697   7.941  0.5372  0.2370 -2.2942
   89CHL1  H21C 9047   1.655   5.794   8.082  1.1138  0.8480 -0.7294
   89CHL1   C22 9048   1.380   5.790   8.113  0.1312 -0.1266  0.2088
   89CHL1  H22A 9049   1.278   5.833   8.124  0.1127 -0.3339  0.9692
   89CHL1  H22B 9050   1.368   5.682   8.091 -1.0433 -0.2447  1.2600
   89CHL1   C23 9051   1.449   5.809   8.255 -0.0925  0.1303  0.1894
   89CHL1  H23A 9052   1.543   5.750   8.254 -0.6066 -0.7675 -2.2152
   89CHL1  H23B 9053   1.483   5.914   8.259  1.1718 -0.0267 -3.0739
   89CHL1   C24 9054   1.365   5.771   8.375  0.0100 -0.2178  0.0879
   89CHL1  H24A 9055   1.297   5.852   8.409 -1.1670 -0.7555 -0.8695
   89CHL1  H24B 9056   1.298   5.686   8.347  1.8445 -1.2189 -1.4987
   89CHL1   C25 9057   1.441   5.728   8.506 -0.1909  0.2664  0.4935
   89CHL1   H25 9058   1.523   5.665   8.465  1.5862  2.5197  0.3526
   89CHL1   C26 9059   1.504   5.845   8.579 -0.1123  0.1195 -0.2697
   89CHL1  H26A 9060   1.555   5.817   8.674 -1.7688  0.0489  0.6544
   89CHL1  H26B 9061   1.571   5.900   8.510 -0.2361  1.9141  0.9679
   89CHL1  H26C 9062   1.441   5.931   8.611  0.2275  0.8617 -1.5665
   89CHL1   C27 9063   1.346   5.634   8.588 -0.1693 -0.9800  0.4049
   89CHL1  H27A 9064   1.303   5.551   8.528  1.4453  0.2232 -2.6429
   89CHL1  H27B 9065   1.391   5.592   8.680 -0.2537  1.4483  1.6410
   89CHL1  H27C 9066   1.267   5.706   8.618  1.4984  0.2660  1.9993
   90CHL1    C3 9067   3.055   5.465   6.920  0.0802  0.3992 -0.8294
   90CHL1    H3 9068   3.123   5.378   6.936 -0.8766  0.1885  3.4755
   90CHL1    O3 9069   3.011   5.470   6.789 -0.4058  0.5469  0.4031
   90CHL1   H3' 9070   3.048   5.553   6.759 -2.3677  2.0912  1.9653
   90CHL1    C4 9071   2.938   5.455   7.015  0.3351  0.0734  0.3953
   90CHL1   H4A 9072   2.888   5.554   7.006 -0.9178 -0.6027 -0.4326
   90CHL1   H4B 9073   2.863   5.381   6.979  0.6654  0.0896 -0.3494
   90CHL1    C5 9074   2.989   5.447   7.157 -0.3744  0.4130  0.0824
   90CHL1    C6 9075   2.962   5.329   7.227  0.7640 -0.4547  0.5514
   90CHL1    H6 9076   2.907   5.248   7.176  1.0816 -0.4429  0.1882
   90CHL1    C7 9077   3.012   5.288   7.363 -0.3250  0.3381 -0.4748
   90CHL1   H7A 9078   2.938   5.242   7.432  1.2676  0.0565  1.1149
   90CHL1   H7B 9079   3.099   5.220   7.348  1.0708  2.1095 -0.8464
   90CHL1    C8 9080   3.066   5.423   7.431 -0.0504  0.9743 -0.9624
   90CHL1    H8 9081   2.967   5.468   7.453 -0.3491 -0.3168  0.4757
   90CHL1   C14 9082   3.134   5.383   7.567 -0.4627  0.9831  0.3243
   90CHL1   H14 9083   3.217   5.318   7.532 -0.8713  0.6769 -0.0922
   90CHL1   C15 9084   3.051   5.311   7.671 -0.3518  0.0142  0.6977
   90CHL1  H15A 9085   2.956   5.362   7.697 -0.3084 -0.5199  1.9614
   90CHL1  H15B 9086   3.021   5.208   7.640 -0.2821 -0.3956  1.9528
   90CHL1   C16 9087   3.130   5.313   7.797 -0.7823 -0.0130 -0.7686
   90CHL1  H16A 9088   3.058   5.338   7.878  1.6784  2.2544  0.8699
   90CHL1  H16B 9089   3.184   5.218   7.816 -1.3355 -0.0971  0.4787
   90CHL1   C17 9090   3.231   5.431   7.767  0.3258 -0.1979  0.3747
   90CHL1   H17 9091   3.325   5.379   7.738  0.4174 -0.6286  1.4001
   90CHL1   C13 9092   3.188   5.501   7.639 -0.2625 -0.0809  0.6008
   90CHL1   C18 9093   3.068   5.590   7.667  0.7424  0.5095 -0.2523
   90CHL1  H18A 9094   2.995   5.607   7.585 -1.0294 -2.3980  0.5571
   90CHL1  H18B 9095   3.004   5.555   7.750  0.4411 -1.9654 -1.4285
   90CHL1  H18C 9096   3.110   5.689   7.696 -0.6231  0.9149  0.4269
   90CHL1   C12 9097   3.300   5.564   7.548  0.3167  0.2283 -0.1989
   90CHL1  H12A 9098   3.344   5.649   7.604 -2.0778  1.0532  0.5594
   90CHL1  H12B 9099   3.380   5.488   7.536  0.4096  0.1969  0.5602
   90CHL1   C11 9100   3.235   5.624   7.419 -0.1302  0.0878 -0.1343
   90CHL1  H11A 9101   3.166   5.706   7.449  3.2849  2.8314  0.9840
   90CHL1  H11B 9102   3.323   5.663   7.363 -0.3319 -0.1498 -0.6195
   90CHL1    C9 9103   3.154   5.515   7.342 -0.2078  1.8484 -0.6617
   90CHL1    H9 9104   3.235   5.445   7.312 -0.3365  0.3795  2.1522
   90CHL1   C10 9105   3.086   5.558   7.211  0.0430 -0.3777  0.0607
   90CHL1   C19 9106   2.987   5.677   7.252 -0.6073  0.2263  0.8098
   90CHL1  H19A 9107   2.909   5.686   7.173 -0.2898  0.1421  0.4813
   90CHL1  H19B 9108   2.934   5.653   7.346 -0.5570  1.1199  1.0722
   90CHL1  H19C 9109   3.047   5.769   7.265 -0.2288 -0.3279  3.5694
   90CHL1    C1 9110   3.195   5.578   7.105  0.8168  0.1948 -0.5716
   90CHL1   H1A 9111   3.255   5.669   7.124 -0.0137  0.7413 -0.5401
   90CHL1   H1B 9112   3.260   5.487   7.110 -0.0707 -0.4129  0.0758
   90CHL1    C2 9113   3.133   5.592   6.962  0.4686  0.7323  1.0401
   90CHL1   H2A 9114   3.212   5.591   6.885 -1.8063 -1.4875 -1.4651
   90CHL1   H2B 9115   3.066   5.680   6.964  0.2573  0.6031 -0.0756
   90CHL1   C20 9116   3.253   5.516   7.894 -0.1430 -0.4086 -0.2024
   90CHL1   H20 9117   3.154   5.562   7.916 -0.0217  0.2427 -0.9831
   90CHL1   C21 9118   3.337   5.640   7.871 -0.0409  0.2006  0.4524
   90CHL1  H21A 9119   3.376   5.686   7.964 -1.2380  3.8710 -0.6910
   90CHL1  H21B 9120   3.277   5.715   7.815  2.1570  1.6196 -0.1286
   90CHL1  H21C 9121   3.425   5.624   7.805 -1.6747 -2.5298 -1.2500
   90CHL1   C22 9122   3.291   5.436   8.015 -0.3124  0.1148  1.0056
   90CHL1  H22A 9123   3.317   5.512   8.092  0.2690 -1.3336  2.3108
   90CHL1  H22B 9124   3.205   5.371   8.043 -1.0868 -0.3603 -2.1332
   90CHL1   C23 9125   3.415   5.352   7.996 -1.0536 -0.1081 -0.3101
   90CHL1  H23A 9126   3.400   5.284   7.910  3.4706  0.6142 -1.9872
   90CHL1  H23B 9127   3.511   5.409   7.987 -1.0725 -0.2269 -1.3785
   90CHL1   C24 9128   3.435   5.270   8.124  0.6706  0.1122 -0.9348
   90CHL1  H24A 9129   3.432   5.332   8.217  1.2155 -0.7908 -0.2952
   90CHL1  H24B 9130   3.344   5.207   8.129  2.0407 -1.9900 -1.0943
   90CHL1   C25 9131   3.553   5.176   8.123 -0.1641  0.0158 -0.2362
   90CHL1   H25 9132   3.545   5.128   8.023  1.7779  0.0473 -0.4436
   90CHL1   C26 9133   3.690   5.254   8.119 -0.2976  0.0039  0.0849
   90CHL1  H26A 9134   3.691   5.312   8.024 -2.3698 -1.6459 -1.0332
   90CHL1  H26B 9135   3.688   5.335   8.194 -0.6992  1.3971 -1.3582
   90CHL1  H26C 9136   3.780   5.188   8.128  0.0887  0.2382 -1.6213
   90CHL1   C27 9137   3.544   5.067   8.232 -0.4388  1.3032 -0.0161
   90CHL1  H27A 9138   3.447   5.013   8.215 -1.0633  2.3839  0.0444
   90CHL1  H27B 9139   3.631   4.998   8.229  0.2217  2.1457 -0.4848
   90CHL1  H27C 9140   3.540   5.110   8.334  1.0652  3.2539 -0.7350
   91CHL1    C3 9141   6.197   3.393   7.070 -0.3024 -0.3360 -0.3573
   91CHL1    H3 9142   6.190   3.284   7.092 -1.4950 -0.7834 -2.6638
   91CHL1    O3 9143   6.260   3.393   6.946 -0.0614 -0.7880  0.1051
   91CHL1   H3' 9144   6.273   3.487   6.928  1.5352 -1.0098 -0.0250
   91CHL1    C4 9145   6.056   3.446   7.057  0.1522 -0.3246  0.5584
   91CHL1   H4A 9146   6.060   3.553   7.029 -0.0749 -0.3386  0.4660
   91CHL1   H4B 9147   5.990   3.395   6.983 -4.0675  3.1816  1.5186
   91CHL1    C5 9148   5.979   3.432   7.191  0.3629  0.1191 -0.1904
   91CHL1    C6 9149   5.868   3.357   7.206  0.4147  0.8010  0.1934
   91CHL1    H6 9150   5.836   3.311   7.112  2.0326  0.1011 -0.0475
   91CHL1    C7 9151   5.793   3.352   7.335 -0.5128  0.2213 -0.3045
   91CHL1   H7A 9152   5.684   3.356   7.315 -0.2477 -0.4185 -2.0350
   91CHL1   H7B 9153   5.803   3.251   7.379 -0.7319  0.4750  0.3399
   91CHL1    C8 9154   5.842   3.456   7.442  0.0055  0.5209 -0.6005
   91CHL1    H8 9155   5.802   3.555   7.412 -0.7324  0.5255  0.3171
   91CHL1   C14 9156   5.773   3.433   7.573  1.1681 -0.4210 -0.2893
   91CHL1   H14 9157   5.775   3.324   7.597  0.5465 -0.5486 -0.7688
   91CHL1   C15 9158   5.628   3.463   7.589  0.0850  0.1728 -0.0391
   91CHL1  H15A 9159   5.600   3.566   7.555  0.1902 -0.0102 -0.7065
   91CHL1  H15B 9160   5.574   3.382   7.535  0.9979 -2.5357  2.8541
   91CHL1   C16 9161   5.602   3.444   7.737  0.3050 -0.4055  0.4892
   91CHL1  H16A 9162   5.525   3.521   7.758 -0.2730 -0.2782 -1.8206
   91CHL1  H16B 9163   5.545   3.353   7.766 -0.6938 -0.2573 -0.9066
   91CHL1   C17 9164   5.739   3.461   7.811  0.4130  1.1040  0.2251
   91CHL1   H17 9165   5.766   3.356   7.834  2.4411  1.8949  1.7073
   91CHL1   C13 9166   5.829   3.505   7.693 -0.1482  0.2984  0.5143
   91CHL1   C18 9167   5.811   3.659   7.675  0.0623  0.1604  0.5412
   91CHL1  H18A 9168   5.852   3.702   7.581  0.1497  0.1987  0.5966
   91CHL1  H18B 9169   5.707   3.698   7.678 -0.0807 -0.1906  0.1114
   91CHL1  H18C 9170   5.860   3.701   7.766 -1.7438  2.0350  0.7139
   91CHL1   C12 9171   5.980   3.464   7.698 -0.1045 -0.0518  0.7357
   91CHL1  H12A 9172   6.045   3.511   7.774  1.7766  1.3407 -1.6116
   91CHL1  H12B 9173   5.989   3.353   7.703  1.3428 -0.1691 -2.1520
   91CHL1   C11 9174   6.052   3.506   7.573  0.0813  0.2496  0.1943
   91CHL1  H11A 9175   6.076   3.615   7.567  1.5481 -0.0866 -0.4804
   91CHL1  H11B 9176   6.154   3.464   7.585 -0.9771 -1.7562  3.0423
   91CHL1    C9 9177   5.992   3.454   7.446  0.3951 -0.0886 -0.6172
   91CHL1    H9 9178   6.011   3.345   7.450 -4.4072 -1.1180 -0.5331
   91CHL1   C10 9179   6.054   3.495   7.312 -0.0916 -0.0704  0.0079
   91CHL1   C19 9180   6.036   3.647   7.289 -0.8094 -0.2394  0.1654
   91CHL1  H19A 9181   6.080   3.703   7.375  0.0870  1.5977 -1.4229
   91CHL1  H19B 9182   6.094   3.681   7.201 -0.3859  0.3256  0.6482
   91CHL1  H19C 9183   5.930   3.681   7.278 -0.3400  1.2506  0.0191
   91CHL1    C1 9184   6.211   3.462   7.315 -0.5370  0.0668  0.3682
   91CHL1   H1A 9185   6.273   3.536   7.370  1.3093 -0.4393 -0.9580
   91CHL1   H1B 9186   6.222   3.360   7.359  1.0542  0.0125 -0.0917
   91CHL1    C2 9187   6.280   3.465   7.180  0.3860 -0.4533 -1.1814
   91CHL1   H2A 9188   6.389   3.443   7.170  0.7729  1.3202 -1.1753
   91CHL1   H2B 9189   6.280   3.572   7.152 -0.8715  0.1005  0.7655
   91CHL1   C20 9190   5.734   3.539   7.944  0.7061  0.4337 -0.2964
   91CHL1   H20 9191   5.721   3.647   7.924  0.9517  0.6825  0.7930
   91CHL1   C21 9192   5.875   3.531   8.009  0.7534  0.2982 -0.4168
   91CHL1  H21A 9193   5.906   3.425   8.018  0.9601  0.2517 -1.5941
   91CHL1  H21B 9194   5.875   3.587   8.105  1.1377  0.2141 -0.3658
   91CHL1  H21C 9195   5.950   3.593   7.956  1.2387 -0.1758 -0.2945
   91CHL1   C22 9196   5.617   3.495   8.036  0.4397  1.1199  0.1429
   91CHL1  H22A 9197   5.522   3.500   7.978  0.3567  0.7881  0.2506
   91CHL1  H22B 9198   5.639   3.389   8.061  0.0030  1.2290  1.0335
   91CHL1   C23 9199   5.598   3.575   8.169 -0.3617 -0.2420 -1.3407
   91CHL1  H23A 9200   5.678   3.555   8.243 -0.5170  2.2394 -0.3945
   91CHL1  H23B 9201   5.612   3.683   8.146  0.0185 -0.1091 -0.5259
   91CHL1   C24 9202   5.460   3.559   8.235  0.1324  0.1306 -0.1516
   91CHL1  H24A 9203   5.385   3.560   8.153 -1.9489 -1.9341  1.5861
   91CHL1  H24B 9204   5.438   3.466   8.292 -1.3416 -0.9096 -2.2780
   91CHL1   C25 9205   5.431   3.672   8.330  0.8475  0.5300 -0.2481
   91CHL1   H25 9206   5.429   3.768   8.274 -0.0889  1.5499  1.4539
   91CHL1   C26 9207   5.288   3.667   8.387 -0.6135  0.0466  0.9502
   91CHL1  H26A 9208   5.275   3.575   8.448 -0.8271 -0.0902  0.7006
   91CHL1  H26B 9209   5.272   3.755   8.453  0.0371  0.8003  0.1236
   91CHL1  H26C 9210   5.215   3.689   8.307  1.5757  4.5643 -0.0966
   91CHL1   C27 9211   5.542   3.704   8.437  0.1252  0.5678 -0.6019
   91CHL1  H27A 9212   5.576   3.606   8.475 -0.4179  1.4989  2.5627
   91CHL1  H27B 9213   5.624   3.759   8.387 -1.0388  3.8702  0.8226
   91CHL1  H27C 9214   5.495   3.759   8.522  1.9229 -0.8794  1.4375
   92CHL1    C3 9215   2.829   3.912   6.869  0.2300  0.0168  0.3786
   92CHL1    H3 9216   2.835   4.017   6.905 -2.1212  0.5282 -0.5022
   92CHL1    O3 9217   2.842   3.905   6.727  0.4269  0.0046 -0.2981
   92CHL1   H3' 9218   2.884   3.818   6.720  1.0604  0.4219 -2.5521
   92CHL1    C4 9219   2.947   3.843   6.948 -0.1564  0.0243  0.4415
   92CHL1   H4A 9220   2.960   3.741   6.906  1.3286  1.1088 -1.9536
   92CHL1   H4B 9221   3.037   3.903   6.920  0.0068  0.3962  1.7002
   92CHL1    C5 9222   2.924   3.832   7.098 -0.7731 -0.1615  0.0606
   92CHL1    C6 9223   3.002   3.893   7.190  0.0597 -0.0920 -0.8295
   92CHL1    H6 9224   3.093   3.948   7.161  0.7066 -0.4849  0.3632
   92CHL1    C7 9225   2.976   3.859   7.338  0.2236 -0.4274  0.2408
   92CHL1   H7A 9226   3.067   3.813   7.384 -0.5002 -1.1679  0.9748
   92CHL1   H7B 9227   2.960   3.954   7.393 -2.7600 -1.0688  0.6543
   92CHL1    C8 9228   2.862   3.761   7.383 -0.9950 -0.7100 -0.8652
   92CHL1    H8 9229   2.913   3.662   7.382  2.2187  0.8021 -0.9231
   92CHL1   C14 9230   2.816   3.778   7.531  0.4863  0.1686 -0.6941
   92CHL1   H14 9231   2.755   3.868   7.549  0.7090  0.5668 -1.8296
   92CHL1   C15 9232   2.919   3.788   7.643  0.0693  0.2709  1.2546
   92CHL1  H15A 9233   2.982   3.700   7.619 -0.1032  0.5689 -0.4428
   92CHL1  H15B 9234   2.985   3.876   7.653 -0.7515  0.7385  2.8181
   92CHL1   C16 9235   2.829   3.761   7.764  0.2821 -0.6347 -0.3340
   92CHL1  H16A 9236   2.879   3.686   7.829  1.1879  0.3393  0.1285
   92CHL1  H16B 9237   2.814   3.855   7.821  0.3055 -1.0138  0.3101
   92CHL1   C17 9238   2.696   3.703   7.712  1.3632  0.1332  0.1581
   92CHL1   H17 9239   2.618   3.782   7.722  1.7689  0.8556 -1.9297
   92CHL1   C13 9240   2.713   3.675   7.567 -0.1414 -0.4629  0.9368
   92CHL1   C18 9241   2.773   3.534   7.555 -0.3956  0.2177  0.6839
   92CHL1  H18A 9242   2.868   3.513   7.607  0.0624 -2.4134 -1.0280
   92CHL1  H18B 9243   2.710   3.453   7.597  0.4075 -0.3347  0.8365
   92CHL1  H18C 9244   2.793   3.512   7.448  2.7671  0.0779  1.2035
   92CHL1   C12 9245   2.584   3.694   7.482 -0.0981  0.1075  0.2901
   92CHL1  H12A 9246   2.515   3.613   7.512  0.0142 -1.2366 -2.7607
   92CHL1  H12B 9247   2.539   3.795   7.497 -0.5180 -0.3111  2.0780
   92CHL1   C11 9248   2.619   3.675   7.330  0.2441 -0.5820  0.4546
   92CHL1  H11A 9249   2.618   3.566   7.306  0.9703 -0.8030  1.4058
   92CHL1  H11B 9250   2.532   3.717   7.274  1.3398  2.4232  0.8387
   92CHL1    C9 9251   2.741   3.771   7.285  0.3281 -0.5773  0.5005
   92CHL1    H9 9252   2.700   3.874   7.292  0.7003 -0.3328 -0.5924
   92CHL1   C10 9253   2.790   3.760   7.136  0.0415 -0.7216 -0.0086
   92CHL1   C19 9254   2.788   3.615   7.093 -0.2024  0.3238 -0.5832
   92CHL1  H19A 9255   2.842   3.593   6.999 -2.2205  0.0774 -1.7277
   92CHL1  H19B 9256   2.837   3.545   7.165  3.3571  1.0645 -2.0634
   92CHL1  H19C 9257   2.688   3.568   7.082  0.3458 -0.9092 -0.4026
   92CHL1    C1 9258   2.678   3.838   7.062  0.2012 -0.0884 -0.8920
   92CHL1   H1A 9259   2.575   3.797   7.077 -0.2832  1.7615  1.5586
   92CHL1   H1B 9260   2.667   3.946   7.084 -0.7284 -0.0521 -1.4962
   92CHL1    C2 9261   2.696   3.844   6.913  0.1702 -0.7735  0.0885
   92CHL1   H2A 9262   2.611   3.907   6.880  0.4346  0.6354  1.9066
   92CHL1   H2B 9263   2.688   3.741   6.872  1.4398 -0.3775 -1.2177
   92CHL1   C20 9264   2.629   3.600   7.811  0.1197 -0.0792 -0.2736
   92CHL1   H20 9265   2.685   3.504   7.820 -0.5625 -0.4587  0.0402
   92CHL1   C21 9266   2.489   3.561   7.776  0.5518 -0.2296 -0.4291
   92CHL1  H21A 9267   2.492   3.502   7.681 -0.2850 -0.1453 -0.5107
   92CHL1  H21B 9268   2.426   3.647   7.744  0.3241 -1.0196 -2.2250
   92CHL1  H21C 9269   2.441   3.498   7.854 -1.6597  0.5578 -1.0850
   92CHL1   C22 9270   2.636   3.651   7.963 -0.5331 -0.5890  0.6209
   92CHL1  H22A 9271   2.743   3.681   7.976  0.4323 -3.4299 -0.0312
   92CHL1  H22B 9272   2.572   3.742   7.966 -2.3063 -1.7626 -0.0648
   92CHL1   C23 9273   2.604   3.542   8.069  0.0292  0.1299 -0.1075
   92CHL1  H23A 9274   2.508   3.493   8.041 -0.8664  2.2517 -1.0146
   92CHL1  H23B 9275   2.688   3.469   8.066 -0.9368 -1.1185  1.5576
   92CHL1   C24 9276   2.599   3.589   8.218 -0.0864 -0.1026 -0.4912
   92CHL1  H24A 9277   2.689   3.653   8.227  0.3098 -0.8182  1.1830
   92CHL1  H24B 9278   2.513   3.653   8.245  0.1996  1.0851 -2.2238
   92CHL1   C25 9279   2.614   3.475   8.327  0.2690  0.3274  1.0995
   92CHL1   H25 9280   2.722   3.451   8.321 -0.0904 -1.2137 -0.0844
   92CHL1   C26 9281   2.596   3.543   8.463 -0.5098 -0.6632 -0.2921
   92CHL1  H26A 9282   2.619   3.462   8.536 -2.3631 -2.0528 -1.1583
   92CHL1  H26B 9283   2.658   3.634   8.477  2.0167 -2.1230 -1.2832
   92CHL1  H26C 9284   2.489   3.575   8.462 -0.8498 -1.7361 -1.6755
   92CHL1   C27 9285   2.522   3.346   8.315 -0.4598  0.3018  0.2057
   92CHL1  H27A 9286   2.498   3.317   8.210 -0.1571  0.2477  0.1522
   92CHL1  H27B 9287   2.572   3.263   8.369  1.0286  1.8451  1.2853
   92CHL1  H27C 9288   2.428   3.362   8.372 -0.1085 -2.7850  1.8577
   93CHL1    C3 9289   6.159   1.926   6.995  0.0967  1.3144  0.0222
   93CHL1    H3 9290   6.069   1.883   7.044  0.7029  0.5541  0.4701
   93CHL1    O3 9291   6.138   1.915   6.855  0.3866 -0.5561 -0.1937
   93CHL1   H3' 9292   6.220   1.946   6.815 -0.1784 -0.1273 -1.0424
   93CHL1    C4 9293   6.188   2.069   7.031  0.2964 -1.1460 -0.1331
   93CHL1   H4A 9294   6.268   2.102   6.961 -0.7641  1.2984 -0.3083
   93CHL1   H4B 9295   6.103   2.136   7.004 -0.8149 -1.8461  1.4707
   93CHL1    C5 9296   6.217   2.086   7.180  0.2743 -0.1187  0.2993
   93CHL1    C6 9297   6.154   2.168   7.268  0.1649  0.2517 -0.2034
   93CHL1    H6 9298   6.067   2.223   7.230 -1.3296 -2.1916 -0.5213
   93CHL1    C7 9299   6.202   2.199   7.411  0.1922  0.0881 -0.1667
   93CHL1   H7A 9300   6.204   2.309   7.427 -1.6313 -0.3576  4.7450
   93CHL1   H7B 9301   6.123   2.165   7.481  0.4010  1.7108  0.9053
   93CHL1    C8 9302   6.342   2.146   7.435  0.6183 -0.6212 -0.6522
   93CHL1    H8 9303   6.408   2.214   7.377  1.2088 -1.8715 -1.4899
   93CHL1   C14 9304   6.363   2.134   7.593  0.1653  0.2552 -0.6694
   93CHL1   H14 9305   6.286   2.057   7.615  1.0526 -0.7870 -1.0795
   93CHL1   C15 9306   6.329   2.258   7.670 -0.3008 -0.0723 -0.9949
   93CHL1  H15A 9307   6.379   2.340   7.615  0.1498  1.3621  1.4170
   93CHL1  H15B 9308   6.223   2.278   7.693 -0.5374 -1.7655 -0.4409
   93CHL1   C16 9309   6.409   2.227   7.802 -0.1408 -0.4958 -0.8308
   93CHL1  H16A 9310   6.477   2.313   7.818 -0.0234 -1.0746  2.6396
   93CHL1  H16B 9311   6.349   2.208   7.893  0.2680 -3.1543 -1.0375
   93CHL1   C17 9312   6.485   2.101   7.787  0.4813 -0.2665 -0.0038
   93CHL1   H17 9313   6.412   2.022   7.816 -0.5107 -0.2390 -2.2100
   93CHL1   C13 9314   6.495   2.078   7.636 -0.5621  0.5524  0.2847
   93CHL1   C18 9315   6.612   2.169   7.583 -0.0898  0.0072  0.5634
   93CHL1  H18A 9316   6.589   2.195   7.477 -3.1438 -3.3351  0.1905
   93CHL1  H18B 9317   6.617   2.262   7.644 -1.1276  0.6334 -0.2722
   93CHL1  H18C 9318   6.708   2.114   7.588  1.5086  2.4238 -1.2199
   93CHL1   C12 9319   6.503   1.927   7.577  0.8826  0.4402 -0.2768
   93CHL1  H12A 9320   6.597   1.871   7.595 -0.6608 -1.9086  0.8930
   93CHL1  H12B 9321   6.412   1.877   7.617  1.0852 -0.0444 -0.4200
   93CHL1   C11 9322   6.496   1.935   7.425 -0.2097 -0.5384 -0.0590
   93CHL1  H11A 9323   6.580   1.995   7.385 -2.3183  1.0778 -2.3351
   93CHL1  H11B 9324   6.507   1.826   7.403  2.0124 -0.0608 -1.6993
   93CHL1    C9 9325   6.367   2.002   7.376 -0.2945 -0.0512 -0.0126
   93CHL1    H9 9326   6.284   1.940   7.418  1.9221 -1.2065  3.0064
   93CHL1   C10 9327   6.343   1.999   7.227  0.2359  0.6489  0.1679
   93CHL1   C19 9328   6.470   2.063   7.159 -0.2810 -0.2195 -0.4462
   93CHL1  H19A 9329   6.560   1.998   7.158 -0.3340 -0.3130 -2.1592
   93CHL1  H19B 9330   6.453   2.087   7.052 -2.1965  0.2699 -0.0652
   93CHL1  H19C 9331   6.491   2.164   7.199  1.9059 -0.1952 -1.5522
   93CHL1    C1 9332   6.317   1.846   7.185  0.7087 -0.2055  0.7449
   93CHL1   H1A 9333   6.411   1.791   7.205  0.7470 -0.3978  0.0487
   93CHL1   H1B 9334   6.229   1.809   7.243 -0.3187 -0.8974 -1.1784
   93CHL1    C2 9335   6.275   1.827   7.040  0.2596  0.1230  0.4655
   93CHL1   H2A 9336   6.232   1.730   7.009 -0.0928  0.8528 -1.4405
   93CHL1   H2B 9337   6.361   1.857   6.977  0.7659  2.8290  2.2692
   93CHL1   C20 9338   6.616   2.091   7.886  0.3934  0.6263  0.0264
   93CHL1   H20 9339   6.703   2.146   7.844  2.4759 -1.6495  1.1651
   93CHL1   C21 9340   6.669   1.944   7.882  0.3511  1.0194  0.1341
   93CHL1  H21A 9341   6.773   1.933   7.921  0.8805  0.0624 -1.4697
   93CHL1  H21B 9342   6.659   1.903   7.780  5.2139  1.6600 -0.8146
   93CHL1  H21C 9343   6.604   1.879   7.945  0.3979  1.5132  0.7006
   93CHL1   C22 9344   6.588   2.142   8.030  0.5824  0.2948 -0.6764
   93CHL1  H22A 9345   6.553   2.247   8.035  0.2787  0.1592  0.3656
   93CHL1  H22B 9346   6.508   2.075   8.069  0.4789  0.2358 -0.9908
   93CHL1   C23 9347   6.707   2.120   8.135  0.1676 -0.5547 -0.7509
   93CHL1  H23A 9348   6.726   2.012   8.149 -1.3043 -0.8682 -0.9381
   93CHL1  H23B 9349   6.798   2.164   8.090 -0.3139 -0.0616 -1.2649
   93CHL1   C24 9350   6.678   2.199   8.260  1.0616 -0.4783 -0.0827
   93CHL1  H24A 9351   6.693   2.299   8.214  0.9540 -0.5351 -0.2410
   93CHL1  H24B 9352   6.573   2.189   8.296  1.1539 -1.2916 -0.0310
   93CHL1   C25 9353   6.771   2.191   8.378 -0.3120 -0.0524 -0.5568
   93CHL1   H25 9354   6.874   2.196   8.339  0.5112  0.7672  1.5916
   93CHL1   C26 9355   6.752   2.316   8.471 -0.1626  0.1717 -0.3356
   93CHL1  H26A 9356   6.756   2.413   8.417  2.3503 -0.1812 -0.9083
   93CHL1  H26B 9357   6.650   2.311   8.515 -0.4560  3.2802 -0.4566
   93CHL1  H26C 9358   6.831   2.315   8.549  0.7743 -0.7859 -1.2563
   93CHL1   C27 9359   6.753   2.060   8.458 -0.3201  0.5102  0.1344
   93CHL1  H27A 9360   6.828   2.054   8.539 -1.0334 -1.3525  0.6909
   93CHL1  H27B 9361   6.655   2.039   8.507 -0.1448 -1.0973 -0.1611
   93CHL1  H27C 9362   6.770   1.976   8.389  1.0338  1.7739 -1.1370
   94CHL1    C3 9363   1.928   5.283   6.955  0.4752 -0.0080  0.4090
   94CHL1    H3 9364   1.824   5.319   6.967  0.4215  0.7921 -1.8313
   94CHL1    O3 9365   1.940   5.247   6.818 -0.4216  0.1437  0.5422
   94CHL1   H3' 9366   2.025   5.201   6.818  0.9524  2.3870 -1.7568
   94CHL1    C4 9367   2.036   5.389   6.997  0.5639  0.1004 -0.8946
   94CHL1   H4A 9368   2.138   5.345   7.003  0.1914 -0.5730  2.0897
   94CHL1   H4B 9369   2.038   5.471   6.921  0.7964 -0.0235 -1.0232
   94CHL1    C5 9370   2.003   5.429   7.143 -0.8854  0.7395  0.8672
   94CHL1    C6 9371   1.962   5.553   7.176 -0.3607 -0.6456 -0.4638
   94CHL1    H6 9372   1.948   5.623   7.092 -0.7733 -1.2904 -0.9480
   94CHL1    C7 9373   1.933   5.603   7.310  0.1659 -0.1034  0.3133
   94CHL1   H7A 9374   1.987   5.700   7.318  0.4593 -0.2313 -0.1256
   94CHL1   H7B 9375   1.824   5.617   7.326  0.2946  0.1954  0.9921
   94CHL1    C8 9376   1.997   5.510   7.418  0.0306 -0.7491  0.3540
   94CHL1    H8 9377   2.107   5.518   7.427 -0.1908  0.6515  2.4423
   94CHL1   C14 9378   1.943   5.545   7.554 -0.2365  0.2584 -0.5627
   94CHL1   H14 9379   1.833   5.535   7.545 -0.1686 -1.2442 -0.0010
   94CHL1   C15 9380   1.954   5.686   7.606 -0.6601 -0.4720  0.2931
   94CHL1  H15A 9381   2.055   5.732   7.607 -0.7664 -0.2000  2.4068
   94CHL1  H15B 9382   1.881   5.741   7.543 -0.5357 -1.1681 -0.4735
   94CHL1   C16 9383   1.933   5.669   7.761  0.5125 -0.0166 -0.5659
   94CHL1  H16A 9384   2.006   5.729   7.820 -0.3932  1.7094 -1.1087
   94CHL1  H16B 9385   1.831   5.707   7.783 -0.0410 -0.2695 -2.4844
   94CHL1   C17 9386   1.926   5.517   7.799  0.4328 -0.5857 -0.6415
   94CHL1   H17 9387   1.819   5.486   7.799 -0.2523  1.4383 -2.7749
   94CHL1   C13 9388   1.986   5.456   7.667 -1.0112 -0.2085 -0.6472
   94CHL1   C18 9389   2.137   5.470   7.673 -0.0952  0.4365  0.4254
   94CHL1  H18A 9390   2.182   5.392   7.739  0.5897  0.6751  0.2506
   94CHL1  H18B 9391   2.197   5.462   7.580 -1.5395  0.1936 -0.5120
   94CHL1  H18C 9392   2.163   5.572   7.708  0.1374  0.4338  0.2641
   94CHL1   C12 9393   1.948   5.304   7.632  1.2521  0.2053 -0.5659
   94CHL1  H12A 9394   1.970   5.232   7.714 -2.2742 -1.7150 -1.0671
   94CHL1  H12B 9395   1.837   5.304   7.635  1.2409 -0.5493  2.3122
   94CHL1   C11 9396   2.001   5.260   7.494  1.0804 -0.1511 -0.7189
   94CHL1  H11A 9397   2.111   5.249   7.504  0.9306 -0.1180  1.5478
   94CHL1  H11B 9398   1.956   5.160   7.476 -1.9629  1.2486 -1.5511
   94CHL1    C9 9399   1.970   5.354   7.378 -0.2695  0.4944  0.5261
   94CHL1    H9 9400   1.859   5.353   7.381 -0.3256 -1.7361 -0.5381
   94CHL1   C10 9401   2.021   5.309   7.240 -0.2614  0.5502 -0.3280
   94CHL1   C19 9402   2.173   5.266   7.249 -0.4114 -0.7506  0.3237
   94CHL1  H19A 9403   2.229   5.346   7.301 -3.5288  1.6601  0.2600
   94CHL1  H19B 9404   2.178   5.171   7.306 -0.3725 -1.6702 -1.1648
   94CHL1  H19C 9405   2.228   5.241   7.156 -0.5116  0.0656  0.0338
   94CHL1    C1 9406   1.924   5.197   7.190  0.1934 -0.1486  0.5208
   94CHL1   H1A 9407   1.951   5.108   7.251 -0.2219 -1.5387 -1.2268
   94CHL1   H1B 9408   1.816   5.216   7.210  0.3780  0.8948  0.5575
   94CHL1    C2 9409   1.943   5.160   7.043 -0.6309  0.2819  0.1765
   94CHL1   H2A 9410   1.884   5.074   7.006  0.6099  0.1567 -1.6385
   94CHL1   H2B 9411   2.052   5.136   7.040 -0.4779  0.8205  0.9859
   94CHL1   C20 9412   1.993   5.491   7.937 -0.0049  0.4250  0.0504
   94CHL1   H20 9413   2.095   5.535   7.947  0.9720 -1.8490  0.9855
   94CHL1   C21 9414   2.004   5.341   7.971  0.3942  0.3062 -0.2690
   94CHL1  H21A 9415   2.076   5.292   7.902  0.5233  0.8262 -0.5087
   94CHL1  H21B 9416   1.903   5.298   7.954  0.1172 -0.0935  2.1423
   94CHL1  H21C 9417   2.048   5.318   8.070  1.7363 -1.7315 -1.2717
   94CHL1   C22 9418   1.916   5.565   8.050 -0.3790 -0.7277  0.3684
   94CHL1  H22A 9419   1.919   5.670   8.014  0.6895  0.1942  2.9455
   94CHL1  H22B 9420   1.812   5.527   8.054 -0.5200 -0.3269  0.5192
   94CHL1   C23 9421   1.966   5.546   8.196 -0.3952  0.1231  0.5540
   94CHL1  H23A 9422   1.950   5.438   8.211  2.6364 -0.2206  2.3202
   94CHL1  H23B 9423   2.077   5.546   8.190 -0.4673  0.0080 -1.5729
   94CHL1   C24 9424   1.892   5.629   8.297 -0.0711  0.1226 -0.6688
   94CHL1  H24A 9425   1.898   5.737   8.273 -1.2883  0.4882  0.5121
   94CHL1  H24B 9426   1.785   5.597   8.301  0.0040 -0.1656 -0.9608
   94CHL1   C25 9427   1.939   5.595   8.443 -0.1747  0.5062  0.8314
   94CHL1   H25 9428   2.048   5.612   8.455 -0.1253 -0.2251  1.5230
   94CHL1   C26 9429   1.877   5.687   8.549 -0.3087 -0.6242 -0.7042
   94CHL1  H26A 9430   1.915   5.676   8.653  0.0757  2.9744 -0.3518
   94CHL1  H26B 9431   1.897   5.794   8.528 -0.5555 -0.0211  1.7933
   94CHL1  H26C 9432   1.769   5.662   8.557 -0.4187 -0.1084 -0.5578
   94CHL1   C27 9433   1.900   5.445   8.462  0.2530  0.6320 -0.6721
   94CHL1  H27A 9434   1.954   5.384   8.388  1.3994  0.8712 -0.0526
   94CHL1  H27B 9435   1.928   5.416   8.565  0.1210 -0.8193 -1.0225
   94CHL1  H27C 9436   1.790   5.431   8.451 -0.0675  1.8784  0.5683
   95CHL1    C3 9437   3.045   1.539   6.838  0.4228 -0.2659 -0.3017
   95CHL1    H3 9438   3.075   1.435   6.862 -2.1806 -0.7042  1.4237
   95CHL1    O3 9439   3.088   1.573   6.704 -0.1504  0.0434  0.5905
   95CHL1   H3' 9440   3.183   1.555   6.703  0.4875  2.7194  1.9164
   95CHL1    C4 9441   2.897   1.532   6.848  0.0425  0.6118 -0.2302
   95CHL1   H4A 9442   2.838   1.622   6.819 -1.3359  1.0775  3.4692
   95CHL1   H4B 9443   2.860   1.456   6.776 -2.1018  2.6143 -1.3555
   95CHL1    C5 9444   2.858   1.500   6.992 -0.2666  1.0320  1.7386
   95CHL1    C6 9445   2.797   1.383   7.020  0.6562 -1.2174  0.0253
   95CHL1    H6 9446   2.766   1.313   6.941  0.3447 -1.5960  0.4755
   95CHL1    C7 9447   2.740   1.349   7.154  0.4955  0.1843  0.2960
   95CHL1   H7A 9448   2.634   1.322   7.137  0.5422  0.7910 -1.1176
   95CHL1   H7B 9449   2.788   1.272   7.217  2.3279  0.2133 -0.9855
   95CHL1    C8 9450   2.730   1.476   7.241 -0.4403 -0.3006 -0.1556
   95CHL1    H8 9451   2.656   1.549   7.201  1.0242  2.2338  1.4735
   95CHL1   C14 9452   2.687   1.430   7.379  0.2035 -0.2026 -0.6116
   95CHL1   H14 9453   2.765   1.359   7.414  0.7942  1.1527  0.9947
   95CHL1   C15 9454   2.555   1.353   7.397 -0.2107 -0.1718 -0.2208
   95CHL1  H15A 9455   2.479   1.409   7.338  0.0429  0.9549  0.4964
   95CHL1  H15B 9456   2.567   1.246   7.370 -0.5306 -0.1709 -0.3710
   95CHL1   C16 9457   2.524   1.361   7.544 -0.5740 -0.5816 -0.4896
   95CHL1  H16A 9458   2.415   1.376   7.556 -0.2572  1.6203  0.1673
   95CHL1  H16B 9459   2.550   1.272   7.606  0.8307  1.9785  2.9658
   95CHL1   C17 9460   2.612   1.474   7.603  0.3036 -0.1199 -0.1633
   95CHL1   H17 9461   2.701   1.432   7.654  0.8329  1.4097  0.2388
   95CHL1   C13 9462   2.675   1.543   7.477 -0.8447 -0.4216  0.1977
   95CHL1   C18 9463   2.583   1.660   7.434 -0.3593  0.0734 -0.0437
   95CHL1  H18A 9464   2.607   1.702   7.333  0.8035  0.7081  0.4742
   95CHL1  H18B 9465   2.476   1.629   7.436 -0.3205 -0.0178  2.2320
   95CHL1  H18C 9466   2.599   1.749   7.497 -0.5070  0.3626 -0.4087
   95CHL1   C12 9467   2.818   1.605   7.486 -0.0515 -0.6226 -0.6381
   95CHL1  H12A 9468   2.815   1.695   7.551  1.0361 -0.6689 -0.5087
   95CHL1  H12B 9469   2.876   1.530   7.544 -0.8759  0.5083  1.8119
   95CHL1   C11 9470   2.889   1.654   7.358  0.4037  0.1972 -0.9300
   95CHL1  H11A 9471   2.855   1.756   7.332 -0.7109 -0.2990 -1.4907
   95CHL1  H11B 9472   2.997   1.661   7.385 -0.6998  2.0977  4.0486
   95CHL1    C9 9473   2.865   1.545   7.242 -1.1993 -0.4021  0.1082
   95CHL1    H9 9474   2.945   1.470   7.259  0.1856  0.1410 -3.1625
   95CHL1   C10 9475   2.899   1.600   7.090 -0.1074 -0.1593 -0.5437
   95CHL1   C19 9476   2.823   1.737   7.063 -0.2641  0.8719  0.6120
   95CHL1  H19A 9477   2.855   1.814   7.136  1.8620  0.1023  0.5703
   95CHL1  H19B 9478   2.851   1.779   6.964 -0.4994 -0.9781 -0.2759
   95CHL1  H19C 9479   2.713   1.727   7.074 -0.5330  1.5690 -1.1189
   95CHL1    C1 9480   3.055   1.626   7.081  0.5640 -0.6971 -0.6968
   95CHL1   H1A 9481   3.077   1.717   7.141 -1.2399 -0.7275  0.0736
   95CHL1   H1B 9482   3.110   1.541   7.127  2.0124 -0.0268 -1.1633
   95CHL1    C2 9483   3.107   1.640   6.938 -0.5748 -0.5162  0.2390
   95CHL1   H2A 9484   3.217   1.629   6.951 -0.6312  1.0244  2.4727
   95CHL1   H2B 9485   3.080   1.740   6.900 -0.3947 -0.6892 -0.3594
   95CHL1   C20 9486   2.544   1.553   7.721 -0.6625  1.1269 -0.7263
   95CHL1   H20 9487   2.460   1.610   7.676 -1.7970 -0.4799 -0.6893
   95CHL1   C21 9488   2.635   1.659   7.785  0.3834 -0.5353 -0.4709
   95CHL1  H21A 9489   2.585   1.705   7.873 -1.4765 -1.2329 -1.1105
   95CHL1  H21B 9490   2.658   1.740   7.713 -0.9569 -0.3749 -0.7459
   95CHL1  H21C 9491   2.735   1.623   7.817 -0.5276 -1.1107  1.9782
   95CHL1   C22 9492   2.489   1.456   7.834  0.2755  0.0298  0.0304
   95CHL1  H22A 9493   2.445   1.363   7.792 -1.4219  1.0817 -0.6126
   95CHL1  H22B 9494   2.573   1.426   7.901  1.4306  0.9592 -0.9460
   95CHL1   C23 9495   2.383   1.523   7.923  0.4730 -0.1337  0.2743
   95CHL1  H23A 9496   2.444   1.598   7.978  1.8724 -0.7479 -0.3917
   95CHL1  H23B 9497   2.305   1.581   7.869  2.3771  1.4030 -0.9333
   95CHL1   C24 9498   2.335   1.432   8.033 -0.0516  0.4349  0.8636
   95CHL1  H24A 9499   2.299   1.338   7.985 -1.3959  0.6251  1.4643
   95CHL1  H24B 9500   2.412   1.406   8.109  0.7097 -0.2234 -0.0979
   95CHL1   C25 9501   2.211   1.474   8.103 -0.4022  0.1730  0.3109
   95CHL1   H25 9502   2.143   1.509   8.023  1.9988  2.2566 -0.9852
   95CHL1   C26 9503   2.160   1.359   8.191 -0.1635  0.2996  0.3557
   95CHL1  H26A 9504   2.237   1.334   8.266  1.1602  0.5221 -0.8916
   95CHL1  H26B 9505   2.069   1.398   8.243 -3.2161 -2.3041 -2.5537
   95CHL1  H26C 9506   2.122   1.268   8.139 -1.8160  0.6477  0.8752
   95CHL1   C27 9507   2.224   1.600   8.187  0.5967 -0.2091 -0.0286
   95CHL1  H27A 9508   2.274   1.682   8.131 -2.0951  2.0651  0.6601
   95CHL1  H27B 9509   2.123   1.637   8.213 -0.7866 -3.8696  0.3120
   95CHL1  H27C 9510   2.273   1.569   8.282  0.2404 -1.9903 -0.3919
   96CHL1    C3 9511   2.907   2.220   6.969  0.2018 -0.6351 -0.2002
   96CHL1    H3 9512   2.838   2.306   6.975 -0.2732 -1.0976  3.5844
   96CHL1    O3 9513   2.941   2.189   6.836  0.5516 -0.5758 -0.0268
   96CHL1   H3' 9514   2.878   2.125   6.804  2.1215 -0.8157 -2.9174
   96CHL1    C4 9515   3.044   2.243   7.041 -1.0101  0.3242  0.4050
   96CHL1   H4A 9516   3.120   2.167   7.010 -1.8093 -1.0316  1.6874
   96CHL1   H4B 9517   3.089   2.335   6.997  0.4894 -0.8917 -0.7479
   96CHL1    C5 9518   3.030   2.241   7.196  0.2509  0.9391 -0.8306
   96CHL1    C6 9519   3.062   2.350   7.273 -0.6291 -0.2357 -0.8384
   96CHL1    H6 9520   3.111   2.434   7.221 -0.2443 -1.0198 -1.7634
   96CHL1    C7 9521   3.060   2.356   7.427  0.0119 -0.0147  0.5153
   96CHL1   H7A 9522   3.154   2.402   7.463  0.0788  1.8253 -1.7447
   96CHL1   H7B 9523   2.977   2.423   7.460 -2.5991 -2.5352 -0.4494
   96CHL1    C8 9524   3.031   2.217   7.488 -0.2696 -0.1358  0.1539
   96CHL1    H8 9525   3.129   2.164   7.484  1.2143  2.4954 -0.6815
   96CHL1   C14 9526   2.993   2.238   7.637 -0.5241 -0.3032  0.8249
   96CHL1   H14 9527   2.901   2.299   7.649 -2.1266 -1.8598 -2.2455
   96CHL1   C15 9528   3.088   2.317   7.730  0.3736  0.1576 -0.1273
   96CHL1  H15A 9529   3.195   2.302   7.705  0.6033 -0.9287  1.3932
   96CHL1  H15B 9530   3.059   2.424   7.731 -2.2878 -0.5031 -0.2405
   96CHL1   C16 9531   3.050   2.262   7.869 -0.4500 -0.4545  0.1163
   96CHL1  H16A 9532   3.134   2.199   7.906 -0.7272 -0.8990 -0.0022
   96CHL1  H16B 9533   3.020   2.341   7.942 -1.2371  0.4262 -1.1284
   96CHL1   C17 9534   2.939   2.164   7.849  0.1079 -0.2762  0.1809
   96CHL1   H17 9535   2.843   2.220   7.849 -1.0730 -2.1917  1.4052
   96CHL1   C13 9536   2.953   2.110   7.702  0.1459 -0.2694 -0.3818
   96CHL1   C18 9537   3.078   2.013   7.707 -0.1340 -0.3500  0.3717
   96CHL1  H18A 9538   3.043   1.918   7.752 -1.2038 -1.4949 -2.6534
   96CHL1  H18B 9539   3.116   1.989   7.606  0.4245  2.5609 -0.2080
   96CHL1  H18C 9540   3.167   2.054   7.760  0.0300  0.9010 -0.8141
   96CHL1   C12 9541   2.837   2.042   7.630  0.4452  0.5948  0.1507
   96CHL1  H12A 9542   2.815   1.942   7.672  0.0022  0.5292 -0.2292
   96CHL1  H12B 9543   2.749   2.110   7.632  1.1879  1.5732  0.4938
   96CHL1   C11 9544   2.874   2.013   7.478  0.0761  0.0870 -0.1711
   96CHL1  H11A 9545   2.953   1.935   7.466 -0.8190 -0.6542 -1.4493
   96CHL1  H11B 9546   2.778   1.977   7.436 -1.1109  1.6202  1.1148
   96CHL1    C9 9547   2.922   2.143   7.409  0.2299  0.3351  1.2356
   96CHL1    H9 9548   2.838   2.216   7.411 -0.2746 -0.2301  1.1507
   96CHL1   C10 9549   2.956   2.130   7.256  0.4890 -0.5354 -0.5824
   96CHL1   C19 9550   3.054   2.014   7.230 -0.0862  0.5485  0.7006
   96CHL1  H19A 9551   3.089   2.009   7.124 -0.6719  1.0237  0.4854
   96CHL1  H19B 9552   3.147   2.033   7.287 -0.2057  0.7462  0.8283
   96CHL1  H19C 9553   3.011   1.913   7.251 -0.3107  0.5455  0.2445
   96CHL1    C1 9554   2.824   2.113   7.174 -0.1366 -0.1220 -0.4854
   96CHL1   H1A 9555   2.755   2.032   7.204  0.2427 -0.4393 -0.4685
   96CHL1   H1B 9556   2.767   2.208   7.183 -1.8939 -1.1282 -0.7031
   96CHL1    C2 9557   2.841   2.093   7.021 -0.5924  0.3621  0.6056
   96CHL1   H2A 9558   2.740   2.071   6.979 -0.9508 -0.7590  2.0072
   96CHL1   H2B 9559   2.898   2.007   6.980 -2.4915  1.3709 -5.0589
   96CHL1   C20 9560   2.933   2.062   7.967 -0.1546  0.8010  0.7535
   96CHL1   H20 9561   3.015   1.987   7.960 -0.7243  0.1576  0.8924
   96CHL1   C21 9562   2.812   1.966   7.954  1.2639  0.7322 -0.4335
   96CHL1  H21A 9563   2.781   1.909   8.045 -0.4917 -1.8796 -2.4977
   96CHL1  H21B 9564   2.829   1.895   7.870 -3.5850  0.0660 -1.1484
   96CHL1  H21C 9565   2.721   2.020   7.921  0.2709 -0.3169  0.4712
   96CHL1   C22 9566   2.949   2.127   8.114 -0.2952 -0.2259  0.1038
   96CHL1  H22A 9567   3.054   2.160   8.129 -0.0121 -1.8098  2.0238
   96CHL1  H22B 9568   2.878   2.212   8.115  0.3483  0.3210 -0.3618
   96CHL1   C23 9569   2.927   2.027   8.227  0.2890 -0.1853  0.1833
   96CHL1  H23A 9570   2.946   2.088   8.317 -0.8480  0.6308 -0.1002
   96CHL1  H23B 9571   2.820   1.998   8.225  0.0286  0.7552 -1.4614
   96CHL1   C24 9572   3.024   1.908   8.223 -0.2255  0.1863  0.6083
   96CHL1  H24A 9573   2.974   1.825   8.168  1.1686 -2.4065  2.9750
   96CHL1  H24B 9574   3.113   1.942   8.166  1.2036 -1.7220  1.5449
   96CHL1   C25 9575   3.063   1.842   8.361 -0.4551 -0.6009 -0.4127
   96CHL1   H25 9576   2.970   1.794   8.400 -1.7466  1.1040 -1.2507
   96CHL1   C26 9577   3.175   1.737   8.344 -0.4996 -0.1313  0.6058
   96CHL1  H26A 9578   3.260   1.797   8.305 -2.0608  1.6500 -0.1908
   96CHL1  H26B 9579   3.199   1.694   8.444  1.9540 -0.1427  0.0718
   96CHL1  H26C 9580   3.164   1.650   8.275  1.5832  0.0400 -0.0102
   96CHL1   C27 9581   3.110   1.941   8.476 -0.3680  0.7448  0.3779
   96CHL1  H27A 9582   3.170   1.892   8.556 -2.8420  0.1671  2.0004
   96CHL1  H27B 9583   3.174   2.025   8.440  1.1269 -0.3460  0.4247
   96CHL1  H27C 9584   3.020   1.977   8.530 -0.4056 -0.8937  1.4503
   97OSM      N 9585   6.089   4.560  11.112  0.1281 -0.3720  0.3827
   97OSM    C15 9586   5.970   4.642  11.160  0.3185  0.2932  0.0497
   97OSM   H15A 9587   5.905   4.589  11.228 -2.9825  1.5851 -1.8443
   97OSM   H15B 9588   5.903   4.668  11.079  0.0737 -0.3322  0.0512
   97OSM   H15C 9589   6.001   4.730  11.215 -1.9715  0.0178  1.9301
   97OSM    C14 9590   6.186   4.649  11.043 -0.5833 -0.4774 -0.1827
   97OSM   H14A 9591   6.259   4.586  10.995  0.0893 -0.1738  0.4233
   97OSM   H14B 9592   6.239   4.705  11.118  1.0632 -2.0267 -0.1211
   97OSM   H14C 9593   6.148   4.718  10.969 -0.6467 -0.0914  0.2048
   97OSM    C13 9594   6.151   4.497  11.230 -0.3932 -0.2284 -0.0731
   97OSM   H13A 9595   6.085   4.427  11.278 -1.2672  0.9408  0.4880
   97OSM   H13B 9596   6.173   4.560  11.315  0.2586 -0.2358 -0.2302
   97OSM   H13C 9597   6.241   4.448  11.195 -1.3085 -1.1342 -1.2224
   97OSM    C12 9598   6.030   4.460  11.012 -0.3795  0.0552 -0.3305
   97OSM   H12A 9599   5.942   4.502  10.965 -2.2687 -1.3668  1.6739
   97OSM   H12B 9600   5.981   4.383  11.070  0.8817 -0.7543 -0.3175
   97OSM    C11 9601   6.130   4.393  10.911  0.5010 -0.5990 -0.2283
   97OSM   H11A 9602   6.172   4.467  10.841  0.2808 -0.1229  0.1407
   97OSM   H11B 9603   6.078   4.318  10.848 -0.4745 -0.6979  0.6669
   97OSM      P 9604   6.237   4.194  11.061 -0.5460  0.0397  0.0606
   97OSM    O13 9605   6.363   4.183  11.131  0.5509  0.0369  0.1631
   97OSM    O14 9606   6.111   4.186  11.140 -0.0162  0.3215  0.3386
   97OSM    O11 9607   6.231   4.088  10.952 -0.6291  0.0467 -0.2296
   97OSM    O12 9608   6.241   4.328  10.987 -0.8292  0.5130  0.3956
   97OSM    C1S 9609   6.298   4.099  10.830  0.3822  0.2830  0.4204
   97OSM    H1S 9610   6.403   4.062  10.836 -0.1407 -1.2545  0.4502
   97OSM    H1T 9611   6.303   4.202  10.788 -0.0369 -0.5662 -1.8556
   97OSM     NF 9612   6.310   4.015  10.595 -0.2041 -0.6250 -0.0330
   97OSM    HNF 9613   6.269   4.076  10.526 -3.3634 -0.6086  1.6776
   97OSM    C2S 9614   6.224   4.011  10.719  0.3223  0.7215  0.4406
   97OSM    H2S 9615   6.212   3.909  10.761  0.1333  0.5198 -0.0955
   97OSM    C3S 9616   6.079   4.065  10.698 -0.3990  0.4287  0.2369
   97OSM    H3S 9617   6.076   4.175  10.690 -1.2199  0.4488  0.7793
   97OSM     O3 9618   6.000   4.050  10.812 -0.2927  0.0980  0.5075
   97OSM    HO3 9619   6.057   4.001  10.872  1.9435 -0.2070 -1.6679
   97OSM    C4S 9620   6.006   3.996  10.581 -0.7423  0.6482  0.2490
   97OSM    H4S 9621   6.004   4.060  10.491 -3.2352 -0.1400 -0.3238
   97OSM    C5S 9622   5.963   3.868  10.572  0.2571  0.6076 -0.4782
   97OSM    H5S 9623   5.994   3.803  10.655  0.3198 -0.0401 -1.0005
   97OSM    C6S 9624   5.893   3.794  10.455  0.4422  0.3225 -0.1699
   97OSM    H6S 9625   5.790   3.764  10.485  0.6135  0.0462  0.1568
   97OSM    H6T 9626   5.950   3.700  10.439 -1.9981 -1.2361 -0.2121
   97OSM    C7S 9627   5.883   3.861  10.319 -0.0126  0.0559  0.1949
   97OSM    H7S 9628   5.985   3.893  10.287 -0.5976  1.7927 -0.0509
   97OSM    H7T 9629   5.826   3.955  10.333  3.1027  2.0141  0.7485
   97OSM    C8S 9630   5.818   3.767  10.216  0.7668 -0.3873 -0.1878
   97OSM    H8S 9631   5.732   3.722  10.269  0.1884  4.4619  3.6969
   97OSM    H8T 9632   5.885   3.683  10.185  0.7262 -0.2026 -0.8007
   97OSM    C9S 9633   5.792   3.842  10.085  0.5236 -0.4251 -0.3592
   97OSM    H9S 9634   5.888   3.881  10.044  2.1941 -1.4966  2.3126
   97OSM    H9T 9635   5.733   3.932  10.113 -0.3504 -0.5212 -1.8108
   97OSM   C10S 9636   5.709   3.773   9.978 -0.0548 -0.1574  0.5529
   97OSM   H10S 9637   5.625   3.711  10.017  0.6224  0.6089  3.4521
   97OSM   H10T 9638   5.777   3.703   9.923 -1.9320 -1.5486 -0.1149
   97OSM   C11S 9639   5.638   3.869   9.878 -0.5781 -0.1651 -0.1880
   97OSM   H11S 9640   5.720   3.922   9.825 -0.3200 -0.1107  0.2581
   97OSM   H11T 9641   5.584   3.943   9.940 -0.4593 -2.6587  3.1590
   97OSM   C12S 9642   5.559   3.803   9.771  0.0350  0.0928 -0.0571
   97OSM   H12S 9643   5.476   3.747   9.820 -0.4044  0.8414  0.0615
   97OSM   H12T 9644   5.633   3.730   9.730  1.3994  1.4847 -0.1580
   97OSM   C13S 9645   5.519   3.903   9.658 -0.2789  0.4600 -0.6605
   97OSM   H13S 9646   5.605   3.967   9.628  0.4434  0.4647  1.3183
   97OSM   H13T 9647   5.437   3.971   9.690 -0.1778  1.5343 -2.5283
   97OSM   C14S 9648   5.477   3.840   9.521  0.0844  0.0914 -0.6393
   97OSM   H14S 9649   5.372   3.805   9.519  0.3278 -0.8651  1.0598
   97OSM   H14T 9650   5.523   3.741   9.500  1.9633  1.2805 -2.5959
   97OSM   C15S 9651   5.494   3.930   9.396 -0.0954 -0.1703 -0.1844
   97OSM   H15S 9652   5.596   3.935   9.353 -0.6383  3.2480 -1.3820
   97OSM   H15T 9653   5.469   4.036   9.419  0.0621  0.2005 -1.6143
   97OSM   C16S 9654   5.395   3.911   9.278  0.0268  0.0475  0.0161
   97OSM   H16S 9655   5.290   3.923   9.311 -0.7474 -2.3546 -1.3042
   97OSM   H16T 9656   5.406   3.807   9.239  2.3389 -1.1072  3.3151
   97OSM   C17S 9657   5.414   4.014   9.163 -0.0294 -0.0380 -0.8998
   97OSM   H17S 9658   5.523   4.008   9.141  0.2594  1.3239  0.0379
   97OSM   H17T 9659   5.401   4.115   9.206 -0.1176 -1.2966  2.3776
   97OSM   C18S 9660   5.315   3.981   9.047 -0.3996  0.2261  0.5045
   97OSM   H18S 9661   5.320   4.054   8.963  0.8944  2.4457  2.3819
   97OSM   H18T 9662   5.214   3.992   9.093  0.5556  2.6280  2.2510
   97OSM   H18U 9663   5.317   3.876   9.014  3.2105  0.4854 -0.4992
   97OSM    C1F 9664   6.433   3.970  10.587 -0.2217 -0.1123 -0.3065
   97OSM     OF 9665   6.484   3.904  10.672  0.6974 -0.5231  0.7320
   97OSM    C2F 9666   6.509   4.023  10.469 -0.7940 -0.1381  0.2778
   97OSM    H2F 9667   6.552   4.121  10.499 -1.1819  0.8689 -2.2153
   97OSM    H2G 9668   6.438   4.042  10.386 -0.3782  0.8305  0.1251
   97OSM    C3F 9669   6.620   3.932  10.426 -0.8112  0.4726 -0.5237
   97OSM    H3F 9670   6.584   3.827  10.429 -1.4724  0.7050 -0.2220
   97OSM    H3G 9671   6.695   3.918  10.506  0.1912 -0.4666 -1.5877
   97OSM    C4F 9672   6.687   3.960  10.287  0.6296  0.6314 -0.5926
   97OSM    H4F 9673   6.606   3.973  10.212  0.4880  0.2588 -0.5080
   97OSM    H4G 9674   6.741   3.868  10.259  0.9449  0.4130  0.6565
   97OSM    C5F 9675   6.787   4.081  10.301 -0.6705 -0.1655  1.0214
   97OSM    H5F 9676   6.855   4.061  10.386 -1.8293  1.3185  2.3428
   97OSM    H5G 9677   6.727   4.174  10.306 -0.1427  0.2483 -0.0757
   97OSM    C6F 9678   6.878   4.112  10.176  0.1959  0.3344  0.1985
   97OSM    H6F 9679   6.941   4.020  10.167 -0.2052  0.1082 -0.3391
   97OSM    H6G 9680   6.938   4.198  10.214 -2.8861  2.3062  0.9374
   97OSM    C7F 9681   6.816   4.155  10.043 -0.4427 -0.1063 -0.3954
   97OSM    H7F 9682   6.748   4.243  10.052 -0.0486  0.1586  0.0293
   97OSM    H7G 9683   6.743   4.084  10.000 -0.2992 -0.4359 -0.0940
   97OSM    C8F 9684   6.922   4.175   9.934 -0.1404 -0.1445 -0.3485
   97OSM    H8F 9685   7.007   4.229   9.982 -0.5572 -0.7475  1.1144
   97OSM    H8G 9686   6.890   4.238   9.848  0.0442  2.3124  1.2789
   97OSM    C9F 9687   6.974   4.044   9.889 -0.0985 -1.2469 -0.1710
   97OSM    H9F 9688   7.063   4.016   9.947  0.8533  2.3803  0.3513
   97OSM   C10F 9689   6.928   3.975   9.781 -0.5675 -0.4533 -0.5650
   97OSM   H10F 9690   6.979   3.881   9.756  0.7352 -0.4186  1.6284
   97OSM   C11F 9691   6.803   4.007   9.696 -0.1734  0.1947  0.8732
   97OSM   H11F 9692   6.750   4.086   9.753 -3.6211 -0.1018 -1.6250
   97OSM   H11G 9693   6.743   3.914   9.682  1.8715 -0.7893 -2.7868
   97OSM   C12F 9694   6.846   4.045   9.551 -0.7353 -0.0425 -0.5133
   97OSM   H12F 9695   6.910   3.965   9.507  0.2725  2.1509 -3.2874
   97OSM   H12G 9696   6.896   4.144   9.546 -3.5402  1.5140 -0.0578
   97OSM   C13F 9697   6.726   4.067   9.454  0.7390  0.7038  0.3958
   97OSM   H13F 9698   6.665   4.158   9.476 -1.6152 -1.1770  2.1418
   97OSM   H13G 9699   6.653   3.985   9.469  0.2956  1.0444  0.1654
   97OSM   C14F 9700   6.775   4.072   9.306  0.1932  0.3653 -0.1280
   97OSM   H14F 9701   6.828   3.976   9.286  0.8067  0.4959  0.7822
   97OSM   H14G 9702   6.843   4.160   9.296  0.3071  0.5286  1.7289
   97OSM   C15F 9703   6.660   4.077   9.199 -0.7640  0.2437  0.3373
   97OSM   H15F 9704   6.618   4.180   9.204  1.1683  1.0394  1.2935
   97OSM   H15G 9705   6.583   4.005   9.234 -0.6991 -0.8800 -1.6966
   97OSM   C16F 9706   6.714   4.041   9.061  0.2858  0.6152  0.4514
   97OSM   H16F 9707   6.742   3.933   9.065 -0.2928  0.4481  0.1541
   97OSM   H16G 9708   6.806   4.101   9.050 -1.2740  3.3366  1.2188
   97OSM   C17F 9709   6.616   4.057   8.940  0.5618 -0.5343  0.6449
   97OSM   H17F 9710   6.571   4.159   8.933 -1.4981 -1.4709 -0.7728
   97OSM   H17G 9711   6.534   3.984   8.951  0.1446 -0.3222 -0.9144
   97OSM   C18F 9712   6.689   4.027   8.811  0.3095 -0.5107  0.0057
   97OSM   H18F 9713   6.780   4.089   8.802  0.5143 -0.3749  2.3661
   97OSM   H18G 9714   6.631   4.033   8.717 -1.6208  0.6961  1.1965
   97OSM   H18H 9715   6.717   3.920   8.822 -1.2574 -0.9180  0.2995
   98OSM      N 9716   6.420   1.614  11.306 -0.0259 -0.0440 -0.5089
   98OSM    C15 9717   6.335   1.522  11.389  0.4755 -0.1572 -0.2915
   98OSM   H15A 9718   6.332   1.549  11.494  1.7110 -1.2306  0.0357
   98OSM   H15B 9719   6.382   1.425  11.394  2.4672  0.7468 -0.6641
   98OSM   H15C 9720   6.239   1.496  11.348  0.5891 -1.4618  0.2256
   98OSM    C14 9721   6.562   1.601  11.342 -0.2678 -0.0273 -0.5167
   98OSM   H14A 9722   6.619   1.662  11.274  0.2272  1.9476  1.5612
   98OSM   H14B 9723   6.593   1.498  11.334  1.3105  0.3470  0.3692
   98OSM   H14C 9724   6.581   1.634  11.443  1.4340  1.0616 -1.1500
   98OSM    C13 9725   6.404   1.565  11.168  0.5058 -0.2221  0.6882
   98OSM   H13A 9726   6.308   1.571  11.121  1.1195 -2.0480 -0.9234
   98OSM   H13B 9727   6.426   1.459  11.161  0.1195 -0.2282 -0.6651
   98OSM   H13C 9728   6.473   1.608  11.096 -1.4240  0.6082 -0.7344
   98OSM    C12 9729   6.379   1.763  11.322 -0.1031 -0.0550  0.3637
   98OSM   H12A 9730   6.429   1.830  11.253  1.6426  2.9562  4.1134
   98OSM   H12B 9731   6.398   1.785  11.426  2.6397 -0.6000  0.0568
   98OSM    C11 9732   6.231   1.801  11.283 -0.8644  0.1472  0.5108
   98OSM   H11A 9733   6.200   1.900  11.321  0.2503  1.2045 -1.1960
   98OSM   H11B 9734   6.169   1.724  11.335 -0.2899 -0.2082  0.6815
   98OSM      P 9735   6.270   1.898  11.039  0.0698 -0.2424  0.2072
   98OSM    O13 9736   6.152   1.974  10.987 -0.4188  0.0248 -0.0807
   98OSM    O14 9737   6.377   1.976  11.110  0.1837 -0.6378 -0.1930
   98OSM    O11 9738   6.338   1.806  10.931 -0.4167 -0.6551 -0.0970
   98OSM    O12 9739   6.212   1.792  11.141 -0.2030  0.5495  0.3377
   98OSM    C1S 9740   6.278   1.769  10.809  0.6054  0.5524  0.2960
   98OSM    H1S 9741   6.168   1.759  10.819  0.6883 -1.1907 -0.1987
   98OSM    H1T 9742   6.319   1.668  10.789 -1.3874 -0.3395  0.4981
   98OSM     NF 9743   6.238   1.807  10.570  0.2359  0.2061  0.4980
   98OSM    HNF 9744   6.283   1.736  10.516  1.7268  0.6696  1.0880
   98OSM    C2S 9745   6.317   1.855  10.684  0.4531  0.0422  0.4879
   98OSM    H2S 9746   6.292   1.962  10.698  0.3813  0.0851  0.0551
   98OSM    C3S 9747   6.466   1.852  10.659  0.6010 -0.6277  0.4760
   98OSM    H3S 9748   6.494   1.755  10.612 -0.4935 -0.3048 -0.9212
   98OSM     O3 9749   6.551   1.868  10.775  0.4919 -0.1246 -0.3285
   98OSM    HO3 9750   6.489   1.868  10.848  0.4016 -0.0020 -0.4041
   98OSM    C4S 9751   6.500   1.953  10.550  0.0463  0.1470 -0.2789
   98OSM    H4S 9752   6.494   1.909  10.449 -1.2605  0.6381 -0.4314
   98OSM    C5S 9753   6.526   2.086  10.566  0.3028 -0.2525  0.1688
   98OSM    H5S 9754   6.512   2.135  10.663 -0.6959  0.5546 -0.3599
   98OSM    C6S 9755   6.560   2.178  10.448  0.0280 -0.4999 -0.6400
   98OSM    H6S 9756   6.595   2.120  10.361  1.2499  1.0892 -1.2629
   98OSM    H6T 9757   6.641   2.252  10.463 -3.8460  3.9711  0.8979
   98OSM    C7S 9758   6.445   2.261  10.385 -0.2635 -0.1457  0.2699
   98OSM    H7S 9759   6.494   2.337  10.321  0.1433 -0.8242 -0.2398
   98OSM    H7T 9760   6.389   2.308  10.469 -0.0547  0.0537  0.2971
   98OSM    C8S 9761   6.350   2.180  10.290 -0.2250  0.0515  0.0213
   98OSM    H8S 9762   6.302   2.103  10.354  0.1809 -1.7479 -1.7290
   98OSM    H8T 9763   6.406   2.120  10.214 -1.5003 -0.4888 -0.5142
   98OSM    C9S 9764   6.229   2.243  10.216  0.6038 -0.5064  0.0278
   98OSM    H9S 9765   6.172   2.287  10.300  1.4171  2.0405 -0.6673
   98OSM    H9T 9766   6.171   2.160  10.171  1.4240 -0.3398 -1.3955
   98OSM   C10S 9767   6.247   2.345  10.109 -0.5243 -0.0903 -0.6121
   98OSM   H10S 9768   6.295   2.437  10.149  0.6163  0.6671 -3.4864
   98OSM   H10T 9769   6.156   2.369  10.049 -0.4177  0.2406 -0.6395
   98OSM   C11S 9770   6.348   2.305  10.001  0.0135  0.1467 -0.0705
   98OSM   H11S 9771   6.337   2.207   9.949 -0.7529  1.4784 -2.5968
   98OSM   H11T 9772   6.448   2.302  10.050 -0.0146 -1.0730 -0.0514
   98OSM   C12S 9773   6.357   2.416   9.886  0.3969  0.6769 -0.1847
   98OSM   H12S 9774   6.394   2.505   9.941 -0.8589 -0.6797  3.0923
   98OSM   H12T 9775   6.253   2.432   9.851  0.2349  2.2393  0.9292
   98OSM   C13S 9776   6.451   2.381   9.768  0.3286  0.1357  0.0226
   98OSM   H13S 9777   6.422   2.283   9.724 -0.3581  0.8084 -1.0712
   98OSM   H13T 9778   6.551   2.375   9.815  0.7372  0.1785 -0.8124
   98OSM   C14S 9779   6.460   2.485   9.657  0.1726  0.2545 -0.2704
   98OSM   H14S 9780   6.557   2.458   9.608 -0.6317 -3.5812 -0.0971
   98OSM   H14T 9781   6.481   2.588   9.693 -0.6972  0.4203 -0.2258
   98OSM   C15S 9782   6.339   2.483   9.561  0.4546 -0.0018 -0.5427
   98OSM   H15S 9783   6.344   2.584   9.514  2.1168 -0.4403 -1.3980
   98OSM   H15T 9784   6.243   2.479   9.617 -0.4792 -0.2667 -2.0798
   98OSM   C16S 9785   6.353   2.363   9.460  0.1142  0.5859 -0.6139
   98OSM   H16S 9786   6.337   2.266   9.512  1.3888  0.9126  0.4219
   98OSM   H16T 9787   6.462   2.375   9.440  0.3523  1.4008  1.0247
   98OSM   C17S 9788   6.257   2.362   9.338  0.4743  0.8092 -1.0210
   98OSM   H17S 9789   6.253   2.470   9.312  3.0162  1.4040  0.7067
   98OSM   H17T 9790   6.157   2.325   9.371  0.5828  1.6605  0.3545
   98OSM   C18S 9791   6.294   2.268   9.221  0.7386 -0.2014 -0.4480
   98OSM   H18S 9792   6.307   2.163   9.254  0.5385 -0.1092 -0.0675
   98OSM   H18T 9793   6.384   2.313   9.174  0.9556  0.3810  0.4877
   98OSM   H18U 9794   6.207   2.277   9.152  0.1447  1.4509  0.4638
   98OSM    C1F 9795   6.116   1.847  10.540  1.1104  0.4814  0.3914
   98OSM     OF 9796   6.074   1.953  10.591  0.4036 -1.0038 -0.2585
   98OSM    C2F 9797   6.027   1.753  10.453  0.6272  1.3232 -0.4370
   98OSM    H2F 9798   5.938   1.709  10.504  1.5472  0.2634  0.2765
   98OSM    H2G 9799   6.089   1.671  10.411 -2.7165  0.4875 -4.4632
   98OSM    C3F 9800   5.964   1.823  10.326 -0.4572  0.2953 -0.3199
   98OSM    H3F 9801   5.908   1.914  10.356  0.5807  0.9593 -0.3637
   98OSM    H3G 9802   5.892   1.751  10.281  0.2084 -0.2147 -0.5949
   98OSM    C4F 9803   6.062   1.858  10.222  0.2385  0.5512  0.1284
   98OSM    H4F 9804   6.124   1.942  10.260  1.5380  0.4045 -1.5391
   98OSM    H4G 9805   6.007   1.901  10.135 -0.2459  0.5714  0.4454
   98OSM    C5F 9806   6.148   1.746  10.162  0.2719 -0.2056 -0.3073
   98OSM    H5F 9807   6.073   1.665  10.148 -1.4348  1.2545  0.1792
   98OSM    H5G 9808   6.216   1.705  10.240 -0.6587 -2.2535 -0.4822
   98OSM    C6F 9809   6.205   1.786  10.030  0.3489 -0.4264  0.5734
   98OSM    H6F 9810   6.128   1.816   9.955  2.2649 -0.5331 -1.5218
   98OSM    H6G 9811   6.242   1.694   9.980 -3.3613 -1.5664 -0.4139
   98OSM    C7F 9812   6.313   1.901  10.037  0.3140  0.4147  0.0493
   98OSM    H7F 9813   6.392   1.891  10.114  1.4251 -0.3231 -1.1429
   98OSM    H7G 9814   6.255   1.994  10.058 -0.4635 -0.0539  0.0265
   98OSM    C8F 9815   6.395   1.899   9.912  0.1652  0.2596  1.1260
   98OSM    H8F 9816   6.427   1.794   9.892 -0.9695  0.1125 -0.0579
   98OSM    H8G 9817   6.486   1.957   9.937  0.8206 -1.3662  2.6869
   98OSM    C9F 9818   6.334   1.962   9.787 -0.7564 -0.0060 -0.2347
   98OSM    H9F 9819   6.308   2.066   9.809 -1.7902 -0.3948  0.4802
   98OSM   C10F 9820   6.307   1.910   9.664 -0.0558  0.9324  0.1866
   98OSM   H10F 9821   6.250   1.976   9.598 -0.0063 -0.9450 -1.8500
   98OSM   C11F 9822   6.332   1.775   9.601  0.9169  0.9883 -0.3469
   98OSM   H11F 9823   6.438   1.747   9.620  0.7312 -0.6680 -1.5069
   98OSM   H11G 9824   6.332   1.770   9.490  3.2696 -0.6855 -0.3595
   98OSM   C12F 9825   6.243   1.663   9.660  0.5990  0.1123  0.3532
   98OSM   H12F 9826   6.261   1.651   9.769  0.2603  1.3072  0.5569
   98OSM   H12G 9827   6.279   1.570   9.611 -0.0368 -0.2543  0.5644
   98OSM   C13F 9828   6.088   1.671   9.629  0.5133  0.4255 -0.3550
   98OSM   H13F 9829   6.064   1.648   9.523 -0.0743 -0.4256 -0.0478
   98OSM   H13G 9830   6.057   1.776   9.648 -1.3305 -0.4211  1.6727
   98OSM   C14F 9831   5.996   1.583   9.714 -0.7367 -0.0609 -0.8107
   98OSM   H14F 9832   6.027   1.589   9.821 -2.4967 -0.3206 -0.2430
   98OSM   H14G 9833   6.024   1.479   9.687 -2.2557 -1.1824  1.5332
   98OSM   C15F 9834   5.849   1.621   9.707  0.5087  0.7424 -0.4143
   98OSM   H15F 9835   5.793   1.533   9.670 -1.6980  1.2718  1.4171
   98OSM   H15G 9836   5.853   1.699   9.627 -1.3276 -0.0166 -1.3061
   98OSM   C16F 9837   5.781   1.666   9.837  0.5295  0.1424 -0.1305
   98OSM   H16F 9838   5.855   1.727   9.893  1.3146 -1.6882  0.9276
   98OSM   H16G 9839   5.756   1.576   9.897 -2.0104  1.1406  0.4337
   98OSM   C17F 9840   5.657   1.753   9.820  0.1236 -0.2595  0.2367
   98OSM   H17F 9841   5.584   1.704   9.751  0.9253 -0.4778 -0.4713
   98OSM   H17G 9842   5.687   1.850   9.774 -1.3553  0.4232  0.6400
   98OSM   C18F 9843   5.568   1.776   9.939  0.4458 -0.2832 -0.2494
   98OSM   H18F 9844   5.617   1.802  10.034 -0.4900 -0.9754  0.4432
   98OSM   H18G 9845   5.534   1.671   9.954  0.5149 -0.0956  1.3791
   98OSM   H18H 9846   5.476   1.832   9.911  0.0479 -0.6133  0.3857
   99OSM      N 9847   0.640   5.290  10.932  0.0591 -0.1685  0.4140
   99OSM    C15 9848   0.498   5.265  10.891  1.2323  0.0957 -0.4294
   99OSM   H15A 9849   0.480   5.334  10.810 -0.4685 -0.8641 -0.9148
   99OSM   H15B 9850   0.432   5.287  10.973 -1.3988  0.1065 -2.4137
   99OSM   H15C 9851   0.474   5.166  10.856  0.2141  0.5541 -1.0871
   99OSM    C14 9852   0.656   5.419  10.992 -0.9361 -0.4828  0.1445
   99OSM   H14A 9853   0.759   5.442  11.015 -0.4595 -2.1469 -0.2145
   99OSM   H14B 9854   0.602   5.416  11.085 -1.5647 -0.3498 -0.2105
   99OSM   H14C 9855   0.622   5.497  10.925  1.7548  1.8518  1.2469
   99OSM    C13 9856   0.680   5.186  11.034 -0.0621  0.4022  0.8106
   99OSM   H13A 9857   0.783   5.206  11.058  0.9198 -2.2740 -0.7326
   99OSM   H13B 9858   0.664   5.087  10.994 -0.2786  0.8163 -0.1618
   99OSM   H13C 9859   0.620   5.192  11.123 -2.8816 -0.8750 -0.8706
   99OSM    C12 9860   0.718   5.272  10.800  0.4535 -0.4725  0.5892
   99OSM   H12A 9861   0.824   5.271  10.823  0.6915 -0.4266 -0.4488
   99OSM   H12B 9862   0.713   5.351  10.727  2.2233 -0.5300  0.3474
   99OSM    C11 9863   0.711   5.141  10.729  0.2473  0.2512  0.5131
   99OSM   H11A 9864   0.763   5.146  10.631  2.8929  0.4621  1.8161
   99OSM   H11B 9865   0.606   5.122  10.699  0.3512  0.9522 -0.3350
   99OSM      P 9866   0.925   5.014  10.799  0.1460  0.4068  0.1828
   99OSM    O13 9867   0.994   5.147  10.777 -0.0161  0.2958 -0.2350
   99OSM    O14 9868   0.980   4.932  10.910 -0.0905 -0.2602  0.8638
   99OSM    O11 9869   0.923   4.943  10.660  0.1074  0.0744  0.2627
   99OSM    O12 9870   0.768   5.040  10.810 -0.3993  0.1444 -0.2681
   99OSM    C1S 9871   1.016   4.949  10.557 -0.2300  0.2466  0.0454
   99OSM    H1S 9872   1.111   4.897  10.579 -0.8210 -0.2957  1.4461
   99OSM    H1T 9873   1.044   5.056  10.554 -0.5747  0.4537  2.4493
   99OSM     NF 9874   1.066   4.930  10.318  0.0554 -0.1847 -0.4186
   99OSM    HNF 9875   1.056   5.010  10.260 -1.3247 -0.4757 -0.6330
   99OSM    C2S 9876   0.961   4.909  10.416  0.2716 -0.2407 -0.5032
   99OSM    H2S 9877   0.941   4.800  10.427 -0.4556 -0.2468 -1.7595
   99OSM    C3S 9878   0.828   4.984  10.380 -0.2185 -0.2547 -0.5537
   99OSM    H3S 9879   0.850   5.093  10.391  1.9187 -0.3897 -2.6913
   99OSM     O3 9880   0.715   4.963  10.467  0.1767 -0.4095  0.0043
   99OSM    HO3 9881   0.766   4.944  10.546  0.7000 -0.3259 -0.3072
   99OSM    C4S 9882   0.784   4.959  10.240 -0.3746  0.2723 -0.7095
   99OSM    H4S 9883   0.759   4.854  10.223 -0.6796 -0.0341  1.3775
   99OSM    C5S 9884   0.762   5.043  10.142 -0.5700  0.0242  0.2793
   99OSM    H5S 9885   0.767   5.152  10.155  4.0788  0.0719 -0.0864
   99OSM    C6S 9886   0.733   5.003   9.997 -0.0277 -0.0553  0.4796
   99OSM    H6S 9887   0.802   5.066   9.937  0.9795 -0.4144  1.2216
   99OSM    H6T 9888   0.626   5.027   9.979 -0.4434 -2.3292 -0.4643
   99OSM    C7S 9889   0.761   4.852   9.973 -0.2693 -0.2844  0.4422
   99OSM    H7S 9890   0.701   4.787  10.040  0.3487 -2.3652 -0.9046
   99OSM    H7T 9891   0.867   4.831  10.000 -0.7450 -1.5805  1.4239
   99OSM    C8S 9892   0.724   4.819   9.827 -0.4735 -0.5114 -0.4900
   99OSM    H8S 9893   0.767   4.901   9.766 -2.7299  1.9972  1.0316
   99OSM    H8T 9894   0.613   4.822   9.822 -0.6122  0.6115  1.8216
   99OSM    C9S 9895   0.789   4.687   9.784 -0.3288 -0.8102 -0.5132
   99OSM    H9S 9896   0.768   4.602   9.852 -0.9162 -0.0256  0.3085
   99OSM    H9T 9897   0.898   4.709   9.789 -0.1429 -1.9800  2.3583
   99OSM   C10S 9898   0.754   4.652   9.641 -0.6435  1.0215 -0.9806
   99OSM   H10S 9899   0.805   4.730   9.580 -2.0726  0.3094 -3.2127
   99OSM   H10T 9900   0.643   4.654   9.634 -0.6556  0.9180 -0.8147
   99OSM   C11S 9901   0.799   4.509   9.595  0.1076 -0.0780  0.1964
   99OSM   H11S 9902   0.740   4.429   9.646 -1.4146  0.4628 -0.6565
   99OSM   H11T 9903   0.909   4.494   9.602  0.2520 -0.8179 -2.4543
   99OSM   C12S 9904   0.749   4.487   9.448 -0.4981  0.7521  0.1505
   99OSM   H12S 9905   0.641   4.500   9.425 -0.5165 -0.6121 -0.6675
   99OSM   H12T 9906   0.808   4.557   9.385 -1.0666  1.7624  0.7124
   99OSM   C13S 9907   0.790   4.348   9.402  0.7062  0.9828 -0.5988
   99OSM   H13S 9908   0.748   4.269   9.468  0.7209  1.6703  0.2524
   99OSM   H13T 9909   0.900   4.343   9.414  0.8211 -1.8205 -2.0667
   99OSM   C14S 9910   0.763   4.314   9.257 -0.0430  0.3533 -0.1479
   99OSM   H14S 9911   0.654   4.333   9.253 -0.2106 -0.5978 -0.2905
   99OSM   H14T 9912   0.796   4.209   9.247 -1.1887 -0.0150 -0.2149
   99OSM   C15S 9913   0.852   4.387   9.152  1.9254  0.0559 -0.0583
   99OSM   H15S 9914   0.958   4.370   9.180  1.4891 -0.6805  1.2114
   99OSM   H15T 9915   0.831   4.495   9.167 -1.2709 -0.6992  2.0623
   99OSM   C16S 9916   0.826   4.340   9.009  0.2732 -0.0878 -0.2930
   99OSM   H16S 9917   0.886   4.410   8.946  1.7433 -2.3673 -1.5787
   99OSM   H16T 9918   0.719   4.346   8.979  0.7414  3.1049 -1.8062
   99OSM   C17S 9919   0.902   4.212   8.965  0.4489 -0.6107  0.0310
   99OSM   H17S 9920   0.877   4.137   9.043 -0.7188  0.0268  0.2909
   99OSM   H17T 9921   1.011   4.234   8.967  0.7933 -2.1510  0.0601
   99OSM   C18S 9922   0.860   4.160   8.828 -0.0426  0.2422 -0.7439
   99OSM   H18S 9923   0.760   4.117   8.849 -0.8445  2.6314  0.8273
   99OSM   H18T 9924   0.922   4.075   8.794 -1.1966 -1.2037  0.5883
   99OSM   H18U 9925   0.872   4.230   8.743  0.2428  0.4459 -0.5368
   99OSM    C1F 9926   1.177   4.853  10.316 -0.1061 -0.1624  0.1899
   99OSM     OF 9927   1.178   4.746  10.377 -0.5465 -0.1265  0.3419
   99OSM    C2F 9928   1.302   4.910  10.249 -0.2177 -0.0197  0.2178
   99OSM    H2F 9929   1.382   4.931  10.323  1.4588 -1.2314 -1.1744
   99OSM    H2G 9930   1.293   5.015  10.212  0.1996  0.9015  2.5113
   99OSM    C3F 9931   1.350   4.817  10.139 -1.0394 -1.0686  0.1932
   99OSM    H3F 9932   1.442   4.860  10.095 -2.1674  2.7777  1.1419
   99OSM    H3G 9933   1.371   4.717  10.182 -0.2729 -1.0559 -0.1310
   99OSM    C4F 9934   1.256   4.797  10.022 -0.4999  0.0222 -0.2580
   99OSM    H4F 9935   1.150   4.781  10.051 -0.8417  1.2522 -0.7936
   99OSM    H4G 9936   1.301   4.713   9.964  1.2679  1.0081 -0.3913
   99OSM    C5F 9937   1.255   4.909   9.919  0.0273 -0.0491  0.3659
   99OSM    H5F 9938   1.353   4.956   9.898  0.1901 -1.1624 -1.5943
   99OSM    H5G 9939   1.177   4.982   9.950  1.3551  1.9560 -0.7855
   99OSM    C6F 9940   1.201   4.854   9.789  0.1203  0.6152 -0.4173
   99OSM    H6F 9941   1.139   4.765   9.812 -0.2980  1.4277  1.8193
   99OSM    H6G 9942   1.282   4.830   9.717 -0.8119 -0.3934 -1.1603
   99OSM    C7F 9943   1.118   4.956   9.708 -0.3679 -0.2993 -0.2596
   99OSM    H7F 9944   1.178   5.049   9.697 -0.7439 -0.2532 -2.3354
   99OSM    H7G 9945   1.032   4.990   9.769  0.9057  0.8244  0.9945
   99OSM    C8F 9946   1.068   4.912   9.570  0.3622 -0.0057 -0.5508
   99OSM    H8F 9947   0.969   4.957   9.548 -1.4347 -3.4392 -0.1066
   99OSM    H8G 9948   1.038   4.806   9.572 -2.5120  0.7485  0.3173
   99OSM    C9F 9949   1.175   4.947   9.466  0.0156  0.2516  0.2531
   99OSM    H9F 9950   1.209   5.051   9.471 -0.6735  0.6637 -2.3617
   99OSM   C10F 9951   1.241   4.866   9.376  0.5820  0.2384  0.4251
   99OSM   H10F 9952   1.316   4.903   9.304 -0.1223 -3.1929 -2.3458
   99OSM   C11F 9953   1.211   4.725   9.363 -0.1868  0.5498  0.0900
   99OSM   H11F 9954   1.169   4.685   9.457  1.7994 -0.0390  0.7811
   99OSM   H11G 9955   1.305   4.668   9.347 -0.9722 -1.0705  0.9181
   99OSM   C12F 9956   1.123   4.668   9.254 -0.8996  0.4527  0.1206
   99OSM   H12F 9957   1.026   4.722   9.262 -0.8836  0.7392 -1.2716
   99OSM   H12G 9958   1.112   4.560   9.280 -0.5467  0.3962  0.0441
   99OSM   C13F 9959   1.184   4.686   9.118  0.9327  0.4737 -0.8622
   99OSM   H13F 9960   1.290   4.655   9.113  0.1259 -2.4558 -1.6920
   99OSM   H13G 9961   1.190   4.796   9.101  0.3194  1.0109  1.8800
   99OSM   C14F 9962   1.119   4.607   9.004  0.3148 -0.7394 -0.7293
   99OSM   H14F 9963   1.011   4.630   8.996  0.0899 -1.3869  0.1934
   99OSM   H14G 9964   1.117   4.500   9.036 -0.5325 -0.4992  0.0691
   99OSM   C15F 9965   1.200   4.621   8.874 -0.3522  0.2349 -0.4621
   99OSM   H15F 9966   1.176   4.535   8.808 -0.9304 -0.2835  0.3929
   99OSM   H15G 9967   1.307   4.592   8.885 -0.4857 -0.1468 -0.1025
   99OSM   C16F 9968   1.188   4.753   8.805 -0.4614 -0.2570  0.0725
   99OSM   H16F 9969   1.228   4.843   8.857 -0.3168  0.6245 -1.5018
   99OSM   H16G 9970   1.081   4.778   8.794 -0.1674  1.4326  0.7932
   99OSM   C17F 9971   1.246   4.747   8.662  0.1029  0.2915 -0.0951
   99OSM   H17F 9972   1.173   4.670   8.626 -0.4175 -0.2837  2.0107
   99OSM   H17G 9973   1.345   4.698   8.650 -0.3344 -0.4667 -0.6875
   99OSM   C18F 9974   1.231   4.874   8.563 -0.1715 -0.3989  0.1937
   99OSM   H18F 9975   1.127   4.911   8.564 -0.8720 -2.1609 -1.2616
   99OSM   H18G 9976   1.261   4.836   8.463  1.8125 -2.6632  1.5355
   99OSM   H18H 9977   1.310   4.948   8.589 -1.5958  1.0893  0.4245
  100OSM      N 9978   3.939   4.424  10.551 -1.1443 -0.1039  0.0468
  100OSM    C15 9979   3.954   4.561  10.572 -0.0859 -0.3698  0.9514
  100OSM   H15A 9980   4.045   4.574  10.627  1.2461  0.9666 -1.4155
  100OSM   H15B 9981   3.867   4.602  10.622  0.3203 -0.0613  1.4045
  100OSM   H15C 9982   3.974   4.618  10.483  2.5135 -0.0992  1.6453
  100OSM    C14 9983   3.831   4.403  10.453 -0.1011  0.1200  0.4711
  100OSM   H14A 9984   3.804   4.300  10.432 -0.2541 -0.1389  1.8434
  100OSM   H14B 9985   3.863   4.445  10.359  0.6358  1.0297  1.1072
  100OSM   H14C 9986   3.742   4.455  10.485  0.9182  1.2428  1.5966
  100OSM    C13 9987   4.062   4.371  10.477  0.6419 -0.5771 -0.7732
  100OSM   H13A 9988   4.146   4.386  10.543  0.2966 -1.6031 -0.0697
  100OSM   H13B 9989   4.064   4.421  10.382 -1.2991 -0.1787 -0.6485
  100OSM   H13C 9990   4.060   4.264  10.458 -0.3548  0.0388 -4.9792
  100OSM    C12 9991   3.917   4.347  10.679  0.2013 -0.1340 -0.1036
  100OSM   H12A 9992   3.899   4.243  10.658  0.4882  0.0141 -1.1731
  100OSM   H12B 9993   3.824   4.386  10.717  0.0916 -1.4651  1.0569
  100OSM    C11 9994   4.020   4.363  10.791  0.2948  0.2424 -0.1279
  100OSM   H11A 9995   3.970   4.335  10.886  3.0575  0.3760  1.4711
  100OSM   H11B 9996   4.064   4.462  10.819 -0.3127  0.8485 -1.2597
  100OSM      P 9997   4.278   4.297  10.752 -0.4128 -0.0130 -0.0911
  100OSM    O13 9998   4.303   4.428  10.687  0.2563 -0.4441 -0.9230
  100OSM    O14 9999   4.353   4.249  10.871  0.0067 -0.4276  0.2744
  100OSM    O1110000   4.327   4.194  10.640  0.1675 -0.0697  0.4103
  100OSM    O1210001   4.122   4.261  10.766 -0.0991 -0.0837 -0.0816
  100OSM    C1S10002   4.247   4.087  10.596  0.1067  0.7679  0.0999
  100OSM    H1S10003   4.145   4.124  10.570 -0.0278  0.3455  0.0104
  100OSM    H1T10004   4.240   4.005  10.671  1.8794 -0.0570 -0.5698
  100OSM     NF10005   4.220   3.920  10.409  0.0364 -0.5509 -0.2313
  100OSM    HNF10006   4.240   3.823  10.423 -0.0084 -0.4323  0.7053
  100OSM    C2S10007   4.311   4.013  10.468 -0.4640 -0.2191 -0.0657
  100OSM    H2S10008   4.343   4.088  10.392  0.2859 -1.2654 -0.8080
  100OSM    C3S10009   4.441   3.939  10.513  0.4245  0.2455  0.5755
  100OSM    H3S10010   4.414   3.856  10.581 -0.6808  0.1969  0.0944
  100OSM     O310011   4.526   4.031  10.578  0.0583 -0.1427 -0.9408
  100OSM    HO310012   4.464   4.102  10.597  0.3006 -0.3343  0.7290
  100OSM    C4S10013   4.514   3.881  10.391 -0.7270  0.0706 -0.0919
  100OSM    H4S10014   4.497   3.773  10.393  0.8460 -0.1947 -0.1259
  100OSM    C5S10015   4.594   3.943  10.302 -0.1754 -0.0915 -0.0368
  100OSM    H5S10016   4.623   4.049  10.311  0.0549  0.1279 -2.6646
  100OSM    C6S10017   4.660   3.881  10.184  0.0250  0.5379  0.0999
  100OSM    H6S10018   4.770   3.880  10.198 -0.0223  0.0314  0.4810
  100OSM    H6T10019   4.628   3.937  10.093 -1.5525 -1.4297 -0.6193
  100OSM    C7S10020   4.628   3.729  10.150  0.3560 -0.3059 -0.0935
  100OSM    H7S10021   4.517   3.720  10.155  0.3994 -0.0195  3.0554
  100OSM    H7T10022   4.672   3.673  10.235  0.7534 -0.0536 -0.1304
  100OSM    C8S10023   4.675   3.671  10.020 -0.2055 -0.0185  0.0489
  100OSM    H8S10024   4.692   3.563  10.041 -0.0404 -0.7490 -3.3192
  100OSM    H8T10025   4.771   3.722   9.997 -0.5432  0.9999  0.8094
  100OSM    C9S10026   4.587   3.689   9.896 -0.0651 -0.4335  0.1176
  100OSM    H9S10027   4.563   3.796   9.912  0.6223 -0.2820  0.1736
  100OSM    H9T10028   4.493   3.630   9.887  0.1730 -0.5452 -2.7881
  100OSM   C10S10029   4.671   3.680   9.762  0.5086 -0.0573  0.0380
  100OSM   H10S10030   4.716   3.578   9.763  0.4125 -0.1011 -0.0085
  100OSM   H10T10031   4.750   3.757   9.761  1.9081 -1.4339  0.6068
  100OSM   C11S10032   4.569   3.689   9.649 -0.6145  0.2030  0.4614
  100OSM   H11S10033   4.524   3.789   9.665 -0.8704  0.3294 -0.9409
  100OSM   H11T10034   4.501   3.601   9.648  2.5969 -2.4821 -0.9405
  100OSM   C12S10035   4.633   3.694   9.508  0.0378  0.2828 -0.1349
  100OSM   H12S10036   4.698   3.608   9.482 -0.2016  0.3025 -0.8305
  100OSM   H12T10037   4.703   3.781   9.505  0.7832 -0.2933  0.3516
  100OSM   C13S10038   4.520   3.704   9.405 -0.1427  0.2481  0.0115
  100OSM   H13S10039   4.447   3.787   9.415  0.2809  0.4886  1.1928
  100OSM   H13T10040   4.462   3.612   9.423 -0.2683  0.4472  0.6204
  100OSM   C14S10041   4.577   3.707   9.263 -0.4298  0.6329  0.0889
  100OSM   H14S10042   4.661   3.635   9.259 -1.0199 -0.0713  0.0321
  100OSM   H14T10043   4.629   3.802   9.241  1.4034 -0.5541 -0.8977
  100OSM   C15S10044   4.479   3.672   9.151  0.2453  0.2040 -0.6749
  100OSM   H15S10045   4.416   3.762   9.134 -0.1392  0.2695  0.9311
  100OSM   H15T10046   4.412   3.591   9.188  1.0487  0.3083  1.1182
  100OSM   C16S10047   4.546   3.657   9.016  0.1300  0.2826  0.2303
  100OSM   H16S10048   4.624   3.579   9.013 -0.4348 -0.2784 -0.3059
  100OSM   H16T10049   4.600   3.751   8.990  0.9380 -0.0959  0.5134
  100OSM   C17S10050   4.438   3.648   8.908  0.2342 -0.3165  0.8109
  100OSM   H17S10051   4.392   3.749   8.915  1.4735  0.3379 -0.0407
  100OSM   H17T10052   4.366   3.565   8.926  0.3619 -0.8135 -0.8015
  100OSM   C18S10053   4.500   3.624   8.775 -0.1996  0.4330  0.3080
  100OSM   H18S10054   4.558   3.530   8.768  0.5088  0.7475  1.7134
  100OSM   H18T10055   4.570   3.706   8.749  0.4968 -0.4454 -0.6871
  100OSM   H18U10056   4.425   3.632   8.692  0.9146 -0.0409 -0.7716
  100OSM    C1F10057   4.118   3.951  10.340  0.4547  0.3498 -0.1969
  100OSM     OF10058   4.074   4.065  10.334 -0.6921  0.0444 -0.1915
  100OSM    C2F10059   4.042   3.842  10.258  1.0107 -0.4374 -0.5322
  100OSM    H2F10060   3.990   3.768  10.322 -0.7257  0.9675 -0.2507
  100OSM    H2G10061   4.113   3.781  10.198  1.5268  0.0412 -0.4096
  100OSM    C3F10062   3.932   3.900  10.177  0.3169 -0.3122  0.5100
  100OSM    H3F10063   3.978   3.961  10.097  0.7731  0.4257  1.3212
  100OSM    H3G10064   3.871   3.971  10.237 -0.5539 -0.7913  0.2058
  100OSM    C4F10065   3.839   3.796  10.130 -0.0112  0.7874 -0.0299
  100OSM    H4F10066   3.753   3.849  10.083 -0.4170 -0.6546 -0.9662
  100OSM    H4G10067   3.795   3.734  10.212 -2.2907  1.5059 -0.6343
  100OSM    C5F10068   3.896   3.703  10.014 -0.2827 -0.3880  0.0114
  100OSM    H5F10069   3.993   3.658  10.044  1.4863  2.8588 -0.3242
  100OSM    H5G10070   3.911   3.773   9.929  0.6409  0.6570  0.9997
  100OSM    C6F10071   3.797   3.588   9.980 -0.1489 -0.1312  0.0475
  100OSM    H6F10072   3.706   3.641   9.945  0.8347  0.1837 -2.1874
  100OSM    H6G10073   3.786   3.529  10.074  1.5610  1.5016  1.3573
  100OSM    C7F10074   3.853   3.495   9.866  0.0968  0.5190 -0.2939
  100OSM    H7F10075   3.946   3.447   9.903  0.5161  0.2814 -1.5862
  100OSM    H7G10076   3.871   3.550   9.771 -1.1207  1.0736 -0.2131
  100OSM    C8F10077   3.757   3.380   9.841 -0.9296  0.0261  0.3259
  100OSM    H8F10078   3.741   3.339   9.944  2.9318 -0.4064  0.9007
  100OSM    H8G10079   3.813   3.296   9.795  1.2812  2.1029 -0.9492
  100OSM    C9F10080   3.637   3.415   9.758  0.7850  0.3994  0.2300
  100OSM    H9F10081   3.543   3.423   9.814  0.3763  0.8754 -0.5092
  100OSM   C10F10082   3.614   3.410   9.625  0.5741 -0.1973 -0.0788
  100OSM   H10F10083   3.516   3.438   9.583  0.0053 -1.2174  0.5316
  100OSM   C11F10084   3.716   3.375   9.523 -0.5529 -0.0391  0.4809
  100OSM   H11F10085   3.710   3.274   9.478  1.3600  0.5437 -1.2657
  100OSM   H11G10086   3.821   3.387   9.559 -0.2223  0.7355 -0.6665
  100OSM   C12F10087   3.694   3.454   9.393 -0.2332 -0.6789  0.2716
  100OSM   H12F10088   3.779   3.451   9.321  1.0045  2.8527  1.4038
  100OSM   H12G10089   3.669   3.561   9.410 -0.3794 -0.7328  0.3988
  100OSM   C13F10090   3.568   3.390   9.317 -0.2180 -0.0886 -0.0491
  100OSM   H13F10091   3.480   3.426   9.375 -1.1502 -0.8448 -0.9556
  100OSM   H13G10092   3.573   3.282   9.341 -1.9969  0.3825  3.0172
  100OSM   C14F10093   3.546   3.435   9.175  0.1350  0.2233 -0.5324
  100OSM   H14F10094   3.551   3.545   9.164  0.6783  0.7075  3.1666
  100OSM   H14G10095   3.447   3.401   9.137  0.3943  1.2010 -2.1204
  100OSM   C15F10096   3.653   3.394   9.067  0.2797 -0.5298  0.4168
  100OSM   H15F10097   3.658   3.284   9.063  2.3379 -0.4512 -0.1092
  100OSM   H15G10098   3.747   3.444   9.097 -0.2506  0.1658  0.9654
  100OSM   C16F10099   3.620   3.429   8.926 -0.0179 -0.1044  0.2290
  100OSM   H16F10100   3.712   3.449   8.867  0.4278  2.8181  1.7386
  100OSM   H16G10101   3.563   3.525   8.928  0.2970  0.0667  1.6643
  100OSM   C17F10102   3.526   3.326   8.858  0.4376 -0.1782  0.0322
  100OSM   H17F10103   3.423   3.353   8.889  0.3628 -0.7839  0.3283
  100OSM   H17G10104   3.555   3.225   8.895  0.1303  0.4843  2.2149
  100OSM   C18F10105   3.543   3.338   8.699  0.3407 -0.1163 -0.1414
  100OSM   H18F10106   3.547   3.443   8.662  0.1739 -0.4247 -1.0852
  100OSM   H18G10107   3.450   3.294   8.658 -1.1213  0.4479  2.3741
  100OSM   H18H10108   3.634   3.283   8.666 -0.5820 -1.5886 -0.3290
  101OSM      N10109   0.533   4.793  10.976 -0.5735  0.0211 -0.5159
  101OSM    C1510110   0.519   4.797  10.826  0.3597 -0.1112 -0.2978
  101OSM   H15A10111   0.415   4.794  10.798  0.8770  0.9750 -2.5638
  101OSM   H15B10112   0.568   4.712  10.780 -0.0835 -1.0751  0.9501
  101OSM   H15C10113   0.553   4.897  10.803  0.7075  0.7230  3.3380
  101OSM    C1410114   0.454   4.682  11.036 -0.1317  0.0053 -0.2569
  101OSM   H14A10115   0.508   4.595  11.001  1.0210  0.5114  0.2105
  101OSM   H14B10116   0.349   4.692  11.013 -0.1008  0.4133 -0.2275
  101OSM   H14C10117   0.444   4.672  11.144 -1.7977  1.5350 -0.2329
  101OSM    C1310118   0.674   4.774  11.011 -0.6929 -0.6890 -0.5650
  101OSM   H13A10119   0.702   4.780  11.115  0.2669 -1.7866 -0.7390
  101OSM   H13B10120   0.739   4.848  10.967 -1.0001 -0.3186 -0.4098
  101OSM   H13C10121   0.711   4.675  10.989  1.1642 -0.3521  0.7770
  101OSM    C1210122   0.486   4.932  11.032  0.2795 -0.0861 -0.8338
  101OSM   H12A10123   0.550   5.010  10.995  1.9478 -1.4300 -0.8910
  101OSM   H12B10124   0.488   4.937  11.140 -0.3500  2.4717 -0.8789
  101OSM    C1110125   0.347   4.991  10.993 -0.0364 -0.6126  0.4045
  101OSM   H11A10126   0.330   5.088  11.045 -1.1070 -0.9035  0.6150
  101OSM   H11B10127   0.268   4.921  11.029 -1.3473  1.0166  0.8423
  101OSM      P10128   0.204   5.046  10.786  0.0734 -0.0817  0.1037
  101OSM    O1310129   0.145   4.911  10.764  0.6548 -0.5524 -0.2807
  101OSM    O1410130   0.121   5.131  10.875 -0.1650 -0.3090  0.3900
  101OSM    O1110131   0.255   5.115  10.651  0.9535 -0.2248  0.1009
  101OSM    O1210132   0.343   5.013  10.854 -0.1251  0.3064  0.2198
  101OSM    C1S10133   0.353   5.052  10.565 -0.3480 -0.1378  0.7921
  101OSM    H1S10134   0.322   4.950  10.533  0.8375  0.2941 -2.0666
  101OSM    H1T10135   0.451   5.045  10.618 -1.5407 -1.1106  2.9824
  101OSM     NF10136   0.411   5.066  10.315 -0.1011 -0.0130 -0.6633
  101OSM    HNF10137   0.491   5.102  10.267  0.5394  1.1296  1.1698
  101OSM    C2S10138   0.362   5.138  10.433 -0.1631 -0.2887 -0.5728
  101OSM    H2S10139   0.259   5.171  10.409 -1.4401 -3.6751 -0.2433
  101OSM    C3S10140   0.454   5.259  10.472 -0.0220  0.3054  0.1943
  101OSM    H3S10141   0.553   5.228  10.510  0.5965  1.3630 -0.4901
  101OSM     O310142   0.394   5.329  10.572 -0.2831  0.1605 -0.1646
  101OSM    HO310143   0.316   5.276  10.590  0.0406 -0.3138 -0.1427
  101OSM    C4S10144   0.488   5.351  10.355  0.3786 -0.6052 -0.2916
  101OSM    H4S10145   0.405   5.412  10.315  0.7112  1.0962  1.4702
  101OSM    C5S10146   0.620   5.387  10.332  0.6856 -0.7314 -0.1880
  101OSM    H5S10147   0.703   5.336  10.382  0.7263  0.4632  1.0161
  101OSM    C6S10148   0.668   5.489  10.237 -0.3599  0.3734 -0.2845
  101OSM    H6S10149   0.773   5.463  10.211 -0.0198  3.1519 -2.1343
  101OSM    H6T10150   0.664   5.583  10.297 -1.6848  0.9215 -1.1763
  101OSM    C7S10151   0.583   5.508  10.114  0.9277  0.3588  0.3621
  101OSM    H7S10152   0.634   5.586  10.054  1.7575  0.4067  1.1078
  101OSM    H7T10153   0.486   5.552  10.143  0.3471 -0.1062 -0.8069
  101OSM    C8S10154   0.568   5.380  10.034 -0.0487  0.2872 -0.4135
  101OSM    H8S10155   0.508   5.300  10.082  0.9404 -0.0258  0.3306
  101OSM    H8T10156   0.667   5.337  10.006  0.7108  1.8549 -0.2036
  101OSM    C9S10157   0.518   5.407   9.893  0.1962  0.5121 -0.3248
  101OSM    H9S10158   0.572   5.485   9.834  1.1287  0.2104  0.1086
  101OSM    H9T10159   0.420   5.458   9.906  0.4361  0.8728  0.1205
  101OSM   C10S10160   0.496   5.285   9.819  0.7259  0.2620 -0.3304
  101OSM   H10S10161   0.420   5.304   9.740  0.5547 -1.1302 -0.5324
  101OSM   H10T10162   0.456   5.203   9.882 -2.2867 -0.2879 -2.7498
  101OSM   C11S10163   0.618   5.253   9.743 -0.4046 -0.7364 -0.2735
  101OSM   H11S10164   0.700   5.247   9.817  0.0188 -0.3611 -0.7032
  101OSM   H11T10165   0.645   5.343   9.684 -3.7631 -0.4090 -1.5716
  101OSM   C12S10166   0.618   5.128   9.649 -0.4932 -0.5707 -0.5197
  101OSM   H12S10167   0.594   5.046   9.720  0.0235 -1.1564 -1.0071
  101OSM   H12T10168   0.722   5.113   9.612  1.1381  3.3608  1.7899
  101OSM   C13S10169   0.517   5.118   9.540 -0.0290 -0.1964 -0.0314
  101OSM   H13S10170   0.531   5.205   9.472  0.8286 -0.2154  0.1146
  101OSM   H13T10171   0.417   5.135   9.586  0.5473  0.7368  0.9162
  101OSM   C14S10172   0.531   4.992   9.453 -0.2527 -0.1654 -0.1321
  101OSM   H14S10173   0.537   4.900   9.515  2.3768 -1.2380 -1.7829
  101OSM   H14T10174   0.631   4.993   9.404  0.0265  1.1634  0.4258
  101OSM   C15S10175   0.414   4.960   9.360  0.8285 -0.2815 -0.3311
  101OSM   H15S10176   0.365   5.050   9.316 -0.4698  0.6342  2.7524
  101OSM   H15T10177   0.329   4.917   9.416  0.3393  1.1523  0.0646
  101OSM   C16S10178   0.457   4.853   9.258 -0.2434 -0.1694  0.2927
  101OSM   H16S10179   0.362   4.819   9.210 -0.6400 -0.1835  1.0633
  101OSM   H16T10180   0.509   4.773   9.314 -0.5820 -0.7142 -0.1551
  101OSM   C17S10181   0.553   4.905   9.145 -0.2447 -0.5481 -0.2343
  101OSM   H17S10182   0.568   4.833   9.062 -0.8810 -1.0053  0.0469
  101OSM   H17T10183   0.657   4.911   9.185 -0.4892 -2.3968  0.7761
  101OSM   C18S10184   0.512   5.038   9.079  0.2727  0.4117 -1.0944
  101OSM   H18S10185   0.541   5.124   9.145 -0.2727 -1.1864  1.3740
  101OSM   H18T10186   0.404   5.040   9.053  0.5574 -2.6823 -2.8621
  101OSM   H18U10187   0.565   5.038   8.982 -0.3274  1.1996 -1.4302
  101OSM    C1F10188   0.362   4.948  10.273  0.3418 -0.1392 -0.0581
  101OSM     OF10189   0.251   4.911  10.306 -0.2643 -0.2526 -0.5456
  101OSM    C2F10190   0.441   4.864  10.179  0.0022  0.2311  0.0398
  101OSM    H2F10191   0.535   4.863  10.239 -0.6717  0.8713  1.1334
  101OSM    H2G10192   0.461   4.917  10.083  0.4169  0.4133  0.2235
  101OSM    C3F10193   0.381   4.721  10.157 -0.3667 -0.4779  0.6946
  101OSM    H3F10194   0.348   4.678  10.254 -0.3884  1.6328  1.6724
  101OSM    H3G10195   0.474   4.668  10.126  0.4935  2.0058 -1.3056
  101OSM    C4F10196   0.274   4.701  10.053  0.5517 -0.3464  0.7232
  101OSM    H4F10197   0.183   4.748  10.096  1.0387 -0.0449  1.4531
  101OSM    H4G10198   0.259   4.591  10.041 -0.1285 -0.1966  0.1651
  101OSM    C5F10199   0.306   4.766   9.918  0.4608  0.1657  0.0096
  101OSM    H5F10200   0.412   4.744   9.892  0.6444  0.2163  0.6971
  101OSM    H5G10201   0.288   4.875   9.918  0.1641  0.1672 -2.0232
  101OSM    C6F10202   0.209   4.710   9.811 -0.1181 -0.2134  0.6572
  101OSM    H6F10203   0.203   4.599   9.808 -0.9219 -0.1662 -1.3904
  101OSM    H6G10204   0.106   4.751   9.816 -0.7977 -1.0528 -3.2880
  101OSM    C7F10205   0.243   4.771   9.671  0.0447  0.4629  0.5913
  101OSM    H7F10206   0.349   4.744   9.650 -0.2967  0.1986 -0.8482
  101OSM    H7G10207   0.231   4.882   9.676 -1.8863  0.4199 -1.4893
  101OSM    C8F10208   0.158   4.713   9.554  0.1445 -0.0007 -0.6313
  101OSM    H8F10209   0.151   4.603   9.560 -1.6075  0.1793  2.5137
  101OSM    H8G10210   0.209   4.728   9.457 -0.6368  2.6572 -0.7148
  101OSM    C9F10211   0.017   4.761   9.536  0.7128  0.0167 -0.0594
  101OSM    H9F10212  -0.044   4.762   9.627  1.4853 -0.1653  0.4726
  101OSM   C10F10213  -0.050   4.775   9.420  0.8497 -0.0354 -0.9338
  101OSM   H10F10214  -0.155   4.808   9.424  1.1577  1.1620 -1.8839
  101OSM   C11F10215   0.003   4.751   9.282  0.5484 -0.0416 -0.3090
  101OSM   H11F10216  -0.077   4.709   9.216  1.6385  0.7927 -2.2683
  101OSM   H11G10217   0.078   4.670   9.283  1.3099  0.6351 -0.7581
  101OSM   C12F10218   0.054   4.864   9.195  0.1080  0.0860  0.4047
  101OSM   H12F10219   0.139   4.914   9.245  0.5342 -1.3692  1.1810
  101OSM   H12G10220  -0.034   4.932   9.197  1.5756  2.0423  1.9583
  101OSM   C13F10221   0.077   4.807   9.052 -0.4277  0.3334 -0.0461
  101OSM   H13F10222  -0.021   4.770   9.012 -0.6073 -0.5330  1.1365
  101OSM   H13G10223   0.143   4.719   9.066 -0.0415  0.6646  0.2253
  101OSM   C14F10224   0.149   4.911   8.969 -0.4497 -0.4740  0.1248
  101OSM   H14F10225   0.217   4.872   8.890 -1.1897 -1.5538  0.0111
  101OSM   H14G10226   0.202   4.980   9.039  1.0211 -1.6162  0.1795
  101OSM   C15F10227   0.043   5.005   8.905 -0.0116  0.4815  0.8024
  101OSM   H15F10228  -0.013   5.075   8.970 -2.3858 -0.2410 -0.3355
  101OSM   H15G10229  -0.039   4.949   8.855  0.5689  1.2577 -1.0994
  101OSM   C16F10230   0.120   5.105   8.821 -0.5114  0.0863 -0.1639
  101OSM   H16F10231   0.168   5.064   8.729 -0.2246  0.6076 -0.2485
  101OSM   H16G10232   0.203   5.142   8.884 -1.2860  0.8712  0.4138
  101OSM   C17F10233   0.023   5.213   8.773 -0.3063 -0.4658  0.3468
  101OSM   H17F10234  -0.019   5.264   8.863 -0.1344 -0.4176  0.4011
  101OSM   H17G10235  -0.061   5.157   8.727 -0.2717  0.4474 -0.8920
  101OSM   C18F10236   0.094   5.321   8.687 -0.1908  1.1317  0.1247
  101OSM   H18F10237   0.100   5.294   8.580  1.2817  2.9637 -0.3182
  101OSM   H18G10238   0.198   5.332   8.727 -0.3414  3.3063  0.0453
  101OSM   H18H10239   0.050   5.422   8.702 -2.2615 -0.0923  3.3817
  102OSM      N10240   4.726   6.735  10.835  0.2024  0.0182 -0.1130
  102OSM    C1510241   4.601   6.750  10.918  0.6795  0.7889 -0.3287
  102OSM   H15A10242   4.614   6.701  11.014 -0.3315 -0.4439 -0.7888
  102OSM   H15B10243   4.529   6.689  10.866  1.4626 -1.6448  1.2198
  102OSM   H15C10244   4.568   6.852  10.930 -1.1870  0.2344 -0.2922
  102OSM    C1410245   4.838   6.822  10.882  0.3837  0.5997  0.5748
  102OSM   H14A10246   4.856   6.804  10.987  2.6598 -1.0445 -0.0272
  102OSM   H14B10247   4.812   6.925  10.863 -0.8573  0.2194  0.0930
  102OSM   H14C10248   4.931   6.801  10.832  1.9634  3.7603  1.9242
  102OSM    C1310249   4.780   6.596  10.852 -0.1323  0.7446 -0.5055
  102OSM   H13A10250   4.860   6.582  10.780 -0.7663 -1.0900 -0.9162
  102OSM   H13B10251   4.713   6.517  10.821  2.8061 -1.8687 -0.7289
  102OSM   H13C10252   4.819   6.567  10.948  0.1103  1.9047 -0.2386
  102OSM    C1210253   4.687   6.767  10.689  0.5449 -0.1016 -0.1264
  102OSM   H12A10254   4.776   6.785  10.630  2.4149 -2.6997  1.6951
  102OSM   H12B10255   4.642   6.864  10.701  0.2189  0.0129 -2.0220
  102OSM    C1110256   4.606   6.662  10.599 -0.1100 -0.3308 -0.0752
  102OSM   H11A10257   4.668   6.570  10.599 -1.0015 -1.0292 -2.7952
  102OSM   H11B10258   4.601   6.709  10.498 -0.7832  0.5409  0.3559
  102OSM      P10259   4.349   6.710  10.629 -0.3129  0.2948 -0.0255
  102OSM    O1310260   4.239   6.669  10.724 -0.3294 -0.3186  0.3389
  102OSM    O1410261   4.384   6.855  10.624  0.0720 -0.5285 -0.1450
  102OSM    O1110262   4.304   6.670  10.484 -0.0401 -0.1396 -0.3673
  102OSM    O1210263   4.479   6.633  10.658 -0.1729  0.3299  0.0392
  102OSM    C1S10264   4.277   6.531  10.450 -0.3174  0.2927 -0.0241
  102OSM    H1S10265   4.191   6.494  10.510  0.1565 -1.4743 -0.3785
  102OSM    H1T10266   4.360   6.460  10.469  0.8459  1.9437  1.3954
  102OSM     NF10267   4.167   6.398  10.264 -0.1432  0.0373 -0.0496
  102OSM    HNF10268   4.214   6.327  10.213  0.9323  0.2062  0.6829
  102OSM    C2S10269   4.238   6.519  10.297 -0.2230 -0.0936  0.2012
  102OSM    H2S10270   4.168   6.604  10.280  0.3856  0.6234  1.1819
  102OSM    C3S10271   4.367   6.548  10.219  0.6131 -0.3939  0.2368
  102OSM    H3S10272   4.438   6.463  10.226 -0.8503 -1.6936 -0.2088
  102OSM     O310273   4.435   6.663  10.266  0.3895  0.1202 -0.1437
  102OSM    HO310274   4.397   6.695  10.347  0.4892  2.1486 -0.8488
  102OSM    C4S10275   4.330   6.568  10.075  0.4053  0.0972 -0.2732
  102OSM    H4S10276   4.324   6.676  10.052  2.6728  0.1021 -1.0549
  102OSM    C5S10277   4.334   6.481   9.976 -0.2869 -0.1255 -0.2014
  102OSM    H5S10278   4.356   6.375   9.996 -1.2715 -0.1926  0.6322
  102OSM    C6S10279   4.302   6.522   9.836  0.3026  0.6306 -0.7112
  102OSM    H6S10280   4.358   6.613   9.805  0.9572  0.2183 -0.7443
  102OSM    H6T10281   4.195   6.553   9.825  0.7524  2.5328 -0.1631
  102OSM    C7S10282   4.332   6.416   9.729 -0.2511  0.7616 -0.7372
  102OSM    H7S10283   4.266   6.329   9.751  2.3855 -0.9653  0.7900
  102OSM    H7T10284   4.440   6.390   9.728 -0.6425 -0.9945 -2.5707
  102OSM    C8S10285   4.295   6.454   9.584  0.0985 -0.5577 -0.2696
  102OSM    H8S10286   4.357   6.542   9.558  1.0130 -1.5526 -1.6055
  102OSM    H8T10287   4.188   6.484   9.581  0.5201  0.9263 -1.2542
  102OSM    C9S10288   4.327   6.334   9.485  0.3496 -0.3530 -0.1119
  102OSM    H9S10289   4.278   6.243   9.525 -1.1046  0.7059  0.6219
  102OSM    H9T10290   4.436   6.314   9.484 -0.1799 -4.2233  2.0276
  102OSM   C10S10291   4.281   6.373   9.348 -0.3162  0.3862  0.6076
  102OSM   H10S10292   4.308   6.295   9.274 -0.9597  1.3258 -0.6510
  102OSM   H10T10293   4.317   6.471   9.311 -0.4476 -0.3550 -1.6383
  102OSM   C11S10294   4.128   6.368   9.327 -0.1674 -0.0935 -0.2365
  102OSM   H11S10295   4.087   6.441   9.400  0.2687  0.1513 -0.2372
  102OSM   H11T10296   4.083   6.270   9.355 -1.2199  0.4170 -0.0628
  102OSM   C12S10297   4.077   6.402   9.189  0.1177  0.1252 -0.2768
  102OSM   H12S10298   4.124   6.492   9.143 -0.0481 -0.1503 -0.9940
  102OSM   H12T10299   3.968   6.421   9.187  0.1180  0.0713 -1.0764
  102OSM   C13S10300   4.100   6.283   9.093  0.4648 -0.3182  0.5501
  102OSM   H13S10301   4.030   6.205   9.131  0.0565  0.0112  0.4828
  102OSM   H13T10302   4.208   6.259   9.097  0.2999 -1.0702  0.6280
  102OSM   C14S10303   4.058   6.327   8.954 -0.7330  0.1416 -0.0791
  102OSM   H14S10304   4.121   6.409   8.915 -0.7867 -0.5806 -1.7585
  102OSM   H14T10305   3.958   6.376   8.951  0.5043  2.8129 -2.1856
  102OSM   C15S10306   4.064   6.218   8.845  0.1998 -0.0604  0.3945
  102OSM   H15S10307   4.014   6.124   8.879  3.0178 -1.0525  2.1761
  102OSM   H15T10308   4.171   6.188   8.832  0.4608  1.2469 -0.6299
  102OSM   C16S10309   4.004   6.260   8.713  0.3141 -0.6847 -0.4276
  102OSM   H16S10310   4.080   6.336   8.683 -0.9511  0.1383 -1.6549
  102OSM   H16T10311   3.910   6.319   8.716  0.4005 -0.4748 -1.5815
  102OSM   C17S10312   3.992   6.151   8.603 -0.1742  0.9952 -0.1524
  102OSM   H17S10313   4.079   6.083   8.594 -1.2185 -0.4990  0.6371
  102OSM   H17T10314   3.977   6.204   8.507 -1.1054  0.9583 -0.0399
  102OSM   C18S10315   3.868   6.067   8.643 -0.6053  0.2079  0.1417
  102OSM   H18S10316   3.844   5.982   8.575  0.9228 -0.8251  0.8432
  102OSM   H18T10317   3.779   6.132   8.644 -2.6548 -2.4357  1.0049
  102OSM   H18U10318   3.878   6.019   8.742 -0.7938 -1.9904 -0.8363
  102OSM    C1F10319   4.045   6.378  10.309  0.7689  0.4199 -0.9434
  102OSM     OF10320   3.976   6.466  10.358 -0.3155  0.0823 -0.2097
  102OSM    C2F10321   3.986   6.237  10.300  0.5036 -0.1959 -0.2434
  102OSM    H2F10322   3.984   6.191  10.401 -0.4288 -1.3217 -0.7537
  102OSM    H2G10323   4.062   6.179  10.244  1.8433  0.1763  1.1056
  102OSM    C3F10324   3.847   6.233  10.245 -0.2867  0.6879  0.8772
  102OSM    H3F10325   3.842   6.287  10.148  0.4509 -2.4096 -1.0099
  102OSM    H3G10326   3.776   6.280  10.316 -0.4013  1.4378  0.2839
  102OSM    C4F10327   3.800   6.092  10.208 -0.6385 -0.6225  0.4831
  102OSM    H4F10328   3.693   6.097  10.180 -0.4488 -1.9695 -0.6088
  102OSM    H4G10329   3.807   6.029  10.299 -0.1253  3.7903  3.8326
  102OSM    C5F10330   3.878   6.031  10.091 -0.5428  0.0350  0.5523
  102OSM    H5F10331   3.841   5.927  10.086  0.6853 -0.4084  0.4476
  102OSM    H5G10332   3.985   6.029  10.121 -0.0483  0.5427 -1.0848
  102OSM    C6F10333   3.865   6.094   9.946  0.0254 -0.3621 -0.6028
  102OSM    H6F10334   3.928   6.185   9.955  1.3852 -1.4092  1.4484
  102OSM    H6G10335   3.760   6.122   9.924 -0.0223 -2.7722 -4.3439
  102OSM    C7F10336   3.918   6.006   9.837  0.4077 -0.6980  0.4169
  102OSM    H7F10337   3.860   5.913   9.817  0.1262 -0.3354 -0.4784
  102OSM    H7G10338   4.020   5.974   9.868  0.7631  2.3452  2.8291
  102OSM    C8F10339   3.938   6.084   9.707  0.0835  0.6838 -0.0842
  102OSM    H8F10340   4.009   6.021   9.649  0.2614 -2.5208  3.2606
  102OSM    H8G10341   4.002   6.169   9.738  2.3369 -0.4291 -1.4078
  102OSM    C9F10342   3.818   6.118   9.633  0.6005 -0.8816  0.2218
  102OSM    H9F10343   3.738   6.174   9.684  0.0173 -0.5202 -1.0378
  102OSM   C10F10344   3.794   6.068   9.508  0.3138  0.6014  0.3190
  102OSM   H10F10345   3.707   6.102   9.449  0.5363  1.0201  0.2278
  102OSM   C11F10346   3.888   5.976   9.438  0.0587  0.4921  0.2415
  102OSM   H11F10347   3.895   5.871   9.473  0.5984 -0.7446 -3.2563
  102OSM   H11G10348   3.990   6.021   9.431 -0.2183  1.0309 -0.3967
  102OSM   C12F10349   3.824   5.985   9.302  1.4300  0.1246 -0.2491
  102OSM   H12F10350   3.841   6.086   9.257  3.9191  1.3509  3.0558
  102OSM   H12G10351   3.714   5.970   9.298  1.3160  1.0637 -1.7252
  102OSM   C13F10352   3.882   5.903   9.187  0.0736 -0.1135 -0.0368
  102OSM   H13F10353   3.866   5.794   9.206 -1.4123 -0.3525 -2.2832
  102OSM   H13G10354   3.991   5.924   9.181  0.0038  0.0643 -0.7692
  102OSM   C14F10355   3.821   5.926   9.051 -0.0220 -0.1793  0.5321
  102OSM   H14F10356   3.886   5.861   8.989  0.9721  0.9884  0.3025
  102OSM   H14G10357   3.822   6.030   9.011 -0.0023 -0.2821  0.2641
  102OSM   C15F10358   3.687   5.848   9.026 -0.2247 -0.2136 -0.1305
  102OSM   H15F10359   3.611   5.896   9.090 -1.3419 -2.9369  0.7231
  102OSM   H15G10360   3.701   5.747   9.071  1.1258  0.1861  0.4117
  102OSM   C16F10361   3.637   5.841   8.880  0.1444 -0.1415  0.4313
  102OSM   H16F10362   3.554   5.767   8.881  0.9720 -1.1268  2.1925
  102OSM   H16G10363   3.720   5.804   8.816  0.8227  1.2678  0.4519
  102OSM   C17F10364   3.583   5.969   8.821  0.5451 -0.3581  0.5879
  102OSM   H17F10365   3.660   6.049   8.822 -2.1682  2.5932 -2.5377
  102OSM   H17G10366   3.501   6.007   8.885  0.5255 -0.4263  0.6038
  102OSM   C18F10367   3.517   5.957   8.676 -0.3289 -0.0116  0.7403
  102OSM   H18F10368   3.427   5.892   8.666  0.0550 -0.4271 -0.2120
  102OSM   H18G10369   3.583   5.924   8.593 -1.8852 -0.8926 -0.2046
  102OSM   H18H10370   3.498   6.061   8.642 -1.0479 -0.5222 -0.4832
  103OSM      N10371   0.214   4.098  11.092  0.2942 -0.5188  0.1995
  103OSM    C1510372   0.241   4.068  11.228 -0.7586 -0.4861  0.4621
  103OSM   H15A10373   0.155   4.086  11.292 -0.5970 -1.0131  0.8236
  103OSM   H15B10374   0.306   4.139  11.276 -1.8517 -0.3501  1.8033
  103OSM   H15C10375   0.281   3.969  11.242 -1.1031 -0.5381  1.1378
  103OSM    C1410376   0.334   4.070  10.996 -0.0016 -0.4336 -0.0284
  103OSM   H14A10377   0.311   4.065  10.891  1.3596 -0.9443 -0.3215
  103OSM   H14B10378   0.396   3.989  11.033  1.6962  1.0166  0.4431
  103OSM   H14C10379   0.406   4.150  11.009 -0.2407 -0.5189  2.1669
  103OSM    C1310380   0.114   3.986  11.058 -0.6400  0.6604  0.5952
  103OSM   H13A10381   0.036   3.983  11.132  0.3205 -0.2607  1.6106
  103OSM   H13B10382   0.166   3.892  11.053  2.1001  2.1065 -0.5130
  103OSM   H13C10383   0.067   4.007  10.964  3.5494 -0.2171 -1.9650
  103OSM    C1210384   0.156   4.235  11.078  0.6118 -0.8214  0.2252
  103OSM   H12A10385   0.225   4.315  11.101 -1.9950  1.8886 -0.7397
  103OSM   H12B10386   0.076   4.244  11.149 -0.1464 -0.5506 -0.6386
  103OSM    C1110387   0.105   4.281  10.939  0.3649 -0.5396 -0.5290
  103OSM   H11A10388   0.050   4.378  10.939  0.4680 -0.4757  0.0810
  103OSM   H11B10389   0.027   4.209  10.906  0.9748 -1.2236 -0.5009
  103OSM      P10390   0.318   4.393  10.850  0.2280  0.5098 -0.0226
  103OSM    O1310391   0.261   4.527  10.825 -0.6303 -0.1637  0.6849
  103OSM    O1410392   0.403   4.375  10.969 -0.8791  0.1083 -0.2851
  103OSM    O1110393   0.400   4.350  10.723  0.1564 -0.1671 -0.4044
  103OSM    O1210394   0.204   4.278  10.841  0.2386  0.3220  0.0313
  103OSM    C1S10395   0.429   4.219  10.681  1.0112  0.2126  0.5824
  103OSM    H1S10396   0.350   4.150  10.717  0.0460  0.9292 -0.0887
  103OSM    H1T10397   0.525   4.174  10.713  0.9622 -2.0321 -2.0320
  103OSM     NF10398   0.433   4.065  10.475  0.1082 -0.2820  0.5549
  103OSM    HNF10399   0.522   4.033  10.444  1.4370  2.8520  0.7330
  103OSM    C2S10400   0.425   4.205  10.520 -0.4988 -0.1589  0.2298
  103OSM    H2S10401   0.325   4.231  10.479 -0.8485 -1.7367  0.0021
  103OSM    C3S10402   0.532   4.289  10.458  0.3477 -0.0905  0.1837
  103OSM    H3S10403   0.629   4.251  10.496  0.5670 -0.4167 -0.6958
  103OSM     O310404   0.530   4.425  10.502 -0.2399  0.4894 -0.0083
  103OSM    HO310405   0.480   4.425  10.584 -1.8946  0.7688 -0.9869
  103OSM    C4S10406   0.531   4.274  10.312 -0.2933 -0.3379 -0.3189
  103OSM    H4S10407   0.569   4.175  10.282 -0.3404 -0.8179  1.1580
  103OSM    C5S10408   0.492   4.358  10.214 -0.2815  0.0484 -0.2534
  103OSM    H5S10409   0.466   4.459  10.247  0.3241 -0.0183  0.4400
  103OSM    C6S10410   0.501   4.339  10.060  0.5996 -0.2774  0.1782
  103OSM    H6S10411   0.542   4.429  10.010  0.8645 -1.0048 -0.9587
  103OSM    H6T10412   0.404   4.312  10.013  2.7063 -1.4911 -3.9712
  103OSM    C7S10413   0.589   4.231  10.005  0.7857 -0.3708  0.4287
  103OSM    H7S10414   0.555   4.128  10.031  1.8589 -0.7487  0.3834
  103OSM    H7T10415   0.688   4.237  10.055  1.2560  1.7605 -0.6375
  103OSM    C8S10416   0.608   4.243   9.854  0.5252  0.0597 -0.5876
  103OSM    H8S10417   0.686   4.169   9.827  0.5207  0.0105 -0.4669
  103OSM    H8T10418   0.634   4.346   9.821 -1.0456  0.0806 -1.9256
  103OSM    C9S10419   0.476   4.201   9.774 -0.5387  0.8027  0.4003
  103OSM    H9S10420   0.390   4.262   9.808 -0.6012 -0.7698  3.4045
  103OSM    H9T10421   0.454   4.095   9.798  2.2474  0.5617  2.3876
  103OSM   C10S10422   0.500   4.201   9.623  0.4917  0.4065 -0.5592
  103OSM   H10S10423   0.570   4.120   9.592  1.4177  1.1236 -0.3855
  103OSM   H10T10424   0.541   4.296   9.582  0.3573  1.1861  1.0554
  103OSM   C11S10425   0.364   4.175   9.553  0.0744  0.1570 -0.0411
  103OSM   H11S10426   0.297   4.256   9.589  1.5356  1.0773  0.7611
  103OSM   H11T10427   0.312   4.085   9.591 -2.6818  1.9876  0.7774
  103OSM   C12S10428   0.383   4.165   9.406  0.5078  0.2808  0.2116
  103OSM   H12S10429   0.319   4.084   9.365  1.0854 -1.0200  1.7645
  103OSM   H12T10430   0.490   4.143   9.388  0.6583  0.6839  0.5936
  103OSM   C13S10431   0.356   4.299   9.334 -0.1387  0.6104  0.3300
  103OSM   H13S10432   0.440   4.369   9.354  0.2114 -0.2620  2.1148
  103OSM   H13T10433   0.260   4.343   9.368 -0.8241 -0.8585  0.3578
  103OSM   C14S10434   0.344   4.280   9.186 -0.5714 -0.1838  0.7766
  103OSM   H14S10435   0.276   4.198   9.154 -0.1676  0.2317 -1.3275
  103OSM   H14T10436   0.442   4.258   9.139 -0.3126  1.0843  0.6953
  103OSM   C15S10437   0.283   4.407   9.115  0.4806 -0.0571 -0.3287
  103OSM   H15S10438   0.334   4.497   9.156 -3.7887  3.1568 -1.3832
  103OSM   H15T10439   0.182   4.433   9.153 -0.3921 -1.6837 -1.4031
  103OSM   C16S10440   0.281   4.411   8.959  0.6223 -0.7736 -0.4668
  103OSM   H16S10441   0.370   4.391   8.896  1.9627  1.5848  0.5854
  103OSM   H16T10442   0.258   4.512   8.921 -1.4704 -0.9751  0.0987
  103OSM   C17S10443   0.163   4.324   8.912  0.1613 -0.4095  0.5944
  103OSM   H17S10444   0.078   4.339   8.982  0.4646 -0.0857  0.8978
  103OSM   H17T10445   0.202   4.222   8.933  0.1928 -0.5395 -0.0853
  103OSM   C18S10446   0.114   4.350   8.769  0.7698 -0.4324  0.2012
  103OSM   H18S10447   0.057   4.444   8.788  1.3367 -0.6174  3.3737
  103OSM   H18T10448   0.042   4.272   8.736  1.5936 -1.5686  0.9939
  103OSM   H18U10449   0.195   4.368   8.695  1.1131  0.0919  0.6996
  103OSM    C1F10450   0.348   3.972  10.522 -0.4722 -0.3925  0.1326
  103OSM     OF10451   0.234   3.998  10.543 -0.4434 -0.6904  0.1664
  103OSM    C2F10452   0.393   3.833  10.544 -0.0020  0.3583  0.0450
  103OSM    H2F10453   0.383   3.806  10.651 -2.8967  1.5757  0.1670
  103OSM    H2G10454   0.500   3.814  10.519  0.0019  0.7612 -0.2533
  103OSM    C3F10455   0.309   3.739  10.463 -0.7611  0.1324 -0.0536
  103OSM    H3F10456   0.204   3.740  10.497 -0.9175 -1.8318 -0.3895
  103OSM    H3G10457   0.352   3.638  10.481  0.8781  1.1016  1.9979
  103OSM    C4F10458   0.300   3.758  10.309  0.3940  0.6242 -0.1321
  103OSM    H4F10459   0.268   3.860  10.281 -0.3207 -0.3375 -3.1704
  103OSM    H4G10460   0.214   3.697  10.276  0.8746  0.0026 -0.2700
  103OSM    C5F10461   0.422   3.704  10.232 -0.5365  0.5002 -0.3372
  103OSM    H5F10462   0.437   3.596  10.254  0.7517  0.2994 -1.9420
  103OSM    H5G10463   0.510   3.758  10.273  0.8334 -0.0969 -2.3276
  103OSM    C6F10464   0.425   3.742  10.082  0.1477  0.1351 -0.1075
  103OSM    H6F10465   0.530   3.749  10.044 -0.1172 -0.8472 -1.0760
  103OSM    H6G10466   0.392   3.847  10.069 -2.1278 -0.4645  0.4949
  103OSM    C7F10467   0.333   3.656   9.993 -0.6660  0.5113 -0.3341
  103OSM    H7F10468   0.228   3.664  10.028 -1.3574  0.3387 -2.2573
  103OSM    H7G10469   0.382   3.556  10.002 -0.7359  0.5299  0.2636
  103OSM    C8F10470   0.346   3.701   9.845  0.5588  0.0046 -0.3351
  103OSM    H8F10471   0.450   3.688   9.808  0.3881 -2.7365 -0.0317
  103OSM    H8G10472   0.342   3.812   9.842 -1.1834 -0.0246 -0.0287
  103OSM    C9F10473   0.256   3.636   9.742 -0.4088  0.1318  0.2133
  103OSM    H9F10474   0.170   3.579   9.782 -1.1040 -0.5763 -2.1185
  103OSM   C10F10475   0.275   3.660   9.611  0.2750 -0.9663  0.6433
  103OSM   H10F10476   0.205   3.630   9.531 -0.5533  0.8914  0.6272
  103OSM   C11F10477   0.389   3.739   9.554  0.3405  0.1500 -0.1340
  103OSM   H11F10478   0.482   3.707   9.606  0.2631  0.9264  0.5109
  103OSM   H11G10479   0.369   3.847   9.568  0.1175  0.1418 -0.3820
  103OSM   C12F10480   0.409   3.713   9.400  0.0921 -0.1584 -0.4059
  103OSM   H12F10481   0.408   3.602   9.390 -0.3647 -0.1580 -0.3662
  103OSM   H12G10482   0.509   3.754   9.373  0.3610 -0.7189 -0.2890
  103OSM   C13F10483   0.305   3.781   9.308  0.2657  0.6645 -0.3357
  103OSM   H13F10484   0.296   3.886   9.343 -2.6298  1.0039 -1.7366
  103OSM   H13G10485   0.203   3.741   9.327  0.1026  0.6031 -1.2690
  103OSM   C14F10486   0.332   3.752   9.161  0.3534 -0.1517 -0.0126
  103OSM   H14F10487   0.321   3.642   9.150  2.8473 -0.8884  3.2699
  103OSM   H14G10488   0.436   3.784   9.139  0.0510  2.9469  2.3345
  103OSM   C15F10489   0.229   3.816   9.068  0.0277  0.5733  0.1992
  103OSM   H15F10490   0.213   3.922   9.097 -0.1527  0.7800 -0.6158
  103OSM   H15G10491   0.128   3.773   9.079  0.6997 -1.2179 -0.3203
  103OSM   C16F10492   0.274   3.804   8.923  0.4101  0.0300  0.2501
  103OSM   H16F10493   0.308   3.700   8.904  0.9063  0.0548  0.9589
  103OSM   H16G10494   0.363   3.869   8.909  0.0416  0.6448  0.7106
  103OSM   C17F10495   0.168   3.856   8.826 -0.0273  0.4767  0.4073
  103OSM   H17F10496   0.114   3.946   8.862 -1.9340 -1.0958  1.6910
  103OSM   H17G10497   0.095   3.774   8.812  0.9118 -0.1792 -0.9139
  103OSM   C18F10498   0.231   3.878   8.690 -0.1380  0.5807  0.4231
  103OSM   H18F10499   0.146   3.910   8.627 -1.7465 -2.8213  0.6517
  103OSM   H18G10500   0.276   3.792   8.637 -2.2036  0.0987 -0.6559
  103OSM   H18H10501   0.311   3.955   8.692  2.8984 -2.3718  0.9661
  104OSM      N10502   2.010   3.081  10.977  0.3050 -0.4240 -0.1454
  104OSM    C1510503   1.871   3.061  11.025  0.2083  0.6982 -0.3097
  104OSM   H15A10504   1.809   3.140  10.987  1.5316  2.2862  0.7024
  104OSM   H15B10505   1.869   3.061  11.133  1.8797 -2.0328 -0.1806
  104OSM   H15C10506   1.834   2.964  10.995 -1.4474  0.6314  1.6833
  104OSM    C1410507   2.064   3.204  11.038  0.1782  0.0469 -0.4708
  104OSM   H14A10508   2.165   3.226  11.008 -0.5303  3.3495 -0.8324
  104OSM   H14B10509   2.063   3.189  11.145 -2.3603  1.9408 -0.1367
  104OSM   H14C10510   2.008   3.294  11.019 -2.1167 -0.8221  1.5116
  104OSM    C1310511   2.090   2.967  11.024 -0.0479  1.1138  0.7821
  104OSM   H13A10512   2.054   2.873  10.985  3.5201 -0.4228  0.8268
  104OSM   H13B10513   2.091   2.956  11.132  0.7739  1.4261  0.8094
  104OSM   H13C10514   2.193   2.974  10.992 -0.0839 -3.0505 -0.9573
  104OSM    C1210515   2.024   3.091  10.828 -0.3581 -0.7235  0.1984
  104OSM   H12A10516   2.129   3.108  10.807 -1.0093  1.2228 -1.9638
  104OSM   H12B10517   1.965   3.175  10.793 -0.2911 -1.3282 -1.4358
  104OSM    C1110518   1.975   2.978  10.731 -0.2908 -0.5377  0.1611
  104OSM   H11A10519   1.981   3.003  10.623 -0.3330  0.6555  0.4204
  104OSM   H11B10520   1.867   2.967  10.754 -0.2784 -0.3068  0.3329
  104OSM      P10521   1.997   2.716  10.695 -0.1024 -0.3704 -0.0381
  104OSM    O1310522   2.099   2.611  10.718  0.0592 -0.6751 -0.5955
  104OSM    O1410523   1.859   2.681  10.739  0.6583 -0.1952  1.1670
  104OSM    O1110524   1.992   2.757  10.538  0.3281 -0.0383 -0.1963
  104OSM    O1210525   2.035   2.852  10.763  0.4828  0.1963  0.4741
  104OSM    C1S10526   1.955   2.660  10.441  0.3685 -0.4557 -0.1933
  104OSM    H1S10527   1.845   2.645  10.442  0.0822  1.4261  1.2504
  104OSM    H1T10528   2.004   2.564  10.468 -0.7324 -0.4640  1.9169
  104OSM     NF10529   1.928   2.602  10.201  0.8755 -0.3105  0.2203
  104OSM    HNF10530   1.981   2.528  10.160  0.7853 -0.5999  0.6137
  104OSM    C2S10531   1.998   2.690  10.296 -0.6428  0.1995 -0.0016
  104OSM    H2S10532   1.967   2.790  10.259  0.3413 -0.7372 -3.6883
  104OSM    C3S10533   2.153   2.662  10.279  0.7831  0.2370 -0.8985
  104OSM    H3S10534   2.165   2.553  10.301  2.3769  0.2462 -1.5643
  104OSM     O310535   2.240   2.720  10.374  0.3870  0.2901 -0.5034
  104OSM    HO310536   2.174   2.743  10.440  0.9406  0.9153 -0.1499
  104OSM    C4S10537   2.203   2.691  10.135  0.5269  0.7284  0.5548
  104OSM    H4S10538   2.215   2.602  10.072 -2.0912  1.3966 -1.0894
  104OSM    C5S10539   2.236   2.812  10.084  0.2443 -0.1333 -0.3325
  104OSM    H5S10540   2.247   2.897  10.152 -0.4199  0.2854 -0.7389
  104OSM    C6S10541   2.282   2.837   9.946 -0.1734  0.2605  0.3404
  104OSM    H6S10542   2.321   2.941   9.943  2.5091 -0.6771 -2.0549
  104OSM    H6T10543   2.196   2.839   9.876 -2.1778  1.3765  2.6851
  104OSM    C7S10544   2.397   2.755   9.882  0.0694 -0.0788 -0.6099
  104OSM    H7S10545   2.367   2.648   9.870  0.5949 -0.1744 -1.1143
  104OSM    H7T10546   2.491   2.765   9.938  0.3408  1.9083 -1.3401
  104OSM    C8S10547   2.445   2.811   9.747  0.2912  0.5354 -0.4764
  104OSM    H8S10548   2.556   2.816   9.753  0.7195  0.0029 -4.6775
  104OSM    H8T10549   2.397   2.910   9.735 -1.5697 -0.4829 -1.9555
  104OSM    C9S10550   2.386   2.741   9.621  0.0322 -0.4653  0.6886
  104OSM    H9S10551   2.278   2.764   9.614  0.0487 -0.6598 -0.3918
  104OSM    H9T10552   2.391   2.630   9.614 -2.4926 -0.5424 -0.9038
  104OSM   C10S10553   2.450   2.803   9.491  0.0362  0.5223  0.3826
  104OSM   H10S10554   2.553   2.762   9.497 -0.8437 -1.7840  0.9820
  104OSM   H10T10555   2.435   2.913   9.486 -0.5861  0.4515  0.5858
  104OSM   C11S10556   2.382   2.741   9.365 -0.6026  0.2145  0.6306
  104OSM   H11S10557   2.295   2.807   9.342 -1.1442 -0.8070 -0.3610
  104OSM   H11T10558   2.339   2.641   9.387 -1.3711  0.1192 -1.1346
  104OSM   C12S10559   2.472   2.733   9.243 -0.0815  0.2077  0.2122
  104OSM   H12S10560   2.556   2.664   9.267  0.8643  0.3315 -2.3707
  104OSM   H12T10561   2.522   2.828   9.214  0.4359  0.0066  0.4349
  104OSM   C13S10562   2.389   2.697   9.119 -0.0700 -0.3366 -0.0553
  104OSM   H13S10563   2.292   2.750   9.126  0.4958  0.6487  0.4681
  104OSM   H13T10564   2.368   2.588   9.123  0.6003 -0.5046 -0.8100
  104OSM   C14S10565   2.454   2.739   8.985 -0.1429 -0.9535  0.4110
  104OSM   H14S10566   2.557   2.698   8.990  0.4247  0.4949  1.1367
  104OSM   H14T10567   2.459   2.849   8.994  1.3213 -1.1572  4.4726
  104OSM   C15S10568   2.374   2.692   8.867  0.3220 -1.4350 -0.1919
  104OSM   H15S10569   2.268   2.692   8.902 -0.0392 -0.4021 -1.2121
  104OSM   H15T10570   2.399   2.588   8.836  0.4089 -1.5019  0.1034
  104OSM   C16S10571   2.370   2.777   8.736  0.6378  0.4309 -0.2369
  104OSM   H16S10572   2.476   2.766   8.706  0.6920 -0.5915  0.2771
  104OSM   H16T10573   2.357   2.885   8.757  1.3148  0.3099  0.9245
  104OSM   C17S10574   2.255   2.745   8.641 -0.0077 -0.5647 -0.6068
  104OSM   H17S10575   2.240   2.819   8.559 -2.5485  0.5840  0.7864
  104OSM   H17T10576   2.163   2.761   8.701 -0.3494 -1.5116 -0.8684
  104OSM   C18S10577   2.257   2.609   8.588 -0.1807  0.0160 -0.5517
  104OSM   H18S10578   2.277   2.529   8.662 -0.7605  2.3446  2.3396
  104OSM   H18T10579   2.335   2.608   8.509  0.3526 -2.1714 -0.0607
  104OSM   H18U10580   2.159   2.587   8.540 -0.4363 -0.3098  0.1029
  104OSM    C1F10581   1.798   2.608  10.179  0.3482  0.1677  0.0006
  104OSM     OF10582   1.729   2.700  10.221  0.0161  0.4746  0.7245
  104OSM    C2F10583   1.731   2.479  10.124 -0.3237 -0.5095  0.0201
  104OSM    H2F10584   1.677   2.428  10.206  1.7831 -0.0778  1.7775
  104OSM    H2G10585   1.808   2.408  10.087 -0.7487 -0.4398 -1.0245
  104OSM    C3F10586   1.639   2.522  10.012  0.1574  0.2966  0.9265
  104OSM    H3F10587   1.584   2.613  10.044  0.2127  1.0621 -1.0514
  104OSM    H3G10588   1.565   2.439  10.011  1.8735 -1.2974  0.2410
  104OSM    C4F10589   1.702   2.534   9.875 -1.0698 -0.1732 -0.4743
  104OSM    H4F10590   1.744   2.436   9.844 -2.1159 -0.8915  0.3195
  104OSM    H4G10591   1.790   2.601   9.889 -0.1615 -1.7655  2.0556
  104OSM    C5F10592   1.599   2.581   9.772  0.2742  0.0864  0.7289
  104OSM    H5F10593   1.573   2.689   9.783 -0.6618 -0.0209 -0.2481
  104OSM    H5G10594   1.500   2.532   9.788 -1.3427  2.6261 -0.8089
  104OSM    C6F10595   1.661   2.556   9.638  0.4839  0.4643  0.6208
  104OSM    H6F10596   1.679   2.447   9.621  2.8671  0.7790  0.8141
  104OSM    H6G10597   1.765   2.595   9.634  0.4901  0.4208  0.3345
  104OSM    C7F10598   1.576   2.616   9.527 -0.0520  0.1200 -0.1234
  104OSM    H7F10599   1.555   2.721   9.555 -0.8602 -0.3627  1.1975
  104OSM    H7G10600   1.479   2.561   9.529 -0.2116  0.3621 -0.7912
  104OSM    C8F10601   1.650   2.617   9.396  0.1067  0.0717  0.2034
  104OSM    H8F10602   1.740   2.678   9.416  0.0168 -0.0352  0.9433
  104OSM    H8G10603   1.583   2.670   9.324  0.6048  1.3740  0.6667
  104OSM    C9F10604   1.688   2.483   9.356  0.7946  0.8356 -0.6547
  104OSM    H9F10605   1.722   2.416   9.436  0.3915  1.7937  0.3456
  104OSM   C10F10606   1.670   2.433   9.234 -0.5345 -0.0336  0.3245
  104OSM   H10F10607   1.694   2.327   9.223 -2.5012 -0.4988  0.0314
  104OSM   C11F10608   1.607   2.499   9.117  0.5985  0.2955  0.5528
  104OSM   H11F10609   1.625   2.609   9.108  0.1790  0.2977 -0.3517
  104OSM   H11G10610   1.498   2.486   9.128  0.4917  1.1387  0.6003
  104OSM   C12F10611   1.649   2.435   8.981  0.5917 -0.7420  0.2702
  104OSM   H12F10612   1.620   2.328   8.983 -3.4978  0.1989  1.2615
  104OSM   H12G10613   1.758   2.435   8.958  0.2882 -0.9166 -1.3056
  104OSM   C13F10614   1.585   2.491   8.856  0.3303 -0.8350  0.1903
  104OSM   H13F10615   1.594   2.601   8.853 -1.3781 -0.6767 -0.7918
  104OSM   H13G10616   1.476   2.478   8.876  0.4957  0.3550  2.1094
  104OSM   C14F10617   1.626   2.427   8.728  0.2555  0.7971  0.4458
  104OSM   H14F10618   1.585   2.325   8.715  1.7597  0.3421 -1.0446
  104OSM   H14G10619   1.737   2.420   8.723  0.1801  0.5643 -1.3454
  104OSM   C15F10620   1.578   2.509   8.605 -0.3353 -0.7638 -0.2490
  104OSM   H15F10621   1.627   2.469   8.515  1.0234  2.2612 -0.9835
  104OSM   H15G10622   1.606   2.615   8.625  0.7469 -1.1714  0.4617
  104OSM   C16F10623   1.430   2.506   8.576  0.2472  0.0698 -0.1342
  104OSM   H16F10624   1.366   2.547   8.657  0.8163 -0.6496  0.7091
  104OSM   H16G10625   1.406   2.398   8.570 -0.7233  0.3073 -0.6405
  104OSM   C17F10626   1.392   2.559   8.440 -0.3910  0.3003  0.2926
  104OSM   H17F10627   1.456   2.507   8.365  0.4938  0.7344  0.7363
  104OSM   H17G10628   1.435   2.661   8.441  0.0933  0.2363 -2.9472
  104OSM   C18F10629   1.246   2.552   8.421  0.2151  0.2296  0.4325
  104OSM   H18F10630   1.193   2.587   8.511 -1.7600 -1.0556 -0.1636
  104OSM   H18G10631   1.214   2.449   8.394  0.3456 -0.3043  2.2154
  104OSM   H18H10632   1.216   2.615   8.334 -2.7111 -1.6304 -0.0324
  105OSM      N10633   6.639   6.409  10.832 -0.0914 -0.4219 -0.6989
  105OSM    C1510634   6.667   6.544  10.767  0.0623 -0.0263 -0.1205
  105OSM   H15A10635   6.671   6.628  10.834 -0.8109  1.0923 -1.4249
  105OSM   H15B10636   6.575   6.558  10.712 -0.0750  0.5453  0.2573
  105OSM   H15C10637   6.756   6.527  10.707  1.1273  2.3257  0.6512
  105OSM    C1410638   6.761   6.384  10.921  0.3312  0.5771  0.4501
  105OSM   H14A10639   6.761   6.450  11.007 -1.3959 -0.7406  1.5282
  105OSM   H14B10640   6.857   6.381  10.871  0.0411 -0.3865 -0.0647
  105OSM   H14C10641   6.752   6.289  10.973 -0.0657  0.9933  1.1651
  105OSM    C1310642   6.512   6.419  10.920  0.7555  0.3055  0.0380
  105OSM   H13A10643   6.499   6.515  10.969  0.1104  0.3532 -0.2191
  105OSM   H13B10644   6.506   6.346  10.999  2.3531 -0.8099 -0.8131
  105OSM   H13C10645   6.424   6.404  10.859  1.1838 -0.3660 -0.4229
  105OSM    C1210646   6.633   6.294  10.725  0.4114  0.2879 -0.3787
  105OSM   H12A10647   6.628   6.200  10.778 -0.3888 -0.5957 -1.9627
  105OSM   H12B10648   6.721   6.303  10.664  0.5446 -0.1661 -0.2566
  105OSM    C1110649   6.506   6.287  10.635  0.2489  0.3206 -0.2423
  105OSM   H11A10650   6.522   6.219  10.548  0.8997 -0.4343  0.4430
  105OSM   H11B10651   6.489   6.387  10.590  0.1705 -1.0678 -3.6265
  105OSM      P10652   6.385   6.095  10.757 -0.2954 -0.0983 -0.4067
  105OSM    O1310653   6.521   6.035  10.769  0.3193  0.4867 -0.4062
  105OSM    O1410654   6.304   6.084  10.888 -0.1441  0.5100  0.3110
  105OSM    O1110655   6.316   6.017  10.646  0.0294 -0.2919  0.2108
  105OSM    O1210656   6.396   6.239  10.700 -0.1157  0.2647  0.1827
  105OSM    C1S10657   6.196   6.062  10.581 -0.0342 -0.3192  0.2854
  105OSM    H1S10658   6.147   6.138  10.646  0.0106 -0.8056  0.9052
  105OSM    H1T10659   6.131   5.972  10.570  0.8938 -0.9189 -0.4543
  105OSM     NF10660   6.076   6.193  10.415 -0.0678  0.1334  0.0775
  105OSM    HNF10661   6.007   6.131  10.379  1.0529 -0.5016 -1.0694
  105OSM    C2S10662   6.210   6.127  10.441 -0.0945  0.7465  0.8795
  105OSM    H2S10663   6.288   6.206  10.439  1.1650 -0.4596  0.8758
  105OSM    C3S10664   6.244   6.007  10.352  0.6000 -0.2262  0.9567
  105OSM    H3S10665   6.169   5.927  10.369  0.8479 -0.6525  0.0596
  105OSM     O310666   6.370   5.953  10.391  0.0203 -0.5117  0.0906
  105OSM    HO310667   6.386   5.991  10.478  1.5966  0.0552 -0.4109
  105OSM    C4S10668   6.245   6.045  10.210  0.2073  0.0137  0.4034
  105OSM    H4S10669   6.342   6.068  10.163  0.6330  0.4084  1.4277
  105OSM    C5S10670   6.139   6.058  10.133  0.4489 -0.3705 -0.3641
  105OSM    H5S10671   6.042   6.035  10.181  0.4087 -0.7279 -0.6117
  105OSM    C6S10672   6.144   6.092   9.991  0.1497  0.1963 -0.8142
  105OSM    H6S10673   6.047   6.144   9.970  0.2780  0.1424 -1.5829
  105OSM    H6T10674   6.128   5.998   9.934 -2.3516  0.1071 -0.1045
  105OSM    C7S10675   6.255   6.181   9.925  0.4153  0.1287  0.0598
  105OSM    H7S10676   6.351   6.128   9.940  0.8614  0.7564 -0.5237
  105OSM    H7T10677   6.255   6.278   9.979 -1.2824 -0.9019  2.0548
  105OSM    C8S10678   6.226   6.204   9.770  0.4332  0.5220 -0.6331
  105OSM    H8S10679   6.153   6.287   9.773  3.1988  3.1192  2.9268
  105OSM    H8T10680   6.180   6.116   9.720  0.4292  0.3179 -0.2801
  105OSM    C9S10681   6.346   6.248   9.693 -0.0690  0.0484 -0.9127
  105OSM    H9S10682   6.424   6.169   9.702  0.8827  1.0457 -0.2269
  105OSM    H9T10683   6.393   6.341   9.730  0.3093 -0.3048 -0.4907
  105OSM   C10S10684   6.324   6.275   9.542 -0.3992 -0.2980  0.1614
  105OSM   H10S10685   6.310   6.182   9.482  0.6711 -0.2333 -0.2129
  105OSM   H10T10686   6.417   6.319   9.501 -0.4345 -1.0526 -0.7616
  105OSM   C11S10687   6.215   6.381   9.514 -0.2106 -0.1248 -0.7624
  105OSM   H11S10688   6.231   6.471   9.577 -1.7590  0.0756 -0.6087
  105OSM   H11T10689   6.112   6.342   9.532 -1.0357  0.7449 -3.1542
  105OSM   C12S10690   6.211   6.411   9.368  0.1120  0.2518 -0.2566
  105OSM   H12S10691   6.199   6.321   9.304 -2.1830  0.3589 -0.0740
  105OSM   H12T10692   6.308   6.462   9.354  0.9452 -1.3981 -0.7489
  105OSM   C13S10693   6.095   6.507   9.343  1.2811  0.0536 -0.1052
  105OSM   H13S10694   6.102   6.592   9.414  0.1635  0.2415 -0.2040
  105OSM   H13T10695   5.999   6.459   9.373 -0.2236  1.8519 -1.7961
  105OSM   C14S10696   6.090   6.562   9.197  0.3563  0.2101 -0.3807
  105OSM   H14S10697   5.990   6.596   9.165  0.0630 -0.8617 -0.6417
  105OSM   H14T10698   6.098   6.475   9.129 -0.4489  1.7193 -2.4983
  105OSM   C15S10699   6.204   6.656   9.158 -0.1697 -0.6194 -0.5205
  105OSM   H15S10700   6.298   6.603   9.185 -1.2765 -3.9828 -2.7271
  105OSM   H15T10701   6.194   6.750   9.218  0.0638 -1.8237  1.4972
  105OSM   C16S10702   6.197   6.689   9.011 -0.0632 -0.5874 -0.5390
  105OSM   H16S10703   6.099   6.740   9.002  0.8961  1.5696  0.4899
  105OSM   H16T10704   6.205   6.604   8.939 -0.3633 -1.9895  1.0412
  105OSM   C17S10705   6.297   6.797   8.963 -0.1475 -0.0537  0.0069
  105OSM   H17S10706   6.385   6.747   8.917 -0.8541 -1.0745 -0.2568
  105OSM   H17T10707   6.334   6.857   9.049  0.9718  1.2682 -1.3301
  105OSM   C18S10708   6.246   6.892   8.857  0.0946 -0.2149  0.5812
  105OSM   H18S10709   6.333   6.935   8.803  0.3422 -0.6835  0.6019
  105OSM   H18T10710   6.193   6.970   8.916 -3.7489 -0.5348 -2.0670
  105OSM   H18U10711   6.175   6.847   8.786 -1.0942 -1.1267  2.2715
  105OSM    C1F10712   6.047   6.317  10.457  0.0430  0.6146 -0.4400
  105OSM     OF10713   6.135   6.395  10.492  0.1355 -0.2066 -0.6420
  105OSM    C2F10714   5.898   6.359  10.453 -0.1737  0.6887 -0.0582
  105OSM    H2F10715   5.856   6.359  10.556 -0.0483  0.2842 -0.0050
  105OSM    H2G10716   5.834   6.284  10.402 -0.9571  0.6009  1.0078
  105OSM    C3F10717   5.873   6.482  10.372  0.2479 -0.0436 -0.0303
  105OSM    H3F10718   5.942   6.558  10.413 -0.2505  1.4381 -1.8118
  105OSM    H3G10719   5.770   6.515  10.397 -0.2562 -0.6067 -1.2763
  105OSM    C4F10720   5.900   6.478  10.222  0.5174 -0.1553 -0.4565
  105OSM    H4F10721   5.832   6.395  10.192  0.5930 -1.0269  1.6466
  105OSM    H4G10722   6.003   6.442  10.204 -0.1133 -2.3773  0.0450
  105OSM    C5F10723   5.868   6.607  10.145  0.5062 -0.3478 -0.5678
  105OSM    H5F10724   5.947   6.677  10.178  1.1935 -1.4988  0.3057
  105OSM    H5G10725   5.767   6.642  10.174 -0.1864 -0.5014 -2.6053
  105OSM    C6F10726   5.883   6.588   9.990  0.0131  0.1049  0.1420
  105OSM    H6F10727   5.811   6.513   9.949  2.4683 -1.8546 -0.8836
  105OSM    H6G10728   5.982   6.539   9.977 -0.2843 -0.6609  0.6530
  105OSM    C7F10729   5.884   6.721   9.919  0.8213 -0.2348  0.5608
  105OSM    H7F10730   5.963   6.791   9.953  0.3406  0.1780  0.8371
  105OSM    H7G10731   5.786   6.767   9.946  1.1783  0.4070  0.7931
  105OSM    C8F10732   5.906   6.721   9.771  0.6493 -0.0381  0.2271
  105OSM    H8F10733   5.831   6.659   9.717 -0.7496  2.4578 -0.8775
  105OSM    H8G10734   6.006   6.678   9.748  1.1761  1.6010 -0.7030
  105OSM    C9F10735   5.908   6.859   9.703 -0.9003  0.4162 -0.2423
  105OSM    H9F10736   5.946   6.940   9.767  0.4657  0.4215 -1.0224
  105OSM   C10F10737   5.857   6.883   9.577 -0.9996 -0.0506 -0.4322
  105OSM   H10F10738   5.868   6.985   9.537  1.0060  0.1305  0.4485
  105OSM   C11F10739   5.797   6.783   9.484 -0.1433 -0.9562  0.5530
  105OSM   H11F10740   5.689   6.804   9.474  0.1906  0.2471 -1.0187
  105OSM   H11G10741   5.823   6.684   9.527  0.9437  0.3223  3.0847
  105OSM   C12F10742   5.849   6.796   9.341  0.1991  0.5663  0.1743
  105OSM   H12F10743   5.821   6.702   9.287  0.7764  0.5432 -0.0915
  105OSM   H12G10744   5.960   6.801   9.338  0.4044 -1.4469  2.2017
  105OSM   C13F10745   5.792   6.908   9.256  0.0966  0.1805 -0.9169
  105OSM   H13F10746   5.833   7.008   9.280 -2.7251  1.2581 -0.1327
  105OSM   H13G10747   5.683   6.911   9.277 -0.0443  2.5163 -1.7003
  105OSM   C14F10748   5.809   6.881   9.111  0.5905 -0.1059 -0.7018
  105OSM   H14F10749   5.784   6.775   9.090  1.7224 -0.3090 -1.0862
  105OSM   H14G10750   5.918   6.882   9.089  0.6002  1.9793 -0.8107
  105OSM   C15F10751   5.730   6.973   9.020 -0.3371  0.1691 -0.8707
  105OSM   H15F10752   5.745   7.078   9.054 -2.3648 -0.2731  1.7957
  105OSM   H15G10753   5.628   6.942   9.053  0.0899  1.3685  1.9062
  105OSM   C16F10754   5.758   6.944   8.874  0.1238  0.0729 -0.7284
  105OSM   H16F10755   5.716   6.845   8.845 -1.0778 -0.5847  2.7421
  105OSM   H16G10756   5.868   6.939   8.865  0.2198 -2.0213  0.8504
  105OSM   C17F10757   5.717   7.070   8.785 -0.1066  0.1197 -1.2262
  105OSM   H17F10758   5.743   7.166   8.835 -0.3071 -0.3740 -0.1399
  105OSM   H17G10759   5.606   7.072   8.781 -0.3507 -1.3194  1.9789
  105OSM   C18F10760   5.775   7.057   8.643 -0.9076  0.1409  0.3492
  105OSM   H18F10761   5.725   7.108   8.558 -1.3436 -1.5662 -0.4627
  105OSM   H18G10762   5.776   6.950   8.615  0.0509  0.1561  0.2812
  105OSM   H18H10763   5.881   7.092   8.642 -0.6461 -0.5337 -2.0029
  106OSM      N10764   5.428   5.486  10.678 -1.2584  0.0389  0.5807
  106OSM    C1510765   5.441   5.362  10.599  1.0775  1.3259 -0.5065
  106OSM   H15A10766   5.342   5.322  10.587  1.3083  0.6921 -0.3469
  106OSM   H15B10767   5.514   5.292  10.638 -0.5392 -1.1426 -1.6802
  106OSM   H15C10768   5.481   5.395  10.504  1.5832  0.2074 -0.6942
  106OSM    C1410769   5.566   5.535  10.685 -0.7031 -0.1090 -0.6694
  106OSM   H14A10770   5.602   5.544  10.584 -1.6564  0.0018 -1.0091
  106OSM   H14B10771   5.630   5.466  10.737  0.7826  1.8870  0.2705
  106OSM   H14C10772   5.581   5.629  10.735  1.2612  0.0771 -1.5384
  106OSM    C1310773   5.344   5.587  10.601  0.5016  0.8435  1.1540
  106OSM   H13A10774   5.260   5.534  10.560 -0.2031  2.5538  0.2745
  106OSM   H13B10775   5.398   5.616  10.512 -0.9070 -1.0007 -0.3892
  106OSM   H13C10776   5.308   5.674  10.653 -1.6366  1.1316 -0.6770
  106OSM    C1210777   5.376   5.455  10.815 -0.9222  0.5163 -0.7482
  106OSM   H12A10778   5.364   5.547  10.872 -1.5222 -0.0488  0.0705
  106OSM   H12B10779   5.460   5.406  10.862  0.1481  1.8990 -1.1649
  106OSM    C1110780   5.250   5.373  10.834 -0.7527  0.3021  0.6494
  106OSM   H11A10781   5.235   5.355  10.943 -0.8584  4.3937  1.4419
  106OSM   H11B10782   5.265   5.270  10.795  1.0270  0.3991  1.0126
  106OSM      P10783   5.017   5.364  10.720  0.0110 -0.0338 -0.1250
  106OSM    O1310784   4.952   5.276  10.817  0.0492 -0.2345 -0.4758
  106OSM    O1410785   4.932   5.461  10.650 -0.1542 -0.1409 -0.0072
  106OSM    O1110786   5.095   5.273  10.619 -0.3238  0.1759  0.2044
  106OSM    O1210787   5.139   5.434  10.788 -0.0627  0.3468 -0.5315
  106OSM    C1S10788   5.019   5.196  10.527  0.6475  0.0948  0.0847
  106OSM    H1S10789   4.952   5.259  10.465 -1.2922 -0.1710  1.8203
  106OSM    H1T10790   4.959   5.120  10.581  2.0394 -1.1944 -0.1146
  106OSM     NF10791   5.044   5.070  10.314  0.0415 -0.0602  0.8806
  106OSM    HNF10792   5.037   4.971  10.311 -0.4267 -0.0331  0.9729
  106OSM    C2S10793   5.115   5.121  10.432 -0.4005 -0.1473 -0.4138
  106OSM    H2S10794   5.183   5.204  10.403  0.2723  0.3195  2.2355
  106OSM    C3S10795   5.190   5.016  10.511 -0.2201  0.7599 -0.3884
  106OSM    H3S10796   5.118   4.940  10.548  1.0010 -0.4147 -0.3613
  106OSM     O310797   5.257   5.066  10.627  0.1782  0.8373  0.6328
  106OSM    HO310798   5.211   5.150  10.627 -1.1183  0.1712  0.1793
  106OSM    C4S10799   5.290   4.951  10.426 -0.4687  0.1681 -0.3687
  106OSM    H4S10800   5.375   5.014  10.396  1.5563 -1.3712  1.8238
  106OSM    C5S10801   5.300   4.817  10.391  0.1132  0.3375  0.5820
  106OSM    H5S10802   5.227   4.740  10.421  0.1018 -0.0630 -0.4305
  106OSM    C6S10803   5.409   4.772  10.294  0.0081 -0.5107 -0.7541
  106OSM    H6S10804   5.497   4.735  10.352  0.8692  0.5751 -1.3249
  106OSM    H6T10805   5.448   4.844  10.219 -0.8522 -1.8287 -2.5465
  106OSM    C7S10806   5.378   4.639  10.218 -0.4249  0.1927  0.5478
  106OSM    H7S10807   5.383   4.555  10.289  1.1951 -1.0648 -0.9701
  106OSM    H7T10808   5.466   4.609  10.157 -0.2440  1.2536  0.2574
  106OSM    C8S10809   5.243   4.628  10.150 -0.1048 -0.0813 -0.4073
  106OSM    H8S10810   5.162   4.670  10.213 -0.0179  0.5323 -0.6964
  106OSM    H8T10811   5.221   4.519  10.145  1.2266 -0.3469 -1.1516
  106OSM    C9S10812   5.230   4.687  10.013 -0.0160 -0.1861  0.3347
  106OSM    H9S10813   5.317   4.654   9.952 -0.9254  1.3755 -1.9838
  106OSM    H9T10814   5.250   4.796  10.007 -0.4379 -0.1027  0.3826
  106OSM   C10S10815   5.108   4.633   9.936 -0.4830  0.5895 -0.4577
  106OSM   H10S10816   5.014   4.683   9.967 -1.0127 -1.2699  1.1346
  106OSM   H10T10817   5.100   4.525   9.961  1.0761  1.0581  2.4815
  106OSM   C11S10818   5.116   4.667   9.795 -0.3869 -0.0303  0.0510
  106OSM   H11S10819   5.208   4.616   9.757  1.4441  3.5193 -0.6628
  106OSM   H11T10820   5.143   4.774   9.784  0.6096 -0.2928 -0.1817
  106OSM   C12S10821   4.998   4.625   9.715 -0.3565 -1.2060  0.2136
  106OSM   H12S10822   4.913   4.692   9.743  0.1216  0.2150 -1.4877
  106OSM   H12T10823   4.971   4.523   9.750 -1.3199 -1.1860 -0.4298
  106OSM   C13S10824   5.005   4.635   9.563  0.1834 -1.1425  0.6144
  106OSM   H13S10825   5.052   4.551   9.508  1.3494 -0.5410  0.6651
  106OSM   H13T10826   5.075   4.716   9.535  0.3774 -1.6881 -0.5564
  106OSM   C14S10827   4.859   4.661   9.499  0.5208 -0.4738  0.2524
  106OSM   H14S10828   4.871   4.685   9.391 -1.7177  0.9235  0.2486
  106OSM   H14T10829   4.811   4.742   9.558  2.5093  0.9775 -0.0166
  106OSM   C15S10830   4.769   4.540   9.526 -0.1410 -0.1304  0.3756
  106OSM   H15S10831   4.749   4.542   9.636  0.7899 -0.7669  0.5741
  106OSM   H15T10832   4.829   4.448   9.513 -0.2770 -0.4574  1.8601
  106OSM   C16S10833   4.639   4.527   9.451  0.3384  0.0260 -0.5621
  106OSM   H16S10834   4.567   4.585   9.512 -1.2878 -1.0416 -1.3872
  106OSM   H16T10835   4.607   4.422   9.467  0.3185  0.0626 -0.3601
  106OSM   C17S10836   4.630   4.574   9.307 -0.5489 -0.0315  0.1195
  106OSM   H17S10837   4.724   4.546   9.255  0.5248  0.3478  1.7682
  106OSM   H17T10838   4.619   4.685   9.302  2.1034  0.2861 -0.2472
  106OSM   C18S10839   4.513   4.530   9.218 -0.0798  0.1772 -0.3532
  106OSM   H18S10840   4.414   4.543   9.266  0.1147  2.1800 -0.4021
  106OSM   H18T10841   4.526   4.420   9.214 -1.5152 -0.0653  0.9313
  106OSM   H18U10842   4.526   4.574   9.116  0.4041  1.4673  0.2380
  106OSM    C1F10843   4.995   5.146  10.218 -0.4036  0.7471 -0.4747
  106OSM     OF10844   5.007   5.267  10.214  0.3220  0.1366  0.2809
  106OSM    C2F10845   4.928   5.078  10.111  0.1380  0.1320  0.8278
  106OSM    H2F10846   4.817   5.075  10.121 -0.1128 -0.2378 -1.4948
  106OSM    H2G10847   4.971   4.976  10.101 -1.2000 -0.5021  1.2544
  106OSM    C3F10848   4.946   5.142   9.969 -0.1699 -0.2918  0.3985
  106OSM    H3F10849   5.054   5.161   9.953  0.0203 -1.5913 -0.0513
  106OSM    H3G10850   4.896   5.241   9.975  0.1533  0.1585 -2.8651
  106OSM    C4F10851   4.889   5.066   9.854 -0.5954 -0.6519 -0.9913
  106OSM    H4F10852   4.791   5.020   9.880 -2.6833  2.9996 -1.6804
  106OSM    H4G10853   4.954   4.978   9.838  2.5659  1.6794 -1.9779
  106OSM    C5F10854   4.889   5.136   9.717 -0.2347 -0.6132 -0.0749
  106OSM    H5F10855   4.824   5.226   9.723 -0.6575 -0.9419  0.2861
  106OSM    H5G10856   4.850   5.075   9.633  1.2886 -1.6988 -0.0239
  106OSM    C6F10857   5.021   5.205   9.674  0.2716  0.2232  0.5653
  106OSM    H6F10858   5.087   5.123   9.638 -0.5263  0.2517 -1.0624
  106OSM    H6G10859   5.075   5.259   9.755  0.0578  0.0181  0.8482
  106OSM    C7F10860   4.985   5.301   9.552  0.5484  0.6842  0.0373
  106OSM    H7F10861   4.925   5.388   9.586 -1.1857  0.5642 -2.4667
  106OSM    H7G10862   4.913   5.257   9.479  0.1474  4.6704 -2.2598
  106OSM    C8F10863   5.113   5.347   9.477  0.3125 -0.4406 -0.4610
  106OSM    H8F10864   5.149   5.249   9.438 -1.5672 -1.7457  0.8932
  106OSM    H8G10865   5.180   5.382   9.559  0.3129 -1.6123  0.0639
  106OSM    C9F10866   5.078   5.448   9.369  0.1511 -0.1695 -1.0343
  106OSM    H9F10867   5.037   5.540   9.414  2.4464 -0.1329  1.2044
  106OSM   C10F10868   5.106   5.450   9.240  0.1239 -0.0204 -0.5968
  106OSM   H10F10869   5.066   5.533   9.180  0.9667  0.3728 -0.6357
  106OSM   C11F10870   5.187   5.345   9.164  0.5552  0.1755  0.2138
  106OSM   H11F10871   5.204   5.253   9.224 -3.2384 -0.5560  0.4747
  106OSM   H11G10872   5.281   5.387   9.122  0.2076  1.4147  0.6133
  106OSM   C12F10873   5.108   5.285   9.041  0.0701 -0.5592 -0.8285
  106OSM   H12F10874   5.069   5.373   8.986 -0.2472  0.3742  0.8127
  106OSM   H12G10875   5.016   5.229   9.065 -0.5640  0.4463 -0.8311
  106OSM   C13F10876   5.192   5.209   8.939  0.6943  0.8836  0.0039
  106OSM   H13F10877   5.276   5.161   8.993  1.5081  2.8684  0.5689
  106OSM   H13G10878   5.226   5.278   8.859  0.4738  1.5510  0.4789
  106OSM   C14F10879   5.119   5.094   8.864 -0.1125 -0.6095 -0.2169
  106OSM   H14F10880   5.033   5.129   8.802  1.0728 -0.2993 -1.7339
  106OSM   H14G10881   5.068   5.036   8.944 -0.5778 -1.0203 -0.7952
  106OSM   C15F10882   5.204   5.000   8.776  0.1513 -0.3145  0.8950
  106OSM   H15F10883   5.157   4.927   8.707  1.5680 -0.4321  0.0348
  106OSM   H15G10884   5.258   4.930   8.843 -0.2803 -1.3268  0.2052
  106OSM   C16F10885   5.314   5.065   8.691 -0.3296 -0.4662  0.0544
  106OSM   H16F10886   5.374   5.134   8.754 -0.9691  2.6293 -2.4598
  106OSM   H16G10887   5.258   5.135   8.626 -2.8112 -2.6141 -0.3007
  106OSM   C17F10888   5.403   4.978   8.606  0.4843  0.2574 -0.1094
  106OSM   H17F10889   5.475   5.040   8.548  0.6824 -1.0436 -1.3144
  106OSM   H17G10890   5.354   4.919   8.526  0.4413  1.1970 -0.7883
  106OSM   C18F10891   5.474   4.867   8.687 -0.2072 -0.2735  0.0892
  106OSM   H18F10892   5.539   4.909   8.766 -0.5683 -0.7900  0.6652
  106OSM   H18G10893   5.535   4.791   8.633 -0.4084 -1.0154  0.8923
  106OSM   H18H10894   5.392   4.804   8.728 -0.7051 -2.1150 -3.3311
  107OSM      N10895   0.564   2.788  10.957 -0.1259  0.8170  0.6766
  107OSM    C1510896   0.594   2.792  11.105 -0.0393  0.8115  0.2678
  107OSM   H15A10897   0.606   2.892  11.144  1.1345  0.1032  1.8390
  107OSM   H15B10898   0.691   2.753  11.133  1.0869  2.1508 -1.5843
  107OSM   H15C10899   0.517   2.743  11.164 -1.0109  0.8730 -0.9173
  107OSM    C1410900   0.595   2.652  10.898  0.7047 -0.6380  0.0634
  107OSM   H14A10901   0.696   2.624  10.923  1.0757  1.7283  1.4625
  107OSM   H14B10902   0.589   2.671  10.792  0.9693  1.0178  0.3279
  107OSM   H14C10903   0.528   2.577  10.938  0.2105 -0.9610 -1.3144
  107OSM    C1310904   0.419   2.816  10.947  0.5585  0.2923  0.3281
  107OSM   H13A10905   0.368   2.726  10.977  0.6186 -0.6476 -2.1632
  107OSM   H13B10906   0.382   2.827  10.846 -1.9852 -1.8790  0.9261
  107OSM   H13C10907   0.392   2.914  10.985  0.4537  0.7208 -0.8010
  107OSM    C1210908   0.651   2.891  10.891 -0.5143 -0.0392 -0.2806
  107OSM   H12A10909   0.756   2.868  10.903 -0.0182  2.2930  0.1720
  107OSM   H12B10910   0.639   2.985  10.943 -0.8372 -1.0362  1.5368
  107OSM    C1110911   0.655   2.931  10.746  0.7160 -0.4478 -1.0474
  107OSM   H11A10912   0.724   3.015  10.722 -1.0879  0.4621 -3.6090
  107OSM   H11B10913   0.552   2.968  10.723 -0.0778 -2.3829 -0.7497
  107OSM      P10914   0.830   2.767  10.647 -0.0863 -0.4078 -0.0763
  107OSM    O1310915   0.910   2.755  10.770 -0.0563  0.3333  0.3449
  107OSM    O1410916   0.835   2.645  10.564  0.6359 -0.6829  0.2789
  107OSM    O1110917   0.886   2.893  10.570  0.0651 -0.5730  0.1048
  107OSM    O1210918   0.677   2.810  10.674 -0.0186 -0.1789 -0.3033
  107OSM    C1S10919   1.013   2.874  10.504  0.7125  1.0847 -0.1560
  107OSM    H1S10920   0.991   2.790  10.434  0.4975 -1.7473  3.0667
  107OSM    H1T10921   1.084   2.839  10.582 -0.2660 -2.2355 -0.5957
  107OSM     NF10922   1.186   2.954  10.349  0.0855  0.0025  0.3215
  107OSM    HNF10923   1.264   2.961  10.410 -1.0941 -1.4233  2.1051
  107OSM    C2S10924   1.068   2.995  10.424  0.0978 -0.1552 -0.9223
  107OSM    H2S10925   0.981   3.017  10.359 -0.5265 -0.6245 -0.2676
  107OSM    C3S10926   1.084   3.118  10.521 -0.4134 -0.9975 -0.1193
  107OSM    H3S10927   1.167   3.098  10.591  0.1335  1.1245 -0.1033
  107OSM     O310928   0.974   3.141  10.606 -0.0919 -0.3245  0.5397
  107OSM    HO310929   0.931   3.057  10.588  0.5016 -0.3622 -0.8384
  107OSM    C4S10930   1.105   3.246  10.445 -0.2885 -0.5008 -0.8319
  107OSM    H4S10931   1.018   3.293  10.399  1.0461  0.7922 -2.1655
  107OSM    C5S10932   1.232   3.304  10.442  0.1427  0.0636 -0.3797
  107OSM    H5S10933   1.313   3.265  10.504  0.7726  0.4457 -0.9423
  107OSM    C6S10934   1.252   3.434  10.364  0.1083  0.2321 -0.2023
  107OSM    H6S10935   1.312   3.505  10.426 -1.9302  3.0597 -1.2619
  107OSM    H6T10936   1.160   3.492  10.342  0.2394 -0.4669 -2.9189
  107OSM    C7S10937   1.314   3.420  10.228 -0.4616 -0.3332  0.0328
  107OSM    H7S10938   1.416   3.376  10.231 -0.3242 -0.0167  0.0173
  107OSM    H7T10939   1.324   3.517  10.176  0.3433 -0.7818 -0.6820
  107OSM    C8S10940   1.233   3.316  10.147 -0.1832  1.1074  0.0722
  107OSM    H8S10941   1.209   3.223  10.203 -2.1144  2.8357  2.3731
  107OSM    H8T10942   1.298   3.296  10.059 -0.5586  1.8084 -0.3750
  107OSM    C9S10943   1.106   3.376  10.091  0.5927  0.0115  0.3741
  107OSM    H9S10944   1.117   3.485  10.077 -4.0562  0.4075 -2.6542
  107OSM    H9T10945   1.027   3.379  10.169 -0.1399 -0.4106 -0.3205
  107OSM   C10S10946   1.057   3.316   9.962 -0.7012  0.0996 -0.6426
  107OSM   H10S10947   0.949   3.316   9.936 -0.8344 -0.1586 -0.0979
  107OSM   H10T10948   1.078   3.208   9.967 -1.0842  0.0738  1.1211
  107OSM   C11S10949   1.129   3.369   9.833  0.8487 -0.0612 -0.6439
  107OSM   H11S10950   1.233   3.334   9.845  0.7211 -0.2174  0.0837
  107OSM   H11T10951   1.130   3.480   9.831 -4.0855  0.2154 -0.0887
  107OSM   C12S10952   1.074   3.314   9.696  0.6548  0.0214 -0.2473
  107OSM   H12S10953   0.964   3.330   9.699  0.9874  2.6125  1.3318
  107OSM   H12T10954   1.093   3.205   9.685  2.6656  0.3753 -0.6773
  107OSM   C13S10955   1.120   3.376   9.566 -0.4126 -0.1689 -0.2128
  107OSM   H13S10956   1.231   3.370   9.564 -0.4783 -1.9758 -1.9331
  107OSM   H13T10957   1.106   3.486   9.575  0.1941 -0.0366 -0.8026
  107OSM   C14S10958   1.052   3.316   9.449  0.3068 -0.5008 -0.0884
  107OSM   H14S10959   0.942   3.307   9.462  0.3885  0.4418  1.6427
  107OSM   H14T10960   1.088   3.217   9.416  0.4023  0.0955 -1.8411
  107OSM   C15S10961   1.072   3.407   9.322 -0.0515  0.1810  0.1888
  107OSM   H15S10962   1.181   3.427   9.320  0.2328 -1.2716  0.2463
  107OSM   H15T10963   1.022   3.505   9.334 -0.5632  0.0057 -0.4714
  107OSM   C16S10964   1.029   3.345   9.188 -0.2677  0.0287  0.1269
  107OSM   H16S10965   0.919   3.358   9.176 -0.1922  0.3588 -0.2370
  107OSM   H16T10966   1.058   3.238   9.185 -0.9114 -0.1296 -1.0613
  107OSM   C17S10967   1.086   3.393   9.056 -0.0648  0.0778  0.2104
  107OSM   H17S10968   1.195   3.379   9.043 -0.1938  2.0176 -6.3934
  107OSM   H17T10969   1.073   3.503   9.048  0.4301  0.1215 -0.0525
  107OSM   C18S10970   1.030   3.325   8.929  0.0884 -0.0724  0.1795
  107OSM   H18S10971   1.053   3.217   8.939  1.0390  0.1633  0.6078
  107OSM   H18T10972   1.080   3.372   8.842 -2.6518  2.8661  0.0021
  107OSM   H18U10973   0.922   3.349   8.919 -0.4905 -2.1700  0.8050
  107OSM    C1F10974   1.184   2.862  10.248 -0.3173  0.8584  1.0213
  107OSM     OF10975   1.083   2.801  10.220  0.1428  0.3794  0.1161
  107OSM    C2F10976   1.321   2.831  10.179  0.7663 -0.9062 -0.1589
  107OSM    H2F10977   1.320   2.737  10.119  1.4261 -0.4947 -0.8365
  107OSM    H2G10978   1.402   2.823  10.255  2.2463 -2.2446 -1.7818
  107OSM    C3F10979   1.355   2.938  10.078 -0.2925  0.7871  0.5483
  107OSM    H3F10980   1.392   3.026  10.134 -0.0435 -0.5019  2.5235
  107OSM    H3G10981   1.266   2.963  10.017 -1.1251  2.2177  2.2576
  107OSM    C4F10982   1.474   2.886   9.992 -0.0202 -0.3012 -0.6220
  107OSM    H4F10983   1.471   2.776   9.978 -1.6775 -0.2673 -0.7853
  107OSM    H4G10984   1.561   2.908  10.057  0.1070  2.9783 -1.7311
  107OSM    C5F10985   1.480   2.952   9.855 -1.0939  0.3379  0.2219
  107OSM    H5F10986   1.588   2.947   9.828 -0.6262 -0.0393  2.0066
  107OSM    H5G10987   1.464   3.062   9.867 -2.4575  0.2894 -0.8711
  107OSM    C6F10988   1.383   2.906   9.752 -0.0885 -0.4579 -0.1392
  107OSM    H6F10989   1.284   2.916   9.803 -0.2820  2.9670 -0.9463
  107OSM    H6G10990   1.400   2.801   9.722  2.4868  0.0405 -0.6180
  107OSM    C7F10991   1.375   2.995   9.621  0.2225  0.4798 -0.4385
  107OSM    H7F10992   1.473   2.974   9.574  0.2421 -0.5183  0.0179
  107OSM    H7G10993   1.365   3.104   9.640  0.0486  0.1974  1.2731
  107OSM    C8F10994   1.281   2.954   9.503 -0.1818  0.1062  0.3256
  107OSM    H8F10995   1.174   2.957   9.535  0.4221 -0.6854  2.6462
  107OSM    H8G10996   1.300   2.846   9.490  2.2352  0.7101 -1.9519
  107OSM    C9F10997   1.309   3.037   9.378 -0.2783 -0.3525  0.4733
  107OSM    H9F10998   1.323   3.145   9.396 -1.0302  0.3969 -2.7419
  107OSM   C10F10999   1.335   2.997   9.253 -0.8563  0.6791 -0.1935
  107OSM   H10F11000   1.350   3.073   9.175  2.1012 -0.0804 -0.4992
  107OSM   C11F11001   1.347   2.856   9.195 -0.5621 -0.4301  0.0495
  107OSM   H11F11002   1.250   2.801   9.190 -0.7091 -0.2507  0.8428
  107OSM   H11G11003   1.416   2.793   9.255 -2.2182 -0.4924  2.0138
  107OSM   C12F11004   1.405   2.864   9.054  0.8259  0.7588 -0.1340
  107OSM   H12F11005   1.446   2.766   9.021  1.9464  0.5638  1.7230
  107OSM   H12G11006   1.492   2.934   9.053  0.4181  1.3082 -2.0076
  107OSM   C13F11007   1.309   2.902   8.943 -0.0381  0.3064  0.2272
  107OSM   H13F11008   1.267   3.002   8.966 -1.4045 -0.3399  0.6446
  107OSM   H13G11009   1.230   2.824   8.949  2.4639 -2.3203  1.2249
  107OSM   C14F11010   1.373   2.900   8.806 -0.5105 -0.2201 -0.1505
  107OSM   H14F11011   1.423   2.803   8.784  1.2979  1.2698 -3.1554
  107OSM   H14G11012   1.450   2.980   8.804 -0.7846  0.0301 -0.9089
  107OSM   C15F11013   1.264   2.904   8.706  0.3236  0.8951  0.4006
  107OSM   H15F11014   1.219   3.005   8.709 -0.6150  0.5636 -1.2518
  107OSM   H15G11015   1.188   2.826   8.726 -0.5554  1.0758 -1.9385
  107OSM   C16F11016   1.307   2.905   8.560  0.4995 -0.6772 -1.2006
  107OSM   H16F11017   1.225   2.905   8.485  0.8172 -1.8082 -1.5630
  107OSM   H16G11018   1.367   2.811   8.551  1.3627 -0.1195 -1.3626
  107OSM   C17F11019   1.396   3.028   8.518 -0.0222  0.0201 -0.4191
  107OSM   H17F11020   1.487   3.036   8.581 -0.6786 -0.1702  0.5707
  107OSM   H17G11021   1.332   3.116   8.541 -0.8813 -0.2262 -1.7742
  107OSM   C18F11022   1.431   3.035   8.369 -0.1780  0.7855  0.3162
  107OSM   H18F11023   1.496   3.124   8.356  2.5155 -1.2635 -1.2956
  107OSM   H18G11024   1.336   3.049   8.313  0.8206 -1.0698 -2.0419
  107OSM   H18H11025   1.491   2.945   8.343  0.0383  0.8149  0.7262
  108OSM      N11026   4.368   3.272  11.011  0.1676  0.1447  0.0451
  108OSM    C1511027   4.278   3.368  10.935 -0.1200  0.4036  0.5902
  108OSM   H15A11028   4.255   3.331  10.836 -0.1619  0.4456  0.5839
  108OSM   H15B11029   4.335   3.455  10.905  3.0267 -1.8739 -0.6647
  108OSM   H15C11030   4.184   3.390  10.983 -2.0665 -0.9286 -2.3193
  108OSM    C1411031   4.422   3.345  11.133  0.2917 -0.2026  0.5939
  108OSM   H14A11032   4.333   3.361  11.192  0.9341 -1.2351  1.9046
  108OSM   H14B11033   4.480   3.433  11.111 -1.0112  0.3936 -0.5934
  108OSM   H14C11034   4.476   3.273  11.194  0.0490  0.1565  1.2402
  108OSM    C1311035   4.280   3.156  11.065  0.4823 -0.1912  0.5849
  108OSM   H13A11036   4.199   3.195  11.125  0.4059 -0.0010  0.3610
  108OSM   H13B11037   4.342   3.091  11.126 -0.7697 -0.8076  1.2491
  108OSM   H13C11038   4.237   3.095  10.987 -0.0480  1.2045 -0.2495
  108OSM    C1211039   4.478   3.218  10.915 -0.9622  0.3660 -0.4199
  108OSM   H12A11040   4.437   3.169  10.828  1.8817 -2.5703 -0.3000
  108OSM   H12B11041   4.540   3.150  10.973 -0.4842  1.4921  0.4275
  108OSM    C1111042   4.579   3.316  10.853 -0.1846 -0.9559  0.0367
  108OSM   H11A11043   4.665   3.253  10.821  0.4609 -0.6094  1.0705
  108OSM   H11B11044   4.620   3.390  10.924 -1.2883 -0.2834 -0.0035
  108OSM      P11045   4.543   3.504  10.676 -0.6519 -0.4405 -0.0883
  108OSM    O1311046   4.495   3.507  10.541  0.0722 -0.5165  0.2331
  108OSM    O1411047   4.492   3.602  10.774  0.1284  0.2637 -0.1718
  108OSM    O1111048   4.706   3.516  10.676  0.2351  0.4997  0.4114
  108OSM    O1211049   4.512   3.363  10.735 -0.1528 -1.2651  0.4136
  108OSM    C1S11050   4.778   3.439  10.582 -0.0690 -0.1960  0.5523
  108OSM    H1S11051   4.714   3.371  10.523 -1.1336  0.7220  0.5982
  108OSM    H1T11052   4.867   3.393  10.630  1.3688  2.2107  0.3941
  108OSM     NF11053   4.886   3.433  10.368 -0.2358 -0.4995 -0.0079
  108OSM    HNF11054   4.983   3.418  10.384  0.0135  0.7066 -0.2461
  108OSM    C2S11055   4.833   3.527  10.465 -0.2927 -0.0318  0.4158
  108OSM    H2S11056   4.747   3.579  10.417  0.1809 -0.7796 -1.3240
  108OSM    C3S11057   4.929   3.622  10.529  0.0263 -0.0280  0.1438
  108OSM    H3S11058   5.002   3.559  10.583  2.4070  2.8841  0.5600
  108OSM     O311059   4.871   3.716  10.618  0.1236  0.0034 -0.0892
  108OSM    HO311060   4.802   3.662  10.656  0.7353 -0.2858  0.6245
  108OSM    C4S11061   5.006   3.696  10.420 -0.6759 -0.5279  1.0038
  108OSM    H4S11062   5.082   3.629  10.377 -1.2813 -1.2935  1.1235
  108OSM    C5S11063   4.999   3.825  10.369  0.3835  0.8794  0.0812
  108OSM    H5S11064   4.923   3.894  10.407  1.4504  2.0335  0.2068
  108OSM    C6S11065   5.085   3.881  10.268  0.4870  0.0718 -0.1694
  108OSM    H6S11066   5.181   3.902  10.321 -0.7582  1.6285  1.6005
  108OSM    H6T11067   5.046   3.984  10.250  2.0022  1.3035  2.8709
  108OSM    C7S11068   5.109   3.812  10.136  0.0555  0.2159  1.3925
  108OSM    H7S11069   5.008   3.796  10.092  0.3076  0.6585  0.6278
  108OSM    H7T11070   5.166   3.719  10.158  0.4764 -0.4653 -2.0365
  108OSM    C8S11071   5.185   3.906  10.041  0.1648 -0.5494 -0.6725
  108OSM    H8S11072   5.286   3.915  10.086 -1.2525  1.1121  2.4529
  108OSM    H8T11073   5.147   4.010  10.044 -1.2811 -1.0743 -0.0291
  108OSM    C9S11074   5.209   3.846   9.905  0.2591 -0.6664  0.0308
  108OSM    H9S11075   5.251   3.748   9.935 -0.0410 -0.4634  1.2060
  108OSM    H9T11076   5.288   3.902   9.851 -3.1612  0.8767 -3.8745
  108OSM   C10S11077   5.079   3.844   9.827  0.7251 -0.4427 -0.4831
  108OSM   H10S11078   5.038   3.947   9.822  2.2544  0.4357  2.6402
  108OSM   H10T11079   5.007   3.778   9.879  0.5059  0.9882  1.1064
  108OSM   C11S11080   5.105   3.781   9.690  0.0922 -0.4462  0.4637
  108OSM   H11S11081   5.152   3.681   9.702 -0.5008 -0.7284  0.4741
  108OSM   H11T11082   5.189   3.836   9.643  0.9587 -2.2823 -0.2072
  108OSM   C12S11083   4.982   3.770   9.605  1.0114 -0.0100  0.2458
  108OSM   H12S11084   4.930   3.867   9.589 -2.1254 -1.4874  0.7587
  108OSM   H12T11085   4.914   3.703   9.662  1.8162 -1.8851 -0.8879
  108OSM   C13S11086   5.024   3.717   9.466  0.0013 -0.5539  0.3118
  108OSM   H13S11087   5.039   3.608   9.458 -0.1092 -0.6061  0.7359
  108OSM   H13T11088   5.124   3.759   9.444 -1.2682  1.7376 -1.6402
  108OSM   C14S11089   4.944   3.785   9.352  0.0469  0.5040 -0.2704
  108OSM   H14S11090   4.923   3.894   9.362 -0.7105  0.4570 -1.1820
  108OSM   H14T11091   4.855   3.720   9.338  0.1477 -0.0723  1.5061
  108OSM   C15S11092   5.005   3.770   9.210 -1.3396 -0.2775  0.1107
  108OSM   H15S11093   5.043   3.666   9.199 -1.5764 -0.2345 -1.3140
  108OSM   H15T11094   5.090   3.841   9.205 -2.8545  1.6034 -0.2620
  108OSM   C16S11095   4.913   3.818   9.096 -0.0039  0.2568 -0.6132
  108OSM   H16S11096   4.887   3.925   9.115 -0.6968  0.2774 -1.5595
  108OSM   H16T11097   4.812   3.771   9.108  0.4478 -1.1944 -2.1330
  108OSM   C17S11098   4.962   3.793   8.952 -0.2908 -0.4770 -0.1446
  108OSM   H17S11099   4.984   3.685   8.932  1.3264 -0.2502  0.2525
  108OSM   H17T11100   5.064   3.837   8.940 -1.4274  1.9494 -1.6964
  108OSM   C18S11101   4.863   3.847   8.848 -0.4595 -0.3132 -0.6887
  108OSM   H18S11102   4.762   3.807   8.871 -1.2513  0.9019 -1.8752
  108OSM   H18T11103   4.893   3.820   8.744  0.1434 -0.4926 -0.4715
  108OSM   H18U11104   4.876   3.957   8.860  2.3056 -0.2422 -3.0358
  108OSM    C1F11105   4.813   3.351  10.290 -0.1495 -0.5869  0.0957
  108OSM     OF11106   4.700   3.380  10.276 -0.2310 -0.0028 -0.0620
  108OSM    C2F11107   4.885   3.238  10.222  0.8192 -0.4284  0.5870
  108OSM    H2F11108   4.836   3.141  10.242 -0.6281 -0.2183 -1.6360
  108OSM    H2G11109   4.992   3.233  10.251  1.1951  1.1622 -0.4202
  108OSM    C3F11110   4.879   3.265  10.071  0.1035  0.5597  0.1382
  108OSM    H3F11111   4.774   3.270  10.036 -0.4746 -3.5212  0.7247
  108OSM    H3G11112   4.927   3.181  10.017  2.7026  2.3681 -0.5807
  108OSM    C4F11113   4.960   3.386  10.025 -0.0875 -0.0254 -0.4448
  108OSM    H4F11114   5.069   3.373  10.038 -0.4184 -2.1229  0.6798
  108OSM    H4G11115   4.921   3.470  10.087  2.2360 -0.3138  1.5883
  108OSM    C5F11116   4.929   3.429   9.879  0.1858  0.2094 -0.3671
  108OSM    H5F11117   4.959   3.536   9.884 -1.8338  0.7953  2.6979
  108OSM    H5G11118   4.820   3.440   9.861 -0.3545 -2.3887  0.9263
  108OSM    C6F11119   4.981   3.327   9.774  0.7712  0.1351  0.2176
  108OSM    H6F11120   4.955   3.222   9.797  1.6234 -0.6785 -2.1758
  108OSM    H6G11121   5.092   3.329   9.771  0.8365 -1.7328  0.5712
  108OSM    C7F11122   4.917   3.347   9.636  0.4556  0.2043  0.6878
  108OSM    H7F11123   4.892   3.455   9.627 -0.9027 -0.0480  1.2050
  108OSM    H7G11124   4.818   3.296   9.638  0.6064 -0.0535  2.4839
  108OSM    C8F11125   5.018   3.318   9.524 -0.4810 -0.8995 -0.2998
  108OSM    H8F11126   5.115   3.357   9.561 -1.6930  0.9168  1.1137
  108OSM    H8G11127   4.990   3.372   9.432  3.1967  1.7189 -0.0926
  108OSM    C9F11128   5.028   3.168   9.489  0.1176 -0.4141  0.5510
  108OSM    H9F11129   5.027   3.095   9.572  1.9939 -2.5891 -1.1888
  108OSM   C10F11130   5.026   3.121   9.361  0.4308  0.1449  0.1082
  108OSM   H10F11131   5.005   3.014   9.346 -1.2246  0.2628  1.3441
  108OSM   C11F11132   5.030   3.193   9.231  0.1498  0.6420 -0.0905
  108OSM   H11F11133   5.065   3.297   9.250  0.8370  0.2859  0.6400
  108OSM   H11G11134   4.929   3.212   9.188 -1.1552 -1.6701  1.7349
  108OSM   C12F11135   5.111   3.122   9.123 -0.6899  0.1355 -0.0768
  108OSM   H12F11136   5.082   3.015   9.130 -1.6823  0.4872  1.7037
  108OSM   H12G11137   5.220   3.125   9.144 -0.2955 -1.5391 -1.6288
  108OSM   C13F11138   5.079   3.168   8.979  0.8779  0.3804 -0.5928
  108OSM   H13F11139   5.084   3.279   8.975  2.5044  0.3680  0.4895
  108OSM   H13G11140   4.970   3.154   8.959  0.8736 -0.6729  0.1156
  108OSM   C14F11141   5.171   3.099   8.873 -0.0909  0.1177  0.0573
  108OSM   H14F11142   5.273   3.130   8.904  0.5104 -0.3744 -1.3613
  108OSM   H14G11143   5.149   3.145   8.775  3.2175 -1.6644 -1.6848
  108OSM   C15F11144   5.147   2.949   8.865 -0.3301  0.4479  0.4217
  108OSM   H15F11145   5.037   2.934   8.867 -0.1858 -0.9587 -0.8790
  108OSM   H15G11146   5.190   2.881   8.942  0.6258 -1.2346 -1.5169
  108OSM   C16F11147   5.206   2.902   8.734  0.4284 -0.0706 -0.4025
  108OSM   H16F11148   5.317   2.899   8.740  0.3755 -2.7729  0.9114
  108OSM   H16G11149   5.177   2.973   8.654 -1.7462 -1.2306 -0.7253
  108OSM   C17F11150   5.155   2.768   8.687  1.1884 -0.6580 -0.2432
  108OSM   H17F11151   5.047   2.768   8.664  1.1207 -3.5106 -0.2396
  108OSM   H17G11152   5.188   2.683   8.751  4.8105 -0.8634 -2.0741
  108OSM   C18F11153   5.224   2.740   8.553  0.0974  1.2899 -0.5043
  108OSM   H18F11154   5.197   2.815   8.476 -0.4812  1.4974 -0.1084
  108OSM   H18G11155   5.192   2.641   8.515 -0.1186  1.9086 -1.9828
  108OSM   H18H11156   5.335   2.743   8.556  0.4514 -2.5197 -2.9015
  109OSM      N11157   2.998   1.483  10.974 -0.1040 -0.5001 -0.3909
  109OSM    C1511158   3.112   1.566  11.035  0.0620 -0.1755 -0.3691
  109OSM   H15A11159   3.088   1.647  11.101 -0.0076 -1.2800  1.0002
  109OSM   H15B11160   3.176   1.606  10.957  1.2948 -1.3717 -0.0055
  109OSM   H15C11161   3.172   1.503  11.099 -0.3260 -0.4321 -0.2557
  109OSM    C1411162   3.065   1.356  10.923  0.0727  0.6267 -0.2397
  109OSM   H14A11163   3.135   1.317  10.995 -3.3253 -0.3656  2.8820
  109OSM   H14B11164   3.107   1.356  10.824 -1.3517 -1.3393 -0.9032
  109OSM   H14C11165   2.982   1.287  10.912 -0.0650  0.1917  2.6909
  109OSM    C1311166   2.913   1.440  11.086 -0.1285 -0.4812  0.4726
  109OSM   H13A11167   2.870   1.526  11.135 -0.0032 -0.6780  0.9259
  109OSM   H13B11168   2.981   1.396  11.158  0.2918  0.9999  1.0156
  109OSM   H13C11169   2.840   1.367  11.054  0.1789 -0.5087 -0.2018
  109OSM    C1211170   2.912   1.552  10.869 -0.6586  0.3450  0.0287
  109OSM   H12A11171   2.860   1.631  10.921  2.4248 -0.0422  4.1540
  109OSM   H12B11172   2.830   1.490  10.836 -0.3200  0.7408 -1.6353
  109OSM    C1111173   2.972   1.605  10.744  0.2385 -0.3128  0.1010
  109OSM   H11A11174   2.893   1.657  10.685 -0.2463 -1.0804  0.0614
  109OSM   H11B11175   3.016   1.528  10.678 -2.8460 -1.1438 -1.1811
  109OSM      P11176   3.035   1.855  10.783  0.1748  0.2799  0.0960
  109OSM    O1311177   2.902   1.862  10.835 -0.1681 -0.6118 -0.1255
  109OSM    O1411178   3.135   1.912  10.877 -0.3269  0.1373 -0.7015
  109OSM    O1111179   3.042   1.922  10.647  0.0266 -0.0650 -0.3004
  109OSM    O1211180   3.078   1.703  10.766  0.0627  0.0610 -0.3449
  109OSM    C1S11181   3.152   1.902  10.558 -0.3760 -0.1836  0.5064
  109OSM    H1S11182   3.126   1.825  10.483  2.3327  0.0836 -0.8181
  109OSM    H1T11183   3.247   1.866  10.602  0.2261  0.9842  0.2067
  109OSM     NF11184   3.271   2.001  10.357 -0.3692  0.1290 -0.1798
  109OSM    HNF11185   3.369   2.020  10.368 -0.4863  0.5398  0.1883
  109OSM    C2S11186   3.191   2.033  10.475 -0.5985 -0.0864 -0.3723
  109OSM    H2S11187   3.088   2.057  10.440 -3.5568 -4.1596  4.1267
  109OSM    C3S11188   3.258   2.141  10.559  0.4842  0.1982 -0.3838
  109OSM    H3S11189   3.356   2.099  10.590  1.1706 -0.9334 -3.6693
  109OSM     O311190   3.188   2.175  10.675 -0.8762 -0.3610 -0.7088
  109OSM    HO311191   3.121   2.107  10.683 -1.3976  0.2331  0.2111
  109OSM    C4S11192   3.274   2.267  10.470 -0.1541  0.0254  1.1866
  109OSM    H4S11193   3.371   2.268  10.419 -1.1215  2.1493 -0.7807
  109OSM    C5S11194   3.186   2.369  10.445  0.0557  0.6414  0.6648
  109OSM    H5S11195   3.086   2.361  10.492 -0.0842  0.7631  0.3932
  109OSM    C6S11196   3.213   2.479  10.349  0.1447  0.3383 -0.2789
  109OSM    H6S11197   3.251   2.561  10.414  1.8442  0.0333 -0.8291
  109OSM    H6T11198   3.114   2.509  10.309  1.4428  1.8977 -2.5725
  109OSM    C7S11199   3.307   2.453  10.228  0.0247 -0.0783  0.0119
  109OSM    H7S11200   3.266   2.369  10.168  0.0481 -0.6399  0.7616
  109OSM    H7T11201   3.402   2.424  10.278 -0.0557  1.9035  1.4497
  109OSM    C8S11202   3.339   2.580  10.148 -0.2885 -0.0922 -0.4983
  109OSM    H8S11203   3.358   2.666  10.215  1.5443 -2.9535  2.9734
  109OSM    H8T11204   3.242   2.606  10.101 -1.4569  0.6024  2.1339
  109OSM    C9S11205   3.426   2.564  10.025 -0.2648  0.3993  0.3278
  109OSM    H9S11206   3.397   2.478   9.962 -0.9030  0.5073  0.4756
  109OSM    H9T11207   3.526   2.547  10.072 -1.4805  2.0145  3.8877
  109OSM   C10S11208   3.432   2.682   9.934  0.2231  0.3208  0.2307
  109OSM   H10S11209   3.492   2.758   9.989  1.3480  0.8210 -1.5977
  109OSM   H10T11210   3.330   2.724   9.935  0.8165  1.8277  0.7720
  109OSM   C11S11211   3.477   2.646   9.794 -0.6135 -0.3668  0.1064
  109OSM   H11S11212   3.572   2.588   9.803 -1.3723 -1.8387 -0.8838
  109OSM   H11T11213   3.501   2.736   9.734 -1.7195 -0.1991 -0.1104
  109OSM   C12S11214   3.385   2.588   9.694 -0.3103  0.5746  0.4515
  109OSM   H12S11215   3.323   2.510   9.744  1.1810 -1.3088 -0.5210
  109OSM   H12T11216   3.449   2.553   9.611 -2.2787 -1.5175 -0.2911
  109OSM   C13S11217   3.280   2.684   9.641  0.8679 -0.4083  0.5208
  109OSM   H13S11218   3.336   2.773   9.605 -2.1652  2.0309  1.4424
  109OSM   H13T11219   3.209   2.725   9.715  2.5296  2.6615  0.5607
  109OSM   C14S11220   3.192   2.633   9.520 -0.3849  0.1828 -0.1146
  109OSM   H14S11221   3.126   2.718   9.493  0.7350  0.6108 -1.6426
  109OSM   H14T11222   3.145   2.544   9.565  0.1031 -0.0757 -0.1042
  109OSM   C15S11223   3.276   2.596   9.402 -0.8968  0.1493 -0.7107
  109OSM   H15S11224   3.220   2.517   9.347  1.4612 -2.2525  0.1579
  109OSM   H15T11225   3.375   2.554   9.428 -0.0715  2.2883 -0.1315
  109OSM   C16S11226   3.294   2.715   9.302  0.4105  0.7438  0.3560
  109OSM   H16S11227   3.350   2.798   9.348  1.6409  1.0887 -1.6346
  109OSM   H16T11228   3.196   2.753   9.265  0.7738 -1.0883 -2.9050
  109OSM   C17S11229   3.360   2.674   9.168  0.9156 -0.1475  0.7556
  109OSM   H17S11230   3.470   2.669   9.185  1.3860  3.2733 -0.3791
  109OSM   H17T11231   3.349   2.760   9.098  0.6907  1.7284  2.9718
  109OSM   C18S11232   3.301   2.552   9.089 -0.6386 -0.1398  0.0351
  109OSM   H18S11233   3.194   2.568   9.062 -0.3801  0.5715 -0.5959
  109OSM   H18T11234   3.318   2.460   9.150 -1.5001 -1.4182 -1.5669
  109OSM   H18U11235   3.362   2.542   8.996 -0.2024 -1.1181  0.4122
  109OSM    C1F11236   3.225   1.944  10.247  0.0809 -0.0057 -0.0228
  109OSM     OF11237   3.110   1.904  10.240  0.1763 -0.5520 -0.1207
  109OSM    C2F11238   3.327   1.929  10.140 -0.0502 -0.4566 -0.1916
  109OSM    H2F11239   3.333   1.821  10.116 -2.6383 -0.5191 -0.8478
  109OSM    H2G11240   3.431   1.954  10.172 -0.1090  0.1145 -0.4289
  109OSM    C3F11241   3.279   1.990  10.007 -0.3708 -0.9954  0.2525
  109OSM    H3F11242   3.183   1.944   9.974  0.3815 -2.1720 -0.3639
  109OSM    H3G11243   3.359   1.974   9.931 -0.8648  3.4168 -1.4752
  109OSM    C4F11244   3.256   2.142  10.008 -0.2654  0.1228  0.2919
  109OSM    H4F11245   3.334   2.187  10.072  1.8967 -0.2833 -1.9412
  109OSM    H4G11246   3.156   2.168  10.050 -0.0719 -1.3563  1.7857
  109OSM    C5F11247   3.267   2.211   9.870 -0.1739  0.2098 -0.0832
  109OSM    H5F11248   3.369   2.193   9.829  0.1706 -0.9988  1.2305
  109OSM    H5G11249   3.264   2.322   9.878  0.3406  0.3058 -1.0720
  109OSM    C6F11250   3.146   2.181   9.780  0.3890  0.2097 -0.4339
  109OSM    H6F11251   3.057   2.182   9.846  1.9030  0.6708  1.7147
  109OSM    H6G11252   3.148   2.072   9.757 -2.6454  0.0290 -0.1899
  109OSM    C7F11253   3.132   2.270   9.656  0.3322  0.2273  0.5099
  109OSM    H7F11254   3.225   2.262   9.597 -0.8950  0.2791 -1.5358
  109OSM    H7G11255   3.121   2.377   9.683 -0.3316  0.4227 -0.4485
  109OSM    C8F11256   3.022   2.220   9.556  0.0339  0.0447  0.2433
  109OSM    H8F11257   2.917   2.230   9.591 -0.1825  2.1139 -0.8383
  109OSM    H8G11258   3.037   2.111   9.539  0.1949  0.3666 -1.9776
  109OSM    C9F11259   3.034   2.290   9.427  0.2339 -0.6229  0.3178
  109OSM    H9F11260   3.001   2.394   9.419 -0.6448 -0.9564 -0.6268
  109OSM   C10F11261   3.083   2.238   9.312  0.2515 -0.9286  0.1470
  109OSM   H10F11262   3.082   2.306   9.225 -0.2864  1.3230  1.8135
  109OSM   C11F11263   3.136   2.101   9.291 -0.7892 -0.1288 -0.0893
  109OSM   H11F11264   3.166   2.052   9.386 -0.7519 -0.7427 -0.4113
  109OSM   H11G11265   3.236   2.104   9.242 -1.2858 -1.9451 -1.3185
  109OSM   C12F11266   3.064   2.002   9.199 -0.6919  0.0847 -0.2036
  109OSM   H12F11267   2.956   2.002   9.221 -0.6861 -0.2529 -0.1808
  109OSM   H12G11268   3.104   1.903   9.228  0.9625  0.0391 -2.3268
  109OSM   C13F11269   3.097   2.029   9.050 -0.0997 -0.0694  0.1466
  109OSM   H13F11270   3.079   1.933   8.997 -0.4990  0.3953 -0.5847
  109OSM   H13G11271   3.205   2.047   9.030 -0.7737  0.9305 -3.5287
  109OSM   C14F11272   2.992   2.127   8.978 -0.2859  0.3595  0.3080
  109OSM   H14F11273   2.997   2.225   9.030 -0.1218  0.1008  0.7860
  109OSM   H14G11274   2.890   2.084   8.984 -0.7459  0.5305 -3.7064
  109OSM   C15F11275   3.025   2.138   8.826 -0.2067  0.3679 -0.5191
  109OSM   H15F11276   2.943   2.178   8.764  1.8741  2.5390 -2.0239
  109OSM   H15G11277   3.047   2.038   8.782 -0.9777  0.9779 -2.3535
  109OSM   C16F11278   3.146   2.235   8.803 -0.0239  0.5079  0.3115
  109OSM   H16F11279   3.230   2.216   8.873  0.9977  1.3562 -0.6425
  109OSM   H16G11280   3.119   2.339   8.832 -0.2007  0.0805  1.7868
  109OSM   C17F11281   3.202   2.233   8.660 -0.0977  0.0018 -0.4489
  109OSM   H17F11282   3.128   2.252   8.580 -0.1825  2.2913  0.1147
  109OSM   H17G11283   3.245   2.131   8.653  0.0210 -0.0855  1.1041
  109OSM   C18F11284   3.310   2.342   8.629  0.5936 -0.5869 -0.6229
  109OSM   H18F11285   3.353   2.316   8.530 -0.9186 -1.1296 -1.1679
  109OSM   H18G11286   3.389   2.348   8.707 -0.1471 -1.0789  0.1943
  109OSM   H18H11287   3.253   2.437   8.631  0.5383 -0.6077 -1.0992
  110OSM      N11288   0.069   2.146  10.772  0.0780 -0.6909  0.2598
  110OSM    C1511289   0.082   2.155  10.918  0.2115  0.2107 -0.0718
  110OSM   H15A11290  -0.012   2.141  10.968 -0.6537  0.8953 -1.4528
  110OSM   H15B11291   0.094   2.258  10.947  2.6121 -0.4231  1.5783
  110OSM   H15C11292   0.160   2.092  10.959 -1.0308 -2.3133 -1.3585
  110OSM    C1411293   0.206   2.160  10.721 -0.0324 -0.3341  0.3002
  110OSM   H14A11294   0.244   2.261  10.730  1.1409 -0.5657 -1.5673
  110OSM   H14B11295   0.222   2.125  10.620 -0.0264  1.8264 -0.5239
  110OSM   H14C11296   0.273   2.097  10.777  1.4418  0.7605 -0.1331
  110OSM    C1311297   0.017   2.016  10.735  0.9554  0.0308  0.3010
  110OSM   H13A11298  -0.007   2.000  10.631  1.3899  0.6623  0.0954
  110OSM   H13B11299  -0.073   1.990  10.788  2.2882 -0.3170  2.4916
  110OSM   H13C11300   0.088   1.938  10.758  0.1890 -1.6703 -2.5280
  110OSM    C1211301  -0.018   2.255  10.719  0.2820  0.6821 -0.9849
  110OSM   H12A11302  -0.112   2.253  10.773  0.7579  1.8869 -0.0619
  110OSM   H12B11303  -0.043   2.235  10.616 -1.9439  1.6377 -0.7017
  110OSM    C1111304   0.038   2.402  10.722 -0.3687 -0.9941 -0.2709
  110OSM   H11A11305  -0.040   2.475  10.695 -0.7153 -1.0142  0.6482
  110OSM   H11B11306   0.113   2.410  10.640 -0.4715 -1.2258 -0.3887
  110OSM      P11307   0.228   2.509  10.866  0.2251  0.3341 -0.0854
  110OSM    O1311308   0.232   2.586  10.992 -0.5853  0.0579  0.5219
  110OSM    O1411309   0.329   2.403  10.843 -0.1881 -0.0933 -0.0615
  110OSM    O1111310   0.215   2.609  10.750 -0.3179 -0.2655  0.3614
  110OSM    O1211311   0.076   2.444  10.854 -0.2860 -0.6134 -0.3693
  110OSM    C1S11312   0.308   2.606  10.642 -0.0462  0.4215  0.5958
  110OSM    H1S11313   0.322   2.501  10.608 -0.4313  0.6954 -0.4535
  110OSM    H1T11314   0.411   2.637  10.668  1.4468 -4.7475  1.8265
  110OSM     NF11315   0.346   2.670  10.412 -0.5861 -0.2244  0.3760
  110OSM    HNF11316   0.412   2.740  10.385 -1.8889  0.4568 -1.2486
  110OSM    C2S11317   0.266   2.690  10.518  0.0259  0.5447 -0.1492
  110OSM    H2S11318   0.162   2.662  10.491  0.6261 -1.3089 -0.6443
  110OSM    C3S11319   0.258   2.840  10.561  1.0009  0.5841 -0.5027
  110OSM    H3S11320   0.363   2.871  10.579  0.6633  0.9358  0.9963
  110OSM     O311321   0.192   2.865  10.688  0.0976 -0.5718 -0.1619
  110OSM    HO311322   0.159   2.777  10.711 -2.1904  0.0672 -0.7127
  110OSM    C4S11323   0.208   2.933  10.452  0.1010  0.1105 -0.0984
  110OSM    H4S11324   0.294   2.984  10.405  0.7761 -1.2313 -0.3752
  110OSM    C5S11325   0.082   2.972  10.433 -0.1991  0.1955  0.0458
  110OSM    H5S11326   0.002   2.936  10.500  0.3425 -1.1618 -0.0107
  110OSM    C6S11327   0.037   3.074  10.330  0.3163 -0.1958  0.1022
  110OSM    H6S11328   0.063   3.170  10.379  0.8701  1.0749 -2.5199
  110OSM    H6T11329  -0.074   3.069  10.328  0.1352  2.6208 -2.1164
  110OSM    C7S11330   0.089   3.053  10.189  0.2254 -0.1498 -0.1532
  110OSM    H7S11331   0.040   2.961  10.151 -1.3051 -2.0085  5.4016
  110OSM    H7T11332   0.199   3.039  10.181  0.4475  0.4791  1.4872
  110OSM    C8S11333   0.060   3.167  10.094 -0.4022 -0.0788 -0.0940
  110OSM    H8S11334   0.095   3.260  10.144  0.3425  0.5098 -1.6455
  110OSM    H8T11335  -0.048   3.175  10.071 -0.3705 -2.7040 -1.4937
  110OSM    C9S11336   0.109   3.137   9.952 -0.0987  0.2690  0.4101
  110OSM    H9S11337   0.074   3.036   9.920 -0.6427  0.9856 -1.4131
  110OSM    H9T11338   0.217   3.116   9.964  1.0725  2.2030 -4.6128
  110OSM   C10S11339   0.096   3.251   9.848  0.1390  0.5369 -0.8680
  110OSM   H10S11340   0.162   3.334   9.881 -1.7615  2.8539 -2.5487
  110OSM   H10T11341  -0.007   3.291   9.837 -1.7645 -2.8480  2.2782
  110OSM   C11S11342   0.143   3.210   9.706  0.5837 -0.4572 -0.4425
  110OSM   H11S11343   0.101   3.111   9.682  1.2335 -1.3017  1.6794
  110OSM   H11T11344   0.253   3.205   9.699  0.6183  0.5412 -0.8396
  110OSM   C12S11345   0.075   3.306   9.610  0.1061 -0.3781 -0.4763
  110OSM   H12S11346   0.082   3.412   9.643  0.0499 -0.0820 -1.3877
  110OSM   H12T11347  -0.035   3.291   9.603  0.2542 -1.1550 -1.2549
  110OSM   C13S11348   0.141   3.285   9.478  0.1701  0.1365  0.1402
  110OSM   H13S11349   0.129   3.178   9.451  0.2536  0.3312 -0.6965
  110OSM   H13T11350   0.251   3.297   9.489  0.0911 -0.5774  2.0855
  110OSM   C14S11351   0.084   3.368   9.365  0.4918  0.5389  0.5444
  110OSM   H14S11352   0.131   3.468   9.367  0.3115  0.7351 -1.6656
  110OSM   H14T11353  -0.026   3.370   9.382  0.7056  0.4591  2.0831
  110OSM   C15S11354   0.106   3.315   9.225 -0.4973 -0.3732  0.3254
  110OSM   H15S11355   0.049   3.221   9.215  0.4215 -0.7322 -2.2171
  110OSM   H15T11356   0.210   3.280   9.207 -1.1209 -2.3557  0.3831
  110OSM   C16S11357   0.057   3.418   9.117  0.4215 -0.3850  0.1425
  110OSM   H16S11358   0.087   3.383   9.016 -3.3459  1.6280 -1.8773
  110OSM   H16T11359   0.106   3.516   9.135  0.2330 -0.1911 -0.3799
  110OSM   C17S11360  -0.096   3.437   9.112 -0.3902  0.2718 -0.2925
  110OSM   H17S11361  -0.135   3.478   9.207  1.0023  0.4594  0.2324
  110OSM   H17T11362  -0.130   3.331   9.109  1.9797 -0.5741 -0.2659
  110OSM   C18S11363  -0.135   3.523   8.990  0.1492  0.1248 -1.2142
  110OSM   H18S11364  -0.238   3.497   8.956 -0.9388  0.9505  1.2488
  110OSM   H18T11365  -0.062   3.498   8.910  2.2696 -0.5659  0.8276
  110OSM   H18U11366  -0.115   3.629   9.017 -1.6184  0.1898  0.0164
  110OSM    C1F11367   0.337   2.567  10.332  0.2701  0.1215 -0.2213
  110OSM     OF11368   0.258   2.478  10.349 -0.0863 -0.2740  0.0727
  110OSM    C2F11369   0.446   2.561  10.233 -0.4413  0.1244  0.4491
  110OSM    H2F11370   0.499   2.464  10.243  1.3035  0.7232 -1.9627
  110OSM    H2G11371   0.520   2.642  10.251 -1.0462  0.9633 -0.6413
  110OSM    C3F11372   0.387   2.568  10.089 -0.3600 -0.1165  0.1473
  110OSM    H3F11373   0.311   2.490  10.068 -1.4754  1.0534 -0.2819
  110OSM    H3G11374   0.472   2.548  10.020  0.3022 -0.1887  0.9677
  110OSM    C4F11375   0.336   2.707  10.054 -0.4218  0.2995  0.1943
  110OSM    H4F11376   0.402   2.780  10.105  0.8659 -0.4097 -0.4061
  110OSM    H4G11377   0.232   2.711  10.093 -0.8672  0.4109 -0.9807
  110OSM    C5F11378   0.329   2.743   9.900 -0.2332 -0.6501 -0.2238
  110OSM    H5F11379   0.433   2.753   9.862 -0.6788  1.8767 -1.0004
  110OSM    H5G11380   0.289   2.846   9.887 -0.8984 -0.8017  0.5598
  110OSM    C6F11381   0.249   2.656   9.798 -0.1641  0.0504 -0.7275
  110OSM    H6F11382   0.142   2.646   9.823  0.5936 -1.1512  2.4408
  110OSM    H6G11383   0.281   2.550   9.800 -0.7068 -0.1039  1.8005
  110OSM    C7F11384   0.266   2.719   9.658  1.0904 -0.1577 -0.8173
  110OSM    H7F11385   0.362   2.775   9.661  0.4388  0.9466 -0.0011
  110OSM    H7G11386   0.189   2.798   9.653 -1.1854 -2.1720  0.5957
  110OSM    C8F11387   0.239   2.611   9.550  0.0991 -0.3792  0.2341
  110OSM    H8F11388   0.130   2.589   9.556 -0.2892  0.4724 -2.5047
  110OSM    H8G11389   0.286   2.513   9.574  0.1403 -0.1753  1.0089
  110OSM    C9F11390   0.283   2.662   9.410  0.8281 -0.2863 -0.1691
  110OSM    H9F11391   0.303   2.770   9.409 -0.0074 -0.1314 -0.7886
  110OSM   C10F11392   0.303   2.584   9.296  0.7595  0.0588 -0.8065
  110OSM   H10F11393   0.325   2.639   9.204  0.9584  2.3166  0.5000
  110OSM   C11F11394   0.284   2.439   9.275  0.0666 -0.5111 -0.1436
  110OSM   H11F11395   0.239   2.388   9.363 -3.1925  0.3886 -1.1556
  110OSM   H11G11396   0.382   2.389   9.259  1.9819  3.2242 -1.2151
  110OSM   C12F11397   0.196   2.418   9.148 -0.0282  0.5428 -0.1264
  110OSM   H12F11398   0.194   2.307   9.142  0.8507  0.5636 -1.1057
  110OSM   H12G11399   0.257   2.449   9.060  1.2372 -0.9140  0.1959
  110OSM   C13F11400   0.054   2.483   9.148 -0.2333 -0.0210  0.5350
  110OSM   H13F11401   0.053   2.593   9.137 -2.5424  0.1771  1.9038
  110OSM   H13G11402   0.007   2.470   9.248 -0.3206 -2.9406  0.2040
  110OSM   C14F11403  -0.038   2.406   9.054 -0.4246  0.4705 -0.9240
  110OSM   H14F11404  -0.141   2.441   9.080  0.5825  2.1938  1.0986
  110OSM   H14G11405  -0.033   2.296   9.065  2.6638  0.6196  0.2172
  110OSM   C15F11406  -0.010   2.429   8.903  0.1713 -0.1269 -0.1462
  110OSM   H15F11407  -0.061   2.347   8.849 -0.2389 -0.4807  0.7473
  110OSM   H15G11408   0.101   2.429   8.894  0.2264 -1.1447  0.3535
  110OSM   C16F11409  -0.063   2.564   8.856 -0.7796 -0.0973  0.4956
  110OSM   H16F11410  -0.068   2.642   8.935  0.8173  4.3141 -3.3421
  110OSM   H16G11411  -0.170   2.557   8.827 -0.0117 -2.5992 -2.2558
  110OSM   C17F11412   0.030   2.624   8.750 -0.2107 -0.3859  0.2868
  110OSM   H17F11413   0.044   2.545   8.673  1.5593 -1.2314  1.4206
  110OSM   H17G11414   0.130   2.636   8.795 -0.6825  1.0693  1.0115
  110OSM   C18F11415  -0.012   2.766   8.693  0.1656  0.1687 -0.8110
  110OSM   H18F11416   0.071   2.807   8.632 -0.0189  2.2282  0.2292
  110OSM   H18G11417  -0.021   2.837   8.778 -0.8665  0.4324 -1.1284
  110OSM   H18H11418  -0.107   2.764   8.636  0.3412  0.1804 -1.1056
  111OSM      N11419   6.424   5.655  10.641 -0.3723  0.9301  0.6370
  111OSM    C1511420   6.518   5.707  10.745 -0.3271 -0.3732  0.1503
  111OSM   H15A11421   6.521   5.815  10.739  0.6090 -0.4688 -2.7100
  111OSM   H15B11422   6.617   5.668  10.725  0.3411  1.0865  0.4747
  111OSM   H15C11423   6.487   5.677  10.844 -1.7144 -1.9791 -0.7205
  111OSM    C1411424   6.481   5.672  10.507  0.2834  0.6725  0.2783
  111OSM   H14A11425   6.506   5.774  10.482  0.7113 -0.0318 -2.4823
  111OSM   H14B11426   6.428   5.622  10.428 -0.3147 -2.2404  2.3535
  111OSM   H14C11427   6.575   5.618  10.501  1.5361  2.8126 -0.6784
  111OSM    C1311428   6.409   5.509  10.658  0.4767  0.0254 -0.3234
  111OSM   H13A11429   6.509   5.470  10.654  0.8305  0.8936 -0.0759
  111OSM   H13B11430   6.346   5.466  10.581  1.3214 -0.0586 -0.9893
  111OSM   H13C11431   6.369   5.491  10.757  0.1090 -0.5531 -0.5714
  111OSM    C1211432   6.285   5.729  10.650 -0.3702  0.4001  0.7390
  111OSM   H12A11433   6.217   5.706  10.570  1.2283 -0.2230 -0.4947
  111OSM   H12B11434   6.311   5.833  10.631  2.0821 -0.3321 -0.3226
  111OSM    C1111435   6.212   5.711  10.779 -0.0972 -0.0809 -0.7178
  111OSM   H11A11436   6.127   5.782  10.789 -0.4254 -0.3105 -1.8131
  111OSM   H11B11437   6.274   5.725  10.870 -0.8508  1.4480 -0.4065
  111OSM      P11438   6.021   5.532  10.720 -0.1235  0.1599 -0.2969
  111OSM    O1311439   6.051   5.390  10.693  0.0021 -0.3427  0.2501
  111OSM    O1411440   5.917   5.569  10.819  0.4213  1.0685 -0.0038
  111OSM    O1111441   6.005   5.607  10.583  0.0738 -0.6543 -0.0615
  111OSM    O1211442   6.164   5.580  10.786  0.4909  0.3078 -0.0517
  111OSM    C1S11443   5.896   5.700  10.568  0.6979 -0.2591  0.0215
  111OSM    H1S11444   5.931   5.799  10.607 -1.4626  0.3403  0.5480
  111OSM    H1T11445   5.809   5.662  10.624  2.3150 -2.7332  0.9993
  111OSM     NF11446   5.753   5.822  10.396 -0.7649 -0.2929 -0.2475
  111OSM    HNF11447   5.659   5.790  10.390 -1.4073  1.2974  0.5716
  111OSM    C2S11448   5.851   5.716  10.417 -0.2412  0.7365 -0.9566
  111OSM    H2S11449   5.943   5.744  10.360 -1.0363  1.4170 -1.9348
  111OSM    C3S11450   5.788   5.576  10.368 -0.0611 -0.1735  0.2012
  111OSM    H3S11451   5.700   5.559  10.433 -0.5358  1.1590 -0.0575
  111OSM     O311452   5.859   5.461  10.397 -0.3422 -0.1879 -1.0473
  111OSM    HO311453   5.926   5.488  10.461 -0.9537 -2.3168  0.6330
  111OSM    C4S11454   5.752   5.578  10.221  0.0385  0.0455  0.3477
  111OSM    H4S11455   5.646   5.605  10.211  0.9888  3.2192 -3.3382
  111OSM    C5S11456   5.825   5.544  10.110  0.5792  0.4936 -0.2273
  111OSM    H5S11457   5.922   5.494  10.123  0.9422  0.6587 -1.9435
  111OSM    C6S11458   5.775   5.550   9.968  0.5242 -0.3547  0.5062
  111OSM    H6S11459   5.669   5.581   9.964  0.5297 -0.3961 -0.1447
  111OSM    H6T11460   5.775   5.447   9.925  0.3614  0.1588 -0.7879
  111OSM    C7S11461   5.853   5.643   9.876  0.2110 -0.0100 -0.1998
  111OSM    H7S11462   5.962   5.635   9.894 -0.2906 -2.4960  2.3861
  111OSM    H7T11463   5.824   5.750   9.887  1.5653  0.3779 -0.1949
  111OSM    C8S11464   5.812   5.599   9.733  0.1460 -0.6669 -0.7646
  111OSM    H8S11465   5.703   5.619   9.727  0.1997 -0.1186 -0.0662
  111OSM    H8T11466   5.827   5.489   9.728  1.4579 -0.6986  1.9966
  111OSM    C9S11467   5.891   5.678   9.628 -0.4617 -0.2606 -0.3835
  111OSM    H9S11468   5.997   5.661   9.656 -1.0083 -1.4408  1.1360
  111OSM    H9T11469   5.886   5.786   9.603  0.8121 -0.0169  0.3260
  111OSM   C10S11470   5.887   5.605   9.490 -0.3355  0.1030  0.2931
  111OSM   H10S11471   5.782   5.618   9.456 -0.3926 -0.4133  0.2547
  111OSM   H10T11472   5.898   5.495   9.504 -1.6618  0.0084  0.7129
  111OSM   C11S11473   5.964   5.667   9.375 -0.5897 -0.1922 -0.3067
  111OSM   H11S11474   6.072   5.668   9.404 -0.8399  0.1139  0.6677
  111OSM   H11T11475   5.916   5.766   9.371 -2.2388 -0.9330  0.3928
  111OSM   C12S11476   5.956   5.600   9.236  0.7184  0.5520 -0.1561
  111OSM   H12S11477   5.981   5.492   9.226 -0.8055 -0.0129  1.6114
  111OSM   H12T11478   6.029   5.647   9.166 -0.7503  0.9896 -1.4398
  111OSM   C13S11479   5.815   5.628   9.167  0.3148  0.4733  0.1000
  111OSM   H13S11480   5.798   5.738   9.165  0.9975  0.6019  0.8464
  111OSM   H13T11481   5.728   5.581   9.216 -1.5405  2.1963 -1.3665
  111OSM   C14S11482   5.822   5.568   9.025  0.0515  0.0152  0.1136
  111OSM   H14S11483   5.840   5.459   9.024 -1.8014 -0.3465  1.2361
  111OSM   H14T11484   5.908   5.617   8.974  1.0281 -1.4836  0.2595
  111OSM   C15S11485   5.698   5.597   8.941  0.0807  0.1480  0.7773
  111OSM   H15S11486   5.700   5.699   8.896 -2.6331  0.0240  0.2369
  111OSM   H15T11487   5.606   5.610   9.002  1.3145  2.9833  2.1975
  111OSM   C16S11488   5.682   5.496   8.824 -0.5974  0.1726 -1.0801
  111OSM   H16S11489   5.767   5.479   8.756 -0.3139  0.3595 -0.7757
  111OSM   H16T11490   5.596   5.540   8.768 -1.2398 -0.0738 -0.3041
  111OSM   C17S11491   5.644   5.359   8.870  1.1924  1.0092 -0.1878
  111OSM   H17S11492   5.725   5.320   8.936 -1.7652 -1.4909  2.2406
  111OSM   H17T11493   5.642   5.298   8.777 -0.3520  1.5386 -0.5176
  111OSM   C18S11494   5.509   5.361   8.939  0.7321  0.2658  0.5429
  111OSM   H18S11495   5.504   5.435   9.021  0.4327  1.3149 -0.3917
  111OSM   H18T11496   5.486   5.262   8.983 -1.0269  0.2045 -0.4264
  111OSM   H18U11497   5.424   5.380   8.870 -0.2145 -1.7647  1.0798
  111OSM    C1F11498   5.771   5.950  10.409 -0.5400 -0.4703  0.9174
  111OSM     OF11499   5.888   5.983  10.447  0.8010 -0.4955  0.1918
  111OSM    C2F11500   5.655   6.041  10.390 -0.3308 -0.5650 -0.1006
  111OSM    H2F11501   5.687   6.139  10.433 -0.2904 -1.1432  1.2323
  111OSM    H2G11502   5.566   6.010  10.448 -1.5914  0.0899 -1.6042
  111OSM    C3F11503   5.614   6.054  10.241  0.0603 -0.4087  0.1155
  111OSM    H3F11504   5.517   6.106  10.233 -0.4345 -1.4202 -0.7466
  111OSM    H3G11505   5.603   5.953  10.196  0.3664  0.2207 -1.4373
  111OSM    C4F11506   5.723   6.115  10.153 -0.3590  0.0532 -0.3727
  111OSM    H4F11507   5.805   6.044  10.131  0.8487  1.5517 -0.9192
  111OSM    H4G11508   5.761   6.210  10.196  1.3205 -0.9381  0.3982
  111OSM    C5F11509   5.673   6.164  10.011 -1.1466 -0.3171  0.1514
  111OSM    H5F11510   5.607   6.249  10.038  1.0925  1.1375  1.3822
  111OSM    H5G11511   5.614   6.087   9.958  0.5938 -2.6534  1.4279
  111OSM    C6F11512   5.790   6.212   9.922 -0.0308  0.1435 -0.0383
  111OSM    H6F11513   5.842   6.117   9.898 -2.2044 -1.2958  0.6005
  111OSM    H6G11514   5.865   6.276   9.973 -0.4671  0.1436  0.6149
  111OSM    C7F11515   5.741   6.271   9.790 -0.3094 -0.7133  1.0036
  111OSM    H7F11516   5.684   6.362   9.818  0.0581  0.0755 -0.6835
  111OSM    H7G11517   5.689   6.195   9.728  1.2390 -0.7028 -0.3678
  111OSM    C8F11518   5.870   6.322   9.704  0.5325  0.4759  0.0085
  111OSM    H8F11519   5.929   6.230   9.687  0.2200  0.6778 -2.4232
  111OSM    H8G11520   5.935   6.392   9.760  0.7302  0.2626  0.0488
  111OSM    C9F11521   5.828   6.388   9.578  0.3654 -0.6300  0.2941
  111OSM    H9F11522   5.818   6.497   9.587  1.4832 -0.3223 -1.5327
  111OSM   C10F11523   5.793   6.317   9.471 -0.6623  0.0197 -0.4515
  111OSM   H10F11524   5.756   6.371   9.383 -2.7358 -0.4848  0.0619
  111OSM   C11F11525   5.800   6.166   9.452  0.4431  0.0030  0.0048
  111OSM   H11F11526   5.720   6.129   9.384  0.8698 -0.3725 -0.3015
  111OSM   H11G11527   5.773   6.123   9.552 -0.4726  1.3642  0.3703
  111OSM   C12F11528   5.932   6.124   9.393 -0.3992 -0.3767 -0.8495
  111OSM   H12F11529   5.922   6.014   9.396  1.0885 -0.5208  1.4704
  111OSM   H12G11530   6.017   6.153   9.458 -0.4571  2.1873 -1.7764
  111OSM   C13F11531   5.963   6.164   9.249  0.0785  0.3096 -0.2979
  111OSM   H13F11532   6.074   6.164   9.240  0.1206  2.0143 -0.1879
  111OSM   H13G11533   5.947   6.273   9.230  0.0404  1.1989  3.8388
  111OSM   C14F11534   5.893   6.071   9.154 -0.5682  0.1897 -0.3982
  111OSM   H14F11535   5.783   6.069   9.170 -0.6133  0.4458 -0.6684
  111OSM   H14G11536   5.916   5.964   9.172  2.9709  0.4877 -2.2386
  111OSM   C15F11537   5.929   6.094   9.011  0.8783 -0.5289  0.4596
  111OSM   H15F11538   5.919   6.203   8.991 -1.1642 -0.9760 -1.2893
  111OSM   H15G11539   5.845   6.049   8.954 -0.3060 -0.0902  1.7978
  111OSM   C16F11540   6.067   6.044   8.965  0.0286  0.1564  0.0949
  111OSM   H16F11541   6.055   5.933   8.970  4.5777 -0.5412  0.0530
  111OSM   H16G11542   6.139   6.067   9.046 -0.4007 -3.6431  1.8101
  111OSM   C17F11543   6.105   6.112   8.835 -0.6978  0.2774  0.6334
  111OSM   H17F11544   6.203   6.080   8.791 -1.5068 -0.4259 -0.7500
  111OSM   H17G11545   6.110   6.221   8.855 -2.1104  0.6375 -0.7921
  111OSM   C18F11546   6.002   6.104   8.716  0.1048  0.1164 -0.0246
  111OSM   H18F11547   6.040   6.167   8.633 -0.8533 -0.2146 -0.7360
  111OSM   H18G11548   5.901   6.135   8.752  1.1421  0.3692  2.9727
  111OSM   H18H11549   5.994   5.996   8.691  3.7425 -0.5393  1.0841
  112OSM      N11550   5.966   2.518  11.221 -0.3488 -0.4686  0.3593
  112OSM    C1511551   6.070   2.561  11.120 -0.1502  0.6516 -0.3000
  112OSM   H15A11552   6.028   2.552  11.021 -0.6543 -1.9971  0.0804
  112OSM   H15B11553   6.156   2.499  11.139 -1.1024 -0.3390  1.0088
  112OSM   H15C11554   6.107   2.662  11.131 -2.0552  1.3261  0.3080
  112OSM    C1411555   5.927   2.376  11.191 -0.2388  0.8063 -0.0877
  112OSM   H14A11556   6.015   2.313  11.192 -0.9380 -0.2021  1.0413
  112OSM   H14B11557   5.875   2.369  11.096 -1.0745 -0.6631  0.4417
  112OSM   H14C11558   5.853   2.342  11.261 -1.0489 -0.4606 -1.4987
  112OSM    C1311559   6.036   2.515  11.350 -0.5353  0.1028 -0.7811
  112OSM   H13A11560   6.098   2.602  11.362 -1.0719  0.4653 -0.5507
  112OSM   H13B11561   6.104   2.432  11.361 -0.5849  0.1657  0.0714
  112OSM   H13C11562   5.975   2.510  11.440  1.0046 -3.1303  0.2500
  112OSM    C1211563   5.851   2.614  11.223  0.3663  0.2775  0.1750
  112OSM   H12A11564   5.896   2.706  11.256  0.8629 -0.4276  1.5762
  112OSM   H12B11565   5.781   2.577  11.297 -1.1103  0.5633 -1.0367
  112OSM    C1111566   5.763   2.638  11.091 -0.0050 -0.3807  0.6033
  112OSM   H11A11567   5.836   2.678  11.017  1.8174 -2.0209  1.4198
  112OSM   H11B11568   5.672   2.699  11.111 -0.5038 -0.8284 -0.2475
  112OSM      P11569   5.588   2.433  11.044  0.2818  0.6591  0.3588
  112OSM    O1311570   5.608   2.313  10.955 -0.0010 -0.3556  0.7165
  112OSM    O1411571   5.543   2.394  11.180 -0.3613 -0.0902  0.2042
  112OSM    O1111572   5.481   2.542  10.987 -0.5414 -0.4431  0.1018
  112OSM    O1211573   5.723   2.508  11.048 -0.1729  0.3524  0.2356
  112OSM    C1S11574   5.513   2.625  10.870  0.2258  0.0758 -0.4861
  112OSM    H1S11575   5.619   2.644  10.844 -0.2027 -0.4431 -2.9401
  112OSM    H1T11576   5.460   2.718  10.899  0.6303  0.3776 -0.7157
  112OSM     NF11577   5.482   2.665  10.626  0.3040  0.2147 -0.3407
  112OSM    HNF11578   5.407   2.727  10.605 -1.3134 -0.5726  2.5798
  112OSM    C2S11579   5.450   2.574  10.732  1.0164 -0.0322  0.0069
  112OSM    H2S11580   5.497   2.475  10.714 -1.2747 -1.2874  0.4939
  112OSM    C3S11581   5.295   2.549  10.741 -0.8243  0.0705  0.1738
  112OSM    H3S11582   5.252   2.642  10.785 -0.6049  0.7254 -0.9629
  112OSM     O311583   5.255   2.438  10.832 -0.2923 -1.0831 -0.1507
  112OSM    HO311584   5.321   2.445  10.901  0.9595 -2.0479 -1.2170
  112OSM    C4S11585   5.248   2.524  10.599  0.1274 -0.2419  0.0711
  112OSM    H4S11586   5.191   2.612  10.566  1.9463  1.5585  1.4654
  112OSM    C5S11587   5.258   2.412  10.519 -0.1583  0.0334  0.3561
  112OSM    H5S11588   5.305   2.324  10.566  1.4745  0.5494 -0.2312
  112OSM    C6S11589   5.205   2.391  10.382 -0.3790 -0.0608  0.0016
  112OSM    H6S11590   5.127   2.313  10.396 -1.2251  0.8592  0.4853
  112OSM    H6T11591   5.285   2.339  10.325 -1.5337 -1.6297 -0.2565
  112OSM    C7S11592   5.140   2.504  10.308  0.7678 -0.7414  0.1399
  112OSM    H7S11593   5.209   2.591  10.311  1.3195 -1.1994  2.1157
  112OSM    H7T11594   5.043   2.525  10.359  0.0103  0.1523 -1.5510
  112OSM    C8S11595   5.106   2.466  10.163 -0.4860 -0.4481  0.0983
  112OSM    H8S11596   5.034   2.540  10.121  0.1544  0.4912  0.6031
  112OSM    H8T11597   5.058   2.366  10.162  0.5780 -0.9772  0.5099
  112OSM    C9S11598   5.222   2.476  10.066 -0.6126  0.0929 -0.0138
  112OSM    H9S11599   5.312   2.435  10.116 -0.0466  0.1448 -0.9578
  112OSM    H9T11600   5.247   2.584  10.064  1.3131 -0.3187  0.2149
  112OSM   C10S11601   5.203   2.422   9.926  0.5287 -0.3804 -0.6499
  112OSM   H10S11602   5.105   2.456   9.887 -0.8718 -2.6146  0.7064
  112OSM   H10T11603   5.194   2.312   9.930 -0.4348 -0.2763  2.7280
  112OSM   C11S11604   5.320   2.468   9.841  0.0011  0.4847  0.1436
  112OSM   H11S11605   5.412   2.439   9.896  0.3415 -0.3425 -0.8286
  112OSM   H11T11606   5.316   2.579   9.831 -1.0856  0.6240  1.8231
  112OSM   C12S11607   5.348   2.408   9.703  0.5982 -0.3462  0.6824
  112OSM   H12S11608   5.253   2.436   9.651  1.0186  2.7775  1.4335
  112OSM   H12T11609   5.355   2.297   9.708 -0.9252 -0.5108  0.0253
  112OSM   C13S11610   5.476   2.456   9.638 -0.6039 -0.4075  0.6797
  112OSM   H13S11611   5.570   2.422   9.685  0.3280 -0.8174 -1.3605
  112OSM   H13T11612   5.470   2.566   9.628 -0.6495 -0.3540  1.3060
  112OSM   C14S11613   5.489   2.399   9.487 -0.2665  0.9024 -0.6502
  112OSM   H14S11614   5.480   2.290   9.507  2.0237  0.7080 -0.3013
  112OSM   H14T11615   5.596   2.427   9.471 -0.4445  2.1829  0.2607
  112OSM   C15S11616   5.392   2.457   9.393  0.2184  0.4553  0.2096
  112OSM   H15S11617   5.441   2.548   9.353  0.0478  0.6389  0.4156
  112OSM   H15T11618   5.293   2.488   9.433  0.1019 -0.9370  1.0995
  112OSM   C16S11619   5.351   2.355   9.286  0.0178 -0.0015  0.3954
  112OSM   H16S11620   5.285   2.282   9.338  0.6391 -0.0375  1.1533
  112OSM   H16T11621   5.440   2.311   9.237  0.7573  2.8149 -0.9981
  112OSM   C17S11622   5.275   2.426   9.170 -0.8377  0.2554 -0.4321
  112OSM   H17S11623   5.283   2.363   9.079 -0.2060  1.0005 -0.9083
  112OSM   H17T11624   5.333   2.520   9.161  0.0995  0.1291  3.0263
  112OSM   C18S11625   5.127   2.452   9.197  0.3159 -0.2662 -0.1841
  112OSM   H18S11626   5.080   2.506   9.112 -1.5479 -1.5994 -0.0707
  112OSM   H18T11627   5.117   2.497   9.298  0.7375 -0.8308  0.1146
  112OSM   H18U11628   5.086   2.349   9.205 -0.9761  0.3399  1.8304
  112OSM    C1F11629   5.601   2.670  10.568 -0.5668  0.1129  0.0795
  112OSM     OF11630   5.700   2.611  10.621  0.1353 -0.7637 -0.2031
  112OSM    C2F11631   5.614   2.753  10.442 -0.6068 -0.4194 -0.2532
  112OSM    H2F11632   5.684   2.831  10.480  0.4801 -2.6369  2.6419
  112OSM    H2G11633   5.524   2.809  10.410 -1.0592 -0.7172  0.4905
  112OSM    C3F11634   5.682   2.673  10.327  0.0838 -0.0615 -0.7942
  112OSM    H3F11635   5.623   2.583  10.299  1.0538 -1.7813  2.2357
  112OSM    H3G11636   5.776   2.637  10.374  0.9076  0.2123 -2.1560
  112OSM    C4F11637   5.718   2.748  10.196  0.0443  0.1535  0.8714
  112OSM    H4F11638   5.774   2.833  10.238  1.0693  0.0887 -0.2986
  112OSM    H4G11639   5.629   2.796  10.149 -0.7546 -0.7456  1.4145
  112OSM    C5F11640   5.795   2.668  10.088  0.5452  0.2182 -0.6211
  112OSM    H5F11641   5.741   2.574  10.066 -1.1603  0.3672  2.3431
  112OSM    H5G11642   5.892   2.633  10.130  1.7974  1.2154 -2.5530
  112OSM    C6F11643   5.817   2.743   9.957 -0.2537 -0.2491  0.0284
  112OSM    H6F11644   5.878   2.833   9.976  0.2264 -0.4571 -0.5115
  112OSM    H6G11645   5.721   2.782   9.918 -0.5214 -0.8576  0.0636
  112OSM    C7F11646   5.883   2.679   9.832 -0.0925  0.1057 -0.6508
  112OSM    H7F11647   5.950   2.599   9.870 -0.6940 -0.6143 -1.0843
  112OSM    H7G11648   5.941   2.753   9.774  1.5945 -1.5238 -1.1418
  112OSM    C8F11649   5.776   2.627   9.732 -0.6260  0.3691  0.0108
  112OSM    H8F11650   5.746   2.710   9.664 -2.6897 -1.5620 -1.5845
  112OSM    H8G11651   5.683   2.597   9.785 -0.2279 -0.9412 -0.0028
  112OSM    C9F11652   5.830   2.511   9.641 -0.3334  0.0881  0.2000
  112OSM    H9F11653   5.799   2.413   9.678 -0.4410  1.0074  2.7769
  112OSM   C10F11654   5.897   2.519   9.524  0.4794  0.3078 -0.6049
  112OSM   H10F11655   5.923   2.428   9.470  2.4570 -0.4607  1.4800
  112OSM   C11F11656   5.944   2.651   9.472  0.4143 -0.8426  0.8321
  112OSM   H11F11657   6.048   2.639   9.437 -0.4585 -0.9271 -2.0042
  112OSM   H11G11658   5.932   2.738   9.541 -0.1243 -0.0299 -0.2504
  112OSM   C12F11659   5.866   2.698   9.340  0.0140  0.0514  1.1052
  112OSM   H12F11660   5.757   2.719   9.347 -0.3518 -1.7325  1.1140
  112OSM   H12G11661   5.880   2.608   9.277  1.4175 -0.3098  1.8723
  112OSM   C13F11662   5.940   2.814   9.255 -0.7858  1.1556  0.0645
  112OSM   H13F11663   6.048   2.828   9.279 -0.5886  2.1053 -1.2707
  112OSM   H13G11664   5.874   2.902   9.271 -1.2364  0.7946  0.1907
  112OSM   C14F11665   5.923   2.784   9.103 -0.6986  0.4356  0.5570
  112OSM   H14F11666   5.817   2.754   9.096 -0.7256  0.4295  0.9338
  112OSM   H14G11667   5.988   2.698   9.079 -1.1352  0.7524 -1.9575
  112OSM   C15F11668   5.973   2.894   9.007  0.1292  0.3890 -0.4866
  112OSM   H15F11669   6.081   2.919   9.009 -0.1433  1.6351  0.0183
  112OSM   H15G11670   5.923   2.994   9.004  2.1784  1.4617 -1.5647
  112OSM   C16F11671   5.958   2.845   8.864 -0.1516  0.1917  0.2502
  112OSM   H16F11672   5.871   2.776   8.857  0.6536 -0.8082 -0.0923
  112OSM   H16G11673   6.046   2.788   8.828  0.1857 -0.5211  2.0971
  112OSM   C17F11674   5.931   2.957   8.758 -0.0948  0.1557  0.2648
  112OSM   H17F11675   6.013   3.028   8.781  0.8142 -1.2869  1.7381
  112OSM   H17G11676   5.838   3.014   8.776  1.2520  1.8101  2.3263
  112OSM   C18F11677   5.933   2.902   8.615  0.0346 -0.2764  0.2294
  112OSM   H18F11678   5.868   2.813   8.600 -1.0017  0.7050 -1.4279
  112OSM   H18G11679   6.040   2.897   8.585  0.6515 -0.1011  2.2895
  112OSM   H18H11680   5.898   2.974   8.538  0.7675  2.1141  2.0121
  113OSM      N11681   5.751   1.810  11.133  0.7972 -0.3178 -0.7173
  113OSM    C1511682   5.778   1.743  11.260 -0.2009  0.4759 -0.3037
  113OSM   H15A11683   5.689   1.693  11.298 -0.4842  0.3012 -1.1848
  113OSM   H15B11684   5.813   1.818  11.329 -0.1439  0.2999 -0.1391
  113OSM   H15C11685   5.858   1.670  11.257  1.6362  2.4205 -1.1376
  113OSM    C1411686   5.639   1.902  11.166 -0.2575 -0.1974 -0.1730
  113OSM   H14A11687   5.563   1.851  11.223  0.8811  0.0102  1.6176
  113OSM   H14B11688   5.578   1.933  11.083 -2.7615 -0.1730  1.5729
  113OSM   H14C11689   5.663   1.988  11.228 -2.0377  0.0231  0.2427
  113OSM    C1311690   5.870   1.888  11.091 -0.0619 -0.1759  0.2980
  113OSM   H13A11691   5.864   1.928  10.991  0.4183 -0.9603 -0.0600
  113OSM   H13B11692   5.956   1.822  11.083 -1.1053 -1.5425 -0.1083
  113OSM   H13C11693   5.898   1.972  11.152  0.8637 -0.3620  0.1515
  113OSM    C1211694   5.713   1.717  11.029  0.4868  0.1406  0.5517
  113OSM   H12A11695   5.633   1.654  11.064  1.4135 -1.0115  0.6398
  113OSM   H12B11696   5.796   1.647  11.030  1.1431  0.7402 -2.2893
  113OSM    C1111697   5.684   1.768  10.891 -0.2763 -0.0967 -0.1426
  113OSM   H11A11698   5.671   1.691  10.812 -0.8354 -0.6600  0.4741
  113OSM   H11B11699   5.767   1.825  10.847  0.6572 -2.5857 -1.8313
  113OSM      P11700   5.425   1.792  10.887  0.5603  0.0238 -0.1071
  113OSM    O1311701   5.396   1.714  11.006  0.4059 -0.2788 -0.3625
  113OSM    O1411702   5.337   1.909  10.867  0.1916  0.0119  0.8728
  113OSM    O1111703   5.425   1.698  10.757  0.1275  0.3169  0.2510
  113OSM    O1211704   5.571   1.849  10.896 -0.3089 -0.0090 -0.6359
  113OSM    C1S11705   5.446   1.773  10.630  0.8556  0.3656 -1.0531
  113OSM    H1S11706   5.546   1.820  10.626  1.9559 -1.7662 -0.1427
  113OSM    H1T11707   5.360   1.844  10.625 -0.3255 -0.7340  1.6816
  113OSM     NF11708   5.445   1.777  10.391 -0.2006 -0.1519  0.1938
  113OSM    HNF11709   5.359   1.809  10.350 -1.3323 -0.0336  2.4706
  113OSM    C2S11710   5.422   1.684  10.501 -0.2950 -0.0187 -0.6187
  113OSM    H2S11711   5.494   1.599  10.506  0.0402  0.3205  2.5182
  113OSM    C3S11712   5.278   1.622  10.499 -0.4109 -0.3189 -0.2591
  113OSM    H3S11713   5.208   1.709  10.491  0.5420  0.7818  2.3574
  113OSM     O311714   5.235   1.566  10.623 -0.4388  0.2055 -0.1975
  113OSM    HO311715   5.300   1.599  10.685  0.4433 -0.6632 -0.6304
  113OSM    C4S11716   5.260   1.522  10.389 -0.3753  0.0976  0.5717
  113OSM    H4S11717   5.214   1.566  10.299 -1.5621 -2.4401 -0.1619
  113OSM    C5S11718   5.280   1.389  10.366 -0.1019 -0.6489 -0.2537
  113OSM    H5S11719   5.318   1.321  10.444  0.1077 -0.5145 -0.2398
  113OSM    C6S11720   5.242   1.328  10.237 -0.7161  0.3527 -0.2118
  113OSM    H6S11721   5.131   1.317  10.240 -0.6090 -0.6361  1.4842
  113OSM    H6T11722   5.285   1.226  10.232 -0.6949  0.2460  1.5809
  113OSM    C7S11723   5.281   1.405  10.111 -0.3551  0.0940  0.0844
  113OSM    H7S11724   5.388   1.429  10.130  0.0917 -1.5452 -0.2173
  113OSM    H7T11725   5.218   1.496  10.099  1.0335  0.7816 -2.7196
  113OSM    C8S11726   5.267   1.326   9.983 -0.3325 -0.0747 -0.3009
  113OSM    H8S11727   5.162   1.311   9.950  0.1452 -2.3017 -1.0045
  113OSM    H8T11728   5.306   1.224   9.999  1.7556  0.8980  1.2512
  113OSM    C9S11729   5.354   1.378   9.865  0.0394  0.4589 -0.0651
  113OSM    H9S11730   5.381   1.298   9.793 -0.2219  1.5695 -1.4301
  113OSM    H9T11731   5.455   1.398   9.907  0.8747  1.6766 -2.4718
  113OSM   C10S11732   5.299   1.507   9.799  0.6812 -0.3217  0.1460
  113OSM   H10S11733   5.294   1.574   9.888  0.3474 -1.1693  0.7828
  113OSM   H10T11734   5.199   1.476   9.764  1.6964 -1.6124 -1.8063
  113OSM   C11S11735   5.385   1.540   9.677  0.1941  0.6623 -0.3356
  113OSM   H11S11736   5.366   1.461   9.602 -2.2026  0.9784 -0.1218
  113OSM   H11T11737   5.495   1.544   9.695 -0.2310  2.2651  2.4499
  113OSM   C12S11738   5.355   1.669   9.607 -0.4155  0.4868 -0.1353
  113OSM   H12S11739   5.426   1.679   9.521 -0.3518  0.0622 -0.1363
  113OSM   H12T11740   5.387   1.750   9.676  0.6209  0.1853 -0.2473
  113OSM   C13S11741   5.207   1.702   9.568  0.3969 -0.5137 -0.1719
  113OSM   H13S11742   5.143   1.724   9.656 -0.3947  0.7137 -1.0211
  113OSM   H13T11743   5.157   1.619   9.514 -0.1240 -0.7309  0.6348
  113OSM   C14S11744   5.203   1.832   9.484 -0.1229 -0.1704 -0.7752
  113OSM   H14S11745   5.263   1.908   9.539 -0.4883 -0.9204  0.7335
  113OSM   H14T11746   5.100   1.874   9.480 -1.2682 -2.7388 -0.2615
  113OSM   C15S11747   5.261   1.817   9.347  0.7193 -0.2310  0.4358
  113OSM   H15S11748   5.217   1.736   9.285  1.1926 -1.6303  1.8458
  113OSM   H15T11749   5.368   1.790   9.354  1.3966  1.9173 -0.6938
  113OSM   C16S11750   5.264   1.945   9.264 -0.3769 -0.0925 -0.3123
  113OSM   H16S11751   5.333   1.918   9.180  0.9945  0.5250  0.5706
  113OSM   H16T11752   5.328   2.018   9.318  0.1310 -1.3914  0.9058
  113OSM   C17S11753   5.127   2.004   9.221  0.0534 -0.0716 -0.5367
  113OSM   H17S11754   5.122   2.115   9.230 -1.4812  0.0438 -2.2213
  113OSM   H17T11755   5.048   1.965   9.288 -0.5113 -1.6937 -2.0719
  113OSM   C18S11756   5.103   1.966   9.080  0.4707 -0.1268  0.3210
  113OSM   H18S11757   5.172   2.008   9.004  0.2804 -1.6455 -0.7292
  113OSM   H18T11758   5.003   1.994   9.039 -0.7643 -2.0022  1.8584
  113OSM   H18U11759   5.114   1.856   9.075  1.8647 -0.0204  0.7229
  113OSM    C1F11760   5.561   1.831  10.367 -0.1929  0.0361  0.4139
  113OSM     OF11761   5.659   1.789  10.426  0.4674 -0.1973 -0.1299
  113OSM    C2F11762   5.560   1.944  10.259 -0.3751  0.0540  0.1718
  113OSM    H2F11763   5.475   1.927  10.189  1.6355  0.9146 -2.6577
  113OSM    H2G11764   5.652   1.921  10.202 -0.6019 -0.5584  0.0481
  113OSM    C3F11765   5.568   2.091  10.313  0.0323 -0.0547  0.2215
  113OSM    H3F11766   5.667   2.110  10.360  0.0516 -1.1634  0.6428
  113OSM    H3G11767   5.500   2.099  10.400 -1.3924 -1.4563 -0.7092
  113OSM    C4F11768   5.535   2.204  10.213 -1.4023 -0.1820  0.0192
  113OSM    H4F11769   5.547   2.304  10.259  4.4820  0.2166 -1.6604
  113OSM    H4G11770   5.433   2.185  10.174 -1.5998 -0.0394  0.4507
  113OSM    C5F11771   5.620   2.215  10.085  0.3758  0.0212  1.2802
  113OSM    H5F11772   5.591   2.310  10.035  1.0261 -0.8076 -0.7636
  113OSM    H5G11773   5.611   2.141  10.003 -0.8628 -0.3920  1.7646
  113OSM    C6F11774   5.768   2.222  10.127  0.3749 -0.4266  0.3250
  113OSM    H6F11775   5.817   2.134  10.173  1.7979 -0.1311 -0.5486
  113OSM    H6G11776   5.770   2.294  10.211  0.4269  1.3950 -1.1683
  113OSM    C7F11777   5.849   2.281  10.014 -0.0917 -1.0376  0.4003
  113OSM    H7F11778   5.931   2.346  10.050  0.4113 -0.7602 -1.1514
  113OSM    H7G11779   5.782   2.361   9.973 -0.4040 -1.2336  0.5254
  113OSM    C8F11780   5.899   2.173   9.914  0.0860  0.1206  0.4183
  113OSM    H8F11781   5.814   2.110   9.884  0.9072 -0.7381 -0.1596
  113OSM    H8G11782   5.945   2.101   9.985 -1.2941 -1.6969 -0.4527
  113OSM    C9F11783   5.997   2.211   9.802  0.3421 -0.1528 -0.3740
  113OSM    H9F11784   6.040   2.311   9.819  0.5925 -0.6018  1.9036
  113OSM   C10F11785   6.013   2.142   9.686 -0.9787  0.1659 -0.5046
  113OSM   H10F11786   6.095   2.171   9.618  1.0062  0.2239  1.7609
  113OSM   C11F11787   5.945   2.024   9.635  0.1365 -0.1822 -0.4252
  113OSM   H11F11788   5.904   1.971   9.723 -0.4091 -0.2275 -0.7020
  113OSM   H11G11789   6.013   1.955   9.580  0.3696 -0.3444  0.0615
  113OSM   C12F11790   5.837   2.057   9.529  1.0397 -0.3154  0.0370
  113OSM   H12F11791   5.745   2.101   9.571  1.4771 -1.3055  2.1770
  113OSM   H12G11792   5.799   1.961   9.487  0.8714 -0.5840  0.7850
  113OSM   C13F11793   5.883   2.147   9.416 -0.5880  0.5960 -0.3051
  113OSM   H13F11794   5.958   2.098   9.351  0.0438  0.9537  0.1411
  113OSM   H13G11795   5.928   2.236   9.466 -0.5353  1.6501 -2.1665
  113OSM   C14F11796   5.783   2.199   9.317  0.5378 -0.7586  0.4234
  113OSM   H14F11797   5.723   2.281   9.362 -2.6410 -0.3650 -3.8165
  113OSM   H14G11798   5.710   2.120   9.290 -0.6886  0.3661  0.3294
  113OSM   C15F11799   5.851   2.268   9.206  0.2090 -0.5576  0.5314
  113OSM   H15F11800   5.947   2.217   9.183  0.3561  0.7121 -2.1102
  113OSM   H15G11801   5.884   2.369   9.239 -0.8664  0.3694 -1.0496
  113OSM   C16F11802   5.768   2.281   9.074 -0.2225  0.6845 -0.6735
  113OSM   H16F11803   5.667   2.326   9.084 -0.1112  1.2948 -2.0921
  113OSM   H16G11804   5.755   2.173   9.051 -1.7712  0.0794  2.4026
  113OSM   C17F11805   5.834   2.337   8.950  0.0620  0.5467 -0.8073
  113OSM   H17F11806   5.937   2.299   8.931  0.5079  2.2612 -2.0082
  113OSM   H17G11807   5.846   2.446   8.965  1.6599  0.3548 -0.4323
  113OSM   C18F11808   5.745   2.302   8.830 -0.9487  0.2515  0.4033
  113OSM   H18F11809   5.720   2.195   8.814 -0.1617  0.4052 -2.4838
  113OSM   H18G11810   5.807   2.324   8.740 -0.3303  1.2320  1.0449
  113OSM   H18H11811   5.652   2.362   8.837 -1.2568 -0.3070  1.2316
  114OSM      N11812   5.583   3.947  11.434  0.0374 -0.3002 -0.4567
  114OSM    C1511813   5.721   3.959  11.386  0.0657 -0.1722  0.3557
  114OSM   H15A11814   5.720   3.956  11.278  0.1406 -1.3061  0.3725
  114OSM   H15B11815   5.785   3.885  11.432  1.6247  1.7143  1.3315
  114OSM   H15C11816   5.759   4.057  11.408  0.2589  0.1527 -1.3109
  114OSM    C1411817   5.537   3.806  11.421 -0.2774 -0.0129 -0.0703
  114OSM   H14A11818   5.442   3.781  11.466  1.4431 -2.6237  2.4887
  114OSM   H14B11819   5.605   3.743  11.477 -2.1232  1.0466  3.6233
  114OSM   H14C11820   5.539   3.785  11.315 -0.3555  3.8548 -0.9781
  114OSM    C1311821   5.577   3.984  11.581  0.7190 -0.3810 -0.3199
  114OSM   H13A11822   5.601   4.088  11.597 -1.4854  0.2614 -0.8439
  114OSM   H13B11823   5.640   3.915  11.636  0.0598  0.6047  1.7816
  114OSM   H13C11824   5.480   3.961  11.623  0.8454  1.4165  1.0552
  114OSM    C1211825   5.497   4.041  11.359  0.3268  0.1086 -0.0397
  114OSM   H12A11826   5.398   4.005  11.384  1.2207 -3.5058 -1.0591
  114OSM   H12B11827   5.507   4.029  11.253 -1.6002  0.3277 -0.2717
  114OSM    C1111828   5.507   4.194  11.387  0.1492  0.9784 -0.9699
  114OSM   H11A11829   5.487   4.216  11.494 -2.2829 -0.4668 -1.0552
  114OSM   H11B11830   5.422   4.234  11.327 -0.7355  0.7887  0.1369
  114OSM      P11831   5.652   4.369  11.263  0.4121  0.1525  0.1742
  114OSM    O1311832   5.572   4.477  11.321  0.1388  0.2992 -0.7110
  114OSM    O1411833   5.796   4.404  11.243 -0.2856 -0.0680 -0.0527
  114OSM    O1111834   5.596   4.327  11.125  0.1876  0.5071  0.0135
  114OSM    O1211835   5.642   4.242  11.355  0.0135  0.8522  0.3020
  114OSM    C1S11836   5.652   4.219  11.047 -0.7283 -0.5841 -0.3974
  114OSM    H1S11837   5.604   4.124  11.081 -0.0564 -0.1744  1.8578
  114OSM    H1T11838   5.760   4.212  11.071 -1.1264  0.9438  2.2606
  114OSM     NF11839   5.631   4.126  10.825  0.5005 -0.9594 -0.3665
  114OSM    HNF11840   5.719   4.087  10.799  0.0548 -0.8976 -2.0664
  114OSM    C2S11841   5.637   4.253  10.896 -0.6353 -0.0725  1.2604
  114OSM    H2S11842   5.543   4.310  10.876 -0.9162 -0.7316  0.5946
  114OSM    C3S11843   5.754   4.353  10.856  0.2491 -0.0591 -0.1354
  114OSM    H3S11844   5.848   4.312  10.898  0.7516  0.1722 -1.0187
  114OSM     O311845   5.746   4.485  10.907  0.0077 -0.1905  0.1777
  114OSM    HO311846   5.685   4.479  10.980 -0.6088 -1.7803 -0.4143
  114OSM    C4S11847   5.774   4.358  10.710 -0.4050  0.6448  0.9041
  114OSM    H4S11848   5.838   4.289  10.653 -1.6791  1.8022 -2.1593
  114OSM    C5S11849   5.717   4.449  10.628 -0.1544 -0.6759 -0.4306
  114OSM    H5S11850   5.653   4.525  10.676 -2.1448 -1.9063 -0.9743
  114OSM    C6S11851   5.739   4.457  10.478  0.6241  0.3342 -0.7316
  114OSM    H6S11852   5.786   4.548  10.435  2.2406 -0.5187 -0.8456
  114OSM    H6T11853   5.634   4.457  10.441  0.1968  1.0493  0.4255
  114OSM    C7S11854   5.822   4.343  10.415 -0.5017  0.8347 -0.5568
  114OSM    H7S11855   5.773   4.243  10.421  0.8882  0.1713  0.1414
  114OSM    H7T11856   5.924   4.336  10.458  0.6353 -0.7101 -3.2793
  114OSM    C8S11857   5.838   4.373  10.265 -0.0475  0.0239 -0.3395
  114OSM    H8S11858   5.895   4.468  10.253 -1.4048  1.0741  1.0668
  114OSM    H8T11859   5.738   4.384  10.218  0.1627 -1.6954 -1.2380
  114OSM    C9S11860   5.900   4.261  10.188  0.0788  0.4696 -0.6795
  114OSM    H9S11861   5.846   4.166  10.208  0.8579  0.0250 -0.6412
  114OSM    H9T11862   5.992   4.240  10.247 -0.1019  2.4925  0.4308
  114OSM   C10S11863   5.925   4.299  10.044  0.0691  0.1090  0.2132
  114OSM   H10S11864   6.019   4.357  10.042  2.0219 -2.8695 -1.1283
  114OSM   H10T11865   5.849   4.366  10.000  0.1583 -0.6423 -1.1368
  114OSM   C11S11866   5.963   4.175   9.958 -0.2557  0.3536 -0.7074
  114OSM   H11S11867   5.872   4.114   9.947  1.1402 -1.9130 -0.3412
  114OSM   H11T11868   6.034   4.117  10.022 -0.9223 -0.4774 -0.7018
  114OSM   C12S11869   6.006   4.204   9.811  0.0992 -0.7074  0.5767
  114OSM   H12S11870   6.067   4.117   9.778 -0.3707 -1.0196  0.5115
  114OSM   H12T11871   6.077   4.288   9.795 -0.7818 -0.5276 -3.5673
  114OSM   C13S11872   5.890   4.230   9.711 -0.5214  0.1876  0.3968
  114OSM   H13S11873   5.836   4.325   9.733  0.7731  1.0452  0.0220
  114OSM   H13T11874   5.823   4.142   9.718  0.9157 -1.0644 -0.9492
  114OSM   C14S11875   5.942   4.231   9.565 -0.2535 -0.4217 -0.5770
  114OSM   H14S11876   6.007   4.142   9.561  0.3001 -0.0266 -0.5511
  114OSM   H14T11877   6.011   4.317   9.550  1.4092 -1.7435 -0.7621
  114OSM   C15S11878   5.825   4.225   9.466 -0.1228  0.6882 -0.2344
  114OSM   H15S11879   5.752   4.301   9.501 -1.3939 -1.1320  1.2547
  114OSM   H15T11880   5.774   4.128   9.479  0.6336  0.5173  1.7684
  114OSM   C16S11881   5.858   4.244   9.324 -0.0494 -0.4693  0.3299
  114OSM   H16S11882   5.922   4.156   9.299  0.1375 -0.5349  1.0309
  114OSM   H16T11883   5.923   4.334   9.331 -1.3812  0.6107 -0.5672
  114OSM   C17S11884   5.731   4.260   9.234 -0.7500  0.0443 -0.7346
  114OSM   H17S11885   5.703   4.367   9.225 -1.6443 -0.2329 -1.4288
  114OSM   H17T11886   5.647   4.206   9.282 -1.3867  1.2743 -0.4132
  114OSM   C18S11887   5.755   4.205   9.092  0.1272 -0.6474  0.5545
  114OSM   H18S11888   5.761   4.095   9.084 -0.2330 -0.5922 -0.6365
  114OSM   H18T11889   5.860   4.232   9.064  0.4729 -0.7651  1.6697
  114OSM   H18U11890   5.692   4.247   9.011 -0.4616  1.1485  1.8715
  114OSM    C1F11891   5.521   4.058  10.829 -0.5229  0.0218  0.1605
  114OSM     OF11892   5.427   4.094  10.901  0.4425 -0.3723  0.6356
  114OSM    C2F11893   5.502   3.943  10.746 -0.8745  0.6383  0.0030
  114OSM    H2F11894   5.394   3.919  10.742 -0.9062  0.6168  0.7501
  114OSM    H2G11895   5.554   3.855  10.791 -0.5061  1.8639  2.1020
  114OSM    C3F11896   5.551   3.970  10.607  0.1892  0.7817 -1.0481
  114OSM    H3F11897   5.545   3.867  10.565  0.5912  1.3400 -2.5213
  114OSM    H3G11898   5.659   3.996  10.604  0.9179 -1.4687  1.4745
  114OSM    C4F11899   5.460   4.066  10.516 -0.8018  0.5466 -0.1840
  114OSM    H4F11900   5.491   4.168  10.546  2.4780 -1.3036  3.7567
  114OSM    H4G11901   5.352   4.051  10.533 -0.8520  2.7264  1.9594
  114OSM    C5F11902   5.495   4.030  10.373 -0.2032 -0.4571  0.0930
  114OSM    H5F11903   5.437   3.944  10.333 -1.1872 -0.3250  1.1678
  114OSM    H5G11904   5.604   4.014  10.361  0.2413  0.0160  2.7506
  114OSM    C6F11905   5.457   4.150  10.290  0.5691 -0.1831 -0.0182
  114OSM    H6F11906   5.524   4.233  10.322 -2.3707  2.7962 -1.0046
  114OSM    H6G11907   5.349   4.174  10.299  0.7078  1.4313 -1.8136
  114OSM    C7F11908   5.491   4.126  10.143  0.4552  0.3116  0.5775
  114OSM    H7F11909   5.437   4.033  10.116 -1.1807  1.4440 -0.2322
  114OSM    H7G11910   5.602   4.117  10.141  0.4774  0.6533 -0.3328
  114OSM    C8F11911   5.453   4.238  10.042 -0.5242  0.1940  0.1870
  114OSM    H8F11912   5.511   4.327  10.076  2.0917  0.1439 -3.5372
  114OSM    H8G11913   5.343   4.254  10.049 -0.7197 -1.0922  0.3020
  114OSM    C9F11914   5.499   4.197   9.900  0.0129 -0.5098 -0.2964
  114OSM    H9F11915   5.594   4.142   9.888  0.5737  0.4508 -0.3617
  114OSM   C10F11916   5.434   4.225   9.777  0.6598  0.5714 -0.2213
  114OSM   H10F11917   5.466   4.181   9.681  0.5697  1.5906 -0.7280
  114OSM   C11F11918   5.307   4.306   9.773  0.3641 -0.6819 -0.7162
  114OSM   H11F11919   5.316   4.395   9.706 -1.1507 -0.2070 -0.3369
  114OSM   H11G11920   5.275   4.359   9.866 -2.5283 -0.8603 -1.5084
  114OSM   C12F11921   5.177   4.234   9.730  0.1230  1.0313 -0.0107
  114OSM   H12F11922   5.088   4.298   9.744 -2.2260 -1.8086 -0.8880
  114OSM   H12G11923   5.159   4.136   9.779 -0.6942  0.8664 -0.6189
  114OSM   C13F11924   5.175   4.214   9.578 -0.4295  0.5095 -0.2100
  114OSM   H13F11925   5.267   4.169   9.536  1.1242  3.5359 -0.3085
  114OSM   H13G11926   5.175   4.313   9.528 -0.3388  1.3129  1.3322
  114OSM   C14F11927   5.047   4.147   9.530 -0.6371 -0.0248  0.4148
  114OSM   H14F11928   4.963   4.205   9.573 -1.3079 -1.0831  0.5492
  114OSM   H14G11929   5.042   4.040   9.560  2.1254  0.1201  1.7170
  114OSM   C15F11930   5.037   4.142   9.372  0.4687 -0.1967 -0.1747
  114OSM   H15F11931   4.936   4.106   9.345 -0.3086  0.8526  1.2245
  114OSM   H15G11932   5.113   4.079   9.321 -0.2970  0.6755 -2.5437
  114OSM   C16F11933   5.040   4.279   9.301 -0.4540  0.7534  0.2305
  114OSM   H16F11934   5.132   4.334   9.333  0.1533  1.0669 -1.9026
  114OSM   H16G11935   4.958   4.346   9.334  0.0968  1.4454  0.2144
  114OSM   C17F11936   5.041   4.261   9.150 -0.1432  0.1330 -0.8948
  114OSM   H17F11937   5.118   4.185   9.125 -0.5139 -0.7401  0.5267
  114OSM   H17G11938   5.073   4.361   9.113  2.1266 -0.6423 -1.1682
  114OSM   C18F11939   4.908   4.230   9.085 -0.3502 -0.0802 -0.3858
  114OSM   H18F11940   4.861   4.138   9.126 -1.7834  1.7986  2.5302
  114OSM   H18G11941   4.911   4.218   8.974  1.2880 -0.3153 -0.3330
  114OSM   H18H11942   4.841   4.315   9.111 -1.3722 -0.9016 -0.2682
  115OSM      N11943   4.650   5.454   5.724  0.4641 -0.2092  0.3568
  115OSM    C1511944   4.596   5.533   5.603 -0.2712 -0.3695 -0.7397
  115OSM   H15A11945   4.541   5.619   5.639  1.6003  0.5334  0.1390
  115OSM   H15B11946   4.537   5.483   5.528  1.5763 -0.8858 -1.9359
  115OSM   H15C11947   4.677   5.572   5.542 -1.3757 -0.7045 -2.4640
  115OSM    C1411948   4.673   5.314   5.670 -0.4336 -0.5581  0.4347
  115OSM   H14A11949   4.586   5.278   5.619  0.6463 -4.7565  1.1758
  115OSM   H14B11950   4.699   5.254   5.756 -1.5153  0.3072  1.3795
  115OSM   H14C11951   4.762   5.309   5.608 -1.6503  1.0547 -1.5789
  115OSM    C1311952   4.776   5.515   5.765  0.2570  0.7519 -0.0538
  115OSM   H13A11953   4.810   5.461   5.853 -1.7968  0.1737  0.4379
  115OSM   H13B11954   4.763   5.618   5.794 -1.9031  0.3098  0.7630
  115OSM   H13C11955   4.853   5.500   5.692  0.6812  0.1828  0.4958
  115OSM    C1211956   4.532   5.454   5.825  0.4046  0.2172 -0.1634
  115OSM   H12A11957   4.439   5.428   5.777  0.4677  0.5218 -0.4537
  115OSM   H12B11958   4.526   5.556   5.859  3.3472 -0.2674  2.2290
  115OSM    C1111959   4.550   5.382   5.965  0.3254  0.3802  0.0765
  115OSM   H11A11960   4.584   5.277   5.952 -1.4919 -0.5090  2.0532
  115OSM   H11B11961   4.452   5.377   6.017  0.5702 -1.4774  0.4199
  115OSM      P11962   4.610   5.581   6.125  0.2391  0.1672  0.2989
  115OSM    O1311963   4.732   5.617   6.208  0.3044  0.5051  0.1194
  115OSM    O1411964   4.565   5.682   6.030  0.2790 -0.5227 -0.7021
  115OSM    O1111965   4.494   5.533   6.223  0.3726  0.3778  0.8911
  115OSM    O1211966   4.642   5.452   6.049 -0.4537 -0.3530  0.2571
  115OSM    C1S11967   4.526   5.451   6.332  0.9926 -0.0890  0.3642
  115OSM    H1S11968   4.595   5.503   6.403 -0.1899 -0.4078  1.7935
  115OSM    H1T11969   4.551   5.346   6.309 -2.4188 -0.4311 -2.7680
  115OSM     NF11970   4.410   5.351   6.546 -0.0773 -0.2293  0.1899
  115OSM    HNF11971   4.363   5.263   6.557  1.2311 -0.9164  0.3901
  115OSM    C2S11972   4.392   5.421   6.419 -0.2814 -0.4592  0.6509
  115OSM    H2S11973   4.362   5.524   6.447  0.2397 -0.6410  1.9359
  115OSM    C3S11974   4.270   5.362   6.338  0.0894  0.4108  0.6337
  115OSM    H3S11975   4.280   5.253   6.352  0.9474  0.6807  2.5047
  115OSM     O311976   4.271   5.390   6.188 -0.1982 -0.1596 -0.1384
  115OSM    HO311977   4.353   5.434   6.166  0.2481 -0.5637  0.6535
  115OSM    C4S11978   4.142   5.417   6.394 -0.0797  0.0970  0.5067
  115OSM    H4S11979   4.101   5.356   6.476  0.1894 -2.0851 -0.8966
  115OSM    C5S11980   4.089   5.539   6.365  0.2582  0.0874  0.0414
  115OSM    H5S11981   4.138   5.607   6.294 -0.2316 -0.7344 -1.1105
  115OSM    C6S11982   3.976   5.603   6.430 -0.2698 -1.0028 -0.0047
  115OSM    H6S11983   3.904   5.635   6.352 -1.3162 -3.1411  0.0004
  115OSM    H6T11984   4.013   5.700   6.469 -0.0089 -1.0518 -0.1273
  115OSM    C7S11985   3.902   5.546   6.551  0.0155 -0.3619  0.0316
  115OSM    H7S11986   3.896   5.435   6.545  3.7082 -0.9319  3.1694
  115OSM    H7T11987   3.801   5.592   6.565  0.8516  2.0996 -1.3436
  115OSM    C8S11988   3.974   5.591   6.678 -0.1003  0.6573  0.2828
  115OSM    H8S11989   3.967   5.701   6.692 -0.8887  0.5930  0.4564
  115OSM    H8T11990   4.083   5.573   6.668 -0.7460 -3.7731 -1.1064
  115OSM    C9S11991   3.920   5.518   6.804 -0.6881 -0.3354 -0.3041
  115OSM    H9S11992   3.947   5.410   6.798  2.4297  0.3557 -0.4022
  115OSM    H9T11993   3.811   5.536   6.819 -0.2991 -0.1231  2.9202
  115OSM   C10S11994   3.980   5.569   6.936  0.6350  0.5685  0.3644
  115OSM   H10S11995   3.976   5.680   6.943  0.6770  0.5254  1.2555
  115OSM   H10T11996   4.089   5.550   6.933  0.7799  1.3279  0.5592
  115OSM   C11S11997   3.885   5.521   7.053 -0.1146 -0.0800 -0.5860
  115OSM   H11S11998   3.876   5.411   7.068  0.6321 -0.0853 -0.1765
  115OSM   H11T11999   3.781   5.553   7.030  0.0999 -0.4251 -2.2096
  115OSM   C12S12000   3.934   5.583   7.184 -0.1532  0.1940  0.4064
  115OSM   H12S12001   3.944   5.692   7.169 -0.6191  0.1720 -0.0583
  115OSM   H12T12002   4.033   5.536   7.204 -1.1070 -2.1089  0.0306
  115OSM   C13S12003   3.853   5.553   7.309  0.3669 -0.1564 -0.2164
  115OSM   H13S12004   3.824   5.445   7.309  1.4059 -0.4467  0.0785
  115OSM   H13T12005   3.759   5.605   7.280  0.3356 -0.9130 -1.6039
  115OSM   C14S12006   3.909   5.589   7.447  0.2814  0.2090  0.7020
  115OSM   H14S12007   3.934   5.697   7.456 -1.9832  0.9382 -0.8781
  115OSM   H14T12008   3.997   5.526   7.470 -0.1129 -0.1095  1.3533
  115OSM   C15S12009   3.808   5.568   7.554  0.5821 -0.1841  0.4553
  115OSM   H15S12010   3.778   5.464   7.580 -2.1227  0.2757 -0.5521
  115OSM   H15T12011   3.709   5.605   7.520  1.1150  2.8085  1.8895
  115OSM   C16S12012   3.829   5.633   7.688 -0.4007 -0.7020 -0.6300
  115OSM   H16S12013   3.853   5.741   7.678  0.2919 -1.0601 -4.2858
  115OSM   H16T12014   3.920   5.582   7.726  0.0235 -0.5174 -1.3698
  115OSM   C17S12015   3.715   5.613   7.790 -0.1842 -0.1182 -0.0463
  115OSM   H17S12016   3.705   5.504   7.807  0.9697  0.1938  3.4387
  115OSM   H17T12017   3.618   5.638   7.742 -0.8648 -2.5052 -0.0441
  115OSM   C18S12018   3.727   5.682   7.926 -0.0015  0.4250 -0.3114
  115OSM   H18S12019   3.833   5.690   7.958  0.2173  1.2378 -1.1901
  115OSM   H18T12020   3.674   5.625   8.005  1.5336 -0.9991 -0.2603
  115OSM   H18U12021   3.696   5.789   7.929 -2.0844 -0.0899 -1.2995
  115OSM    C1F12022   4.477   5.404   6.642 -0.6198  0.1159 -0.7147
  115OSM     OF12023   4.546   5.507   6.638  0.2992  0.0402  0.1034
  115OSM    C2F12024   4.464   5.335   6.771  0.4204  0.7474  0.4505
  115OSM    H2F12025   4.515   5.236   6.772 -1.0662 -0.0476  0.4131
  115OSM    H2G12026   4.361   5.298   6.787  0.2069 -2.0699 -5.1137
  115OSM    C3F12027   4.501   5.435   6.892 -0.3938 -0.1379  0.4468
  115OSM    H3F12028   4.443   5.529   6.883 -2.4892 -1.4796 -1.1418
  115OSM    H3G12029   4.611   5.444   6.886  0.2535 -3.3176  3.9561
  115OSM    C4F12030   4.464   5.367   7.020 -0.2223  0.0906 -0.2152
  115OSM    H4F12031   4.530   5.278   7.036 -1.7678 -0.6896  2.7014
  115OSM    H4G12032   4.366   5.315   7.015 -0.0986 -0.0985 -0.7398
  115OSM    C5F12033   4.479   5.460   7.135  0.0207  0.3479  0.4988
  115OSM    H5F12034   4.430   5.559   7.118  1.0049  0.8060  0.2165
  115OSM    H5G12035   4.588   5.483   7.142 -0.1646  1.1644  0.9067
  115OSM    C6F12036   4.442   5.405   7.275 -0.2768 -0.2733 -0.0053
  115OSM    H6F12037   4.487   5.303   7.276 -0.7604 -0.5208 -1.3712
  115OSM    H6G12038   4.332   5.396   7.287 -0.4275  0.9631 -0.3801
  115OSM    C7F12039   4.490   5.491   7.392  0.0859 -0.4496  0.0165
  115OSM    H7F12040   4.426   5.581   7.380 -0.8901 -1.2136 -0.7151
  115OSM    H7G12041   4.599   5.503   7.380  0.1679 -0.5904  0.6086
  115OSM    C8F12042   4.463   5.421   7.526  0.6814 -0.7665  0.6910
  115OSM    H8F12043   4.526   5.330   7.519  0.7928 -0.5562 -1.8357
  115OSM    H8G12044   4.361   5.378   7.531 -0.5493  1.4202 -2.3038
  115OSM    C9F12045   4.482   5.506   7.647  0.2994  0.4562  0.6751
  115OSM    H9F12046   4.588   5.524   7.671  0.8614  1.4785 -2.2107
  115OSM   C10F12047   4.394   5.570   7.726  0.6223  0.0848  0.2278
  115OSM   H10F12048   4.424   5.636   7.808 -0.7867 -1.7948  2.3713
  115OSM   C11F12049   4.245   5.553   7.697 -0.5276 -0.3065 -0.6059
  115OSM   H11F12050   4.228   5.517   7.593  0.7384  0.7437 -1.2164
  115OSM   H11G12051   4.201   5.655   7.707 -0.0565 -0.2357  0.9790
  115OSM   C12F12052   4.172   5.460   7.791  0.8089 -0.5752 -0.0020
  115OSM   H12F12053   4.236   5.370   7.788  0.0790 -1.2708  2.7015
  115OSM   H12G12054   4.073   5.430   7.752  0.9214 -1.5243  0.4261
  115OSM   C13F12055   4.163   5.510   7.934  0.8611 -0.3945 -0.4925
  115OSM   H13F12056   4.097   5.599   7.944  0.0365 -1.0261 -0.2346
  115OSM   H13G12057   4.259   5.534   7.984  0.2398 -0.2439  0.6695
  115OSM   C14F12058   4.088   5.417   8.028  0.4281 -0.3479 -0.2698
  115OSM   H14F12059   4.148   5.323   8.030 -0.5786 -1.0323 -1.2487
  115OSM   H14G12060   3.989   5.401   7.981 -0.2898  3.5965 -0.4667
  115OSM   C15F12061   4.070   5.482   8.165 -0.1008 -0.7772 -0.1416
  115OSM   H15F12062   4.005   5.572   8.160  0.1235 -0.6168 -0.2129
  115OSM   H15G12063   4.171   5.514   8.200  0.1593 -1.0494 -0.6460
  115OSM   C16F12064   4.012   5.397   8.273  0.5965  0.1524 -0.1402
  115OSM   H16F12065   4.058   5.296   8.281 -1.4509 -0.8177  0.0606
  115OSM   H16G12066   3.907   5.372   8.249 -0.2750 -1.4170  4.3050
  115OSM   C17F12067   4.016   5.449   8.419 -0.2212 -0.4706  0.7699
  115OSM   H17F12068   3.981   5.366   8.485 -0.4187  1.0271  2.6282
  115OSM   H17G12069   3.957   5.543   8.423  3.4568  2.4039 -3.2052
  115OSM   C18F12070   4.162   5.479   8.461 -0.0583 -0.1011  0.3294
  115OSM   H18F12071   4.171   5.476   8.572 -1.4350 -0.4989  0.4520
  115OSM   H18G12072   4.203   5.566   8.405  0.5153 -0.0469  0.8269
  115OSM   H18H12073   4.228   5.402   8.417  2.3803  1.3283  1.2837
  116OSM      N12074   6.593   3.741   6.121  0.0458 -0.4608 -0.4572
  116OSM    C1512075   6.721   3.710   6.046 -0.1227 -0.1836 -0.0538
  116OSM   H15A12076   6.759   3.610   6.066 -0.8583 -0.0949  2.0489
  116OSM   H15B12077   6.797   3.784   6.067 -1.0327  0.7335  0.0837
  116OSM   H15C12078   6.700   3.713   5.940  0.4249  0.2538 -0.1552
  116OSM    C1412079   6.549   3.882   6.092  0.0831 -0.0349  0.1147
  116OSM   H14A12080   6.539   3.887   5.985  0.4207  1.5275  0.1327
  116OSM   H14B12081   6.628   3.945   6.130 -0.6526  1.3035 -0.5068
  116OSM   H14C12082   6.458   3.899   6.147  0.0255 -0.5449  0.1777
  116OSM    C1312083   6.491   3.643   6.074 -1.1585  0.0650 -0.3443
  116OSM   H13A12084   6.398   3.645   6.128 -1.1453  0.7262 -0.3460
  116OSM   H13B12085   6.528   3.543   6.095 -0.7337  0.6599  2.0299
  116OSM   H13C12086   6.465   3.658   5.970  0.1875  1.2138 -0.5428
  116OSM    C1212087   6.621   3.733   6.271  0.1167 -0.2007 -0.5252
  116OSM   H12A12088   6.527   3.755   6.320  0.0842 -0.8024 -0.3036
  116OSM   H12B12089   6.685   3.816   6.297 -0.3549 -0.0519  0.1844
  116OSM    C1112090   6.689   3.605   6.334  0.5249  0.0869  0.7061
  116OSM   H11A12091   6.703   3.620   6.443  1.9535 -0.2643  0.5930
  116OSM   H11B12092   6.796   3.602   6.305  0.3016  1.6955 -0.3823
  116OSM      P12093   6.491   3.461   6.395 -0.0727 -0.0184 -0.1217
  116OSM    O1312094   6.401   3.581   6.398  0.0100  0.5970 -0.0287
  116OSM    O1412095   6.420   3.333   6.369 -0.4404  0.3802  0.4381
  116OSM    O1112096   6.545   3.443   6.541 -0.1254 -0.6436 -0.3917
  116OSM    O1212097   6.625   3.476   6.309  0.2469  0.8587 -0.5440
  116OSM    C1S12098   6.472   3.374   6.649 -0.0537 -0.0297  0.3366
  116OSM    H1S12099   6.436   3.273   6.621 -1.1929 -0.3233  2.6077
  116OSM    H1T12100   6.375   3.426   6.668  0.8895  3.7531 -3.5756
  116OSM     NF12101   6.496   3.266   6.869  0.8724  0.1587 -0.3840
  116OSM    HNF12102   6.410   3.296   6.911 -0.2993  0.3991 -2.7665
  116OSM    C2S12103   6.556   3.370   6.785  0.6048  1.0455 -0.3004
  116OSM    H2S12104   6.660   3.339   6.759 -0.4318 -2.0717 -1.2243
  116OSM    C3S12105   6.572   3.516   6.844  0.2032 -0.0185  0.7452
  116OSM    H3S12106   6.467   3.551   6.852 -0.8560 -2.1864 -1.9142
  116OSM     O312107   6.638   3.612   6.758  0.0259 -0.0328 -0.8339
  116OSM    HO312108   6.633   3.571   6.671 -1.8318 -2.6311  0.3462
  116OSM    C4S12109   6.625   3.509   6.985 -0.0881 -0.8328 -0.4903
  116OSM    H4S12110   6.552   3.518   7.066 -0.5136  1.5764 -1.0543
  116OSM    C5S12111   6.755   3.504   7.018  0.2511  0.2335  0.5629
  116OSM    H5S12112   6.837   3.479   6.950  1.3587  0.3293  1.8227
  116OSM    C6S12113   6.780   3.499   7.167  0.1589  0.5564  0.1601
  116OSM    H6S12114   6.876   3.552   7.185  1.6006 -1.7079 -0.4094
  116OSM    H6T12115   6.814   3.399   7.202  0.4757  0.8846  0.8081
  116OSM    C7S12116   6.684   3.552   7.277  0.6444  0.4654 -0.0004
  116OSM    H7S12117   6.588   3.496   7.285  0.3349  1.1845  1.6989
  116OSM    H7T12118   6.662   3.660   7.266 -0.6093  0.2822  0.6234
  116OSM    C8S12119   6.755   3.512   7.411 -0.3963  0.7197 -0.0904
  116OSM    H8S12120   6.852   3.564   7.421 -1.7277  3.5019 -0.5574
  116OSM    H8T12121   6.759   3.402   7.415  0.3349  0.7240 -0.5908
  116OSM    C9S12122   6.678   3.560   7.532 -0.3588 -0.1567 -0.0988
  116OSM    H9S12123   6.568   3.540   7.526 -0.3880 -0.4153  1.0047
  116OSM    H9T12124   6.694   3.670   7.538  2.3270 -0.5541  2.7265
  116OSM   C10S12125   6.738   3.497   7.662  0.0242  0.0784  0.4431
  116OSM   H10S12126   6.847   3.510   7.646 -0.3157  0.1632 -2.2461
  116OSM   H10T12127   6.727   3.387   7.653  0.7971  0.0986 -1.1107
  116OSM   C11S12128   6.681   3.558   7.791  0.0352 -0.6779  0.1228
  116OSM   H11S12129   6.574   3.533   7.807 -0.4891  1.7305  0.8812
  116OSM   H11T12130   6.672   3.669   7.794  1.5158 -0.5550  1.2935
  116OSM   C12S12131   6.767   3.525   7.912  0.5721 -0.2804 -0.5888
  116OSM   H12S12132   6.858   3.585   7.893 -0.0998  0.6363 -1.0164
  116OSM   H12T12133   6.787   3.416   7.911  0.4445 -0.4313  2.7238
  116OSM   C13S12134   6.712   3.581   8.045 -0.2140 -0.0670 -0.4531
  116OSM   H13S12135   6.617   3.528   8.066 -0.9252  0.8027 -1.3738
  116OSM   H13T12136   6.685   3.689   8.048 -2.2470 -0.5634  0.3030
  116OSM   C14S12137   6.808   3.561   8.165 -0.9474 -0.2116 -0.5127
  116OSM   H14S12138   6.878   3.647   8.171 -0.5602 -0.6177  1.4895
  116OSM   H14T12139   6.851   3.458   8.157  0.3173 -0.0692  2.8401
  116OSM   C15S12140   6.743   3.557   8.308  0.4611  0.2867  0.5028
  116OSM   H15S12141   6.813   3.506   8.377  2.0893  0.0601 -1.2426
  116OSM   H15T12142   6.673   3.471   8.302  1.9783 -1.0064  0.5901
  116OSM   C16S12143   6.682   3.682   8.357 -0.0795 -0.1287 -0.2268
  116OSM   H16S12144   6.613   3.732   8.285 -0.7828  1.2268  1.3106
  116OSM   H16T12145   6.770   3.745   8.381  0.2726  0.3161 -2.5215
  116OSM   C17S12146   6.601   3.655   8.496  0.6496 -0.1827  0.4263
  116OSM   H17S12147   6.530   3.571   8.479 -1.3535  1.8878 -2.6316
  116OSM   H17T12148   6.537   3.741   8.525  0.1041 -0.0832 -0.9892
  116OSM   C18S12149   6.691   3.613   8.616 -0.0078 -0.4313  0.4450
  116OSM   H18S12150   6.741   3.702   8.660  1.4565 -1.4436  0.8943
  116OSM   H18T12151   6.774   3.544   8.589  2.4225  1.9092  1.4388
  116OSM   H18U12152   6.634   3.580   8.706  0.9129  0.1933  1.2689
  116OSM    C1F12153   6.517   3.138   6.852 -0.4826 -0.7013  0.3685
  116OSM     OF12154   6.619   3.097   6.797 -0.5564  0.7311 -0.0840
  116OSM    C2F12155   6.410   3.047   6.895 -0.2238  0.5060 -0.1208
  116OSM    H2F12156   6.391   2.986   6.804  1.7059  3.3920 -2.6362
  116OSM    H2G12157   6.324   3.112   6.922  1.1795  1.3237  2.8703
  116OSM    C3F12158   6.454   2.949   7.008 -0.2207 -0.9222 -0.8562
  116OSM    H3F12159   6.516   2.874   6.955 -0.4943 -0.0792 -2.4244
  116OSM    H3G12160   6.365   2.890   7.041  1.0865 -2.2491  0.4215
  116OSM    C4F12161   6.512   3.011   7.137 -0.6743 -0.8633  0.3854
  116OSM    H4F12162   6.608   3.055   7.104 -2.0369  2.1789  0.1427
  116OSM    H4G12163   6.528   2.927   7.208  0.8409 -0.0571  1.0357
  116OSM    C5F12164   6.432   3.122   7.193  0.1499  0.0115  0.6521
  116OSM    H5F12165   6.335   3.077   7.225  1.0224 -1.3539  1.4788
  116OSM    H5G12166   6.410   3.201   7.119 -2.0527 -0.5099  0.6652
  116OSM    C6F12167   6.500   3.187   7.316  0.3554  0.2691  0.2548
  116OSM    H6F12168   6.459   3.289   7.334  1.8356  0.8964  0.2062
  116OSM    H6G12169   6.599   3.215   7.274 -0.3451  3.6592  0.6040
  116OSM    C7F12170   6.530   3.107   7.441  0.9871 -0.3111  0.3153
  116OSM    H7F12171   6.590   3.170   7.511 -2.4232  2.5515  0.9486
  116OSM    H7G12172   6.583   3.020   7.399  1.5796  0.0041  0.4056
  116OSM    C8F12173   6.403   3.080   7.528 -0.4905  0.0610  0.0838
  116OSM    H8F12174   6.432   3.003   7.603  1.0202  1.1974  0.7042
  116OSM    H8G12175   6.336   3.035   7.451  1.2580 -1.3726 -0.6954
  116OSM    C9F12176   6.342   3.206   7.588 -0.1530  0.3023  0.3289
  116OSM    H9F12177   6.292   3.270   7.513 -0.0772  0.0498  0.0630
  116OSM   C10F12178   6.368   3.248   7.710  0.1033 -0.3387  0.4172
  116OSM   H10F12179   6.319   3.340   7.746  0.3834 -0.7677  1.9691
  116OSM   C11F12180   6.454   3.181   7.816 -0.2734 -0.2861  0.1607
  116OSM   H11F12181   6.535   3.252   7.844  0.2076 -0.1798 -1.3849
  116OSM   H11G12182   6.518   3.107   7.763 -1.9355 -0.5496 -1.5777
  116OSM   C12F12183   6.385   3.107   7.930 -1.0254  0.2091 -0.1567
  116OSM   H12F12184   6.328   3.014   7.909  0.1407 -0.5660  0.0332
  116OSM   H12G12185   6.321   3.175   7.991  0.6493 -0.0113  1.9518
  116OSM   C13F12186   6.499   3.048   8.025  0.2185 -0.1169 -0.5820
  116OSM   H13F12187   6.552   2.971   7.965 -1.1361 -1.7170  0.1782
  116OSM   H13G12188   6.462   2.988   8.111  3.4525  0.6082  1.4969
  116OSM   C14F12189   6.589   3.148   8.102  0.0821  0.0765  0.1835
  116OSM   H14F12190   6.524   3.209   8.168 -0.2967 -0.2625  0.1251
  116OSM   H14G12191   6.634   3.215   8.025  0.7322 -0.3016  0.2255
  116OSM   C15F12192   6.694   3.078   8.178 -0.7444  0.3705 -0.4913
  116OSM   H15F12193   6.785   3.053   8.120 -1.6537  3.7038 -3.7371
  116OSM   H15G12194   6.654   2.991   8.233 -0.1188  0.5398  0.2525
  116OSM   C16F12195   6.761   3.163   8.291 -0.1053 -0.1741 -0.1248
  116OSM   H16F12196   6.687   3.217   8.355  0.8023  1.3744 -0.3261
  116OSM   H16G12197   6.824   3.238   8.239  2.1088  0.5469  3.2127
  116OSM   C17F12198   6.869   3.092   8.382 -0.2830 -0.2529  0.6918
  116OSM   H17F12199   6.825   3.004   8.435 -1.3037 -0.6143 -0.6969
  116OSM   H17G12200   6.907   3.164   8.457 -0.8451  2.0224 -1.1089
  116OSM   C18F12201   6.991   3.049   8.304  0.4590  0.3518 -0.2354
  116OSM   H18F12202   7.024   3.118   8.223 -0.1503  1.2503  0.2727
  116OSM   H18G12203   6.961   2.958   8.247  2.7056  0.1536 -1.2235
  116OSM   H18H12204   7.080   3.030   8.368 -0.9589 -2.7132  1.0434
  117OSM      N12205   4.509   3.012   6.060  0.0274  0.2002 -0.2317
  117OSM    C1512206   4.551   3.148   6.113  0.1155 -0.0542 -0.0623
  117OSM   H15A12207   4.637   3.144   6.178  0.0444  0.8567  0.0900
  117OSM   H15B12208   4.466   3.185   6.168  0.7904  1.7648 -0.1775
  117OSM   H15C12209   4.577   3.225   6.042  1.3894 -1.2640 -0.9903
  117OSM    C1412210   4.372   3.020   5.994  0.1014 -0.3875  0.2119
  117OSM   H14A12211   4.362   2.936   5.927 -2.2315  0.1492 -0.1838
  117OSM   H14B12212   4.359   3.115   5.944 -0.8429 -0.3635  0.4946
  117OSM   H14C12213   4.300   3.008   6.073 -0.3214  1.7164  0.1999
  117OSM    C1312214   4.607   2.970   5.944  0.4897 -0.2285 -0.2417
  117OSM   H13A12215   4.706   2.961   5.987  0.2187  1.6611  0.9159
  117OSM   H13B12216   4.613   3.042   5.863  0.8064 -1.4266 -1.3041
  117OSM   H13C12217   4.568   2.887   5.888  0.3767  0.8037 -1.7676
  117OSM    C1212218   4.514   2.901   6.163 -0.7627  0.1428 -0.1680
  117OSM   H12A12219   4.619   2.890   6.187 -0.7906  0.3327  0.0426
  117OSM   H12B12220   4.480   2.807   6.123 -0.9136  0.0146  0.2493
  117OSM    C1112221   4.442   2.922   6.292 -0.7396  0.2704 -0.3863
  117OSM   H11A12222   4.472   3.021   6.335 -1.7414  0.8275 -0.9405
  117OSM   H11B12223   4.490   2.844   6.355  1.5507  1.4286 -0.5600
  117OSM      P12224   4.229   2.775   6.277  0.0948  0.4606  0.1980
  117OSM    O1312225   4.087   2.796   6.240 -0.8224 -0.1658 -0.1433
  117OSM    O1412226   4.309   2.691   6.184 -0.0134 -0.2061  0.3379
  117OSM    O1112227   4.245   2.724   6.426 -0.0623 -0.8389  0.9477
  117OSM    O1212228   4.299   2.913   6.286  0.8117 -0.6912  0.1441
  117OSM    C1S12229   4.129   2.747   6.515 -0.5449  0.5394 -0.6099
  117OSM    H1S12230   4.055   2.668   6.490  2.0839 -1.7236 -1.6875
  117OSM    H1T12231   4.075   2.844   6.515  0.4696  1.1199 -0.0232
  117OSM     NF12232   4.020   2.714   6.736  0.5745  0.4942 -0.3352
  117OSM    HNF12233   3.986   2.805   6.755  1.1711  1.2073 -2.3354
  117OSM    C2S12234   4.154   2.708   6.669 -0.0095 -0.4717  0.3924
  117OSM    H2S12235   4.193   2.605   6.656 -1.0389 -0.6569 -1.6213
  117OSM    C3S12236   4.264   2.801   6.730 -0.0217 -0.2445  0.4096
  117OSM    H3S12237   4.233   2.907   6.718 -1.7281 -0.8011 -0.3249
  117OSM     O312238   4.373   2.800   6.639  0.2387  0.4359  0.3735
  117OSM    HO312239   4.332   2.780   6.554  0.2193 -1.5974  0.8152
  117OSM    C4S12240   4.288   2.771   6.878  0.4519 -0.3470  0.4107
  117OSM    H4S12241   4.195   2.757   6.936  0.3698  0.0632  0.3812
  117OSM    C5S12242   4.405   2.758   6.941 -0.1755 -0.5089  0.5081
  117OSM    H5S12243   4.500   2.776   6.889 -2.1544  0.1119 -3.1562
  117OSM    C6S12244   4.415   2.736   7.086  0.3565 -0.2029  0.2762
  117OSM    H6S12245   4.516   2.692   7.097  2.2547  2.7418 -3.1409
  117OSM    H6T12246   4.333   2.671   7.123 -0.7626 -0.2407 -2.1029
  117OSM    C7S12247   4.416   2.870   7.164 -0.1756 -0.9562 -0.8717
  117OSM    H7S12248   4.311   2.905   7.173 -0.0210 -0.6200 -0.3490
  117OSM    H7T12249   4.478   2.946   7.112 -1.0923 -0.5394 -1.3885
  117OSM    C8S12250   4.476   2.879   7.304  0.0655 -0.0577 -0.1225
  117OSM    H8S12251   4.491   2.982   7.341 -0.8332 -0.4981  1.5845
  117OSM    H8T12252   4.581   2.843   7.300 -0.4176 -1.4639 -0.8085
  117OSM    C9S12253   4.391   2.808   7.415  0.1354 -0.1266  0.3920
  117OSM    H9S12254   4.366   2.711   7.368 -0.8549  0.4681 -0.3446
  117OSM    H9T12255   4.290   2.845   7.443  0.7976  0.7797  1.7539
  117OSM   C10S12256   4.467   2.799   7.545  1.0590 -0.0953  0.4860
  117OSM   H10S12257   4.507   2.902   7.553 -1.0033  0.8280 -0.2900
  117OSM   H10T12258   4.554   2.730   7.543 -0.6404 -2.3903  1.3404
  117OSM   C11S12259   4.379   2.765   7.671 -0.2981  0.2889  0.9452
  117OSM   H11S12260   4.313   2.677   7.658 -1.1781  0.7471  2.1514
  117OSM   H11T12261   4.319   2.853   7.702 -1.0069  0.1939 -0.1114
  117OSM   C12S12262   4.475   2.733   7.787  0.3695 -0.1107  0.9818
  117OSM   H12S12263   4.541   2.647   7.769  1.8102  1.0579  0.4903
  117OSM   H12T12264   4.412   2.708   7.875  0.1645 -3.0371  0.1127
  117OSM   C13S12265   4.563   2.856   7.821  0.2472  0.3272  0.0467
  117OSM   H13S12266   4.503   2.933   7.874 -2.2703 -1.6805  0.3772
  117OSM   H13T12267   4.601   2.907   7.730 -0.0296  1.2252  0.4195
  117OSM   C14S12268   4.686   2.826   7.914  0.0909  1.1203  0.7179
  117OSM   H14S12269   4.726   2.928   7.932 -0.0206  1.4267 -0.7054
  117OSM   H14T12270   4.760   2.772   7.852 -0.4200  0.7707  0.4060
  117OSM   C15S12271   4.644   2.740   8.031 -0.4004  0.6045 -0.4353
  117OSM   H15S12272   4.631   2.632   8.009 -0.9490 -0.0878  2.7856
  117OSM   H15T12273   4.542   2.772   8.060  0.1564  2.5974 -0.5015
  117OSM   C16S12274   4.747   2.755   8.141  0.1086  0.3033  0.2641
  117OSM   H16S12275   4.763   2.862   8.165 -0.7389  0.4952 -0.0060
  117OSM   H16T12276   4.839   2.711   8.097  0.2917  0.9998 -0.0630
  117OSM   C17S12277   4.719   2.671   8.265  0.0782 -0.0913 -0.2711
  117OSM   H17S12278   4.711   2.561   8.253 -2.2313 -0.1116  0.7398
  117OSM   H17T12279   4.618   2.709   8.294  0.5056  2.7877 -2.1689
  117OSM   C18S12280   4.807   2.715   8.386  0.2990 -0.1241  0.3937
  117OSM   H18S12281   4.909   2.676   8.364  0.2935  0.3341 -0.4770
  117OSM   H18T12282   4.790   2.666   8.484  0.2243  1.8649  1.4372
  117OSM   H18U12283   4.816   2.825   8.395  0.2727  0.0106 -1.0149
  117OSM    C1F12284   3.941   2.606   6.724  0.7988  0.1421  0.1026
  117OSM     OF12285   3.987   2.499   6.681  0.6652  0.1696 -0.8939
  117OSM    C2F12286   3.803   2.616   6.768  0.2601 -0.8271  0.4424
  117OSM    H2F12287   3.735   2.608   6.681  0.8787 -1.5389  0.0082
  117OSM    H2G12288   3.794   2.718   6.810 -1.2646 -0.1213 -1.4557
  117OSM    C3F12289   3.762   2.511   6.866  0.0176  0.1013  0.0669
  117OSM    H3F12290   3.774   2.410   6.822  0.4450 -0.7105  1.9124
  117OSM    H3G12291   3.652   2.525   6.874 -0.1937 -0.7926 -0.9995
  117OSM    C4F12292   3.824   2.525   7.003  0.0667  0.4575  0.3614
  117OSM    H4F12293   3.935   2.517   6.994  0.1884  2.3590 -0.2272
  117OSM    H4G12294   3.791   2.437   7.063 -1.4904  1.0955  0.4816
  117OSM    C5F12295   3.801   2.660   7.072 -0.3155 -0.3857 -0.2947
  117OSM    H5F12296   3.692   2.675   7.062 -0.4243 -0.4231  0.7524
  117OSM    H5G12297   3.857   2.741   7.020 -0.4875 -0.1333 -0.0909
  117OSM    C6F12298   3.833   2.660   7.224 -0.5092  0.0784 -0.3186
  117OSM    H6F12299   3.851   2.553   7.249  2.2179  0.7511  1.0279
  117OSM    H6G12300   3.748   2.699   7.283  0.2785 -1.2091  1.7944
  117OSM    C7F12301   3.952   2.749   7.255  0.2101 -0.4243  0.2518
  117OSM    H7F12302   3.926   2.856   7.242 -3.4019 -1.1606  0.2401
  117OSM    H7G12303   4.042   2.729   7.194  0.6557 -1.9425  1.3585
  117OSM    C8F12304   3.988   2.743   7.407  0.4374 -0.4177  0.1398
  117OSM    H8F12305   3.909   2.788   7.472  0.6359 -0.6208  0.5256
  117OSM    H8G12306   4.083   2.799   7.409  1.4115 -1.9449 -1.2265
  117OSM    C9F12307   4.031   2.601   7.434  0.7275 -0.3720 -0.6399
  117OSM    H9F12308   4.106   2.572   7.358  1.1166  1.1282 -0.8713
  117OSM   C10F12309   4.000   2.525   7.537 -0.0361  0.3320 -0.2182
  117OSM   H10F12310   4.034   2.421   7.532 -0.9631 -0.0792  1.3231
  117OSM   C11F12311   3.914   2.565   7.651  0.0972  0.9792 -0.2419
  117OSM   H11F12312   3.869   2.477   7.703 -0.0384  2.3307  2.0671
  117OSM   H11G12313   3.828   2.624   7.612  1.0872  1.0426 -2.4805
  117OSM   C12F12314   3.990   2.645   7.758  0.7180  0.2773  0.3378
  117OSM   H12F12315   3.913   2.684   7.828 -0.7381 -2.6953  0.5521
  117OSM   H12G12316   4.041   2.732   7.711  2.3258 -0.4230  0.7461
  117OSM   C13F12317   4.087   2.552   7.838  0.0033 -0.5107  0.1334
  117OSM   H13F12318   4.166   2.512   7.771  0.4108 -0.5747  0.6453
  117OSM   H13G12319   4.039   2.454   7.855  1.1632 -1.0273  0.5246
  117OSM   C14F12320   4.136   2.612   7.974  0.0132 -0.6526  0.7262
  117OSM   H14F12321   4.124   2.722   7.975  1.6912 -0.4384  0.0273
  117OSM   H14G12322   4.245   2.599   7.991  0.5831  1.1972 -1.1018
  117OSM   C15F12323   4.060   2.548   8.095  0.3487 -0.3365 -0.4621
  117OSM   H15F12324   4.087   2.441   8.103 -0.2650 -0.3944  1.1626
  117OSM   H15G12325   3.952   2.563   8.073 -0.4401  0.1329  3.1238
  117OSM   C16F12326   4.091   2.618   8.225 -0.2746 -0.0535 -0.1968
  117OSM   H16F12327   4.034   2.566   8.306 -2.2597 -0.3100 -1.6753
  117OSM   H16G12328   4.055   2.722   8.210  0.8198  0.0286 -2.7761
  117OSM   C17F12329   4.237   2.613   8.267  0.2026 -0.0026  0.3078
  117OSM   H17F12330   4.267   2.506   8.265  0.4473  0.0649 -1.1777
  117OSM   H17G12331   4.277   2.673   8.182 -2.2328  1.9588  0.4128
  117OSM   C18F12332   4.279   2.683   8.395  0.2070  0.2228 -0.1501
  117OSM   H18F12333   4.229   2.778   8.425 -2.3208 -0.5992 -1.5519
  117OSM   H18G12334   4.389   2.696   8.399  0.3099 -0.6668  0.2151
  117OSM   H18H12335   4.258   2.610   8.476 -0.3866 -0.6618 -1.0863
  118OSM      N12336   5.932   6.557   5.760  0.4264 -0.5322  0.5891
  118OSM    C1512337   5.961   6.454   5.656 -0.8530  0.1794 -0.1204
  118OSM   H15A12338   5.914   6.361   5.683 -1.6613  0.3225 -0.9915
  118OSM   H15B12339   6.067   6.432   5.656 -0.8261  0.2841 -1.2400
  118OSM   H15C12340   5.939   6.483   5.555  0.7778 -0.4485 -0.6818
  118OSM    C1412341   6.040   6.665   5.754 -0.0156 -0.0190  0.3781
  118OSM   H14A12342   6.043   6.704   5.654 -1.3735 -0.4145  0.1696
  118OSM   H14B12343   6.135   6.615   5.769 -0.9132 -2.0021 -0.2343
  118OSM   H14C12344   6.019   6.731   5.837  0.3546 -0.1859  0.6079
  118OSM    C1312345   5.793   6.604   5.755 -0.0881  0.2094 -0.0254
  118OSM   H13A12346   5.785   6.677   5.835  1.2503 -0.3263  0.6423
  118OSM   H13B12347   5.726   6.522   5.776  1.2162 -1.1710 -1.0575
  118OSM   H13C12348   5.771   6.643   5.657  0.6868 -0.0243 -0.3000
  118OSM    C1212349   5.951   6.490   5.901 -0.2557 -0.2932 -0.8070
  118OSM   H12A12350   6.054   6.459   5.904  0.4019  1.2949 -3.6125
  118OSM   H12B12351   5.882   6.408   5.906 -0.0472 -0.4466 -0.4192
  118OSM    C1112352   5.925   6.582   6.025 -0.4677 -0.3658 -0.3610
  118OSM   H11A12353   5.974   6.681   6.014  0.8377 -1.1238 -1.7266
  118OSM   H11B12354   5.975   6.542   6.116  0.6305  4.2209  1.3486
  118OSM      P12355   5.704   6.480   6.094  0.0125 -0.0663 -0.1553
  118OSM    O1312356   5.571   6.489   6.023  0.1511  0.5628  0.0407
  118OSM    O1412357   5.777   6.350   6.079 -0.0778 -0.0482 -0.0423
  118OSM    O1112358   5.685   6.506   6.250  0.1199 -1.0167  0.1126
  118OSM    O1212359   5.787   6.608   6.039  0.8464  0.1139  0.2916
  118OSM    C1S12360   5.802   6.507   6.332 -0.9049 -0.3158  0.2775
  118OSM    H1S12361   5.843   6.610   6.329 -0.3329 -0.5496 -0.2447
  118OSM    H1T12362   5.889   6.447   6.298  0.7031  1.2916  1.4039
  118OSM     NF12363   5.852   6.507   6.578  0.0630  0.4522  0.1257
  118OSM    HNF12364   5.926   6.459   6.624  0.8788  0.1786 -1.4264
  118OSM    C2S12365   5.766   6.445   6.480  0.3093 -0.5373 -0.2558
  118OSM    H2S12366   5.663   6.478   6.506  0.5082 -0.6133  0.6639
  118OSM    C3S12367   5.771   6.295   6.465 -0.5104 -0.4371 -0.2464
  118OSM    H3S12368   5.871   6.269   6.423 -0.5444 -1.6026  0.3718
  118OSM     O312369   5.684   6.256   6.356 -0.6164  0.2937  0.3068
  118OSM    HO312370   5.651   6.337   6.316 -2.7973  0.4044  2.1510
  118OSM    C4S12371   5.737   6.209   6.590 -0.2077  0.2218 -0.2936
  118OSM    H4S12372   5.816   6.194   6.666 -1.9929 -1.5189  1.3333
  118OSM    C5S12373   5.627   6.138   6.619  0.1121  0.2216  0.1036
  118OSM    H5S12374   5.552   6.135   6.538 -0.7475  1.9440  0.7913
  118OSM    C6S12375   5.591   6.063   6.745  0.1602  0.0480 -0.5889
  118OSM    H6S12376   5.618   5.956   6.737 -1.8560 -0.6762  1.2261
  118OSM    H6T12377   5.480   6.057   6.748  0.1106  0.5283 -1.4417
  118OSM    C7S12378   5.653   6.126   6.867  0.1849  0.7433 -1.3515
  118OSM    H7S12379   5.610   6.226   6.889 -2.6367 -0.4227 -1.2171
  118OSM    H7T12380   5.762   6.145   6.855  0.3831  0.6378  0.1229
  118OSM    C8S12381   5.634   6.040   6.996 -0.8806  0.2256 -0.2780
  118OSM    H8S12382   5.673   5.938   6.975  2.1451  0.9465  1.3066
  118OSM    H8T12383   5.527   6.027   7.023 -0.7731  0.7265  0.4125
  118OSM    C9S12384   5.705   6.104   7.118 -0.1097 -0.6564  0.0188
  118OSM    H9S12385   5.658   6.204   7.131 -0.1784 -0.5790 -0.7556
  118OSM    H9T12386   5.806   6.131   7.081 -0.4388  0.1005 -0.3536
  118OSM   C10S12387   5.706   6.021   7.247 -0.4434 -0.6383  0.3824
  118OSM   H10S12388   5.752   5.920   7.237 -0.2185 -0.4652 -0.3729
  118OSM   H10T12389   5.602   5.986   7.263 -0.8598 -1.1542 -2.8270
  118OSM   C11S12390   5.759   6.091   7.372  0.8756  0.6090 -0.6440
  118OSM   H11S12391   5.710   6.190   7.371 -0.1983  0.0890 -1.0311
  118OSM   H11T12392   5.867   6.107   7.351  0.3119  3.1198 -1.9665
  118OSM   C12S12393   5.744   6.014   7.505 -0.2887  0.5286  0.0992
  118OSM   H12S12394   5.816   5.931   7.519  1.3713  1.8577 -0.2266
  118OSM   H12T12395   5.637   5.990   7.525 -0.3911  1.0431  0.2046
  118OSM   C13S12396   5.774   6.116   7.622 -0.2138 -0.7819  0.2294
  118OSM   H13S12397   5.709   6.206   7.622 -0.7543 -1.1626  1.1809
  118OSM   H13T12398   5.882   6.142   7.626 -0.3214 -0.3439  0.3403
  118OSM   C14S12399   5.738   6.057   7.759  0.0567  0.1068 -0.2685
  118OSM   H14S12400   5.813   5.979   7.785  1.4579  1.6970  0.6686
  118OSM   H14T12401   5.640   6.005   7.758  1.0823 -2.0263  1.6104
  118OSM   C15S12402   5.759   6.141   7.882  0.2876 -0.4458 -0.6996
  118OSM   H15S12403   5.679   6.217   7.893  0.6303 -0.4266  2.3272
  118OSM   H15T12404   5.862   6.181   7.868  0.6805 -0.9125  0.7553
  118OSM   C16S12405   5.766   6.060   8.014 -0.4091 -0.5014 -0.3468
  118OSM   H16S12406   5.789   6.122   8.103  0.1711 -2.0551  0.6200
  118OSM   H16T12407   5.855   5.995   7.997 -0.8484 -0.6275 -2.5280
  118OSM   C17S12408   5.642   5.975   8.050  1.1488 -0.3745  0.3068
  118OSM   H17S12409   5.608   5.905   7.971 -1.0166 -1.3955  2.0537
  118OSM   H17T12410   5.569   6.049   8.088  2.5501  0.6475  1.1347
  118OSM   C18S12411   5.673   5.879   8.165  0.2217  0.1209 -0.8901
  118OSM   H18S12412   5.770   5.826   8.148  0.5724  0.1341  0.9063
  118OSM   H18T12413   5.584   5.813   8.172 -0.0616  0.4796 -1.1072
  118OSM   H18U12414   5.695   5.947   8.250  1.9073 -2.1259  0.5920
  118OSM    C1F12415   5.840   6.636   6.615 -0.0335  0.3627 -0.1737
  118OSM     OF12416   5.764   6.714   6.562  0.1783  0.2161  0.0902
  118OSM    C2F12417   5.925   6.679   6.734  0.1977  0.4005 -0.9607
  118OSM    H2F12418   5.953   6.786   6.733 -3.5284  1.5903  1.4025
  118OSM    H2G12419   6.013   6.612   6.729  1.1053  1.5011 -0.3563
  118OSM    C3F12420   5.853   6.651   6.876  0.0457 -0.1571  0.0394
  118OSM    H3F12421   5.831   6.542   6.876 -2.0920  0.2221 -0.6547
  118OSM    H3G12422   5.754   6.702   6.877 -0.2729 -0.6907 -1.7149
  118OSM    C4F12423   5.926   6.700   6.999 -0.2867  0.4808 -0.0598
  118OSM    H4F12424   5.928   6.810   6.988  0.5357  0.2808 -2.6972
  118OSM    H4G12425   6.023   6.646   6.989 -0.5890  0.0194 -0.5607
  118OSM    C5F12426   5.862   6.666   7.135 -0.2738  0.0589  0.0049
  118OSM    H5F12427   5.858   6.555   7.134 -0.4283  0.0671 -0.5570
  118OSM    H5G12428   5.755   6.693   7.150  0.2701  3.0635 -0.8306
  118OSM    C6F12429   5.941   6.708   7.264 -0.3478 -0.2890  0.4155
  118OSM    H6F12430   5.942   6.819   7.261 -0.8942 -0.2692  0.7484
  118OSM    H6G12431   6.045   6.677   7.243  0.0506  1.2765 -0.0945
  118OSM    C7F12432   5.892   6.661   7.400 -0.3286  0.3951  0.3825
  118OSM    H7F12433   5.881   6.550   7.390 -0.1926 -0.0115  3.6450
  118OSM    H7G12434   5.786   6.689   7.413 -0.1069  1.8629 -0.6932
  118OSM    C8F12435   5.978   6.703   7.526 -0.3064 -0.2340  0.2878
  118OSM    H8F12436   6.010   6.808   7.510  0.4573 -0.2043  1.8136
  118OSM    H8G12437   6.071   6.643   7.517 -0.4906 -0.3091 -1.4615
  118OSM    C9F12438   5.904   6.680   7.656  0.1606 -0.1886  0.1752
  118OSM    H9F12439   5.824   6.754   7.672 -0.3721 -0.7228 -0.0039
  118OSM   C10F12440   5.929   6.587   7.745 -0.4427  0.3242 -0.4729
  118OSM   H10F12441   5.870   6.577   7.838 -0.7643  4.9965  0.0590
  118OSM   C11F12442   6.035   6.480   7.738 -0.8179  0.4667  0.1084
  118OSM   H11F12443   6.099   6.486   7.648  1.2350  0.7985  1.5336
  118OSM   H11G12444   5.992   6.378   7.722  0.4231  0.0080 -0.4099
  118OSM   C12F12445   6.140   6.480   7.849  0.2753 -0.0915 -0.2157
  118OSM   H12F12446   6.138   6.580   7.898 -1.6389 -0.7648  1.1764
  118OSM   H12G12447   6.246   6.477   7.817 -0.2914 -2.3231 -2.1351
  118OSM   C13F12448   6.110   6.364   7.955  0.3393  0.5766 -0.2552
  118OSM   H13F12449   6.109   6.274   7.889  1.4317 -0.8706  1.6005
  118OSM   H13G12450   6.011   6.377   8.004  0.7093  2.0426  0.1590
  118OSM   C14F12451   6.224   6.349   8.060  0.2704  0.4745  0.1451
  118OSM   H14F12452   6.227   6.441   8.124  1.0460 -0.9484  2.2593
  118OSM   H14G12453   6.319   6.338   8.004  0.5641 -0.3420  0.7771
  118OSM   C15F12454   6.196   6.232   8.155 -0.5624 -0.2281  0.2050
  118OSM   H15F12455   6.185   6.133   8.107  0.0200 -0.2626  0.1445
  118OSM   H15G12456   6.095   6.243   8.201  0.5102 -1.0733  2.9890
  118OSM   C16F12457   6.301   6.220   8.269  0.3725 -0.1724 -0.1597
  118OSM   H16F12458   6.305   6.309   8.337  0.9465 -0.2460 -0.0911
  118OSM   H16G12459   6.403   6.210   8.226  1.5532  0.8662  2.1609
  118OSM   C17F12460   6.286   6.095   8.360  0.0814  0.1322 -0.3353
  118OSM   H17F12461   6.303   6.006   8.296  2.3966 -0.8766  1.5293
  118OSM   H17G12462   6.184   6.075   8.400 -0.6077  2.7681 -0.6119
  118OSM   C18F12463   6.389   6.086   8.476  0.4269 -0.1599  0.3546
  118OSM   H18F12464   6.383   5.982   8.516 -0.1416 -0.3536 -0.2104
  118OSM   H18G12465   6.357   6.158   8.554  1.8026  2.3925 -1.3107
  118OSM   H18H12466   6.489   6.108   8.434 -0.5186  1.4965 -1.1482
  119OSM      N12467   1.263   0.642   5.593 -0.4590 -0.4584  0.3333
  119OSM    C1512468   1.284   0.713   5.721  0.4342 -0.3214  0.0749
  119OSM   H15A12469   1.256   0.817   5.709 -0.9675 -0.6470  0.3239
  119OSM   H15B12470   1.388   0.709   5.750  0.6741  1.1494 -0.5015
  119OSM   H15C12471   1.219   0.676   5.799  0.8884 -0.4733  0.3805
  119OSM    C1412472   1.120   0.650   5.546 -0.6544  0.0349  0.6669
  119OSM   H14A12473   1.090   0.753   5.557  3.4602  1.9667 -3.2762
  119OSM   H14B12474   1.051   0.586   5.600  0.6170 -2.5862 -0.5909
  119OSM   H14C12475   1.108   0.614   5.444 -0.7392  1.6058  0.1056
  119OSM    C1312476   1.355   0.723   5.497 -0.0933  0.2350  0.1418
  119OSM   H13A12477   1.459   0.697   5.504  0.1181  0.5988 -1.3918
  119OSM   H13B12478   1.343   0.830   5.513 -1.0007  0.5464 -2.2627
  119OSM   H13C12479   1.308   0.706   5.402 -1.3013 -1.6978  1.0335
  119OSM    C1212480   1.322   0.506   5.599  0.4325  0.5489  0.3640
  119OSM   H12A12481   1.423   0.527   5.632  0.6193  0.9158 -0.3972
  119OSM   H12B12482   1.338   0.470   5.498  2.4154  0.7509  0.5667
  119OSM    C1112483   1.249   0.415   5.698 -0.4304 -0.3121 -0.3399
  119OSM   H11A12484   1.300   0.318   5.679 -0.2167  0.1791 -2.5180
  119OSM   H11B12485   1.142   0.415   5.666 -0.3174  0.0622 -0.7312
  119OSM      P12486   1.396   0.424   5.919 -0.0170  0.4477  0.1882
  119OSM    O1312487   1.446   0.286   5.904  0.3200  0.2777 -0.0656
  119OSM    O1412488   1.487   0.539   5.883  0.4038 -0.5151 -0.0000
  119OSM    O1112489   1.346   0.443   6.070 -0.5571 -0.9509  0.2762
  119OSM    O1212490   1.262   0.454   5.836  0.2026  0.2975 -0.3839
  119OSM    C1S12491   1.434   0.429   6.180 -0.2641 -0.1161 -0.1719
  119OSM    H1S12492   1.535   0.471   6.162 -0.5305  0.4425 -0.3912
  119OSM    H1T12493   1.452   0.321   6.199  1.3060 -0.0516 -1.1608
  119OSM     NF12494   1.468   0.443   6.427 -0.2817  0.2573  0.9358
  119OSM    HNF12495   1.442   0.371   6.491 -1.2556 -0.5169 -0.2895
  119OSM    C2S12496   1.372   0.485   6.314 -0.3557  0.5439  0.1664
  119OSM    H2S12497   1.369   0.596   6.314  0.7419  0.6063  1.5753
  119OSM    C3S12498   1.226   0.417   6.318 -0.0407  0.0110 -0.4413
  119OSM    H3S12499   1.243   0.307   6.317 -1.4037 -0.2629  1.5589
  119OSM     O312500   1.126   0.457   6.228  0.1039 -0.2509 -0.0787
  119OSM    HO312501   1.175   0.480   6.149 -0.6046  1.3008 -0.1145
  119OSM    C4S12502   1.168   0.451   6.454  0.2359 -0.5655 -0.0605
  119OSM    H4S12503   1.121   0.550   6.463 -0.8333 -0.8731 -1.7642
  119OSM    C5S12504   1.165   0.359   6.552 -0.0756 -0.3640  0.8285
  119OSM    H5S12505   1.217   0.267   6.521  0.4903  0.3166 -0.2619
  119OSM    C6S12506   1.119   0.368   6.694  0.1217  0.2523 -0.6220
  119OSM    H6S12507   1.035   0.297   6.710  0.3286  0.3179  0.8368
  119OSM    H6T12508   1.076   0.465   6.726 -1.6929 -1.2839  2.0712
  119OSM    C7S12509   1.220   0.323   6.799  0.5618 -0.3217  0.3804
  119OSM    H7S12510   1.289   0.402   6.837 -0.5902 -0.3530  2.7258
  119OSM    H7T12511   1.274   0.232   6.768 -1.7424 -1.9506  0.9119
  119OSM    C8S12512   1.147   0.285   6.930  0.2420 -0.4893 -0.0427
  119OSM    H8S12513   1.076   0.206   6.900  0.0091 -0.6488  0.9240
  119OSM    H8T12514   1.081   0.369   6.961 -0.8540 -0.5860 -1.9808
  119OSM    C9S12515   1.238   0.237   7.035 -0.2306 -0.5334 -1.3537
  119OSM    H9S12516   1.299   0.323   7.069  0.3679 -1.3522 -0.2867
  119OSM    H9T12517   1.300   0.156   6.990  0.5791 -0.1809 -0.8861
  119OSM   C10S12518   1.167   0.168   7.158 -0.5898 -0.0708 -0.5044
  119OSM   H10S12519   1.246   0.115   7.214 -1.1149  0.1504  0.4561
  119OSM   H10T12520   1.104   0.086   7.117 -0.0879 -0.6016 -0.2352
  119OSM   C11S12521   1.092   0.268   7.240 -0.0697 -0.0688 -0.2416
  119OSM   H11S12522   0.991   0.286   7.196  0.6173 -0.0207 -1.8522
  119OSM   H11T12523   1.155   0.359   7.241  0.1752 -0.2415  0.1419
  119OSM   C12S12524   1.080   0.224   7.393 -0.0478 -0.1430  0.2370
  119OSM   H12S12525   1.177   0.177   7.417 -0.0851  0.0750  0.8379
  119OSM   H12T12526   1.003   0.145   7.409  0.6979 -1.4486 -2.0519
  119OSM   C13S12527   1.079   0.347   7.485  0.2331 -0.0104 -0.1955
  119OSM   H13S12528   0.981   0.396   7.470 -1.4984 -3.3978 -0.9657
  119OSM   H13T12529   1.163   0.412   7.454 -0.3928  1.0295  0.2259
  119OSM   C14S12530   1.090   0.314   7.632  0.2554 -0.2279  0.3677
  119OSM   H14S12531   1.190   0.269   7.646  0.9815  1.2090 -0.1183
  119OSM   H14T12532   1.013   0.241   7.667 -0.2712 -0.0547 -0.3931
  119OSM   C15S12533   1.093   0.443   7.719  0.1891  0.0121  0.4305
  119OSM   H15S12534   0.992   0.487   7.736 -2.0102 -3.3072 -2.6682
  119OSM   H15T12535   1.158   0.523   7.678  1.3988 -1.1085  0.1187
  119OSM   C16S12536   1.135   0.420   7.866 -0.3162  0.0572  0.0376
  119OSM   H16S12537   1.124   0.516   7.920 -1.5098 -0.5914  0.9915
  119OSM   H16T12538   1.240   0.383   7.870 -0.3870 -0.0401  1.4372
  119OSM   C17S12539   1.045   0.321   7.939 -0.3335  0.0215  0.7587
  119OSM   H17S12540   1.054   0.217   7.901 -0.9318  0.2439 -0.0273
  119OSM   H17T12541   0.945   0.368   7.928  0.5995  2.0182  0.3280
  119OSM   C18S12542   1.072   0.326   8.088  0.3016 -0.0592  0.7236
  119OSM   H18S12543   1.036   0.424   8.126 -1.3404 -0.4055  0.1254
  119OSM   H18T12544   1.181   0.305   8.097  0.6951  1.2395 -0.5444
  119OSM   H18U12545   1.005   0.250   8.132 -1.9278  0.6653 -1.1758
  119OSM    C1F12546   1.583   0.505   6.454  0.1443  0.4950 -0.1526
  119OSM     OF12547   1.634   0.594   6.385 -0.2367  0.0080  0.2381
  119OSM    C2F12548   1.657   0.464   6.585  0.1975 -0.1776 -0.4183
  119OSM    H2F12549   1.734   0.389   6.553  0.1760 -0.2422 -0.3197
  119OSM    H2G12550   1.583   0.406   6.644  0.7185  1.0743  1.5524
  119OSM    C3F12551   1.725   0.582   6.657  0.5209 -0.1984  0.2622
  119OSM    H3F12552   1.658   0.669   6.674  1.9779  0.5109  3.0789
  119OSM    H3G12553   1.802   0.612   6.582 -0.4148  1.9054  0.0657
  119OSM    C4F12554   1.791   0.556   6.798 -0.6824 -0.4858 -0.0220
  119OSM    H4F12555   1.845   0.648   6.828 -0.1760 -1.1036  1.0571
  119OSM    H4G12556   1.871   0.479   6.789 -1.0974 -0.9890  0.4995
  119OSM    C5F12557   1.684   0.511   6.901  0.4601 -0.5922 -0.1697
  119OSM    H5F12558   1.615   0.435   6.860 -0.4682 -1.2611  2.4842
  119OSM    H5G12559   1.623   0.604   6.909  0.5296 -0.5208 -0.4621
  119OSM    C6F12560   1.726   0.477   7.041  0.1872  0.8081 -0.0543
  119OSM    H6F12561   1.805   0.546   7.079 -0.3650  1.2399  0.3454
  119OSM    H6G12562   1.767   0.375   7.047 -1.0749  0.3583  3.2548
  119OSM    C7F12563   1.604   0.488   7.125  0.2647  0.1163 -0.2433
  119OSM    H7F12564   1.516   0.437   7.079  0.2221 -0.6337  0.6428
  119OSM    H7G12565   1.575   0.595   7.130 -1.2180 -0.2963  0.8513
  119OSM    C8F12566   1.626   0.421   7.269  0.0100 -0.0815  0.6065
  119OSM    H8F12567   1.706   0.471   7.328  0.2137 -0.8588  1.0007
  119OSM    H8G12568   1.662   0.319   7.244 -0.4245 -0.2696  0.7440
  119OSM    C9F12569   1.498   0.409   7.345 -0.0447  0.5196 -0.4491
  119OSM    H9F12570   1.404   0.451   7.307 -1.3399 -2.4127 -0.7079
  119OSM   C10F12571   1.485   0.347   7.463 -0.0427 -0.0840  0.3937
  119OSM   H10F12572   1.391   0.352   7.520  0.3330  0.8340  0.9754
  119OSM   C11F12573   1.599   0.278   7.537 -0.1775 -0.5041 -0.3533
  119OSM   H11F12574   1.637   0.344   7.619 -0.8701 -0.3103 -0.1797
  119OSM   H11G12575   1.685   0.250   7.472 -0.5985 -0.8424 -0.7687
  119OSM   C12F12576   1.552   0.150   7.609  0.8447 -0.6662  0.0341
  119OSM   H12F12577   1.642   0.087   7.625  1.4791  0.6911  2.3448
  119OSM   H12G12578   1.487   0.083   7.549 -0.3903 -0.3444  0.9626
  119OSM   C13F12579   1.502   0.173   7.752  0.0057  0.2861  0.1153
  119OSM   H13F12580   1.419   0.247   7.742 -1.4318 -1.0168  1.7873
  119OSM   H13G12581   1.592   0.214   7.803  0.4793 -1.1890  0.4853
  119OSM   C14F12582   1.442   0.048   7.820  0.2671  0.4877 -0.3902
  119OSM   H14F12583   1.523  -0.027   7.826 -2.2387 -2.2984  0.7644
  119OSM   H14G12584   1.364   0.001   7.756  1.2029  2.2340 -3.0003
  119OSM   C15F12585   1.380   0.064   7.963 -1.2348  0.0504 -0.0868
  119OSM   H15F12586   1.332   0.164   7.968 -0.1370  0.6748 -1.3481
  119OSM   H15G12587   1.457   0.050   8.042 -0.8698 -1.6446 -0.6813
  119OSM   C16F12588   1.277  -0.049   7.993  0.3123 -0.1195 -0.1373
  119OSM   H16F12589   1.349  -0.135   7.993  1.0979  0.5169  0.5212
  119OSM   H16G12590   1.202  -0.060   7.912 -0.4374  0.6617  0.4374
  119OSM   C17F12591   1.218  -0.020   8.131 -0.4503  0.1993 -0.0908
  119OSM   H17F12592   1.155   0.072   8.126 -2.0087 -0.7530  1.2828
  119OSM   H17G12593   1.304  -0.009   8.200 -1.1216 -0.0078  0.7896
  119OSM   C18F12594   1.132  -0.140   8.180  0.0384 -0.3517  0.1040
  119OSM   H18F12595   1.055  -0.163   8.103 -1.5311 -2.0473  2.0346
  119OSM   H18G12596   1.078  -0.098   8.269  1.3940  0.8931  0.3761
  119OSM   H18H12597   1.186  -0.231   8.213 -1.0176 -1.1359 -0.2610
  120OSM      N12598   1.034   4.192   6.449 -0.5048 -0.1684  0.1239
  120OSM    C1512599   1.013   4.284   6.330  0.0148 -0.2050  0.1770
  120OSM   H15A12600   1.106   4.303   6.277  1.2213  0.8927  2.5290
  120OSM   H15B12601   0.970   4.380   6.356 -4.0022 -2.1431  1.2945
  120OSM   H15C12602   0.940   4.240   6.265 -0.3200 -2.6871  2.0933
  120OSM    C1412603   1.079   4.057   6.387  0.0090 -0.2581 -0.2905
  120OSM   H14A12604   1.012   4.017   6.312 -0.0614 -1.5420  0.4397
  120OSM   H14B12605   1.094   3.982   6.462  0.2644 -2.1086 -2.1002
  120OSM   H14C12606   1.177   4.075   6.346  0.7212  1.5104  1.9889
  120OSM    C1312607   1.139   4.249   6.533  0.1626  0.3080  0.7374
  120OSM   H13A12608   1.152   4.188   6.621  1.3375  0.0467  0.3962
  120OSM   H13B12609   1.111   4.349   6.565  1.0628  0.8969 -0.2532
  120OSM   H13C12610   1.225   4.250   6.468  0.3262  1.2047  0.9512
  120OSM    C1212611   0.903   4.176   6.523 -0.7823 -0.5169  0.0279
  120OSM   H12A12612   0.908   4.100   6.600 -0.1439  1.1253  1.6884
  120OSM   H12B12613   0.830   4.155   6.446  0.7167 -0.4313 -1.4477
  120OSM    C1112614   0.845   4.304   6.587  0.7429 -0.6949 -0.0770
  120OSM   H11A12615   0.880   4.319   6.692  0.3230 -3.0627  0.4450
  120OSM   H11B12616   0.740   4.269   6.599  0.2639  0.5182 -0.5095
  120OSM      P12617   0.733   4.518   6.485 -0.5836 -0.1710  0.0519
  120OSM    O1312618   0.801   4.649   6.451 -0.1898 -0.2025  0.5080
  120OSM    O1412619   0.629   4.458   6.388  0.3796  0.1940 -0.0977
  120OSM    O1112620   0.678   4.530   6.625  0.6804  0.4722 -0.3086
  120OSM    O1212621   0.851   4.424   6.509 -0.0533 -0.1378  0.2117
  120OSM    C1S12622   0.640   4.643   6.688 -0.0738 -0.5951  0.3648
  120OSM    H1S12623   0.542   4.687   6.660  0.6705  0.3364 -0.8711
  120OSM    H1T12624   0.710   4.722   6.655 -0.8237 -0.2401 -0.4005
  120OSM     NF12625   0.590   4.740   6.903  0.3949 -0.9724 -0.2626
  120OSM    HNF12626   0.632   4.830   6.894  0.0727 -0.8660 -0.7998
  120OSM    C2S12627   0.654   4.629   6.844  0.1685  0.7682 -0.7286
  120OSM    H2S12628   0.594   4.538   6.867  0.1859  0.7022 -0.9426
  120OSM    C3S12629   0.802   4.619   6.883  0.9370 -0.6402  0.3984
  120OSM    H3S12630   0.846   4.720   6.866 -2.1419  0.7371 -0.1403
  120OSM     O312631   0.885   4.530   6.815 -0.0400  0.1846 -0.1009
  120OSM    HO312632   0.824   4.498   6.748 -0.5459  0.9820 -0.0401
  120OSM    C4S12633   0.804   4.593   7.033 -0.7180 -0.2889 -0.8231
  120OSM    H4S12634   0.742   4.509   7.067  0.4422 -0.7312  0.3000
  120OSM    C5S12635   0.867   4.671   7.124  0.4693 -0.3603  1.6543
  120OSM    H5S12636   0.911   4.765   7.087 -1.3825  0.2563  0.9083
  120OSM    C6S12637   0.867   4.663   7.276 -0.1959  0.0343  0.6584
  120OSM    H6S12638   0.922   4.746   7.325 -1.8454  0.4016  1.9863
  120OSM    H6T12639   0.913   4.567   7.307  0.3780  0.5217  1.3548
  120OSM    C7S12640   0.728   4.670   7.340  0.3580 -0.5598  0.1340
  120OSM    H7S12641   0.661   4.585   7.311 -0.1035 -0.2931  0.4084
  120OSM    H7T12642   0.688   4.767   7.304  0.9798 -0.2158  0.3607
  120OSM    C8S12643   0.735   4.685   7.489 -0.8756 -0.4009 -0.7585
  120OSM    H8S12644   0.814   4.760   7.512 -0.0079 -2.2009  3.0117
  120OSM    H8T12645   0.765   4.588   7.535 -0.7605 -0.5803 -1.2116
  120OSM    C9S12646   0.607   4.745   7.552  0.6029 -0.1671  0.8301
  120OSM    H9S12647   0.527   4.679   7.513  1.9272 -0.5154 -1.5052
  120OSM    H9T12648   0.585   4.843   7.504  0.7674 -1.6817 -2.6306
  120OSM   C10S12649   0.602   4.752   7.707 -0.1042 -0.4981  0.4569
  120OSM   H10S12650   0.518   4.815   7.743  0.3541  1.5146 -1.7346
  120OSM   H10T12651   0.695   4.803   7.740  1.3619 -2.4131 -0.5067
  120OSM   C11S12652   0.592   4.610   7.771 -0.4702  0.2349 -0.0042
  120OSM   H11S12653   0.688   4.554   7.767  0.3518  1.6217 -0.5667
  120OSM   H11T12654   0.516   4.550   7.716 -2.6070  0.4211  2.5854
  120OSM   C12S12655   0.546   4.613   7.918 -0.3674  0.6924 -0.6260
  120OSM   H12S12656   0.441   4.649   7.924  0.1033  2.3521 -1.5638
  120OSM   H12T12657   0.601   4.689   7.977 -1.1387  0.0597  0.9730
  120OSM   C13S12658   0.562   4.486   7.991 -0.2000 -0.4917 -0.2178
  120OSM   H13S12659   0.667   4.452   7.984  0.4826  1.2769  0.5622
  120OSM   H13T12660   0.489   4.419   7.942 -0.7372  1.7462 -2.6842
  120OSM   C14S12661   0.539   4.508   8.138 -0.1397  0.5987 -0.2064
  120OSM   H14S12662   0.433   4.537   8.151 -1.7165 -4.1516 -0.5346
  120OSM   H14T12663   0.618   4.582   8.163 -0.4386  0.9230 -0.2090
  120OSM   C15S12664   0.566   4.383   8.220  0.2794  0.5885  0.0367
  120OSM   H15S12665   0.675   4.368   8.205  0.5122  3.3616 -1.8660
  120OSM   H15T12666   0.513   4.294   8.179  0.6834  0.3768 -0.0344
  120OSM   C16S12667   0.520   4.403   8.360 -0.1023 -0.0810  0.1668
  120OSM   H16S12668   0.414   4.436   8.353  0.6726  2.4449 -0.4343
  120OSM   H16T12669   0.583   4.480   8.410  2.9277 -1.8836 -0.5941
  120OSM   C17S12670   0.539   4.281   8.457  0.2929 -0.1169 -0.4448
  120OSM   H17S12671   0.644   4.246   8.446  0.1765 -1.3392  1.7897
  120OSM   H17T12672   0.486   4.191   8.419  0.2328 -0.9564  1.4663
  120OSM   C18S12673   0.494   4.303   8.601  0.2358 -0.3247 -0.3066
  120OSM   H18S12674   0.383   4.309   8.609  0.3770  3.1239  0.4704
  120OSM   H18T12675   0.543   4.392   8.646  0.9113 -0.9418  0.2147
  120OSM   H18U12676   0.538   4.216   8.654  1.2365  0.2981 -0.0859
  120OSM    C1F12677   0.455   4.742   6.925 -0.1686  0.2264 -0.0572
  120OSM     OF12678   0.390   4.648   6.878 -0.4057  0.1332  0.3450
  120OSM    C2F12679   0.399   4.859   6.997  0.8266  0.2639 -0.2663
  120OSM    H2F12680   0.345   4.930   6.931 -0.8323 -1.2492 -0.6137
  120OSM    H2G12681   0.472   4.926   7.047 -1.5030  1.2584  2.0192
  120OSM    C3F12682   0.302   4.805   7.105 -0.6177 -0.3992  0.0492
  120OSM    H3F12683   0.232   4.732   7.059  0.5525 -3.3905  2.6441
  120OSM    H3G12684   0.242   4.894   7.133 -1.9134 -1.1212 -0.3608
  120OSM    C4F12685   0.373   4.731   7.220  0.1488 -0.7275 -0.7714
  120OSM    H4F12686   0.437   4.806   7.271 -0.9798  0.3893 -0.9630
  120OSM    H4G12687   0.454   4.663   7.186  0.8259  0.2472 -1.1480
  120OSM    C5F12688   0.285   4.669   7.333 -0.0357  0.8613 -0.3526
  120OSM    H5F12689   0.357   4.624   7.405  0.6900  1.5562 -0.6248
  120OSM    H5G12690   0.227   4.582   7.297  0.8921 -0.0264  0.2670
  120OSM    C6F12691   0.182   4.762   7.396 -0.2302  0.3202  0.0563
  120OSM    H6F12692   0.122   4.796   7.309  3.1564  0.8310 -2.3070
  120OSM    H6G12693   0.242   4.852   7.424  1.7421 -0.9310  0.0667
  120OSM    C7F12694   0.106   4.717   7.517  0.3559 -0.0900  0.2855
  120OSM    H7F12695   0.044   4.626   7.503  0.3699  0.1949 -1.8112
  120OSM    H7G12696   0.028   4.796   7.524 -1.0840 -1.3052 -1.3875
  120OSM    C8F12697   0.194   4.689   7.640 -0.2236 -0.2792 -0.1446
  120OSM    H8F12698   0.138   4.722   7.730 -0.1801 -0.7211  0.0510
  120OSM    H8G12699   0.271   4.769   7.638 -0.9627  0.4302 -1.0511
  120OSM    C9F12700   0.250   4.552   7.661 -0.0141  0.6186  0.0179
  120OSM    H9F12701   0.329   4.516   7.594 -0.1646 -0.9285  0.6245
  120OSM   C10F12702   0.215   4.467   7.758 -0.8051  0.1752 -0.3882
  120OSM   H10F12703   0.257   4.365   7.760  0.6605  0.7561 -0.7974
  120OSM   C11F12704   0.112   4.490   7.873 -0.4899  0.2862  0.5526
  120OSM   H11F12705   0.037   4.410   7.885  1.4524 -2.1328 -2.1182
  120OSM   H11G12706   0.064   4.588   7.850 -0.3125 -0.0405 -1.3674
  120OSM   C12F12707   0.196   4.498   8.008  0.4588  0.2015 -0.1527
  120OSM   H12F12708   0.271   4.581   8.006  0.2740  0.6228  3.2842
  120OSM   H12G12709   0.252   4.403   8.021  1.8385  0.2068 -4.4669
  120OSM   C13F12710   0.123   4.538   8.134  0.6954  0.7046 -0.1270
  120OSM   H13F12711   0.056   4.624   8.113 -1.6576 -0.6205  1.4726
  120OSM   H13G12712   0.193   4.572   8.213  0.1306  0.6881  0.3947
  120OSM   C14F12713   0.048   4.425   8.197  0.4777 -0.2728 -0.5153
  120OSM   H14F12714   0.114   4.336   8.188 -1.8361 -1.9921 -1.3280
  120OSM   H14G12715  -0.041   4.413   8.133  1.9624  0.1808 -2.7663
  120OSM   C15F12716   0.004   4.449   8.342  0.0039  0.3336  0.2753
  120OSM   H15F12717  -0.024   4.554   8.361 -2.4525  0.0716 -1.3830
  120OSM   H15G12718   0.082   4.420   8.415  0.9998  1.0972 -0.4470
  120OSM   C16F12719  -0.120   4.367   8.370  0.6047  0.2099  0.4210
  120OSM   H16F12720  -0.111   4.279   8.303 -1.0814  1.2667 -1.3241
  120OSM   H16G12721  -0.212   4.401   8.317  1.3967  1.3527 -0.2543
  120OSM   C17F12722  -0.151   4.341   8.517  0.3615 -0.4100 -0.3807
  120OSM   H17F12723  -0.159   4.440   8.568 -0.3297 -0.0647 -1.1428
  120OSM   H17G12724  -0.068   4.279   8.557  0.3848  1.6802  3.2921
  120OSM   C18F12725  -0.288   4.276   8.535  0.1015 -0.0456  0.3820
  120OSM   H18F12726  -0.287   4.174   8.491 -2.1792 -0.8099  1.8873
  120OSM   H18G12727  -0.381   4.327   8.501 -0.2350  0.3236  1.7782
  120OSM   H18H12728  -0.297   4.249   8.642  1.4081  2.7424  1.2984
  121OSM      N12729   6.278   5.546   6.074  1.7152 -0.4393 -0.4389
  121OSM    C1512730   6.417   5.584   6.079  0.0504 -0.6852 -0.0145
  121OSM   H15A12731   6.434   5.683   6.120  1.3314 -0.9388  0.1135
  121OSM   H15B12732   6.452   5.596   5.978  1.7000 -1.6601  0.4114
  121OSM   H15C12733   6.474   5.511   6.134  0.6952  1.2682  2.1137
  121OSM    C1412734   6.197   5.636   5.976  0.1971  0.3198  0.2003
  121OSM   H14A12735   6.094   5.603   5.975  0.3795 -0.2374 -0.2743
  121OSM   H14B12736   6.235   5.618   5.877  1.6453  2.6381  0.2818
  121OSM   H14C12737   6.185   5.740   6.000  0.5354  0.6192 -0.9212
  121OSM    C1312738   6.280   5.406   6.010 -0.1969  0.2539  0.3572
  121OSM   H13A12739   6.320   5.394   5.910  0.9655  1.1729  0.6854
  121OSM   H13B12740   6.181   5.363   6.012 -0.1736  0.2244  1.3871
  121OSM   H13C12741   6.342   5.338   6.067  1.6673  0.4636 -1.3271
  121OSM    C1212742   6.219   5.539   6.211 -0.4355 -0.2616 -0.0800
  121OSM   H12A12743   6.284   5.477   6.271  0.7191  1.2044  0.2520
  121OSM   H12B12744   6.121   5.494   6.205 -0.3105 -0.7015  1.0002
  121OSM    C1112745   6.208   5.673   6.299  0.0632  0.4503  0.2833
  121OSM   H11A12746   6.153   5.650   6.393  0.2745 -3.1793 -0.3162
  121OSM   H11B12747   6.140   5.740   6.243 -0.9462  0.0832  1.0259
  121OSM      P12748   6.341   5.861   6.400  0.1747  0.2949 -0.1503
  121OSM    O1312749   6.470   5.934   6.378  0.4592 -0.4401 -0.4630
  121OSM    O1412750   6.216   5.932   6.383 -0.2505  0.3239  0.2844
  121OSM    O1112751   6.340   5.804   6.544 -0.2111  0.2976 -0.3218
  121OSM    O1212752   6.339   5.720   6.324  1.3608  0.0353  0.3243
  121OSM    C1S12753   6.449   5.842   6.630 -0.3872  0.2636  0.2222
  121OSM    H1S12754   6.462   5.952   6.637  1.1400  0.0901  0.7062
  121OSM    H1T12755   6.542   5.794   6.593  0.0975  1.7244 -0.5377
  121OSM     NF12756   6.540   5.827   6.863  0.2801  0.1392  0.5174
  121OSM    HNF12757   6.610   5.758   6.880  0.1771 -1.1971 -3.4061
  121OSM    C2S12758   6.432   5.783   6.769  0.5575 -0.0650 -0.4321
  121OSM    H2S12759   6.336   5.817   6.815  0.9116 -1.1513  1.2072
  121OSM    C3S12760   6.419   5.628   6.748  0.1398  1.0692 -0.1800
  121OSM    H3S12761   6.494   5.592   6.674 -0.0637  2.7616 -1.2710
  121OSM     O312762   6.297   5.594   6.692 -0.4017 -0.5775 -0.3329
  121OSM    HO312763   6.292   5.681   6.651  0.8887 -0.5462 -0.4620
  121OSM    C4S12764   6.423   5.538   6.870 -0.0525  0.1074  0.3435
  121OSM    H4S12765   6.335   5.548   6.936  0.8245 -1.2435  1.7846
  121OSM    C5S12766   6.522   5.454   6.898  0.2259  0.3932 -0.1698
  121OSM    H5S12767   6.600   5.446   6.820  2.2907  1.8908  1.6161
  121OSM    C6S12768   6.528   5.357   7.009  0.0699 -0.2874 -0.1957
  121OSM    H6S12769   6.632   5.357   7.047  0.0154 -0.0809 -0.0438
  121OSM    H6T12770   6.491   5.256   6.981 -1.7755  0.3729 -0.2960
  121OSM    C7S12771   6.425   5.405   7.126 -0.1027  0.3751 -0.4771
  121OSM    H7S12772   6.320   5.401   7.089  0.3318  1.0314 -1.8647
  121OSM    H7T12773   6.447   5.511   7.148  2.3837 -0.1396 -0.1423
  121OSM    C8S12774   6.433   5.319   7.257  0.1909 -0.0166 -0.0971
  121OSM    H8S12775   6.538   5.308   7.289  0.5287  0.7419 -0.8915
  121OSM    H8T12776   6.404   5.216   7.229 -1.4999 -0.5036  2.9511
  121OSM    C9S12777   6.336   5.364   7.366  0.0114 -0.1521 -0.5580
  121OSM    H9S12778   6.241   5.414   7.336 -1.1872 -0.0567  2.9315
  121OSM    H9T12779   6.396   5.442   7.418  0.0790  0.5589 -1.6679
  121OSM   C10S12780   6.306   5.252   7.465 -0.5084  0.0314 -0.0116
  121OSM   H10S12781   6.389   5.178   7.465 -1.0562 -0.6753  2.8987
  121OSM   H10T12782   6.216   5.191   7.438 -0.1275 -0.6534  0.2439
  121OSM   C11S12783   6.294   5.297   7.614 -0.3411 -0.0168  0.4732
  121OSM   H11S12784   6.208   5.365   7.635 -0.0170 -0.2395  2.8770
  121OSM   H11T12785   6.394   5.339   7.641  2.3109 -3.6760 -2.5999
  121OSM   C12S12786   6.274   5.179   7.706 -0.6458  0.6034 -0.0447
  121OSM   H12S12787   6.349   5.100   7.683 -1.2235  0.5469 -1.9749
  121OSM   H12T12788   6.172   5.138   7.692 -0.4059 -0.6299  1.5611
  121OSM   C13S12789   6.289   5.215   7.850 -1.4175 -0.2757 -0.2103
  121OSM   H13S12790   6.196   5.259   7.891  0.9481  1.7199  3.6002
  121OSM   H13T12791   6.372   5.289   7.859 -0.0518 -1.7578 -0.2013
  121OSM   C14S12792   6.335   5.097   7.940 -0.6897 -0.0503 -0.0363
  121OSM   H14S12793   6.383   5.015   7.882  1.0571 -1.7592  3.5357
  121OSM   H14T12794   6.243   5.058   7.989 -0.4301 -1.2400 -0.4571
  121OSM   C15S12795   6.432   5.136   8.053 -0.1147  0.2371  0.3827
  121OSM   H15S12796   6.521   5.185   8.008  0.2671  0.9162  1.8519
  121OSM   H15T12797   6.471   5.042   8.097 -0.3664 -0.2593 -0.4323
  121OSM   C16S12798   6.365   5.229   8.158  0.1092 -0.4597 -0.2868
  121OSM   H16S12799   6.318   5.166   8.236  2.9944 -0.5189  1.5752
  121OSM   H16T12800   6.294   5.300   8.110 -1.1525 -1.0306  0.7146
  121OSM   C17S12801   6.470   5.308   8.237  0.4430  0.6110 -1.0875
  121OSM   H17S12802   6.415   5.383   8.297  1.2197  0.6629 -0.4235
  121OSM   H17T12803   6.537   5.367   8.171  0.6713  1.8533  0.2047
  121OSM   C18S12804   6.572   5.219   8.310  1.0041  0.1213 -0.0068
  121OSM   H18S12805   6.671   5.261   8.338  0.2312  1.8924  0.1753
  121OSM   H18T12806   6.586   5.125   8.252 -2.2318  0.5334 -1.6743
  121OSM   H18U12807   6.534   5.180   8.407  1.0723 -1.8410 -0.7073
  121OSM    C1F12808   6.541   5.952   6.896  0.1320  0.7837  0.0005
  121OSM     OF12809   6.442   6.023   6.881  0.1101  0.2455 -0.4363
  121OSM    C2F12810   6.665   6.007   6.960  0.0162  0.4240 -0.2625
  121OSM    H2F12811   6.722   6.067   6.886  0.9038  0.1375  0.1720
  121OSM    H2G12812   6.733   5.928   6.998  0.8721  0.7919 -0.9772
  121OSM    C3F12813   6.635   6.103   7.075  0.1923  0.2440 -0.2767
  121OSM    H3F12814   6.601   6.038   7.158  1.7737 -0.5889 -0.2518
  121OSM    H3G12815   6.559   6.182   7.058  0.1581  1.3834  3.9571
  121OSM    C4F12816   6.754   6.178   7.134  0.1520 -0.1311 -0.2820
  121OSM    H4F12817   6.786   6.254   7.060 -0.5285  2.9112  2.2739
  121OSM    H4G12818   6.842   6.114   7.152  1.3388  1.3848 -0.4483
  121OSM    C5F12819   6.723   6.245   7.267 -0.1627  0.1694 -0.5492
  121OSM    H5F12820   6.652   6.329   7.249 -0.9524 -0.7831 -2.1647
  121OSM    H5G12821   6.814   6.296   7.305  0.0480  0.7258 -1.7445
  121OSM    C6F12822   6.673   6.151   7.384  0.1276  0.1293 -0.0007
  121OSM    H6F12823   6.743   6.065   7.387  0.0400  0.0782  0.8066
  121OSM    H6G12824   6.569   6.114   7.366 -0.1305 -1.7783  4.2544
  121OSM    C7F12825   6.661   6.216   7.521  0.2870  0.3742 -0.4953
  121OSM    H7F12826   6.639   6.325   7.524  1.9358  0.7065  0.9848
  121OSM    H7G12827   6.763   6.200   7.562  0.2220 -2.6435 -1.3168
  121OSM    C8F12828   6.571   6.124   7.614 -0.4156 -0.0833  0.5282
  121OSM    H8F12829   6.477   6.106   7.557 -0.0176 -0.7586  0.0680
  121OSM    H8G12830   6.544   6.181   7.705 -0.5145  0.6196  0.0678
  121OSM    C9F12831   6.636   5.991   7.651  0.5327 -0.4963  0.3096
  121OSM    H9F12832   6.633   5.916   7.570  0.0040  0.2116 -0.3523
  121OSM   C10F12833   6.704   5.973   7.764  0.5941  0.1551  0.2332
  121OSM   H10F12834   6.739   5.873   7.793 -0.0873  0.0068  0.5889
  121OSM   C11F12835   6.723   6.079   7.868 -1.0470  0.1017  0.7937
  121OSM   H11F12836   6.698   6.181   7.830 -1.4775 -0.1681  0.3492
  121OSM   H11G12837   6.831   6.088   7.895  0.3188 -2.7747 -2.8229
  121OSM   C12F12838   6.641   6.059   8.000  0.2663 -0.2197 -0.1773
  121OSM   H12F12839   6.537   6.049   7.962 -0.1411 -0.5284  0.9927
  121OSM   H12G12840   6.639   6.150   8.063  0.2968 -0.7684  0.6287
  121OSM   C13F12841   6.688   5.928   8.062  0.3745  0.1683 -0.3138
  121OSM   H13F12842   6.794   5.933   8.094 -0.3240  2.3138  1.9985
  121OSM   H13G12843   6.649   5.846   7.998 -2.0560 -0.1732  1.4363
  121OSM   C14F12844   6.606   5.915   8.190 -0.2899 -0.3960 -0.0460
  121OSM   H14F12845   6.501   5.889   8.164 -0.3283 -0.5915  0.3052
  121OSM   H14G12846   6.601   6.009   8.250 -1.0367  0.5397 -1.5219
  121OSM   C15F12847   6.680   5.817   8.284  0.1547  0.1726  0.4230
  121OSM   H15F12848   6.705   5.728   8.221  0.2332  0.4152  0.1118
  121OSM   H15G12849   6.612   5.778   8.364  0.5066 -0.3822  0.4595
  121OSM   C16F12850   6.798   5.875   8.365 -0.3307  0.5859 -0.3970
  121OSM   H16F12851   6.770   5.971   8.413 -1.1880 -0.6936  1.8303
  121OSM   H16G12852   6.875   5.905   8.290 -1.0368  1.1423 -0.9193
  121OSM   C17F12853   6.847   5.785   8.484 -0.0629 -0.9678  0.3524
  121OSM   H17F12854   6.765   5.791   8.559 -1.0016 -2.2106 -0.5418
  121OSM   H17G12855   6.935   5.844   8.517 -1.7036  1.3360  0.8027
  121OSM   C18F12856   6.891   5.650   8.439 -0.2829  0.1383 -1.1188
  121OSM   H18F12857   6.929   5.596   8.528 -0.2478  0.7998 -0.7285
  121OSM   H18G12858   6.970   5.676   8.365  0.1104  2.8562  0.1667
  121OSM   H18H12859   6.821   5.581   8.387  1.4866 -0.5010 -2.7705
  122OSM      N12860   3.837   5.305   6.075  0.2947  0.2995 -0.4667
  122OSM    C1512861   3.980   5.263   6.045  0.7654 -0.0880 -0.2928
  122OSM   H15A12862   4.036   5.354   6.026  0.4537  0.1352 -0.1498
  122OSM   H15B12863   3.989   5.199   5.958 -1.1085 -0.4562 -0.2669
  122OSM   H15C12864   4.023   5.211   6.129  0.8657  0.1662 -0.1850
  122OSM    C1412865   3.840   5.420   6.180 -0.4601  0.5636  0.3961
  122OSM   H14A12866   3.735   5.439   6.195 -0.9250 -1.7212  0.4544
  122OSM   H14B12867   3.895   5.503   6.138  0.7934  0.1888  1.2442
  122OSM   H14C12868   3.891   5.396   6.272 -0.9990 -3.1580 -0.1213
  122OSM    C1312869   3.767   5.368   5.959  0.5485  0.2348  0.2913
  122OSM   H13A12870   3.828   5.456   5.943  1.2534  0.0565  1.8334
  122OSM   H13B12871   3.665   5.388   5.987  0.7010 -0.6170  1.5172
  122OSM   H13C12872   3.765   5.306   5.871 -1.1434  0.1925  0.3286
  122OSM    C1212873   3.750   5.201   6.132  0.6337 -0.0147 -0.2590
  122OSM   H12A12874   3.734   5.134   6.049  0.1620 -0.6121  0.3033
  122OSM   H12B12875   3.657   5.252   6.151 -0.3841 -1.2720 -1.6578
  122OSM    C1112876   3.800   5.119   6.258  0.4998 -0.3108  1.4040
  122OSM   H11A12877   3.722   5.050   6.295 -0.7150 -0.1620 -0.7153
  122OSM   H11B12878   3.831   5.184   6.343  1.8073 -0.0035  0.7154
  122OSM      P12879   3.914   4.907   6.140  0.0629 -0.0570 -0.5130
  122OSM    O1312880   3.838   4.920   6.012 -0.3876  0.0993 -0.4825
  122OSM    O1412881   4.050   4.862   6.126 -0.6275 -0.5618 -0.5134
  122OSM    O1112882   3.844   4.806   6.235 -0.0099 -0.2247  0.4326
  122OSM    O1212883   3.918   5.041   6.232 -0.4706  0.7578  0.3286
  122OSM    C1S12884   3.860   4.807   6.372 -0.2399  0.0903  0.0504
  122OSM    H1S12885   3.823   4.905   6.408  1.1518  1.7096 -2.5369
  122OSM    H1T12886   3.967   4.811   6.402 -0.5407  0.5589  1.1130
  122OSM     NF12887   3.836   4.690   6.580 -0.1542 -0.5569 -0.4999
  122OSM    HNF12888   3.878   4.603   6.605 -1.2700 -0.6661  1.1906
  122OSM    C2S12889   3.796   4.689   6.443 -0.0710  0.5734  0.3921
  122OSM    H2S12890   3.686   4.702   6.450 -0.1834  0.3225 -0.6731
  122OSM    C3S12891   3.828   4.552   6.385 -0.3220  0.3738  0.1249
  122OSM    H3S12892   3.933   4.530   6.412  0.1851  2.5274  0.1204
  122OSM     O312893   3.813   4.547   6.243 -0.2188  0.4668  0.0328
  122OSM    HO312894   3.815   4.641   6.223 -0.2670  0.7401  1.2531
  122OSM    C4S12895   3.739   4.449   6.437  0.1489 -0.5189 -0.6061
  122OSM    H4S12896   3.633   4.453   6.408 -0.2283 -1.9148  0.4585
  122OSM    C5S12897   3.777   4.340   6.513 -0.2431 -0.7982  0.1838
  122OSM    H5S12898   3.883   4.319   6.529  0.3104  0.4273 -1.6435
  122OSM    C6S12899   3.681   4.232   6.561  0.4954 -0.3727 -0.0579
  122OSM    H6S12900   3.719   4.131   6.535  1.5977 -0.0769  0.3551
  122OSM    H6T12901   3.591   4.246   6.498 -0.1890 -0.6955  0.8150
  122OSM    C7S12902   3.630   4.229   6.705  0.3487  0.5914  0.1472
  122OSM    H7S12903   3.603   4.334   6.731 -0.3181  0.8013 -1.2743
  122OSM    H7T12904   3.712   4.193   6.770 -0.2305 -0.2325  0.4449
  122OSM    C8S12905   3.511   4.122   6.723 -0.7154  0.0074  0.1164
  122OSM    H8S12906   3.542   4.026   6.675 -0.4582  0.6928 -1.1316
  122OSM    H8T12907   3.418   4.154   6.671 -0.9647 -0.3231  0.3534
  122OSM    C9S12908   3.461   4.090   6.867  0.1077 -0.1139  0.4672
  122OSM    H9S12909   3.382   4.016   6.843  2.1540 -2.1301 -0.3159
  122OSM    H9T12910   3.404   4.184   6.887 -2.0145 -0.1103 -4.1449
  122OSM   C10S12911   3.558   4.030   6.971  0.8934  0.4213 -0.0876
  122OSM   H10S12912   3.627   4.109   7.008  0.6368 -0.3180  2.1394
  122OSM   H10T12913   3.626   3.949   6.936 -0.6815 -1.0495  0.1392
  122OSM   C11S12914   3.474   3.985   7.094  0.7120  0.8438  0.9472
  122OSM   H11S12915   3.397   3.913   7.059 -0.6759  3.1439 -1.0524
  122OSM   H11T12916   3.417   4.074   7.130 -0.6056 -1.6614  5.7884
  122OSM   C12S12917   3.558   3.911   7.206  0.4055 -0.4011 -0.8973
  122OSM   H12S12918   3.638   3.975   7.251 -0.7964  1.5921 -1.4779
  122OSM   H12T12919   3.617   3.825   7.168  1.4086  0.4155 -1.2317
  122OSM   C13S12920   3.491   3.855   7.335  0.2452  0.3249  0.1227
  122OSM   H13S12921   3.562   3.790   7.391 -0.3720  0.6242  1.2928
  122OSM   H13T12922   3.406   3.794   7.297 -0.0696  0.4755  0.5735
  122OSM   C14S12923   3.424   3.962   7.415 -0.8104  0.0277  0.6237
  122OSM   H14S12924   3.358   4.024   7.352 -0.0250 -0.2472 -0.4887
  122OSM   H14T12925   3.491   4.036   7.465 -2.1228  2.4081 -0.9553
  122OSM   C15S12926   3.341   3.904   7.530 -0.0880  0.1858  0.1090
  122OSM   H15S12927   3.271   3.822   7.502 -0.3717  0.4292  0.1078
  122OSM   H15T12928   3.285   3.987   7.578 -0.0687 -0.6688  1.6874
  122OSM   C16S12929   3.435   3.830   7.632 -0.2016 -0.7942 -0.3774
  122OSM   H16S12930   3.512   3.908   7.648 -0.5996 -0.6415  0.9231
  122OSM   H16T12931   3.477   3.738   7.586  0.0092  0.1281 -2.1078
  122OSM   C17S12932   3.355   3.793   7.752 -0.1069 -0.0463 -0.4541
  122OSM   H17S12933   3.267   3.738   7.711 -0.5856 -0.2405  0.7965
  122OSM   H17T12934   3.319   3.882   7.808 -0.9710 -1.6582  1.6728
  122OSM   C18S12935   3.423   3.702   7.859 -0.3428  0.2772  0.7409
  122OSM   H18S12936   3.517   3.746   7.899  0.3926  0.4458 -1.0505
  122OSM   H18T12937   3.451   3.600   7.825  0.1010  0.7789 -0.4432
  122OSM   H18U12938   3.351   3.689   7.943 -1.1125 -1.0966 -0.1017
  122OSM    C1F12939   3.825   4.789   6.674 -0.3919 -0.3618 -0.0607
  122OSM     OF12940   3.747   4.879   6.648 -0.4663 -0.0354 -0.0102
  122OSM    C2F12941   3.890   4.779   6.800  0.0630 -0.9543 -0.1969
  122OSM    H2F12942   3.923   4.676   6.824  3.6503 -0.2832 -1.5374
  122OSM    H2G12943   3.812   4.813   6.871  1.6359 -0.3193  1.2964
  122OSM    C3F12944   4.015   4.881   6.806  0.2349 -0.1285  0.5041
  122OSM    H3F12945   3.970   4.977   6.772 -1.1912 -1.2575 -0.9729
  122OSM    H3G12946   4.095   4.846   6.738  2.7257  0.6289  2.8691
  122OSM    C4F12947   4.086   4.898   6.947 -0.7171 -0.0454  0.0237
  122OSM    H4F12948   4.182   4.953   6.943 -0.8435  0.0789 -1.9801
  122OSM    H4G12949   4.115   4.793   6.967 -1.9699  0.0704  2.9401
  122OSM    C5F12950   3.992   4.947   7.058 -0.6551  0.8927  0.7585
  122OSM    H5F12951   3.894   4.895   7.060 -0.2928  0.1055 -0.5358
  122OSM    H5G12952   3.964   5.053   7.041  0.5893  1.1148 -0.0873
  122OSM    C6F12953   4.063   4.925   7.193 -0.1752  0.1479  0.0885
  122OSM    H6F12954   4.171   4.952   7.189 -0.5618  2.0050  1.1771
  122OSM    H6G12955   4.058   4.814   7.194 -0.0703  0.1449  0.4794
  122OSM    C7F12956   4.002   4.994   7.310  0.2945 -0.1529 -0.4545
  122OSM    H7F12957   4.037   4.942   7.401  0.7101 -0.2702 -0.6764
  122OSM    H7G12958   3.891   4.991   7.316  0.1907  0.7598 -1.5061
  122OSM    C8F12959   4.025   5.143   7.308  0.3816 -0.3880 -0.6498
  122OSM    H8F12960   3.925   5.192   7.303 -0.2048 -1.5083 -0.0420
  122OSM    H8G12961   4.084   5.179   7.220 -0.4745  2.6550 -0.1108
  122OSM    C9F12962   4.107   5.182   7.424  0.0338  0.2222  0.0854
  122OSM    H9F12963   4.208   5.218   7.400  1.5037 -1.0601  3.5983
  122OSM   C10F12964   4.072   5.182   7.553 -0.0062 -0.3570  0.3409
  122OSM   H10F12965   4.149   5.226   7.618  0.0972  2.5863 -1.5964
  122OSM   C11F12966   3.936   5.147   7.604  0.5173 -0.2280  0.4703
  122OSM   H11F12967   3.865   5.114   7.526 -0.4515  0.2424  1.1351
  122OSM   H11G12968   3.907   5.244   7.648  1.1107  0.2230 -0.1100
  122OSM   C12F12969   3.935   5.033   7.717  0.1151 -0.4521  0.4177
  122OSM   H12F12970   3.982   4.944   7.671  0.3495 -0.4572  0.6647
  122OSM   H12G12971   3.826   5.010   7.724 -0.6005  2.6919  1.0524
  122OSM   C13F12972   4.007   5.091   7.853  0.6895  0.8896  0.2146
  122OSM   H13F12973   3.974   5.196   7.870  1.0381  0.9000  0.8655
  122OSM   H13G12974   4.114   5.087   7.824  0.5407  1.7132 -0.4713
  122OSM   C14F12975   3.977   4.996   7.979 -0.5947 -0.0487 -0.2049
  122OSM   H14F12976   4.002   4.892   7.950  2.0389  0.7199 -0.9906
  122OSM   H14G12977   3.869   5.004   7.999 -0.4606  0.7247  0.2590
  122OSM   C15F12978   4.062   5.023   8.104  0.0844 -0.1383 -0.2451
  122OSM   H15F12979   4.043   5.128   8.134  2.8391 -0.0740  1.5887
  122OSM   H15G12980   4.170   5.017   8.081  0.6217 -2.2428  2.3516
  122OSM   C16F12981   4.055   4.933   8.222 -0.0829  0.2467  0.2444
  122OSM   H16F12982   4.100   4.973   8.315 -2.9118  0.6674  1.5424
  122OSM   H16G12983   4.115   4.847   8.185 -0.8249  0.4101 -1.4187
  122OSM   C17F12984   3.911   4.886   8.250  0.0663 -0.3093 -0.3486
  122OSM   H17F12985   3.867   4.847   8.155  0.8526 -0.9459 -0.4624
  122OSM   H17G12986   3.839   4.963   8.285 -2.8836 -2.7926 -0.5624
  122OSM   C18F12987   3.908   4.771   8.360 -0.1943 -0.2008 -0.2776
  122OSM   H18F12988   3.804   4.750   8.391  0.0105  0.1038  0.6648
  122OSM   H18G12989   3.961   4.815   8.447 -0.3009 -0.0898 -0.2676
  122OSM   H18H12990   3.963   4.684   8.318  0.7719  0.9730 -1.5528
  123OSM      N12991   5.914   3.997   6.556  0.6090  1.0122  0.0718
  123OSM    C1512992   5.820   4.047   6.447  0.3576 -0.6805  0.1774
  123OSM   H15A12993   5.777   3.964   6.391  3.5568 -0.0891 -3.6047
  123OSM   H15B12994   5.877   4.104   6.376 -1.7055  0.1919 -0.8849
  123OSM   H15C12995   5.735   4.099   6.490  0.5651  0.9228 -1.2563
  123OSM    C1412996   6.034   3.921   6.490 -0.4621 -0.3538  0.2771
  123OSM   H14A12997   6.111   3.894   6.562  0.9011  1.7892 -0.2809
  123OSM   H14B12998   6.085   3.972   6.410 -0.7609 -0.6769 -0.1188
  123OSM   H14C12999   6.005   3.836   6.430  1.8938 -1.4857  0.6203
  123OSM    C1313000   5.961   4.116   6.634  0.0586  0.1715  1.1550
  123OSM   H13A13001   5.884   4.163   6.693 -0.6744 -0.1918  0.5012
  123OSM   H13B13002   5.996   4.186   6.560  0.7401  0.2043  1.4968
  123OSM   H13C13003   6.034   4.086   6.708  3.4942  3.1421 -0.6941
  123OSM    C1213004   5.836   3.901   6.648  0.2385 -0.4702  0.7856
  123OSM   H12A13005   5.754   3.960   6.687  0.2271  0.5987 -0.7195
  123OSM   H12B13006   5.900   3.879   6.732 -0.1989  0.9400  1.5231
  123OSM    C1113007   5.772   3.770   6.596  0.0312  0.5043 -0.8412
  123OSM   H11A13008   5.711   3.746   6.686 -2.2222  0.7457 -2.2416
  123OSM   H11B13009   5.848   3.691   6.577 -0.7312  0.2724 -3.2409
  123OSM      P13010   5.536   3.847   6.488  0.0611 -0.5209  0.0174
  123OSM    O1313011   5.513   3.951   6.388 -0.2685 -0.0222 -0.2839
  123OSM    O1413012   5.434   3.739   6.499 -0.1941  0.0488  0.1204
  123OSM    O1113013   5.527   3.921   6.627 -0.2156 -0.5602 -0.3490
  123OSM    O1213014   5.689   3.796   6.483  0.0819  0.4410 -0.0487
  123OSM    C1S13015   5.401   3.949   6.691  0.5818 -0.7191 -0.1491
  123OSM    H1S13016   5.322   3.871   6.681 -2.1623  1.5702  1.7805
  123OSM    H1T13017   5.362   4.043   6.647  0.9383 -0.0432  0.9514
  123OSM     NF13018   5.274   3.977   6.901  0.2525 -0.2918 -0.5328
  123OSM    HNF13019   5.219   4.059   6.893  0.4969  0.0216  0.7671
  123OSM    C2S13020   5.412   3.985   6.843  0.5041  0.5350 -0.1039
  123OSM    H2S13021   5.483   3.912   6.887  1.0387  2.4120  2.3405
  123OSM    C3S13022   5.478   4.122   6.854 -0.5445  0.0465 -0.1049
  123OSM    H3S13023   5.418   4.208   6.818  0.7691  0.6380 -0.9791
  123OSM     O313024   5.604   4.134   6.783 -0.3188  0.3026  0.0234
  123OSM    HO313025   5.607   4.058   6.725 -0.8088  1.4530 -1.5877
  123OSM    C4S13026   5.503   4.145   6.996 -0.2953  0.5077 -0.5434
  123OSM    H4S13027   5.591   4.103   7.048 -2.3743 -1.8311  1.2893
  123OSM    C5S13028   5.438   4.232   7.073  0.2808  0.5525 -0.1995
  123OSM    H5S13029   5.357   4.293   7.032  0.0420  0.7328  0.5283
  123OSM    C6S13030   5.469   4.263   7.221  0.1258  0.0980  0.5152
  123OSM    H6S13031   5.515   4.363   7.230 -1.3992  0.8589  0.1076
  123OSM    H6T13032   5.547   4.192   7.258  1.1897  1.0177  0.0854
  123OSM    C7S13033   5.340   4.253   7.297  0.1284  0.2926  0.6834
  123OSM    H7S13034   5.288   4.156   7.280  2.5973 -0.8020 -1.4054
  123OSM    H7T13035   5.277   4.330   7.247  0.5726 -0.1208 -0.5467
  123OSM    C8S13036   5.345   4.283   7.449  0.1815 -0.0702  0.6391
  123OSM    H8S13037   5.387   4.386   7.451  0.7167 -0.1598 -2.3273
  123OSM    H8T13038   5.413   4.212   7.502 -2.3189 -2.3606  0.9564
  123OSM    C9S13039   5.210   4.291   7.512 -0.4906 -0.0872  0.2574
  123OSM    H9S13040   5.163   4.190   7.518  0.2392 -0.5017 -0.8274
  123OSM    H9T13041   5.149   4.365   7.456 -0.2715  1.2597  1.7147
  123OSM   C10S13042   5.219   4.327   7.661 -0.4967 -0.3856 -0.1188
  123OSM   H10S13043   5.290   4.261   7.715 -0.8956  0.0491  0.9840
  123OSM   H10T13044   5.120   4.316   7.710 -0.6333 -2.4098 -0.7867
  123OSM   C11S13045   5.269   4.471   7.687 -0.0256 -0.6396 -0.8279
  123OSM   H11S13046   5.194   4.543   7.648  1.0100 -0.1920 -2.0417
  123OSM   H11T13047   5.365   4.491   7.634  0.6356  0.4542  0.7143
  123OSM   C12S13048   5.271   4.494   7.841  0.2122  0.2312  0.2677
  123OSM   H12S13049   5.192   4.432   7.889 -1.7455  2.0307 -0.4547
  123OSM   H12T13050   5.263   4.602   7.868  3.0026  0.2542  1.2694
  123OSM   C13S13051   5.397   4.456   7.923 -1.4044  0.0907 -0.4333
  123OSM   H13S13052   5.495   4.503   7.903 -1.8447  1.0413 -0.3935
  123OSM   H13T13053   5.421   4.348   7.910 -0.7541  0.4495 -2.5521
  123OSM   C14S13054   5.381   4.479   8.079  0.4321 -0.1321 -0.5363
  123OSM   H14S13055   5.297   4.421   8.123  0.1131  1.6915  1.3696
  123OSM   H14T13056   5.348   4.585   8.082  1.7436  0.2718  0.3524
  123OSM   C15S13057   5.507   4.455   8.163  0.0798 -0.4393  0.5639
  123OSM   H15S13058   5.589   4.520   8.124 -1.3726  0.8583 -0.4520
  123OSM   H15T13059   5.534   4.348   8.177 -0.0622 -0.3615  1.4868
  123OSM   C16S13060   5.505   4.509   8.306 -0.2615 -0.2451  0.2015
  123OSM   H16S13061   5.429   4.460   8.370 -2.4594  1.8283 -0.6878
  123OSM   H16T13062   5.500   4.620   8.308  1.5660 -0.1399  2.2721
  123OSM   C17S13063   5.643   4.480   8.372 -1.1010  0.5523  0.3769
  123OSM   H17S13064   5.726   4.544   8.334 -0.8977 -0.3379 -0.7345
  123OSM   H17T13065   5.661   4.375   8.342  1.1695  0.9023  0.3404
  123OSM   C18S13066   5.650   4.501   8.522  0.1388 -0.6376  0.2207
  123OSM   H18S13067   5.545   4.508   8.557 -0.5312 -0.0935 -1.7263
  123OSM   H18T13068   5.706   4.594   8.547  0.4704 -0.5042 -0.9673
  123OSM   H18U13069   5.714   4.430   8.578  1.7713  1.6021  1.3446
  123OSM    C1F13070   5.211   3.859   6.925  0.6929  0.8661 -0.6962
  123OSM     OF13071   5.273   3.749   6.931 -0.0667 -0.3064  0.3913
  123OSM    C2F13072   5.064   3.871   6.934  0.7134 -0.2917 -0.6628
  123OSM    H2F13073   5.035   3.823   6.838  1.4740  1.7042 -1.9699
  123OSM    H2G13074   5.029   3.977   6.936 -1.1641 -0.8254  3.2553
  123OSM    C3F13075   5.010   3.817   7.065 -0.2406  0.7546 -0.0266
  123OSM    H3F13076   5.043   3.711   7.074  1.2061  1.2431  0.6939
  123OSM    H3G13077   4.902   3.812   7.039  0.3091  0.2525 -2.5813
  123OSM    C4F13078   5.047   3.893   7.191  0.1006 -0.3702 -0.9242
  123OSM    H4F13079   5.051   4.002   7.168  1.1547  0.7136  3.3901
  123OSM    H4G13080   5.150   3.863   7.219 -0.0960 -1.9683 -1.7888
  123OSM    C5F13081   4.962   3.866   7.311 -0.0459 -0.3622 -0.7403
  123OSM    H5F13082   4.945   3.758   7.334  0.6798 -0.1274  1.0084
  123OSM    H5G13083   4.859   3.905   7.295 -0.2670  0.2157  1.7217
  123OSM    C6F13084   5.023   3.911   7.448 -0.0708 -0.3756 -0.1252
  123OSM    H6F13085   5.056   4.017   7.447 -1.3856  0.1712  3.0452
  123OSM    H6G13086   5.111   3.848   7.474  0.5568  0.3792 -0.3726
  123OSM    C7F13087   4.919   3.905   7.562 -0.0842 -0.5515 -0.2902
  123OSM    H7F13088   4.901   3.799   7.590 -1.6089  0.4418  2.8880
  123OSM    H7G13089   4.823   3.955   7.538 -0.9194 -1.4989  0.9677
  123OSM    C8F13090   4.975   3.965   7.698 -0.6553  0.4479  0.1754
  123OSM    H8F13091   5.008   4.071   7.701 -0.3584  0.3670 -0.1408
  123OSM    H8G13092   5.062   3.902   7.725  0.4879  1.0558 -1.8143
  123OSM    C9F13093   4.859   3.956   7.792 -0.2501  0.0860  0.7595
  123OSM    H9F13094   4.778   4.030   7.782  1.5006  1.9732  0.0015
  123OSM   C10F13095   4.847   3.859   7.884 -0.7945  0.4460 -0.7501
  123OSM   H10F13096   4.755   3.860   7.944  0.2785  0.5109  0.9381
  123OSM   C11F13097   4.934   3.747   7.921  0.1027 -0.3486 -0.0674
  123OSM   H11F13098   4.960   3.763   8.028 -1.5773  0.5140  0.2463
  123OSM   H11G13099   5.032   3.738   7.869  1.7193 -2.2560  3.0193
  123OSM   C12F13100   4.858   3.612   7.895 -0.3167 -0.0411  0.0825
  123OSM   H12F13101   4.931   3.529   7.893  1.0780  1.1403  0.5936
  123OSM   H12G13102   4.811   3.612   7.794  0.7368 -1.6235 -0.4336
  123OSM   C13F13103   4.751   3.580   8.007  0.1453 -0.2939  0.2276
  123OSM   H13F13104   4.690   3.493   7.974 -0.2641 -0.0260  0.2619
  123OSM   H13G13105   4.672   3.658   8.012 -1.7626 -2.1584  0.8242
  123OSM   C14F13106   4.797   3.543   8.149 -0.0520  0.1645  0.3844
  123OSM   H14F13107   4.843   3.636   8.189 -0.6118  1.1821 -1.2444
  123OSM   H14G13108   4.870   3.463   8.125 -0.3308  0.8135 -3.2217
  123OSM   C15F13109   4.693   3.496   8.254 -0.3007 -0.2044  0.1859
  123OSM   H15F13110   4.746   3.494   8.351  1.4901 -0.8531 -0.7499
  123OSM   H15G13111   4.670   3.388   8.242  2.0000 -0.8017  0.6804
  123OSM   C16F13112   4.570   3.580   8.256 -0.2824  0.1265  1.0605
  123OSM   H16F13113   4.514   3.528   8.176  1.5213  0.1611 -0.3054
  123OSM   H16G13114   4.575   3.689   8.233  1.6151 -0.0681  0.3413
  123OSM   C17F13115   4.474   3.546   8.373  0.2166 -0.0340 -0.5176
  123OSM   H17F13116   4.517   3.576   8.470 -2.5167 -0.3229  0.8876
  123OSM   H17G13117   4.448   3.439   8.391  0.4151  0.3913  2.8562
  123OSM   C18F13118   4.339   3.626   8.354 -0.1639  0.3889  0.3472
  123OSM   H18F13119   4.357   3.730   8.320  0.3099  0.8080  1.8019
  123OSM   H18G13120   4.295   3.639   8.455 -1.7309 -0.3317 -0.2096
  123OSM   H18H13121   4.276   3.568   8.283 -0.2777  0.0548  0.7116
  124OSM      N13122   4.532   6.505   6.394  0.1046 -0.0452  0.0308
  124OSM    C1513123   4.610   6.455   6.276  0.1764  0.4883  0.2810
  124OSM   H15A13124   4.544   6.394   6.216  0.4697 -1.8573  2.2111
  124OSM   H15B13125   4.691   6.391   6.308  1.8105  2.0050 -0.5567
  124OSM   H15C13126   4.660   6.526   6.211 -1.0242  0.6787 -0.4616
  124OSM    C1413127   4.628   6.564   6.486 -0.2329 -0.7276  0.0712
  124OSM   H14A13128   4.713   6.499   6.504  1.1611  1.4862  2.0071
  124OSM   H14B13129   4.581   6.599   6.577  0.3768  1.5468 -0.4283
  124OSM   H14C13130   4.675   6.649   6.439 -0.3895 -1.0267 -0.6450
  124OSM    C1313131   4.429   6.596   6.351 -0.1637  0.5326  0.1167
  124OSM   H13A13132   4.356   6.550   6.286  0.1182 -1.5137  1.1691
  124OSM   H13B13133   4.475   6.689   6.323  0.4673 -0.5510 -2.8480
  124OSM   H13C13134   4.369   6.631   6.434  2.1331  1.6947  1.3755
  124OSM    C1213135   4.483   6.374   6.451 -0.7732  0.0622  0.7072
  124OSM   H12A13136   4.440   6.394   6.547 -0.4088  2.4681  0.4206
  124OSM   H12B13137   4.560   6.298   6.459  0.0479  0.7638 -0.1589
  124OSM    C1113138   4.379   6.299   6.359 -0.0112 -0.2959  0.2727
  124OSM   H11A13139   4.295   6.370   6.346  0.5491  0.2526 -0.4189
  124OSM   H11B13140   4.343   6.213   6.419  1.2091  0.5490  2.3353
  124OSM      P13141   4.491   6.111   6.207 -0.4059 -0.3029 -0.0916
  124OSM    O1313142   4.399   6.036   6.120 -0.1450  0.5385  0.3377
  124OSM    O1413143   4.630   6.125   6.155  0.4231 -0.1266  0.5536
  124OSM    O1113144   4.483   6.048   6.354  0.6367  0.2713 -0.0147
  124OSM    O1213145   4.427   6.258   6.229  0.4413 -0.4466 -0.2762
  124OSM    C1S13146   4.522   5.913   6.371  0.1610 -0.1388  0.1059
  124OSM    H1S13147   4.621   5.896   6.323  0.3333  2.3459 -0.5762
  124OSM    H1T13148   4.462   5.845   6.307  0.0119  0.1761 -0.0948
  124OSM     NF13149   4.628   5.753   6.527  0.0603  0.8550 -0.1500
  124OSM    HNF13150   4.599   5.677   6.585  1.9383 -0.1553 -0.4483
  124OSM    C2S13151   4.531   5.864   6.518  0.6336  0.4922 -0.3420
  124OSM    H2S13152   4.563   5.940   6.593 -0.6517 -1.5027  2.4140
  124OSM    C3S13153   4.385   5.837   6.564  0.8836  0.5076  0.6172
  124OSM    H3S13154   4.346   5.764   6.490  3.3750  0.8035 -1.1284
  124OSM     O313155   4.306   5.957   6.555 -0.0405 -0.3045 -0.3584
  124OSM    HO313156   4.362   6.020   6.509 -0.1881 -0.9785 -1.5175
  124OSM    C4S13157   4.386   5.785   6.701 -0.7733  0.6670 -0.3716
  124OSM    H4S13158   4.378   5.676   6.705  0.6878  0.5382 -0.3167
  124OSM    C5S13159   4.399   5.854   6.810 -0.3699 -0.3528 -0.6175
  124OSM    H5S13160   4.397   5.962   6.789  2.0073 -0.5426 -2.2487
  124OSM    C6S13161   4.409   5.806   6.949 -0.1808  0.3697  0.2022
  124OSM    H6S13162   4.513   5.806   6.989 -1.0024  1.7767  2.4938
  124OSM    H6T13163   4.363   5.705   6.957 -0.9197  0.3053 -3.2568
  124OSM    C7S13164   4.316   5.884   7.040 -0.3287  0.3541  0.4200
  124OSM    H7S13165   4.210   5.878   7.009 -0.1613  1.2447 -0.3809
  124OSM    H7T13166   4.354   5.988   7.053 -0.6959  0.4319  0.8690
  124OSM    C8S13167   4.306   5.826   7.182  0.1160  0.1486  0.3094
  124OSM    H8S13168   4.409   5.830   7.223  1.5385 -1.2860 -2.7744
  124OSM    H8T13169   4.274   5.720   7.169 -0.1115  0.4280 -1.7662
  124OSM    C9S13170   4.215   5.919   7.262  0.1289  0.3268 -0.5531
  124OSM    H9S13171   4.110   5.897   7.233 -0.4588  1.2836  0.7326
  124OSM    H9T13172   4.245   6.022   7.233 -2.9922  1.2322 -0.9739
  124OSM   C10S13173   4.218   5.893   7.414  0.2588  0.3089  0.1605
  124OSM   H10S13174   4.251   5.793   7.449 -0.3708 -0.0211 -0.1715
  124OSM   H10T13175   4.109   5.901   7.436  0.0940 -1.6853  0.2680
  124OSM   C11S13176   4.297   5.992   7.493 -0.3819 -0.2886 -0.2180
  124OSM   H11S13177   4.247   6.091   7.486  1.2720  0.6098  0.2712
  124OSM   H11T13178   4.397   6.007   7.447 -0.0789 -1.3881  0.0675
  124OSM   C12S13179   4.303   5.948   7.637  0.0575  0.0126 -0.4498
  124OSM   H12S13180   4.371   5.861   7.644  0.7095  0.6010  0.9009
  124OSM   H12T13181   4.208   5.914   7.682  0.7833 -0.2886  0.9087
  124OSM   C13S13182   4.358   6.062   7.725 -0.2653 -0.3794  0.0798
  124OSM   H13S13183   4.292   6.147   7.699 -1.7382 -1.0695  1.3836
  124OSM   H13T13184   4.464   6.095   7.717 -0.2239 -0.3245  0.7960
  124OSM   C14S13185   4.317   6.050   7.870 -0.2566 -0.0858  0.1607
  124OSM   H14S13186   4.206   6.045   7.872 -0.4692  0.4221 -3.7582
  124OSM   H14T13187   4.353   6.144   7.917 -0.5087  0.4214 -0.6487
  124OSM   C15S13188   4.386   5.930   7.944 -0.2835  0.0926 -0.9942
  124OSM   H15S13189   4.496   5.940   7.937 -0.2823  0.0506 -1.0409
  124OSM   H15T13190   4.365   5.832   7.896  0.2373 -1.3033  1.5025
  124OSM   C16S13191   4.347   5.915   8.089  0.7496 -0.1795 -1.0760
  124OSM   H16S13192   4.345   6.020   8.124  1.5076 -1.1632  2.2163
  124OSM   H16T13193   4.437   5.884   8.145 -0.5660 -2.6781 -0.1587
  124OSM   C17S13194   4.218   5.837   8.127  0.2037  0.3100 -0.5474
  124OSM   H17S13195   4.234   5.727   8.129 -2.7159 -0.1874 -0.8726
  124OSM   H17T13196   4.139   5.866   8.055 -0.4315  0.8327  0.3362
  124OSM   C18S13197   4.172   5.878   8.266 -0.2683  0.1268  0.0763
  124OSM   H18S13198   4.132   5.982   8.268 -2.4930 -0.6784  0.1522
  124OSM   H18T13199   4.252   5.876   8.343  1.0479  1.2810 -1.1727
  124OSM   H18U13200   4.093   5.808   8.298  1.0008 -0.7264  1.4384
  124OSM    C1F13201   4.757   5.775   6.518 -0.3847  0.0792  0.5629
  124OSM     OF13202   4.791   5.891   6.485  0.1654  0.3399 -0.0893
  124OSM    C2F13203   4.849   5.660   6.543  0.1354  0.3771  0.2611
  124OSM    H2F13204   4.949   5.697   6.510 -0.7743  1.3877 -1.5023
  124OSM    H2G13205   4.812   5.574   6.482  1.0103 -1.0147  1.6045
  124OSM    C3F13206   4.862   5.616   6.693  0.3217 -0.5627  0.3965
  124OSM    H3F13207   4.946   5.544   6.684 -1.3504 -2.7665  1.5035
  124OSM    H3G13208   4.773   5.565   6.737 -0.9567  0.9457 -0.3463
  124OSM    C4F13209   4.906   5.737   6.784  0.5977 -1.1083  0.9001
  124OSM    H4F13210   4.820   5.807   6.778  0.5686 -1.1410  0.9346
  124OSM    H4G13211   4.999   5.784   6.748  0.5069 -2.2397 -0.9310
  124OSM    C5F13212   4.925   5.679   6.924  0.5059 -0.1132  0.3942
  124OSM    H5F13213   5.024   5.630   6.918 -0.2848 -1.7914  0.4334
  124OSM    H5G13214   4.839   5.611   6.946  0.1992 -0.0574 -0.6055
  124OSM    C6F13215   4.928   5.795   7.023 -0.4899  0.1902 -0.1983
  124OSM    H6F13216   4.844   5.866   7.006 -0.8474  0.6485  2.9805
  124OSM    H6G13217   5.017   5.859   7.005  0.2638 -0.9876 -0.8067
  124OSM    C7F13218   4.925   5.746   7.168 -0.9229 -0.2220 -0.7678
  124OSM    H7F13219   4.962   5.829   7.232 -3.3448 -1.0794  1.9270
  124OSM    H7G13220   5.003   5.668   7.183 -0.4712  0.4131  0.2796
  124OSM    C8F13221   4.794   5.707   7.224  0.6278  0.1104 -0.0033
  124OSM    H8F13222   4.802   5.657   7.323 -0.6405 -1.5193 -0.6830
  124OSM    H8G13223   4.748   5.627   7.162 -0.1799  0.1937  0.4860
  124OSM    C9F13224   4.700   5.824   7.242  0.1086  0.0759  0.3025
  124OSM    H9F13225   4.622   5.838   7.166 -1.3759  4.3986  2.2803
  124OSM   C10F13226   4.699   5.905   7.354 -0.1877 -0.3618 -0.5590
  124OSM   H10F13227   4.637   5.995   7.342  0.3648 -0.0226 -0.8981
  124OSM   C11F13228   4.783   5.898   7.474 -0.3631  0.3289 -0.8203
  124OSM   H11F13229   4.886   5.858   7.461 -0.3612 -1.0089  2.4630
  124OSM   H11G13230   4.728   5.835   7.547  0.7998 -1.2206 -1.2346
  124OSM   C12F13231   4.790   6.040   7.543 -0.0256 -0.2992  0.4998
  124OSM   H12F13232   4.689   6.081   7.564 -0.5627 -1.5139  0.3721
  124OSM   H12G13233   4.836   6.122   7.483 -2.9485  2.6057  1.9489
  124OSM   C13F13234   4.854   6.038   7.679  0.0617 -0.3494  0.6786
  124OSM   H13F13235   4.908   6.132   7.701 -0.5149  0.0170  0.5584
  124OSM   H13G13236   4.935   5.963   7.663  2.3650  1.9995  0.7330
  124OSM   C14F13237   4.741   6.012   7.785 -0.0368  0.3568 -0.4112
  124OSM   H14F13238   4.683   5.920   7.764  1.9094 -0.5855 -1.8945
  124OSM   H14G13239   4.674   6.100   7.795 -0.4039 -0.1127  1.7126
  124OSM   C15F13240   4.804   5.984   7.917  0.0321 -0.9036  0.5708
  124OSM   H15F13241   4.895   5.922   7.900 -0.4753 -0.8912 -3.0081
  124OSM   H15G13242   4.730   5.929   7.979 -2.1430  0.8428 -0.3261
  124OSM   C16F13243   4.834   6.117   7.993  0.2331 -0.2082  0.3127
  124OSM   H16F13244   4.890   6.183   7.924  0.7900 -1.0100 -0.0238
  124OSM   H16G13245   4.901   6.081   8.074  0.7738 -0.2305 -0.1388
  124OSM   C17F13246   4.711   6.182   8.048 -0.4102  0.2039 -0.1106
  124OSM   H17F13247   4.674   6.119   8.132  0.6294  0.5592  0.6344
  124OSM   H17G13248   4.639   6.194   7.966  0.5523 -0.6168 -1.1127
  124OSM   C18F13249   4.756   6.319   8.109  0.2924  0.1175  0.1557
  124OSM   H18F13250   4.788   6.378   8.021 -1.0541 -0.2618 -0.6090
  124OSM   H18G13251   4.836   6.313   8.187 -0.9892  1.5987  1.6713
  124OSM   H18H13252   4.662   6.360   8.153 -0.0592 -3.1212  2.8418
  125OSM      N13253   0.579   5.990   6.019 -0.0073  0.0014 -0.0277
  125OSM    C1513254   0.545   6.013   5.875  0.2566 -0.3622  0.7545
  125OSM   H15A13255   0.509   6.114   5.867 -1.5244 -0.7542  2.7320
  125OSM   H15B13256   0.462   5.948   5.851 -1.6902  1.1292  2.9700
  125OSM   H15C13257   0.629   5.995   5.810 -0.0807 -1.5574  0.6241
  125OSM    C1413258   0.613   5.839   6.021 -0.3532 -0.7591 -0.3159
  125OSM   H14A13259   0.616   5.820   6.127 -0.7008  1.5851  0.1487
  125OSM   H14B13260   0.708   5.827   5.971 -0.1516  0.2356 -0.1702
  125OSM   H14C13261   0.527   5.785   5.981 -1.5165 -0.3066  1.4431
  125OSM    C1313262   0.704   6.072   6.049  0.1401  0.0627  0.0794
  125OSM   H13A13263   0.793   6.052   5.990 -0.5324  0.6671 -1.1812
  125OSM   H13B13264   0.721   6.053   6.154 -1.5828  0.2380  0.4105
  125OSM   H13C13265   0.680   6.176   6.032 -1.7276 -0.0717  1.6547
  125OSM    C1213266   0.460   6.014   6.107 -1.1006  1.0032 -0.0812
  125OSM   H12A13267   0.392   5.931   6.095 -0.4262  0.4956 -0.4452
  125OSM   H12B13268   0.405   6.101   6.075 -1.4821  1.2989  1.3091
  125OSM    C1113269   0.497   6.020   6.254 -0.4936  0.2229 -0.0670
  125OSM   H11A13270   0.403   6.024   6.312  0.1471  0.5304  0.9841
  125OSM   H11B13271   0.547   6.120   6.251  3.0911 -1.3546 -4.2515
  125OSM      P13272   0.531   5.792   6.367  0.1396  0.1167 -0.1488
  125OSM    O1313273   0.414   5.744   6.294 -0.3456 -0.3932 -0.1508
  125OSM    O1413274   0.639   5.696   6.397 -0.1317 -0.1273 -0.0181
  125OSM    O1113275   0.474   5.854   6.505 -0.3980 -0.5390 -0.1836
  125OSM    O1213276   0.584   5.922   6.304  0.5675 -0.1583  0.0738
  125OSM    C1S13277   0.582   5.904   6.591  0.0068 -0.7184  0.8602
  125OSM    H1S13278   0.646   5.983   6.548 -0.6762 -0.9818 -0.7082
  125OSM    H1T13279   0.655   5.831   6.632  2.7067  1.0256 -0.5530
  125OSM     NF13280   0.601   6.055   6.787  0.2136 -0.0945 -0.5735
  125OSM    HNF13281   0.652   6.019   6.864  1.4784  2.3237 -0.1778
  125OSM    C2S13282   0.505   5.970   6.715 -0.2059 -0.1733 -0.3494
  125OSM    H2S13283   0.417   6.027   6.677 -0.9538 -0.6119  0.6528
  125OSM    C3S13284   0.443   5.861   6.806 -0.1590  0.4073 -0.2854
  125OSM    H3S13285   0.516   5.788   6.845 -0.5215 -0.2299 -0.7711
  125OSM     O313286   0.338   5.793   6.738 -0.4252  0.0130 -0.2189
  125OSM    HO313287   0.346   5.809   6.643 -2.6884 -0.6092 -0.5832
  125OSM    C4S13288   0.374   5.922   6.924  0.8253  0.4080  0.0684
  125OSM    H4S13289   0.269   5.942   6.896 -0.5830 -3.2047  2.0587
  125OSM    C5S13290   0.408   5.915   7.055 -0.3847 -0.3834  0.1935
  125OSM    H5S13291   0.498   5.863   7.090  1.5347  1.0373 -2.2537
  125OSM    C6S13292   0.332   5.976   7.168  0.2040 -0.3954  0.1276
  125OSM    H6S13293   0.315   5.894   7.241  0.1353  0.6991  1.3962
  125OSM    H6T13294   0.237   6.026   7.142  0.8293  0.8285  0.0865
  125OSM    C7S13295   0.412   6.082   7.248 -0.0607  0.4413 -0.0428
  125OSM    H7S13296   0.341   6.136   7.314 -0.2243  2.1507 -1.5376
  125OSM    H7T13297   0.444   6.166   7.182  0.4055  1.1646  1.0737
  125OSM    C8S13298   0.541   6.024   7.326 -0.2156  0.6463 -0.3176
  125OSM    H8S13299   0.607   6.104   7.368  0.6625 -0.3605  0.2752
  125OSM    H8T13300   0.604   5.991   7.241  0.0132  3.9568 -1.5654
  125OSM    C9S13301   0.528   5.912   7.432  0.2630 -0.4230  0.0950
  125OSM    H9S13302   0.451   5.835   7.412  0.6670 -0.9473  0.5506
  125OSM    H9T13303   0.491   5.968   7.520 -0.4771 -1.1048  0.2227
  125OSM   C10S13304   0.668   5.873   7.477  0.0532 -0.3491 -0.2301
  125OSM   H10S13305   0.726   5.962   7.511 -1.5861  1.3033 -1.5350
  125OSM   H10T13306   0.714   5.812   7.397  1.2349  0.0998  0.0756
  125OSM   C11S13307   0.654   5.793   7.611 -0.0588 -0.1085 -0.1937
  125OSM   H11S13308   0.575   5.716   7.599  0.0219  0.0702 -2.1868
  125OSM   H11T13309   0.621   5.866   7.688  0.3433  0.1527 -0.2679
  125OSM   C12S13310   0.788   5.728   7.656 -0.0988 -0.2872 -0.3720
  125OSM   H12S13311   0.859   5.812   7.671 -0.4347 -0.0914  0.1734
  125OSM   H12T13312   0.816   5.669   7.566 -2.3093 -1.3322 -0.4337
  125OSM   C13S13313   0.765   5.647   7.791  0.1246 -0.1727  0.2237
  125OSM   H13S13314   0.670   5.593   7.774 -0.4337 -0.1697  2.9606
  125OSM   H13T13315   0.759   5.709   7.883 -0.7672 -1.2926  0.9500
  125OSM   C14S13316   0.876   5.542   7.799  0.7843  0.3187 -0.2436
  125OSM   H14S13317   0.974   5.590   7.775  1.7718 -0.6860  1.5879
  125OSM   H14T13318   0.853   5.466   7.721  0.4192  0.5179 -0.3331
  125OSM   C15S13319   0.899   5.453   7.924 -0.0939 -0.3635  0.2452
  125OSM   H15S13320   0.989   5.392   7.900  0.1317  0.3349 -0.7687
  125OSM   H15T13321   0.818   5.381   7.949  1.2419 -1.3808  1.8983
  125OSM   C16S13322   0.922   5.534   8.049 -0.7703 -1.0199  1.2608
  125OSM   H16S13323   0.839   5.605   8.066 -1.7946 -0.9106 -2.9883
  125OSM   H16T13324   1.013   5.596   8.034 -3.0143  2.3801  0.6736
  125OSM   C17S13325   0.940   5.446   8.166  0.3026  0.1402  0.5495
  125OSM   H17S13326   0.849   5.383   8.175  0.6404 -0.1444  2.3133
  125OSM   H17T13327   0.949   5.519   8.250 -3.0157  1.2662  0.0723
  125OSM   C18S13328   1.068   5.362   8.169  0.6152 -0.7710  0.1102
  125OSM   H18S13329   1.051   5.280   8.096 -1.2863 -2.3035  2.1359
  125OSM   H18T13330   1.077   5.319   8.271  0.0232 -4.4966 -1.2560
  125OSM   H18U13331   1.152   5.430   8.145 -0.9282  1.4718  0.7451
  125OSM    C1F13332   0.633   6.173   6.747 -0.4047  0.5814  1.1309
  125OSM     OF13333   0.595   6.214   6.636  0.0776  0.2432 -0.0583
  125OSM    C2F13334   0.732   6.252   6.829  0.7208  0.6993 -0.8702
  125OSM    H2F13335   0.775   6.333   6.767  3.6397  0.8071  1.0674
  125OSM    H2G13336   0.817   6.188   6.860 -0.0757  0.0657  0.1123
  125OSM    C3F13337   0.658   6.320   6.954 -0.4097  0.4722  0.3661
  125OSM    H3F13338   0.605   6.247   7.019  0.2574  0.2583  0.6790
  125OSM    H3G13339   0.576   6.383   6.915 -0.6565 -0.0863 -0.0260
  125OSM    C4F13340   0.749   6.423   7.029 -0.3290 -0.2899 -0.1830
  125OSM    H4F13341   0.784   6.499   6.957 -0.5121  0.3294  0.3776
  125OSM    H4G13342   0.829   6.358   7.070 -1.1700 -0.9745  0.4204
  125OSM    C5F13343   0.665   6.503   7.135 -0.3284  0.6236 -0.2041
  125OSM    H5F13344   0.611   6.431   7.200  0.3061  0.8949  0.6406
  125OSM    H5G13345   0.601   6.576   7.082  0.1534  1.3299  0.1696
  125OSM    C6F13346   0.758   6.582   7.225  0.6725  0.1092 -0.5297
  125OSM    H6F13347   0.785   6.673   7.167 -0.1724  0.9490  0.3424
  125OSM    H6G13348   0.850   6.521   7.240 -0.0099 -1.8282 -3.3714
  125OSM    C7F13349   0.686   6.633   7.351  0.4946  0.4720 -0.0455
  125OSM    H7F13350   0.686   6.548   7.423  0.1208 -1.4152 -2.1732
  125OSM    H7G13351   0.591   6.681   7.321  0.6558  0.1948 -1.0441
  125OSM    C8F13352   0.742   6.765   7.415  0.2134  0.1589  0.0775
  125OSM    H8F13353   0.672   6.792   7.497 -0.8913  0.6805 -1.0081
  125OSM    H8G13354   0.741   6.855   7.351 -1.4826 -1.3767 -2.2130
  125OSM    C9F13355   0.882   6.739   7.465  0.6416 -0.6366  0.0586
  125OSM    H9F13356   0.950   6.682   7.400 -2.6337 -1.7312 -2.7055
  125OSM   C10F13357   0.924   6.774   7.589 -0.4337  0.2406  0.9659
  125OSM   H10F13358   1.022   6.741   7.627  0.4652  2.7899  1.0224
  125OSM   C11F13359   0.841   6.838   7.694 -0.0493  0.5366 -0.5957
  125OSM   H11F13360   0.749   6.888   7.659 -1.8667 -1.9928  0.2188
  125OSM   H11G13361   0.894   6.925   7.738  0.3774  0.9381 -1.8492
  125OSM   C12F13362   0.784   6.758   7.806  0.0526 -0.1309 -0.1344
  125OSM   H12F13363   0.725   6.818   7.879 -1.8792 -3.6212  1.3942
  125OSM   H12G13364   0.863   6.721   7.875  1.0147  2.3749  0.2335
  125OSM   C13F13365   0.669   6.653   7.771 -0.5497  0.2747  0.5235
  125OSM   H13F13366   0.724   6.571   7.719 -1.7139 -0.1462 -0.0822
  125OSM   H13G13367   0.598   6.691   7.694 -0.5967 -1.5100 -0.3759
  125OSM   C14F13368   0.589   6.616   7.895 -0.5197 -0.1260  0.0252
  125OSM   H14F13369   0.502   6.555   7.861 -1.2894  1.9746 -2.0516
  125OSM   H14G13370   0.552   6.705   7.950 -0.2372  1.0834 -1.6669
  125OSM   C15F13371   0.666   6.525   7.995  0.4509 -0.8647  0.2954
  125OSM   H15F13372   0.751   6.580   8.040  0.4136  1.7883 -2.5260
  125OSM   H15G13373   0.701   6.434   7.941  0.3414 -2.1357  2.2837
  125OSM   C16F13374   0.571   6.487   8.114 -0.0118  0.0968  1.0518
  125OSM   H16F13375   0.472   6.459   8.070 -0.2431  0.3942  1.3819
  125OSM   H16G13376   0.555   6.577   8.177  2.9360  0.2167  1.7714
  125OSM   C17F13377   0.619   6.364   8.190 -0.4249 -0.2909 -0.4696
  125OSM   H17F13378   0.717   6.399   8.226 -0.3175 -0.5307 -0.5284
  125OSM   H17G13379   0.636   6.270   8.133 -2.7306 -0.1113 -1.5986
  125OSM   C18F13380   0.533   6.340   8.318  0.8550  0.1365 -0.5068
  125OSM   H18F13381   0.515   6.432   8.378 -2.1500 -0.7689  0.1759
  125OSM   H18G13382   0.572   6.258   8.382 -0.2026 -0.5268 -0.6816
  125OSM   H18H13383   0.429   6.313   8.287  0.0464  0.7958  1.4604
  126OSM      N13384   5.830   3.253   6.380  0.4369 -0.2482  0.6533
  126OSM    C1513385   5.743   3.327   6.290  1.0866 -0.0326  0.3514
  126OSM   H15A13386   5.690   3.274   6.213  1.9742  0.3029 -0.5144
  126OSM   H15B13387   5.800   3.402   6.237  0.1212 -1.4149 -2.8666
  126OSM   H15C13388   5.665   3.376   6.346 -0.7290 -1.3568 -0.9216
  126OSM    C1413389   5.776   3.121   6.429 -0.3762 -0.3945  0.1449
  126OSM   H14A13390   5.852   3.056   6.470  0.4061  0.6396  0.3915
  126OSM   H14B13391   5.735   3.077   6.339  0.9746  2.9051 -2.2814
  126OSM   H14C13392   5.706   3.131   6.510 -0.9691 -0.8482 -0.3035
  126OSM    C1313393   5.945   3.211   6.289 -0.4976  0.0332 -0.6121
  126OSM   H13A13394   5.993   3.303   6.258 -1.9459  1.1741  0.4237
  126OSM   H13B13395   5.916   3.140   6.214 -0.6115 -1.2115  0.5805
  126OSM   H13C13396   6.021   3.156   6.343  0.1789  1.5698  0.0815
  126OSM    C1213397   5.887   3.338   6.494 -0.4186  0.3690 -0.5515
  126OSM   H12A13398   5.957   3.415   6.466  0.5547  0.7707  2.6001
  126OSM   H12B13399   5.949   3.271   6.551 -2.9077 -0.1643  1.7116
  126OSM    C1113400   5.786   3.391   6.594  0.2629 -0.7427  0.8717
  126OSM   H11A13401   5.712   3.452   6.538  0.1312  0.0182  1.8461
  126OSM   H11B13402   5.828   3.469   6.661 -0.9746  0.7437 -0.0210
  126OSM      P13403   5.752   3.244   6.810  0.3585 -0.3190  0.1092
  126OSM    O1313404   5.659   3.139   6.862  0.0749 -0.4976 -0.0992
  126OSM    O1413405   5.895   3.228   6.809  0.2357  0.4646 -0.4995
  126OSM    O1113406   5.725   3.376   6.886  0.3739  0.0194 -0.2120
  126OSM    O1213407   5.714   3.287   6.666 -0.1186  0.2441 -0.2449
  126OSM    C1S13408   5.597   3.442   6.878  0.1966 -0.2892  0.5484
  126OSM    H1S13409   5.508   3.376   6.871  0.3537 -0.4211 -0.2881
  126OSM    H1T13410   5.598   3.499   6.783  0.8296 -1.9888 -0.5057
  126OSM     NF13411   5.426   3.531   7.044 -0.4988 -0.1153  0.0812
  126OSM    HNF13412   5.377   3.605   6.999  0.3818  0.4123 -0.0449
  126OSM    C2S13413   5.570   3.521   7.013  0.2162 -0.0101  0.4536
  126OSM    H2S13414   5.618   3.458   7.091  2.5122 -0.6162 -1.3223
  126OSM    C3S13415   5.636   3.661   6.995 -0.4172 -0.3606 -0.0019
  126OSM    H3S13416   5.576   3.726   6.929  0.0334 -0.1494 -0.2104
  126OSM     O313417   5.767   3.659   6.926 -0.2236  0.4289 -0.0825
  126OSM    HO313418   5.769   3.565   6.907  1.2592  0.2208  0.8828
  126OSM    C4S13419   5.657   3.724   7.128  0.4097  0.3253 -0.0581
  126OSM    H4S13420   5.741   3.675   7.180  0.4392  2.0620  1.6250
  126OSM    C5S13421   5.578   3.818   7.189  0.3663 -0.2561 -0.1423
  126OSM    H5S13422   5.489   3.864   7.144  1.0133  0.0045 -1.2070
  126OSM    C6S13423   5.591   3.864   7.328  0.3587  0.2836 -0.1142
  126OSM    H6S13424   5.662   3.949   7.320 -0.9991  1.5568  0.6310
  126OSM    H6T13425   5.641   3.793   7.396 -0.9836 -0.5226  0.0637
  126OSM    C7S13426   5.469   3.901   7.404 -0.9608 -1.0110 -0.2941
  126OSM    H7S13427   5.395   3.820   7.384 -0.1492 -2.1430  1.0691
  126OSM    H7T13428   5.429   4.001   7.376 -0.6080 -0.4047  1.3043
  126OSM    C8S13429   5.501   3.908   7.560 -0.2031  0.6285 -1.0732
  126OSM    H8S13430   5.570   3.995   7.567  1.2844 -0.6358  0.5917
  126OSM    H8T13431   5.547   3.818   7.605 -1.8346  0.5479  0.5430
  126OSM    C9S13432   5.380   3.963   7.640 -0.2986  0.4677 -0.1609
  126OSM    H9S13433   5.305   3.881   7.644 -0.5547  0.7471  2.3239
  126OSM    H9T13434   5.330   4.054   7.600 -2.7500 -1.3108 -1.4413
  126OSM   C10S13435   5.434   3.985   7.782 -0.1003 -0.0153 -0.1389
  126OSM   H10S13436   5.479   4.087   7.779 -1.2448  0.5006 -1.1266
  126OSM   H10T13437   5.523   3.921   7.799  0.3973  1.0667  1.5980
  126OSM   C11S13438   5.329   3.985   7.895 -0.6360  0.3824  0.6661
  126OSM   H11S13439   5.292   3.882   7.915  2.0116 -0.5467  1.2600
  126OSM   H11T13440   5.244   4.043   7.856 -0.3265 -1.3881 -3.1586
  126OSM   C12S13441   5.382   4.041   8.030  1.1099  0.1941 -0.2875
  126OSM   H12S13442   5.416   4.146   8.022  1.4217  0.1090 -0.0915
  126OSM   H12T13443   5.466   3.976   8.064  1.1563  0.7335  0.6599
  126OSM   C13S13444   5.274   4.038   8.141 -0.6413  0.0339 -0.0124
  126OSM   H13S13445   5.241   3.934   8.164  0.3016  0.0226  1.3873
  126OSM   H13T13446   5.184   4.093   8.104  1.1173  2.4766 -0.8842
  126OSM   C14S13447   5.300   4.110   8.275  0.1984  0.3110 -0.0207
  126OSM   H14S13448   5.267   4.215   8.261  1.0428  0.4329 -1.2901
  126OSM   H14T13449   5.409   4.109   8.298 -0.1137 -1.4919  1.7140
  126OSM   C15S13450   5.225   4.056   8.400  0.3330 -0.2632  0.4348
  126OSM   H15S13451   5.261   3.953   8.420  1.2317  0.2520  1.5721
  126OSM   H15T13452   5.115   4.061   8.384  0.4526  1.9592  0.0550
  126OSM   C16S13453   5.257   4.134   8.523 -0.5156 -0.4142 -0.6277
  126OSM   H16S13454   5.239   4.241   8.500  2.9323 -0.1272 -2.7044
  126OSM   H16T13455   5.360   4.120   8.562 -0.1620  1.5513 -0.7268
  126OSM   C17S13456   5.157   4.107   8.638  0.2273  0.3287  0.9607
  126OSM   H17S13457   5.173   4.007   8.682  0.3711  0.7483  1.8906
  126OSM   H17T13458   5.055   4.108   8.595  1.0633  1.3097 -1.1293
  126OSM   C18S13459   5.155   4.221   8.753 -0.3628  0.5084  1.4578
  126OSM   H18S13460   5.060   4.214   8.811 -1.0676 -2.7540  0.1142
  126OSM   H18T13461   5.164   4.323   8.711  1.7065 -0.3284 -0.3266
  126OSM   H18U13462   5.235   4.207   8.829  1.5654 -0.7041 -0.6734
  126OSM    C1F13463   5.349   3.433   7.076 -0.2698  0.7887  0.1584
  126OSM     OF13464   5.400   3.329   7.107  0.2482  0.0557 -0.1052
  126OSM    C2F13465   5.201   3.443   7.083  1.0245  0.8223  0.6072
  126OSM    H2F13466   5.161   3.340   7.085 -0.3667  1.3340  0.2874
  126OSM    H2G13467   5.159   3.483   6.989  1.1987  0.4336  0.3626
  126OSM    C3F13468   5.143   3.510   7.211 -0.1888 -0.0361  0.3063
  126OSM    H3F13469   5.034   3.498   7.200 -0.9805  5.0315  0.4840
  126OSM    H3G13470   5.165   3.619   7.218 -0.0349 -0.0881  0.6777
  126OSM    C4F13471   5.199   3.445   7.332  0.2395  0.0933 -0.4076
  126OSM    H4F13472   5.309   3.453   7.340  0.1616 -0.5708  2.5365
  126OSM    H4G13473   5.177   3.336   7.331  1.1091 -0.0927 -1.1371
  126OSM    C5F13474   5.146   3.498   7.465  0.2855  0.8186 -0.2588
  126OSM    H5F13475   5.036   3.482   7.464  0.2122  1.0881 -2.9554
  126OSM    H5G13476   5.157   3.608   7.467 -3.2050  1.2473  0.4513
  126OSM    C6F13477   5.204   3.445   7.597  0.1461 -0.0366  0.0908
  126OSM    H6F13478   5.305   3.491   7.603 -0.4213  1.1318  0.9730
  126OSM    H6G13479   5.217   3.335   7.605 -0.3243 -0.0595  0.5797
  126OSM    C7F13480   5.118   3.480   7.728 -0.1208 -0.6057 -0.9861
  126OSM    H7F13481   5.028   3.415   7.734 -1.0223  0.7272  0.8141
  126OSM    H7G13482   5.093   3.587   7.711  1.2883 -0.0679  0.1670
  126OSM    C8F13483   5.194   3.469   7.860  0.3541 -0.1253 -0.7282
  126OSM    H8F13484   5.136   3.509   7.946  3.2405  1.0725  0.7996
  126OSM    H8G13485   5.275   3.544   7.846 -1.0577  1.4627 -0.6762
  126OSM    C9F13486   5.246   3.338   7.898  0.1908 -0.5122 -0.1484
  126OSM    H9F13487   5.330   3.301   7.837 -1.1087 -0.7207 -1.8552
  126OSM   C10F13488   5.231   3.279   8.018  0.7520 -0.0244  0.0174
  126OSM   H10F13489   5.289   3.187   8.035  1.1579  0.4224  1.2066
  126OSM   C11F13490   5.149   3.322   8.137 -0.9142 -0.3897 -0.7992
  126OSM   H11F13491   5.041   3.318   8.111 -1.0476 -0.8319 -0.2047
  126OSM   H11G13492   5.181   3.424   8.169  0.4234 -0.7284 -0.9775
  126OSM   C12F13493   5.152   3.220   8.254 -0.1376  0.6674 -0.2074
  126OSM   H12F13494   5.254   3.209   8.297 -0.4091  1.5955  0.7191
  126OSM   H12G13495   5.134   3.118   8.215 -0.3265  0.6416 -0.0588
  126OSM   C13F13496   5.049   3.249   8.357 -0.1747 -0.2595  0.0323
  126OSM   H13F13497   4.957   3.247   8.295  1.3323  0.1519 -2.3411
  126OSM   H13G13498   5.056   3.345   8.412 -1.8607 -0.3935  0.5516
  126OSM   C14F13499   5.035   3.152   8.473 -0.3973  0.0379  0.0776
  126OSM   H14F13500   5.128   3.174   8.529  0.1272  2.0067 -1.4131
  126OSM   H14G13501   5.031   3.050   8.431  2.2872  0.3528 -1.1592
  126OSM   C15F13502   4.909   3.187   8.560 -0.3236 -0.0172  0.4521
  126OSM   H15F13503   4.907   3.107   8.638 -0.9089  1.0174  1.5308
  126OSM   H15G13504   4.815   3.177   8.502  0.5036 -3.5939 -0.5412
  126OSM   C16F13505   4.920   3.318   8.644  0.6666  1.1449  0.0212
  126OSM   H16F13506   4.931   3.413   8.586  0.0030  1.9670  1.1983
  126OSM   H16G13507   5.016   3.307   8.699  0.0964 -2.1146  0.5608
  126OSM   C17F13508   4.799   3.323   8.735 -0.7286 -0.4698 -0.2561
  126OSM   H17F13509   4.767   3.223   8.771 -3.0946  0.9655  1.9050
  126OSM   H17G13510   4.719   3.362   8.670 -0.3725  0.6059 -0.0775
  126OSM   C18F13511   4.823   3.425   8.851  0.3089 -0.7448  0.2889
  126OSM   H18F13512   4.728   3.423   8.909  1.0644 -1.4136  1.5382
  126OSM   H18G13513   4.831   3.527   8.809 -1.7065 -0.4064  0.6280
  126OSM   H18H13514   4.911   3.398   8.913  0.1654  0.7182  1.1727
  127OSM      N13515   5.141   3.863   6.293 -0.3418  0.1603 -0.2555
  127OSM    C1513516   5.000   3.913   6.295 -0.4558 -0.5207  0.1427
  127OSM   H15A13517   4.939   3.831   6.261  0.5611 -1.4375  0.4868
  127OSM   H15B13518   4.982   3.990   6.221  0.7394  0.2151  0.5801
  127OSM   H15C13519   4.965   3.951   6.389 -2.6232 -0.6145 -0.5794
  127OSM    C1413520   5.159   3.753   6.399  0.0439 -0.4758  0.3734
  127OSM   H14A13521   5.170   3.795   6.498  2.1582  0.1476 -0.0833
  127OSM   H14B13522   5.253   3.704   6.378  0.1878 -0.2264  0.4299
  127OSM   H14C13523   5.081   3.680   6.393 -1.3403  0.5893  3.2497
  127OSM    C1313524   5.175   3.808   6.160  0.4913  0.5519 -0.6690
  127OSM   H13A13525   5.174   3.884   6.083  0.9334  0.1549 -1.0704
  127OSM   H13B13526   5.098   3.735   6.141 -1.1473  0.7572  3.9841
  127OSM   H13C13527   5.274   3.767   6.163 -0.2886 -1.3534  1.1063
  127OSM    C1213528   5.233   3.975   6.342 -0.5111  0.1288  0.5529
  127OSM   H12A13529   5.330   3.930   6.348 -0.7219 -0.5586 -0.9517
  127OSM   H12B13530   5.209   4.009   6.442  1.4830 -1.6393  1.7213
  127OSM    C1113531   5.240   4.098   6.252 -0.2544 -0.4912  0.1177
  127OSM   H11A13532   5.242   4.074   6.144  2.7632 -0.9021  0.1673
  127OSM   H11B13533   5.332   4.150   6.285 -0.3139  0.1519 -0.7096
  127OSM      P13534   5.122   4.344   6.296 -0.3297  0.4316  0.2849
  127OSM    O1313535   5.228   4.393   6.206 -0.5034  0.1173 -0.6731
  127OSM    O1413536   4.992   4.405   6.278 -0.5300  0.4377 -0.7613
  127OSM    O1113537   5.183   4.370   6.439  0.3183 -0.8609 -0.5412
  127OSM    O1213538   5.122   4.183   6.276  0.4380 -0.5210  0.0548
  127OSM    C1S13539   5.106   4.368   6.562 -0.3737  0.1701 -0.1253
  127OSM    H1S13540   5.054   4.271   6.576 -1.7016  0.7703 -0.7683
  127OSM    H1T13541   5.023   4.442   6.561 -1.9786 -1.5538 -0.1857
  127OSM     NF13542   5.114   4.403   6.813  0.0851 -1.1784  0.6464
  127OSM    HNF13543   5.058   4.484   6.832  0.8729 -0.2020 -0.9462
  127OSM    C2S13544   5.199   4.406   6.688 -0.5104 -0.3382  0.3881
  127OSM    H2S13545   5.283   4.333   6.693  0.5835  0.9393  1.2963
  127OSM    C3S13546   5.278   4.540   6.669  0.1467  0.4886  0.0524
  127OSM    H3S13547   5.206   4.625   6.679  1.9364  2.0604  0.1395
  127OSM     O313548   5.333   4.554   6.535  0.2311  0.1347 -0.2459
  127OSM    HO313549   5.306   4.474   6.490 -0.0796  0.4865 -0.6933
  127OSM    C4S13550   5.369   4.565   6.788  0.2460 -0.4131 -0.0052
  127OSM    H4S13551   5.322   4.624   6.868 -0.5208 -0.4023 -0.4529
  127OSM    C5S13552   5.502   4.545   6.799  0.0407  0.2752 -0.2436
  127OSM    H5S13553   5.557   4.504   6.713  0.3024  1.6034 -0.7306
  127OSM    C6S13554   5.588   4.583   6.908  0.9072 -0.5997 -0.4381
  127OSM    H6S13555   5.657   4.659   6.867  1.5826 -1.0757 -0.1932
  127OSM    H6T13556   5.653   4.496   6.929  1.9561  0.1303 -0.5844
  127OSM    C7S13557   5.517   4.638   7.040  0.2452 -0.2719  0.2823
  127OSM    H7S13558   5.449   4.556   7.072 -0.5317 -0.3458 -1.4580
  127OSM    H7T13559   5.457   4.729   7.020  0.1475  0.1262  2.2144
  127OSM    C8S13560   5.613   4.668   7.161 -0.3672  0.0576  0.0373
  127OSM    H8S13561   5.688   4.740   7.122  0.9128 -1.3657 -0.2515
  127OSM    H8T13562   5.671   4.575   7.183  1.4886  0.9604 -0.8258
  127OSM    C9S13563   5.532   4.705   7.284 -0.8122 -0.8285 -0.5764
  127OSM    H9S13564   5.438   4.651   7.309 -1.4781  0.3380 -0.4592
  127OSM    H9T13565   5.499   4.811   7.274  2.2965  0.2700 -0.1615
  127OSM   C10S13566   5.621   4.687   7.408 -0.2951 -0.4585  0.2365
  127OSM   H10S13567   5.716   4.744   7.400 -0.7835  0.2027 -1.2188
  127OSM   H10T13568   5.645   4.579   7.420 -0.5316 -0.4432  0.9257
  127OSM   C11S13569   5.565   4.744   7.547  0.9598 -0.7025 -0.4247
  127OSM   H11S13570   5.478   4.677   7.558  0.9391 -0.3938  1.8987
  127OSM   H11T13571   5.527   4.848   7.538  1.6433 -0.4842 -0.8665
  127OSM   C12S13572   5.649   4.732   7.664 -0.0627 -0.1391  0.0350
  127OSM   H12S13573   5.741   4.792   7.644  1.2065 -0.8954  3.1116
  127OSM   H12T13574   5.684   4.629   7.688  0.0741  0.2225  1.4733
  127OSM   C13S13575   5.584   4.790   7.788 -0.4668  0.3718  0.3743
  127OSM   H13S13576   5.488   4.737   7.809  0.9909 -1.7539  2.0486
  127OSM   H13T13577   5.563   4.898   7.769  0.0894  1.1091  3.3319
  127OSM   C14S13578   5.676   4.783   7.917 -0.2388  0.6176 -0.4693
  127OSM   H14S13579   5.771   4.836   7.896  0.3345 -0.4690 -0.6536
  127OSM   H14T13580   5.703   4.678   7.936 -2.1455  0.3562  1.1275
  127OSM   C15S13581   5.609   4.841   8.048 -0.1732  0.2328  0.7474
  127OSM   H15S13582   5.516   4.791   8.083  0.2764  0.0991  1.8105
  127OSM   H15T13583   5.573   4.945   8.032 -3.1279 -0.4534  2.1834
  127OSM   C16S13584   5.701   4.838   8.167  0.3586  0.1506  0.0882
  127OSM   H16S13585   5.798   4.884   8.138 -0.2445  1.7982  0.5944
  127OSM   H16T13586   5.703   4.732   8.201  1.6493 -0.4464 -1.7113
  127OSM   C17S13587   5.632   4.910   8.282 -0.0895  0.0282  0.1141
  127OSM   H17S13588   5.528   4.876   8.301 -0.3317  1.6926  2.2283
  127OSM   H17T13589   5.616   5.019   8.266 -0.7176  0.1534  1.4199
  127OSM   C18S13590   5.709   4.891   8.409 -0.5487 -0.1762 -0.6952
  127OSM   H18S13591   5.673   4.952   8.494 -1.5418 -1.8609  0.1303
  127OSM   H18T13592   5.818   4.916   8.401 -0.3548  0.7815  3.0003
  127OSM   H18U13593   5.708   4.784   8.438 -0.9102  0.4349  1.7421
  127OSM    C1F13594   5.076   4.288   6.857  1.9100 -0.6526  0.1133
  127OSM     OF13595   5.127   4.187   6.809 -0.5233 -0.1120 -0.3169
  127OSM    C2F13596   4.955   4.282   6.947  0.0920 -0.0953  0.1785
  127OSM    H2F13597   4.914   4.178   6.945  1.4428 -0.6426 -1.3798
  127OSM    H2G13598   4.880   4.354   6.908 -0.9685 -1.0241  0.4330
  127OSM    C3F13599   4.982   4.303   7.096 -0.3723 -0.3145  0.0785
  127OSM    H3F13600   5.011   4.405   7.127 -0.8196 -0.1530 -0.0281
  127OSM    H3G13601   5.055   4.228   7.135  0.3232  1.1802  1.8042
  127OSM    C4F13602   4.851   4.290   7.167  1.0721  0.2247 -0.8833
  127OSM    H4F13603   4.801   4.191   7.164 -2.4448  1.7019  1.6925
  127OSM    H4G13604   4.774   4.344   7.107 -2.3841 -5.2754 -2.0855
  127OSM    C5F13605   4.855   4.338   7.310  0.4520 -0.0714 -0.3233
  127OSM    H5F13606   4.955   4.376   7.338 -0.2030  0.6266  1.1968
  127OSM    H5G13607   4.824   4.251   7.372  0.8822 -1.3673 -1.8557
  127OSM    C6F13608   4.746   4.440   7.341  0.6384 -0.1891  0.5310
  127OSM    H6F13609   4.643   4.402   7.324  0.8017 -0.5489  0.3370
  127OSM    H6G13610   4.765   4.521   7.268 -1.7574 -2.4307 -2.8526
  127OSM    C7F13611   4.753   4.498   7.485 -0.0352  0.1168 -0.1239
  127OSM    H7F13612   4.677   4.579   7.475 -0.0567 -0.0981 -1.9705
  127OSM    H7G13613   4.854   4.537   7.508 -0.2334  1.0710 -0.7947
  127OSM    C8F13614   4.712   4.395   7.595 -0.0951  0.4712  0.3526
  127OSM    H8F13615   4.789   4.315   7.605 -0.5199 -0.0399 -0.3837
  127OSM    H8G13616   4.617   4.351   7.557 -0.8959  0.5481  2.1579
  127OSM    C9F13617   4.670   4.469   7.721  0.6602  0.1750 -0.1409
  127OSM    H9F13618   4.567   4.507   7.722  0.9063  0.8972 -0.8047
  127OSM   C10F13619   4.741   4.475   7.832 -0.1707 -0.6031 -0.3885
  127OSM   H10F13620   4.701   4.526   7.920  0.2708 -1.9950  0.6664
  127OSM   C11F13621   4.880   4.420   7.849  0.6277 -0.4234 -0.2299
  127OSM   H11F13622   4.949   4.507   7.852  0.2452 -0.0715  3.3644
  127OSM   H11G13623   4.913   4.367   7.758  1.3935 -0.7566  0.2299
  127OSM   C12F13624   4.894   4.329   7.972 -0.1756  0.0718  0.3973
  127OSM   H12F13625   4.990   4.273   7.965  0.4964  1.3171 -1.1277
  127OSM   H12G13626   4.813   4.255   7.982 -0.3564  0.1939 -0.1171
  127OSM   C13F13627   4.906   4.404   8.109 -0.0079 -0.0315 -0.5857
  127OSM   H13F13628   4.800   4.432   8.130  0.7472  0.9188  2.5871
  127OSM   H13G13629   4.965   4.499   8.101 -0.1003  0.2284  1.3370
  127OSM   C14F13630   4.956   4.306   8.217 -0.4164  0.4998 -0.4519
  127OSM   H14F13631   5.058   4.273   8.188  0.5707  1.6102  1.5618
  127OSM   H14G13632   4.893   4.215   8.234 -0.2044 -0.0616 -2.3961
  127OSM   C15F13633   4.970   4.383   8.348  0.2646 -0.3202  0.0924
  127OSM   H15F13634   5.002   4.301   8.416  0.6304 -0.1779  0.0953
  127OSM   H15G13635   4.872   4.410   8.393 -0.6884 -3.8985  0.5302
  127OSM   C16F13636   5.075   4.500   8.346  0.4612  0.5226 -0.2175
  127OSM   H16F13637   5.056   4.581   8.272  0.1787  0.7240  0.0723
  127OSM   H16G13638   5.164   4.447   8.308  0.7085 -0.3590  1.4916
  127OSM   C17F13639   5.115   4.566   8.476 -0.0422 -0.6601  0.1274
  127OSM   H17F13640   5.181   4.499   8.534 -0.8165 -1.3632  0.2272
  127OSM   H17G13641   5.028   4.590   8.541  0.0000 -2.9055  1.0944
  127OSM   C18F13642   5.190   4.702   8.461  0.3429 -0.4053  0.2577
  127OSM   H18F13643   5.210   4.744   8.562  2.7608  0.7142 -0.6191
  127OSM   H18G13644   5.126   4.775   8.407  0.7984 -1.1254 -1.3358
  127OSM   H18H13645   5.280   4.685   8.398 -1.1349 -1.6116 -1.6923
  128OSM      N13646   3.959   6.186   6.530  0.1494  0.3232 -0.6919
  128OSM    C1513647   4.040   6.090   6.442 -0.4761 -0.7239 -0.4657
  128OSM   H15A13648   4.046   6.123   6.339 -0.2520 -1.2502 -0.6297
  128OSM   H15B13649   3.998   5.990   6.437  0.8580 -1.3613  0.6129
  128OSM   H15C13650   4.137   6.074   6.487 -0.9998 -3.6188 -0.1440
  128OSM    C1413651   3.804   6.192   6.508  0.1926  0.2821  0.2701
  128OSM   H14A13652   3.765   6.092   6.504 -2.7285  1.3456 -2.4291
  128OSM   H14B13653   3.791   6.240   6.412 -0.5954  0.8647  0.6548
  128OSM   H14C13654   3.753   6.255   6.579 -0.0970 -1.4929  1.6955
  128OSM    C1313655   3.984   6.126   6.667  0.0425  0.0197  0.1283
  128OSM   H13A13656   3.909   6.171   6.731 -0.7439 -2.1818  0.8502
  128OSM   H13B13657   4.080   6.154   6.707  0.7841  0.6224 -1.9536
  128OSM   H13C13658   3.982   6.018   6.662 -2.0877  0.0228 -0.1778
  128OSM    C1213659   4.019   6.319   6.514 -0.9044  0.2692 -0.0760
  128OSM   H12A13660   4.125   6.304   6.529 -1.3904 -1.3196  2.1080
  128OSM   H12B13661   3.989   6.388   6.591  0.7770  0.4463  0.4715
  128OSM    C1113662   3.979   6.384   6.383 -0.6893 -1.1170 -0.0937
  128OSM   H11A13663   3.998   6.325   6.291  0.6829  0.6196 -0.9907
  128OSM   H11B13664   4.055   6.465   6.379 -2.5355  0.6439 -1.3613
  128OSM      P13665   3.794   6.542   6.476  0.2582  0.1726 -0.0135
  128OSM    O1313666   3.701   6.651   6.432 -0.1988 -0.2924 -0.5999
  128OSM    O1413667   3.742   6.466   6.591  0.4919  0.7769 -0.3153
  128OSM    O1113668   3.925   6.616   6.524  0.1213 -0.0238  0.1710
  128OSM    O1213669   3.846   6.437   6.370  0.2077  0.3824  0.3684
  128OSM    C1S13670   3.922   6.730   6.610  0.4200  0.1982 -0.2113
  128OSM    H1S13671   3.839   6.723   6.684  0.3773  1.0411 -0.1623
  128OSM    H1T13672   3.904   6.815   6.540  0.3414 -0.4193 -0.9550
  128OSM     NF13673   4.035   6.824   6.799  0.4251  0.5600 -0.4947
  128OSM    HNF13674   4.033   6.924   6.791 -1.6638  0.5703 -0.2385
  128OSM    C2S13675   4.053   6.737   6.687  0.4626 -0.4595 -0.0195
  128OSM    H2S13676   4.077   6.635   6.724 -1.0432 -0.7107  0.3686
  128OSM    C3S13677   4.164   6.781   6.589 -0.1728  0.1166 -0.4426
  128OSM    H3S13678   4.134   6.876   6.539 -2.7771 -0.9585 -1.0690
  128OSM     O313679   4.173   6.702   6.464 -0.2451 -0.4466 -0.2486
  128OSM    HO313680   4.086   6.661   6.468 -0.9200  1.0278  1.5589
  128OSM    C4S13681   4.300   6.776   6.645  0.6314 -0.2178 -0.6092
  128OSM    H4S13682   4.338   6.673   6.656 -1.8309 -1.1292 -0.0741
  128OSM    C5S13683   4.378   6.876   6.689 -0.4848 -0.7189 -0.4734
  128OSM    H5S13684   4.348   6.982   6.683  3.0331  0.5134  1.1373
  128OSM    C6S13685   4.510   6.868   6.769  0.6593  0.4080  0.2661
  128OSM    H6S13686   4.592   6.913   6.710 -1.7724  3.5077 -1.0694
  128OSM    H6T13687   4.536   6.765   6.801  0.2826  0.4833  0.8361
  128OSM    C7S13688   4.502   6.953   6.896 -0.1608  0.4628 -0.1355
  128OSM    H7S13689   4.475   7.061   6.886 -0.9551  0.2341 -0.6019
  128OSM    H7T13690   4.605   6.962   6.936  0.0638 -2.2729  0.0734
  128OSM    C8S13691   4.402   6.886   6.995 -0.3519 -0.9859 -0.5360
  128OSM    H8S13692   4.428   6.779   7.008  0.2697 -0.7750  0.0421
  128OSM    H8T13693   4.301   6.906   6.953  0.5444  1.0114 -1.9249
  128OSM    C9S13694   4.398   6.954   7.141  0.0693  0.4016  0.2486
  128OSM    H9S13695   4.410   6.861   7.201 -0.2845  0.2419  0.0716
  128OSM    H9T13696   4.301   7.005   7.162  0.5288  0.6867  1.8324
  128OSM   C10S13697   4.514   7.054   7.178  0.4122  0.0536  0.2182
  128OSM   H10S13698   4.501   7.154   7.134 -0.4652 -0.0353  0.2495
  128OSM   H10T13699   4.605   7.006   7.138  0.3601 -0.1324  0.3173
  128OSM   C11S13700   4.534   7.075   7.333  0.3918  0.4894  0.2997
  128OSM   H11S13701   4.618   7.141   7.362 -0.6091  0.3735  3.9335
  128OSM   H11T13702   4.566   6.982   7.384  1.3779 -0.2133 -1.5122
  128OSM   C12S13703   4.413   7.127   7.403 -0.2156  0.5042 -0.7908
  128OSM   H12S13704   4.329   7.054   7.401  0.3627 -0.1909 -0.3984
  128OSM   H12T13705   4.376   7.221   7.357  0.5270  2.3205  2.1128
  128OSM   C13S13706   4.451   7.163   7.541  0.1502 -0.1957 -0.0409
  128OSM   H13S13707   4.542   7.227   7.535 -1.0459  1.5055 -1.1339
  128OSM   H13T13708   4.475   7.075   7.605 -0.7062  0.0044  0.5787
  128OSM   C14S13709   4.334   7.241   7.603 -0.0054  0.1743  0.0727
  128OSM   H14S13710   4.239   7.183   7.599  0.2993 -0.2374 -2.7503
  128OSM   H14T13711   4.307   7.326   7.537  0.6246 -0.2815 -0.7753
  128OSM   C15S13712   4.356   7.296   7.752  0.0833  0.1276 -0.0066
  128OSM   H15S13713   4.446   7.360   7.736 -0.6613  0.5075 -3.6934
  128OSM   H15T13714   4.375   7.220   7.830  0.0204 -0.1366 -0.2486
  128OSM   C16S13715   4.243   7.381   7.814  0.2402  0.2177 -0.6613
  128OSM   H16S13716   4.146   7.328   7.803  0.2637 -0.0409  0.3497
  128OSM   H16T13717   4.239   7.480   7.762  0.1737 -0.5124 -2.1048
  128OSM   C17S13718   4.260   7.403   7.964 -0.3017  0.2334 -0.0911
  128OSM   H17S13719   4.184   7.482   7.983 -1.0675 -1.0213  2.5631
  128OSM   H17T13720   4.363   7.439   7.985 -0.2907  1.2460 -1.7294
  128OSM   C18S13721   4.221   7.281   8.050  0.2846 -0.6735 -1.3603
  128OSM   H18S13722   4.254   7.314   8.151 -2.5601 -0.4329 -0.4282
  128OSM   H18T13723   4.283   7.194   8.019  2.0874 -0.3864  1.1067
  128OSM   H18U13724   4.112   7.260   8.061 -0.0044  1.4443  0.4668
  128OSM    C1F13725   3.968   6.779   6.902 -0.3198  0.2549 -0.2639
  128OSM     OF13726   3.933   6.663   6.908 -0.2099  0.1657 -0.8972
  128OSM    C2F13727   3.932   6.877   7.010  0.1120 -0.7345 -0.8113
  128OSM    H2F13728   3.822   6.883   7.024  0.5122 -0.0195  3.6169
  128OSM    H2G13729   3.969   6.979   6.989  0.1443 -0.3698  0.8628
  128OSM    C3F13730   3.993   6.841   7.139 -0.3236 -0.0253  0.0511
  128OSM    H3F13731   4.103   6.852   7.136 -0.4297  1.5701  1.0153
  128OSM    H3G13732   3.982   6.732   7.154  0.6106 -0.2815 -0.9670
  128OSM    C4F13733   3.924   6.908   7.258  0.8130 -0.2645 -0.1364
  128OSM    H4F13734   3.819   6.872   7.266  0.5338  0.8483  1.8492
  128OSM    H4G13735   3.932   7.018   7.244  1.9514 -0.3185 -0.0233
  128OSM    C5F13736   3.997   6.885   7.390  0.2583 -0.3286  0.6702
  128OSM    H5F13737   4.100   6.924   7.378  1.1554 -2.6561  0.1461
  128OSM    H5G13738   3.999   6.778   7.420 -1.2441 -0.9335 -1.1776
  128OSM    C6F13739   3.923   6.964   7.501  0.3543 -0.4645 -0.2181
  128OSM    H6F13740   3.817   6.932   7.489 -0.5729  1.7917  1.3347
  128OSM    H6G13741   3.932   7.071   7.476 -1.5915  0.8221  3.7626
  128OSM    C7F13742   3.979   6.939   7.639  0.3701 -0.2264 -0.0658
  128OSM    H7F13743   4.088   6.961   7.635 -0.0558  1.8241 -2.3768
  128OSM    H7G13744   3.984   6.828   7.643  0.7648 -0.2734 -1.6011
  128OSM    C8F13745   3.911   7.004   7.759 -0.1054 -0.3473  0.0384
  128OSM    H8F13746   3.813   6.954   7.776  0.3651 -1.1450  0.4631
  128OSM    H8G13747   3.893   7.110   7.734  1.2977 -0.1820 -0.3538
  128OSM    C9F13748   4.000   6.998   7.877 -0.2263 -0.1336  0.2901
  128OSM    H9F13749   4.090   7.060   7.861 -0.1142 -0.1162  0.9533
  128OSM   C10F13750   3.999   6.913   7.980 -0.2097 -0.4783  0.3971
  128OSM   H10F13751   4.092   6.918   8.039  0.6990  0.2614 -1.0313
  128OSM   C11F13752   3.913   6.796   8.015  0.0070 -0.2315 -0.2410
  128OSM   H11F13753   3.875   6.760   7.917 -0.8885  1.4964 -0.5556
  128OSM   H11G13754   3.838   6.841   8.084  1.1658  1.3949  0.0233
  128OSM   C12F13755   3.979   6.673   8.085 -0.1733 -0.1624  0.1151
  128OSM   H12F13756   4.058   6.637   8.016  1.1153 -2.5432  2.6088
  128OSM   H12G13757   3.907   6.588   8.091  1.7736 -1.7685  2.3554
  128OSM   C13F13758   4.029   6.703   8.228 -0.2027  0.0592  0.7627
  128OSM   H13F13759   4.048   6.812   8.234 -1.9209  0.4773 -0.6405
  128OSM   H13G13760   4.127   6.653   8.245  0.9297  1.9204  0.0075
  128OSM   C14F13761   3.922   6.674   8.327  0.9258 -0.5848 -0.3314
  128OSM   H14F13762   3.904   6.565   8.317  0.7791 -0.4590 -1.6651
  128OSM   H14G13763   3.830   6.731   8.303  0.1255 -0.8035  2.0322
  128OSM   C15F13764   3.974   6.700   8.471 -0.1126 -0.2330 -0.6750
  128OSM   H15F13765   3.971   6.809   8.490  0.6493  0.3367 -3.4007
  128OSM   H15G13766   4.076   6.659   8.488 -0.2943  0.3328  2.3775
  128OSM   C16F13767   3.895   6.628   8.585  0.0542 -0.8716 -0.7508
  128OSM   H16F13768   3.893   6.520   8.561  1.9853 -1.5309  1.6650
  128OSM   H16G13769   3.789   6.662   8.588  0.8348  1.7620  1.3643
  128OSM   C17F13770   3.948   6.646   8.727 -0.2244 -0.3674  0.7344
  128OSM   H17F13771   3.988   6.750   8.725 -0.6591 -0.2143 -0.4555
  128OSM   H17G13772   4.032   6.574   8.734  0.0961 -0.6437 -3.4282
  128OSM   C18F13773   3.855   6.623   8.846  0.3319  0.3717  0.3622
  128OSM   H18F13774   3.763   6.682   8.832 -1.2640 -1.6764  1.6309
  128OSM   H18G13775   3.910   6.656   8.937  1.8923  2.3489 -1.2160
  128OSM   H18H13776   3.827   6.516   8.845  0.2693  0.2232 -4.5892
  129OSM      N13777   4.531   1.889   6.064  0.3486  0.4699 -0.5912
  129OSM    C1513778   4.468   2.000   5.993  0.0919 -0.0266  0.5934
  129OSM   H15A13779   4.393   2.058   6.045  2.8866  2.7576  1.8129
  129OSM   H15B13780   4.411   1.957   5.911 -0.4862  0.9685  0.4494
  129OSM   H15C13781   4.541   2.071   5.957  0.1830 -0.4061  0.0163
  129OSM    C1413782   4.447   1.769   6.043  0.6292 -0.0608  0.6503
  129OSM   H14A13783   4.450   1.739   5.939  0.0440  0.5273  0.4567
  129OSM   H14B13784   4.340   1.778   6.052  0.5124 -0.4328 -0.3124
  129OSM   H14C13785   4.478   1.681   6.098  2.1095 -0.1921 -0.3418
  129OSM    C1313786   4.674   1.861   6.018 -0.2833  0.3690 -0.0588
  129OSM   H13A13787   4.733   1.952   6.020 -2.2411  1.7025  1.7709
  129OSM   H13B13788   4.678   1.832   5.914 -1.9952  0.9731 -0.3278
  129OSM   H13C13789   4.729   1.792   6.080 -0.5980  1.8275  1.9355
  129OSM    C1213790   4.539   1.901   6.218 -0.2915 -0.5882 -0.1711
  129OSM   H12A13791   4.619   1.968   6.248  2.2277 -2.7027 -1.7184
  129OSM   H12B13792   4.570   1.806   6.258 -1.1917 -1.1717 -0.8208
  129OSM    C1113793   4.409   1.938   6.293 -0.2479  0.5398 -0.8177
  129OSM   H11A13794   4.428   1.934   6.403 -1.8184  1.3378 -0.4872
  129OSM   H11B13795   4.325   1.866   6.284 -1.5266  1.9015 -0.2806
  129OSM      P13796   4.457   2.194   6.319 -0.2377  0.2604 -0.2332
  129OSM    O1313797   4.601   2.157   6.313  0.0041  0.1537  0.6390
  129OSM    O1413798   4.421   2.319   6.265  0.6994  0.2700 -0.5011
  129OSM    O1113799   4.410   2.195   6.471  0.0016  0.2705  0.1673
  129OSM    O1213800   4.366   2.073   6.257  0.0583  0.2038 -0.2642
  129OSM    C1S13801   4.276   2.243   6.506 -0.4977 -0.5244 -0.2289
  129OSM    H1S13802   4.198   2.182   6.455 -1.4488 -0.1205  0.7041
  129OSM    H1T13803   4.254   2.348   6.476 -0.6517 -0.3886  0.3485
  129OSM     NF13804   4.108   2.213   6.684 -0.3141 -0.1594  0.3723
  129OSM    HNF13805   4.067   2.301   6.707  3.4092  1.5793  1.0875
  129OSM    C2S13806   4.250   2.219   6.659 -0.0617 -0.2066  0.0862
  129OSM    H2S13807   4.288   2.119   6.688  1.1372  0.3528  0.5095
  129OSM    C3S13808   4.334   2.317   6.742 -0.6725 -0.1931  0.2308
  129OSM    H3S13809   4.293   2.418   6.723  0.1594  0.0252 -0.4631
  129OSM     O313810   4.476   2.322   6.703 -0.2367  0.2162 -0.0091
  129OSM    HO313811   4.475   2.274   6.619 -0.3094  1.2506 -0.6242
  129OSM    C4S13812   4.340   2.281   6.888  0.2820 -0.2791 -0.3233
  129OSM    H4S13813   4.396   2.189   6.906  2.0672  1.0031  0.9733
  129OSM    C5S13814   4.270   2.344   6.981  0.8744 -0.3341  0.1776
  129OSM    H5S13815   4.208   2.430   6.955  1.4067 -0.0793 -0.2768
  129OSM    C6S13816   4.257   2.295   7.126  0.6605  0.7345 -0.5311
  129OSM    H6S13817   4.295   2.192   7.142  1.9339  1.0732 -1.1872
  129OSM    H6T13818   4.151   2.295   7.159  1.0628 -1.4667  0.9525
  129OSM    C7S13819   4.338   2.371   7.236  0.1158 -0.4678 -0.7461
  129OSM    H7S13820   4.303   2.473   7.263  0.7198 -0.5418  0.3633
  129OSM    H7T13821   4.444   2.379   7.205  0.9414 -3.2192  1.0645
  129OSM    C8S13822   4.332   2.299   7.368 -0.7204  1.0956 -0.2777
  129OSM    H8S13823   4.348   2.189   7.370 -0.9548  1.0614 -0.0802
  129OSM    H8T13824   4.232   2.311   7.416 -0.2457 -1.0526  1.3742
  129OSM    C9S13825   4.420   2.363   7.474  0.1423 -0.5449  0.0722
  129OSM    H9S13826   4.413   2.472   7.494  0.7524 -0.1994 -1.4061
  129OSM    H9T13827   4.526   2.339   7.451  0.3212  0.8217 -0.6292
  129OSM   C10S13828   4.404   2.294   7.603  0.2521 -0.1832 -0.0377
  129OSM   H10S13829   4.431   2.186   7.604  1.3819  0.0810  1.5318
  129OSM   H10T13830   4.299   2.298   7.641  0.6755 -3.8561  1.9753
  129OSM   C11S13831   4.494   2.347   7.711 -0.1603  0.4137 -0.2712
  129OSM   H11S13832   4.479   2.456   7.726 -1.6409 -0.0834  2.4112
  129OSM   H11T13833   4.603   2.327   7.696 -0.0737  2.0587 -2.4358
  129OSM   C12S13834   4.462   2.279   7.843  0.3484 -0.5590  0.2604
  129OSM   H12S13835   4.510   2.179   7.845 -0.8185 -1.1164  1.1849
  129OSM   H12T13836   4.355   2.257   7.860  0.0746 -1.8246 -2.5286
  129OSM   C13S13837   4.528   2.357   7.960  0.3501 -0.6430  0.2023
  129OSM   H13S13838   4.493   2.462   7.947  2.1505 -0.1650 -1.2983
  129OSM   H13T13839   4.638   2.361   7.946  0.5646  2.9132  1.6694
  129OSM   C14S13840   4.476   2.299   8.096  0.0359  0.0394 -0.3197
  129OSM   H14S13841   4.507   2.193   8.095  0.1683  0.0657  0.3423
  129OSM   H14T13842   4.365   2.292   8.094 -0.2070  2.8435 -1.3027
  129OSM   C15S13843   4.531   2.365   8.220 -0.3292 -0.1149 -0.1959
  129OSM   H15S13844   4.501   2.472   8.220  0.5779  0.2496  2.9321
  129OSM   H15T13845   4.641   2.349   8.225 -0.6114 -2.5292 -0.3224
  129OSM   C16S13846   4.483   2.296   8.348  0.8353  0.1586 -0.0284
  129OSM   H16S13847   4.497   2.185   8.350  0.5325  0.1090 -0.4764
  129OSM   H16T13848   4.376   2.318   8.366  0.7607 -0.5025  0.4119
  129OSM   C17S13849   4.556   2.351   8.468 -0.3020 -0.1194 -0.1830
  129OSM   H17S13850   4.531   2.460   8.468 -1.5750 -0.3756  0.9300
  129OSM   H17T13851   4.664   2.360   8.447 -0.1039 -0.0250  0.8480
  129OSM   C18S13852   4.526   2.292   8.607 -0.3780  0.1251  0.4546
  129OSM   H18S13853   4.560   2.359   8.689 -0.3778  0.1270  0.4523
  129OSM   H18T13854   4.578   2.194   8.614  0.1608  0.4259  0.7479
  129OSM   H18U13855   4.418   2.267   8.618 -0.0234 -2.4733 -1.0618
  129OSM    C1F13856   4.024   2.117   6.645 -0.0318 -0.0136 -1.2407
  129OSM     OF13857   4.066   2.020   6.584  0.2546 -0.0188  0.0679
  129OSM    C2F13858   3.872   2.143   6.676 -0.4371 -0.5421 -0.1880
  129OSM    H2F13859   3.825   2.157   6.577 -0.4541  1.8438  0.0931
  129OSM    H2G13860   3.859   2.242   6.725 -0.0807 -0.5002 -0.1713
  129OSM    C3F13861   3.803   2.027   6.757  0.1885 -0.4516  0.1140
  129OSM    H3F13862   3.806   1.930   6.703  1.2086  0.9441 -2.4942
  129OSM    H3G13863   3.696   2.055   6.767  0.4995  0.2315  1.9397
  129OSM    C4F13864   3.863   2.010   6.898 -0.4883 -0.0237 -0.2828
  129OSM    H4F13865   3.971   1.987   6.896 -0.4040  0.3673 -0.3502
  129OSM    H4G13866   3.803   1.926   6.939  1.9598 -2.5410 -1.5425
  129OSM    C5F13867   3.834   2.127   6.991  0.7067 -0.0161 -0.3693
  129OSM    H5F13868   3.739   2.178   6.965 -0.0979 -0.4269  1.6181
  129OSM    H5G13869   3.908   2.208   6.973 -1.0530  1.4610 -1.3001
  129OSM    C6F13870   3.837   2.097   7.139  0.3655 -0.1177  0.7068
  129OSM    H6F13871   3.943   2.086   7.170  0.2047 -0.8891  1.0010
  129OSM    H6G13872   3.776   2.008   7.162  1.1191 -0.5442  1.0769
  129OSM    C7F13873   3.770   2.199   7.228  0.0219  0.3558 -0.6394
  129OSM    H7F13874   3.667   2.219   7.190  0.1606  0.3410 -1.0315
  129OSM    H7G13875   3.817   2.299   7.223 -0.6581  0.7449  0.5371
  129OSM    C8F13876   3.776   2.159   7.382 -0.8268  0.7722 -0.9856
  129OSM    H8F13877   3.738   2.055   7.391  0.2560  0.3272 -1.3389
  129OSM    H8G13878   3.720   2.230   7.446 -0.1220 -1.0388  1.8360
  129OSM    C9F13879   3.920   2.156   7.431 -0.8307  0.1288 -0.5051
  129OSM    H9F13880   3.999   2.173   7.357  0.1735  2.0230  0.9300
  129OSM   C10F13881   3.960   2.144   7.560  0.3922 -0.8280  0.9403
  129OSM   H10F13882   4.067   2.141   7.583  0.7005  0.8133 -0.1494
  129OSM   C11F13883   3.857   2.131   7.669  0.2420 -0.3254  0.0695
  129OSM   H11F13884   3.780   2.052   7.658 -0.8986  0.2084  3.3593
  129OSM   H11G13885   3.793   2.221   7.664 -0.0237 -0.4920  0.4151
  129OSM   C12F13886   3.915   2.123   7.809  0.1271  0.4842  0.5810
  129OSM   H12F13887   3.981   2.211   7.823 -1.1143  1.3092  1.4216
  129OSM   H12G13888   3.970   2.026   7.815 -0.0251  0.3560  0.0053
  129OSM   C13F13889   3.809   2.135   7.918  0.5819  0.8173 -0.4274
  129OSM   H13F13890   3.765   2.035   7.937 -0.6815  1.2074 -1.1636
  129OSM   H13G13891   3.728   2.203   7.883  0.6899  1.2692  0.1717
  129OSM   C14F13892   3.875   2.192   8.047 -0.4429 -0.2716  0.1021
  129OSM   H14F13893   3.799   2.211   8.125  0.5073  2.7659  0.4362
  129OSM   H14G13894   3.917   2.294   8.036 -1.0829 -0.0719 -0.4989
  129OSM   C15F13895   3.993   2.103   8.095 -0.3264 -0.3225  0.4040
  129OSM   H15F13896   4.081   2.103   8.027  0.0609 -2.6654  0.8079
  129OSM   H15G13897   3.941   2.004   8.094 -2.6881  0.8568  0.1210
  129OSM   C16F13898   4.043   2.147   8.234  0.9780  0.5567 -0.4143
  129OSM   H16F13899   3.955   2.184   8.289 -0.0896  0.8016 -2.2151
  129OSM   H16G13900   4.109   2.235   8.218  0.4416  1.4127  1.7984
  129OSM   C17F13901   4.130   2.052   8.313  0.0930  0.2257  0.1885
  129OSM   H17F13902   4.163   2.105   8.405 -0.5322  2.6344 -0.8991
  129OSM   H17G13903   4.231   2.048   8.265  0.6918  1.2733  1.3189
  129OSM   C18F13904   4.086   1.904   8.333 -0.9614 -0.4730  0.0691
  129OSM   H18F13905   3.993   1.900   8.395  0.7652  1.2262  3.0523
  129OSM   H18G13906   4.171   1.845   8.373  0.9744  0.6286 -2.2245
  129OSM   H18H13907   4.068   1.851   8.238 -2.4010  0.4309 -0.1991
  130OSM      N13908   3.298   0.889   5.816 -0.3824 -0.3228  0.3939
  130OSM    C1513909   3.408   0.982   5.861 -0.0485  1.0712 -0.1860
  130OSM   H15A13910   3.485   0.923   5.908  1.3547  0.8076 -2.6739
  130OSM   H15B13911   3.373   1.062   5.925  0.7636  1.0081  0.3455
  130OSM   H15C13912   3.451   1.034   5.777 -0.1499  0.3055 -0.7218
  130OSM    C1413913   3.220   0.959   5.711 -0.0152  0.8677  0.6283
  130OSM   H14A13914   3.137   0.897   5.680  2.3989 -1.3293 -1.9651
  130OSM   H14B13915   3.284   0.978   5.625  1.5673  0.6541  1.7171
  130OSM   H14C13916   3.186   1.056   5.742  0.6107  1.1487  0.4542
  130OSM    C1313917   3.367   0.773   5.758  0.0290 -0.1001  0.0248
  130OSM   H13A13918   3.443   0.810   5.690  1.6919 -1.9244  0.7800
  130OSM   H13B13919   3.291   0.715   5.707 -1.6181  0.6409  1.5334
  130OSM   H13C13920   3.419   0.711   5.830 -0.3375  0.2266  0.5817
  130OSM    C1213921   3.207   0.844   5.926 -0.4143 -0.0695  0.0344
  130OSM   H12A13922   3.136   0.771   5.889 -3.4747  1.3734  2.5381
  130OSM   H12B13923   3.143   0.927   5.953  0.2188 -0.7380  4.3360
  130OSM    C1113924   3.271   0.782   6.053 -0.1574  0.1025 -0.0111
  130OSM   H11A13925   3.194   0.774   6.132  1.3071 -2.3832  1.3069
  130OSM   H11B13926   3.341   0.854   6.100  0.3386  0.2334 -0.9225
  130OSM      P13927   3.233   0.522   6.037  0.4596  0.0497  0.2752
  130OSM    O1313928   3.157   0.537   5.912 -0.2685  0.6081 -0.0217
  130OSM    O1413929   3.320   0.403   6.054 -0.0043 -0.7040 -0.2061
  130OSM    O1113930   3.129   0.549   6.158 -0.2099 -0.0320  0.1135
  130OSM    O1213931   3.328   0.653   6.042 -0.2930  0.2017  0.5092
  130OSM    C1S13932   3.185   0.524   6.286 -0.3361 -0.2157  0.1529
  130OSM    H1S13933   3.274   0.589   6.302  0.0286 -0.6463 -0.1158
  130OSM    H1T13934   3.222   0.422   6.306 -0.2326  0.2753  2.7329
  130OSM     NF13935   3.167   0.559   6.518  0.0433 -0.1025 -0.3232
  130OSM    HNF13936   3.162   0.483   6.583  0.0548  1.2703  1.3500
  130OSM    C2S13937   3.084   0.558   6.394 -0.1379 -0.0401  0.6657
  130OSM    H2S13938   3.050   0.658   6.358 -0.7542 -1.0492 -1.7547
  130OSM    C3S13939   2.964   0.455   6.394 -0.7396 -0.2550 -0.2517
  130OSM    H3S13940   3.018   0.358   6.399 -1.9788 -0.9060  1.7086
  130OSM     O313941   2.881   0.460   6.274  0.2344  0.4124 -0.3181
  130OSM    HO313942   2.909   0.542   6.234  0.0604  0.7725  0.2835
  130OSM    C4S13943   2.863   0.484   6.512  0.0252  0.3559 -0.1523
  130OSM    H4S13944   2.836   0.589   6.526  4.6672  1.6198  1.0591
  130OSM    C5S13945   2.821   0.398   6.603  0.0438  0.8905 -0.0513
  130OSM    H5S13946   2.865   0.297   6.601 -0.1832  0.7911 -1.8402
  130OSM    C6S13947   2.727   0.434   6.712  0.1128 -0.1534 -0.5498
  130OSM    H6S13948   2.725   0.369   6.802 -2.9803 -0.2017 -0.5319
  130OSM    H6T13949   2.624   0.435   6.671 -0.1048  1.4425 -0.0253
  130OSM    C7S13950   2.723   0.582   6.767 -0.3354 -0.8070 -0.3254
  130OSM    H7S13951   2.685   0.648   6.686  0.3891  0.1776  0.1106
  130OSM    H7T13952   2.828   0.605   6.798 -0.9371 -0.8123  1.8306
  130OSM    C8S13953   2.634   0.608   6.886  0.4643  0.6564 -0.3264
  130OSM    H8S13954   2.528   0.595   6.854 -0.5135  0.7804  2.5877
  130OSM    H8T13955   2.651   0.716   6.908 -2.1174  0.7669  1.5739
  130OSM    C9S13956   2.663   0.531   7.020  0.1609 -0.6283  0.7936
  130OSM    H9S13957   2.760   0.568   7.060 -1.5235  2.3264  2.4937
  130OSM    H9T13958   2.673   0.422   7.007  0.2757 -1.2116  4.6193
  130OSM   C10S13959   2.557   0.543   7.132  0.5804  0.6752  0.7731
  130OSM   H10S13960   2.479   0.466   7.114 -2.0250  3.7315 -2.3895
  130OSM   H10T13961   2.502   0.639   7.122  0.2808  0.5525  1.2081
  130OSM   C11S13962   2.614   0.544   7.271  0.1294 -0.3619 -0.2417
  130OSM   H11S13963   2.690   0.625   7.274 -0.4571  0.2566 -1.5291
  130OSM   H11T13964   2.661   0.446   7.298 -0.4608 -0.7882 -0.7297
  130OSM   C12S13965   2.511   0.594   7.372  0.6110  0.2685 -0.1703
  130OSM   H12S13966   2.427   0.524   7.357  1.0754 -0.6475  1.2298
  130OSM   H12T13967   2.471   0.695   7.351  2.4049  0.8401 -1.0050
  130OSM   C13S13968   2.557   0.568   7.516  0.3671 -0.7156  0.3158
  130OSM   H13S13969   2.638   0.643   7.528 -0.3120  0.3557 -1.3679
  130OSM   H13T13970   2.609   0.469   7.512  3.4368  0.7001  1.9163
  130OSM   C14S13971   2.440   0.582   7.605  0.1840 -0.0623  0.5394
  130OSM   H14S13972   2.348   0.529   7.571  1.2240 -0.7301 -1.3664
  130OSM   H14T13973   2.408   0.688   7.602  1.9944  0.5222 -2.3389
  130OSM   C15S13974   2.494   0.541   7.745 -0.1007  0.2135 -0.0775
  130OSM   H15S13975   2.579   0.603   7.782  1.5489 -1.9090 -0.0712
  130OSM   H15T13976   2.519   0.434   7.731  0.4489  0.5667 -2.1213
  130OSM   C16S13977   2.372   0.547   7.844  0.4413 -0.7560  0.0011
  130OSM   H16S13978   2.291   0.485   7.802 -0.7824 -0.7285  2.2185
  130OSM   H16T13979   2.342   0.654   7.838  0.0022 -0.9513 -1.7121
  130OSM   C17S13980   2.413   0.503   7.984  0.1919  0.1803  0.3880
  130OSM   H17S13981   2.485   0.579   8.020 -0.7279  1.6818 -0.8102
  130OSM   H17T13982   2.464   0.405   7.974 -0.0004 -0.0149  1.2112
  130OSM   C18S13983   2.292   0.482   8.081  0.5651 -0.5619  0.1029
  130OSM   H18S13984   2.220   0.411   8.036  1.0269  0.4431 -2.3687
  130OSM   H18T13985   2.237   0.576   8.100  0.9193 -0.2719 -0.2667
  130OSM   H18U13986   2.327   0.437   8.177  0.6809 -2.7939 -0.9329
  130OSM    C1F13987   3.233   0.666   6.555 -0.6045 -0.5260  0.6713
  130OSM     OF13988   3.218   0.772   6.503  0.0503  0.8346 -0.0029
  130OSM    C2F13989   3.321   0.642   6.679  0.1658  0.2969  0.4639
  130OSM    H2F13990   3.343   0.534   6.694 -2.0902 -0.4009 -0.7125
  130OSM    H2G13991   3.256   0.665   6.767 -0.9527 -0.5142 -0.1177
  130OSM    C3F13992   3.444   0.737   6.682 -0.0960 -0.3629 -0.4046
  130OSM    H3F13993   3.435   0.840   6.639  1.1943 -0.9989 -2.3341
  130OSM    H3G13994   3.507   0.694   6.601  0.9259  1.0496 -0.3983
  130OSM    C4F13995   3.525   0.732   6.814  0.3997 -0.6013  0.3842
  130OSM    H4F13996   3.621   0.781   6.787  0.2509 -1.0962 -1.0984
  130OSM    H4G13997   3.546   0.628   6.849  1.1067  0.3994  3.2195
  130OSM    C5F13998   3.458   0.804   6.926  0.6663 -0.2293 -0.4797
  130OSM    H5F13999   3.366   0.753   6.961 -0.8236  1.6778 -1.4110
  130OSM    H5G14000   3.428   0.908   6.900  0.1663 -0.2131  0.1504
  130OSM    C6F14001   3.535   0.815   7.056 -0.7275  0.5498 -0.4069
  130OSM    H6F14002   3.628   0.874   7.041 -0.3954  0.3288  0.6882
  130OSM    H6G14003   3.568   0.715   7.091  1.7158 -0.0704 -3.9081
  130OSM    C7F14004   3.458   0.890   7.169 -0.5216 -0.7624  0.7525
  130OSM    H7F14005   3.361   0.842   7.193 -0.3338 -0.6882  1.6981
  130OSM    H7G14006   3.449   0.993   7.128  0.0331 -0.7155  0.7332
  130OSM    C8F14007   3.545   0.903   7.294  0.6173 -0.0706 -0.1149
  130OSM    H8F14008   3.509   0.991   7.352 -1.3506 -0.3750 -0.7739
  130OSM    H8G14009   3.652   0.926   7.278  0.4500  0.1447 -0.9596
  130OSM    C9F14010   3.540   0.776   7.373  0.6087  0.3372  0.0811
  130OSM    H9F14011   3.608   0.700   7.334 -0.0821 -0.1683 -0.1635
  130OSM   C10F14012   3.467   0.759   7.490 -0.8605  1.0166  0.3619
  130OSM   H10F14013   3.480   0.663   7.544  0.2215 -0.9374 -3.0593
  130OSM   C11F14014   3.383   0.862   7.557 -0.7849  0.3198 -0.4463
  130OSM   H11F14015   3.277   0.835   7.541 -0.9065  1.0090 -0.8202
  130OSM   H11G14016   3.404   0.968   7.529 -1.5636  0.4870 -0.4200
  130OSM   C12F14017   3.407   0.858   7.709  0.7381 -0.3382  0.1205
  130OSM   H12F14018   3.502   0.906   7.740  0.3190 -0.6251  2.0047
  130OSM   H12G14019   3.394   0.753   7.744  0.4007 -0.5886 -0.7383
  130OSM   C13F14020   3.290   0.930   7.773  0.3142 -0.1750 -0.7863
  130OSM   H13F14021   3.193   0.886   7.745  0.1596 -0.9066  0.7697
  130OSM   H13G14022   3.285   1.035   7.737  1.5096  0.3332  0.4417
  130OSM   C14F14023   3.288   0.930   7.930  0.2041  0.9053  0.1911
  130OSM   H14F14024   3.377   0.989   7.961 -0.3982  0.9641  1.9126
  130OSM   H14G14025   3.302   0.826   7.966 -3.1212 -0.8313 -2.9030
  130OSM   C15F14026   3.170   1.011   7.985  0.5072 -0.2048 -0.0055
  130OSM   H15F14027   3.074   0.965   7.952  0.0130  0.0348  1.0795
  130OSM   H15G14028   3.180   1.113   7.943 -1.8941 -0.2015 -0.7430
  130OSM   C16F14029   3.160   1.009   8.136 -0.7239 -0.3818 -0.7305
  130OSM   H16F14030   3.136   0.905   8.168 -0.6941 -0.6120 -1.4373
  130OSM   H16G14031   3.080   1.078   8.170 -0.2023 -0.6719  1.2069
  130OSM   C17F14032   3.292   1.053   8.209  0.2993  0.8589  0.0354
  130OSM   H17F14033   3.321   1.140   8.147  0.2903 -1.2101 -3.1204
  130OSM   H17G14034   3.376   0.981   8.213 -1.6455 -1.5192  1.1251
  130OSM   C18F14035   3.260   1.104   8.355 -0.3563  0.4127  0.3496
  130OSM   H18F14036   3.344   1.162   8.397  0.0359 -0.1163  0.3077
  130OSM   H18G14037   3.235   1.018   8.421 -0.9587 -0.8577 -1.4639
  130OSM   H18H14038   3.169   1.168   8.360 -1.8365 -1.5050 -0.2744
  131OSM      N14039   2.108   3.610   5.913  0.8647 -0.0574  0.0693
  131OSM    C1514040   2.057   3.470   5.887 -0.6534 -0.3452  0.1998
  131OSM   H15A14041   1.981   3.441   5.959  0.6938 -1.1968  1.3300
  131OSM   H15B14042   2.136   3.401   5.914 -1.2206 -1.5447 -1.0834
  131OSM   H15C14043   2.020   3.445   5.789 -2.5649  0.3968  0.6809
  131OSM    C1414044   2.248   3.614   5.860 -0.1294  0.3009  0.2980
  131OSM   H14A14045   2.267   3.597   5.755 -0.1553 -0.0614  0.3520
  131OSM   H14B14046   2.304   3.537   5.911  0.6615  0.8252  0.2481
  131OSM   H14C14047   2.286   3.712   5.884 -1.5382  1.2399 -1.0935
  131OSM    C1314048   2.023   3.701   5.847  0.1475 -0.1923  0.4676
  131OSM   H13A14049   2.070   3.798   5.849  0.2530 -0.1830 -1.2628
  131OSM   H13B14050   1.927   3.712   5.896 -0.5067  0.9049 -1.0110
  131OSM   H13C14051   1.995   3.675   5.746 -1.4139  0.3329  0.7238
  131OSM    C1214052   2.104   3.630   6.065 -0.2016  0.7366 -0.8041
  131OSM   H12A14053   2.003   3.624   6.102 -0.6749  0.9513 -2.0046
  131OSM   H12B14054   2.134   3.732   6.089  0.5056  0.2955  0.2660
  131OSM    C1114055   2.195   3.540   6.155 -0.7585  0.4399 -0.1776
  131OSM   H11A14056   2.165   3.435   6.137 -2.0980  0.8387 -0.3815
  131OSM   H11B14057   2.183   3.557   6.264  1.7454  1.0200  0.0696
  131OSM      P14058   2.416   3.668   6.185 -0.0928 -0.1055 -0.1127
  131OSM    O1314059   2.559   3.658   6.150 -0.0878  0.5714 -0.0871
  131OSM    O1414060   2.344   3.784   6.135 -0.5304 -0.3958  0.5301
  131OSM    O1114061   2.394   3.654   6.343 -0.2314 -0.6861  0.3432
  131OSM    O1214062   2.338   3.544   6.124  0.2760  0.4721 -0.3488
  131OSM    C1S14063   2.441   3.541   6.416 -0.4803  0.0875 -0.1119
  131OSM    H1S14064   2.538   3.504   6.378  1.7710  1.8668  3.3714
  131OSM    H1T14065   2.361   3.464   6.418 -0.4415  0.0459  1.7874
  131OSM     NF14066   2.524   3.469   6.642 -0.1519 -0.1610  0.2226
  131OSM    HNF14067   2.458   3.407   6.683 -0.7735 -1.9440 -3.0753
  131OSM    C2S14068   2.464   3.579   6.566 -0.0196 -0.2888  0.1174
  131OSM    H2S14069   2.547   3.653   6.566  1.6217 -2.0145  0.5371
  131OSM    C3S14070   2.330   3.625   6.626 -0.4349 -0.1080  0.6415
  131OSM    H3S14071   2.260   3.539   6.623 -3.0420  1.8955  0.4964
  131OSM     O314072   2.263   3.730   6.547 -0.3708  0.0851 -0.0246
  131OSM    HO314073   2.301   3.713   6.461  0.0523 -1.1635  0.3938
  131OSM    C4S14074   2.352   3.659   6.772 -0.3116  0.5590 -0.7494
  131OSM    H4S14075   2.450   3.705   6.792 -0.0538  0.4249 -1.6710
  131OSM    C5S14076   2.271   3.623   6.878  0.5083 -0.2684  0.3939
  131OSM    H5S14077   2.184   3.556   6.869 -0.5524  0.7753  2.2919
  131OSM    C6S14078   2.297   3.658   7.021  0.2322 -0.0588 -0.1905
  131OSM    H6S14079   2.347   3.756   7.037 -0.8722  0.0814  3.2809
  131OSM    H6T14080   2.366   3.583   7.065 -0.9693 -1.5399 -0.7293
  131OSM    C7S14081   2.169   3.654   7.105  0.2668  0.1672 -0.3817
  131OSM    H7S14082   2.111   3.560   7.094  1.8854 -0.7668 -1.2567
  131OSM    H7T14083   2.102   3.735   7.071  0.5328  0.2215 -0.7792
  131OSM    C8S14084   2.199   3.681   7.259  0.1015 -0.1056 -0.0884
  131OSM    H8S14085   2.221   3.790   7.267  1.7894 -0.5297  2.3448
  131OSM    H8T14086   2.287   3.620   7.290  0.6499 -0.1367 -1.6433
  131OSM    C9S14087   2.072   3.660   7.345 -0.0045  0.4751 -0.1297
  131OSM    H9S14088   2.042   3.554   7.336 -0.9975  0.8113 -1.1570
  131OSM    H9T14089   1.996   3.727   7.298  0.5653 -0.2598 -2.1785
  131OSM   C10S14090   2.106   3.691   7.489 -0.6250 -0.3592 -0.5957
  131OSM   H10S14091   2.140   3.797   7.496 -0.9543 -0.3620  1.5818
  131OSM   H10T14092   2.194   3.627   7.509  0.7144  0.7500 -2.5406
  131OSM   C11S14093   2.004   3.668   7.593 -0.1919 -0.4452  0.7183
  131OSM   H11S14094   1.950   3.572   7.580 -1.4813  0.3994 -0.4984
  131OSM   H11T14095   1.925   3.746   7.585 -1.9757 -2.2020  0.5121
  131OSM   C12S14096   2.057   3.663   7.738  0.5002 -0.4660 -0.2759
  131OSM   H12S14097   2.167   3.654   7.727  0.4618 -1.0992 -0.1694
  131OSM   H12T14098   2.035   3.565   7.786 -0.7839  1.1019  2.5636
  131OSM   C13S14099   2.024   3.789   7.813 -0.6322  0.6137  0.3951
  131OSM   H13S14100   1.915   3.797   7.828 -0.7059  1.3168 -0.4741
  131OSM   H13T14101   2.060   3.882   7.764  0.1598 -0.0253 -0.2822
  131OSM   C14S14102   2.084   3.792   7.954  0.1471  0.1552  0.4244
  131OSM   H14S14103   2.053   3.884   8.007 -2.6789 -0.6010  0.2628
  131OSM   H14T14104   2.194   3.789   7.941  0.1898  1.1716  0.5371
  131OSM   C15S14105   2.043   3.672   8.048 -0.1972 -0.2673  0.1139
  131OSM   H15S14106   2.088   3.580   8.004  3.6293  1.1521  0.7177
  131OSM   H15T14107   1.932   3.679   8.052 -0.1199  0.3881  3.2843
  131OSM   C16S14108   2.090   3.678   8.195 -0.2411 -0.4412 -0.3907
  131OSM   H16S14109   2.044   3.766   8.245 -1.1177 -1.6796  1.0650
  131OSM   H16T14110   2.201   3.684   8.197 -0.0250 -2.7274 -1.7768
  131OSM   C17S14111   2.053   3.554   8.282 -0.1320 -0.3296 -0.3008
  131OSM   H17S14112   2.090   3.465   8.226 -1.6693 -2.0053  1.2038
  131OSM   H17T14113   1.943   3.545   8.290 -0.4033  2.4704  0.0787
  131OSM   C18S14114   2.106   3.546   8.420 -0.3232 -0.7371  0.0381
  131OSM   H18S14115   2.064   3.620   8.492  0.0031  0.9551 -1.4402
  131OSM   H18T14116   2.215   3.567   8.413 -0.2277 -1.7795 -2.4643
  131OSM   H18U14117   2.087   3.440   8.447 -0.0979 -1.4030 -2.1736
  131OSM    C1F14118   2.647   3.424   6.613 -0.5384  0.4035  0.1825
  131OSM     OF14119   2.719   3.488   6.538  0.8062  0.2382 -0.3455
  131OSM    C2F14120   2.687   3.282   6.665 -0.3121  0.5840 -0.3572
  131OSM    H2F14121   2.669   3.208   6.584  0.6912  0.3934 -0.4282
  131OSM    H2G14122   2.624   3.255   6.752  1.5943 -0.5706  0.7495
  131OSM    C3F14123   2.841   3.274   6.718  0.5955 -0.6047 -0.3175
  131OSM    H3F14124   2.854   3.364   6.782 -3.4657  0.1370 -0.2663
  131OSM    H3G14125   2.909   3.286   6.631 -0.1810  0.9463 -0.7311
  131OSM    C4F14126   2.876   3.150   6.803  0.1980  0.1132 -0.3065
  131OSM    H4F14127   2.980   3.153   6.842  0.8444 -0.8763 -1.8569
  131OSM    H4G14128   2.852   3.056   6.750 -2.5728  1.4868 -1.6971
  131OSM    C5F14129   2.800   3.151   6.937  0.8132 -0.1300 -0.1048
  131OSM    H5F14130   2.696   3.115   6.918  1.6909 -3.4984  0.8019
  131OSM    H5G14131   2.792   3.258   6.964 -0.0941 -0.0043 -0.8166
  131OSM    C6F14132   2.862   3.074   7.056  0.4782 -0.1261 -0.2741
  131OSM    H6F14133   2.913   2.979   7.029 -1.6168 -1.5230  0.4744
  131OSM    H6G14134   2.777   3.042   7.119  0.5403  0.2971  0.0294
  131OSM    C7F14135   2.951   3.168   7.144 -0.2110 -0.3673 -0.3447
  131OSM    H7F14136   2.884   3.254   7.167  0.2522 -0.2251  0.5220
  131OSM    H7G14137   3.037   3.199   7.082 -1.8809  0.6606 -2.2733
  131OSM    C8F14138   3.009   3.099   7.267  0.4259  0.0400  0.3139
  131OSM    H8F14139   3.060   3.173   7.331  1.2130 -1.5197  1.5517
  131OSM    H8G14140   3.083   3.023   7.234  1.8435  1.4986  0.0277
  131OSM    C9F14141   2.895   3.027   7.339 -0.0669 -0.0463  0.7676
  131OSM    H9F14142   2.801   3.082   7.352 -1.9138 -3.0555  1.2967
  131OSM   C10F14143   2.900   2.901   7.399  0.0371  0.3698  0.2089
  131OSM   H10F14144   2.809   2.876   7.456  0.2951  1.0251  0.9170
  131OSM   C11F14145   3.018   2.802   7.412  0.0630 -0.0485 -0.2109
  131OSM   H11F14146   3.091   2.824   7.331 -1.1167  2.9063 -0.5824
  131OSM   H11G14147   2.982   2.698   7.396  2.8961 -1.0937 -0.4241
  131OSM   C12F14148   3.087   2.805   7.551  0.2422  0.3259  0.2767
  131OSM   H12F14149   3.119   2.908   7.577 -0.2429  1.2624 -2.4432
  131OSM   H12G14150   3.179   2.744   7.539  0.3671  1.0657 -4.6699
  131OSM   C13F14151   2.996   2.743   7.665  0.4918 -0.1121  0.0195
  131OSM   H13F14152   2.942   2.651   7.633 -1.3670  0.5876  1.0066
  131OSM   H13G14153   2.913   2.813   7.687 -0.1793 -0.5227 -1.1488
  131OSM   C14F14154   3.078   2.718   7.793  0.0156 -0.6192 -0.0217
  131OSM   H14F14155   3.155   2.796   7.813  0.6915 -0.6384 -2.2216
  131OSM   H14G14156   3.130   2.620   7.781  1.0604 -0.1794  0.8021
  131OSM   C15F14157   2.996   2.685   7.920 -0.1828  0.0114 -0.4316
  131OSM   H15F14158   2.927   2.603   7.890  0.3365  0.1134 -1.9971
  131OSM   H15G14159   2.936   2.773   7.951  0.4012 -0.2556  1.5641
  131OSM   C16F14160   3.068   2.610   8.033  0.6026  0.2345 -0.2293
  131OSM   H16F14161   3.141   2.682   8.076  1.5420 -0.1511 -1.1335
  131OSM   H16G14162   3.132   2.530   7.991 -0.2967  0.5605 -2.3652
  131OSM   C17F14163   2.967   2.566   8.139  0.0274 -0.1642 -0.2888
  131OSM   H17F14164   2.897   2.489   8.098 -0.7927  0.7557 -0.6425
  131OSM   H17G14165   2.911   2.649   8.186  0.9531 -0.1170  0.7867
  131OSM   C18F14166   3.044   2.515   8.258 -0.1256 -0.1474 -0.3381
  131OSM   H18F14167   3.083   2.417   8.226 -0.2029 -0.2400 -0.1519
  131OSM   H18G14168   2.975   2.506   8.344  1.3291  1.8073  1.1279
  131OSM   H18H14169   3.130   2.580   8.287 -0.4804 -0.4314  1.4868
  132OSM      N14170   4.101   0.060   6.131 -0.4480 -0.1130 -0.6286
  132OSM    C1514171   4.177   0.127   6.016 -0.0901  0.3939  0.0105
  132OSM   H15A14172   4.155   0.233   6.018 -1.5024  0.1776 -1.7558
  132OSM   H15B14173   4.147   0.090   5.919  0.3598 -1.4413  0.5277
  132OSM   H15C14174   4.283   0.109   6.029 -0.5177 -1.0476  1.9600
  132OSM    C1414175   3.962   0.103   6.126  0.2948 -0.8379  0.8224
  132OSM   H14A14176   3.920   0.052   6.211  3.7506 -0.9415  2.6566
  132OSM   H14B14177   3.915   0.060   6.038  1.3100 -1.4665  0.5792
  132OSM   H14C14178   3.945   0.210   6.123  1.0929 -0.7119  0.1199
  132OSM    C1314179   4.103  -0.086   6.109 -0.1374 -0.5412 -0.5580
  132OSM   H13A14180   4.204  -0.125   6.114 -0.2621 -0.8924 -0.7647
  132OSM   H13B14181   4.051  -0.114   6.018 -0.0362 -0.3043 -0.6899
  132OSM   H13C14182   4.053  -0.140   6.188 -0.0325 -0.6842 -0.5879
  132OSM    C1214183   4.159   0.094   6.269 -0.5034  0.2001 -0.5390
  132OSM   H12A14184   4.255   0.045   6.280 -0.0177  0.9249 -1.4349
  132OSM   H12B14185   4.088   0.050   6.337 -0.5162 -0.1105 -0.7516
  132OSM    C1114186   4.182   0.236   6.319 -0.2783  0.2402 -0.3635
  132OSM   H11A14187   4.206   0.235   6.427  0.8046 -0.9054 -0.5886
  132OSM   H11B14188   4.084   0.286   6.304 -0.3774 -0.5771 -3.1450
  132OSM      P14189   4.426   0.272   6.234  0.4831  0.2974 -0.3689
  132OSM    O1314190   4.425   0.133   6.196 -0.0889 -0.2422  0.0796
  132OSM    O1414191   4.489   0.372   6.146  0.2901  0.0910  0.5353
  132OSM    O1114192   4.491   0.299   6.375 -0.5262  0.4584 -0.4711
  132OSM    O1214193   4.274   0.315   6.252 -0.3107  0.5363  1.0965
  132OSM    C1S14194   4.453   0.425   6.444 -0.0755 -0.1730  0.4852
  132OSM    H1S14195   4.343   0.422   6.458 -0.0281 -1.1622  0.6587
  132OSM    H1T14196   4.492   0.512   6.385  2.5273 -0.9788  0.8886
  132OSM     NF14197   4.444   0.500   6.688 -0.4900 -0.1685  0.4750
  132OSM    HNF14198   4.467   0.596   6.698 -1.9227  0.3494 -0.8388
  132OSM    C2S14199   4.504   0.416   6.590 -0.2559  0.0743 -0.2789
  132OSM    H2S14200   4.488   0.311   6.623 -0.3830  0.2912  0.3723
  132OSM    C3S14201   4.657   0.428   6.588 -0.2002  0.7414  0.5542
  132OSM    H3S14202   4.667   0.531   6.548 -0.1340  1.2436  1.7972
  132OSM     O314203   4.728   0.339   6.499  0.1096 -0.0888  0.1616
  132OSM    HO314204   4.660   0.298   6.444 -0.4203 -1.0137  1.4591
  132OSM    C4S14205   4.724   0.436   6.722  0.5353 -0.0602 -0.6039
  132OSM    H4S14206   4.719   0.533   6.773 -0.7301  0.0397 -0.8849
  132OSM    C5S14207   4.782   0.332   6.793 -0.0646  0.3135 -0.5566
  132OSM    H5S14208   4.776   0.233   6.745 -0.6203  0.5578 -1.0163
  132OSM    C6S14209   4.846   0.345   6.932 -0.4398 -0.2285 -0.0652
  132OSM    H6S14210   4.954   0.321   6.918 -0.5256 -1.5020  1.2196
  132OSM    H6T14211   4.816   0.268   7.006  0.0652  0.8428  1.2874
  132OSM    C7S14212   4.820   0.480   7.008  0.0593 -0.7116  0.2280
  132OSM    H7S14213   4.709   0.485   7.005  0.0972  0.2105 -0.1306
  132OSM    H7T14214   4.863   0.568   6.955 -2.7318  0.3825 -0.3596
  132OSM    C8S14215   4.862   0.473   7.156  0.1145  0.3026  0.3308
  132OSM    H8S14216   4.973   0.463   7.155  0.0895 -1.7475 -3.7191
  132OSM    H8T14217   4.815   0.382   7.197 -1.7560  0.5433 -1.1378
  132OSM    C9S14218   4.820   0.596   7.236 -0.1040  0.4604 -0.2690
  132OSM    H9S14219   4.710   0.599   7.252 -0.2831 -1.3655 -0.8137
  132OSM    H9T14220   4.843   0.676   7.163 -0.7753  0.9698  0.0709
  132OSM   C10S14221   4.904   0.624   7.360  0.5119 -0.4220  0.2813
  132OSM   H10S14222   4.903   0.733   7.383 -0.1985  0.1357 -2.0469
  132OSM   H10T14223   5.010   0.598   7.338 -0.1718 -2.7383 -0.5006
  132OSM   C11S14224   4.843   0.553   7.481  0.0918  0.0836  0.1278
  132OSM   H11S14225   4.849   0.443   7.469  1.1321  0.2323 -0.9378
  132OSM   H11T14226   4.734   0.572   7.486 -0.3317 -1.4612 -1.8774
  132OSM   C12S14227   4.914   0.591   7.618  0.3513  0.2965 -0.3548
  132OSM   H12S14228   4.902   0.701   7.613  1.3641  0.4024 -0.7447
  132OSM   H12T14229   5.021   0.567   7.637 -0.3030 -0.2134  3.5245
  132OSM   C13S14230   4.841   0.539   7.745 -0.3112  0.2813  0.3351
  132OSM   H13S14231   4.733   0.564   7.742 -0.5521 -0.8124 -1.4842
  132OSM   H13T14232   4.889   0.586   7.834 -1.5988  1.0971  0.6416
  132OSM   C14S14233   4.853   0.384   7.764 -0.0070  0.3176 -0.1968
  132OSM   H14S14234   4.961   0.380   7.791  0.0466 -0.0607 -0.4754
  132OSM   H14T14235   4.840   0.331   7.668 -0.8523 -1.8345  1.0329
  132OSM   C15S14236   4.765   0.334   7.877  0.9876  0.2081 -0.1372
  132OSM   H15S14237   4.730   0.229   7.867  3.3372 -0.6307 -0.2409
  132OSM   H15T14238   4.669   0.388   7.861 -0.2069 -1.3730  1.4181
  132OSM   C16S14239   4.816   0.388   8.016 -0.3729 -0.1073 -0.2042
  132OSM   H16S14240   4.819   0.499   8.025  1.9910  0.0115 -1.7899
  132OSM   H16T14241   4.919   0.350   8.029 -0.8388 -1.7590 -1.0303
  132OSM   C17S14242   4.730   0.327   8.140 -0.0176  0.6335 -0.0784
  132OSM   H17S14243   4.715   0.217   8.140 -1.1514  0.7843 -0.1781
  132OSM   H17T14244   4.630   0.364   8.111 -0.3981  0.0538  0.4861
  132OSM   C18S14245   4.742   0.384   8.282  0.5468 -0.0804 -0.0706
  132OSM   H18S14246   4.849   0.399   8.309  0.9147 -3.3265  0.7260
  132OSM   H18T14247   4.696   0.320   8.360 -0.0277  0.2032 -0.1720
  132OSM   H18U14248   4.704   0.488   8.280 -1.9765 -0.9432  0.2492
  132OSM    C1F14249   4.332   0.469   6.752 -0.6362  0.4587 -0.1162
  132OSM     OF14250   4.255   0.387   6.704 -0.3352  0.0545  0.3130
  132OSM    C2F14251   4.290   0.559   6.867 -0.2452 -0.5546  0.2319
  132OSM    H2F14252   4.179   0.552   6.867 -0.3423  0.6813 -0.5030
  132OSM    H2G14253   4.315   0.664   6.841 -0.2499 -0.4455  0.6545
  132OSM    C3F14254   4.356   0.515   7.003 -0.1077 -0.2334  0.5491
  132OSM    H3F14255   4.464   0.538   6.998 -0.3754  0.9895  0.1641
  132OSM    H3G14256   4.345   0.405   7.017 -2.0942 -0.0331  0.8093
  132OSM    C4F14257   4.308   0.592   7.125  0.3687 -0.0723  0.2550
  132OSM    H4F14258   4.292   0.701   7.112  0.4263 -0.0829  0.0927
  132OSM    H4G14259   4.380   0.588   7.210 -1.7921 -2.2406  2.1377
  132OSM    C5F14260   4.177   0.540   7.187  0.0885  0.1774  0.0006
  132OSM    H5F14261   4.184   0.439   7.230 -2.3731 -0.4379 -0.8441
  132OSM    H5G14262   4.100   0.543   7.106 -0.3279 -1.8518  0.2878
  132OSM    C6F14263   4.116   0.627   7.300  0.2156 -0.3285 -0.3213
  132OSM    H6F14264   4.105   0.729   7.258  2.0709 -0.5824 -1.5569
  132OSM    H6G14265   4.187   0.644   7.385 -1.7532 -1.3197  1.6225
  132OSM    C7F14266   3.981   0.577   7.352  0.1119 -0.0783 -0.1536
  132OSM    H7F14267   3.976   0.467   7.365 -0.2762 -0.0810 -0.3169
  132OSM    H7G14268   3.900   0.619   7.288 -0.9858  1.5963  2.1917
  132OSM    C8F14269   3.941   0.621   7.498  0.0946  0.2257 -0.3725
  132OSM    H8F14270   4.019   0.591   7.572  0.0498 -1.0912 -0.8363
  132OSM    H8G14271   3.850   0.572   7.539 -0.0052  1.9150  1.6288
  132OSM    C9F14272   3.923   0.772   7.515  0.5319  0.5782  0.1257
  132OSM    H9F14273   3.893   0.823   7.422  0.4571  2.1200  0.9660
  132OSM   C10F14274   3.941   0.832   7.631  0.4966 -0.4379 -0.4837
  132OSM   H10F14275   3.950   0.941   7.626 -1.5252  0.0545  3.1366
  132OSM   C11F14276   3.970   0.784   7.764 -0.6819  0.6095 -0.5292
  132OSM   H11F14277   4.078   0.802   7.785 -0.8979  0.6064  0.6862
  132OSM   H11G14278   3.940   0.677   7.768 -2.9580  1.2091 -0.0476
  132OSM   C12F14279   3.882   0.856   7.867  0.0653 -0.0463  0.5510
  132OSM   H12F14280   3.775   0.863   7.835 -0.1449  1.1557  1.4060
  132OSM   H12G14281   3.925   0.959   7.870  0.9424 -0.3189 -1.3216
  132OSM   C13F14282   3.905   0.806   8.010  0.6832 -0.3528 -0.2035
  132OSM   H13F14283   3.854   0.883   8.071  2.0881  0.0873  0.4606
  132OSM   H13G14284   4.014   0.809   8.032  0.7303 -0.5476 -0.4033
  132OSM   C14F14285   3.831   0.673   8.037  0.3975  0.9586 -0.6552
  132OSM   H14F14286   3.834   0.606   7.948  0.6180 -0.8589  0.6765
  132OSM   H14G14287   3.722   0.689   8.049  0.5305  1.8025 -0.5257
  132OSM   C15F14288   3.888   0.595   8.151  0.1367  0.0787 -0.4020
  132OSM   H15F14289   3.880   0.653   8.246  0.7459  0.5539 -0.6297
  132OSM   H15G14290   3.995   0.576   8.126  0.1266 -0.8827  0.2518
  132OSM   C16F14291   3.826   0.461   8.183  0.1529  0.7981 -0.5626
  132OSM   H16F14292   3.801   0.412   8.087  2.0347 -0.8455 -0.2909
  132OSM   H16G14293   3.730   0.474   8.237 -0.6121  0.6909 -1.8581
  132OSM   C17F14294   3.916   0.354   8.260 -0.0885 -0.0373 -0.4942
  132OSM   H17F14295   3.951   0.407   8.351 -0.2664 -0.1576 -0.3560
  132OSM   H17G14296   4.002   0.329   8.195  0.6258  0.6103  0.1793
  132OSM   C18F14297   3.843   0.235   8.305  0.8545  0.9160 -0.7315
  132OSM   H18F14298   3.810   0.155   8.235  0.3260 -1.2245  1.8216
  132OSM   H18G14299   3.747   0.264   8.352  1.2340 -0.6016  1.1066
  132OSM   H18H14300   3.904   0.187   8.385  1.3889  3.4814  0.4974
  133SAPE     N14301   0.412   5.769  10.735 -0.1492 -0.0848  0.9141
  133SAPE   HN114302   0.357   5.845  10.691  1.6687  1.9889  2.0291
  133SAPE   HN214303   0.360   5.716  10.807 -1.2244  1.2878  1.1861
  133SAPE   HN314304   0.492   5.822  10.775  0.6194  0.1095 -0.7736
  133SAPE   C1214305   0.484   5.691  10.632  0.0745  0.0200  0.1483
  133SAPE  H12A14306   0.552   5.764  10.582  1.6276 -1.9938 -0.8719
  133SAPE  H12B14307   0.416   5.649  10.555  0.9352  1.7183 -1.6287
  133SAPE   C1114308   0.578   5.574  10.677  0.2019  0.5031  0.0897
  133SAPE  H11A14309   0.603   5.527  10.579 -2.4031  1.6739 -1.2328
  133SAPE  H11B14310   0.513   5.503  10.733  1.0330 -3.3300 -3.2942
  133SAPE     P14311   0.836   5.617  10.707 -0.4492  0.2911  0.3750
  133SAPE   O1314312   0.928   5.666  10.809  0.0119 -0.0009 -0.4091
  133SAPE   O1414313   0.853   5.477  10.657  0.2902  0.8741  0.3789
  133SAPE   O1214314   0.685   5.628  10.759 -0.5830 -0.1893  0.7815
  133SAPE   O1114315   0.850   5.720  10.583  0.4444  0.2859 -0.2980
  133SAPE    C114316   0.868   5.856  10.618 -0.4223 -0.4799 -0.5313
  133SAPE    HA14317   0.786   5.921  10.582  1.6144  2.7516  0.2429
  133SAPE    HB14318   0.880   5.880  10.726  0.6373 -2.6668 -0.1057
  133SAPE    C214319   0.990   5.917  10.530 -0.2743 -0.1094  0.4041
  133SAPE    HS14320   0.953   6.014  10.490 -1.1460 -1.3223 -1.9188
  133SAPE   O2114321   1.027   5.824  10.436 -0.0071 -0.0961  0.5267
  133SAPE   C2114322   0.957   5.838  10.321 -0.3141  0.0370 -0.8984
  133SAPE   O2214323   0.865   5.911  10.298  0.1492  0.0640  0.2217
  133SAPE   C2214324   1.015   5.736  10.222 -0.2954 -0.2587  0.4233
  133SAPE   H2R14325   1.121   5.762  10.204 -0.1292 -1.0758  0.1854
  133SAPE   H2S14326   1.006   5.634  10.265  0.8744 -0.6965 -0.3188
  133SAPE    C314327   1.119   5.954  10.606 -0.2593  0.4881 -0.1543
  133SAPE    HX14328   1.177   5.872  10.652  0.3350  2.2029  2.3653
  133SAPE    HY14329   1.091   6.029  10.683 -2.6123 -0.4293 -0.0406
  133SAPE   O3114330   1.207   6.023  10.516  0.0033  0.1761 -0.4198
  133SAPE   C3114331   1.311   5.956  10.470 -0.0739  0.6673 -0.1601
  133SAPE   O3214332   1.341   5.841  10.503 -0.4014  0.1587  0.3898
  133SAPE   C3214333   1.397   6.041  10.377  0.1945 -0.0765  0.5346
  133SAPE   H2X14334   1.502   6.004  10.379 -0.7273 -3.0698 -0.1986
  133SAPE   H2Y14335   1.390   6.142  10.422 -0.0039 -1.1822  3.1998
  133SAPE   C2314336   0.953   5.748  10.088  0.3993  0.2279  0.6584
  133SAPE   H3R14337   0.910   5.848  10.066  2.6468  0.9320 -0.9691
  133SAPE   H3S14338   0.861   5.686  10.088 -0.0019  0.6783 -2.3058
  133SAPE   C2414339   1.053   5.700   9.979  0.0272 -0.5214 -0.1826
  133SAPE   H4R14340   1.148   5.757   9.978  0.3044 -0.9111 -2.9553
  133SAPE   H4S14341   0.994   5.716   9.887 -0.2974  1.5857  0.3419
  133SAPE   C2514342   1.093   5.558   9.991 -0.8346  0.4987  0.1804
  133SAPE   H5R14343   1.168   5.551  10.071 -1.5531  1.1252  0.9268
  133SAPE   C2614344   1.074   5.453   9.908  0.0010  0.4276  0.1290
  133SAPE   H6R14345   1.104   5.355   9.949 -1.4432  0.0469  0.3232
  133SAPE   C2714346   0.997   5.454   9.778  0.7892  0.3171  0.2587
  133SAPE   H7R14347   1.035   5.536   9.713  0.2434  0.0081 -0.4694
  133SAPE   H7S14348   0.889   5.478   9.790  0.4468 -0.5120 -0.9701
  133SAPE   C2814349   0.986   5.326   9.703 -1.0443  1.1133 -0.5882
  133SAPE   H8R14350   1.001   5.241   9.771 -0.0460  2.1426  0.5155
  133SAPE   C2914351   0.958   5.308   9.574  0.1739  0.6197 -0.2536
  133SAPE   H9R14352   0.965   5.204   9.539  1.1122  0.7732 -0.5590
  133SAPE  C21014353   0.924   5.416   9.477  0.3416 -0.2240  0.4204
  133SAPE  H10R14354   0.946   5.516   9.519 -0.9298 -0.4913  1.8125
  133SAPE  H10S14355   0.814   5.420   9.466  0.3637 -1.3166 -0.3850
  133SAPE  C21114356   0.979   5.397   9.336  0.1111  0.3336  0.0003
  133SAPE  H11R14357   1.063   5.464   9.311 -0.2541  0.0377 -2.2056
  133SAPE  C21214358   0.947   5.305   9.239  0.0716 -1.2089 -0.3203
  133SAPE  H12R14359   1.007   5.307   9.147  1.1653  1.0506  0.3592
  133SAPE  C21314360   0.845   5.199   9.249  0.2211 -0.7517  0.0821
  133SAPE  H13R14361   0.772   5.222   9.169  0.6081 -0.3139 -0.1523
  133SAPE  H13S14362   0.806   5.203   9.353  1.9225  0.9466  0.7230
  133SAPE  C21414363   0.900   5.056   9.229  0.2079  0.3601 -0.7634
  133SAPE  H14R14364   0.911   5.000   9.323  1.1256  1.0130 -0.4645
  133SAPE  C21514365   0.926   4.998   9.109 -0.1544  0.8105 -0.3165
  133SAPE  H15R14366   0.950   4.890   9.105  2.6697  1.3570 -0.4007
  133SAPE  C21614367   0.899   5.058   8.969 -1.0966 -0.3253  0.9318
  133SAPE  H16R14368   0.838   5.149   8.982 -2.2550 -1.0865  0.9846
  133SAPE  H16S14369   0.834   4.980   8.923  2.0779 -3.1328  0.7917
  133SAPE  C21714370   1.021   5.085   8.883  0.4485  0.0464  0.0009
  133SAPE  H17R14371   1.087   4.997   8.874  1.8425  1.0939 -0.4717
  133SAPE  H17S14372   1.076   5.173   8.923  0.7500  0.0883 -0.4878
  133SAPE  C21814373   0.985   5.140   8.744  0.0294  0.6800 -0.1806
  133SAPE  H18R14374   0.883   5.106   8.717 -0.8368  1.1076  2.2729
  133SAPE  H18S14375   1.035   5.078   8.667  0.7710  0.8979  0.1133
  133SAPE  C21914376   1.014   5.284   8.716 -0.5836  0.1463  0.0188
  133SAPE  H19R14377   1.118   5.298   8.752  0.0007 -3.5386  0.1400
  133SAPE  H19S14378   0.945   5.347   8.776 -0.9894  0.0231 -0.3119
  133SAPE  C22014379   1.007   5.334   8.574  0.4691 -0.0006  0.1902
  133SAPE  H20R14380   1.028   5.440   8.551  0.8685 -0.0633  0.2547
  133SAPE  H20S14381   0.908   5.314   8.529  1.1764 -1.1614 -0.9180
  133SAPE  H20T14382   1.078   5.282   8.506 -1.6569 -1.0057 -1.3885
  133SAPE   C3314383   1.338   6.047  10.230 -0.3865  0.0916 -0.2320
  133SAPE   H3X14384   1.336   5.942  10.193  0.5867  1.2298 -3.9348
  133SAPE   H3Y14385   1.404   6.103  10.160 -0.5739  1.8350  0.9226
  133SAPE   C3414386   1.195   6.103  10.230  0.1191 -0.2779 -0.0953
  133SAPE   H4X14387   1.182   6.200  10.284  2.0586 -0.1404  0.2120
  133SAPE   H4Y14388   1.120   6.031  10.269 -0.4119 -1.0330 -2.3753
  133SAPE   C3514389   1.130   6.120  10.093 -0.2823  0.1984 -0.5532
  133SAPE   H5X14390   1.130   6.024  10.037  1.4087  0.7529 -1.5758
  133SAPE   H5Y14391   1.206   6.186  10.045  0.5066 -1.3944 -1.5944
  133SAPE   C3614392   1.000   6.181  10.072 -0.3141 -0.0818 -0.7607
  133SAPE   H6X14393   0.994   6.277  10.128  0.0452 -0.1012 -0.6888
  133SAPE   H6Y14394   0.920   6.128  10.128  0.1562  2.2325  2.3477
  133SAPE   C3714395   0.952   6.203   9.929 -0.2259 -0.1578  0.1929
  133SAPE   H7X14396   1.033   6.244   9.865 -0.3327 -0.1972  0.0319
  133SAPE   H7Y14397   0.877   6.285   9.935 -0.2197 -0.1262 -0.1973
  133SAPE   C3814398   0.888   6.077   9.870  0.5400  0.0568  0.4002
  133SAPE   H8X14399   0.806   6.047   9.939 -2.7998  1.9514 -2.4113
  133SAPE   H8Y14400   0.966   5.998   9.878  1.6204  1.0560  0.0358
  133SAPE   C3914401   0.842   6.090   9.721  0.0397  0.6539  0.2538
  133SAPE   H9X14402   0.794   6.189   9.704 -0.4986  0.3221 -0.2080
  133SAPE   H9Y14403   0.768   6.008   9.703 -0.5672  1.0160  1.0135
  133SAPE  C31014404   0.962   6.075   9.633  0.5027 -0.3837  0.2281
  133SAPE  H10X14405   1.021   5.982   9.646 -0.0051 -0.9923 -1.4781
  133SAPE  H10Y14406   1.037   6.153   9.657 -1.7195  0.9011  3.9271
  133SAPE  C31114407   0.923   6.083   9.489 -0.0906  0.1064 -0.2286
  133SAPE  H11X14408   0.893   6.188   9.469  0.2408  0.5241  1.3335
  133SAPE  H11Y14409   0.846   6.005   9.471 -1.9728  1.6127  0.9250
  133SAPE  C31214410   1.042   6.053   9.398 -0.4796 -0.3918 -0.4519
  133SAPE  H12X14411   1.107   5.976   9.444 -0.2318 -1.3339 -2.2547
  133SAPE  H12Y14412   1.104   6.145   9.388 -2.2322  1.1863  2.0599
  133SAPE  C31314413   1.013   5.980   9.266  0.5500 -0.5867 -0.4835
  133SAPE  H13X14414   0.952   6.048   9.203  1.7965  3.5535  2.3382
  133SAPE  H13Y14415   0.940   5.901   9.293 -0.0610  0.3809  0.8403
  133SAPE  C31414416   1.130   5.913   9.199  0.6710 -0.8695 -0.7673
  133SAPE  H14X14417   1.188   5.863   9.279  0.0828  0.5517  0.5859
  133SAPE  H14Y14418   1.188   6.001   9.164 -2.5949  2.0912  0.6732
  133SAPE  C31514419   1.077   5.823   9.086 -0.2058 -0.4365 -0.7618
  133SAPE  H15X14420   1.085   5.887   8.995  0.5725  2.2597  1.0616
  133SAPE  H15Y14421   0.969   5.807   9.105 -0.3906  2.5089  1.4750
  133SAPE  C31614422   1.166   5.696   9.074  0.0892  0.1840  0.0765
  133SAPE  H16X14423   1.186   5.639   9.167  0.8949 -0.3734 -0.4345
  133SAPE  H16Y14424   1.263   5.735   9.037  1.0617 -0.1203  2.1485
  133SAPE  C31714425   1.127   5.580   8.970 -0.0327 -0.4109 -0.3438
  133SAPE  H17X14426   1.054   5.517   9.026  1.5981 -1.4693  0.6950
  133SAPE  H17Y14427   1.220   5.518   8.961 -0.0800 -0.9058  2.0190
  133SAPE  C31814428   1.068   5.632   8.844  0.1129  0.4751  0.2058
  133SAPE  H18X14429   1.081   5.547   8.773  2.4570 -0.9199  2.1414
  133SAPE  H18Y14430   1.128   5.714   8.800 -0.9698  0.4463 -1.4018
  133SAPE  H18Z14431   0.962   5.660   8.856 -0.3537 -1.1504  0.2157
  134SAPE     N14432   4.454   5.645  10.866 -0.4591  0.3284 -0.0985
  134SAPE   HN114433   4.500   5.675  10.778  0.3465 -1.1227 -0.1919
  134SAPE   HN214434   4.501   5.708  10.934 -0.3004  0.7862 -0.6254
  134SAPE   HN314435   4.477   5.544  10.863  0.1042  0.4752 -1.7486
  134SAPE   C1214436   4.303   5.671  10.851  0.7603  0.5828 -0.6944
  134SAPE  H12A14437   4.281   5.780  10.852 -0.4369  0.4262 -2.5800
  134SAPE  H12B14438   4.253   5.626  10.939  2.7830 -0.7604 -0.1763
  134SAPE   C1114439   4.249   5.617  10.719  0.0792  0.1503 -0.9170
  134SAPE  H11A14440   4.303   5.669  10.636 -0.4174  1.8448 -0.2096
  134SAPE  H11B14441   4.140   5.627  10.701 -0.5050 -3.7276 -0.4179
  134SAPE     P14442   4.385   5.385  10.647 -0.0399 -0.3307 -0.2117
  134SAPE   O1314443   4.511   5.442  10.708 -0.5790 -0.2158 -0.3206
  134SAPE   O1414444   4.354   5.241  10.659  0.0933  0.5020 -0.7528
  134SAPE   O1214445   4.278   5.474  10.721  0.8254 -0.0187  0.9435
  134SAPE   O1114446   4.386   5.433  10.501 -0.2201  0.0953  0.1361
  134SAPE    C114447   4.275   5.413  10.412 -0.2611 -0.9271 -0.8468
  134SAPE    HA14448   4.179   5.422  10.467  0.2699  0.5972 -0.0934
  134SAPE    HB14449   4.284   5.495  10.337  1.9836 -0.6226 -0.3265
  134SAPE    C214450   4.277   5.283  10.335 -0.4419  0.1270  0.2960
  134SAPE    HS14451   4.260   5.200  10.408  0.6624 -0.0501  0.3630
  134SAPE   O2114452   4.400   5.264  10.269 -0.2665  0.2293 -0.1418
  134SAPE   C2114453   4.423   5.145  10.227  0.4208 -0.0363  0.5531
  134SAPE   O2214454   4.380   5.042  10.271 -0.6211  0.5256 -0.1116
  134SAPE   C2214455   4.523   5.150  10.116 -0.0769  0.2226  0.2533
  134SAPE   H2R14456   4.585   5.240  10.136  2.3803 -1.3280  0.0570
  134SAPE   H2S14457   4.588   5.060  10.123 -0.9925 -0.3543  1.7604
  134SAPE    C314458   4.159   5.281  10.233 -0.5924 -0.0600 -0.4464
  134SAPE    HX14459   4.180   5.372  10.173 -0.3926 -0.3319 -0.7923
  134SAPE    HY14460   4.062   5.298  10.284  0.1866  1.2507  0.6905
  134SAPE   O3114461   4.165   5.168  10.143  0.5225 -0.3195 -0.3410
  134SAPE   C3114462   4.084   5.071  10.161  0.2059 -0.4849  0.1599
  134SAPE   O3214463   4.000   5.065  10.252  0.2884  0.0485 -0.1173
  134SAPE   C3214464   4.088   4.976  10.040 -0.0464  0.1881 -0.4603
  134SAPE   H2X14465   4.010   4.900  10.063 -1.5898  1.3243 -1.7336
  134SAPE   H2Y14466   4.190   4.932  10.043  0.6730  1.5619 -2.6176
  134SAPE   C2314467   4.460   5.166   9.978 -0.4892 -0.1502  0.2119
  134SAPE   H3R14468   4.351   5.184   9.989 -0.8535 -1.0256 -1.6046
  134SAPE   H3S14469   4.473   5.072   9.921 -0.2588  0.0968 -0.1527
  134SAPE   C2414470   4.524   5.270   9.891 -0.5937 -0.0891 -0.7845
  134SAPE   H4R14471   4.481   5.249   9.791 -1.3537 -3.3144  0.0822
  134SAPE   H4S14472   4.632   5.243   9.890 -0.6976 -0.6112  0.2759
  134SAPE   C2514473   4.495   5.408   9.939  0.4064  0.5506 -0.2966
  134SAPE   H5R14474   4.518   5.421  10.046 -1.7668 -0.4221  0.3495
  134SAPE   C2614475   4.437   5.509   9.876 -0.2768 -0.4496 -0.6374
  134SAPE   H6R14476   4.417   5.604   9.929  2.9739  0.5517 -0.9816
  134SAPE   C2714477   4.381   5.521   9.740  0.2460 -0.4392 -0.1296
  134SAPE   H7R14478   4.364   5.419   9.700 -0.1902  0.0620 -1.2874
  134SAPE   H7S14479   4.450   5.558   9.661 -1.8419  2.6956 -0.7184
  134SAPE   C2814480   4.236   5.587   9.739  0.3313  0.0850 -0.3224
  134SAPE   H8R14481   4.208   5.634   9.835  0.4232  1.6835 -1.0395
  134SAPE   C2914482   4.142   5.569   9.643  0.2745 -0.2724  0.5255
  134SAPE   H9R14483   4.050   5.627   9.660  0.7891  1.8766 -2.9714
  134SAPE  C21014484   4.153   5.485   9.517  0.2266  0.5285 -0.3107
  134SAPE  H10R14485   4.099   5.389   9.535  1.0432  0.1324  0.0796
  134SAPE  H10S14486   4.259   5.451   9.513 -0.0344 -0.2891 -0.6443
  134SAPE  C21114487   4.112   5.539   9.383 -0.6806 -0.4651  0.0076
  134SAPE  H11R14488   4.122   5.648   9.387  1.8846 -0.6503  2.8632
  134SAPE  C21214489   4.089   5.464   9.273  0.7272  0.1479  0.0412
  134SAPE  H12R14490   4.051   5.520   9.186 -1.0175  0.6639  1.0952
  134SAPE  C21314491   4.099   5.310   9.256  0.5184 -0.8193  0.0316
  134SAPE  H13R14492   4.002   5.272   9.217 -0.1726  0.2635  0.6670
  134SAPE  H13S14493   4.116   5.260   9.354  2.3313 -0.6040 -0.1480
  134SAPE  C21414494   4.219   5.261   9.174 -0.2445  0.5565 -0.5248
  134SAPE  H14R14495   4.316   5.250   9.225 -0.0142  2.1954 -0.5498
  134SAPE  C21514496   4.224   5.235   9.042  0.6944  0.6473  0.5186
  134SAPE  H15R14497   4.315   5.188   9.002 -0.5465 -0.4336 -1.2081
  134SAPE  C21614498   4.103   5.259   8.941  0.2080 -0.8831 -0.7613
  134SAPE  H16R14499   4.016   5.297   8.998  0.9288 -0.6278  0.1985
  134SAPE  H16S14500   4.076   5.162   8.895  1.2990 -0.1917 -3.0146
  134SAPE  C21714501   4.138   5.367   8.842  0.3334  0.4922 -0.3881
  134SAPE  H17R14502   4.068   5.361   8.756 -1.7519  2.4799  1.0614
  134SAPE  H17S14503   4.234   5.338   8.794 -0.9646 -0.8335 -2.2905
  134SAPE  C21814504   4.130   5.516   8.889  0.2607  0.5968 -0.1842
  134SAPE  H18R14505   4.172   5.577   8.807 -0.5664 -0.5305 -1.4787
  134SAPE  H18S14506   4.197   5.529   8.977 -0.9856  2.6404  0.5494
  134SAPE  C21914507   3.981   5.552   8.931 -0.5008 -0.3887 -0.0130
  134SAPE  H19R14508   3.986   5.659   8.962 -0.2966 -0.0343 -1.2188
  134SAPE  H19S14509   3.955   5.501   9.026 -2.2087  0.5114  0.0407
  134SAPE  C22014510   3.878   5.534   8.828  0.2347  0.0082  0.4566
  134SAPE  H20R14511   3.782   5.565   8.874  1.2943  2.5221  1.1363
  134SAPE  H20S14512   3.883   5.428   8.796  0.0369 -0.3236  1.5008
  134SAPE  H20T14513   3.893   5.610   8.748 -0.6061  0.6040  0.8462
  134SAPE   C3314514   4.041   5.039   9.911  0.4062  0.4843  0.0122
  134SAPE   H3X14515   4.113   5.115   9.872  1.0751 -0.1715 -0.0456
  134SAPE   H3Y14516   3.941   5.085   9.924 -0.4396 -1.1473 -0.5590
  134SAPE   C3414517   4.026   4.936   9.793  0.2019  0.0965 -0.6743
  134SAPE   H4X14518   3.931   4.884   9.821  0.5206 -1.1419 -1.8021
  134SAPE   H4Y14519   4.115   4.870   9.786 -0.1992 -0.4505 -0.6964
  134SAPE   C3514520   3.997   5.004   9.656  0.0075  0.1834 -0.2209
  134SAPE   H5X14521   4.065   5.092   9.657  1.1638 -0.6501  2.0070
  134SAPE   H5Y14522   3.897   5.053   9.658  0.2536  0.6944 -0.2426
  134SAPE   C3614523   4.023   4.907   9.542  0.3653  0.0211 -0.3273
  134SAPE   H6X14524   3.922   4.860   9.540  0.0845  0.6047 -2.5291
  134SAPE   H6Y14525   4.104   4.836   9.568  0.8488  0.1185 -1.4781
  134SAPE   C3714526   4.055   4.974   9.411  0.0240  0.1273 -0.4697
  134SAPE   H7X14527   4.139   5.046   9.414  0.3721 -0.2692 -0.4679
  134SAPE   H7Y14528   3.976   5.042   9.374 -0.3025 -0.2607 -0.5000
  134SAPE   C3814529   4.069   4.873   9.292  0.3695 -0.7909 -0.3902
  134SAPE   H8X14530   3.975   4.816   9.275 -1.7704  2.1317  0.7526
  134SAPE   H8Y14531   4.130   4.790   9.333  0.5317  0.3726  1.9133
  134SAPE   C3914532   4.138   4.934   9.165  0.1405  0.3067  0.1279
  134SAPE   H9X14533   4.224   4.991   9.206  0.3097  0.4078 -0.3601
  134SAPE   H9Y14534   4.064   5.009   9.129  1.5271  1.2030 -0.9533
  134SAPE  C31014535   4.175   4.825   9.064 -0.2053  0.4842 -0.2350
  134SAPE  H10X14536   4.100   4.744   9.049  1.4047 -1.0771 -0.2338
  134SAPE  H10Y14537   4.248   4.757   9.113 -3.4663 -1.2623  2.7161
  134SAPE  C31114538   4.218   4.881   8.934  0.3319 -0.6424 -0.4703
  134SAPE  H11X14539   4.300   4.956   8.936 -0.8899  0.7672 -1.0247
  134SAPE  H11Y14540   4.136   4.941   8.888  1.5641 -0.5407 -2.6935
  134SAPE  C31214541   4.273   4.776   8.839 -0.2966  0.6610 -0.2637
  134SAPE  H12X14542   4.289   4.816   8.736  2.0726 -0.8075 -0.5387
  134SAPE  H12Y14543   4.184   4.710   8.828 -0.1752  0.2572  1.0817
  134SAPE  C31314544   4.396   4.690   8.871 -0.3165  0.5484  0.3282
  134SAPE  H13X14545   4.380   4.627   8.961 -1.0653  2.2756  1.4456
  134SAPE  H13Y14546   4.480   4.759   8.891  0.1466 -0.0380  0.4362
  134SAPE  C31414547   4.430   4.594   8.756  0.5070 -0.2771 -0.4969
  134SAPE  H14X14548   4.453   4.656   8.666 -1.9401 -1.3537 -1.9600
  134SAPE  H14Y14549   4.337   4.536   8.743 -1.0105  1.7774  0.7000
  134SAPE  C31514550   4.538   4.490   8.788  0.4895 -0.0862 -0.0100
  134SAPE  H15X14551   4.508   4.411   8.860  1.3727 -1.9423 -1.5923
  134SAPE  H15Y14552   4.620   4.541   8.844 -1.1598  1.4471  1.1361
  134SAPE  C31614553   4.581   4.426   8.657 -0.2595 -0.1099  1.0695
  134SAPE  H16X14554   4.632   4.508   8.601  1.4326 -2.2494 -0.7399
  134SAPE  H16Y14555   4.492   4.415   8.592 -0.9541  1.2443  1.7660
  134SAPE  C31714556   4.667   4.300   8.683 -0.4842 -0.0328 -0.5394
  134SAPE  H17X14557   4.698   4.244   8.593  1.6986 -0.1090  0.2072
  134SAPE  H17Y14558   4.613   4.223   8.741 -3.0917  1.6037 -0.5977
  134SAPE  C31814559   4.807   4.329   8.748 -0.2790 -0.2214 -0.2852
  134SAPE  H18X14560   4.864   4.412   8.701  1.7367 -0.1646  2.0822
  134SAPE  H18Y14561   4.867   4.237   8.735 -1.3883 -1.1418  0.7522
  134SAPE  H18Z14562   4.789   4.356   8.855  0.7307  1.2791 -0.4635
  135SAPE     N14563   3.773   2.974  10.965  0.6849 -0.7389  0.1435
  135SAPE   HN114564   3.743   3.064  10.923  2.0868 -0.5841 -0.5839
  135SAPE   HN214565   3.804   2.993  11.063  1.8331 -0.0391 -0.3352
  135SAPE   HN314566   3.858   2.957  10.907  0.1209  1.5720 -1.5124
  135SAPE   C1214567   3.662   2.881  10.940 -0.7054 -0.3990  0.1942
  135SAPE  H12A14568   3.572   2.945  10.952  0.2713  1.0400  0.1076
  135SAPE  H12B14569   3.659   2.797  11.012 -1.2677 -0.7759 -0.2515
  135SAPE   C1114570   3.679   2.821  10.800 -0.0145  0.1227  1.1899
  135SAPE  H11A14571   3.637   2.896  10.730  1.1458  0.6955  1.0847
  135SAPE  H11B14572   3.615   2.731  10.791 -0.3558  0.2982  1.8040
  135SAPE     P14573   3.859   2.729  10.633 -0.4293 -0.1769 -0.3328
  135SAPE   O1314574   4.002   2.759  10.604  0.0947 -0.1962  0.7158
  135SAPE   O1414575   3.822   2.587  10.652 -0.5669 -0.0960 -0.0445
  135SAPE   O1214576   3.818   2.804  10.769 -0.7988  0.6937 -0.4634
  135SAPE   O1114577   3.771   2.799  10.525  0.5591  0.5880 -0.6653
  135SAPE    C114578   3.779   2.942  10.512 -0.4555 -0.4908  0.0394
  135SAPE    HA14579   3.686   2.983  10.558 -1.1437  0.4141 -2.0187
  135SAPE    HB14580   3.870   2.980  10.561 -0.3790 -0.4026 -0.1680
  135SAPE    C214581   3.765   2.984  10.359  0.0048  0.3152  0.1015
  135SAPE    HS14582   3.671   2.943  10.316 -0.1227  2.0924 -1.4150
  135SAPE   O2114583   3.885   2.923  10.299  0.0775 -0.0175  0.2925
  135SAPE   C2114584   3.916   2.951  10.177  0.3427  0.3215 -0.2170
  135SAPE   O2214585   3.850   3.008  10.094 -0.1225 -0.2589 -0.0688
  135SAPE   C2214586   4.048   2.892  10.144  0.0130 -0.2652 -0.1647
  135SAPE   H2R14587   4.034   2.785  10.118 -2.6007 -0.1156  0.3801
  135SAPE   H2S14588   4.077   2.944  10.050  0.7741  1.6458  1.0583
  135SAPE    C314589   3.747   3.136  10.345  0.5570  0.0712 -0.2400
  135SAPE    HX14590   3.716   3.146  10.239  2.4826 -1.5989 -1.0403
  135SAPE    HY14591   3.847   3.177  10.370  0.3713  0.2118  0.2689
  135SAPE   O3114592   3.651   3.199  10.436  0.0555 -0.0839 -0.7212
  135SAPE   C3114593   3.641   3.326  10.398  0.3947  0.0805  0.5184
  135SAPE   O3214594   3.712   3.376  10.311  0.4391 -1.0909 -0.2545
  135SAPE   C3214595   3.525   3.392  10.468 -0.1557  0.0645  0.6161
  135SAPE   H2X14596   3.552   3.410  10.574  0.6554  3.3211 -0.0297
  135SAPE   H2Y14597   3.428   3.337  10.471 -1.2494  1.9243  0.9746
  135SAPE   C2314598   4.154   2.914  10.254 -0.9253 -0.0909 -0.3814
  135SAPE   H3R14599   4.126   2.872  10.353 -1.1461 -0.0710 -0.4360
  135SAPE   H3S14600   4.160   3.024  10.267  3.4536 -0.1527 -0.3129
  135SAPE   C2414601   4.302   2.873  10.218 -0.6715 -0.4952 -0.1390
  135SAPE   H4R14602   4.371   2.909  10.297  0.4387  0.8885 -1.6681
  135SAPE   H4S14603   4.339   2.925  10.127  2.2115  0.4332  1.4502
  135SAPE   C2514604   4.314   2.719  10.203  0.7213  0.6779  0.4248
  135SAPE   H5R14605   4.313   2.674  10.303  1.4835  0.8378  0.5133
  135SAPE   C2614606   4.312   2.640  10.089  0.5817  0.2701  0.1503
  135SAPE   H6R14607   4.326   2.530  10.085 -1.8729 -0.0618 -1.9479
  135SAPE   C2714608   4.310   2.684   9.944 -0.3184  0.5248 -0.7642
  135SAPE   H7R14609   4.280   2.791   9.940 -0.9552  0.4000  0.2766
  135SAPE   H7S14610   4.223   2.639   9.892  0.6279  0.4254 -2.3032
  135SAPE   C2814611   4.437   2.644   9.871  0.1781 -0.2376 -0.3195
  135SAPE   H8R14612   4.498   2.567   9.920 -1.8966 -0.8171  1.4770
  135SAPE   C2914613   4.477   2.682   9.745  0.5617  1.2984 -0.3750
  135SAPE   H9R14614   4.572   2.639   9.710  0.3390  1.0760 -0.7191
  135SAPE  C21014615   4.413   2.778   9.644 -0.3110  0.1319 -1.0371
  135SAPE  H10R14616   4.493   2.805   9.572 -0.0752  1.6737 -0.2500
  135SAPE  H10S14617   4.387   2.868   9.703  0.1593 -1.4271  1.7443
  135SAPE  C21114618   4.295   2.722   9.572 -0.3124 -0.0751 -0.3363
  135SAPE  H11R14619   4.205   2.707   9.634  0.6771 -2.9525  0.5459
  135SAPE  C21214620   4.278   2.664   9.454  0.4521 -0.1173  0.8025
  135SAPE  H12R14621   4.177   2.630   9.429 -0.3586  1.6297  1.5297
  135SAPE  C21314622   4.390   2.650   9.358  0.5588 -0.0853  0.1233
  135SAPE  H13R14623   4.478   2.611   9.413  1.3382  1.3536 -0.0598
  135SAPE  H13S14624   4.427   2.746   9.317 -0.4648  1.1839  2.0704
  135SAPE  C21414625   4.369   2.546   9.254 -0.0285  0.3622 -0.5172
  135SAPE  H14R14626   4.370   2.444   9.294  0.2871  0.2827 -0.7276
  135SAPE  C21514627   4.340   2.565   9.123 -0.3305  0.0422 -0.4529
  135SAPE  H15R14628   4.312   2.482   9.056 -1.2722  1.3008 -1.6815
  135SAPE  C21614629   4.337   2.696   9.049 -0.0199  0.0276  0.4493
  135SAPE  H16R14630   4.406   2.685   8.963 -0.8978  0.3317 -0.3036
  135SAPE  H16S14631   4.376   2.776   9.115 -2.2165 -1.6066  4.0329
  135SAPE  C21714632   4.199   2.720   8.982 -0.0536 -0.3391 -0.0574
  135SAPE  H17R14633   4.200   2.826   8.947 -0.7586  0.3264  1.7570
  135SAPE  H17S14634   4.129   2.725   9.068 -1.9047  0.7807 -1.5411
  135SAPE  C21814635   4.159   2.632   8.861 -0.2375  0.6505 -0.4005
  135SAPE  H18R14636   4.150   2.528   8.897 -2.9239  1.3113  1.1464
  135SAPE  H18S14637   4.239   2.645   8.785 -0.4487  1.2109 -0.5331
  135SAPE  C21914638   4.016   2.667   8.805 -0.7327  0.1042 -0.7137
  135SAPE  H19R14639   4.035   2.773   8.778  0.7743  0.3757  1.1930
  135SAPE  H19S14640   3.942   2.662   8.887 -1.1758  1.2525 -1.0287
  135SAPE  C22014641   3.976   2.591   8.684  0.0137 -0.3636 -0.6191
  135SAPE  H20R14642   3.892   2.636   8.629  0.1711 -0.4491 -0.9300
  135SAPE  H20S14643   3.959   2.485   8.712  0.6481  0.0796  1.7341
  135SAPE  H20T14644   4.060   2.590   8.611  0.4009  0.6795 -0.2085
  135SAPE   C3314645   3.504   3.532  10.407  0.0463 -0.1188 -0.6210
  135SAPE   H3X14646   3.600   3.579  10.378 -1.2762  3.1836 -0.0474
  135SAPE   H3Y14647   3.445   3.599  10.473 -2.0883 -2.4030 -0.0685
  135SAPE   C3414648   3.414   3.524  10.284 -0.5068  0.4403  0.2595
  135SAPE   H4X14649   3.312   3.491  10.310 -1.8556  2.4875 -2.0716
  135SAPE   H4Y14650   3.456   3.439  10.226  0.3458  0.1038  1.3179
  135SAPE   C3514651   3.411   3.655  10.199 -0.3466  0.0853  0.1969
  135SAPE   H5X14652   3.508   3.669  10.147 -1.0925 -0.4378 -1.4022
  135SAPE   H5Y14653   3.384   3.745  10.258 -3.0219  1.9290 -3.4105
  135SAPE   C3614654   3.298   3.670  10.099 -0.1664  0.1505  0.2340
  135SAPE   H6X14655   3.212   3.731  10.135  0.8275  1.0719  1.0937
  135SAPE   H6Y14656   3.269   3.565  10.075 -0.7268  0.5789 -1.0427
  135SAPE   C3714657   3.346   3.727   9.964 -0.2676  0.5838 -0.4178
  135SAPE   H7X14658   3.404   3.653   9.907 -0.3512  0.4986 -0.3934
  135SAPE   H7Y14659   3.419   3.808   9.984 -0.6349  0.8771 -0.2489
  135SAPE   C3814660   3.231   3.750   9.872 -0.3886  0.3736  0.6206
  135SAPE   H8X14661   3.186   3.848   9.900 -1.7136 -0.0642  0.0880
  135SAPE   H8Y14662   3.155   3.670   9.883 -0.3502 -0.0325 -1.6395
  135SAPE   C3914663   3.265   3.775   9.724 -0.3444  0.0698 -0.2905
  135SAPE   H9X14664   3.340   3.856   9.721 -0.0776 -0.1946 -0.8336
  135SAPE   H9Y14665   3.171   3.814   9.680 -0.4775  0.9726  0.7482
  135SAPE  C31014666   3.321   3.652   9.646 -0.2325 -0.1134  0.0856
  135SAPE  H10X14667   3.257   3.564   9.667 -0.3380 -0.4281 -1.4532
  135SAPE  H10Y14668   3.424   3.637   9.684 -0.1362  0.4682  0.0616
  135SAPE  C31114669   3.340   3.669   9.498  0.0422  0.2178  0.5516
  135SAPE  H11X14670   3.382   3.578   9.449  0.4308  0.7113 -0.0492
  135SAPE  H11Y14671   3.417   3.743   9.467 -0.2050 -0.1270 -0.9594
  135SAPE  C31214672   3.220   3.695   9.409 -0.3463 -0.1781  0.0080
  135SAPE  H12X14673   3.180   3.797   9.427  0.3508  0.4223 -1.6799
  135SAPE  H12Y14674   3.137   3.629   9.444 -1.3453 -0.1640 -2.1504
  135SAPE  C31314675   3.253   3.666   9.265 -0.3920  0.1454 -0.4148
  135SAPE  H13X14676   3.277   3.558   9.258 -1.6577 -0.5927  3.8699
  135SAPE  H13Y14677   3.338   3.732   9.237  0.2441  0.4877  2.1124
  135SAPE  C31414678   3.132   3.690   9.174 -0.0339 -0.7257 -0.0387
  135SAPE  H14X14679   3.091   3.792   9.193  0.8497  0.1427 -2.4607
  135SAPE  H14Y14680   3.060   3.613   9.207  1.9427 -2.0969  1.3248
  135SAPE  C31514681   3.148   3.685   9.023 -0.0551  0.1600 -0.4325
  135SAPE  H15X14682   3.231   3.750   8.990  0.5531 -0.7509 -0.7210
  135SAPE  H15Y14683   3.051   3.717   8.978 -1.0643 -2.2381 -0.1405
  135SAPE  C31614684   3.188   3.544   8.969  1.0325 -0.2891  0.2750
  135SAPE  H16X14685   3.104   3.480   9.003  1.4548 -0.1940  1.5529
  135SAPE  H16Y14686   3.279   3.503   9.019  1.2097  0.1876  0.3493
  135SAPE  C31714687   3.189   3.540   8.818 -0.4023 -0.2949 -0.1747
  135SAPE  H17X14688   3.084   3.562   8.786  0.6424  2.2188 -2.2539
  135SAPE  H17Y14689   3.224   3.439   8.790  0.7317  0.0459 -0.0262
  135SAPE  C31814690   3.289   3.639   8.750  0.2253  0.3034 -0.4711
  135SAPE  H18X14691   3.258   3.745   8.763 -0.4740  0.3477 -2.1781
  135SAPE  H18Y14692   3.302   3.616   8.642  1.0240 -0.0388 -0.3085
  135SAPE  H18Z14693   3.384   3.624   8.806  0.3702  0.2103 -0.7405
  136SAPE     N14694   6.030   5.073  11.058 -0.3421 -0.0445 -0.0639
  136SAPE   HN114695   6.090   5.027  11.128 -1.7527  0.4188  1.5124
  136SAPE   HN214696   5.972   5.004  11.004 -1.7371  0.0074  1.2913
  136SAPE   HN314697   6.095   5.104  10.983 -0.5573 -0.1709 -0.3078
  136SAPE   C1214698   5.922   5.157  11.117 -0.3372 -0.2503  0.1504
  136SAPE  H12A14699   5.888   5.220  11.033 -0.2166 -0.3606  0.0185
  136SAPE  H12B14700   5.975   5.215  11.196 -0.6574 -1.2053  1.0961
  136SAPE   C1114701   5.801   5.079  11.181  0.3677  0.6367 -0.1966
  136SAPE  H11A14702   5.753   5.142  11.259 -0.2233 -0.7226  0.5776
  136SAPE  H11B14703   5.844   5.000  11.247  1.7396 -0.2012 -2.0177
  136SAPE     P14704   5.721   4.892  11.014 -0.0501  0.3101 -0.4169
  136SAPE   O1314705   5.855   4.876  10.960 -0.0894 -0.4080  0.5838
  136SAPE   O1414706   5.660   4.797  11.114  0.3011  0.1476  0.5961
  136SAPE   O1214707   5.715   5.026  11.084 -0.9631 -0.2587 -0.1369
  136SAPE   O1114708   5.614   4.928  10.903  0.0684  0.5208 -0.2838
  136SAPE    C114709   5.649   4.941  10.766  0.1520  0.5135 -0.2313
  136SAPE    HA14710   5.601   5.031  10.722  1.4588  0.1784 -2.5455
  136SAPE    HB14711   5.756   4.970  10.767  0.4753 -0.0420  4.7644
  136SAPE    C214712   5.628   4.812  10.684  0.0852 -0.0412 -0.2769
  136SAPE    HS14713   5.697   4.732  10.719  0.8801  1.5610  2.0726
  136SAPE   O2114714   5.643   4.843  10.542  0.7155  0.6917 -0.6998
  136SAPE   C2114715   5.780   4.840  10.499 -0.9560  0.2425  0.6323
  136SAPE   O2214716   5.866   4.792  10.570 -0.2305  0.2018  0.1437
  136SAPE   C2214717   5.817   4.925  10.375  0.1177 -0.3834  0.1141
  136SAPE   H2R14718   5.750   5.014  10.371  1.2562  0.7323  3.0773
  136SAPE   H2S14719   5.910   4.983  10.394 -0.0604  0.8580 -2.4821
  136SAPE    C314720   5.484   4.755  10.712 -0.3922  0.3064 -0.2802
  136SAPE    HX14721   5.407   4.828  10.680 -0.8129  0.6428  1.3844
  136SAPE    HY14722   5.473   4.744  10.822 -0.8338 -0.5602 -0.4037
  136SAPE   O3114723   5.462   4.622  10.654  0.2521  0.1108  0.3330
  136SAPE   C3114724   5.336   4.577  10.676 -0.0766  1.0745  0.2517
  136SAPE   O3214725   5.257   4.635  10.744  0.1175 -0.2712 -0.3339
  136SAPE   C3214726   5.331   4.437  10.608  0.5704 -0.0757  0.6805
  136SAPE   H2X14727   5.422   4.380  10.635  2.3336  1.6458 -1.2603
  136SAPE   H2Y14728   5.339   4.459  10.500  3.8291  0.5984  0.9604
  136SAPE   C2314729   5.831   4.844  10.241  0.5416  0.2418 -0.1991
  136SAPE   H3R14730   5.807   4.908  10.155  0.4783  0.2401 -0.1829
  136SAPE   H3S14731   5.761   4.758  10.241  0.3354  0.2920  2.7850
  136SAPE   C2414732   5.979   4.802  10.212  0.1056  0.2392 -0.1430
  136SAPE   H4R14733   6.011   4.752  10.305 -0.7388  0.6185  0.3627
  136SAPE   H4S14734   6.043   4.893  10.218  0.5271 -0.0892  0.4456
  136SAPE   C2514735   6.024   4.716  10.091  0.4064  0.4314 -0.2042
  136SAPE   H5R14736   6.113   4.654  10.110  0.1160 -0.7634 -2.4559
  136SAPE   C2614737   5.957   4.676   9.971 -0.0679 -0.6399 -0.3080
  136SAPE   H6R14738   6.008   4.606   9.903  1.7671  0.7051 -0.3845
  136SAPE   C2714739   5.819   4.724   9.926  0.3188  0.4698 -0.6085
  136SAPE   H7R14740   5.829   4.768   9.824  0.7249  1.3450 -0.2036
  136SAPE   H7S14741   5.786   4.814   9.981 -0.1347 -0.1202  0.1016
  136SAPE   C2814742   5.703   4.622   9.928  0.3171 -0.4556 -0.0671
  136SAPE   H8R14743   5.697   4.551  10.012 -2.7503 -0.1655  0.0722
  136SAPE   C2914744   5.604   4.624   9.836  0.9196  0.0208  0.0906
  136SAPE   H9R14745   5.522   4.555   9.862  1.5698 -0.9205 -0.3180
  136SAPE  C21014746   5.590   4.732   9.728 -0.3981  0.0263  0.1899
  136SAPE  H10R14747   5.670   4.735   9.651  0.2400 -1.3043  0.7688
  136SAPE  H10S14748   5.602   4.831   9.777  3.6594  0.0189 -0.4330
  136SAPE  C21114749   5.455   4.735   9.660  0.0227  0.0658  0.0602
  136SAPE  H11R14750   5.384   4.804   9.707  1.4419  2.0921 -0.6441
  136SAPE  C21214751   5.407   4.644   9.575  0.2012 -0.5831 -0.3155
  136SAPE  H12R14752   5.309   4.655   9.528  0.7180  0.8271 -1.1344
  136SAPE  C21314753   5.493   4.531   9.507  0.6488 -0.2574 -0.6336
  136SAPE  H13R14754   5.538   4.458   9.578  3.1902  0.8429 -1.0165
  136SAPE  H13S14755   5.586   4.575   9.466 -0.2438  3.0363  0.5816
  136SAPE  C21414756   5.416   4.451   9.404 -0.1932  0.1219  0.8605
  136SAPE  H14R14757   5.366   4.362   9.443  1.4162  0.3862  3.7994
  136SAPE  C21514758   5.396   4.488   9.274 -0.2630 -0.3004  0.3749
  136SAPE  H15R14759   5.331   4.423   9.215  1.8128 -1.4096 -0.8085
  136SAPE  C21614760   5.449   4.608   9.206  0.3066  0.1584 -0.1896
  136SAPE  H16R14761   5.517   4.590   9.120  0.7742 -1.6512  0.5135
  136SAPE  H16S14762   5.500   4.672   9.281 -0.8107  1.1411 -0.2433
  136SAPE  C21714763   5.323   4.684   9.159  0.1401 -0.3852 -0.5612
  136SAPE  H17R14764   5.245   4.618   9.116 -0.3758 -0.4453  0.4551
  136SAPE  H17S14765   5.348   4.756   9.077 -2.0276  0.3871 -0.6142
  136SAPE  C21814766   5.255   4.768   9.267  0.4359  0.2873  0.4547
  136SAPE  H18R14767   5.337   4.824   9.316  0.2200 -0.1556  1.3485
  136SAPE  H18S14768   5.205   4.698   9.338 -0.6561  0.0008 -0.5618
  136SAPE  C21914769   5.146   4.871   9.213  0.0725 -0.2372  0.3635
  136SAPE  H19R14770   5.066   4.826   9.151  3.6385 -1.6031 -3.7369
  136SAPE  H19S14771   5.193   4.944   9.143 -2.9834  1.1776 -0.3888
  136SAPE  C22014772   5.080   4.957   9.326  0.4048  0.2613 -0.7947
  136SAPE  H20R14773   5.158   5.016   9.380 -1.4223  0.0956  2.2305
  136SAPE  H20S14774   5.042   4.885   9.401  0.9370  0.5094 -0.2717
  136SAPE  H20T14775   4.997   5.026   9.298 -0.8661  0.4499  2.8866
  136SAPE   C3314776   5.196   4.352  10.639 -0.3812 -1.4298  0.4359
  136SAPE   H3X14777   5.169   4.381  10.743  0.1887  0.1338  0.1737
  136SAPE   H3Y14778   5.226   4.245  10.641  0.0733 -1.3007  0.5815
  136SAPE   C3414779   5.080   4.392  10.545 -0.1864  0.2185  0.1547
  136SAPE   H4X14780   5.098   4.493  10.503 -1.6346  0.4841  0.1320
  136SAPE   H4Y14781   4.978   4.398  10.588 -0.7961 -0.9689 -1.0453
  136SAPE   C3514782   5.058   4.291  10.429 -0.0220 -0.4769 -0.8490
  136SAPE   H5X14783   5.005   4.204  10.474 -0.6901 -0.0184 -0.7390
  136SAPE   H5Y14784   5.161   4.260  10.399 -0.5120 -2.2588 -0.7970
  136SAPE   C3614785   4.983   4.354  10.312  0.2581  0.0605  0.6775
  136SAPE   H6X14786   5.048   4.435  10.275  1.0042 -0.8979 -0.1672
  136SAPE   H6Y14787   4.887   4.394  10.351  0.1558 -0.4192  0.9277
  136SAPE   C3714788   4.956   4.255  10.203  0.6121 -0.3315  0.8873
  136SAPE   H7X14789   4.898   4.173  10.250 -1.7802 -0.3412 -1.7789
  136SAPE   H7Y14790   5.044   4.214  10.149 -2.5076 -4.1253 -1.9760
  136SAPE   C3814791   4.871   4.303  10.084  0.2663 -0.0568  0.9206
  136SAPE   H8X14792   4.913   4.400  10.050 -2.6859  0.8667 -0.4089
  136SAPE   H8Y14793   4.766   4.314  10.118 -0.4219 -0.8621 -0.7870
  136SAPE   C3914794   4.863   4.201   9.975 -0.0774  0.2471 -0.0415
  136SAPE   H9X14795   4.820   4.108  10.018  0.8115  0.4148  1.2599
  136SAPE   H9Y14796   4.964   4.164   9.945 -1.0529 -2.3152 -0.4428
  136SAPE  C31014797   4.762   4.239   9.857 -0.2279 -0.2967 -0.8940
  136SAPE  H10X14798   4.827   4.269   9.772 -1.0020  0.5750 -1.1828
  136SAPE  H10Y14799   4.701   4.327   9.887  1.0157  0.3836 -0.2596
  136SAPE  C31114800   4.679   4.125   9.818  1.2435  0.4202  0.3075
  136SAPE  H11X14801   4.624   4.089   9.908  0.3517  1.5796  0.2528
  136SAPE  H11Y14802   4.747   4.044   9.783  1.6058  0.0950  1.6978
  136SAPE  C31214803   4.587   4.159   9.697 -0.5677  0.0047  0.8743
  136SAPE  H12X14804   4.549   4.264   9.704 -0.2532  0.2351 -0.5943
  136SAPE  H12Y14805   4.497   4.094   9.700 -0.7930  0.2922  0.4467
  136SAPE  C31314806   4.657   4.138   9.559 -0.3687  0.0981  0.6866
  136SAPE  H13X14807   4.729   4.054   9.571  0.7559  0.6443 -1.5456
  136SAPE  H13Y14808   4.720   4.227   9.539 -0.2775 -0.2450 -0.7192
  136SAPE  C31414809   4.548   4.130   9.452  0.6924  0.5768  0.0782
  136SAPE  H14X14810   4.494   4.226   9.435  0.0634  0.2309  0.0994
  136SAPE  H14Y14811   4.472   4.054   9.478  1.0001  0.0181 -0.6321
  136SAPE  C31514812   4.600   4.103   9.314 -0.2873  0.8260  0.4590
  136SAPE  H15X14813   4.641   4.000   9.313 -2.6762 -0.2000 -0.1596
  136SAPE  H15Y14814   4.681   4.174   9.286  1.3177 -0.6525  1.2124
  136SAPE  C31614815   4.501   4.099   9.195  0.0956 -0.3087  0.5880
  136SAPE  H16X14816   4.487   4.208   9.180  2.5042  0.0560  0.4941
  136SAPE  H16Y14817   4.412   4.038   9.222 -2.1916  2.0028 -1.2548
  136SAPE  C31714818   4.559   4.046   9.065 -0.2808 -0.1821  0.7039
  136SAPE  H17X14819   4.598   3.943   9.082 -0.1634 -0.5172 -1.3155
  136SAPE  H17Y14820   4.649   4.109   9.043 -0.7565  0.6777  1.1739
  136SAPE  C31814821   4.460   4.042   8.944 -0.0662 -0.0733 -0.0785
  136SAPE  H18X14822   4.376   3.977   8.977  2.0471 -1.3464  3.3064
  136SAPE  H18Y14823   4.526   3.997   8.867  1.3547  2.1955 -0.2769
  136SAPE  H18Z14824   4.419   4.138   8.907 -2.2134 -0.7855  0.2791
  137SAPE     N14825   4.932   1.286  10.885  0.9457 -0.0837 -0.2320
  137SAPE   HN114826   4.929   1.182  10.896  0.8726 -0.2079 -1.3027
  137SAPE   HN214827   5.005   1.309  10.814  0.8338 -3.2640 -1.5433
  137SAPE   HN314828   4.976   1.320  10.972  1.1662 -0.6454 -0.1191
  137SAPE   C1214829   4.789   1.330  10.848  0.3709 -0.2702 -0.6666
  137SAPE  H12A14830   4.774   1.331  10.738 -2.0110  0.7128 -0.3930
  137SAPE  H12B14831   4.779   1.429  10.896 -0.0319 -1.2435  1.3740
  137SAPE   C1114832   4.685   1.225  10.904  0.3877 -0.1701 -0.4579
  137SAPE  H11A14833   4.581   1.264  10.907  0.0234 -0.8641  4.1765
  137SAPE  H11B14834   4.713   1.221  11.012  1.9395 -2.6567 -0.8900
  137SAPE     P14835   4.654   0.971  10.907  0.1581 -0.3169 -0.2701
  137SAPE   O1314836   4.779   0.890  10.925  0.1338 -0.0373  0.0016
  137SAPE   O1414837   4.579   1.006  11.029  0.9654 -0.4014 -0.1650
  137SAPE   O1214838   4.698   1.104  10.831 -0.1077  0.1268 -0.4175
  137SAPE   O1114839   4.552   0.902  10.811  0.2147 -0.0706  0.5140
  137SAPE    C114840   4.410   0.921  10.812 -0.5424  0.1316  0.1079
  137SAPE    HA14841   4.368   0.822  10.842 -3.1231  0.4737 -2.0278
  137SAPE    HB14842   4.373   0.993  10.888 -0.6402 -0.8438  1.0213
  137SAPE    C214843   4.359   0.974  10.675  0.4214  0.0548  0.3934
  137SAPE    HS14844   4.248   0.973  10.678  0.3076  1.9456 -1.0238
  137SAPE   O2114845   4.422   0.907  10.563  0.1293  0.2538  0.0273
  137SAPE   C2114846   4.345   0.894  10.456 -0.0102  0.0089  0.6983
  137SAPE   O2214847   4.230   0.923  10.439  0.5366  0.2905  0.7429
  137SAPE   C2214848   4.436   0.831  10.342  0.0912 -0.1804  0.2003
  137SAPE   H2R14849   4.539   0.808  10.377  0.6173  0.7692 -0.6666
  137SAPE   H2S14850   4.398   0.735  10.301 -0.7466  0.7416 -1.2907
  137SAPE    C314851   4.398   1.125  10.676 -0.3690 -0.7301 -0.5125
  137SAPE    HX14852   4.509   1.118  10.682 -0.3488  0.2796  0.3803
  137SAPE    HY14853   4.353   1.175  10.764  0.2433  1.5940 -1.4598
  137SAPE   O3114854   4.366   1.188  10.552 -0.2517  0.2502 -0.1957
  137SAPE   C3114855   4.237   1.233  10.540 -0.0949 -0.5416  1.1379
  137SAPE   O3214856   4.149   1.223  10.619 -0.7608 -0.3790 -0.2410
  137SAPE   C3214857   4.237   1.315  10.416 -0.5087  0.2814 -0.2732
  137SAPE   H2X14858   4.132   1.351  10.406 -0.2655  0.8169 -1.0121
  137SAPE   H2Y14859   4.254   1.242  10.334 -0.2423 -3.2923  2.7197
  137SAPE   C2314860   4.455   0.939  10.226  0.0840  0.0643  0.6110
  137SAPE   H3R14861   4.534   0.891  10.163  0.2749  1.7141 -0.4903
  137SAPE   H3S14862   4.499   1.029  10.273  1.5068 -0.8321  1.0759
  137SAPE   C2414863   4.325   0.966  10.155 -0.3801 -0.3870 -0.3413
  137SAPE   H4R14864   4.346   1.033  10.069 -0.0123  0.6661  0.5432
  137SAPE   H4S14865   4.262   1.032  10.218  0.9472  0.7318 -0.1416
  137SAPE   C2514866   4.238   0.844  10.121 -0.4616 -0.0335 -0.4536
  137SAPE   H5R14867   4.175   0.807  10.203  2.3911 -3.9560  0.2852
  137SAPE   C2614868   4.255   0.771  10.013  0.0536 -0.9442 -0.2863
  137SAPE   H6R14869   4.206   0.672  10.013 -1.1015 -0.3915 -0.0337
  137SAPE   C2714870   4.362   0.792   9.904 -0.0718  0.1392  0.4332
  137SAPE   H7R14871   4.398   0.897   9.909  2.6941 -0.7214  0.6587
  137SAPE   H7S14872   4.316   0.783   9.803  1.6962 -0.5017 -0.3686
  137SAPE   C2814873   4.482   0.705   9.920  0.6708  0.6309  0.2124
  137SAPE   H8R14874   4.517   0.675  10.020  1.2160 -5.4718 -1.3857
  137SAPE   C2914875   4.555   0.655   9.817  0.2759  0.4332  0.3513
  137SAPE   H9R14876   4.634   0.579   9.829 -1.0901 -1.2452 -0.7648
  137SAPE  C21014877   4.521   0.671   9.672 -0.7040 -0.2949 -0.1862
  137SAPE  H10R14878   4.529   0.773   9.629 -1.1010 -0.5994 -1.0056
  137SAPE  H10S14879   4.419   0.632   9.650 -1.3043 -0.0380  1.8827
  137SAPE  C21114880   4.608   0.582   9.580  0.3945 -0.2168  1.0716
  137SAPE  H11R14881   4.687   0.527   9.632 -0.2145 -1.7339  0.4233
  137SAPE  C21214882   4.596   0.558   9.448  0.1292 -1.1120 -0.6211
  137SAPE  H12R14883   4.673   0.500   9.394 -0.8339  0.1527 -3.5542
  137SAPE  C21314884   4.497   0.627   9.354  0.6210  0.5928  0.0995
  137SAPE  H13R14885   4.400   0.649   9.402  0.0711 -2.1532  0.3835
  137SAPE  H13S14886   4.483   0.545   9.281  2.1570 -0.8086  1.2900
  137SAPE  C21414887   4.548   0.746   9.284 -0.3753 -0.0728  1.2600
  137SAPE  H14R14888   4.595   0.825   9.344  1.8568 -1.3487  1.3037
  137SAPE  C21514889   4.521   0.768   9.150 -0.0954 -0.4248 -0.0909
  137SAPE  H15R14890   4.568   0.855   9.101 -0.6439 -1.0765 -1.8402
  137SAPE  C21614891   4.439   0.691   9.047  0.7212  0.5608 -0.5217
  137SAPE  H16R14892   4.358   0.750   8.999 -0.1011  0.5182  0.7467
  137SAPE  H16S14893   4.377   0.622   9.110  1.2482  1.0655  0.5739
  137SAPE  C21714894   4.538   0.610   8.969 -0.1895 -0.0054  0.5034
  137SAPE  H17R14895   4.596   0.544   9.037 -0.8141  1.6130  2.7358
  137SAPE  H17S14896   4.609   0.682   8.923 -1.4928  0.9257 -0.1291
  137SAPE  C21814897   4.488   0.533   8.846  0.0837  0.0955  0.2613
  137SAPE  H18R14898   4.580   0.490   8.801 -0.7647 -0.4105 -1.0913
  137SAPE  H18S14899   4.446   0.601   8.769  0.7027  0.8584  0.5902
  137SAPE  C21914900   4.387   0.415   8.883 -0.5637  0.0743 -0.7048
  137SAPE  H19R14901   4.294   0.472   8.904 -0.6658 -0.1205 -0.6300
  137SAPE  H19S14902   4.419   0.377   8.983 -1.8793  0.4181 -0.1381
  137SAPE  C22014903   4.378   0.287   8.795 -0.4152 -0.3766  0.7814
  137SAPE  H20R14904   4.472   0.229   8.797  1.2737  2.1591 -0.1658
  137SAPE  H20S14905   4.383   0.321   8.689  2.6754  1.0126  1.2688
  137SAPE  H20T14906   4.292   0.222   8.821  1.2586 -2.4675  1.3256
  137SAPE   C3314907   4.335   1.435  10.415  0.1826 -0.1318  0.3706
  137SAPE   H3X14908   4.432   1.381  10.413 -1.0831 -2.5510  0.1339
  137SAPE   H3Y14909   4.304   1.489  10.507 -2.3137  0.5766 -0.7894
  137SAPE   C3414910   4.319   1.529  10.287 -0.2080  0.9528 -0.3509
  137SAPE   H4X14911   4.322   1.637  10.311 -1.4155  1.4494 -2.2530
  137SAPE   H4Y14912   4.211   1.518  10.263 -0.3393 -1.2094  0.8730
  137SAPE   C3514913   4.431   1.493  10.184  0.2667 -0.0091  0.2276
  137SAPE   H5X14914   4.435   1.385  10.161 -0.9393 -0.2200  0.9232
  137SAPE   H5Y14915   4.527   1.518  10.234 -2.2012  1.6021  4.7934
  137SAPE   C3614916   4.415   1.571  10.052 -0.5268 -0.6145  0.3303
  137SAPE   H6X14917   4.503   1.554   9.986  0.2354 -2.0426  1.6779
  137SAPE   H6Y14918   4.415   1.680  10.072  1.6057 -0.2675 -1.2312
  137SAPE   C3714919   4.283   1.543   9.978  0.8933 -0.1608  0.3959
  137SAPE   H7X14920   4.224   1.635   9.965 -0.9543 -1.6899 -3.4464
  137SAPE   H7Y14921   4.222   1.472  10.039  0.6973  0.8942  1.4635
  137SAPE   C3814922   4.310   1.487   9.836  0.2138 -0.4717  0.2186
  137SAPE   H8X14923   4.211   1.451   9.802  0.8827 -0.0910 -2.3881
  137SAPE   H8Y14924   4.386   1.406   9.832  0.7462 -0.0727  1.6170
  137SAPE   C3914925   4.355   1.589   9.725  0.0566 -0.0003  0.6653
  137SAPE   H9X14926   4.389   1.525   9.641 -1.5686  1.5474 -1.2614
  137SAPE   H9Y14927   4.436   1.659   9.757  1.0710 -1.5621  1.6485
  137SAPE  C31014928   4.237   1.671   9.684  0.3696  0.4376 -0.1892
  137SAPE  H10X14929   4.196   1.733   9.767  2.5012  1.5734  0.0801
  137SAPE  H10Y14930   4.163   1.592   9.656  3.4442 -1.5594 -3.5299
  137SAPE  C31114931   4.255   1.757   9.560 -0.0256 -0.4384  0.0088
  137SAPE  H11X14932   4.345   1.818   9.580 -0.4430  0.1531  0.1074
  137SAPE  H11Y14933   4.164   1.818   9.539  0.3403  0.2438  0.3781
  137SAPE  C31214934   4.271   1.677   9.430 -0.2056  0.0132 -0.2740
  137SAPE  H12X14935   4.186   1.606   9.421  1.4018 -2.0651  0.1433
  137SAPE  H12Y14936   4.360   1.611   9.433 -0.8168 -0.8338 -0.3174
  137SAPE  C31314937   4.267   1.777   9.309 -0.9180 -0.1046  0.5851
  137SAPE  H13X14938   4.343   1.858   9.317 -1.0400  0.1323 -0.4804
  137SAPE  H13Y14939   4.163   1.817   9.305 -0.5939  0.6903 -0.6595
  137SAPE  C31414940   4.294   1.685   9.186  0.1471 -0.2466  0.8293
  137SAPE  H14X14941   4.243   1.586   9.192  2.3913 -1.6058 -0.8863
  137SAPE  H14Y14942   4.400   1.663   9.161 -0.3288  0.4478 -2.2589
  137SAPE  C31514943   4.246   1.748   9.053  0.1074  0.6973 -0.3429
  137SAPE  H15X14944   4.305   1.837   9.022  1.1027 -0.3599 -1.6457
  137SAPE  H15Y14945   4.143   1.785   9.071 -0.6191 -1.9253  1.4648
  137SAPE  C31614946   4.268   1.652   8.938 -0.0821 -0.0846 -0.0474
  137SAPE  H16X14947   4.219   1.554   8.955  1.9379 -1.7458 -2.9645
  137SAPE  H16Y14948   4.372   1.617   8.922 -0.6730 -1.8753 -0.1083
  137SAPE  C31714949   4.222   1.718   8.805 -0.5748  0.4041 -0.5286
  137SAPE  H17X14950   4.290   1.806   8.806  0.8023 -0.6227 -0.0703
  137SAPE  H17Y14951   4.117   1.754   8.797 -0.4593  0.5399 -1.6661
  137SAPE  C31814952   4.258   1.629   8.685  0.2533  0.2921  0.0264
  137SAPE  H18X14953   4.202   1.533   8.689 -0.4253  0.6700  3.9963
  137SAPE  H18Y14954   4.361   1.589   8.691  0.0043 -0.1503  2.7288
  137SAPE  H18Z14955   4.246   1.692   8.594  0.6214  2.3765  1.3551
  138SAPE     N14956   2.103   1.170  10.785  0.1606 -0.1603 -0.0538
  138SAPE   HN114957   2.192   1.117  10.787 -0.2309 -1.1872 -3.1068
  138SAPE   HN214958   2.116   1.273  10.792 -0.2540 -0.0259 -1.0478
  138SAPE   HN314959   2.034   1.142  10.857  0.1149  1.2714  0.4917
  138SAPE   C1214960   2.030   1.130  10.662 -0.4058  0.1055  0.0020
  138SAPE  H12A14961   1.973   1.037  10.683 -0.5918 -0.3249 -2.2213
  138SAPE  H12B14962   2.100   1.136  10.576  1.8474  0.7456  1.7782
  138SAPE   C1114963   1.922   1.233  10.620  0.3756  0.0867 -0.2402
  138SAPE  H11A14964   1.878   1.224  10.519 -0.3383 -3.6908  0.2432
  138SAPE  H11B14965   1.980   1.328  10.608 -0.8357  0.6531 -1.8843
  138SAPE     P14966   1.691   1.158  10.702  0.3649  0.0936  0.4338
  138SAPE   O1314967   1.723   1.017  10.719  0.2068 -0.1360 -0.4132
  138SAPE   O1414968   1.581   1.216  10.781 -0.5487  0.2683 -0.3543
  138SAPE   O1214969   1.821   1.253  10.721 -0.3208  0.3793  0.0391
  138SAPE   O1114970   1.662   1.184  10.547  0.4021 -0.3585 -0.0118
  138SAPE    C114971   1.569   1.299  10.522 -0.1976  0.1831  0.5781
  138SAPE    HA14972   1.467   1.263  10.548 -0.4436  0.8129  0.4820
  138SAPE    HB14973   1.596   1.390  10.579  1.4995  0.3744 -0.4339
  138SAPE    C214974   1.580   1.325  10.370 -0.8362  0.3414  0.8046
  138SAPE    HS14975   1.686   1.357  10.360 -0.6429 -0.7487 -1.2313
  138SAPE   O2114976   1.493   1.424  10.317  0.0773  1.1052 -0.2164
  138SAPE   C2114977   1.510   1.544  10.369  1.0396 -0.3504  0.3132
  138SAPE   O2214978   1.605   1.576  10.438 -0.8337 -0.4471 -0.4056
  138SAPE   C2214979   1.379   1.625  10.354  0.0340 -0.3545  0.5438
  138SAPE   H2R14980   1.300   1.557  10.318 -0.6753  0.0877  1.2134
  138SAPE   H2S14981   1.357   1.639  10.462  0.0656 -1.8888  0.7679
  138SAPE    C314982   1.560   1.190  10.286 -0.0201 -0.0541 -0.0747
  138SAPE    HX14983   1.463   1.153  10.326 -0.8522  0.4946 -1.4903
  138SAPE    HY14984   1.639   1.115  10.305  1.3858  1.3658 -0.1044
  138SAPE   O3114985   1.542   1.211  10.148 -0.0229  0.2416  0.2688
  138SAPE   C3114986   1.653   1.256  10.093  0.1009 -0.3234 -0.3499
  138SAPE   O3214987   1.763   1.269  10.144 -0.2018  0.0953 -0.0059
  138SAPE   C3214988   1.638   1.271   9.943  0.2987  0.3559  0.7565
  138SAPE   H2X14989   1.569   1.355   9.921  2.2293  1.6661 -0.5063
  138SAPE   H2Y14990   1.586   1.177   9.912  1.2512 -1.2898  3.7274
  138SAPE   C2314991   1.394   1.762  10.277  0.6265  0.4235 -0.7908
  138SAPE   H3R14992   1.490   1.806  10.310  0.3812 -1.1601  2.4339
  138SAPE   H3S14993   1.316   1.831  10.314  1.5205  0.1856  1.7475
  138SAPE   C2414994   1.396   1.753  10.124  0.0772 -0.4348  0.0882
  138SAPE   H4R14995   1.481   1.698  10.078 -0.7670 -0.4033 -1.5530
  138SAPE   H4S14996   1.422   1.858  10.098 -0.0714 -0.2904  0.5037
  138SAPE   C2514997   1.266   1.707  10.064  0.6266  0.3445  0.8940
  138SAPE   H5R14998   1.193   1.671  10.138 -1.2013 -0.8243 -1.3586
  138SAPE   C2614999   1.222   1.721   9.936  0.2343  0.7873  0.3746
  138SAPE   H6R15000   1.120   1.686   9.915 -0.0130  1.2296  0.8175
  138SAPE   C2715001   1.295   1.791   9.829 -0.0211 -0.2729  0.1474
  138SAPE   H7R15002   1.348   1.711   9.772 -0.2902 -1.3633  1.3900
  138SAPE   H7S15003   1.362   1.871   9.868  0.3257 -0.6487  0.3307
  138SAPE   C2815004   1.199   1.866   9.736 -0.1593 -0.7690 -0.1734
  138SAPE   H8R15005   1.103   1.897   9.779  0.4516  0.7308  0.1615
  138SAPE   C2915006   1.229   1.909   9.612  0.5983  0.0960 -0.3996
  138SAPE   H9R15007   1.156   1.966   9.553  0.1160 -0.0915  0.0074
  138SAPE  C21015008   1.360   1.870   9.546  0.1772 -0.6707  0.3240
  138SAPE  H10R15009   1.324   1.806   9.463  0.3691 -1.9038  1.1590
  138SAPE  H10S15010   1.435   1.812   9.604  1.3006  2.0221  1.7560
  138SAPE  C21115011   1.438   1.986   9.483 -0.3249 -0.0902 -0.7086
  138SAPE  H11R15012   1.517   2.028   9.547 -0.2393 -0.8568 -0.3096
  138SAPE  C21215013   1.420   2.039   9.357  0.4414 -0.1347  0.1781
  138SAPE  H12R15014   1.492   2.117   9.328  2.3170 -0.9504  2.2894
  138SAPE  C21315015   1.314   1.998   9.254  0.1553 -0.0914  0.2419
  138SAPE  H13R15016   1.270   2.094   9.220  0.8539 -0.2234 -1.0808
  138SAPE  H13S15017   1.232   1.940   9.302  0.6883 -1.1500 -0.0925
  138SAPE  C21415018   1.370   1.909   9.140 -0.1267  0.2097  0.3099
  138SAPE  H14R15019   1.398   1.806   9.167  2.1320  0.4237 -0.9434
  138SAPE  C21515020   1.409   1.940   9.019 -0.4473  0.0189  0.9898
  138SAPE  H15R15021   1.433   1.861   8.947  0.9773 -0.1809  1.6512
  138SAPE  C21615022   1.422   2.086   8.975  0.0489  0.6221 -0.1941
  138SAPE  H16R15023   1.514   2.095   8.915 -0.5253 -1.8819 -1.5707
  138SAPE  H16S15024   1.440   2.154   9.061 -1.2098 -0.6108  1.1013
  138SAPE  C21715025   1.296   2.140   8.904 -0.4119 -0.2640 -0.3258
  138SAPE  H17R15026   1.313   2.250   8.897  2.9659 -0.4758  2.2416
  138SAPE  H17S15027   1.207   2.122   8.969 -0.4803 -0.2792 -0.4232
  138SAPE  C21815028   1.268   2.095   8.761  0.3759 -0.1371 -0.0373
  138SAPE  H18R15029   1.226   1.993   8.769 -0.3828  0.0447 -1.3838
  138SAPE  H18S15030   1.364   2.085   8.706 -0.2654  0.3622 -1.2726
  138SAPE  C21915031   1.167   2.183   8.685  0.0888 -0.0659 -0.0035
  138SAPE  H19R15032   1.217   2.270   8.638 -0.2427 -0.3168 -0.8577
  138SAPE  H19S15033   1.091   2.222   8.755  0.0399 -1.7897  0.9515
  138SAPE  C22015034   1.099   2.098   8.575  0.6712 -0.0792  0.3192
  138SAPE  H20R15035   1.070   1.997   8.612 -2.0774 -0.3814 -2.2745
  138SAPE  H20S15036   1.175   2.076   8.497 -0.5188 -0.5375 -0.7524
  138SAPE  H20T15037   1.010   2.147   8.530  0.8282  0.8105  0.9430
  138SAPE   C3315038   1.764   1.305   9.866  0.0412  0.4692  0.0042
  138SAPE   H3X15039   1.829   1.216   9.879 -2.2546 -1.0608  1.8984
  138SAPE   H3Y15040   1.822   1.391   9.905  2.1292 -0.7851 -0.1920
  138SAPE   C3415041   1.740   1.313   9.718 -0.5389  0.2111 -0.6814
  138SAPE   H4X15042   1.678   1.405   9.708  0.2977  0.9861  0.9436
  138SAPE   H4Y15043   1.684   1.223   9.684  1.0211 -0.7563 -0.8036
  138SAPE   C3515044   1.874   1.322   9.646 -0.7369  0.6840 -0.4583
  138SAPE   H5X15045   1.943   1.395   9.694  2.0172 -1.6494 -0.6074
  138SAPE   H5Y15046   1.854   1.367   9.547 -0.2482  0.9163 -0.4601
  138SAPE   C3615047   1.939   1.187   9.614  0.1039  0.1088 -0.5079
  138SAPE   H6X15048   1.863   1.111   9.588 -0.8290 -0.3242  2.9305
  138SAPE   H6Y15049   2.003   1.150   9.697  1.5760  1.3767 -1.0250
  138SAPE   C3715050   2.046   1.198   9.500 -0.1622  0.0008  0.3337
  138SAPE   H7X15051   2.138   1.138   9.508  0.6854  0.7024 -2.7187
  138SAPE   H7Y15052   2.083   1.303   9.503  0.6057 -0.2709  0.3965
  138SAPE   C3815053   1.973   1.174   9.366  0.5383  0.3456 -0.2794
  138SAPE   H8X15054   1.879   1.231   9.379  2.0477  2.9490 -0.1726
  138SAPE   H8Y15055   1.956   1.065   9.352 -3.4301  0.8245 -0.4646
  138SAPE   C3915056   2.052   1.234   9.252  0.0353  0.1217  0.3981
  138SAPE   H9X15057   2.154   1.190   9.253  0.3808  0.7108 -2.0245
  138SAPE   H9Y15058   2.058   1.344   9.262  0.0746  0.1385  0.1898
  138SAPE  C31015059   1.997   1.217   9.110  0.6321  0.8975  0.5685
  138SAPE  H10X15060   2.070   1.269   9.044  1.1628  0.3762  0.7380
  138SAPE  H10Y15061   1.903   1.275   9.092  0.3665  0.1476 -0.6219
  138SAPE  C31115062   1.985   1.068   9.079 -0.2669 -0.3579  0.3002
  138SAPE  H11X15063   1.936   1.003   9.155  1.8614 -0.7692  1.4061
  138SAPE  H11Y15064   2.088   1.026   9.074  0.2136  0.7881  0.2737
  138SAPE  C31215065   1.912   1.042   8.934  0.2396 -0.1462 -0.3724
  138SAPE  H12X15066   1.898   0.932   8.928  1.1758 -0.3576  0.9323
  138SAPE  H12Y15067   1.991   1.075   8.864 -1.2170  0.4338 -1.7958
  138SAPE  C31315068   1.783   1.113   8.913 -0.3280  0.3300 -0.3843
  138SAPE  H13X15069   1.795   1.216   8.953 -2.6732  0.3112  0.5782
  138SAPE  H13Y15070   1.699   1.086   8.981  0.6312  0.9187  1.1006
  138SAPE  C31415071   1.738   1.124   8.768 -0.5455  0.3734 -0.2651
  138SAPE  H14X15072   1.822   1.126   8.694 -1.6401 -1.0635 -1.6077
  138SAPE  H14Y15073   1.684   1.221   8.774  1.3142  1.5304 -1.0185
  138SAPE  C31515074   1.646   1.007   8.727 -1.2167 -0.4563  0.1050
  138SAPE  H15X15075   1.700   0.912   8.708 -0.4876  0.4082 -2.4662
  138SAPE  H15Y15076   1.610   1.033   8.625 -0.4963  0.4450  0.0744
  138SAPE  C31615077   1.531   0.987   8.828  0.2999  0.1841  0.1469
  138SAPE  H16X15078   1.493   1.084   8.868  0.2253  0.7403 -1.2268
  138SAPE  H16Y15079   1.573   0.921   8.908  0.5964 -0.2010 -0.3243
  138SAPE  C31715080   1.412   0.905   8.769  0.3417 -0.5120  0.2326
  138SAPE  H17X15081   1.347   0.853   8.842 -0.6804  0.4521  0.0403
  138SAPE  H17Y15082   1.467   0.833   8.705 -0.4023 -1.1143  0.2557
  138SAPE  C31815083   1.320   0.995   8.679 -0.7606  0.2258  0.0589
  138SAPE  H18X15084   1.227   0.953   8.634 -1.9258  0.2548  2.3166
  138SAPE  H18Y15085   1.384   1.016   8.591  1.3345 -2.7022  0.7276
  138SAPE  H18Z15086   1.289   1.084   8.738  0.4659  0.0056  1.0656
  139SAPE     N15087   0.431   0.601  11.099  0.6632 -0.4259  0.2637
  139SAPE   HN115088   0.418   0.502  11.070 -0.9085  0.2109 -1.3495
  139SAPE   HN215089   0.411   0.604  11.201 -0.6598  1.9765  0.0052
  139SAPE   HN315090   0.359   0.662  11.057  1.0604  0.1437  0.3909
  139SAPE   C1215091   0.566   0.654  11.057  0.5078 -0.0292 -0.4310
  139SAPE  H12A15092   0.631   0.564  11.057 -0.2958 -0.6194 -0.8825
  139SAPE  H12B15093   0.593   0.743  11.118  0.0225  1.1685 -1.8994
  139SAPE   C1115094   0.552   0.700  10.911  0.5605 -0.6526  0.5387
  139SAPE  H11A15095   0.639   0.767  10.893  0.4129 -0.8569 -1.0162
  139SAPE  H11B15096   0.465   0.767  10.899  1.1449 -0.2481 -1.8899
  139SAPE     P15097   0.676   0.566  10.734 -0.3191  0.3167  0.2005
  139SAPE   O1315098   0.802   0.583  10.810  0.0877 -0.1413 -0.6235
  139SAPE   O1415099   0.658   0.432  10.668  0.2445 -0.2414  0.0614
  139SAPE   O1215100   0.550   0.588  10.824  0.0262 -0.1484 -0.4980
  139SAPE   O1115101   0.665   0.687  10.628  0.2131  0.7706  0.0578
  139SAPE    C115102   0.551   0.757  10.582 -0.2614 -0.2824 -0.3435
  139SAPE    HA15103   0.457   0.718  10.627  0.2154  0.6198  1.5259
  139SAPE    HB15104   0.562   0.864  10.611 -2.1040 -0.7611  2.5094
  139SAPE    C215105   0.544   0.740  10.431 -1.0349 -0.1099 -0.0350
  139SAPE    HS15106   0.502   0.638  10.415  0.8530 -1.2030  1.4589
  139SAPE   O2115107   0.677   0.755  10.373 -0.3534  0.6013  0.5325
  139SAPE   C2115108   0.738   0.649  10.316 -0.5159  0.0699 -0.1315
  139SAPE   O2215109   0.693   0.535  10.304 -0.0684  0.1306 -0.5479
  139SAPE   C2215110   0.890   0.684  10.289 -0.1400  0.0345 -0.5153
  139SAPE   H2R15111   0.915   0.747  10.377  0.6909 -0.3680 -0.4533
  139SAPE   H2S15112   0.949   0.590  10.292 -1.5685 -0.9004 -0.7677
  139SAPE    C315113   0.448   0.846  10.365 -0.1151  0.4022  0.2066
  139SAPE    HX15114   0.503   0.939  10.340  0.2842  0.2616  0.5535
  139SAPE    HY15115   0.372   0.866  10.443 -0.6481 -1.8978  0.3317
  139SAPE   O3115116   0.384   0.797  10.248  0.4880  0.4399 -0.2631
  139SAPE   C3115117   0.464   0.789  10.137 -0.3518  0.6037 -0.5022
  139SAPE   O3215118   0.579   0.827  10.122  0.2822  0.1912  0.3052
  139SAPE   C3215119   0.376   0.733  10.030  0.4372  0.4180  0.2495
  139SAPE   H2X15120   0.361   0.817   9.960 -3.0625  1.7288  2.3082
  139SAPE   H2Y15121   0.275   0.695  10.057 -0.1037 -0.7683 -2.9411
  139SAPE   C2315122   0.904   0.747  10.152 -0.1151 -0.7105 -0.1326
  139SAPE   H3R15123   1.012   0.767  10.140  0.2533 -1.4558  1.6305
  139SAPE   H3S15124   0.845   0.841  10.148  0.5656 -0.2998 -0.6916
  139SAPE   C2415125   0.860   0.669  10.021  0.1979 -0.3824 -0.9010
  139SAPE   H4R15126   0.756   0.638  10.042  0.1135  1.5973  2.2975
  139SAPE   H4S15127   0.928   0.582  10.010 -0.4870 -1.1248  0.4655
  139SAPE   C2515128   0.865   0.763   9.903  0.0192 -0.0113 -0.5967
  139SAPE   H5R15129   0.769   0.815   9.888  0.2740  1.3522  1.9458
  139SAPE   C2615130   0.964   0.765   9.807 -0.5373  0.7622  0.9501
  139SAPE   H6R15131   0.956   0.847   9.733 -2.9476  0.6018  0.9413
  139SAPE   C2715132   1.091   0.690   9.801 -0.2649  0.0113  0.7049
  139SAPE   H7R15133   1.130   0.674   9.904  1.6773  0.0645  0.0176
  139SAPE   H7S15134   1.163   0.756   9.748  1.0258 -2.7730 -1.2862
  139SAPE   C2815135   1.078   0.553   9.735  0.2143 -0.6201  0.0950
  139SAPE   H8R15136   1.024   0.479   9.796 -0.6826 -1.7208 -1.9399
  139SAPE   C2915137   1.119   0.512   9.616  0.1039 -0.2306 -0.2445
  139SAPE   H9R15138   1.073   0.417   9.584 -4.6893  2.0192 -0.9520
  139SAPE  C21015139   1.198   0.586   9.515 -0.1221  0.0302 -0.4115
  139SAPE  H10R15140   1.251   0.504   9.461  2.0495  1.0886 -0.0208
  139SAPE  H10S15141   1.280   0.646   9.561 -0.0380  0.5335 -1.2179
  139SAPE  C21115142   1.120   0.678   9.427  0.0961  0.2707  0.4294
  139SAPE  H11R15143   1.050   0.744   9.480  0.2378  0.3544  0.5128
  139SAPE  C21215144   1.112   0.667   9.290  0.5315 -0.4062  0.7303
  139SAPE  H12R15145   1.053   0.731   9.223  1.5621 -1.8888 -1.7469
  139SAPE  C21315146   1.180   0.565   9.202 -0.4618  0.5013 -0.3859
  139SAPE  H13R15147   1.117   0.480   9.169 -1.8125  1.2009  0.3190
  139SAPE  H13S15148   1.268   0.525   9.258 -0.9867  1.6340  1.3172
  139SAPE  C21415149   1.248   0.635   9.091 -0.3882 -0.0656 -0.9891
  139SAPE  H14R15150   1.294   0.731   9.117 -0.4108 -0.6755  1.5200
  139SAPE  C21515151   1.250   0.598   8.961 -0.0355 -0.2506 -0.1164
  139SAPE  H15R15152   1.298   0.660   8.884  1.5870 -1.1000  0.1768
  139SAPE  C21615153   1.199   0.475   8.894  0.4281 -0.5220 -0.3455
  139SAPE  H16R15154   1.088   0.477   8.884  0.4634 -1.4775 -1.1617
  139SAPE  H16S15155   1.210   0.378   8.947  2.1110 -1.5484 -2.3948
  139SAPE  C21715156   1.264   0.470   8.753 -0.1725 -0.2691 -0.6267
  139SAPE  H17R15157   1.359   0.415   8.771  0.2167  0.9476  1.4158
  139SAPE  H17S15158   1.297   0.564   8.706 -0.2523 -0.0983 -0.3435
  139SAPE  C21815159   1.172   0.401   8.650  0.0250 -0.0735 -0.0676
  139SAPE  H18R15160   1.089   0.467   8.618 -0.2984 -0.0750  0.7388
  139SAPE  H18S15161   1.127   0.309   8.693 -2.3046  1.1727  0.3250
  139SAPE  C21915162   1.239   0.353   8.525  0.1738  0.5761  0.3295
  139SAPE  H19R15163   1.326   0.287   8.547  1.4597  1.3965 -1.9796
  139SAPE  H19S15164   1.268   0.438   8.460 -0.3267  0.8037  0.3996
  139SAPE  C22015165   1.140   0.257   8.456 -0.2142 -0.0350  0.1836
  139SAPE  H20R15166   1.175   0.212   8.360  1.2016 -0.8139  1.0269
  139SAPE  H20S15167   1.049   0.317   8.439 -1.7030 -1.1615  3.3533
  139SAPE  H20T15168   1.094   0.187   8.529  1.0333 -1.8313 -0.6664
  139SAPE   C3315169   0.448   0.610   9.961  0.4710  0.1912  0.3455
  139SAPE   H3X15170   0.449   0.515  10.019  4.8735 -1.0827 -1.3760
  139SAPE   H3Y15171   0.554   0.644   9.964  0.4186  0.3293  0.6744
  139SAPE   C3415172   0.390   0.593   9.820  0.3173 -0.5576 -0.9316
  139SAPE   H4X15173   0.370   0.692   9.775  1.4019 -0.1743 -0.6037
  139SAPE   H4Y15174   0.295   0.536   9.828 -0.2421  0.3239 -1.1835
  139SAPE   C3515175   0.494   0.546   9.723  0.3641  0.0774 -0.8717
  139SAPE   H5X15176   0.517   0.440   9.750  1.2828  0.2562 -0.9157
  139SAPE   H5Y15177   0.583   0.610   9.739  2.3092 -2.7024  0.3109
  139SAPE   C3615178   0.457   0.561   9.580 -0.5732  0.8284 -0.1786
  139SAPE   H6X15179   0.416   0.663   9.565 -1.4593  0.4242 -0.5993
  139SAPE   H6Y15180   0.386   0.480   9.553 -1.3898  1.6917 -0.6979
  139SAPE   C3715181   0.579   0.541   9.493  0.1058  0.3544 -0.0063
  139SAPE   H7X15182   0.601   0.433   9.484  0.9065  0.5038  0.0786
  139SAPE   H7Y15183   0.667   0.589   9.540  0.4568  0.8185 -1.0985
  139SAPE   C3815184   0.554   0.594   9.356 -0.7469 -0.5482 -0.0134
  139SAPE   H8X15185   0.643   0.594   9.289 -2.9110 -0.0204 -3.1301
  139SAPE   H8Y15186   0.529   0.702   9.365 -1.2019 -0.7685  1.8336
  139SAPE   C3915187   0.444   0.529   9.276  0.3998  0.4871  0.1592
  139SAPE   H9X15188   0.341   0.540   9.315  0.6218 -0.0876  0.9381
  139SAPE   H9Y15189   0.473   0.422   9.290  0.7671  0.1927 -2.3679
  139SAPE  C31015190   0.452   0.585   9.129 -0.5064 -1.0917 -0.0546
  139SAPE  H10X15191   0.560   0.575   9.103 -0.4421  1.8367 -1.3280
  139SAPE  H10Y15192   0.432   0.693   9.145  2.1097 -0.5716  0.0958
  139SAPE  C31115193   0.338   0.519   9.054  0.2215  0.0215  0.1102
  139SAPE  H11X15194   0.301   0.573   8.964 -3.5648 -0.5278  1.1577
  139SAPE  H11Y15195   0.252   0.495   9.119  1.7930 -1.7014  1.6748
  139SAPE  C31215196   0.379   0.380   8.997  0.3317  0.0401  0.1872
  139SAPE  H12X15197   0.424   0.318   9.078  3.5305 -0.3031 -1.6851
  139SAPE  H12Y15198   0.457   0.393   8.919 -0.0989  2.1077  0.0384
  139SAPE  C31315199   0.269   0.299   8.919  0.1616 -0.6226 -0.5579
  139SAPE  H13X15200   0.198   0.377   8.882 -0.8368 -1.5930 -0.7329
  139SAPE  H13Y15201   0.209   0.244   8.995  0.3662  0.0151  0.0774
  139SAPE  C31415202   0.320   0.204   8.811  0.3699 -0.1067 -0.2698
  139SAPE  H14X15203   0.385   0.131   8.864 -0.5628  0.5801  1.9256
  139SAPE  H14Y15204   0.386   0.271   8.752 -0.3238 -0.2776 -1.2716
  139SAPE  C31515205   0.209   0.128   8.737 -0.1454  0.5658 -0.2924
  139SAPE  H15X15206   0.152   0.200   8.674 -1.7678  1.2832  1.8392
  139SAPE  H15Y15207   0.138   0.082   8.810 -0.9034 -1.2022 -2.0652
  139SAPE  C31615208   0.258   0.020   8.641 -0.1707 -0.0419 -0.2271
  139SAPE  H16X15209   0.299  -0.060   8.705 -1.4450 -0.0650  0.5756
  139SAPE  H16Y15210   0.175  -0.024   8.581 -2.5331  2.4324  0.9838
  139SAPE  C31715211   0.370   0.086   8.553 -0.2433  0.2461 -0.2239
  139SAPE  H17X15212   0.455   0.116   8.619 -2.0317  0.8026  1.9399
  139SAPE  H17Y15213   0.328   0.170   8.495  1.3006  1.4200  0.2912
  139SAPE  C31815214   0.439  -0.015   8.465 -0.0786  0.6949 -0.2758
  139SAPE  H18X15215   0.484  -0.092   8.531 -1.6721 -0.2438 -0.2361
  139SAPE  H18Y15216   0.526   0.036   8.419  0.4942  0.8315  0.9164
  139SAPE  H18Z15217   0.382  -0.073   8.389  0.1335  0.1627 -0.0334
  140SAPE     N15218   3.196   2.450  10.777  1.4850  0.1133  0.1515
  140SAPE   HN115219   3.101   2.464  10.739  2.1465  0.3073 -1.5149
  140SAPE   HN215220   3.266   2.519  10.743  0.9538  1.0954  0.9865
  140SAPE   HN315221   3.220   2.351  10.756 -1.6489 -1.0707  1.4958
  140SAPE   C1215222   3.193   2.482  10.920 -0.1003  0.2008 -0.6047
  140SAPE  H12A15223   3.297   2.495  10.954 -0.2905 -3.6481  2.1912
  140SAPE  H12B15224   3.152   2.394  10.976  0.2952 -0.1825 -0.9104
  140SAPE   C1115225   3.102   2.596  10.952 -0.3232 -0.3461  0.1064
  140SAPE  H11A15226   3.121   2.614  11.060  2.2014  1.5506 -0.5545
  140SAPE  H11B15227   2.993   2.583  10.933 -0.7237  1.4614  0.9350
  140SAPE     P15228   3.256   2.800  10.935 -0.1042  0.2998 -0.0060
  140SAPE   O1315229   3.197   2.852  11.067  0.1339  0.2558  0.0554
  140SAPE   O1415230   3.378   2.723  10.947  0.1924  0.5757 -0.2729
  140SAPE   O1215231   3.142   2.710  10.878 -0.8809 -0.0410 -0.5104
  140SAPE   O1115232   3.271   2.924  10.843  0.8948 -0.3276  0.1990
  140SAPE    C115233   3.163   3.012  10.801 -0.0438  0.0899  0.2058
  140SAPE    HA15234   3.067   2.964  10.830  0.7141 -2.4228 -1.0521
  140SAPE    HB15235   3.171   3.100  10.867  3.0606  0.3920 -0.4162
  140SAPE    C215236   3.177   3.057  10.655 -1.2417 -0.0492  1.1755
  140SAPE    HS15237   3.113   3.142  10.624  0.8959  0.8534 -1.0628
  140SAPE   O2115238   3.139   2.943  10.569  0.4370 -0.6044 -0.2976
  140SAPE   C2115239   3.000   2.922  10.554  0.5008 -0.2643 -0.2104
  140SAPE   O2215240   2.917   3.006  10.591 -0.4981  0.1133  0.0597
  140SAPE   C2215241   2.972   2.797  10.471  0.0516 -0.7187  0.6813
  140SAPE   H2R15242   3.021   2.713  10.526  1.0371 -0.1943  0.6377
  140SAPE   H2S15243   2.864   2.773  10.473  0.0381 -0.6094  1.4075
  140SAPE    C315244   3.332   3.091  10.631 -0.4493 -0.1728 -0.1318
  140SAPE    HX15245   3.397   3.006  10.661  0.6464  0.2715 -1.1682
  140SAPE    HY15246   3.364   3.175  10.696  2.1104 -0.2583 -1.1719
  140SAPE   O3115247   3.342   3.127  10.493 -0.1625  0.0170  1.1853
  140SAPE   C3115248   3.385   3.032  10.410  0.0023 -0.2357 -0.6491
  140SAPE   O3215249   3.419   2.921  10.447  0.7906  0.0184 -0.2687
  140SAPE   C3215250   3.378   3.093  10.272  0.3049  0.3959 -0.9511
  140SAPE   H2X15251   3.428   3.192  10.271  0.6976  0.2885  1.7017
  140SAPE   H2Y15252   3.272   3.125  10.260 -0.4795  0.0003  3.3366
  140SAPE   C2315253   3.036   2.803  10.332 -0.1355 -0.8403 -0.7372
  140SAPE   H3R15254   3.027   2.704  10.284  0.4633 -0.7498 -1.0550
  140SAPE   H3S15255   3.146   2.821  10.337 -0.1367 -1.1376  0.9789
  140SAPE   C2415256   2.976   2.917  10.244  0.0810  0.1643  0.8754
  140SAPE   H4R15257   3.044   2.934  10.159  0.7274  0.4545  1.4421
  140SAPE   H4S15258   2.967   3.001  10.317  0.6423 -0.2868  1.4765
  140SAPE   C2515259   2.844   2.870  10.192  0.4378 -0.7021  0.4856
  140SAPE   H5R15260   2.759   2.901  10.254  1.6098  1.7629  0.9787
  140SAPE   C2615261   2.815   2.802  10.078 -0.1903 -0.2050  0.7243
  140SAPE   H6R15262   2.709   2.781  10.057 -0.2453  2.3936 -2.2382
  140SAPE   C2715263   2.897   2.753   9.963  0.2618  0.5391 -0.3695
  140SAPE   H7R15264   2.997   2.801   9.969  1.7670 -2.3846 -0.5054
  140SAPE   H7S15265   2.846   2.780   9.868 -0.4654  0.9788  0.1344
  140SAPE   C2815266   2.927   2.605   9.981 -0.1944  0.1720  0.0774
  140SAPE   H8R15267   2.960   2.570  10.080  1.6675  0.1205 -0.5203
  140SAPE   C2915268   2.906   2.509   9.890 -0.0785  0.1781 -0.5609
  140SAPE   H9R15269   2.941   2.406   9.906 -2.7066 -0.4606  1.8013
  140SAPE  C21015270   2.844   2.539   9.753  0.2833  0.3455  0.5713
  140SAPE  H10R15271   2.883   2.459   9.687  0.0420  0.7057 -0.0188
  140SAPE  H10S15272   2.881   2.635   9.713  0.1061  0.1939  0.0335
  140SAPE  C21115273   2.700   2.512   9.739  0.0895 -0.5315 -0.3011
  140SAPE  H11R15274   2.651   2.545   9.832 -0.4680  1.8264 -1.3607
  140SAPE  C21215275   2.617   2.457   9.647 -0.5700  0.5811  0.4324
  140SAPE  H12R15276   2.513   2.439   9.678 -1.7145 -0.1713 -3.3448
  140SAPE  C21315277   2.656   2.405   9.509  0.6162 -0.2213  0.2879
  140SAPE  H13R15278   2.760   2.421   9.473 -0.5296 -2.2926 -4.9152
  140SAPE  H13S15279   2.587   2.467   9.448 -1.4568 -1.9095  0.7784
  140SAPE  C21415280   2.629   2.255   9.483  0.5705 -0.0342 -0.1493
  140SAPE  H14R15281   2.582   2.200   9.566  1.4608 -2.9029 -1.4501
  140SAPE  C21515282   2.645   2.183   9.374  0.0710 -0.0773 -0.5005
  140SAPE  H15R15283   2.619   2.076   9.386 -1.8655  0.6644  3.3402
  140SAPE  C21615284   2.701   2.233   9.246 -0.1299  0.2932 -0.4702
  140SAPE  H16R15285   2.766   2.160   9.194  0.3842  0.1651  0.3456
  140SAPE  H16S15286   2.773   2.316   9.257  0.5919 -0.5143  1.2492
  140SAPE  C21715287   2.586   2.283   9.152 -0.3792 -0.1555 -0.2406
  140SAPE  H17R15288   2.551   2.383   9.187  0.9693  0.2994 -0.1257
  140SAPE  H17S15289   2.495   2.220   9.159  0.1849 -0.8561  1.0468
  140SAPE  C21815290   2.621   2.308   9.005 -0.6172 -0.3216  0.7518
  140SAPE  H18R15291   2.664   2.214   8.963 -1.7177  0.0048 -1.2082
  140SAPE  H18S15292   2.696   2.390   9.000 -1.4964  0.4613 -0.1311
  140SAPE  C21915293   2.515   2.334   8.895  0.1000  0.3924 -0.5835
  140SAPE  H19R15294   2.444   2.408   8.937 -0.1599 -0.3613  0.3155
  140SAPE  H19S15295   2.464   2.236   8.887  1.7487 -0.4231 -1.7605
  140SAPE  C22015296   2.573   2.367   8.763  0.0229  0.3203 -0.2602
  140SAPE  H20R15297   2.642   2.285   8.735 -0.5733 -0.5008  0.6061
  140SAPE  H20S15298   2.612   2.471   8.764 -1.5421  0.9336  0.0383
  140SAPE  H20T15299   2.489   2.370   8.690 -0.0297  1.5129 -0.1731
  140SAPE   C3315300   3.421   3.008  10.150  0.2664  0.0068 -0.2008
  140SAPE   H3X15301   3.348   2.925  10.135  1.3819 -0.8093 -1.3533
  140SAPE   H3Y15302   3.514   2.949  10.164 -0.4235 -1.5713 -1.8156
  140SAPE   C3415303   3.420   3.101  10.028 -0.2723  0.6099 -0.5647
  140SAPE   H4X15304   3.522   3.145  10.022 -1.0411  2.7801  1.1226
  140SAPE   H4Y15305   3.354   3.190  10.039  1.1587  1.6414  0.0045
  140SAPE   C3515306   3.372   3.038   9.900 -0.2924  0.0747 -0.7690
  140SAPE   H5X15307   3.263   3.018   9.900 -0.0613 -1.4177  0.1529
  140SAPE   H5Y15308   3.420   2.939   9.884 -1.2323 -1.0537  2.4981
  140SAPE   C3615309   3.405   3.123   9.782 -0.3310 -0.8695  0.4465
  140SAPE   H6X15310   3.514   3.141   9.778 -0.2663 -1.4509 -1.9389
  140SAPE   H6Y15311   3.353   3.219   9.800 -2.7380 -1.6102 -1.8493
  140SAPE   C3715312   3.351   3.068   9.650  0.3083 -0.0719 -0.1846
  140SAPE   H7X15313   3.241   3.057   9.659  0.4566 -0.5554  1.2255
  140SAPE   H7Y15314   3.373   2.969   9.605  2.2151  0.7344 -1.1317
  140SAPE   C3815315   3.365   3.157   9.539  0.0733 -0.0568  0.6016
  140SAPE   H8X15316   3.463   3.172   9.489 -0.6982  0.2624 -0.8827
  140SAPE   H8Y15317   3.352   3.266   9.561 -0.4147 -0.2109  1.0958
  140SAPE   C3915318   3.260   3.125   9.427 -0.0960 -0.1377  0.0528
  140SAPE   H9X15319   3.165   3.119   9.483 -0.7031  1.2848 -0.7610
  140SAPE   H9Y15320   3.278   3.033   9.368 -0.9689  0.2574 -0.8537
  140SAPE  C31015321   3.223   3.242   9.333  0.1419  0.4247 -0.1257
  140SAPE  H10X15322   3.313   3.260   9.271  0.7301 -1.0001  0.2907
  140SAPE  H10Y15323   3.208   3.340   9.383 -1.7435  0.0420  0.1516
  140SAPE  C31115324   3.099   3.211   9.246  0.0876 -0.0710  0.1099
  140SAPE  H11X15325   3.086   3.304   9.186  2.5015  0.6463  0.5890
  140SAPE  H11Y15326   3.011   3.199   9.313  0.4449 -1.0257  0.4247
  140SAPE  C31215327   3.102   3.090   9.159 -0.5061  0.1088 -0.0313
  140SAPE  H12X15328   3.098   3.000   9.224  2.2158 -0.0799 -0.0076
  140SAPE  H12Y15329   3.196   3.080   9.100 -0.2407 -1.1516  0.5688
  140SAPE  C31315330   2.983   3.082   9.058  0.6893  0.1111 -0.3232
  140SAPE  H13X15331   2.995   3.174   8.996  1.0082  1.9064  2.2253
  140SAPE  H13Y15332   2.890   3.105   9.116  0.6190  1.2905 -0.8734
  140SAPE  C31415333   2.974   2.947   8.992 -0.2195 -0.3455  0.9665
  140SAPE  H14X15334   2.872   2.937   8.951 -0.3892 -1.5090  1.6290
  140SAPE  H14Y15335   2.971   2.867   9.069  1.1934 -1.4255 -0.0309
  140SAPE  C31515336   3.079   2.918   8.888  0.2059 -0.0602 -0.0240
  140SAPE  H15X15337   3.181   2.942   8.924  1.1261 -3.2827 -0.1786
  140SAPE  H15Y15338   3.060   2.988   8.804 -0.4124  1.5782  1.4206
  140SAPE  C31615339   3.092   2.768   8.838 -0.0892 -0.4469 -0.2719
  140SAPE  H16X15340   3.095   2.686   8.912  1.5800 -1.1037 -1.0365
  140SAPE  H16Y15341   3.177   2.769   8.767 -0.0824 -0.7278 -0.2685
  140SAPE  C31715342   2.973   2.739   8.746 -0.3215 -0.0776 -0.2210
  140SAPE  H17X15343   2.992   2.793   8.651 -3.2473  0.0225 -0.8357
  140SAPE  H17Y15344   2.883   2.776   8.799 -0.8052 -2.0505  0.4198
  140SAPE  C31815345   2.961   2.589   8.700 -0.3075 -0.6927 -0.5035
  140SAPE  H18X15346   3.042   2.544   8.637  0.0706 -0.3044 -0.3006
  140SAPE  H18Y15347   2.859   2.580   8.658 -0.6572 -0.3710  0.2709
  140SAPE  H18Z15348   2.946   2.537   8.797  1.0660  1.4877  0.9598
  141SAPE     N15349   5.238   2.866  11.222  0.9010  0.6620 -0.4351
  141SAPE   HN115350   5.208   2.941  11.287 -0.0586 -1.5438  1.8294
  141SAPE   HN215351   5.160   2.856  11.153 -1.3894  1.1694  1.9208
  141SAPE   HN315352   5.240   2.781  11.281 -2.9546  1.6270  1.3865
  141SAPE   C1215353   5.369   2.894  11.154 -0.1241  1.0489 -0.5692
  141SAPE  H12A15354   5.376   2.806  11.087 -2.5587 -1.7395  2.5102
  141SAPE  H12B15355   5.454   2.889  11.226 -0.5876 -3.9043 -0.0835
  141SAPE   C1115356   5.354   3.018  11.062 -0.6616 -0.3982  1.1346
  141SAPE  H11A15357   5.456   3.040  11.023 -1.1219  0.8040  0.5849
  141SAPE  H11B15358   5.321   3.108  11.117 -0.0698  1.4770 -1.3831
  141SAPE     P15359   5.119   3.012  10.938  0.0276 -0.1154  0.0139
  141SAPE   O1315360   5.071   2.887  11.001  0.6300 -0.0692 -0.2008
  141SAPE   O1415361   5.073   3.139  10.992 -0.9050  0.0192  0.0039
  141SAPE   O1215362   5.276   3.007  10.940  0.5607 -0.1091  0.9537
  141SAPE   O1115363   5.095   3.012  10.781  0.8582  0.3911 -0.2386
  141SAPE    C115364   5.113   2.889  10.710 -0.6739 -0.1804  0.5048
  141SAPE    HA15365   5.219   2.856  10.702 -0.9222 -0.8617 -0.1512
  141SAPE    HB15366   5.055   2.807  10.756 -1.3566  0.2782  0.4679
  141SAPE    C215367   5.056   2.917  10.571 -0.3691 -0.0780  0.2951
  141SAPE    HS15368   5.047   2.818  10.521 -0.3349 -0.1394  0.4115
  141SAPE   O2115369   5.140   3.004  10.500  0.1624  0.3797  0.2670
  141SAPE   C2115370   5.258   2.946  10.467  0.0721  0.0442  0.4235
  141SAPE   O2215371   5.293   2.830  10.480  0.1898  0.1692 -0.0289
  141SAPE   C2215372   5.332   3.035  10.366 -0.6110 -0.3729 -0.4511
  141SAPE   H2R15373   5.349   3.134  10.414  0.4847 -1.7066  2.1332
  141SAPE   H2S15374   5.428   2.982  10.354 -0.8818 -0.6769 -1.2837
  141SAPE    C315375   4.915   2.978  10.574 -0.5341  0.7364  0.3954
  141SAPE    HX15376   4.918   3.083  10.609 -0.7780  0.3740  1.5618
  141SAPE    HY15377   4.851   2.925  10.649  0.7944 -3.3890 -1.0981
  141SAPE   O3115378   4.846   2.984  10.442  0.1941  0.4543 -0.1466
  141SAPE   C3115379   4.783   2.872  10.416  0.8914 -0.1809  0.5283
  141SAPE   O3215380   4.804   2.768  10.472 -0.4027  0.1176  0.1166
  141SAPE   C3215381   4.691   2.890  10.299  0.0207  0.9119  0.2363
  141SAPE   H2X15382   4.688   2.997  10.268  0.1437  0.9472  0.3497
  141SAPE   H2Y15383   4.587   2.858  10.320  0.0766 -1.7672 -2.8531
  141SAPE   C2315384   5.281   3.066  10.224 -0.6760  0.2949 -0.7491
  141SAPE   H3R15385   5.177   3.105  10.211 -0.1284  2.0331 -0.2384
  141SAPE   H3S15386   5.280   2.973  10.164 -0.6926 -1.2280  1.5063
  141SAPE   C2415387   5.379   3.156  10.151 -0.5967  0.6170  0.2137
  141SAPE   H4R15388   5.390   3.245  10.217 -3.0740 -1.1080  3.2450
  141SAPE   H4S15389   5.339   3.192  10.054  2.3020  1.2144 -0.8764
  141SAPE   C2515390   5.511   3.090  10.131  1.1002  1.3780 -0.5051
  141SAPE   H5R15391   5.587   3.115  10.206  1.1578  0.4313 -0.2439
  141SAPE   C2615392   5.543   3.022  10.016 -0.1813 -0.7891  0.0749
  141SAPE   H6R15393   5.643   2.977  10.007  1.4762  2.4900  0.5045
  141SAPE   C2715394   5.454   3.002   9.898  0.3227 -0.1417  1.0331
  141SAPE   H7R15395   5.462   3.091   9.831 -0.6916 -1.2781 -0.6783
  141SAPE   H7S15396   5.348   3.002   9.934 -0.3375 -0.0588 -0.8017
  141SAPE   C2815397   5.481   2.876   9.816  0.5252  0.2496  0.5137
  141SAPE   H8R15398   5.472   2.788   9.882  1.2742  0.8160  1.3967
  141SAPE   C2915399   5.501   2.866   9.680 -0.0846  0.7185 -0.6491
  141SAPE   H9R15400   5.518   2.773   9.624 -0.4908  1.9054 -2.8124
  141SAPE  C21015401   5.509   2.989   9.590 -0.8744 -0.2253 -0.7851
  141SAPE  H10R15402   5.594   2.970   9.521  0.4341  1.3947  0.3217
  141SAPE  H10S15403   5.540   3.082   9.642 -1.3866  1.4350 -3.2738
  141SAPE  C21115404   5.383   3.003   9.514 -0.4031 -0.4723  0.4295
  141SAPE  H11R15405   5.308   3.067   9.564 -0.7803 -0.6954  0.1493
  141SAPE  C21215406   5.359   2.968   9.382  0.1638 -0.3745  0.5030
  141SAPE  H12R15407   5.265   2.994   9.331  0.5446  1.5185  0.6986
  141SAPE  C21315408   5.449   2.883   9.301 -0.2560  0.1211  0.3512
  141SAPE  H13R15409   5.403   2.789   9.263  2.0133 -0.4030 -1.3038
  141SAPE  H13S15410   5.532   2.836   9.357 -0.3124 -0.6818 -0.2071
  141SAPE  C21415411   5.514   2.965   9.195  0.5271 -0.1670  0.4430
  141SAPE  H14R15412   5.568   3.056   9.224  0.6279  0.9704 -2.9205
  141SAPE  C21515413   5.527   2.931   9.063  0.3423 -0.5745  0.9088
  141SAPE  H15R15414   5.581   2.996   8.994  0.6367  0.1934  1.8400
  141SAPE  C21615415   5.492   2.799   9.002  0.3796  0.1830  0.1556
  141SAPE  H16R15416   5.399   2.820   8.944  0.1663  0.3442  0.5576
  141SAPE  H16S15417   5.457   2.719   9.070  0.5168  0.2539  0.3086
  141SAPE  C21715418   5.587   2.738   8.896  0.0998  0.3947 -0.8585
  141SAPE  H17R15419   5.682   2.704   8.941 -0.8931 -0.7127  0.5118
  141SAPE  H17S15420   5.612   2.816   8.821  2.0314 -0.1855 -0.8542
  141SAPE  C21815421   5.523   2.619   8.814  0.4378 -0.0596  0.3140
  141SAPE  H18R15422   5.414   2.637   8.801 -0.2387 -3.3666  0.4146
  141SAPE  H18S15423   5.525   2.525   8.874  0.8126 -0.5474 -0.4434
  141SAPE  C21915424   5.589   2.594   8.675 -0.9983  0.2200 -0.1734
  141SAPE  H19R15425   5.700   2.591   8.683 -0.8310 -1.0379 -2.0560
  141SAPE  H19S15426   5.575   2.689   8.619  4.1386  2.4474  1.6517
  141SAPE  C22015427   5.533   2.477   8.600 -0.2438  0.7479 -0.1380
  141SAPE  H20R15428   5.576   2.378   8.627 -0.1251  0.5193 -1.1036
  141SAPE  H20S15429   5.562   2.486   8.493  0.7276 -0.8456 -0.0393
  141SAPE  H20T15430   5.423   2.477   8.612 -0.3842  1.3057 -1.2808
  141SAPE   C3315431   4.749   2.812  10.183  0.5329 -0.5376 -0.4128
  141SAPE   H3X15432   4.666   2.791  10.112  2.1720  0.0720 -2.6275
  141SAPE   H3Y15433   4.778   2.708  10.209 -0.5984 -0.6872  0.2967
  141SAPE   C3415434   4.852   2.883  10.097 -0.5290 -0.5143 -0.5469
  141SAPE   H4X15435   4.941   2.910  10.159 -1.8570 -0.3283  1.3598
  141SAPE   H4Y15436   4.813   2.979  10.057  0.5227  0.6601  1.0965
  141SAPE   C3515437   4.896   2.808   9.969  0.7425 -0.1631  0.4082
  141SAPE   H5X15438   4.804   2.803   9.907  0.4485 -1.4048  0.8979
  141SAPE   H5Y15439   4.930   2.709  10.007  0.1112 -0.2629  0.7466
  141SAPE   C3615440   4.997   2.888   9.888 -0.1150 -0.2722 -1.2985
  141SAPE   H6X15441   5.041   2.963   9.958 -1.7946  0.5465 -1.0796
  141SAPE   H6Y15442   4.943   2.952   9.815 -1.2684  1.1681  0.7021
  141SAPE   C3715443   5.100   2.800   9.824 -1.0452  0.3564  0.7981
  141SAPE   H7X15444   5.142   2.723   9.891 -0.1068 -1.1560 -1.3912
  141SAPE   H7Y15445   5.184   2.862   9.785 -1.6149 -0.6880 -2.4559
  141SAPE   C3815446   5.045   2.717   9.701 -0.0358 -0.0941  0.2144
  141SAPE   H8X15447   4.968   2.642   9.727  0.6675 -1.4219 -1.3759
  141SAPE   H8Y15448   5.126   2.655   9.658 -0.7216  0.1097 -1.4507
  141SAPE   C3915449   4.988   2.803   9.583 -0.5668 -0.0667  1.2111
  141SAPE   H9X15450   5.059   2.884   9.553 -0.8453 -0.6388 -1.2305
  141SAPE   H9Y15451   4.892   2.848   9.617 -0.0774  1.7071  0.3761
  141SAPE  C31015452   4.960   2.709   9.467 -0.0664 -0.4634 -0.3421
  141SAPE  H10X15453   4.919   2.608   9.487 -0.5455 -0.3268 -0.6161
  141SAPE  H10Y15454   5.056   2.695   9.414  0.6032  1.4033  0.2942
  141SAPE  C31115455   4.852   2.768   9.372 -0.1624 -0.5229 -0.5840
  141SAPE  H11X15456   4.876   2.877   9.377  0.5011 -0.6333 -1.1828
  141SAPE  H11Y15457   4.749   2.771   9.414 -0.0749  0.4640 -0.4031
  141SAPE  C31215458   4.859   2.715   9.236  0.3051  0.0399  0.4073
  141SAPE  H12X15459   4.804   2.619   9.230  2.3796 -1.2072  0.3503
  141SAPE  H12Y15460   4.961   2.682   9.206 -0.1906 -2.2065  1.0346
  141SAPE  C31315461   4.794   2.812   9.131 -0.0465  0.0024  0.3750
  141SAPE  H13X15462   4.861   2.901   9.124 -0.9775  0.8745  1.8154
  141SAPE  H13Y15463   4.693   2.834   9.171 -0.6760 -1.3296 -0.4246
  141SAPE  C31415464   4.782   2.755   8.986  0.2668 -0.3035 -0.1884
  141SAPE  H14X15465   4.730   2.658   9.000  1.0906 -1.0440 -2.0151
  141SAPE  H14Y15466   4.883   2.736   8.943 -0.5644 -0.6191 -2.1110
  141SAPE  C31515467   4.706   2.853   8.892  0.3523  0.4797  0.6828
  141SAPE  H15X15468   4.769   2.944   8.879  0.3347  0.1668 -2.4942
  141SAPE  H15Y15469   4.611   2.881   8.941  1.9780  3.0305  2.6515
  141SAPE  C31615470   4.677   2.778   8.756 -0.3396 -0.3608 -0.3632
  141SAPE  H16X15471   4.636   2.681   8.791 -0.2149 -0.0092  0.7966
  141SAPE  H16Y15472   4.768   2.755   8.697 -0.2563  0.6564 -0.6421
  141SAPE  C31715473   4.570   2.844   8.672  0.5787  0.2524 -0.1868
  141SAPE  H17X15474   4.475   2.853   8.729  1.3180  0.5462  1.0455
  141SAPE  H17Y15475   4.553   2.774   8.587  0.0101 -0.6252  0.6341
  141SAPE  C31815476   4.616   2.979   8.626  0.6347 -0.1460 -0.2043
  141SAPE  H18X15477   4.538   3.035   8.571  1.2937 -0.8946 -1.9692
  141SAPE  H18Y15478   4.703   2.962   8.560  0.4711 -0.8229 -0.2583
  141SAPE  H18Z15479   4.658   3.042   8.707  0.3139 -1.1798  0.8011
  142SAPE     N15480   4.714   2.187  10.924 -0.8268  0.7315 -0.1692
  142SAPE   HN115481   4.817   2.193  10.938 -0.9010 -0.9424  1.6507
  142SAPE   HN215482   4.694   2.187  10.822 -1.3882 -0.3737 -0.0746
  142SAPE   HN315483   4.668   2.274  10.959 -0.2166  0.4762  1.3328
  142SAPE   C1215484   4.672   2.061  10.995 -0.4353  0.0934 -0.1141
  142SAPE  H12A15485   4.566   2.077  11.025 -0.4919  1.7583 -1.0782
  142SAPE  H12B15486   4.738   2.048  11.083 -1.9197 -1.4492  0.8410
  142SAPE   C1115487   4.687   1.926  10.917 -0.0337 -0.4937  0.0743
  142SAPE  H11A15488   4.669   1.836  10.979 -1.9745 -0.6119 -0.6182
  142SAPE  H11B15489   4.791   1.914  10.880  0.7368  0.2297  1.8456
  142SAPE     P15490   4.612   1.964  10.663  0.4767  0.1337 -0.0913
  142SAPE   O1315491   4.497   1.911  10.585 -0.0380 -0.2717  0.0327
  142SAPE   O1415492   4.644   2.109  10.665  0.2633 -0.3612 -0.2352
  142SAPE   O1215493   4.589   1.921  10.816 -0.1059  0.0458 -0.3317
  142SAPE   O1115494   4.739   1.883  10.629  0.2196 -0.5030  0.3611
  142SAPE    C115495   4.871   1.937  10.614  0.3662 -0.3739  0.0602
  142SAPE    HA15496   4.875   2.043  10.646 -1.2020 -0.6539  1.2728
  142SAPE    HB15497   4.947   1.885  10.675 -0.2233 -1.2634  0.0580
  142SAPE    C215498   4.908   1.946  10.462  0.1764  0.4629  0.5245
  142SAPE    HS15499   4.831   2.003  10.406 -2.0492 -2.2342  0.6520
  142SAPE   O2115500   4.922   1.811  10.417  0.1328  0.1053  0.3222
  142SAPE   C2115501   4.855   1.774  10.314  0.3148 -0.7121  0.7922
  142SAPE   O2215502   4.763   1.839  10.266  0.2399 -0.0562  0.4946
  142SAPE   C2215503   4.907   1.644  10.247 -0.1274 -0.1820 -0.7516
  142SAPE   H2R15504   5.016   1.662  10.240  0.3462 -1.1266  2.5675
  142SAPE   H2S15505   4.895   1.557  10.315 -1.4556  0.3282 -0.2831
  142SAPE    C315506   5.042   2.018  10.438 -0.5151  0.2975 -0.0177
  142SAPE    HX15507   5.124   1.955  10.478 -1.7227 -0.7693  0.8623
  142SAPE    HY15508   5.038   2.100  10.513 -0.1244 -0.3210  0.6832
  142SAPE   O3115509   5.069   2.070  10.306 -0.1455 -0.1266 -0.2704
  142SAPE   C3115510   5.158   2.006  10.235 -0.2017  0.1366 -0.4459
  142SAPE   O3215511   5.228   1.909  10.262  0.2740  0.2439  0.7761
  142SAPE   C3215512   5.169   2.080  10.102  0.8697 -0.3747 -0.4020
  142SAPE   H2X15513   5.207   2.182  10.128 -4.4614  1.9355 -0.4888
  142SAPE   H2Y15514   5.066   2.104  10.069 -0.3535 -1.5011  2.2686
  142SAPE   C2315515   4.824   1.612  10.125  0.2309 -0.8439  0.5130
  142SAPE   H3R15516   4.847   1.700  10.060  1.7389 -2.0080 -0.5811
  142SAPE   H3S15517   4.714   1.611  10.140 -0.4344 -0.3356 -3.3027
  142SAPE   C2415518   4.867   1.482  10.052 -0.5558  0.4578  0.3462
  142SAPE   H4R15519   4.978   1.481  10.042 -0.6364 -0.4142 -0.7722
  142SAPE   H4S15520   4.815   1.476   9.954  2.8905 -0.3540 -1.6044
  142SAPE   C2515521   4.818   1.366  10.134  0.3121 -0.2883 -0.0496
  142SAPE   H5R15522   4.836   1.381  10.242 -0.5864  1.5213 -0.1268
  142SAPE   C2615523   4.766   1.256  10.086  0.1561  0.3836  0.5570
  142SAPE   H6R15524   4.727   1.187  10.162 -2.2447 -0.9708 -1.7210
  142SAPE   C2715525   4.730   1.207   9.954  0.1890 -0.1781 -0.0327
  142SAPE   H7R15526   4.753   1.099   9.944  2.5103  0.3516 -1.0052
  142SAPE   H7S15527   4.811   1.242   9.887 -1.1941  0.6256 -1.3273
  142SAPE   C2815528   4.596   1.233   9.890  0.6880 -0.1173 -0.4910
  142SAPE   H8R15529   4.537   1.307   9.948  0.2522 -1.7847  1.2925
  142SAPE   C2915530   4.554   1.189   9.775 -0.3546  0.4625  0.5377
  142SAPE   H9R15531   4.461   1.238   9.742 -1.0386 -0.0802  1.6329
  142SAPE  C21015532   4.638   1.106   9.679 -0.5858  0.2170  0.3282
  142SAPE  H10R15533   4.612   0.998   9.685  0.9178 -0.1350  0.8351
  142SAPE  H10S15534   4.743   1.118   9.712 -0.8624 -0.1986  1.3932
  142SAPE  C21115535   4.621   1.139   9.531 -0.4763 -0.1486 -0.8693
  142SAPE  H11R15536   4.524   1.172   9.492 -0.6706  0.9135  0.4206
  142SAPE  C21215537   4.729   1.134   9.444  0.4101  0.4166 -0.3066
  142SAPE  H12R15538   4.705   1.168   9.342 -0.4900  2.4113  0.5239
  142SAPE  C21315539   4.870   1.088   9.471  0.5358  0.3722 -0.1003
  142SAPE  H13R15540   4.862   0.977   9.462 -1.2396  0.5913 -1.9941
  142SAPE  H13S15541   4.906   1.113   9.573  1.5638 -1.1504 -0.0445
  142SAPE  C21415542   4.968   1.151   9.371  0.2585 -0.3365  0.3142
  142SAPE  H14R15543   5.021   1.239   9.411  0.1282 -0.3471  0.5094
  142SAPE  C21515544   4.985   1.127   9.236  0.2834 -0.1788 -0.3512
  142SAPE  H15R15545   5.057   1.184   9.177  3.7957 -1.6279  2.1932
  142SAPE  C21615546   4.903   1.030   9.164 -0.2400  0.6858  0.8428
  142SAPE  H16R15547   4.799   1.062   9.141 -0.4945  1.7051  3.1464
  142SAPE  H16S15548   4.898   0.937   9.226  1.3502  0.3906  0.5568
  142SAPE  C21715549   4.964   0.990   9.023 -0.4270 -0.2088 -0.8067
  142SAPE  H17R15550   4.969   1.076   8.953 -0.4397 -1.0999 -1.9171
  142SAPE  H17S15551   4.898   0.932   8.955 -2.0765  0.0803  0.4656
  142SAPE  C21815552   5.107   0.929   9.035  0.1276  0.1467  0.1439
  142SAPE  H18R15553   5.114   0.833   9.091 -1.6799  1.2153  2.3727
  142SAPE  H18S15554   5.175   0.999   9.087 -1.3000  0.9862  0.9288
  142SAPE  C21915555   5.162   0.912   8.891 -0.7589 -0.2750 -1.1008
  142SAPE  H19R15556   5.141   1.013   8.849 -0.3269  1.1682  1.8590
  142SAPE  H19S15557   5.102   0.847   8.824  0.5255 -0.0437 -2.5353
  142SAPE  C22015558   5.309   0.869   8.873 -0.1183 -0.3589 -0.2699
  142SAPE  H20R15559   5.344   0.882   8.768 -2.8177  1.1631 -1.0964
  142SAPE  H20S15560   5.321   0.768   8.917  1.7007 -0.0532  0.0260
  142SAPE  H20T15561   5.371   0.933   8.939 -0.7360 -0.9933  0.9563
  142SAPE   C3315562   5.240   2.008   9.982 -0.4722  0.5771 -0.1531
  142SAPE   H3X15563   5.344   1.999  10.020 -0.8268  0.4918  0.8462
  142SAPE   H3Y15564   5.237   2.069   9.889 -0.0804 -1.4514 -1.5586
  142SAPE   C3415565   5.186   1.866   9.945 -0.4948 -0.8428  0.1572
  142SAPE   H4X15566   5.237   1.806  10.023  1.4847  0.8272  0.2256
  142SAPE   H4Y15567   5.237   1.832   9.853 -0.8765  0.1911 -0.4520
  142SAPE   C3515568   5.045   1.841   9.933  0.2609  0.0834  0.6683
  142SAPE   H5X15569   4.990   1.869  10.026 -2.2293 -2.4175  0.1050
  142SAPE   H5Y15570   5.023   1.733   9.920 -1.6100  0.4562  0.4358
  142SAPE   C3615571   4.965   1.909   9.809  0.2102  0.4528 -0.0933
  142SAPE   H6X15572   4.987   1.870   9.707  1.0878 -0.1153  0.2995
  142SAPE   H6Y15573   4.993   2.015   9.827  0.4039  0.4667 -0.4581
  142SAPE   C3715574   4.816   1.898   9.833  0.0182  0.0562  0.2312
  142SAPE   H7X15575   4.762   1.974   9.772 -0.7846  0.4410  1.3958
  142SAPE   H7Y15576   4.799   1.920   9.940  0.9632 -1.7990  0.8034
  142SAPE   C3815577   4.767   1.760   9.805 -0.1019 -0.0887  0.0019
  142SAPE   H8X15578   4.671   1.755   9.861  1.2371 -1.4504  2.3570
  142SAPE   H8Y15579   4.829   1.673   9.836  0.1862 -0.3016 -1.1219
  142SAPE   C3915580   4.745   1.730   9.650 -0.5330  0.1442 -0.1832
  142SAPE   H9X15581   4.809   1.795   9.586  2.0591  1.7876  3.6518
  142SAPE   H9Y15582   4.639   1.752   9.628 -0.5473 -1.7663 -2.4743
  142SAPE  C31015583   4.768   1.585   9.632 -0.0244  0.2102 -0.1222
  142SAPE  H10X15584   4.706   1.528   9.704 -1.7355 -0.8779 -2.3480
  142SAPE  H10Y15585   4.874   1.564   9.655  0.8753  3.7826 -0.4395
  142SAPE  C31115586   4.737   1.526   9.500  0.2986 -0.1762  0.1301
  142SAPE  H11X15587   4.627   1.532   9.484  0.5019  2.7497 -0.8589
  142SAPE  H11Y15588   4.769   1.422   9.481  0.6583  0.2827 -2.0768
  142SAPE  C31215589   4.806   1.604   9.390 -0.0640  0.0442  0.1237
  142SAPE  H12X15590   4.910   1.606   9.429  0.6807 -2.9344 -1.3515
  142SAPE  H12Y15591   4.766   1.707   9.380 -1.6993 -0.6775 -1.1487
  142SAPE  C31315592   4.820   1.527   9.255  0.1413  0.5161 -0.3983
  142SAPE  H13X15593   4.858   1.427   9.283 -2.1821 -0.2452  0.2061
  142SAPE  H13Y15594   4.879   1.593   9.188 -1.8242  2.1739 -0.5827
  142SAPE  C31415595   4.681   1.502   9.195 -0.6142  0.0149 -0.1339
  142SAPE  H14X15596   4.647   1.603   9.163  0.3695  0.9816  1.7440
  142SAPE  H14Y15597   4.622   1.466   9.282 -0.1978 -0.3134  0.0163
  142SAPE  C31515598   4.669   1.397   9.082  0.1998 -0.1841  0.2810
  142SAPE  H15X15599   4.697   1.297   9.121 -4.0413 -2.0104 -0.8144
  142SAPE  H15Y15600   4.728   1.431   8.994 -1.4849  0.7811 -0.5195
  142SAPE  C31615601   4.530   1.377   9.039 -0.5790  0.7401 -0.8278
  142SAPE  H16X15602   4.490   1.477   9.013 -1.9809  0.9378  1.7522
  142SAPE  H16Y15603   4.479   1.336   9.129  0.6029  0.5820 -0.2163
  142SAPE  C31715604   4.505   1.276   8.927 -0.1877 -0.4461  0.3092
  142SAPE  H17X15605   4.549   1.304   8.828 -0.8899  1.0529  0.3897
  142SAPE  H17Y15606   4.395   1.274   8.915 -0.0781 -0.6127 -0.7895
  142SAPE  C31815607   4.545   1.128   8.948  0.0519 -0.2795 -0.1076
  142SAPE  H18X15608   4.508   1.083   9.042  2.5130 -0.3297  0.9281
  142SAPE  H18Y15609   4.656   1.131   8.939 -0.1178  0.4167 -2.4947
  142SAPE  H18Z15610   4.505   1.068   8.864 -0.8753 -0.4615  0.4507
  143SAPE     N15611   0.062   4.894  10.510  0.4365  0.4455  0.1973
  143SAPE   HN115612   0.099   4.875  10.606  0.7082  2.9080  0.6502
  143SAPE   HN215613   0.138   4.910  10.441  1.1317  1.9692  1.2610
  143SAPE   HN315614   0.014   4.986  10.520 -1.5760 -0.4000 -1.1212
  143SAPE   C1215615  -0.035   4.798  10.456  0.2350 -0.3017 -0.1970
  143SAPE  H12A15616   0.013   4.698  10.443 -0.5743 -0.5963 -1.1483
  143SAPE  H12B15617  -0.055   4.840  10.355  0.4654 -1.4749 -0.7491
  143SAPE   C1115618  -0.167   4.785  10.534 -0.2652 -0.8185  0.3946
  143SAPE  H11A15619  -0.137   4.768  10.640 -1.8238  2.9023  1.5880
  143SAPE  H11B15620  -0.225   4.696  10.502 -0.0855 -0.8135  0.0433
  143SAPE     P15621  -0.391   4.917  10.565 -0.2631 -0.1292 -0.1329
  143SAPE   O1315622  -0.404   4.996  10.691  0.6544 -0.6104 -0.1234
  143SAPE   O1415623  -0.461   4.968  10.448  0.0574 -0.3650  0.1548
  143SAPE   O1215624  -0.240   4.906  10.518 -0.0586  0.2366  0.2200
  143SAPE   O1115625  -0.433   4.771  10.595 -0.1035  0.0363 -0.0284
  143SAPE    C115626  -0.517   4.693  10.516  0.0199  0.2785  0.3035
  143SAPE    HA15627  -0.606   4.745  10.473  0.0513 -1.4446 -1.9934
  143SAPE    HB15628  -0.466   4.648  10.428  1.5960  1.6965  0.4372
  143SAPE    C215629  -0.564   4.569  10.598  0.0344 -0.0255  0.5391
  143SAPE    HS15630  -0.597   4.609  10.695  1.5645  2.1997  0.2266
  143SAPE   O2115631  -0.453   4.476  10.602  0.0497 -0.0898  0.1721
  143SAPE   C2115632  -0.384   4.481  10.718 -0.6576 -0.6373 -0.2009
  143SAPE   O2215633  -0.404   4.554  10.813 -0.8406 -0.2465 -0.2820
  143SAPE   C2215634  -0.274   4.376  10.712 -0.2151 -0.2415  0.1506
  143SAPE   H2R15635  -0.264   4.335  10.814 -3.3037 -0.2826  0.5117
  143SAPE   H2S15636  -0.303   4.287  10.651  0.9146 -0.1605 -0.5433
  143SAPE    C315637  -0.689   4.509  10.519  0.4182 -0.3237 -0.2570
  143SAPE    HX15638  -0.759   4.595  10.515  1.8895  1.0752  1.6475
  143SAPE    HY15639  -0.741   4.432  10.580 -1.6411  0.6865 -0.6412
  143SAPE   O3115640  -0.660   4.462  10.387 -0.1475  0.4129 -0.0009
  143SAPE   C3115641  -0.612   4.346  10.368  0.2200  0.0919  0.3190
  143SAPE   O3215642  -0.630   4.252  10.446 -0.4273  0.1461 -0.1037
  143SAPE   C3215643  -0.527   4.343  10.241  0.2219  0.2098  0.1950
  143SAPE   H2X15644  -0.425   4.363  10.280  0.3217  0.2847 -0.1070
  143SAPE   H2Y15645  -0.567   4.400  10.155 -2.1571 -0.8110  0.5511
  143SAPE   C2315646  -0.136   4.428  10.667 -0.7520 -0.2413  0.4036
  143SAPE   H3R15647  -0.062   4.367  10.722  0.1154 -0.9180 -1.4179
  143SAPE   H3S15648  -0.103   4.529  10.699 -0.0467 -0.7486  1.3200
  143SAPE   C2415649  -0.117   4.405  10.516  0.0485 -0.7194 -0.5968
  143SAPE   H4R15650  -0.202   4.452  10.462 -0.1284  0.1006  0.3658
  143SAPE   H4S15651  -0.141   4.297  10.511 -0.9780 -0.4879 -0.9503
  143SAPE   C2515652   0.006   4.441  10.442  0.0750  0.1904 -0.5821
  143SAPE   H5R15653   0.097   4.430  10.502  0.2013 -1.7973 -1.0691
  143SAPE   C2615654   0.014   4.474  10.312 -0.1482  0.2988 -0.2287
  143SAPE   H6R15655   0.113   4.508  10.277 -1.4064  2.6183 -1.8643
  143SAPE   C2715656  -0.103   4.488  10.217 -0.3846 -0.1280  0.9750
  143SAPE   H7R15657  -0.168   4.564  10.265  0.7878  3.1604 -2.1681
  143SAPE   H7S15658  -0.159   4.392  10.217  0.9771 -0.9578 -0.3411
  143SAPE   C2815659  -0.053   4.525  10.074  0.3858 -0.6536 -0.2297
  143SAPE   H8R15660   0.039   4.483  10.030  0.7832 -0.9215  0.8353
  143SAPE   C2915661  -0.110   4.614   9.991 -0.0669  0.2303  0.1216
  143SAPE   H9R15662  -0.066   4.626   9.891 -2.9741 -2.5830 -1.7074
  143SAPE  C21015663  -0.236   4.695  10.006 -0.2650  0.4790  0.2094
  143SAPE  H10R15664  -0.243   4.783   9.939 -1.0267  1.3132  1.3403
  143SAPE  H10S15665  -0.232   4.758  10.097  0.2375  0.4348  0.2243
  143SAPE  C21115666  -0.372   4.625   9.991  0.5424  0.0470 -0.0286
  143SAPE  H11R15667  -0.431   4.613  10.083 -0.8082  1.9482 -0.5725
  143SAPE  C21215668  -0.413   4.552   9.888 -0.3860 -0.3863 -0.2696
  143SAPE  H12R15669  -0.516   4.515   9.881 -0.7586 -0.2999  3.0876
  143SAPE  C21315670  -0.342   4.532   9.756  0.4117  0.9452  0.1124
  143SAPE  H13R15671  -0.413   4.458   9.714  0.4769  0.4506  0.8691
  143SAPE  H13S15672  -0.244   4.481   9.762  0.6126  1.1644 -1.0244
  143SAPE  C21415673  -0.341   4.664   9.689  1.2328 -0.2294  0.8363
  143SAPE  H14R15674  -0.296   4.747   9.746 -1.0642  0.2389  2.0858
  143SAPE  C21515675  -0.387   4.691   9.566  0.2209 -0.7387  0.2204
  143SAPE  H15R15676  -0.365   4.790   9.524 -0.1960 -1.4889 -1.9005
  143SAPE  C21615677  -0.439   4.590   9.466  0.0839 -1.1226  0.5496
  143SAPE  H16R15678  -0.466   4.490   9.506 -2.8419 -0.2690  0.9245
  143SAPE  H16S15679  -0.364   4.564   9.389  1.0163 -1.7192  1.6181
  143SAPE  C21715680  -0.556   4.644   9.387 -0.1413  0.6232  0.4059
  143SAPE  H17R15681  -0.595   4.560   9.325  0.1102  0.9013 -0.1318
  143SAPE  H17S15682  -0.523   4.723   9.316  1.1094 -0.7979 -0.6678
  143SAPE  C21815683  -0.675   4.683   9.479  0.2589 -0.2755  0.7304
  143SAPE  H18R15684  -0.638   4.771   9.535  1.0150 -0.0712 -0.0771
  143SAPE  H18S15685  -0.695   4.612   9.562 -2.2182 -0.6980 -0.1464
  143SAPE  C21915686  -0.813   4.678   9.410  0.3327  0.4898  0.2314
  143SAPE  H19R15687  -0.838   4.570   9.407  1.2859  0.2617 -2.5658
  143SAPE  H19S15688  -0.805   4.714   9.305 -1.8032 -3.8592 -1.6637
  143SAPE  C22015689  -0.925   4.762   9.478 -0.0967 -0.2777 -0.3313
  143SAPE  H20R15690  -0.897   4.869   9.472 -0.8769 -0.1068 -1.0556
  143SAPE  H20S15691  -0.948   4.744   9.585 -2.0951 -0.9590 -0.8271
  143SAPE  H20T15692  -1.018   4.745   9.420 -0.0221 -0.3172 -0.4414
  143SAPE   C3315693  -0.527   4.200  10.182 -0.4468 -0.8530 -0.1026
  143SAPE   H3X15694  -0.619   4.193  10.119 -0.7213  0.3630  0.1327
  143SAPE   H3Y15695  -0.539   4.123  10.261 -0.8011  0.5174  1.2298
  143SAPE   C3415696  -0.411   4.182  10.078  0.2151 -0.5830  0.5527
  143SAPE   H4X15697  -0.325   4.151  10.142  0.8563  1.4577  0.7555
  143SAPE   H4Y15698  -0.374   4.278  10.036 -1.2268 -0.7884 -1.3229
  143SAPE   C3515699  -0.442   4.086   9.967 -0.1824  0.7539 -0.0677
  143SAPE   H5X15700  -0.537   4.120   9.920 -1.5315 -1.0535  1.1898
  143SAPE   H5Y15701  -0.459   3.990  10.020 -0.6331  1.9306  2.0512
  143SAPE   C3615702  -0.333   4.066   9.855  0.1521 -0.5218  0.1734
  143SAPE   H6X15703  -0.242   4.008   9.882  0.9618  0.5821 -0.1374
  143SAPE   H6Y15704  -0.296   4.165   9.822 -0.8397 -0.9619 -2.5990
  143SAPE   C3715705  -0.384   4.006   9.728 -0.2035  0.4194  0.1157
  143SAPE   H7X15706  -0.454   3.922   9.749 -0.3424  0.0866 -1.5377
  143SAPE   H7Y15707  -0.293   3.971   9.675 -0.9683  1.3219 -1.9053
  143SAPE   C3815708  -0.452   4.113   9.642 -0.1435  0.1572  0.2210
  143SAPE   H8X15709  -0.384   4.200   9.630  0.1094  0.2215  1.8926
  143SAPE   H8Y15710  -0.544   4.152   9.688  0.7832  1.7901  0.7726
  143SAPE   C3915711  -0.479   4.055   9.497  0.4058 -0.1518  0.3152
  143SAPE   H9X15712  -0.566   3.987   9.504  0.8201 -1.0030 -1.8581
  143SAPE   H9Y15713  -0.393   3.993   9.466  1.7570  1.4175  0.8048
  143SAPE  C31015714  -0.517   4.161   9.399  0.0360  0.2005 -0.7378
  143SAPE  H10X15715  -0.434   4.222   9.359 -0.9419  1.4929 -0.8717
  143SAPE  H10Y15716  -0.591   4.235   9.437 -1.2344  0.8976 -4.2491
  143SAPE  C31115717  -0.578   4.092   9.273 -0.7119  0.5228  0.3312
  143SAPE  H11X15718  -0.648   4.008   9.296  1.3025 -0.5905  3.0041
  143SAPE  H11Y15719  -0.496   4.044   9.216 -0.7665  0.6440  0.1513
  143SAPE  C31215720  -0.643   4.194   9.187  0.4047 -0.5771  0.0889
  143SAPE  H12X15721  -0.718   4.258   9.238  2.4786  1.5957  0.6104
  143SAPE  H12Y15722  -0.692   4.146   9.099  0.0067  1.1118 -0.6536
  143SAPE  C31315723  -0.542   4.284   9.108 -0.4859 -0.4077  0.5204
  143SAPE  H13X15724  -0.475   4.217   9.050 -0.2755  0.2451  0.0055
  143SAPE  H13Y15725  -0.484   4.332   9.190 -0.9999 -2.8062  2.4057
  143SAPE  C31415726  -0.610   4.397   9.024 -0.1053  0.7484 -0.0164
  143SAPE  H14X15727  -0.666   4.458   9.098  0.2742 -0.3785  1.2453
  143SAPE  H14Y15728  -0.674   4.344   8.950  0.6005 -0.5651  0.2809
  143SAPE  C31515729  -0.496   4.482   8.957 -0.9390  0.1084 -1.1436
  143SAPE  H15X15730  -0.538   4.548   8.878  0.4380  1.5690 -0.7144
  143SAPE  H15Y15731  -0.416   4.422   8.910  0.0745 -0.4725  1.1899
  143SAPE  C31615732  -0.428   4.586   9.050  0.7385  0.1489 -0.6503
  143SAPE  H16X15733  -0.456   4.577   9.157 -1.1719  4.2129 -0.6116
  143SAPE  H16Y15734  -0.467   4.689   9.034 -2.0166 -0.8120 -0.5284
  143SAPE  C31715735  -0.281   4.602   9.029 -0.5114 -0.3078  0.3420
  143SAPE  H17X15736  -0.254   4.685   9.098 -0.3204 -0.6194  0.6424
  143SAPE  H17Y15737  -0.256   4.626   8.923 -2.1025  0.5651  0.1279
  143SAPE  C31815738  -0.204   4.486   9.082  0.2760 -0.4594 -0.5302
  143SAPE  H18X15739  -0.096   4.505   9.072  0.3754  1.1004  2.3274
  143SAPE  H18Y15740  -0.233   4.405   9.011 -0.4868  0.6748 -1.5520
  143SAPE  H18Z15741  -0.235   4.463   9.186  0.0089 -0.1159 -0.5337
  144SAPE     N15742   2.817   0.929  10.758  0.2846  0.1443  0.0326
  144SAPE   HN115743   2.855   1.025  10.748  1.9327 -0.0535  3.0644
  144SAPE   HN215744   2.836   0.893  10.662  2.4480  2.2253 -0.4312
  144SAPE   HN315745   2.713   0.929  10.762  0.3124 -0.2515  0.8968
  144SAPE   C1215746   2.888   0.859  10.866 -0.6285  0.4003 -0.3223
  144SAPE  H12A15747   2.854   0.753  10.864 -1.4695  0.6666 -0.9088
  144SAPE  H12B15748   2.869   0.910  10.964  1.6948 -1.2386  1.0611
  144SAPE   C1115749   3.028   0.862  10.832 -0.0620  0.0286  0.4535
  144SAPE  H11A15750   3.053   0.812  10.737  2.0496  1.3758  0.2381
  144SAPE  H11B15751   3.076   0.799  10.910 -1.2804  0.2314  1.3998
  144SAPE     P15752   3.236   1.022  10.859  0.3410 -0.4103  0.1897
  144SAPE   O1315753   3.248   1.106  10.984 -0.5174  0.1378  0.4958
  144SAPE   O1415754   3.311   0.897  10.848 -0.0918  0.3541 -0.3637
  144SAPE   O1215755   3.080   1.001  10.844  0.5938  0.1970 -0.2471
  144SAPE   O1115756   3.267   1.109  10.734 -0.1723 -0.3929 -0.1408
  144SAPE    C115757   3.189   1.108  10.613 -0.4329  0.8642 -0.3373
  144SAPE    HA15758   3.080   1.119  10.631 -0.7090  0.1892 -1.4801
  144SAPE    HB15759   3.233   1.195  10.561  0.0753  0.2417 -0.9581
  144SAPE    C215760   3.218   0.991  10.524 -0.1702  0.4945  0.3438
  144SAPE    HS15761   3.190   0.893  10.567  0.0579 -2.2180 -4.8304
  144SAPE   O2115762   3.355   0.984  10.486 -0.0345 -0.5768 -0.3353
  144SAPE   C2115763   3.408   0.869  10.464  0.0700 -0.4493 -0.0478
  144SAPE   O2215764   3.353   0.758  10.486 -0.1102  0.6545 -0.2327
  144SAPE   C2215765   3.544   0.884  10.390  0.8561  0.0412 -0.5327
  144SAPE   H2R15766   3.543   0.975  10.327 -0.1390  1.2981  1.2132
  144SAPE   H2S15767   3.616   0.910  10.471  2.7747 -2.0061 -1.4579
  144SAPE    C315768   3.136   1.013  10.391  0.1146 -0.6258 -0.2281
  144SAPE    HX15769   3.197   1.093  10.343  4.7945 -1.4882  3.5293
  144SAPE    HY15770   3.032   1.049  10.409  0.6312  0.3692  0.9335
  144SAPE   O3115771   3.141   0.894  10.311  0.2623  0.4419  0.1818
  144SAPE   C3115772   3.054   0.798  10.352 -0.3285  0.3726  0.3347
  144SAPE   O3215773   2.976   0.812  10.445 -0.0173  0.2610 -0.1954
  144SAPE   C3215774   3.062   0.675  10.263  0.2053  0.2739 -0.2817
  144SAPE   H2X15775   3.097   0.585  10.318  1.0252  0.6066 -0.2448
  144SAPE   H2Y15776   3.148   0.690  10.196 -1.1198  3.1977 -1.4740
  144SAPE   C2315777   3.602   0.759  10.322  0.0086  0.3472 -0.3042
  144SAPE   H3R15778   3.520   0.723  10.256 -1.9076  2.3785  0.8409
  144SAPE   H3S15779   3.617   0.677  10.397  0.3681  0.1943 -0.5418
  144SAPE   C2415780   3.735   0.792  10.256 -0.0616 -0.6167  0.2375
  144SAPE   H4R15781   3.816   0.815  10.328 -0.2775 -0.2369  0.3592
  144SAPE   H4S15782   3.702   0.882  10.200 -2.1913 -2.0209 -0.9223
  144SAPE   C2515783   3.773   0.687  10.162 -0.6692  0.0231  0.1861
  144SAPE   H5R15784   3.843   0.611  10.200 -1.9566 -0.9691  0.6722
  144SAPE   C2615785   3.732   0.679  10.029  0.0469 -0.1895 -0.1914
  144SAPE   H6R15786   3.771   0.603   9.959  2.2652  3.0453 -2.7570
  144SAPE   C2715787   3.636   0.774   9.956 -0.2824 -0.6687 -0.1102
  144SAPE   H7R15788   3.685   0.845   9.885 -2.2049  0.1235 -0.7124
  144SAPE   H7S15789   3.599   0.856  10.022  0.5649 -0.5048  0.1776
  144SAPE   C2815790   3.527   0.691   9.898  1.4107  0.7515  0.3525
  144SAPE   H8R15791   3.442   0.698   9.968  0.5727  0.0777 -0.5813
  144SAPE   C2915792   3.516   0.640   9.774 -0.1948  0.4556 -0.1628
  144SAPE   H9R15793   3.423   0.583   9.756 -0.0588 -0.1525  0.9879
  144SAPE  C21015794   3.611   0.642   9.657 -0.4221 -0.2294 -0.2172
  144SAPE  H10R15795   3.699   0.705   9.682 -1.0869  0.0378  1.6073
  144SAPE  H10S15796   3.560   0.685   9.568 -0.3011  2.4430  0.9074
  144SAPE  C21115797   3.659   0.499   9.626 -0.2810 -0.0250 -0.4918
  144SAPE  H11R15798   3.721   0.453   9.704 -0.5502  1.4047  0.6113
  144SAPE  C21215799   3.609   0.418   9.530 -0.6093  0.2596  0.3006
  144SAPE  H12R15800   3.643   0.313   9.530 -1.5981 -0.1368 -2.3121
  144SAPE  C21315801   3.505   0.446   9.423  0.0391 -0.3562  0.0650
  144SAPE  H13R15802   3.414   0.481   9.475  0.5438  0.9787  0.0977
  144SAPE  H13S15803   3.489   0.347   9.375  2.8611 -1.0009  0.2645
  144SAPE  C21415804   3.527   0.553   9.316  0.7486  0.4247  0.0424
  144SAPE  H14R15805   3.575   0.640   9.362  3.5152 -0.8860 -0.1702
  144SAPE  C21515806   3.494   0.550   9.185 -0.0864  0.4932  1.0540
  144SAPE  H15R15807   3.510   0.639   9.123 -1.0739  0.0585  0.1331
  144SAPE  C21615808   3.422   0.441   9.106  0.0760  0.3816 -0.0810
  144SAPE  H16R15809   3.365   0.385   9.184 -0.2237  1.3173  0.3822
  144SAPE  H16S15810   3.497   0.378   9.053  1.5942  0.8653  1.3786
  144SAPE  C21715811   3.338   0.503   9.002  0.4763  0.5072  0.5928
  144SAPE  H17R15812   3.401   0.541   8.918  0.5933 -3.2724 -1.2788
  144SAPE  H17S15813   3.277   0.582   9.049 -0.3788 -0.1284  0.5747
  144SAPE  C21815814   3.222   0.403   8.949  0.8211 -0.4013  0.3881
  144SAPE  H18R15815   3.144   0.378   9.024  1.3308 -0.4549  0.9093
  144SAPE  H18S15816   3.278   0.312   8.916 -1.9234 -1.2393 -2.4312
  144SAPE  C21915817   3.139   0.467   8.826 -0.0281  0.2666  0.1887
  144SAPE  H19R15818   3.216   0.472   8.746  0.1565  0.6808  0.3878
  144SAPE  H19S15819   3.110   0.571   8.855  0.1962 -0.0506  1.6052
  144SAPE  C22015820   3.011   0.391   8.791 -1.0103  0.4059  0.0890
  144SAPE  H20R15821   2.967   0.441   8.702 -0.2097  0.4294 -0.3029
  144SAPE  H20S15822   2.940   0.384   8.876 -2.3962  1.1308 -0.9598
  144SAPE  H20T15823   3.032   0.288   8.753 -0.0526  1.1487 -1.4827
  144SAPE   C3315824   2.928   0.640  10.208 -0.0726  0.2841 -0.4789
  144SAPE   H3X15825   2.876   0.732  10.172  1.3229  1.9058  1.3750
  144SAPE   H3Y15826   2.862   0.603  10.290  0.5709 -0.4204 -0.2644
  144SAPE   C3415827   2.929   0.527  10.103 -0.1035 -0.0984 -0.3578
  144SAPE   H4X15828   2.946   0.425  10.145 -2.6292  0.1064  1.3281
  144SAPE   H4Y15829   3.008   0.564  10.034  1.4708 -1.5392  0.5865
  144SAPE   C3515830   2.798   0.512  10.033 -0.4652 -0.5852  0.8792
  144SAPE   H5X15831   2.749   0.609  10.011 -0.1870 -0.4177  1.0015
  144SAPE   H5Y15832   2.724   0.467  10.103 -0.7974 -4.2078 -1.4789
  144SAPE   C3615833   2.791   0.428   9.901  0.4443 -0.1308 -0.0131
  144SAPE   H6X15834   2.682   0.422   9.878  0.5524 -0.4326 -0.4708
  144SAPE   H6Y15835   2.829   0.326   9.925  0.1646 -0.0496  0.8010
  144SAPE   C3715836   2.872   0.486   9.787 -0.6575  0.9905  0.1464
  144SAPE   H7X15837   2.978   0.469   9.816 -0.7000  1.0727  0.3486
  144SAPE   H7Y15838   2.862   0.596   9.785 -1.2219  0.9370 -0.4426
  144SAPE   C3815839   2.832   0.427   9.648  0.2926 -0.1339  0.2112
  144SAPE   H8X15840   2.857   0.320   9.637 -0.1469 -0.0716 -1.9555
  144SAPE   H8Y15841   2.905   0.478   9.581  1.2146  0.7426  1.8328
  144SAPE   C3915842   2.681   0.444   9.623 -0.2254  0.3430  0.2760
  144SAPE   H9X15843   2.624   0.510   9.692  0.0510  0.8148  0.0599
  144SAPE   H9Y15844   2.632   0.345   9.626 -1.5941  0.9282 -1.1813
  144SAPE  C31015845   2.659   0.485   9.470  0.0562 -0.0620  0.1324
  144SAPE  H10X15846   2.701   0.586   9.449 -1.6254  0.6811  0.2125
  144SAPE  H10Y15847   2.548   0.488   9.462 -0.1696 -0.2578  2.3860
  144SAPE  C31115848   2.699   0.383   9.366  0.5930  0.4221  0.1987
  144SAPE  H11X15849   2.654   0.284   9.389  1.0112  0.3584  0.7723
  144SAPE  H11Y15850   2.808   0.363   9.353  0.7676  1.2165  0.3563
  144SAPE  C31215851   2.646   0.417   9.217  0.2686 -0.1399 -0.3938
  144SAPE  H12X15852   2.709   0.501   9.181 -0.4311  0.9640  0.8836
  144SAPE  H12Y15853   2.543   0.458   9.230 -0.4194 -1.0335 -2.5808
  144SAPE  C31315854   2.652   0.302   9.119 -0.5542 -0.0755 -0.8730
  144SAPE  H13X15855   2.585   0.216   9.138  0.3624 -0.6764 -0.3359
  144SAPE  H13Y15856   2.755   0.263   9.124 -0.3671  0.4528 -0.4458
  144SAPE  C31415857   2.619   0.341   8.972 -0.0352  0.2433 -0.1091
  144SAPE  H14X15858   2.686   0.425   8.947 -1.3113  1.3638  0.1018
  144SAPE  H14Y15859   2.519   0.388   8.965  0.4830  1.2536 -0.7865
  144SAPE  C31515860   2.629   0.221   8.876  0.2801  0.8116 -0.3367
  144SAPE  H15X15861   2.700   0.145   8.914 -0.8168 -0.6544 -1.1073
  144SAPE  H15Y15862   2.675   0.252   8.780  3.3545 -3.0213 -0.3669
  144SAPE  C31615863   2.493   0.162   8.849 -0.0431  0.3879 -0.3232
  144SAPE  H16X15864   2.427   0.240   8.805 -0.3406  0.3163 -0.0085
  144SAPE  H16Y15865   2.441   0.149   8.946 -1.2199  1.7319 -0.7294
  144SAPE  C31715866   2.487   0.033   8.766  0.0383  0.7299 -0.0160
  144SAPE  H17X15867   2.535  -0.045   8.830  0.7016  0.7035 -0.5322
  144SAPE  H17Y15868   2.551   0.046   8.675  1.0898  1.0800  0.7543
  144SAPE  C31815869   2.352  -0.015   8.736  0.1276 -0.4617  0.2455
  144SAPE  H18X15870   2.293  -0.043   8.826 -0.4544 -1.1702 -0.3468
  144SAPE  H18Y15871   2.352  -0.103   8.668  1.4142  0.6202 -1.2458
  144SAPE  H18Z15872   2.298   0.070   8.688 -0.1486 -1.3577 -1.0758
  145SAPE     N15873   6.574   3.894  11.197 -0.3815  0.1902 -0.4208
  145SAPE   HN115874   6.580   3.994  11.169  2.1211  0.5574  1.1302
  145SAPE   HN215875   6.659   3.861  11.246 -1.0487  0.4381  0.9513
  145SAPE   HN315876   6.562   3.843  11.107 -2.3965 -2.6146  1.3004
  145SAPE   C1215877   6.448   3.865  11.269  0.1301 -0.4232 -0.4327
  145SAPE  H12A15878   6.359   3.885  11.206 -0.1802 -1.1641 -0.2425
  145SAPE  H12B15879   6.445   3.929  11.360  3.3096 -0.3829 -0.2444
  145SAPE   C1115880   6.443   3.718  11.335  0.0050  0.3669  0.1030
  145SAPE  H11A15881   6.339   3.710  11.374  0.0135 -2.1352 -0.2870
  145SAPE  H11B15882   6.502   3.713  11.430 -1.9394 -0.9503  1.3086
  145SAPE     P15883   6.356   3.551  11.157 -0.2296 -0.5834 -0.2632
  145SAPE   O1315884   6.409   3.441  11.071  0.4530  0.4917 -0.2162
  145SAPE   O1415885   6.240   3.521  11.244 -0.7720 -0.0700  0.3083
  145SAPE   O1215886   6.476   3.612  11.246  0.1437  0.8082  0.1321
  145SAPE   O1115887   6.321   3.673  11.060  0.5693  0.2927 -0.7020
  145SAPE    C115888   6.183   3.695  11.031 -0.1033 -0.4295  0.2234
  145SAPE    HA15889   6.123   3.695  11.124  0.0159  0.6723  0.3170
  145SAPE    HB15890   6.181   3.800  10.994  2.1801  0.0247  1.2483
  145SAPE    C215891   6.140   3.610  10.913 -0.2882 -0.0442 -0.2779
  145SAPE    HS15892   6.167   3.504  10.931 -0.8404 -0.4464 -1.6455
  145SAPE   O2115893   6.212   3.660  10.798  0.5141 -0.0136 -0.1376
  145SAPE   C2115894   6.244   3.570  10.708 -1.1833 -0.4846 -0.3622
  145SAPE   O2215895   6.244   3.451  10.725  0.4478 -0.4969  0.1041
  145SAPE   C2215896   6.274   3.643  10.577  0.1888 -0.0993 -0.5906
  145SAPE   H2R15897   6.239   3.749  10.579 -1.0265 -0.4778 -1.1268
  145SAPE   H2S15898   6.384   3.663  10.576  0.1937  0.1452  1.6281
  145SAPE    C315899   5.985   3.621  10.893  0.1255  0.2893 -0.6061
  145SAPE    HX15900   5.958   3.727  10.914  0.0547  0.5732 -2.0603
  145SAPE    HY15901   5.929   3.571  10.975 -0.1245 -1.0611 -1.5759
  145SAPE   O3115902   5.928   3.592  10.763  0.3878 -0.4246  0.4928
  145SAPE   C3115903   5.866   3.475  10.758  0.4654  0.1144 -0.4402
  145SAPE   O3215904   5.836   3.407  10.855  0.0010 -0.2690 -0.5795
  145SAPE   C3215905   5.838   3.441  10.608 -0.2219  0.2908 -0.7602
  145SAPE   H2X15906   5.849   3.540  10.559  0.6668  2.6851  3.7885
  145SAPE   H2Y15907   5.729   3.424  10.591  0.3110 -1.5153 -2.9156
  145SAPE   C2315908   6.221   3.570  10.454  0.1617  0.3404  0.0082
  145SAPE   H3R15909   6.113   3.590  10.435 -0.2961 -2.8668 -1.5079
  145SAPE   H3S15910   6.237   3.461  10.468 -0.1627  0.2758 -0.1050
  145SAPE   C2415911   6.307   3.598  10.326  0.1508  0.0696 -0.4569
  145SAPE   H4R15912   6.273   3.528  10.247  1.1445  0.5289 -1.3104
  145SAPE   H4S15913   6.416   3.586  10.348  0.3533  0.6123 -1.1250
  145SAPE   C2515914   6.283   3.738  10.268 -0.4693 -0.4304  0.2173
  145SAPE   H5R15915   6.340   3.818  10.318 -0.1407 -1.5322  1.6803
  145SAPE   C2615916   6.228   3.764  10.148 -0.6931 -0.1866 -0.4745
  145SAPE   H6R15917   6.236   3.872  10.130  0.1069 -0.4507 -1.8962
  145SAPE   C2715918   6.168   3.676  10.043  0.9059 -0.0376  0.7566
  145SAPE   H7R15919   6.064   3.714  10.031  0.6035 -0.6653  1.3271
  145SAPE   H7S15920   6.157   3.570  10.073  1.7138 -0.9058 -1.8285
  145SAPE   C2815921   6.250   3.690   9.918 -0.1317 -0.3655 -0.4565
  145SAPE   H8R15922   6.358   3.681   9.939 -0.5414 -0.7178  1.7552
  145SAPE   C2915923   6.203   3.732   9.799 -0.4252  1.7615 -0.6180
  145SAPE   H9R15924   6.276   3.741   9.717 -0.0259 -1.1398 -0.6916
  145SAPE  C21015925   6.066   3.756   9.740 -0.2517 -0.3483  0.0144
  145SAPE  H10R15926   6.069   3.848   9.678 -1.2142 -0.5493 -0.3595
  145SAPE  H10S15927   5.999   3.789   9.821  0.2895 -0.5567  0.5538
  145SAPE  C21115928   6.003   3.638   9.663 -0.0737 -0.1163 -0.6823
  145SAPE  H11R15929   5.970   3.552   9.723 -0.8815  0.2829 -0.5465
  145SAPE  C21215930   5.980   3.616   9.529 -0.5534  0.9607  0.6331
  145SAPE  H12R15931   5.923   3.528   9.495  1.0685 -0.1969  0.8037
  145SAPE  C21315932   6.022   3.708   9.417 -0.0348 -0.5040  0.4880
  145SAPE  H13R15933   6.054   3.646   9.330 -1.9403  1.3256 -1.6474
  145SAPE  H13S15934   6.112   3.767   9.445 -1.3901  1.7322  0.3402
  145SAPE  C21415935   5.910   3.804   9.382  0.0755 -0.8021  0.2063
  145SAPE  H14R15936   5.840   3.828   9.463  2.0690 -0.1288  1.8121
  145SAPE  C21515937   5.889   3.874   9.263 -0.6544  0.0261 -0.5391
  145SAPE  H15R15938   5.799   3.936   9.258 -1.4460 -1.0783 -0.4990
  145SAPE  C21615939   5.971   3.874   9.131 -0.8818  0.3185  0.1240
  145SAPE  H16R15940   6.068   3.823   9.146 -0.5102 -0.2316 -3.3197
  145SAPE  H16S15941   5.977   3.974   9.083  1.3458 -1.2079 -3.1567
  145SAPE  C21715942   5.897   3.780   9.036  0.1326  0.3159  0.1512
  145SAPE  H17R15943   5.917   3.679   9.077  1.5133  0.4704 -0.0847
  145SAPE  H17S15944   5.943   3.781   8.935  0.4914 -0.0020  0.3078
  145SAPE  C21815945   5.747   3.817   9.003 -0.9272 -0.2138 -0.2584
  145SAPE  H18R15946   5.746   3.914   8.949  1.8966  1.4243  2.2805
  145SAPE  H18S15947   5.689   3.836   9.095 -2.6258  2.3532 -1.7200
  145SAPE  C21915948   5.673   3.706   8.930 -0.0185  0.2403  0.1159
  145SAPE  H19R15949   5.628   3.633   9.000  1.0305 -0.9142 -0.3733
  145SAPE  H19S15950   5.755   3.650   8.880  0.0531 -0.9229  1.4889
  145SAPE  C22015951   5.580   3.748   8.824  0.5125 -0.2134 -0.3899
  145SAPE  H20R15952   5.479   3.759   8.871 -0.1350 -1.6059 -1.3716
  145SAPE  H20S15953   5.582   3.661   8.754  0.5514  0.0436 -0.7080
  145SAPE  H20T15954   5.607   3.843   8.774 -0.1423  0.9117  1.2762
  145SAPE   C3315955   5.932   3.329  10.564  0.6150  0.2724 -0.2055
  145SAPE   H3X15956   5.917   3.229  10.609 -0.6617 -0.7734 -2.7369
  145SAPE   H3Y15957   6.034   3.337  10.609  1.8097 -3.0421 -1.9631
  145SAPE   C3415958   5.948   3.310  10.415  0.3931  0.6856 -0.1539
  145SAPE   H4X15959   6.048   3.264  10.403  0.4172  0.6920  0.0151
  145SAPE   H4Y15960   5.937   3.408  10.364 -1.3953  0.9780  0.7123
  145SAPE   C3515961   5.844   3.220  10.346 -0.1189  0.7041 -0.1261
  145SAPE   H5X15962   5.752   3.278  10.323 -0.9869 -0.7008 -0.3094
  145SAPE   H5Y15963   5.828   3.125  10.402 -0.6976  0.9407  0.1228
  145SAPE   C3615964   5.896   3.164  10.212 -0.7865  0.4989  0.0283
  145SAPE   H6X15965   5.811   3.102  10.177 -1.5420 -0.6639  3.4618
  145SAPE   H6Y15966   5.987   3.106  10.240 -1.8420  0.5577  4.3405
  145SAPE   C3715967   5.934   3.268  10.114  0.9732 -0.1203  0.4145
  145SAPE   H7X15968   6.021   3.315  10.165 -0.2296  2.7244  0.0300
  145SAPE   H7Y15969   5.853   3.343  10.097  1.1231 -0.5352 -2.8205
  145SAPE   C3815970   5.976   3.220   9.974  0.2095  0.7519  0.2631
  145SAPE   H8X15971   5.933   3.118   9.977  0.7598  0.4996 -0.4432
  145SAPE   H8Y15972   6.086   3.215   9.960  0.0313  1.2795 -1.5663
  145SAPE   C3915973   5.929   3.304   9.862  0.6037  0.0111  0.0717
  145SAPE   H9X15974   5.969   3.406   9.878 -0.8679  0.6808 -0.2840
  145SAPE   H9Y15975   5.820   3.319   9.880  0.3953  1.7928 -2.1780
  145SAPE  C31015976   5.951   3.237   9.724 -0.7720  0.5493 -0.3843
  145SAPE  H10X15977   6.058   3.235   9.693 -0.5762  0.4273  0.2838
  145SAPE  H10Y15978   5.897   3.312   9.662 -3.2037  2.1697  3.3567
  145SAPE  C31115979   5.870   3.106   9.715  0.4512  0.6437  0.2435
  145SAPE  H11X15980   5.765   3.134   9.741 -0.0822 -1.5480  0.6653
  145SAPE  H11Y15981   5.910   3.029   9.784 -1.9214 -0.3993  0.5905
  145SAPE  C31215982   5.869   3.044   9.578  0.5706 -0.2122  0.5047
  145SAPE  H12X15983   5.810   2.951   9.563  2.2364 -1.2204 -0.0298
  145SAPE  H12Y15984   5.968   3.007   9.545 -0.6396 -0.3136 -3.7227
  145SAPE  C31315985   5.820   3.142   9.461 -0.5779  0.5249  0.0669
  145SAPE  H13X15986   5.751   3.215   9.508 -0.3824 -0.5823  2.1678
  145SAPE  H13Y15987   5.776   3.079   9.381 -0.1948  1.3156 -0.7978
  145SAPE  C31415988   5.940   3.207   9.389 -0.3199 -0.4551 -0.0140
  145SAPE  H14X15989   6.028   3.143   9.367  1.7563  1.7311  1.4292
  145SAPE  H14Y15990   5.982   3.280   9.461 -0.5008 -1.4187  1.0835
  145SAPE  C31515991   5.895   3.301   9.269 -0.6752 -0.3026  0.0602
  145SAPE  H15X15992   5.966   3.387   9.261 -1.6426  0.5455  0.3346
  145SAPE  H15Y15993   5.797   3.344   9.297  1.0793  3.1595  1.5319
  145SAPE  C31615994   5.896   3.240   9.127 -0.1459 -0.1284  0.0703
  145SAPE  H16X15995   5.809   3.171   9.139  0.2276 -0.7496 -0.6854
  145SAPE  H16Y15996   5.983   3.176   9.103 -0.9244 -1.2617  0.1796
  145SAPE  C31715997   5.859   3.340   9.020 -0.1252 -0.2319 -0.4972
  145SAPE  H17X15998   5.784   3.407   9.067 -0.0053 -1.6598  1.8508
  145SAPE  H17Y15999   5.816   3.288   8.931 -1.3399 -0.2746  0.0929
  145SAPE  C31816000   5.978   3.416   8.968  0.3061  0.1478 -0.0053
  145SAPE  H18X16001   5.954   3.487   8.885  1.8462  0.6340 -0.0643
  145SAPE  H18Y16002   6.053   3.349   8.922  0.0922  1.4242 -2.3846
  145SAPE  H18Z16003   6.021   3.460   9.060 -1.3167  0.2380  0.7472
  146SAPE     N16004   4.465   0.527  10.718  0.1576 -0.4414  0.4506
  146SAPE   HN116005   4.391   0.597  10.737 -0.7457 -1.3800  0.4761
  146SAPE   HN216006   4.513   0.553  10.630 -2.0178  1.1210 -0.3640
  146SAPE   HN316007   4.411   0.442  10.692  1.5646 -0.7611 -1.6827
  146SAPE   C1216008   4.569   0.496  10.824 -1.1951  0.8027  0.6495
  146SAPE  H12A16009   4.519   0.513  10.921 -2.0795  1.2830  0.1245
  146SAPE  H12B16010   4.648   0.574  10.824  0.1751 -0.5279  0.1410
  146SAPE   C1116011   4.625   0.350  10.806  0.0794 -0.2162  0.2527
  146SAPE  H11A16012   4.544   0.275  10.821  1.3182 -2.2177 -2.2051
  146SAPE  H11B16013   4.697   0.346  10.890  0.4926  3.6247  0.2226
  146SAPE     P16014   4.830   0.360  10.647 -0.4009  0.0951 -0.1852
  146SAPE   O1316015   4.869   0.476  10.737  0.3664 -0.2777 -0.3009
  146SAPE   O1416016   4.906   0.231  10.661  0.0574  0.2416 -0.0735
  146SAPE   O1216017   4.670   0.337  10.667  0.0605  0.2641 -0.3319
  146SAPE   O1116018   4.831   0.402  10.501  0.2090 -0.1507 -0.8214
  146SAPE    C116019   4.912   0.369  10.394  0.2380  0.5347  0.2947
  146SAPE    HA16020   4.973   0.278  10.413 -1.7082 -0.6842  0.9694
  146SAPE    HB16021   4.842   0.347  10.310  0.8855 -0.2228 -0.0573
  146SAPE    C216022   5.006   0.486  10.357  0.2607 -0.0328  0.1289
  146SAPE    HS16023   5.072   0.494  10.446  2.4734  3.6838 -1.5717
  146SAPE   O2116024   4.929   0.604  10.341  0.3355 -0.3605  0.1417
  146SAPE   C2116025   5.002   0.711  10.343 -0.4948 -0.1821 -0.6007
  146SAPE   O2216026   5.117   0.719  10.382  0.1472 -0.7446  0.0094
  146SAPE   C2216027   4.920   0.838  10.316 -0.0749  0.2249 -0.2234
  146SAPE   H2R16028   4.824   0.803  10.273 -0.1826  0.7228 -0.3987
  146SAPE   H2S16029   4.903   0.905  10.403  1.1298  0.1053  0.1253
  146SAPE    C316030   5.104   0.459  10.239  0.8564  1.2070 -0.6942
  146SAPE    HX16031   5.156   0.362  10.258 -2.4796 -0.8913 -1.5641
  146SAPE    HY16032   5.187   0.533  10.229  1.7621  0.1508 -1.3312
  146SAPE   O3116033   5.024   0.452  10.117 -0.0751 -1.0850  0.3609
  146SAPE   C3116034   5.092   0.404  10.012 -0.0506  0.2235  0.2037
  146SAPE   O3216035   5.200   0.350  10.021 -0.2495 -0.5642  0.6077
  146SAPE   C3216036   5.002   0.400   9.890  0.3889  0.2308 -0.7756
  146SAPE   H2X16037   4.915   0.463   9.915  0.8438 -0.0428  1.6896
  146SAPE   H2Y16038   4.970   0.296   9.868 -0.7544  1.0504 -3.4303
  146SAPE   C2316039   4.985   0.926  10.206 -0.2130  0.2427 -0.0963
  146SAPE   H3R16040   5.079   0.963  10.252 -0.9308  3.7209 -1.1816
  146SAPE   H3S16041   4.931   1.022  10.197 -1.1685 -0.2774 -0.0130
  146SAPE   C2416042   5.018   0.849  10.075 -0.0221 -0.4669  1.0024
  146SAPE   H4R16043   5.067   0.753  10.102  2.5558  0.3252 -0.5431
  146SAPE   H4S16044   5.091   0.907  10.015 -0.7184 -0.9242 -0.3358
  146SAPE   C2516045   4.893   0.819   9.999  0.1606 -0.0734  0.1194
  146SAPE   H5R16046   4.804   0.812  10.063  0.7238  0.4485  0.9835
  146SAPE   C2616047   4.885   0.831   9.866 -0.3633 -0.5813 -0.1950
  146SAPE   H6R16048   4.788   0.825   9.814  0.1466 -0.8318 -1.1314
  146SAPE   C2716049   4.989   0.878   9.770 -0.0319  0.0604 -0.4732
  146SAPE   H7R16050   4.947   0.882   9.667 -1.2680  2.1106  0.0642
  146SAPE   H7S16051   5.066   0.798   9.762 -0.1496 -0.2587  1.2074
  146SAPE   C2816052   5.068   1.004   9.792 -0.0675 -0.5343 -0.0343
  146SAPE   H8R16053   5.033   1.061   9.879 -1.0787 -0.5308 -0.4295
  146SAPE   C2916054   5.168   1.046   9.721 -0.2620  1.3316  0.6724
  146SAPE   H9R16055   5.218   1.143   9.737  3.0852  0.5286 -3.1975
  146SAPE  C21016056   5.237   0.974   9.611 -0.0215 -0.2214  0.4279
  146SAPE  H10R16057   5.184   1.003   9.518  1.1138  0.8124  0.0844
  146SAPE  H10S16058   5.220   0.864   9.613  1.7109 -0.6451 -2.6287
  146SAPE  C21116059   5.385   0.996   9.618 -0.0556 -0.1580  0.2533
  146SAPE  H11R16060   5.432   0.987   9.718  0.6455  3.2964  0.3588
  146SAPE  C21216061   5.465   1.015   9.512 -0.6307 -0.5725  0.2630
  146SAPE  H12R16062   5.572   1.028   9.533 -0.2906  0.1306 -1.6609
  146SAPE  C21316063   5.420   1.013   9.361 -0.3636 -0.2778 -0.7780
  146SAPE  H13R16064   5.321   1.063   9.350  0.0606  0.5562 -0.8930
  146SAPE  H13S16065   5.398   0.907   9.339  1.0271 -0.7267 -0.1414
  146SAPE  C21416066   5.520   1.070   9.265  0.2987 -0.3313  0.1203
  146SAPE  H14R16067   5.594   1.008   9.213 -0.7024 -0.2229 -1.4948
  146SAPE  C21516068   5.522   1.185   9.201  0.0095 -1.2326  0.2041
  146SAPE  H15R16069   5.601   1.212   9.131 -0.7693  0.9693  0.1104
  146SAPE  C21616070   5.416   1.293   9.222 -0.2362 -0.1641 -0.3460
  146SAPE  H16R16071   5.475   1.385   9.241  2.3652 -2.0458  1.3000
  146SAPE  H16S16072   5.348   1.276   9.309  0.6093 -0.9336  0.1838
  146SAPE  C21716073   5.340   1.309   9.096 -0.0711  0.0622 -0.1655
  146SAPE  H17R16074   5.298   1.210   9.067  1.0229 -0.5383  0.2368
  146SAPE  H17S16075   5.413   1.313   9.013  2.7646  0.8360  2.2003
  146SAPE  C21816076   5.234   1.428   9.091 -0.4749  0.3608  0.0225
  146SAPE  H18R16077   5.283   1.526   9.112 -1.4355  0.5913  1.3044
  146SAPE  H18S16078   5.157   1.404   9.167 -1.7632  0.9146 -1.0685
  146SAPE  C21916079   5.154   1.424   8.958 -0.7213  0.2182 -0.4337
  146SAPE  H19R16080   5.127   1.317   8.947 -0.2075 -0.2231  2.0741
  146SAPE  H19S16081   5.237   1.451   8.888  0.8032 -0.4828  1.0269
  146SAPE  C22016082   5.039   1.512   8.953  0.2031  0.8475 -0.1223
  146SAPE  H20R16083   4.957   1.472   9.015  0.8272 -1.2113 -0.5630
  146SAPE  H20S16084   5.000   1.510   8.849 -0.4940  0.5943  0.1410
  146SAPE  H20T16085   5.063   1.616   8.983  0.7217 -0.0326  2.7570
  146SAPE   C3316086   5.082   0.451   9.763  0.1308 -0.0401  0.1056
  146SAPE   H3X16087   5.171   0.388   9.740 -0.1119 -0.1548 -0.5406
  146SAPE   H3Y16088   5.122   0.554   9.769 -0.4950  0.1264  2.0927
  146SAPE   C3416089   4.994   0.435   9.644  1.1109 -0.2527  0.1702
  146SAPE   H4X16090   4.901   0.489   9.671  0.2533 -0.6965 -1.7418
  146SAPE   H4Y16091   4.971   0.330   9.616  1.2703 -0.0047 -0.9407
  146SAPE   C3516092   5.065   0.491   9.518  0.1297 -0.6824 -0.2851
  146SAPE   H5X16093   5.156   0.429   9.497  1.0822  0.7763 -0.5995
  146SAPE   H5Y16094   5.090   0.597   9.536  2.7568 -1.2508 -0.1360
  146SAPE   C3616095   4.976   0.491   9.393  0.2101 -0.8470 -0.3020
  146SAPE   H6X16096   4.911   0.580   9.383  2.6248  1.3010  1.8026
  146SAPE   H6Y16097   4.923   0.394   9.377  1.3357 -1.7802  1.3332
  146SAPE   C3716098   5.052   0.503   9.259  0.1960 -0.8022  0.7623
  146SAPE   H7X16099   5.137   0.432   9.269  1.0468  0.3885  2.4007
  146SAPE   H7Y16100   5.088   0.607   9.249  2.1575 -1.6023 -1.5146
  146SAPE   C3816101   4.977   0.477   9.126  0.1057  0.0120 -0.1697
  146SAPE   H8X16102   4.889   0.545   9.129 -0.4143 -0.6047 -1.0389
  146SAPE   H8Y16103   4.920   0.382   9.121 -2.2205  1.2209  1.3456
  146SAPE   C3916104   5.058   0.493   8.996  0.1001  0.0690  1.0148
  146SAPE   H9X16105   5.146   0.425   8.991 -0.9311 -1.2207 -0.9344
  146SAPE   H9Y16106   5.098   0.596   8.988 -0.8924  0.3730 -0.5607
  146SAPE  C31016107   4.966   0.473   8.870  0.1348 -0.1038  0.1526
  146SAPE  H10X16108   5.024   0.522   8.789 -0.3726 -0.5121 -0.4718
  146SAPE  H10Y16109   4.870   0.530   8.877  0.4456  0.5452 -0.6574
  146SAPE  C31116110   4.949   0.334   8.810  0.9588  0.1519 -0.2253
  146SAPE  H11X16111   4.873   0.290   8.877  1.0513  0.6288  0.2019
  146SAPE  H11Y16112   5.047   0.283   8.822  0.5904 -0.2968  0.9464
  146SAPE  C31216113   4.894   0.324   8.669 -0.3220  0.1985 -1.1126
  146SAPE  H12X16114   4.924   0.413   8.608 -1.6765  0.3062 -1.6550
  146SAPE  H12Y16115   4.785   0.330   8.689 -0.4219 -2.2242 -0.7110
  146SAPE  C31316116   4.935   0.201   8.603 -0.4006 -0.0080 -0.1983
  146SAPE  H13X16117   5.046   0.194   8.612 -0.4414  0.7026  1.0621
  146SAPE  H13Y16118   4.917   0.217   8.495  0.7387 -0.0066 -0.3974
  146SAPE  C31416119   4.873   0.068   8.658  0.3540 -0.2147 -0.0355
  146SAPE  H14X16120   4.763   0.069   8.645  0.1779  0.4906  1.3870
  146SAPE  H14Y16121   4.886   0.053   8.768  1.3718  0.0122 -0.1149
  146SAPE  C31516122   4.925  -0.055   8.583  0.2772 -0.0572 -0.0107
  146SAPE  H15X16123   5.012  -0.093   8.641  1.9564  2.5314 -0.6930
  146SAPE  H15Y16124   4.932  -0.038   8.474 -1.6403 -0.0094 -0.1565
  146SAPE  C31616125   4.828  -0.170   8.582  0.3149  0.0144 -0.0260
  146SAPE  H16X16126   4.731  -0.160   8.528 -1.1794  0.4517  2.5594
  146SAPE  H16Y16127   4.800  -0.185   8.689 -0.9678 -0.9081 -0.4597
  146SAPE  C31716128   4.890  -0.304   8.525  0.0209 -0.2744  0.1243
  146SAPE  H17X16129   4.972  -0.336   8.593  0.3739 -1.2777 -0.7376
  146SAPE  H17Y16130   4.928  -0.279   8.423  1.5852 -1.2529  0.4381
  146SAPE  C31816131   4.788  -0.416   8.519 -0.1596  0.4941  0.0211
  146SAPE  H18X16132   4.779  -0.457   8.621  0.2471 -1.9016 -0.8319
  146SAPE  H18Y16133   4.828  -0.495   8.451 -1.7208  0.9079 -1.4425
  146SAPE  H18Z16134   4.688  -0.390   8.480 -0.2600 -1.5566 -1.2550
  147SAPE     N16135   5.602   0.560   6.072 -0.1663 -0.8853 -0.2708
  147SAPE   HN116136   5.559   0.621   6.144  1.6568 -1.2543  1.1892
  147SAPE   HN216137   5.702   0.581   6.056  0.2766 -3.7973 -1.9738
  147SAPE   HN316138   5.546   0.579   5.986 -1.0083 -2.4160 -0.0913
  147SAPE   C1216139   5.597   0.419   6.114  0.6311  0.4280 -0.3082
  147SAPE  H12A16140   5.581   0.358   6.023 -0.8263  2.1127 -1.2479
  147SAPE  H12B16141   5.510   0.396   6.179 -0.0833 -1.7990 -1.9467
  147SAPE   C1116142   5.733   0.391   6.190  0.2624  0.3393  0.3425
  147SAPE  H11A16143   5.805   0.357   6.113 -0.2288  1.2612 -0.5475
  147SAPE  H11B16144   5.711   0.316   6.269 -0.5181 -0.0347 -0.2184
  147SAPE     P16145   5.935   0.524   6.304  0.3965  0.0856  0.2706
  147SAPE   O1316146   5.996   0.389   6.297  0.2425 -0.0077  0.0644
  147SAPE   O1416147   5.997   0.626   6.224 -0.6735 -0.5467 -0.1780
  147SAPE   O1216148   5.781   0.507   6.257  0.5262 -0.0645 -0.4075
  147SAPE   O1116149   5.919   0.561   6.455  0.5315 -0.3236 -0.2801
  147SAPE    C116150   5.793   0.594   6.518 -0.1578 -0.6064 -0.2345
  147SAPE    HA16151   5.786   0.703   6.538  0.2950 -0.4702 -0.7736
  147SAPE    HB16152   5.705   0.569   6.455 -0.2010  2.3378 -1.5194
  147SAPE    C216153   5.782   0.524   6.656 -0.5951 -0.4244 -0.4008
  147SAPE    HS16154   5.680   0.557   6.687 -0.6190  0.3207 -1.2095
  147SAPE   O2116155   5.874   0.576   6.748  0.2008  0.1670  0.1093
  147SAPE   C2116156   5.838   0.590   6.878 -0.4000  0.1268  0.3512
  147SAPE   O2216157   5.728   0.568   6.927 -0.0821 -0.2413  0.2909
  147SAPE   C2216158   5.970   0.640   6.953  0.4372 -0.9700  0.0569
  147SAPE   H2R16159   6.055   0.569   6.963  4.8389  3.9401  3.0935
  147SAPE   H2S16160   6.014   0.712   6.882 -1.4517 -0.8072 -1.0085
  147SAPE    C316161   5.804   0.373   6.645  0.5975  0.2553 -0.1055
  147SAPE    HX16162   5.907   0.343   6.617 -0.0439 -2.5835  0.2466
  147SAPE    HY16163   5.747   0.339   6.556  0.1796  0.1075  0.2178
  147SAPE   O3116164   5.766   0.299   6.767 -0.0723 -0.1125 -0.7029
  147SAPE   C3116165   5.638   0.278   6.804 -0.0156 -0.3267 -0.1145
  147SAPE   O3216166   5.541   0.311   6.742 -0.7763  0.5332 -0.3768
  147SAPE   C3216167   5.641   0.197   6.930  0.2078  0.4087 -0.6891
  147SAPE   H2X16168   5.718   0.120   6.906 -0.1029 -0.8343  1.9164
  147SAPE   H2Y16169   5.543   0.144   6.939 -0.5891  2.1689  1.9465
  147SAPE   C2316170   5.943   0.700   7.095 -0.0315 -0.4320  0.1764
  147SAPE   H3R16171   5.865   0.779   7.089 -0.3665 -0.4718  2.6809
  147SAPE   H3S16172   6.032   0.751   7.138  1.0669 -0.7853 -1.5679
  147SAPE   C2416173   5.901   0.596   7.202  0.0552  0.5222  0.4360
  147SAPE   H4R16174   5.817   0.531   7.170 -0.4975  1.1486  0.5724
  147SAPE   H4S16175   5.854   0.659   7.282  0.7934  2.2538 -0.4340
  147SAPE   C2516176   6.015   0.514   7.248 -0.3832 -0.3094  0.6248
  147SAPE   H5R16177   6.047   0.430   7.184  1.6943  0.2466  0.8547
  147SAPE   C2616178   6.080   0.525   7.364  0.0276  0.2798 -0.2996
  147SAPE   H6R16179   6.162   0.452   7.377  1.4035  1.7292 -0.5234
  147SAPE   C2716180   6.049   0.617   7.481 -0.2941 -0.1939 -0.7120
  147SAPE   H7R16181   6.092   0.572   7.574 -1.3324 -0.3314 -0.2780
  147SAPE   H7S16182   5.939   0.626   7.496 -0.2690  2.0321 -1.5764
  147SAPE   C2816183   6.111   0.748   7.473 -0.6563  0.1173  0.0019
  147SAPE   H8R16184   6.131   0.791   7.373 -0.2078 -0.6322 -0.2377
  147SAPE   C2916185   6.148   0.828   7.575 -0.5806  0.3916  0.7280
  147SAPE   H9R16186   6.194   0.925   7.553 -0.0945  0.4027  1.7667
  147SAPE  C21016187   6.127   0.789   7.724 -0.2592 -0.0041  0.9901
  147SAPE  H10R16188   6.214   0.731   7.760  0.2173 -0.6599 -1.0761
  147SAPE  H10S16189   6.035   0.726   7.730 -0.3443 -0.4585 -2.7083
  147SAPE  C21116190   6.106   0.910   7.814  0.4007  0.7236  0.4833
  147SAPE  H11R16191   6.119   1.008   7.765 -1.8759  0.7240 -0.2456
  147SAPE  C21216192   6.038   0.904   7.932  0.0905 -0.0353  0.0526
  147SAPE  H12R16193   6.030   0.989   8.001 -1.5200 -1.2294  1.4046
  147SAPE  C21316194   5.984   0.779   7.995  0.7418 -0.3166 -0.8249
  147SAPE  H13R16195   5.932   0.707   7.928  1.2598 -2.0519  0.5676
  147SAPE  H13S16196   5.893   0.819   8.045  0.0232 -1.5314 -1.0945
  147SAPE  C21416197   6.079   0.706   8.082 -0.3650 -0.2508 -0.1686
  147SAPE  H14R16198   6.184   0.711   8.051  0.2691 -0.1224  1.8168
  147SAPE  C21516199   6.035   0.637   8.188 -0.0958  0.1808  0.5790
  147SAPE  H15R16200   6.110   0.608   8.263  0.0488 -0.3872  0.2242
  147SAPE  C21616201   5.886   0.619   8.223 -0.4386  0.0545 -0.2291
  147SAPE  H16R16202   5.874   0.509   8.233 -0.3773  0.1028  0.4820
  147SAPE  H16S16203   5.827   0.642   8.132  1.5140  0.7029 -1.3785
  147SAPE  C21716204   5.830   0.697   8.345  0.1443 -0.7442 -0.1789
  147SAPE  H17R16205   5.812   0.804   8.320 -0.3318 -0.4160  1.4161
  147SAPE  H17S16206   5.915   0.682   8.415  0.1545 -1.2686 -0.3016
  147SAPE  C21816207   5.702   0.635   8.399  0.7491  0.7597 -0.6657
  147SAPE  H18R16208   5.708   0.525   8.414 -3.8641  0.5345  0.9601
  147SAPE  H18S16209   5.615   0.647   8.331 -1.6732  0.2749  2.1573
  147SAPE  C21916210   5.678   0.694   8.535 -0.2332 -0.1164  0.1527
  147SAPE  H19R16211   5.701   0.803   8.526  0.7854 -0.1329  2.0014
  147SAPE  H19S16212   5.743   0.658   8.617 -0.0249  0.7946  0.4004
  147SAPE  C22016213   5.530   0.672   8.581 -0.2768 -0.0942  0.0231
  147SAPE  H20R16214   5.475   0.768   8.572 -2.4292 -1.3011 -0.2789
  147SAPE  H20S16215   5.534   0.643   8.688 -0.1841  0.4447  0.1692
  147SAPE  H20T16216   5.480   0.604   8.509 -0.8519  1.4851 -1.1083
  147SAPE   C3316217   5.659   0.266   7.068 -0.3492  0.3538  0.4741
  147SAPE   H3X16218   5.562   0.307   7.104 -0.4399 -1.3946  2.4304
  147SAPE   H3Y16219   5.739   0.343   7.061  0.2634 -0.1440  1.7530
  147SAPE   C3416220   5.688   0.169   7.184  0.8124 -0.5394  0.1863
  147SAPE   H4X16221   5.784   0.118   7.161  0.4839 -0.1121 -2.4688
  147SAPE   H4Y16222   5.596   0.108   7.182  0.1521  0.4627 -0.5397
  147SAPE   C3516223   5.710   0.245   7.320 -0.7056  0.7283 -0.1106
  147SAPE   H5X16224   5.615   0.294   7.350 -0.8261 -1.0846  2.8437
  147SAPE   H5Y16225   5.770   0.331   7.284  0.1444 -0.8434 -2.7508
  147SAPE   C3616226   5.775   0.176   7.429 -0.8239  0.4261 -0.5515
  147SAPE   H6X16227   5.874   0.139   7.394 -1.0852  0.9620 -1.9162
  147SAPE   H6Y16228   5.714   0.091   7.466  2.1575 -1.0573  1.3186
  147SAPE   C3716229   5.805   0.258   7.558  0.0041  0.2056 -0.2981
  147SAPE   H7X16230   5.831   0.364   7.535  0.5846  0.1478  0.0793
  147SAPE   H7Y16231   5.893   0.211   7.608 -0.1886  1.9248  1.8217
  147SAPE   C3816232   5.708   0.265   7.673 -0.3532  0.9376  0.0620
  147SAPE   H8X16233   5.683   0.164   7.713 -0.1413 -0.5823 -3.2662
  147SAPE   H8Y16234   5.618   0.320   7.640  1.5387  3.0313 -2.0306
  147SAPE   C3916235   5.760   0.350   7.787 -0.9619 -0.2420 -0.2127
  147SAPE   H9X16236   5.676   0.388   7.850  1.0081 -0.3235  2.6652
  147SAPE   H9Y16237   5.816   0.434   7.742 -0.4693 -1.8926 -2.9223
  147SAPE  C31016238   5.859   0.274   7.881  0.1642  0.2190  0.0421
  147SAPE  H10X16239   5.948   0.334   7.911 -0.4953  1.2060  0.0615
  147SAPE  H10Y16240   5.890   0.182   7.827  0.0940 -0.0805  0.5138
  147SAPE  C31116241   5.797   0.239   8.016  0.2096 -0.1790 -0.1312
  147SAPE  H11X16242   5.776   0.335   8.067 -0.3133 -1.4091  2.0914
  147SAPE  H11Y16243   5.878   0.187   8.070  0.6054  3.2829  2.9712
  147SAPE  C31216244   5.668   0.154   8.005  0.3463 -0.2192 -0.2140
  147SAPE  H12X16245   5.685   0.060   7.948 -2.8293 -0.7789 -0.4422
  147SAPE  H12Y16246   5.580   0.207   7.960 -0.5189 -0.4236  1.1837
  147SAPE  C31316247   5.627   0.105   8.144  0.3159 -0.9697  0.6514
  147SAPE  H13X16248   5.723   0.073   8.189  1.0066 -0.4740 -0.4348
  147SAPE  H13Y16249   5.554   0.021   8.133 -1.7540  0.8101 -0.0463
  147SAPE  C31416250   5.557   0.217   8.234 -0.5871  0.2263 -0.6419
  147SAPE  H14X16251   5.454   0.227   8.193 -1.1362  2.4213  1.1055
  147SAPE  H14Y16252   5.623   0.306   8.238  0.9524 -0.8979  2.7174
  147SAPE  C31516253   5.536   0.166   8.381  0.6280  0.2853 -0.3251
  147SAPE  H15X16254   5.633   0.142   8.429  0.1223  1.1886  1.1906
  147SAPE  H15Y16255   5.467   0.078   8.369  1.5739 -0.4380 -0.5892
  147SAPE  C31616256   5.459   0.268   8.471 -0.1084  0.1591  0.3017
  147SAPE  H16X16257   5.518   0.354   8.432  1.8950 -1.1036  0.4198
  147SAPE  H16Y16258   5.477   0.253   8.580 -0.9485 -1.2862  0.2608
  147SAPE  C31716259   5.304   0.275   8.459  0.1023  0.6111 -0.2060
  147SAPE  H17X16260   5.258   0.175   8.468  0.2779  0.7103  2.8367
  147SAPE  H17Y16261   5.279   0.297   8.353 -0.1697  0.1489 -0.2402
  147SAPE  C31816262   5.240   0.364   8.560  0.4998 -0.0051  0.2634
  147SAPE  H18X16263   5.136   0.388   8.529 -0.1111 -0.7659  1.6405
  147SAPE  H18Y16264   5.290   0.463   8.563  0.8369 -0.0415 -2.1208
  147SAPE  H18Z16265   5.240   0.316   8.660 -1.7683 -0.2100  0.2119
  148SAPE     N16266   1.590   4.758   6.513  0.5396 -0.3898 -0.0663
  148SAPE   HN116267   1.639   4.741   6.603  2.7392  2.2075 -0.6563
  148SAPE   HN216268   1.649   4.711   6.441 -0.8317  0.7811 -2.0483
  148SAPE   HN316269   1.581   4.860   6.499 -3.8104 -0.3225  1.5871
  148SAPE   C1216270   1.452   4.699   6.520  0.2319 -0.7557  0.3182
  148SAPE  H12A16271   1.403   4.711   6.421 -1.6829 -0.6714  1.2455
  148SAPE  H12B16272   1.405   4.768   6.593  0.8633 -1.6705  1.6316
  148SAPE   C1116273   1.435   4.559   6.569 -0.1791  0.4071 -0.4342
  148SAPE  H11A16274   1.329   4.536   6.545  0.2230 -2.0748 -0.0984
  148SAPE  H11B16275   1.450   4.537   6.677  1.1225  1.2044 -0.4416
  148SAPE     P16276   1.526   4.312   6.518 -0.2632 -0.0911  0.2122
  148SAPE   O1316277   1.461   4.246   6.403 -0.2426  0.0366 -0.0920
  148SAPE   O1416278   1.666   4.291   6.555  0.4355  0.3717 -0.1565
  148SAPE   O1216279   1.513   4.468   6.492  0.3736  0.7551 -0.6417
  148SAPE   O1116280   1.441   4.299   6.644 -0.1843  0.0391  0.2899
  148SAPE    C116281   1.442   4.188   6.733  0.0337  0.8644 -0.9050
  148SAPE    HA16282   1.347   4.130   6.736  1.0572 -1.1424 -3.5113
  148SAPE    HB16283   1.526   4.124   6.698  0.2079  0.3463  0.4121
  148SAPE    C216284   1.481   4.239   6.884 -0.0190  0.5282  0.7499
  148SAPE    HS16285   1.493   4.151   6.950  0.4612 -1.1643 -1.4849
  148SAPE   O2116286   1.378   4.325   6.935 -0.7351 -0.1790 -0.0822
  148SAPE   C2116287   1.275   4.255   6.968 -0.1057  0.8023  0.5561
  148SAPE   O2216288   1.258   4.139   6.938 -0.0952 -0.3395  0.2504
  148SAPE   C2216289   1.170   4.329   7.052  0.5395  0.1801 -0.3287
  148SAPE   H2R16290   1.116   4.390   6.976 -0.8087  0.3410  0.7113
  148SAPE   H2S16291   1.082   4.269   7.085 -0.1788  1.9039  1.0611
  148SAPE    C316292   1.612   4.312   6.887  0.1003  0.0908 -0.1139
  148SAPE    HX16293   1.610   4.411   6.835  2.6894  0.2112 -0.0950
  148SAPE    HY16294   1.676   4.256   6.815 -1.5020 -1.8041 -0.1496
  148SAPE   O3116295   1.671   4.314   7.013 -0.2176 -0.3233  0.1032
  148SAPE   C3116296   1.659   4.421   7.094  0.6437 -0.4194  0.7848
  148SAPE   O3216297   1.595   4.522   7.060 -0.1016 -0.0441 -0.2855
  148SAPE   C3216298   1.703   4.391   7.242  0.0106  0.5631  1.2912
  148SAPE   H2X16299   1.802   4.342   7.243 -1.4854 -2.8111 -0.1283
  148SAPE   H2Y16300   1.639   4.308   7.279  0.5245 -1.4526 -1.9681
  148SAPE   C2316301   1.229   4.427   7.163 -0.6272  0.3101  0.6746
  148SAPE   H3R16302   1.161   4.502   7.207 -1.6280 -0.5809  0.7061
  148SAPE   H3S16303   1.306   4.488   7.112  0.2009  0.8945  2.5215
  148SAPE   C2416304   1.280   4.346   7.283  0.5051  0.3235  0.3970
  148SAPE   H4R16305   1.326   4.427   7.343  2.3887 -0.5024  0.1276
  148SAPE   H4S16306   1.360   4.275   7.252  0.0709 -0.3566  0.8024
  148SAPE   C2516307   1.162   4.287   7.359 -0.1028 -0.2430  0.8926
  148SAPE   H5R16308   1.131   4.188   7.322  2.2496 -1.0422  0.9076
  148SAPE   C2616309   1.106   4.335   7.467 -0.3114 -0.1526 -1.1410
  148SAPE   H6R16310   1.016   4.286   7.505 -0.6186  1.2680  0.0701
  148SAPE   C2716311   1.143   4.463   7.545  0.0520  0.8531  0.5154
  148SAPE   H7R16312   1.172   4.544   7.475  1.4582  0.5227  0.6897
  148SAPE   H7S16313   1.240   4.459   7.599 -0.2699  3.2314  1.3784
  148SAPE   C2816314   1.032   4.517   7.637  0.3284 -0.1346  0.2375
  148SAPE   H8R16315   0.989   4.613   7.604  1.7483 -0.0394 -1.4864
  148SAPE   C2916316   1.004   4.476   7.761 -0.0389  0.4805  0.3180
  148SAPE   H9R16317   0.921   4.532   7.806  0.6271  1.6103  0.1894
  148SAPE  C21016318   1.064   4.354   7.827 -0.0246  0.1291 -0.1739
  148SAPE  H10R16319   1.046   4.262   7.768 -0.0690  0.2531 -0.3542
  148SAPE  H10S16320   1.005   4.334   7.919 -0.4058  0.9853 -0.2181
  148SAPE  C21116321   1.215   4.355   7.857 -0.2141 -0.8502 -0.5338
  148SAPE  H11R16322   1.278   4.395   7.776 -0.0436  0.7071  0.3254
  148SAPE  C21216323   1.275   4.337   7.975 -0.4331  0.1512 -0.3486
  148SAPE  H12R16324   1.384   4.352   7.972 -0.4079 -0.0953 -0.6422
  148SAPE  C21316325   1.208   4.284   8.097 -0.1171  1.0485 -0.9349
  148SAPE  H13R16326   1.139   4.201   8.073 -1.7229  2.5657 -1.7804
  148SAPE  H13S16327   1.144   4.361   8.144  0.2987 -0.5073  2.4535
  148SAPE  C21416328   1.294   4.223   8.208 -0.2576  0.1703 -0.0048
  148SAPE  H14R16329   1.324   4.118   8.197 -1.0499 -0.0721  0.0558
  148SAPE  C21516330   1.342   4.279   8.321  0.1203  0.0927 -0.1959
  148SAPE  H15R16331   1.403   4.218   8.388 -0.8537  1.0192  1.6030
  148SAPE  C21616332   1.333   4.427   8.353  1.2493 -0.1950 -0.7339
  148SAPE  H16R16333   1.277   4.455   8.445  0.9830  0.3039 -1.0397
  148SAPE  H16S16334   1.268   4.470   8.273 -1.4298  0.0473  1.4396
  148SAPE  C21716335   1.469   4.484   8.358 -0.2303 -0.7962  0.3250
  148SAPE  H17R16336   1.534   4.439   8.281 -0.3024 -0.0211 -0.1914
  148SAPE  H17S16337   1.523   4.463   8.453 -1.0345  1.1767  1.2631
  148SAPE  C21816338   1.476   4.643   8.330 -0.2404  1.0081  0.0122
  148SAPE  H18R16339   1.584   4.666   8.335  0.3718 -1.3926 -1.0906
  148SAPE  H18S16340   1.422   4.695   8.412 -0.0913 -1.7150  1.9428
  148SAPE  C21916341   1.422   4.678   8.195 -0.5361  0.0397 -0.0132
  148SAPE  H19R16342   1.320   4.638   8.179 -0.7448  0.8374 -0.8184
  148SAPE  H19S16343   1.485   4.650   8.108 -0.3296 -0.0294  0.1572
  148SAPE  C22016344   1.412   4.837   8.191 -0.0020 -0.1562  0.3023
  148SAPE  H20R16345   1.407   4.862   8.083 -1.7579 -0.5037  0.2786
  148SAPE  H20S16346   1.496   4.890   8.240  0.9329 -0.9039 -0.4405
  148SAPE  H20T16347   1.313   4.869   8.230 -0.8679 -0.5855 -1.4034
  148SAPE   C3316348   1.672   4.511   7.335 -0.2434 -0.0198 -1.1037
  148SAPE   H3X16349   1.562   4.522   7.342 -0.3003 -0.9466 -0.4347
  148SAPE   H3Y16350   1.721   4.603   7.295  1.9942 -0.9628 -0.6594
  148SAPE   C3416351   1.719   4.495   7.483  0.2233  0.2765  0.0779
  148SAPE   H4X16352   1.830   4.499   7.488  0.5234 -2.7822 -1.6645
  148SAPE   H4Y16353   1.688   4.392   7.511 -0.9737  0.8417  0.8937
  148SAPE   C3516354   1.650   4.589   7.581 -0.1185 -0.1167 -0.5318
  148SAPE   H5X16355   1.540   4.585   7.564 -1.1647  3.0814  3.6704
  148SAPE   H5Y16356   1.683   4.693   7.563  4.2790 -1.1077  0.5351
  148SAPE   C3616357   1.661   4.557   7.730 -0.4974  0.1644  0.2551
  148SAPE   H6X16358   1.621   4.455   7.749 -0.0984 -0.1038 -0.2974
  148SAPE   H6Y16359   1.589   4.622   7.784 -1.1578 -0.2519 -0.1150
  148SAPE   C3716360   1.796   4.571   7.796  0.3141  0.4453  0.7601
  148SAPE   H7X16361   1.843   4.664   7.759 -1.1877  1.7702  2.0246
  148SAPE   H7Y16362   1.873   4.499   7.762 -0.6039 -0.2788  0.1658
  148SAPE   C3816363   1.774   4.589   7.941 -0.1061 -0.0184 -0.1047
  148SAPE   H8X16364   1.750   4.492   7.990  1.0858 -0.3909 -0.2278
  148SAPE   H8Y16365   1.694   4.661   7.965 -0.5906 -1.0057  1.3690
  148SAPE   C3916366   1.905   4.625   8.017  0.2113 -0.3618  0.1221
  148SAPE   H9X16367   1.950   4.724   7.994  0.2928 -0.8335 -1.9947
  148SAPE   H9Y16368   1.989   4.557   7.990  0.7612  0.2328  0.3131
  148SAPE  C31016369   1.873   4.630   8.165 -0.5215  0.2230 -0.4758
  148SAPE  H10X16370   1.827   4.536   8.199 -0.3552  0.2861 -0.0761
  148SAPE  H10Y16371   1.803   4.710   8.197 -0.9139  0.1017 -1.0097
  148SAPE  C31116372   1.999   4.630   8.250 -0.3638 -0.2915 -0.8471
  148SAPE  H11X16373   2.046   4.729   8.229  0.2887 -0.0424  1.5447
  148SAPE  H11Y16374   2.077   4.557   8.221 -0.1481 -0.2772 -0.3150
  148SAPE  C31216375   1.978   4.637   8.406  0.0054 -0.8016 -0.2543
  148SAPE  H12X16376   1.917   4.729   8.417 -2.0487 -2.0041 -1.1953
  148SAPE  H12Y16377   2.075   4.645   8.460  0.3789 -3.4958 -0.3887
  148SAPE  C31316378   1.904   4.522   8.476 -1.0232  0.2348  1.4629
  148SAPE  H13X16379   1.937   4.422   8.442 -2.5763  0.8611 -2.3651
  148SAPE  H13Y16380   1.797   4.530   8.447 -1.2187 -1.4206  1.6403
  148SAPE  C31416381   1.912   4.521   8.629  0.1604  0.5272 -0.0477
  148SAPE  H14X16382   1.875   4.616   8.673 -0.8787  0.2255 -0.2415
  148SAPE  H14Y16383   2.021   4.516   8.653 -0.2096  0.8269  1.8588
  148SAPE  C31516384   1.826   4.416   8.702 -0.0878 -0.2035 -0.1217
  148SAPE  H15X16385   1.854   4.313   8.672 -0.1018 -1.3636  3.3583
  148SAPE  H15Y16386   1.719   4.426   8.676 -0.0416  0.2354 -0.1612
  148SAPE  C31616387   1.825   4.411   8.856  0.6223  0.4888 -0.3730
  148SAPE  H16X16388   1.748   4.337   8.886  1.9525 -1.5191 -1.6266
  148SAPE  H16Y16389   1.790   4.509   8.893 -1.2576 -0.5759  0.8338
  148SAPE  C31716390   1.964   4.374   8.913 -0.0537 -0.2299  1.1109
  148SAPE  H17X16391   2.036   4.451   8.878  0.6044 -1.4702 -0.3672
  148SAPE  H17Y16392   1.990   4.280   8.859 -4.5861 -1.4277  0.5949
  148SAPE  C31816393   1.968   4.347   9.055  0.3561  0.0556  0.3006
  148SAPE  H18X16394   2.068   4.308   9.086  0.5391 -1.3006 -1.8242
  148SAPE  H18Y16395   1.896   4.267   9.082 -0.3742  0.9940  1.1936
  148SAPE  H18Z16396   1.951   4.438   9.116  1.0930 -1.6223  3.2227
  149SAPE     N16397   6.114   4.897   6.219 -0.0883 -1.5068 -0.2926
  149SAPE   HN116398   6.117   4.793   6.230 -1.0102 -1.2763  3.7702
  149SAPE   HN216399   6.016   4.913   6.250  0.9214  0.0013  2.4563
  149SAPE   HN316400   6.133   4.923   6.121 -0.5335 -0.0303 -0.0062
  149SAPE   C1216401   6.210   4.949   6.323  0.2548 -0.3123  0.8362
  149SAPE  H12A16402   6.261   5.040   6.285 -2.4595  1.0114  0.1567
  149SAPE  H12B16403   6.287   4.871   6.343 -0.8014 -1.9865 -1.2982
  149SAPE   C1116404   6.126   4.985   6.454 -0.2188 -0.0538 -0.0481
  149SAPE  H11A16405   6.195   5.023   6.533 -0.2352 -1.4751  0.6834
  149SAPE  H11B16406   6.083   4.890   6.492 -1.1967 -0.4721 -2.0758
  149SAPE     P16407   6.026   5.225   6.379  0.7223  0.3425  0.3579
  149SAPE   O1316408   6.163   5.257   6.340  0.5177 -0.4469  0.9438
  149SAPE   O1416409   5.917   5.254   6.280 -0.5592 -0.3530  0.1737
  149SAPE   O1216410   6.015   5.071   6.418 -0.2027 -0.3450 -0.4246
  149SAPE   O1116411   5.995   5.300   6.512 -0.3421  0.2703  0.2277
  149SAPE    C116412   6.094   5.311   6.616  0.2170  0.7501 -0.7230
  149SAPE    HA16413   6.200   5.288   6.589 -0.1199  0.7649 -2.1336
  149SAPE    HB16414   6.088   5.411   6.663 -0.5933  0.8033 -0.9269
  149SAPE    C216415   6.061   5.215   6.735 -0.8694 -0.5866  0.5951
  149SAPE    HS16416   6.063   5.113   6.691 -0.5292 -0.6324  0.7118
  149SAPE   O2116417   5.922   5.248   6.770 -0.0968  0.1121  0.2840
  149SAPE   C2116418   5.841   5.155   6.808 -0.5773  1.2379 -0.7554
  149SAPE   O2216419   5.872   5.033   6.826 -0.0884 -0.3598  0.5302
  149SAPE   C2216420   5.701   5.199   6.824  0.4597  0.1460  0.1550
  149SAPE   H2R16421   5.697   5.306   6.854 -2.1150 -0.3462  1.9087
  149SAPE   H2S16422   5.641   5.195   6.731  1.1811 -0.8238 -0.2940
  149SAPE    C316423   6.160   5.232   6.854 -0.4094 -0.7784  0.0930
  149SAPE    HX16424   6.174   5.342   6.864 -0.1057 -0.5933 -1.9733
  149SAPE    HY16425   6.261   5.190   6.833 -1.1829 -2.3758 -0.6509
  149SAPE   O3116426   6.119   5.179   6.982  0.2151  0.1724  0.2373
  149SAPE   C3116427   6.151   5.055   7.007  0.0771 -0.7458 -0.0666
  149SAPE   O3216428   6.221   4.987   6.943  0.1499  0.3241  0.1303
  149SAPE   C3216429   6.078   5.002   7.126 -1.0146 -0.4124  0.2821
  149SAPE   H2X16430   6.148   4.924   7.163  0.4638 -0.2155 -1.9450
  149SAPE   H2Y16431   5.991   4.949   7.081 -1.7191  2.7819 -2.4742
  149SAPE   C2316432   5.629   5.115   6.941  0.2076 -0.3798  0.3476
  149SAPE   H3R16433   5.704   5.079   7.015 -1.2053  0.8339  2.4584
  149SAPE   H3S16434   5.580   5.027   6.893  0.4056  0.6244 -1.8406
  149SAPE   C2416435   5.523   5.201   7.017  0.2041 -0.5169 -0.1374
  149SAPE   H4R16436   5.468   5.123   7.074 -0.5370  1.4196  1.9421
  149SAPE   H4S16437   5.448   5.240   6.946 -0.5236  0.8199  1.3017
  149SAPE   C2516438   5.565   5.310   7.111 -0.3716 -0.6888 -0.4492
  149SAPE   H5R16439   5.589   5.408   7.066 -1.7837  1.7568  3.6151
  149SAPE   C2616440   5.556   5.324   7.244  0.6323 -0.2588  0.0661
  149SAPE   H6R16441   5.593   5.419   7.285 -0.0156 -1.0895  2.7654
  149SAPE   C2716442   5.510   5.223   7.345  0.7241 -0.4077  0.4766
  149SAPE   H7R16443   5.570   5.237   7.437 -0.3986 -2.8627  1.6596
  149SAPE   H7S16444   5.516   5.116   7.315 -2.2348 -0.9879  1.6580
  149SAPE   C2816445   5.362   5.246   7.370  0.2798  0.2522  0.1881
  149SAPE   H8R16446   5.309   5.280   7.279  1.1962  3.2829  0.6628
  149SAPE   C2916447   5.297   5.253   7.487  0.5481  0.0722  0.6422
  149SAPE   H9R16448   5.191   5.283   7.480  0.5166 -0.1537  0.1208
  149SAPE  C21016449   5.341   5.247   7.634  0.4018  0.1427  0.8353
  149SAPE  H10R16450   5.281   5.329   7.680 -0.5924 -0.9040  1.4415
  149SAPE  H10S16451   5.446   5.283   7.640 -0.3525  2.8682 -0.4438
  149SAPE  C21116452   5.334   5.122   7.713 -0.5233  0.0245  0.2999
  149SAPE  H11R16453   5.338   5.032   7.649  2.2380 -0.8176  1.5105
  149SAPE  C21216454   5.312   5.112   7.843  0.5085 -0.9242  0.3307
  149SAPE  H12R16455   5.295   5.009   7.877  1.8247 -0.1240  3.9091
  149SAPE  C21316456   5.298   5.224   7.944 -0.1439 -0.3921  0.9819
  149SAPE  H13R16457   5.191   5.256   7.946 -0.6773 -2.1383  2.5188
  149SAPE  H13S16458   5.366   5.306   7.913  0.3086 -1.1886 -0.2084
  149SAPE  C21416459   5.337   5.179   8.084 -0.8567  0.4345  0.2825
  149SAPE  H14R16460   5.446   5.192   8.094 -0.5802  0.7089 -2.3174
  149SAPE  C21516461   5.262   5.134   8.181  0.3314  0.0154  0.2282
  149SAPE  H15R16462   5.307   5.092   8.272 -2.5069 -0.4516  1.5365
  149SAPE  C21616463   5.112   5.123   8.176 -0.0654 -0.0158  1.1265
  149SAPE  H16R16464   5.075   5.034   8.232 -0.7778 -2.1769 -2.4522
  149SAPE  H16S16465   5.070   5.112   8.074  0.4211 -0.3371  0.9566
  149SAPE  C21716466   5.055   5.253   8.248 -0.1556 -0.3534  0.1644
  149SAPE  H17R16467   4.946   5.243   8.229 -0.5282 -0.4948  2.1518
  149SAPE  H17S16468   5.082   5.354   8.210 -3.5984 -0.0459 -1.9579
  149SAPE  C21816469   5.079   5.256   8.403 -0.6493  0.0335  0.0203
  149SAPE  H18R16470   5.189   5.259   8.412 -0.7163  0.0615  1.0037
  149SAPE  H18S16471   5.043   5.166   8.457 -0.0860  1.3484  2.8008
  149SAPE  C21916472   5.018   5.385   8.470  0.5009  0.2761  0.4748
  149SAPE  H19R16473   4.910   5.376   8.445  0.4031  2.7355 -0.2594
  149SAPE  H19S16474   5.064   5.475   8.424  0.2137 -1.1567 -2.9334
  149SAPE  C22016475   5.030   5.382   8.624 -0.6608 -0.0407  0.9699
  149SAPE  H20R16476   4.967   5.463   8.665  1.8967  1.0459  3.0077
  149SAPE  H20S16477   5.134   5.384   8.663 -0.0674 -1.3357 -0.4105
  149SAPE  H20T16478   4.981   5.285   8.649  0.6680 -0.1886  3.2260
  149SAPE   C3316479   6.013   5.097   7.228 -0.2690  0.3773  0.9567
  149SAPE   H3X16480   5.925   5.140   7.176 -1.4160 -0.7802  1.8546
  149SAPE   H3Y16481   6.089   5.177   7.244  0.5527 -0.3785  0.9453
  149SAPE   C3416482   5.962   5.032   7.354  0.1560 -0.0687  0.4011
  149SAPE   H4X16483   6.043   4.974   7.403  0.7594 -0.9640 -1.5790
  149SAPE   H4Y16484   5.881   4.966   7.316 -0.9284  0.2508  2.0534
  149SAPE   C3516485   5.905   5.139   7.444  0.2263 -0.3804 -0.3357
  149SAPE   H5X16486   5.805   5.161   7.400  0.4563  1.0085 -0.2291
  149SAPE   H5Y16487   5.959   5.236   7.442  0.1382 -0.2785  1.3170
  149SAPE   C3616488   5.883   5.102   7.592  0.6249  0.6942 -0.7037
  149SAPE   H6X16489   5.979   5.102   7.647  0.4812 -0.2973 -0.4396
  149SAPE   H6Y16490   5.846   4.997   7.590  0.5275  0.7282 -0.7016
  149SAPE   C3716491   5.786   5.200   7.659  0.6108 -0.3612  0.3313
  149SAPE   H7X16492   5.693   5.198   7.598  0.9022 -1.1769 -0.0948
  149SAPE   H7Y16493   5.815   5.307   7.659 -1.5974  0.2971  0.1110
  149SAPE   C3816494   5.763   5.159   7.800  0.9397  0.0722  0.2196
  149SAPE   H8X16495   5.740   5.052   7.817  0.2227  0.1257 -0.3489
  149SAPE   H8Y16496   5.671   5.211   7.834  0.9134  0.1198  0.0750
  149SAPE   C3916497   5.879   5.191   7.891 -0.0826 -0.0032  0.5331
  149SAPE   H9X16498   5.894   5.301   7.892 -1.8067  0.2571  1.8347
  149SAPE   H9Y16499   5.973   5.138   7.862 -0.9896 -0.5963 -1.4543
  149SAPE  C31016500   5.849   5.142   8.035  0.5204  0.0209 -0.3452
  149SAPE  H10X16501   5.835   5.032   8.030 -1.9330  0.2735 -0.5870
  149SAPE  H10Y16502   5.747   5.185   8.049  0.6135  0.2885 -0.4621
  149SAPE  C31116503   5.955   5.199   8.129 -0.0071  0.0891 -0.5429
  149SAPE  H11X16504   5.948   5.309   8.133 -1.5012  0.0298 -0.9493
  149SAPE  H11Y16505   6.060   5.177   8.100 -0.3669 -0.9011 -1.1325
  149SAPE  C31216506   5.931   5.144   8.274  0.4380 -0.5109 -0.7937
  149SAPE  H12X16507   5.938   5.034   8.280 -1.0643 -0.5591  1.0541
  149SAPE  H12Y16508   5.829   5.176   8.305  0.0044 -0.6711 -2.0195
  149SAPE  C31316509   6.029   5.186   8.383 -0.1820 -0.8727  0.0851
  149SAPE  H13X16510   6.049   5.296   8.381  0.5470 -0.9700  1.2995
  149SAPE  H13Y16511   6.127   5.139   8.362 -0.0715 -1.3419  1.5291
  149SAPE  C31416512   5.975   5.164   8.518  0.1301  0.5028 -0.0537
  149SAPE  H14X16513   5.967   5.056   8.540  1.4774  0.3160 -0.4165
  149SAPE  H14Y16514   5.880   5.218   8.540  0.8156  1.3744  0.8537
  149SAPE  C31516515   6.075   5.218   8.616  0.1309  0.0667 -0.4169
  149SAPE  H15X16516   6.074   5.329   8.618  1.4049  0.1072 -1.0066
  149SAPE  H15Y16517   6.177   5.172   8.614  0.9925  1.6075  2.5845
  149SAPE  C31616518   6.030   5.175   8.757 -0.4282 -0.2314 -0.2182
  149SAPE  H16X16519   6.018   5.064   8.758 -1.2984 -0.1487 -0.3036
  149SAPE  H16Y16520   5.939   5.224   8.798  0.2661 -1.3291  2.9719
  149SAPE  C31716521   6.134   5.229   8.864  0.5036  0.6869 -0.2217
  149SAPE  H17X16522   6.102   5.334   8.885  2.8667  1.8160 -1.7586
  149SAPE  H17Y16523   6.236   5.222   8.820  1.0855 -0.9302  1.2879
  149SAPE  C31816524   6.134   5.145   8.993  0.2701  0.8871  0.2537
  149SAPE  H18X16525   6.197   5.183   9.076  0.6371  1.2625 -0.2017
  149SAPE  H18Y16526   6.163   5.039   8.975 -0.4270  0.8598 -0.7876
  149SAPE  H18Z16527   6.033   5.139   9.041 -0.0650  0.4863 -0.4848
  150SAPE     N16528   3.111   4.797   6.109 -0.4859 -0.5111  0.3826
  150SAPE   HN116529   3.170   4.869   6.062 -0.2560 -0.4315  0.7845
  150SAPE   HN216530   3.115   4.710   6.052  0.4459 -0.5708  0.5140
  150SAPE   HN316531   3.012   4.827   6.109 -0.4159 -0.2633  0.6890
  150SAPE   C1216532   3.162   4.768   6.250 -0.0164 -0.2815  0.1313
  150SAPE  H12A16533   3.264   4.724   6.252 -1.1170 -2.9604  2.0099
  150SAPE  H12B16534   3.102   4.693   6.304  0.8433  0.2469  1.9033
  150SAPE   C1116535   3.160   4.897   6.332  0.3223 -0.5076 -0.2667
  150SAPE  H11A16536   3.212   4.883   6.429  1.3405 -0.4813 -0.7923
  150SAPE  H11B16537   3.053   4.912   6.360  0.0958  1.5045 -1.9410
  150SAPE     P16538   3.362   5.054   6.245 -0.1525 -0.2472  0.2630
  150SAPE   O1316539   3.442   4.947   6.191 -0.4124  0.4370  0.2675
  150SAPE   O1416540   3.364   5.186   6.173 -0.5246  0.0618 -0.2358
  150SAPE   O1216541   3.213   5.011   6.258  0.0558  0.2415 -0.2696
  150SAPE   O1116542   3.401   5.082   6.400 -0.1059  0.4929 -0.1110
  150SAPE    C116543   3.320   5.177   6.473 -0.4165  0.4741 -0.0275
  150SAPE    HA16544   3.284   5.255   6.402  1.8757  0.0141 -1.8412
  150SAPE    HB16545   3.236   5.124   6.522 -0.4906 -0.2310 -0.8835
  150SAPE    C216546   3.401   5.259   6.579  0.0066 -0.3945  0.0138
  150SAPE    HS16547   3.497   5.289   6.529 -0.9734  0.0257 -1.7115
  150SAPE   O2116548   3.425   5.168   6.685 -0.3381 -0.0082  0.6805
  150SAPE   C2116549   3.533   5.196   6.766  0.3195  0.0345 -0.3411
  150SAPE   O2216550   3.620   5.278   6.742  0.8998 -0.1317  0.3445
  150SAPE   C2216551   3.518   5.116   6.893 -0.2070 -0.1063  0.4309
  150SAPE   H2R16552   3.458   5.027   6.866  0.2457  0.1268 -1.4954
  150SAPE   H2S16553   3.619   5.080   6.920 -0.6224 -0.5809  1.3850
  150SAPE    C316554   3.314   5.386   6.616 -0.5914 -0.7509 -0.0818
  150SAPE    HX16555   3.214   5.339   6.631 -0.1245 -1.8173 -0.2004
  150SAPE    HY16556   3.297   5.457   6.532  1.4716  0.0819  0.1679
  150SAPE   O3116557   3.366   5.459   6.730  0.4643  0.2219 -0.0988
  150SAPE   C3116558   3.464   5.544   6.705 -0.5346 -0.0052  0.9763
  150SAPE   O3216559   3.518   5.556   6.595  0.4815  0.3195 -0.3027
  150SAPE   C3216560   3.510   5.613   6.833  0.3346 -0.4883  0.3571
  150SAPE   H2X16561   3.573   5.538   6.885  1.6675 -0.1344 -0.6849
  150SAPE   H2Y16562   3.421   5.644   6.891  0.1144  2.1421 -1.2232
  150SAPE   C2316563   3.448   5.190   6.998 -0.3693 -0.4938  0.7844
  150SAPE   H3R16564   3.396   5.123   7.069 -0.4788 -1.1538  0.0886
  150SAPE   H3S16565   3.372   5.258   6.953  2.5359  1.4244 -1.6541
  150SAPE   C2416566   3.542   5.281   7.087 -0.1733  0.2022  0.2217
  150SAPE   H4R16567   3.478   5.354   7.141  0.7745  1.3930 -0.2203
  150SAPE   H4S16568   3.610   5.344   7.025  1.1155 -0.9082  0.4734
  150SAPE   C2516569   3.631   5.206   7.178 -0.4439  0.5369  0.5348
  150SAPE   H5R16570   3.710   5.148   7.129  0.3284  1.5007  0.6009
  150SAPE   C2616571   3.616   5.191   7.311 -0.4313 -0.0214 -0.3514
  150SAPE   H6R16572   3.691   5.131   7.365 -1.8538  1.0378  3.1054
  150SAPE   C2716573   3.506   5.247   7.395  0.1716 -0.7957 -0.1785
  150SAPE   H7R16574   3.426   5.171   7.384  0.4900 -1.0305 -1.0039
  150SAPE   H7S16575   3.444   5.326   7.348  1.0837  0.3455  0.4752
  150SAPE   C2816576   3.533   5.274   7.544 -1.0117  0.4424  0.1022
  150SAPE   H8R16577   3.588   5.367   7.564  0.4419 -1.0299  3.9914
  150SAPE   C2916578   3.507   5.198   7.651  0.1117 -0.5935 -0.4866
  150SAPE   H9R16579   3.532   5.243   7.748 -0.3689 -0.5237 -0.3928
  150SAPE  C21016580   3.428   5.068   7.657  0.9840  0.2358  0.2318
  150SAPE  H10R16581   3.396   5.038   7.555  1.8187  0.9733 -0.2538
  150SAPE  H10S16582   3.327   5.086   7.700  0.4732 -0.9303 -0.4419
  150SAPE  C21116583   3.502   4.967   7.734 -0.4494  0.9598 -0.4004
  150SAPE  H11R16584   3.476   4.989   7.838  1.0263  2.4813 -0.3017
  150SAPE  C21216585   3.596   4.880   7.691  0.1214  0.0751  0.0923
  150SAPE  H12R16586   3.638   4.812   7.767  0.0051 -1.7525 -1.3790
  150SAPE  C21316587   3.640   4.878   7.544  0.1951 -0.3416  0.4088
  150SAPE  H13R16588   3.720   4.955   7.539  1.4601 -1.6367 -0.2779
  150SAPE  H13S16589   3.566   4.918   7.473  3.3914  1.9361 -1.9297
  150SAPE  C21416590   3.697   4.740   7.501 -0.3497  0.0349 -0.0684
  150SAPE  H14R16591   3.753   4.698   7.586  1.3749  2.5704  0.1636
  150SAPE  C21516592   3.666   4.677   7.387 -0.2745  0.8602 -0.8633
  150SAPE  H15R16593   3.708   4.575   7.382 -2.0508 -0.0337  0.9300
  150SAPE  C21616594   3.581   4.714   7.276 -0.6441 -0.1944 -0.5019
  150SAPE  H16R16595   3.511   4.795   7.307  1.4463  1.7826 -0.7433
  150SAPE  H16S16596   3.529   4.619   7.251  0.8815 -1.9588  2.4973
  150SAPE  C21716597   3.653   4.757   7.148  0.4683 -0.1167  0.2922
  150SAPE  H17R16598   3.745   4.700   7.122  0.2564  0.5713 -2.1871
  150SAPE  H17S16599   3.686   4.863   7.152  1.3935 -0.3440 -0.7519
  150SAPE  C21816600   3.564   4.753   7.026 -0.0630  0.4717  0.2774
  150SAPE  H18R16601   3.611   4.817   6.949  3.3115 -2.7161 -0.5624
  150SAPE  H18S16602   3.460   4.781   7.053 -0.3495 -0.3121  0.0115
  150SAPE  C21916603   3.543   4.617   6.955  1.0762 -0.3892  0.2459
  150SAPE  H19R16604   3.490   4.546   7.022  1.3556 -1.0470 -0.2228
  150SAPE  H19S16605   3.645   4.575   6.952  0.9781 -0.6315  0.2871
  150SAPE  C22016606   3.474   4.639   6.819 -0.1424  0.1052 -0.5019
  150SAPE  H20R16607   3.534   4.693   6.742  2.0611 -2.0351 -0.4188
  150SAPE  H20S16608   3.379   4.694   6.836 -0.5765 -1.2843  2.2047
  150SAPE  H20T16609   3.453   4.539   6.776 -1.4251 -1.0100  2.4594
  150SAPE   C3316610   3.587   5.736   6.795 -0.0460 -0.2720 -0.0775
  150SAPE   H3X16611   3.526   5.801   6.729  1.2891 -0.2596 -1.3512
  150SAPE   H3Y16612   3.676   5.708   6.734 -0.5424  0.4573 -1.1645
  150SAPE   C3416613   3.651   5.814   6.909 -0.2506 -0.0891  0.2334
  150SAPE   H4X16614   3.717   5.755   6.977  2.2194  0.9197 -1.1667
  150SAPE   H4Y16615   3.574   5.871   6.966  0.6559  1.0848  0.3306
  150SAPE   C3516616   3.744   5.926   6.857 -1.2760 -0.1948  0.3010
  150SAPE   H5X16617   3.689   5.963   6.768 -2.5684 -0.0298  1.1442
  150SAPE   H5Y16618   3.843   5.880   6.842 -1.3590  0.0028 -0.8834
  150SAPE   C3616619   3.766   6.040   6.957 -0.8762 -0.2916  0.6208
  150SAPE   H6X16620   3.670   6.061   7.009 -0.0686  0.2261  1.9491
  150SAPE   H6Y16621   3.792   6.132   6.900 -1.9481 -0.1699  0.3138
  150SAPE   C3716622   3.858   6.015   7.080  0.2807 -0.3480  0.8150
  150SAPE   H7X16623   3.954   5.989   7.030  0.2167 -1.3223  1.1765
  150SAPE   H7Y16624   3.819   5.929   7.138 -1.3400  0.3075  0.7379
  150SAPE   C3816625   3.876   6.134   7.172 -0.1127 -0.4586 -0.4812
  150SAPE   H8X16626   3.858   6.219   7.103 -2.4620 -1.8497 -1.6949
  150SAPE   H8Y16627   3.979   6.136   7.215 -0.0188 -1.0939 -0.6730
  150SAPE   C3916628   3.771   6.130   7.287 -0.2376 -0.0771 -0.9399
  150SAPE   H9X16629   3.666   6.110   7.256 -0.8217 -0.1237  0.8928
  150SAPE   H9Y16630   3.750   6.229   7.332  0.1682 -0.1293 -0.6263
  150SAPE  C31016631   3.831   6.036   7.403  0.5353 -0.2140 -0.0688
  150SAPE  H10X16632   3.879   5.951   7.350  1.3594  0.9058 -1.1844
  150SAPE  H10Y16633   3.742   6.008   7.464 -2.1201  2.8361 -2.2074
  150SAPE  C31116634   3.922   6.103   7.510 -0.0829 -0.0621 -0.3409
  150SAPE  H11X16635   4.020   6.111   7.458  1.0570  1.9044  1.9037
  150SAPE  H11Y16636   3.936   6.030   7.593 -0.0043 -0.6713 -0.8840
  150SAPE  C31216637   3.868   6.234   7.576  0.8183  0.0891 -0.2449
  150SAPE  H12X16638   3.760   6.231   7.603  1.1355  1.7101  1.3931
  150SAPE  H12Y16639   3.877   6.311   7.496  1.4263  0.4619  0.1755
  150SAPE  C31316640   3.960   6.288   7.687  0.1934 -0.0033  0.3308
  150SAPE  H13X16641   3.937   6.396   7.693 -1.2450 -0.3193  0.9795
  150SAPE  H13Y16642   4.064   6.273   7.650  0.5481  1.2445  0.7660
  150SAPE  C31416643   3.937   6.225   7.821 -0.4342 -0.1622 -0.3573
  150SAPE  H14X16644   3.956   6.116   7.811  2.0715  0.2886 -1.1416
  150SAPE  H14Y16645   3.829   6.246   7.834 -0.2941 -0.6304  2.0005
  150SAPE  C31516646   4.023   6.296   7.935  0.2228 -0.1228  0.4900
  150SAPE  H15X16647   3.989   6.402   7.937 -1.1222 -0.5306  0.1229
  150SAPE  H15Y16648   4.132   6.288   7.915 -0.1951  1.0713 -3.0295
  150SAPE  C31616649   4.007   6.235   8.076 -0.7058 -0.2051 -0.2531
  150SAPE  H16X16650   4.057   6.297   8.154  0.5246 -0.5615 -0.7388
  150SAPE  H16Y16651   4.064   6.141   8.066 -0.9836 -0.5666  1.3431
  150SAPE  C31716652   3.860   6.217   8.115 -0.9517 -0.6790  0.1478
  150SAPE  H17X16653   3.814   6.166   8.027 -0.7239  2.0849 -1.6914
  150SAPE  H17Y16654   3.807   6.314   8.103  1.2035  0.9715  2.7729
  150SAPE  C31816655   3.844   6.152   8.246 -0.2408  0.3819  0.1474
  150SAPE  H18X16656   3.895   6.215   8.322  0.7073  0.2945 -0.3912
  150SAPE  H18Y16657   3.883   6.048   8.244  0.2351  0.5673 -0.7987
  150SAPE  H18Z16658   3.735   6.147   8.263 -0.5165 -0.7821 -1.6662
  151SAPE     N16659   2.503   3.007   6.450  0.6111 -0.1231  0.2791
  151SAPE   HN116660   2.488   3.091   6.391  0.6919  0.2926  0.8439
  151SAPE   HN216661   2.601   2.981   6.472  0.4805 -0.5927  0.3248
  151SAPE   HN316662   2.471   2.935   6.383 -1.3445 -1.1731  2.2118
  151SAPE   C1216663   2.409   2.988   6.570  0.4841 -0.5119  0.3530
  151SAPE  H12A16664   2.468   3.014   6.660  1.6536  3.2871 -1.2847
  151SAPE  H12B16665   2.363   2.887   6.564 -0.5145 -0.1303  1.2740
  151SAPE   C1116666   2.289   3.081   6.555  0.1206  0.3523 -0.3263
  151SAPE  H11A16667   2.335   3.182   6.566  1.4862 -0.3372  0.5775
  151SAPE  H11B16668   2.223   3.065   6.642 -0.5480 -2.8596 -1.2935
  151SAPE     P16669   2.066   3.029   6.415  0.2509  0.3054 -0.4415
  151SAPE   O1316670   2.034   3.032   6.272 -0.1689 -0.4671 -0.0192
  151SAPE   O1416671   2.046   2.898   6.482 -0.4286 -0.5382  0.0585
  151SAPE   O1216672   2.217   3.080   6.432 -0.1091  0.5478  0.3626
  151SAPE   O1116673   1.972   3.135   6.485  0.0857 -0.1285  0.2777
  151SAPE    C116674   1.995   3.271   6.466 -0.1897  0.2364 -0.5476
  151SAPE    HA16675   2.078   3.298   6.397 -0.3035 -2.0680 -1.6729
  151SAPE    HB16676   1.910   3.322   6.416 -0.6826  1.0387  1.0219
  151SAPE    C216677   2.006   3.337   6.611  0.1074  0.2051 -0.0440
  151SAPE    HS16678   2.113   3.331   6.642 -0.4940 -0.5755  2.0590
  151SAPE   O2116679   1.900   3.286   6.701  0.6279  0.2640  0.1196
  151SAPE   C2116680   1.948   3.269   6.825 -0.0399  0.2620 -0.7947
  151SAPE   O2216681   2.064   3.265   6.849 -0.2287  0.4490  0.0125
  151SAPE   C2216682   1.834   3.239   6.916  0.2294 -0.3256 -0.0507
  151SAPE   H2R16683   1.751   3.307   6.889  0.3524 -1.1478 -2.7458
  151SAPE   H2S16684   1.807   3.137   6.880  1.4154  0.1576 -2.4669
  151SAPE    C316685   1.986   3.493   6.602 -0.1506 -0.3474 -0.2549
  151SAPE    HX16686   1.890   3.496   6.546 -0.9414 -1.4023  0.9886
  151SAPE    HY16687   2.069   3.543   6.548  0.1586  0.8756  1.2875
  151SAPE   O3116688   1.963   3.565   6.730 -0.0846  0.3844  0.0390
  151SAPE   C3116689   1.845   3.612   6.763 -0.2308  0.5945  0.2748
  151SAPE   O3216690   1.736   3.575   6.717 -0.3039  0.4664  0.2372
  151SAPE   C3216691   1.859   3.717   6.873 -0.1104  0.3148 -0.6622
  151SAPE   H2X16692   1.930   3.797   6.842 -1.4713  1.3415 -1.2424
  151SAPE   H2Y16693   1.903   3.672   6.965  0.3146  4.0551  1.1299
  151SAPE   C2316694   1.872   3.242   7.062 -0.0101 -0.1768 -0.2003
  151SAPE   H3R16695   1.972   3.193   7.069  0.0895  0.0004 -0.3863
  151SAPE   H3S16696   1.808   3.167   7.115 -2.0605  0.2136 -1.9744
  151SAPE   C2416697   1.879   3.383   7.120 -0.1836 -0.4464 -0.4493
  151SAPE   H4R16698   1.926   3.455   7.049 -2.2264  0.9784 -0.4629
  151SAPE   H4S16699   1.919   3.392   7.223  1.8423 -0.8415 -1.1601
  151SAPE   C2516700   1.734   3.427   7.132  0.1427  0.0591  0.1451
  151SAPE   H5R16701   1.693   3.461   7.036 -3.5060  0.3357  1.6547
  151SAPE   C2616702   1.660   3.440   7.242  0.2353  0.2134 -0.3726
  151SAPE   H6R16703   1.556   3.476   7.237  0.8443  2.1256 -0.3679
  151SAPE   C2716704   1.705   3.407   7.382 -0.0312 -0.5718 -0.6012
  151SAPE   H7R16705   1.807   3.363   7.388 -0.2021 -0.9266 -0.3000
  151SAPE   H7S16706   1.633   3.331   7.418  1.8280 -1.8416  0.5566
  151SAPE   C2816707   1.689   3.538   7.466  0.4292  0.5431  0.3780
  151SAPE   H8R16708   1.735   3.627   7.420 -0.0289  0.3999 -0.3814
  151SAPE   C2916709   1.638   3.533   7.589  0.2514 -0.8568 -0.3135
  151SAPE   H9R16710   1.619   3.625   7.647  2.0296 -0.4442 -0.3363
  151SAPE  C21016711   1.580   3.423   7.674 -0.8425  0.3230  0.2243
  151SAPE  H10R16712   1.636   3.412   7.769  0.7729 -2.6694 -0.9185
  151SAPE  H10S16713   1.585   3.320   7.631  0.3015 -0.5295  2.2465
  151SAPE  C21116714   1.438   3.452   7.703  0.2291 -0.2591  0.2389
  151SAPE  H11R16715   1.383   3.506   7.625 -0.3478 -1.2686 -0.0642
  151SAPE  C21216716   1.367   3.413   7.811  0.1579 -0.4313  0.0504
  151SAPE  H12R16717   1.258   3.429   7.812  0.1834 -0.2107 -0.4583
  151SAPE  C21316718   1.415   3.334   7.926  0.2719 -0.7217 -0.2488
  151SAPE  H13R16719   1.327   3.315   7.991 -0.8756  1.8966 -0.9081
  151SAPE  H13S16720   1.491   3.386   7.989 -0.3911 -2.0393  1.7499
  151SAPE  C21416721   1.474   3.196   7.888  0.0138 -0.2278  0.6681
  151SAPE  H14R16722   1.420   3.139   7.812 -0.7718 -0.5585  1.4468
  151SAPE  C21516723   1.573   3.133   7.957  0.6262 -0.0558 -0.1720
  151SAPE  H15R16724   1.617   3.050   7.901 -1.5900  0.1972 -2.4994
  151SAPE  C21616725   1.657   3.169   8.074  0.1171 -0.3893 -0.1375
  151SAPE  H16R16726   1.629   3.118   8.169  1.4291  0.1966  0.5831
  151SAPE  H16S16727   1.645   3.275   8.103 -0.2505 -0.5466  0.3146
  151SAPE  C21716728   1.811   3.148   8.043  0.0952 -0.2178 -1.0663
  151SAPE  H17R16729   1.849   3.226   7.974  4.0626 -1.2154 -0.3217
  151SAPE  H17S16730   1.823   3.047   7.998  1.1281 -0.6804  0.1725
  151SAPE  C21816731   1.893   3.174   8.173 -0.2779  0.4678  0.0133
  151SAPE  H18R16732   1.861   3.113   8.261 -0.3419  1.6482  0.8384
  151SAPE  H18S16733   1.891   3.279   8.208 -0.6853 -0.0234  1.5709
  151SAPE  C21916734   2.033   3.136   8.141 -0.7198  0.6346  0.3624
  151SAPE  H19R16735   2.034   3.037   8.091 -0.4678  1.5144 -1.4488
  151SAPE  H19S16736   2.088   3.103   8.232 -0.3357 -1.3374 -0.5353
  151SAPE  C22016737   2.112   3.243   8.059 -0.2246 -0.0721 -0.7705
  151SAPE  H20R16738   2.194   3.275   8.127  0.1505 -0.4609 -1.0377
  151SAPE  H20S16739   2.162   3.194   7.973  1.5531 -1.1140  0.7577
  151SAPE  H20T16740   2.051   3.333   8.036 -0.1814  0.7856  2.0282
  151SAPE   C3316741   1.713   3.764   6.922 -0.2324  0.0890 -0.0215
  151SAPE   H3X16742   1.652   3.691   6.978 -1.7367  0.0732 -1.6084
  151SAPE   H3Y16743   1.666   3.794   6.826  2.3566 -0.4683 -1.5685
  151SAPE   C3416744   1.715   3.895   7.006  0.3196 -0.5624  0.3605
  151SAPE   H4X16745   1.612   3.937   6.999 -0.2060 -1.9915 -1.5511
  151SAPE   H4Y16746   1.785   3.969   6.962 -1.5023  0.3551 -1.1304
  151SAPE   C3516747   1.745   3.875   7.156 -0.1108 -0.0725 -0.2748
  151SAPE   H5X16748   1.852   3.848   7.165 -0.8238 -2.8620  0.7821
  151SAPE   H5Y16749   1.693   3.782   7.188 -0.0634  0.4574  1.4494
  151SAPE   C3616750   1.710   3.980   7.265 -0.7505  0.1709  0.2406
  151SAPE   H6X16751   1.600   3.991   7.270 -0.7756  1.4048 -1.8969
  151SAPE   H6Y16752   1.756   4.079   7.245  2.0357 -0.7229  1.5916
  151SAPE   C3716753   1.763   3.935   7.401  0.4692  0.1095  0.0752
  151SAPE   H7X16754   1.865   3.892   7.390 -0.4576 -1.8775 -1.6167
  151SAPE   H7Y16755   1.698   3.851   7.435 -0.5634  0.3130 -1.2898
  151SAPE   C3816756   1.760   4.048   7.505  0.0694 -0.6076  0.2105
  151SAPE   H8X16757   1.659   4.092   7.496 -0.0409 -1.1401 -1.6379
  151SAPE   H8Y16758   1.828   4.128   7.467  0.6864 -0.3399  1.8035
  151SAPE   C3916759   1.799   4.015   7.642  0.2144 -0.1317 -0.5117
  151SAPE   H9X16760   1.900   3.967   7.640  0.4487  0.3747 -1.1547
  151SAPE   H9Y16761   1.743   3.924   7.672  0.0041  0.0738 -0.2754
  151SAPE  C31016762   1.784   4.127   7.742 -0.0638 -0.6746 -0.0581
  151SAPE  H10X16763   1.683   4.170   7.757  0.1218  0.4765 -1.8635
  151SAPE  H10Y16764   1.848   4.206   7.699 -0.1358 -0.4138  0.3066
  151SAPE  C31116765   1.857   4.095   7.884  0.1655  0.0746  0.2387
  151SAPE  H11X16766   1.957   4.065   7.847 -0.2537 -0.3828 -0.5428
  151SAPE  H11Y16767   1.812   4.005   7.931  0.5691 -0.4534 -0.3723
  151SAPE  C31216768   1.860   4.215   7.977 -0.6452 -0.4452  0.3114
  151SAPE  H12X16769   1.756   4.246   8.001 -0.6874 -1.0899  1.0183
  151SAPE  H12Y16770   1.918   4.299   7.933  0.7262 -0.6830  1.5621
  151SAPE  C31316771   1.925   4.192   8.115 -0.2670  0.2809 -0.2935
  151SAPE  H13X16772   1.951   4.287   8.166 -1.2768 -0.0681  0.9031
  151SAPE  H13Y16773   2.026   4.153   8.090 -1.1175 -0.8084 -2.2914
  151SAPE  C31416774   1.863   4.095   8.208 -0.2383 -0.2964 -0.1573
  151SAPE  H14X16775   1.865   3.996   8.157 -1.9269 -0.0253 -0.8000
  151SAPE  H14Y16776   1.754   4.112   8.223 -0.1296 -0.3370  0.7275
  151SAPE  C31516777   1.939   4.084   8.341  0.3929 -0.1808  0.6376
  151SAPE  H15X16778   2.017   4.162   8.345  0.9165 -0.6796  0.3999
  151SAPE  H15Y16779   2.000   3.991   8.337  1.6689  0.5959  1.4548
  151SAPE  C31616780   1.864   4.084   8.480  1.0214  0.3626  0.5784
  151SAPE  H16X16781   1.783   4.008   8.479 -0.2292  1.5588  2.7408
  151SAPE  H16Y16782   1.814   4.181   8.502  0.4529 -0.1969  1.8234
  151SAPE  C31716783   1.958   4.056   8.597  0.0171  0.4383 -0.3547
  151SAPE  H17X16784   1.907   4.085   8.692  0.2202 -1.2975  0.3139
  151SAPE  H17Y16785   2.039   4.131   8.590 -0.6626  1.1827 -0.4459
  151SAPE  C31816786   2.005   3.907   8.612 -0.6322 -0.9474  0.0729
  151SAPE  H18X16787   2.079   3.888   8.693 -0.5332 -1.6235 -0.1652
  151SAPE  H18Y16788   2.051   3.866   8.519  0.5894 -0.5123  0.4623
  151SAPE  H18Z16789   1.914   3.844   8.621 -1.8061  1.0116  4.0229
  152SAPE     N16790   4.736   5.893   6.020  0.4224  0.4114 -0.0639
  152SAPE   HN116791   4.753   5.903   5.918  2.6355  0.4805  0.2661
  152SAPE   HN216792   4.679   5.808   6.041  1.3316 -1.6708 -4.7055
  152SAPE   HN316793   4.686   5.983   6.034 -0.1586  0.8867 -4.0305
  152SAPE   C1216794   4.866   5.875   6.082 -0.5585  0.1380  0.1587
  152SAPE  H12A16795   4.924   5.794   6.033 -0.0206  0.5860  0.0375
  152SAPE  H12B16796   4.861   5.837   6.186  0.0077 -2.5866 -0.7282
  152SAPE   C1116797   4.954   5.998   6.088  1.5356 -0.1260  0.0723
  152SAPE  H11A16798   5.039   5.978   6.157  1.6296 -2.8063 -0.6940
  152SAPE  H11B16799   4.900   6.082   6.136 -1.9109 -1.8959 -0.4262
  152SAPE     P16800   5.086   6.177   5.953 -0.1702 -0.1468  0.3664
  152SAPE   O1316801   5.202   6.173   5.858  0.6878  0.2606 -0.4216
  152SAPE   O1416802   4.989   6.280   5.913 -0.0002 -0.7255  0.6219
  152SAPE   O1216803   5.014   6.037   5.967  0.3874  0.2173 -0.1373
  152SAPE   O1116804   5.144   6.214   6.094  0.5081 -0.4691  0.3044
  152SAPE    C116805   5.271   6.169   6.132 -0.9152 -0.0579 -0.8860
  152SAPE    HA16806   5.276   6.058   6.136 -1.0755 -0.0202  1.0845
  152SAPE    HB16807   5.352   6.213   6.070  0.0371  0.7721  0.8703
  152SAPE    C216808   5.302   6.226   6.278 -0.5977  0.0354 -0.8682
  152SAPE    HS16809   5.406   6.201   6.307 -0.0393  0.3669 -2.5016
  152SAPE   O2116810   5.212   6.171   6.370  0.6532  0.0331 -0.4078
  152SAPE   C2116811   5.235   6.047   6.411 -0.4495  0.0876  0.4401
  152SAPE   O2216812   5.334   5.983   6.381 -0.7621  0.0329 -0.0561
  152SAPE   C2216813   5.100   5.993   6.472 -0.5216  0.3100 -0.0467
  152SAPE   H2R16814   5.029   5.996   6.386  0.4361 -0.7299 -0.9134
  152SAPE   H2S16815   5.109   5.891   6.515 -1.3886 -0.1857 -1.0032
  152SAPE    C316816   5.309   6.386   6.280 -0.0766  0.0624 -0.0754
  152SAPE    HX16817   5.211   6.426   6.247 -0.7416 -1.0991  0.4231
  152SAPE    HY16818   5.382   6.424   6.207 -0.1199  1.9904  0.8225
  152SAPE   O3116819   5.357   6.427   6.407  0.3501  0.2164 -0.4063
  152SAPE   C3116820   5.258   6.433   6.509  0.3623 -0.0881  0.6067
  152SAPE   O3216821   5.141   6.432   6.492 -0.4248  0.2882 -0.3453
  152SAPE   C3216822   5.328   6.446   6.635  0.7262  0.0966 -0.0020
  152SAPE   H2X16823   5.390   6.355   6.626 -1.8950 -1.8244  0.1634
  152SAPE   H2Y16824   5.249   6.430   6.712  2.1754 -1.7002  1.2024
  152SAPE   C2316825   5.055   6.093   6.580  0.1672 -0.4453 -0.5141
  152SAPE   H3R16826   4.970   6.046   6.632 -0.2544  0.9237  0.0849
  152SAPE   H3S16827   4.996   6.180   6.543 -2.8153 -1.0839  2.2776
  152SAPE   C2416828   5.151   6.148   6.690 -0.0867  0.1709  0.5872
  152SAPE   H4R16829   5.101   6.215   6.764  1.0863  1.6316  0.0840
  152SAPE   H4S16830   5.231   6.216   6.656  0.1371 -0.4898 -0.2486
  152SAPE   C2516831   5.208   6.036   6.765  0.9042  0.3340 -0.1796
  152SAPE   H5R16832   5.229   5.945   6.706 -0.1184 -1.0839  1.5345
  152SAPE   C2616833   5.212   6.012   6.895 -1.3284 -0.0441 -0.4017
  152SAPE   H6R16834   5.269   5.924   6.929 -0.5838  0.4527 -0.3338
  152SAPE   C2716835   5.172   6.097   7.011  0.2186 -0.2117 -0.3355
  152SAPE   H7R16836   5.153   6.031   7.098 -0.6112  1.3849  0.7613
  152SAPE   H7S16837   5.070   6.134   6.986  0.1866  0.4607  0.6986
  152SAPE   C2816838   5.250   6.223   7.035  0.2491  0.0769 -0.1240
  152SAPE   H8R16839   5.249   6.280   6.942 -3.9691 -1.3153 -1.1373
  152SAPE   C2916840   5.317   6.257   7.148 -0.5441  1.0372  1.2488
  152SAPE   H9R16841   5.372   6.351   7.130  0.8908  0.1478  0.8456
  152SAPE  C21016842   5.326   6.193   7.284  0.4345  0.1762  0.1167
  152SAPE  H10R16843   5.427   6.150   7.300  1.4110  1.0564 -2.9074
  152SAPE  H10S16844   5.261   6.102   7.284 -1.7094  1.6090 -1.2079
  152SAPE  C21116845   5.298   6.293   7.393  0.2412 -0.4503 -0.1169
  152SAPE  H11R16846   5.299   6.402   7.373 -0.7542 -0.7065 -1.8199
  152SAPE  C21216847   5.291   6.259   7.521  0.0472  0.2152  0.0174
  152SAPE  H12R16848   5.264   6.334   7.597  1.1703 -0.2465  0.8978
  152SAPE  C21316849   5.307   6.120   7.575  0.2820 -0.2884 -0.1568
  152SAPE  H13R16850   5.368   6.063   7.502 -2.1673 -0.9236 -1.8615
  152SAPE  H13S16851   5.204   6.078   7.567 -0.8805  2.0495  1.2716
  152SAPE  C21416852   5.362   6.102   7.714 -0.7663  0.2230  0.7202
  152SAPE  H14R16853   5.464   6.063   7.708 -0.1563  1.7897  0.3483
  152SAPE  C21516854   5.318   6.127   7.836  0.1959 -0.0205 -0.3001
  152SAPE  H15R16855   5.383   6.098   7.920  1.0747 -1.5005 -1.4380
  152SAPE  C21616856   5.180   6.176   7.866  0.3807  0.0647 -0.7751
  152SAPE  H16R16857   5.125   6.094   7.917 -0.3337 -0.4292 -2.2840
  152SAPE  H16S16858   5.116   6.189   7.776  0.8237  0.5868 -1.0176
  152SAPE  C21716859   5.171   6.292   7.966 -0.1326  0.2121  0.1801
  152SAPE  H17R16860   5.070   6.338   7.975 -0.4800 -0.4705 -0.1298
  152SAPE  H17S16861   5.244   6.367   7.930  0.1353  0.5122  1.2995
  152SAPE  C21816862   5.205   6.249   8.106 -0.3869  0.2333  0.4703
  152SAPE  H18R16863   5.310   6.213   8.117 -0.7065 -0.3020  1.9948
  152SAPE  H18S16864   5.145   6.158   8.127 -1.7546  0.5033 -1.9583
  152SAPE  C21916865   5.196   6.365   8.209 -0.6515  0.3660 -0.5109
  152SAPE  H19R16866   5.107   6.431   8.209  0.1133  1.4220 -0.8380
  152SAPE  H19S16867   5.275   6.441   8.198 -1.0974  0.8192 -0.6167
  152SAPE  C22016868   5.198   6.303   8.347 -0.4723 -0.5110 -0.2489
  152SAPE  H20R16869   5.138   6.210   8.356  2.2502 -2.4388 -0.5873
  152SAPE  H20S16870   5.173   6.378   8.425  0.7428 -1.7696  1.4393
  152SAPE  H20T16871   5.299   6.267   8.377  0.1130  0.4176 -1.0210
  152SAPE   C3316872   5.413   6.566   6.661  0.4696  0.1675  0.3772
  152SAPE   H3X16873   5.360   6.663   6.659  2.0329  1.0603  0.8410
  152SAPE   H3Y16874   5.493   6.565   6.584 -0.4818 -2.4008 -0.7014
  152SAPE   C3416875   5.487   6.552   6.798  0.8296 -0.2625 -0.3447
  152SAPE   H4X16876   5.582   6.609   6.801  1.1419 -0.7070 -1.4306
  152SAPE   H4Y16877   5.519   6.448   6.818  1.0313 -0.7505 -2.8609
  152SAPE   C3516878   5.399   6.588   6.917  0.8976 -0.1242  0.5789
  152SAPE   H5X16879   5.312   6.521   6.935  2.5964 -2.3471  0.9458
  152SAPE   H5Y16880   5.360   6.692   6.906 -0.1543 -0.5540  0.0816
  152SAPE   C3616881   5.493   6.602   7.037  0.6168 -0.3478 -0.0680
  152SAPE   H6X16882   5.564   6.687   7.022 -0.4446  0.9125  1.6691
  152SAPE   H6Y16883   5.549   6.506   7.032 -0.0843 -0.8618  1.4289
  152SAPE   C3716884   5.423   6.641   7.165 -0.1672 -0.0434 -0.2496
  152SAPE   H7X16885   5.331   6.579   7.169 -0.2836  0.0163 -1.4953
  152SAPE   H7Y16886   5.380   6.742   7.148 -0.0861  0.2878  1.4208
  152SAPE   C3816887   5.501   6.637   7.292 -0.0172 -0.3675 -0.2042
  152SAPE   H8X16888   5.585   6.710   7.287  0.4862 -1.0307 -2.4376
  152SAPE   H8Y16889   5.544   6.535   7.299  1.6217  0.2500 -0.6983
  152SAPE   C3916890   5.413   6.666   7.410  0.3751  0.3728  0.0199
  152SAPE   H9X16891   5.325   6.599   7.417 -0.2257  1.2517  1.4003
  152SAPE   H9Y16892   5.373   6.770   7.410  1.4991  0.8381  0.9377
  152SAPE  C31016893   5.488   6.663   7.544  0.2884 -0.8032  0.7828
  152SAPE  H10X16894   5.575   6.731   7.556  1.8800 -2.6259  0.0302
  152SAPE  H10Y16895   5.512   6.558   7.572 -1.2903 -0.9186  1.9205
  152SAPE  C31116896   5.404   6.696   7.666  0.8724  0.2881  0.1887
  152SAPE  H11X16897   5.314   6.630   7.672  1.0461 -0.0484 -0.7205
  152SAPE  H11Y16898   5.373   6.802   7.654  0.5626  0.2046  0.2273
  152SAPE  C31216899   5.495   6.699   7.791 -0.0870  0.2598 -0.6697
  152SAPE  H12X16900   5.475   6.763   7.880  0.2965 -0.8096  0.2101
  152SAPE  H12Y16901   5.595   6.737   7.762  2.0238 -3.4499  1.0776
  152SAPE  C31316902   5.523   6.552   7.835  0.1702  0.1607  0.5465
  152SAPE  H13X16903   5.631   6.536   7.816  0.4668  0.3589  1.9748
  152SAPE  H13Y16904   5.476   6.474   7.771  0.5360  0.3150  0.0816
  152SAPE  C31416905   5.485   6.523   7.975 -0.5642  0.6142 -0.5023
  152SAPE  H14X16906   5.452   6.417   7.980  1.7021 -0.1120  0.9248
  152SAPE  H14Y16907   5.402   6.591   8.003  0.7384  0.6816  3.9479
  152SAPE  C31516908   5.606   6.559   8.058 -0.0345 -0.4895  0.9277
  152SAPE  H15X16909   5.619   6.663   8.022 -2.1664 -0.5997 -0.3319
  152SAPE  H15Y16910   5.692   6.492   8.038 -0.5614 -1.3860  1.5875
  152SAPE  C31616911   5.588   6.563   8.205  0.8005 -0.1962 -0.8149
  152SAPE  H16X16912   5.525   6.482   8.248 -0.0959  2.1079  2.6566
  152SAPE  H16Y16913   5.534   6.659   8.220  2.5291  0.9704 -1.7613
  152SAPE  C31716914   5.718   6.568   8.290 -0.0392  0.3379 -0.0373
  152SAPE  H17X16915   5.697   6.600   8.394  0.2062 -0.9955  0.4473
  152SAPE  H17Y16916   5.781   6.644   8.240  1.5479  0.3330  1.8393
  152SAPE  C31816917   5.808   6.443   8.291 -0.8041  0.4936 -0.2511
  152SAPE  H18X16918   5.764   6.360   8.349  0.3179  1.3172  1.8968
  152SAPE  H18Y16919   5.905   6.462   8.342 -0.8323 -0.7555  0.2983
  152SAPE  H18Z16920   5.838   6.405   8.191  0.7839 -0.4441  0.5393
  153SAPE     N16921   6.760   1.852   6.024  0.4245 -0.2688  0.3194
  153SAPE   HN116922   6.737   1.797   5.938 -0.1191  0.5568 -0.0756
  153SAPE   HN216923   6.763   1.953   6.001  2.0576 -0.4852 -0.6199
  153SAPE   HN316924   6.857   1.821   6.047  0.7498 -0.6904 -1.4539
  153SAPE   C1216925   6.661   1.820   6.128  0.3191  0.5799  0.1645
  153SAPE  H12A16926   6.564   1.873   6.115  0.4111  1.5995  2.9775
  153SAPE  H12B16927   6.702   1.847   6.227 -1.6513 -0.1350  1.2218
  153SAPE   C1116928   6.612   1.671   6.116 -0.4247  0.2138  0.0023
  153SAPE  H11A16929   6.559   1.652   6.021 -0.1354 -0.4958 -0.0269
  153SAPE  H11B16930   6.546   1.652   6.204 -1.6633 -1.6017 -1.2715
  153SAPE     P16931   6.726   1.446   6.206 -0.1343 -0.0624  0.2018
  153SAPE   O1316932   6.607   1.376   6.151 -0.3107  0.5215  0.0441
  153SAPE   O1416933   6.851   1.375   6.209  0.3398 -0.1538  0.2234
  153SAPE   O1216934   6.731   1.583   6.129 -0.5359  0.0714  0.6383
  153SAPE   O1116935   6.687   1.497   6.349  0.4515 -0.1128  0.2709
  153SAPE    C116936   6.776   1.588   6.420 -0.5167  1.1361  0.3338
  153SAPE    HA16937   6.882   1.560   6.404 -0.0700  1.5486  2.3610
  153SAPE    HB16938   6.763   1.694   6.392 -0.4132  1.3764  1.1720
  153SAPE    C216939   6.759   1.565   6.578  0.1937 -0.4831 -0.2733
  153SAPE    HS16940   6.773   1.457   6.600  0.6649 -0.2142  0.8065
  153SAPE   O2116941   6.643   1.626   6.629  1.1373 -0.0743 -0.1448
  153SAPE   C2116942   6.538   1.542   6.652  0.2156  1.0499  0.0336
  153SAPE   O2216943   6.550   1.420   6.640 -0.0115  0.0982  0.4680
  153SAPE   C2216944   6.418   1.619   6.689  0.0516 -0.7632  0.1463
  153SAPE   H2R16945   6.433   1.673   6.785  0.5579 -1.5186  0.5043
  153SAPE   H2S16946   6.413   1.699   6.612  0.8027  0.3462  1.2118
  153SAPE    C316947   6.889   1.627   6.652  0.1281  0.3358 -0.4974
  153SAPE    HX16948   6.891   1.730   6.611  1.6784  0.7429  0.5079
  153SAPE    HY16949   6.978   1.568   6.622 -0.5302 -0.6513 -0.5387
  153SAPE   O3116950   6.875   1.621   6.794 -0.4620  0.0210  0.4958
  153SAPE   C3116951   6.963   1.701   6.857 -0.1981  0.5881 -0.9828
  153SAPE   O3216952   7.041   1.775   6.806 -0.8190 -0.1967 -0.0924
  153SAPE   C3216953   6.922   1.706   7.001  0.0464 -0.1979 -0.9225
  153SAPE   H2X16954   6.869   1.614   7.032  1.5150 -0.3902  1.2373
  153SAPE   H2Y16955   6.857   1.796   7.004 -0.2484 -0.4123 -0.7694
  153SAPE   C2316956   6.286   1.533   6.695 -0.9583 -0.0370 -0.5272
  153SAPE   H3R16957   6.273   1.459   6.613  2.4266 -0.6361 -0.6875
  153SAPE   H3S16958   6.207   1.610   6.685  0.3983  1.3107 -1.2955
  153SAPE   C2416959   6.256   1.467   6.836 -0.2238 -0.0758 -0.5504
  153SAPE   H4R16960   6.145   1.474   6.834 -0.4133 -2.1107  0.6981
  153SAPE   H4S16961   6.285   1.543   6.911 -0.0121  0.0338 -0.7426
  153SAPE   C2516962   6.311   1.333   6.865 -0.2741  0.2614  0.1825
  153SAPE   H5R16963   6.266   1.253   6.805  2.6452 -1.3759 -0.0472
  153SAPE   C2616964   6.404   1.289   6.961 -0.2445 -0.5804 -0.2057
  153SAPE   H6R16965   6.423   1.181   6.965  2.0489 -0.1914  0.8144
  153SAPE   C2716966   6.474   1.372   7.068 -0.3688 -0.7070 -0.2853
  153SAPE   H7R16967   6.455   1.321   7.164  1.0155 -0.9521 -0.1236
  153SAPE   H7S16968   6.419   1.468   7.075  1.0465  0.1785 -0.7562
  153SAPE   C2816969   6.617   1.405   7.042  0.1157 -0.1190  0.3143
  153SAPE   H8R16970   6.653   1.411   6.938  0.1870 -0.7108  0.2999
  153SAPE   C2916971   6.708   1.421   7.138  0.6092 -0.7688 -0.9963
  153SAPE   H9R16972   6.815   1.434   7.115  0.9835 -1.6174  0.2009
  153SAPE  C21016973   6.690   1.410   7.292  0.0207 -0.1573 -0.3386
  153SAPE  H10R16974   6.784   1.400   7.351 -0.7983  0.5655  1.1491
  153SAPE  H10S16975   6.644   1.314   7.323  1.3051 -0.4180  0.8742
  153SAPE  C21116976   6.610   1.526   7.353  0.9436  0.0655 -0.4843
  153SAPE  H11R16977   6.521   1.556   7.297 -0.8084  1.3756  2.7120
  153SAPE  C21216978   6.637   1.590   7.466 -0.0708  0.2377 -0.2707
  153SAPE  H12R16979   6.560   1.659   7.505 -1.0556 -2.0983  2.2503
  153SAPE  C21316980   6.758   1.559   7.555  0.4915 -0.2919 -0.3133
  153SAPE  H13R16981   6.847   1.547   7.490  1.6245 -2.5135  1.5076
  153SAPE  H13S16982   6.749   1.467   7.617 -0.7187  0.2130  0.2758
  153SAPE  C21416983   6.786   1.663   7.657 -0.5404 -0.1856  0.0964
  153SAPE  H14R16984   6.827   1.760   7.624  1.5072 -1.3827 -1.1328
  153SAPE  C21516985   6.785   1.640   7.790 -0.2036  0.7502  0.7094
  153SAPE  H15R16986   6.796   1.728   7.855  0.7655  0.1418  1.3980
  153SAPE  C21616987   6.747   1.514   7.868 -0.0207  0.2359 -0.9182
  153SAPE  H16R16988   6.837   1.471   7.917  0.3080  1.3223 -0.5528
  153SAPE  H16S16989   6.717   1.431   7.800  1.5932 -2.3826  1.3768
  153SAPE  C21716990   6.648   1.538   7.978 -0.1319 -0.0059  0.3600
  153SAPE  H17R16991   6.550   1.572   7.939 -0.4965 -2.0421 -0.6446
  153SAPE  H17S16992   6.696   1.624   8.030 -0.3002  1.4685 -1.7966
  153SAPE  C21816993   6.623   1.412   8.063 -0.5454 -0.4563 -0.0339
  153SAPE  H18R16994   6.718   1.360   8.088 -1.1492 -1.4794  0.1992
  153SAPE  H18S16995   6.560   1.340   8.006 -0.9671 -1.6583  1.8570
  153SAPE  C21916996   6.545   1.448   8.182  0.0973  0.2312  0.2456
  153SAPE  H19R16997   6.456   1.513   8.165  0.7154  0.8017 -0.9685
  153SAPE  H19S16998   6.606   1.510   8.251  1.0056 -0.0938 -0.2482
  153SAPE  C22016999   6.494   1.337   8.268  0.2543  0.0689 -0.1972
  153SAPE  H20R17000   6.585   1.281   8.297  0.0479 -0.1647  0.0074
  153SAPE  H20S17001   6.430   1.266   8.211 -3.2121  1.2468  1.9219
  153SAPE  H20T17002   6.436   1.374   8.355  2.0456  1.7813  0.3402
  153SAPE   C3317003   7.042   1.721   7.100 -0.0230 -0.2697  0.9167
  153SAPE   H3X17004   7.112   1.806   7.090  1.4577 -1.3938  1.2185
  153SAPE   H3Y17005   7.115   1.639   7.080 -1.5772 -0.8572 -3.3098
  153SAPE   C3417006   7.008   1.699   7.257 -0.1204  0.1992 -0.4081
  153SAPE   H4X17007   6.988   1.592   7.277 -1.7856  0.5713  0.1123
  153SAPE   H4Y17008   6.918   1.759   7.281  0.2455  1.5063 -2.1058
  153SAPE   C3517009   7.128   1.730   7.355 -0.0663 -0.0415 -0.4968
  153SAPE   H5X17010   7.143   1.837   7.380 -4.3937  0.3517  1.3100
  153SAPE   H5Y17011   7.218   1.685   7.308 -0.8499 -0.7113 -1.4256
  153SAPE   C3617012   7.117   1.658   7.489  0.1613 -0.2364  0.4992
  153SAPE   H6X17013   7.089   1.556   7.456 -0.3840  0.8782 -2.9180
  153SAPE   H6Y17014   7.029   1.704   7.539  0.8284  0.7700  0.7818
  153SAPE   C3717015   7.246   1.675   7.568  0.2125 -0.0642  0.2620
  153SAPE   H7X17016   7.252   1.785   7.583 -0.8052 -0.2164  2.0264
  153SAPE   H7Y17017   7.329   1.637   7.504 -0.4149 -2.2266  0.6261
  153SAPE   C3817018   7.258   1.601   7.711 -0.3779  0.5589 -0.0712
  153SAPE   H8X17019   7.361   1.597   7.753 -0.6907 -1.3035  0.6144
  153SAPE   H8Y17020   7.227   1.496   7.689  0.1070  0.0802  1.3790
  153SAPE   C3917021   7.171   1.658   7.823  0.2555 -0.4456 -0.2203
  153SAPE   H9X17022   7.071   1.624   7.787  0.1668  0.2779 -0.6757
  153SAPE   H9Y17023   7.184   1.768   7.821 -0.3977 -0.3447  0.4467
  153SAPE  C31017024   7.200   1.600   7.963  0.2648  0.1208 -0.0992
  153SAPE  H10X17025   7.291   1.648   8.006  1.1447  0.0122 -1.7716
  153SAPE  H10Y17026   7.230   1.494   7.954  0.2086  0.1903 -1.2711
  153SAPE  C31117027   7.089   1.595   8.072  0.1491 -0.6101 -0.1248
  153SAPE  H11X17028   7.115   1.529   8.158 -0.1078  1.1594  1.3614
  153SAPE  H11Y17029   7.000   1.560   8.016 -0.4447  2.7482 -1.5374
  153SAPE  C31217030   7.050   1.735   8.129 -0.1747  0.1507  0.5730
  153SAPE  H12X17031   7.024   1.801   8.043 -3.3634 -0.3680  1.0408
  153SAPE  H12Y17032   7.139   1.788   8.169 -0.6494  0.9009  0.6525
  153SAPE  C31317033   6.932   1.740   8.224  0.3817  0.1964 -0.1844
  153SAPE  H13X17034   6.838   1.704   8.178 -0.2094  0.8649  0.4820
  153SAPE  H13Y17035   6.886   1.838   8.249 -0.2392  0.6001 -2.6780
  153SAPE  C31417036   6.961   1.682   8.361  0.0613  0.2410 -0.2801
  153SAPE  H14X17037   7.009   1.763   8.421  1.3163  0.2660 -1.2581
  153SAPE  H14Y17038   7.036   1.600   8.360 -1.8615 -1.6019 -1.3983
  153SAPE  C31517039   6.834   1.640   8.437  0.2037 -0.3794  0.5054
  153SAPE  H15X17040   6.804   1.533   8.425 -0.0211 -0.5950  2.6292
  153SAPE  H15Y17041   6.751   1.702   8.398  1.0178  0.1110 -0.4823
  153SAPE  C31617042   6.838   1.661   8.590  0.8927 -0.2047  0.0196
  153SAPE  H16X17043   6.837   1.771   8.603  1.8114 -0.1941  0.0473
  153SAPE  H16Y17044   6.920   1.619   8.652 -0.5530 -0.2972  1.9792
  153SAPE  C31717045   6.702   1.621   8.652 -0.2523 -0.6443 -0.2534
  153SAPE  H17X17046   6.623   1.675   8.594  0.1592  1.7737  1.2922
  153SAPE  H17Y17047   6.703   1.662   8.755  1.2634  0.9014 -0.8341
  153SAPE  C31817048   6.670   1.470   8.660 -0.1621  0.0777  0.2816
  153SAPE  H18X17049   6.603   1.452   8.747 -1.0965 -0.5907 -0.5458
  153SAPE  H18Y17050   6.760   1.404   8.659 -0.5268 -0.4295 -0.4944
  153SAPE  H18Z17051   6.612   1.446   8.568  0.7687 -0.5071 -0.1663
  154SAPE     N17052   5.796   6.092   6.156 -0.0159  0.5440  0.4089
  154SAPE   HN117053   5.802   6.195   6.144  1.5709  0.5736  1.2809
  154SAPE   HN217054   5.712   6.058   6.208 -1.1602  0.7009 -1.2579
  154SAPE   HN317055   5.881   6.068   6.210 -0.2610  1.9665  1.5038
  154SAPE   C1217056   5.801   6.031   6.020  0.0354 -0.0382  0.4142
  154SAPE  H12A17057   5.870   6.095   5.961  0.0448  0.1627  0.6450
  154SAPE  H12B17058   5.700   6.032   5.974 -0.0880 -2.4403  0.4894
  154SAPE   C1117059   5.850   5.884   6.015  0.5507  0.7710  0.2432
  154SAPE  H11A17060   5.946   5.877   6.070  0.2146  1.3496  0.9064
  154SAPE  H11B17061   5.871   5.850   5.911 -1.0005 -2.2886  0.8151
  154SAPE     P17062   5.716   5.655   6.033 -0.2921 -0.1519 -0.2908
  154SAPE   O1317063   5.598   5.669   5.946  0.2793 -0.0921 -0.1222
  154SAPE   O1417064   5.833   5.580   5.972 -0.1866 -0.2348  0.2051
  154SAPE   O1217065   5.758   5.795   6.078 -0.4347 -0.4582  0.1551
  154SAPE   O1117066   5.669   5.581   6.164 -0.4041 -0.0674 -0.9169
  154SAPE    C117067   5.600   5.642   6.274 -0.3304 -0.4350  0.2445
  154SAPE    HA17068   5.561   5.745   6.260 -1.0810 -0.6433  0.7140
  154SAPE    HB17069   5.504   5.590   6.295 -1.4875  1.2002 -0.7894
  154SAPE    C217070   5.680   5.636   6.403 -0.0972 -0.4257 -0.3152
  154SAPE    HS17071   5.705   5.530   6.428  1.0370  0.2184  1.4921
  154SAPE   O2117072   5.600   5.693   6.507  0.2595 -0.3093  0.5544
  154SAPE   C2117073   5.512   5.615   6.565  0.5029  0.2924 -0.0942
  154SAPE   O2217074   5.509   5.491   6.546 -0.8222  0.0879 -0.5102
  154SAPE   C2217075   5.406   5.701   6.642 -0.0871 -0.5007  0.2606
  154SAPE   H2R17076   5.460   5.790   6.681  2.1967 -1.9788  0.6508
  154SAPE   H2S17077   5.337   5.739   6.564  0.4472 -1.3148 -0.6329
  154SAPE    C317078   5.820   5.705   6.397  0.1414 -0.8735  0.0375
  154SAPE    HX17079   5.803   5.811   6.369  0.6500 -1.1011 -1.2155
  154SAPE    HY17080   5.870   5.665   6.306  1.4062 -0.2637  0.4449
  154SAPE   O3117081   5.895   5.685   6.522  0.4560  0.2097  0.3130
  154SAPE   C3117082   5.921   5.789   6.599  0.9524 -0.3035 -0.8732
  154SAPE   O3217083   5.890   5.903   6.571 -0.4206 -0.4525  0.0452
  154SAPE   C3217084   5.975   5.751   6.742 -0.7971 -0.0120  0.0428
  154SAPE   H2X17085   5.957   5.833   6.816 -1.9747 -2.1868  2.3344
  154SAPE   H2Y17086   6.085   5.746   6.729 -0.5208  2.4165  0.8989
  154SAPE   C2317087   5.330   5.616   6.746 -0.1660  0.1896 -0.1804
  154SAPE   H3R17088   5.268   5.535   6.702  0.7349 -0.2700 -0.6474
  154SAPE   H3S17089   5.263   5.693   6.789  0.8982  1.0036  0.0633
  154SAPE   C2417090   5.420   5.549   6.853 -0.2831 -0.0462  0.3005
  154SAPE   H4R17091   5.484   5.480   6.794 -1.7091 -1.0215 -0.1759
  154SAPE   H4S17092   5.363   5.496   6.932  1.1738  0.6056  1.8590
  154SAPE   C2517093   5.511   5.640   6.931  0.0900  0.6464  0.2694
  154SAPE   H5R17094   5.611   5.655   6.888  1.0173 -2.9397  0.8013
  154SAPE   C2617095   5.492   5.687   7.055  0.0829 -0.3057 -0.1561
  154SAPE   H6R17096   5.557   5.765   7.097  0.3820 -0.6910  0.0986
  154SAPE   C2717097   5.376   5.663   7.142 -0.4948  0.3167  0.3500
  154SAPE   H7R17098   5.387   5.562   7.188  1.4807  0.5491  0.4841
  154SAPE   H7S17099   5.281   5.660   7.084 -0.7556  1.3167  0.7080
  154SAPE   C2817100   5.373   5.776   7.259  0.0047  0.6457  0.0378
  154SAPE   H8R17101   5.387   5.880   7.226  0.8018  0.4006 -0.4322
  154SAPE   C2917102   5.322   5.757   7.380  0.2327  0.3971 -0.5782
  154SAPE   H9R17103   5.316   5.841   7.451  2.5429 -0.5629  0.8648
  154SAPE  C21017104   5.284   5.620   7.436  0.2737 -0.0616 -0.4213
  154SAPE  H10R17105   5.354   5.604   7.521 -0.2486  0.0515  0.0293
  154SAPE  H10S17106   5.315   5.537   7.369 -0.9018 -0.4280 -0.5231
  154SAPE  C21117107   5.137   5.625   7.475  0.4788  0.2132  0.0464
  154SAPE  H11R17108   5.062   5.619   7.395  1.9942  0.8284 -1.4681
  154SAPE  C21217109   5.098   5.614   7.602  0.0602 -0.4646 -0.3361
  154SAPE  H12R17110   4.992   5.590   7.618  0.1058 -1.2189 -1.0885
  154SAPE  C21317111   5.183   5.612   7.727 -0.1236  0.8021  0.2734
  154SAPE  H13R17112   5.273   5.550   7.707 -2.1725 -2.0808 -0.7177
  154SAPE  H13S17113   5.127   5.555   7.803 -3.2541  1.0135 -1.6905
  154SAPE  C21417114   5.242   5.737   7.779  0.1807  0.1693  0.3666
  154SAPE  H14R17115   5.286   5.792   7.695  0.0641  0.7644  0.6854
  154SAPE  C21517116   5.254   5.781   7.903  0.2649 -0.1789 -0.2191
  154SAPE  H15R17117   5.306   5.875   7.928  1.3090 -0.1098 -2.3991
  154SAPE  C21617118   5.204   5.695   8.017 -0.2605 -1.0063  0.0215
  154SAPE  H16R17119   5.236   5.590   8.001 -3.9425 -2.3371  0.2437
  154SAPE  H16S17120   5.093   5.695   8.019 -0.2521 -0.6978  0.8890
  154SAPE  C21717121   5.240   5.743   8.160 -0.2052  0.2177  0.4906
  154SAPE  H17R17122   5.212   5.851   8.167 -0.5649  0.0211  3.1327
  154SAPE  H17S17123   5.348   5.734   8.183 -0.5790 -0.2578  2.1685
  154SAPE  C21817124   5.156   5.667   8.265  0.3414  0.4174  0.0103
  154SAPE  H18R17125   5.186   5.561   8.264 -0.9292  0.0272  0.4068
  154SAPE  H18S17126   5.049   5.666   8.234  0.8942 -0.6899 -1.9980
  154SAPE  C21917127   5.176   5.712   8.410 -0.6790  0.8067 -0.4959
  154SAPE  H19R17128   5.284   5.693   8.429 -0.9873 -2.4141 -1.3885
  154SAPE  H19S17129   5.128   5.641   8.481  2.0888  0.5459  1.2759
  154SAPE  C22017130   5.126   5.858   8.435 -0.3019  0.0803 -0.8472
  154SAPE  H20R17131   5.018   5.876   8.417 -0.7044  0.9076  1.9446
  154SAPE  H20S17132   5.180   5.928   8.368 -0.4973  1.2361  0.1779
  154SAPE  H20T17133   5.159   5.873   8.540 -0.9234 -1.9632 -0.3112
  154SAPE   C3317134   5.903   5.619   6.799 -1.0041 -0.2552 -0.2767
  154SAPE   H3X17135   5.913   5.535   6.727 -1.7155 -0.6613  0.0877
  154SAPE   H3Y17136   5.793   5.633   6.802 -0.8619  1.1289 -0.7275
  154SAPE   C3417137   5.947   5.582   6.940 -0.0079 -0.0614  0.1648
  154SAPE   H4X17138   6.058   5.578   6.952 -0.1597 -0.2152  1.7256
  154SAPE   H4Y17139   5.912   5.477   6.946  0.4061 -0.4985 -3.1198
  154SAPE   C3517140   5.883   5.671   7.055  0.2410 -0.1474 -0.3511
  154SAPE   H5X17141   5.791   5.727   7.027 -0.0153  0.4579  1.5889
  154SAPE   H5Y17142   5.954   5.756   7.061 -0.4696  0.5096 -0.9930
  154SAPE   C3617143   5.857   5.595   7.186  0.6136 -0.3989  0.2190
  154SAPE   H6X17144   5.945   5.533   7.214  2.3379  1.8552  0.0228
  154SAPE   H6Y17145   5.774   5.529   7.152  0.1601  0.8585 -1.2355
  154SAPE   C3717146   5.802   5.671   7.313 -0.3140 -0.1607 -0.0513
  154SAPE   H7X17147   5.703   5.720   7.297 -0.6075 -1.0141 -1.0106
  154SAPE   H7Y17148   5.877   5.744   7.351  0.8320  0.1393 -2.6442
  154SAPE   C3817149   5.773   5.580   7.437  0.8041  0.2076  0.0002
  154SAPE   H8X17150   5.860   5.522   7.473  0.2331  0.4231  1.8540
  154SAPE   H8Y17151   5.689   5.510   7.416  0.9793 -0.5113  1.5710
  154SAPE   C3917152   5.729   5.651   7.562  0.4501  0.0572 -0.1731
  154SAPE   H9X17153   5.648   5.723   7.539  0.5859  0.2569 -0.0315
  154SAPE   H9Y17154   5.814   5.711   7.602  0.1716  0.1900  0.2257
  154SAPE  C31017155   5.660   5.572   7.672 -0.0782  0.5711 -0.1702
  154SAPE  H10X17156   5.726   5.496   7.718 -1.2220 -0.6035 -0.4130
  154SAPE  H10Y17157   5.568   5.522   7.634  0.3294  0.0348 -0.4635
  154SAPE  C31117158   5.616   5.671   7.783 -0.2171  0.1638  0.0962
  154SAPE  H11X17159   5.532   5.725   7.734 -1.0586 -0.7914  0.4430
  154SAPE  H11Y17160   5.699   5.738   7.815 -2.4082  3.5558 -0.8063
  154SAPE  C31217161   5.573   5.602   7.907  0.5260  0.0000 -0.5684
  154SAPE  H12X17162   5.492   5.532   7.878 -0.0166  0.3783  0.0173
  154SAPE  H12Y17163   5.516   5.668   7.975 -2.0298 -0.7250 -1.8904
  154SAPE  C31317164   5.670   5.529   8.002  0.8898  0.3310 -0.4701
  154SAPE  H13X17165   5.751   5.597   8.036  1.0358  0.6520 -1.4282
  154SAPE  H13Y17166   5.735   5.453   7.952 -0.4635 -2.0578  1.1982
  154SAPE  C31417167   5.599   5.460   8.122 -0.9146 -0.5056  0.1724
  154SAPE  H14X17168   5.602   5.351   8.099  1.5033  0.0018 -2.4089
  154SAPE  H14Y17169   5.497   5.501   8.136 -0.2948  1.6774 -1.3569
  154SAPE  C31517170   5.681   5.480   8.256  0.2766  0.3110  0.2694
  154SAPE  H15X17171   5.674   5.589   8.277 -0.7432  0.4321 -0.6181
  154SAPE  H15Y17172   5.784   5.445   8.233 -0.5299  0.1116 -3.9902
  154SAPE  C31617173   5.624   5.406   8.381  0.2654  0.1915  0.6023
  154SAPE  H16X17174   5.679   5.453   8.466  1.6491 -0.2908  0.0047
  154SAPE  H16Y17175   5.647   5.297   8.384  0.6373  0.1818 -1.3143
  154SAPE  C31717176   5.474   5.432   8.395 -0.1409  0.3152 -0.5777
  154SAPE  H17X17177   5.420   5.374   8.317  0.5140 -1.0920 -0.0144
  154SAPE  H17Y17178   5.447   5.538   8.374  2.5839  0.6067 -3.4014
  154SAPE  C31817179   5.428   5.386   8.533  0.3342 -0.5627 -0.2453
  154SAPE  H18X17180   5.317   5.382   8.536  0.3504 -0.7389  0.1669
  154SAPE  H18Y17181   5.455   5.456   8.615 -0.4270 -0.5387 -0.0024
  154SAPE  H18Z17182   5.478   5.290   8.558  3.1894  1.1004  0.8931
  155SAPE     N17183   6.145   2.182   6.455 -0.6363  0.0667  0.2413
  155SAPE   HN117184   6.204   2.101   6.427 -0.1632 -0.3623  2.2822
  155SAPE   HN217185   6.164   2.185   6.557  3.4213 -5.9367  0.1905
  155SAPE   HN317186   6.044   2.159   6.455 -0.7050  0.3548 -0.1354
  155SAPE   C1217187   6.159   2.311   6.377 -0.0921 -0.5761  0.3525
  155SAPE  H12A17188   6.084   2.382   6.418 -0.3293 -1.3749  1.3318
  155SAPE  H12B17189   6.135   2.294   6.270  0.8273  0.3894 -0.0297
  155SAPE   C1117190   6.305   2.367   6.387 -0.0485 -0.1722 -0.9414
  155SAPE  H11A17191   6.317   2.384   6.496  0.6060  0.5697 -1.1219
  155SAPE  H11B17192   6.314   2.466   6.338  0.6419  0.0859 -0.3116
  155SAPE     P17193   6.553   2.299   6.356 -0.0066  0.3268  0.2220
  155SAPE   O1317194   6.626   2.169   6.334 -0.1097 -0.1825 -0.5359
  155SAPE   O1417195   6.586   2.405   6.265  0.3264  0.0897 -0.3810
  155SAPE   O1217196   6.401   2.265   6.345  0.6356 -0.6852 -0.8712
  155SAPE   O1117197   6.575   2.351   6.502 -0.6201 -0.1019 -0.4044
  155SAPE    C117198   6.550   2.264   6.610 -0.0599  0.2688 -0.8398
  155SAPE    HA17199   6.451   2.218   6.592 -0.5502  0.3703  1.2828
  155SAPE    HB17200   6.628   2.185   6.616 -1.0129 -0.7680 -1.7244
  155SAPE    C217201   6.559   2.348   6.744 -0.3372 -1.5422 -0.4139
  155SAPE    HS17202   6.472   2.417   6.737  0.4339 -0.1667  2.4245
  155SAPE   O2117203   6.679   2.416   6.752  0.3988 -0.7856  0.2745
  155SAPE   C2117204   6.672   2.536   6.823  0.0116 -0.1362  0.0589
  155SAPE   O2217205   6.573   2.598   6.842  0.5914 -0.8602  0.2951
  155SAPE   C2217206   6.809   2.581   6.870  0.0780 -0.0034  0.4952
  155SAPE   H2R17207   6.871   2.492   6.894  0.7449  0.8606  2.1358
  155SAPE   H2S17208   6.864   2.624   6.783  0.9767 -1.9599  0.0370
  155SAPE    C317209   6.537   2.258   6.871 -0.0073  0.3304 -0.2172
  155SAPE    HX17210   6.605   2.170   6.866  0.5041  0.7581 -1.2489
  155SAPE    HY17211   6.435   2.221   6.848 -0.9787  2.8760 -0.3131
  155SAPE   O3117212   6.549   2.321   6.997  0.4870 -0.7742 -0.1811
  155SAPE   C3117213   6.434   2.378   7.044 -0.4846 -0.4751  0.1983
  155SAPE   O3217214   6.335   2.390   6.977  0.2876  0.0219  0.2012
  155SAPE   C3217215   6.474   2.457   7.165  0.4436  0.2950 -0.2349
  155SAPE   H2X17216   6.567   2.514   7.141  0.9280 -1.3811 -2.6761
  155SAPE   H2Y17217   6.484   2.393   7.255  0.6814 -0.4920 -0.8074
  155SAPE   C2317218   6.802   2.675   6.992  0.0834 -0.8543 -0.4105
  155SAPE   H3R17219   6.746   2.617   7.068  0.6339 -0.0261  0.6475
  155SAPE   H3S17220   6.747   2.768   6.965  0.4350 -0.1148  1.3271
  155SAPE   C2417221   6.935   2.713   7.070 -1.0738 -0.1886  0.1105
  155SAPE   H4R17222   6.899   2.772   7.157 -0.9095  0.8263 -0.4886
  155SAPE   H4S17223   6.989   2.774   6.994 -2.0042  0.9005  0.2941
  155SAPE   C2517224   7.013   2.590   7.101 -0.7204  0.5226 -0.0143
  155SAPE   H5R17225   7.041   2.528   7.015  0.0639 -1.5921  1.6566
  155SAPE   C2617226   7.065   2.563   7.224 -0.1948 -0.7912 -0.7532
  155SAPE   H6R17227   7.140   2.483   7.233  2.1354  1.3376 -0.1383
  155SAPE   C2717228   7.035   2.649   7.342 -0.2543  0.0946 -0.6342
  155SAPE   H7R17229   6.928   2.675   7.359  0.0018  0.0493  1.3601
  155SAPE   H7S17230   7.085   2.747   7.325  1.1492 -0.2060  1.3742
  155SAPE   C2817231   7.106   2.583   7.459  0.0953  0.4143  0.0157
  155SAPE   H8R17232   7.211   2.554   7.444  0.2965 -0.6429  2.8866
  155SAPE   C2917233   7.049   2.559   7.580 -0.0578  0.5145 -0.4223
  155SAPE   H9R17234   7.117   2.507   7.648 -2.5013 -1.3221  0.7557
  155SAPE  C21017235   6.911   2.594   7.636  0.0422  0.5820 -0.4764
  155SAPE  H10R17236   6.860   2.637   7.547  1.6859 -0.4088 -1.9811
  155SAPE  H10S17237   6.923   2.677   7.708 -2.3250  0.7747 -0.2317
  155SAPE  C21117238   6.832   2.480   7.702 -0.6436 -0.6567  0.4978
  155SAPE  H11R17239   6.761   2.419   7.645 -1.6969  1.2012 -0.2475
  155SAPE  C21217240   6.828   2.460   7.835  0.3945  0.2528  0.6923
  155SAPE  H12R17241   6.778   2.366   7.864  0.2618  0.4833  1.2145
  155SAPE  C21317242   6.905   2.535   7.942 -0.1501 -0.5626  0.8671
  155SAPE  H13R17243   7.010   2.564   7.919  0.0544  1.0507  3.4057
  155SAPE  H13S17244   6.927   2.461   8.022  1.0917  0.4812  1.5337
  155SAPE  C21417245   6.832   2.663   7.986 -0.1605  0.0264  0.3330
  155SAPE  H14R17246   6.835   2.738   7.906  3.5534 -1.0856 -0.7466
  155SAPE  C21517247   6.791   2.698   8.110  0.0912  0.2621  1.0850
  155SAPE  H15R17248   6.744   2.797   8.117 -0.3187  0.1324  0.3126
  155SAPE  C21617249   6.797   2.617   8.239 -0.3536 -0.0184 -0.4891
  155SAPE  H16R17250   6.820   2.509   8.222  1.7499  0.1007  1.2086
  155SAPE  H16S17251   6.703   2.634   8.295  0.4867  2.1563  0.3526
  155SAPE  C21717252   6.912   2.669   8.339  0.4204  0.3589  0.4641
  155SAPE  H17R17253   6.897   2.615   8.435 -1.5525  2.4315  1.4027
  155SAPE  H17S17254   6.880   2.772   8.366  0.9510  1.0392 -1.3831
  155SAPE  C21817255   7.048   2.650   8.269  0.0052 -0.0106  0.1765
  155SAPE  H18R17256   7.053   2.704   8.172 -0.7924  0.3145  0.3063
  155SAPE  H18S17257   7.051   2.546   8.229 -0.6592  1.1666 -3.2739
  155SAPE  C21917258   7.171   2.695   8.356  0.0498  0.1542  0.0154
  155SAPE  H19R17259   7.149   2.664   8.461 -0.2960  0.9823  0.1929
  155SAPE  H19S17260   7.176   2.806   8.354  1.3262  0.1028 -0.7717
  155SAPE  C22017261   7.297   2.645   8.297 -0.7337  0.1326  0.3795
  155SAPE  H20R17262   7.387   2.648   8.362 -0.2324 -1.3673 -0.1895
  155SAPE  H20S17263   7.329   2.682   8.197 -1.9999  1.1580  0.3273
  155SAPE  H20T17264   7.278   2.536   8.284  0.1355  0.1891 -1.7504
  155SAPE   C3317265   6.367   2.556   7.213  0.2536  0.0962 -0.0037
  155SAPE   H3X17266   6.282   2.490   7.238  0.4105  0.1558  0.7123
  155SAPE   H3Y17267   6.325   2.618   7.131 -0.8203 -2.2982 -1.3357
  155SAPE   C3417268   6.403   2.644   7.325 -0.5289  0.2397 -0.5287
  155SAPE   H4X17269   6.322   2.721   7.328  0.1396  0.9164  0.9907
  155SAPE   H4Y17270   6.496   2.699   7.300 -0.9872  0.5587 -1.6006
  155SAPE   C3517271   6.421   2.584   7.465 -0.1121  0.7926 -0.0882
  155SAPE   H5X17272   6.510   2.518   7.472 -0.9869 -0.4416 -0.1634
  155SAPE   H5Y17273   6.334   2.520   7.492  0.8603 -0.2727  0.6068
  155SAPE   C3617274   6.443   2.684   7.588  0.4895  0.6227 -0.0488
  155SAPE   H6X17275   6.389   2.775   7.556  0.3051  0.3445 -0.5364
  155SAPE   H6Y17276   6.546   2.726   7.584  0.0862  1.6510  0.3175
  155SAPE   C3717277   6.405   2.628   7.718  0.6320  1.1016  0.5739
  155SAPE   H7X17278   6.451   2.530   7.743  1.2178  1.2827  0.2351
  155SAPE   H7Y17279   6.297   2.603   7.729  0.3431  2.4677  1.0493
  155SAPE   C3817280   6.448   2.725   7.828  0.3346  0.2529  0.1115
  155SAPE   H8X17281   6.399   2.817   7.792  0.1706 -0.8119 -2.6424
  155SAPE   H8Y17282   6.558   2.741   7.826  0.2755  0.6992  0.5173
  155SAPE   C3917283   6.415   2.693   7.975 -0.2691  0.6152  0.0293
  155SAPE   H9X17284   6.307   2.716   7.991  0.1325  0.7940  3.0262
  155SAPE   H9Y17285   6.466   2.760   8.047 -0.6674  0.2468  0.6682
  155SAPE  C31017286   6.452   2.548   8.012  0.0877 -0.2208 -0.3525
  155SAPE  H10X17287   6.556   2.522   7.983  0.8169  0.9662  1.0562
  155SAPE  H10Y17288   6.403   2.477   7.941 -0.5456 -0.8055  0.6410
  155SAPE  C31117289   6.418   2.508   8.160 -0.2366 -0.6400  0.6410
  155SAPE  H11X17290   6.480   2.566   8.231 -1.1220  0.4482  0.5629
  155SAPE  H11Y17291   6.444   2.401   8.175  0.5827 -0.4771  0.3905
  155SAPE  C31217292   6.271   2.532   8.201  0.0424  0.1653  0.1267
  155SAPE  H12X17293   6.200   2.474   8.138 -0.1498  0.4178  0.1098
  155SAPE  H12Y17294   6.254   2.641   8.205 -0.0287  0.1995 -0.9083
  155SAPE  C31317295   6.230   2.463   8.337 -0.0139 -0.0675 -0.5082
  155SAPE  H13X17296   6.283   2.510   8.422  0.0692  1.1468 -1.2090
  155SAPE  H13Y17297   6.265   2.358   8.338  3.1478  0.9122  0.3294
  155SAPE  C31417298   6.073   2.480   8.357  0.5233  0.2538  0.1618
  155SAPE  H14X17299   6.013   2.416   8.289 -0.0348  0.0511  0.8336
  155SAPE  H14Y17300   6.051   2.588   8.345 -1.9935 -0.2720 -0.6083
  155SAPE  C31517301   6.019   2.439   8.497 -0.3507  0.4811  0.1050
  155SAPE  H15X17302   5.910   2.462   8.490 -0.3808  0.1362 -0.6260
  155SAPE  H15Y17303   6.078   2.488   8.578  0.0184 -0.1069  0.2013
  155SAPE  C31617304   6.033   2.291   8.531  0.0200 -0.0969 -0.0442
  155SAPE  H16X17305   5.983   2.259   8.625  1.0325  0.5829  0.7346
  155SAPE  H16Y17306   6.141   2.266   8.540  0.2785  1.0699  0.2505
  155SAPE  C31717307   5.972   2.201   8.428  1.1955  0.0617  0.3397
  155SAPE  H17X17308   6.050   2.189   8.350  0.2832  2.0186 -0.9770
  155SAPE  H17Y17309   5.890   2.251   8.372  2.3425  1.2989 -0.2795
  155SAPE  C31817310   5.922   2.062   8.471 -0.1471 -0.7199  0.9252
  155SAPE  H18X17311   5.845   2.032   8.396  0.1356 -0.1698  0.4118
  155SAPE  H18Y17312   5.880   2.074   8.573  0.7829 -1.5102  1.4195
  155SAPE  H18Z17313   6.001   1.984   8.477 -1.0701 -1.7931 -0.3100
  156SAPE     N17314   5.495   1.031   6.476 -0.1142  1.0431 -0.0259
  156SAPE   HN117315   5.419   1.089   6.516  0.2263  3.0572 -2.0781
  156SAPE   HN217316   5.558   1.002   6.554 -2.7337  0.6729  2.1013
  156SAPE   HN317317   5.534   1.098   6.406 -0.7855 -1.0850 -2.6176
  156SAPE   C1217318   5.448   0.906   6.410  0.1194  0.2291 -0.0814
  156SAPE  H12A17319   5.529   0.831   6.424  1.2571  1.6847  1.6119
  156SAPE  H12B17320   5.414   0.927   6.307 -1.4183 -0.0963  0.3288
  156SAPE   C1117321   5.323   0.857   6.487  0.9170 -0.4839  0.6223
  156SAPE  H11A17322   5.342   0.882   6.593 -0.0600  1.4977  0.3787
  156SAPE  H11B17323   5.306   0.748   6.480 -0.7042 -0.1510 -2.3862
  156SAPE     P17324   5.109   0.875   6.339 -0.0318 -0.6801 -0.4898
  156SAPE   O1317325   5.041   0.995   6.283 -0.2933  0.1665 -0.6233
  156SAPE   O1417326   5.169   0.788   6.237 -0.1799 -0.1649 -0.1721
  156SAPE   O1217327   5.211   0.933   6.449 -0.0274  0.2484  0.6759
  156SAPE   O1117328   5.011   0.788   6.429 -0.1989 -0.3849 -0.1699
  156SAPE    C117329   4.998   0.798   6.571  0.5961 -0.2869  0.9354
  156SAPE    HA17330   4.955   0.707   6.619 -3.0649 -0.5806 -2.3284
  156SAPE    HB17331   5.087   0.834   6.625 -1.1687  1.9988  2.5295
  156SAPE    C217332   4.896   0.917   6.596 -0.0874  0.9783  0.9949
  156SAPE    HS17333   4.926   1.008   6.541 -1.2374  0.0265 -1.3743
  156SAPE   O2117334   4.896   0.955   6.732  0.2024  0.0803  0.6582
  156SAPE   C2117335   4.992   1.025   6.784  0.8982  0.6784 -0.5526
  156SAPE   O2217336   5.072   1.095   6.726 -0.5620  0.1180  0.2040
  156SAPE   C2217337   4.985   0.983   6.937  0.3050  0.3124  0.3630
  156SAPE   H2R17338   4.883   1.018   6.965  0.4388  0.9656  0.0609
  156SAPE   H2S17339   4.987   0.872   6.941  0.8359  0.3225  0.4032
  156SAPE    C317340   4.757   0.863   6.546  0.9097 -0.3409 -0.1642
  156SAPE    HX17341   4.760   0.753   6.560  2.9894 -0.5350 -1.6211
  156SAPE    HY17342   4.746   0.895   6.440 -0.8667 -1.0414 -0.2215
  156SAPE   O3117343   4.653   0.932   6.619 -0.3753 -0.0422  0.3256
  156SAPE   C3117344   4.618   0.877   6.735 -0.9414 -0.1658 -0.3012
  156SAPE   O3217345   4.666   0.779   6.785  0.4486  0.9402  0.2147
  156SAPE   C3217346   4.520   0.974   6.810 -0.3592 -0.5278 -0.0165
  156SAPE   H2X17347   4.429   0.978   6.747 -0.5532  1.9786  0.3224
  156SAPE   H2Y17348   4.566   1.075   6.808 -0.6361 -0.4145 -1.7573
  156SAPE   C2317349   5.091   1.041   7.035 -0.5695  0.6155  0.3087
  156SAPE   H3R17350   5.076   1.149   7.056  0.0177  0.5271  1.2539
  156SAPE   H3S17351   5.188   1.025   6.984 -1.2580  1.7294 -1.4347
  156SAPE   C2417352   5.087   0.978   7.176  0.7415 -0.0217  0.2439
  156SAPE   H4R17353   5.173   1.011   7.238  0.6553  1.3582 -0.3363
  156SAPE   H4S17354   5.103   0.868   7.169  1.1202  0.0945 -0.9709
  156SAPE   C2517355   4.962   1.003   7.257  0.0080  0.1032  0.2136
  156SAPE   H5R17356   4.873   1.009   7.193 -0.0325 -1.9108 -0.0025
  156SAPE   C2617357   4.946   1.039   7.382  0.0047  0.7761 -0.2688
  156SAPE   H6R17358   4.846   1.058   7.421  0.0530 -0.7895  0.7220
  156SAPE   C2717359   5.056   1.052   7.485 -0.2875 -0.8214  0.1364
  156SAPE   H7R17360   5.022   1.096   7.581  1.3657 -0.7183  0.7137
  156SAPE   H7S17361   5.131   1.127   7.452 -1.6667  1.2380  1.4747
  156SAPE   C2817362   5.131   0.922   7.518  0.7333 -0.3305  0.0758
  156SAPE   H8R17363   5.158   0.849   7.440  0.7662 -2.0857  1.6459
  156SAPE   C2917364   5.171   0.888   7.642 -0.1594  0.0615  0.1715
  156SAPE   H9R17365   5.223   0.792   7.653  2.6151  1.4630  0.3238
  156SAPE  C21017366   5.143   0.960   7.765  0.3094 -0.1889 -0.3334
  156SAPE  H10R17367   5.134   1.070   7.754 -1.3751 -0.4118 -1.4593
  156SAPE  H10S17368   5.235   0.941   7.825  0.4916  0.5874 -0.3595
  156SAPE  C21117369   5.039   0.895   7.849  0.5742  0.0857 -0.0365
  156SAPE  H11R17370   5.010   0.790   7.834  0.0739  0.0487  1.0705
  156SAPE  C21217371   4.962   0.950   7.946  0.2948 -0.1329  0.4222
  156SAPE  H12R17372   4.891   0.885   8.000 -0.2020  0.6690  0.7395
  156SAPE  C21317373   4.983   1.090   7.985 -0.1628 -0.1071 -1.3580
  156SAPE  H13R17374   4.995   1.166   7.905 -0.5986  0.7739 -0.6063
  156SAPE  H13S17375   5.072   1.084   8.051 -1.4945 -1.1847  0.4484
  156SAPE  C21417376   4.870   1.152   8.060  0.3819  0.6275  0.3177
  156SAPE  H14R17377   4.791   1.197   7.997 -0.2115  0.1241  0.6850
  156SAPE  C21517378   4.839   1.135   8.190  0.2191 -0.4074  0.2161
  156SAPE  H15R17379   4.739   1.167   8.224  1.3354  2.3289  1.2141
  156SAPE  C21617380   4.921   1.060   8.294  0.1672 -0.2596  0.2685
  156SAPE  H16R17381   5.030   1.072   8.275  0.5114 -4.2394 -1.2241
  156SAPE  H16S17382   4.893   0.952   8.295 -1.2829  0.0703 -0.6368
  156SAPE  C21717383   4.895   1.117   8.436 -0.4114  0.6314  0.6922
  156SAPE  H17R17384   4.939   1.054   8.516 -1.5368  0.6435  1.3402
  156SAPE  H17S17385   4.787   1.115   8.464 -0.7387 -1.7307 -0.4303
  156SAPE  C21817386   4.954   1.259   8.450 -0.9947 -0.3268 -0.4869
  156SAPE  H18R17387   4.896   1.326   8.383 -2.3280 -1.7032 -0.7765
  156SAPE  H18S17388   5.059   1.273   8.414 -0.2119  0.0276  1.7564
  156SAPE  C21917389   4.937   1.314   8.596  0.0280 -0.2162  0.3880
  156SAPE  H19R17390   4.831   1.324   8.626 -0.6805  1.8375 -2.3960
  156SAPE  H19S17391   4.985   1.414   8.592  0.6804 -0.5408 -2.6213
  156SAPE  C22017392   5.004   1.224   8.696  0.5729  0.2507  0.4495
  156SAPE  H20R17393   5.109   1.200   8.670  0.8801 -0.6697  2.2890
  156SAPE  H20S17394   4.943   1.131   8.702 -0.6947  1.0192 -0.0886
  156SAPE  H20T17395   5.004   1.274   8.796  1.5583  1.5290 -0.1673
  156SAPE   C3317396   4.504   0.937   6.967 -0.3269 -0.6267  0.2467
  156SAPE   H3X17397   4.598   0.889   7.000  1.9000  0.8953 -3.3275
  156SAPE   H3Y17398   4.427   0.856   6.964 -0.7954 -0.1623 -1.0090
  156SAPE   C3417399   4.457   1.048   7.056  0.1250  0.0293  0.5058
  156SAPE   H4X17400   4.361   1.084   7.014  0.2195 -0.1572  0.1228
  156SAPE   H4Y17401   4.524   1.135   7.071  0.8741 -0.9565  3.5741
  156SAPE   C3517402   4.430   1.006   7.204 -0.5224 -0.2917  0.0509
  156SAPE   H5X17403   4.360   0.919   7.214 -1.2232  0.3211  0.6032
  156SAPE   H5Y17404   4.378   1.088   7.259 -1.8943 -0.9010 -0.2755
  156SAPE   C3617405   4.557   0.967   7.280  0.5133 -0.1146 -0.0232
  156SAPE   H6X17406   4.625   1.055   7.282  0.9722 -0.4457  1.9151
  156SAPE   H6Y17407   4.612   0.878   7.244  2.3287  0.4202  1.2736
  156SAPE   C3717408   4.511   0.922   7.423  0.2264 -0.3736 -0.1511
  156SAPE   H7X17409   4.461   0.825   7.404 -0.0100 -0.4122  0.6515
  156SAPE   H7Y17410   4.445   1.004   7.459  0.9636  0.4791 -0.6880
  156SAPE   C3817411   4.627   0.905   7.521 -0.4989 -0.0724 -0.8791
  156SAPE   H8X17412   4.691   0.996   7.526  0.5592 -0.7959 -0.8152
  156SAPE   H8Y17413   4.707   0.843   7.476  1.4224  1.6020  0.0472
  156SAPE   C3917414   4.571   0.855   7.654  0.3776 -0.0799  0.1415
  156SAPE   H9X17415   4.558   0.744   7.659 -0.8580  0.0213 -0.5004
  156SAPE   H9Y17416   4.465   0.887   7.664  0.5178  0.3506  0.2390
  156SAPE  C31017417   4.648   0.916   7.771 -0.1663 -0.0862  0.6761
  156SAPE  H10X17418   4.694   1.016   7.755 -0.4034 -0.3774 -2.5112
  156SAPE  H10Y17419   4.740   0.855   7.776 -0.1087  0.0399  1.2207
  156SAPE  C31117420   4.583   0.906   7.903  0.1333 -0.5847 -0.3406
  156SAPE  H11X17421   4.477   0.939   7.899  0.6013  0.9399 -1.0011
  156SAPE  H11Y17422   4.644   0.960   7.978  0.8246 -0.3460 -1.0614
  156SAPE  C31217423   4.598   0.759   7.955 -0.4416 -0.0507 -0.0376
  156SAPE  H12X17424   4.708   0.740   7.962 -0.4114  0.6043  2.0125
  156SAPE  H12Y17425   4.555   0.689   7.881  0.8887 -0.1686 -0.7304
  156SAPE  C31317426   4.536   0.749   8.098 -0.6202  0.7155 -0.0045
  156SAPE  H13X17427   4.512   0.642   8.116  0.8778  0.6301  1.8077
  156SAPE  H13Y17428   4.443   0.807   8.112 -0.5382  1.9617 -3.5253
  156SAPE  C31417429   4.647   0.777   8.198  0.0863 -0.1823 -0.7483
  156SAPE  H14X17430   4.695   0.876   8.182  0.9926  0.3243  3.7062
  156SAPE  H14Y17431   4.724   0.699   8.180 -0.3290 -0.1785 -2.8128
  156SAPE  C31517432   4.604   0.765   8.342  0.7248  0.1891 -0.1964
  156SAPE  H15X17433   4.554   0.666   8.345  1.9662 -0.4880 -0.9975
  156SAPE  H15Y17434   4.519   0.833   8.363 -0.2481 -1.2591  0.8039
  156SAPE  C31617435   4.709   0.792   8.444  0.2463  0.0159  0.0849
  156SAPE  H16X17436   4.722   0.902   8.443  0.8749 -0.0568 -0.2044
  156SAPE  H16Y17437   4.797   0.741   8.400  0.7661 -0.8663  2.0270
  156SAPE  C31717438   4.684   0.735   8.587  0.3616  0.4843  0.5088
  156SAPE  H17X17439   4.687   0.624   8.588  2.4417  0.4731  2.2485
  156SAPE  H17Y17440   4.590   0.782   8.621  0.5341  1.6113 -0.5304
  156SAPE  C31817441   4.787   0.772   8.695  0.7498  0.4593  0.9915
  156SAPE  H18X17442   4.883   0.755   8.641 -0.9172 -1.6995 -1.5022
  156SAPE  H18Y17443   4.779   0.710   8.787  1.4383 -1.2573 -0.0631
  156SAPE  H18Z17444   4.758   0.872   8.734 -0.7753 -0.5519  2.6249
  157SAPE     N17445   6.740   2.617   6.357  0.0483 -0.5445  0.8870
  157SAPE   HN117446   6.682   2.680   6.416 -0.2377 -1.5274  1.6831
  157SAPE   HN217447   6.694   2.526   6.334  0.2569 -0.5102  0.3109
  157SAPE   HN317448   6.826   2.592   6.409 -0.5528 -1.1780  1.6099
  157SAPE   C1217449   6.766   2.689   6.232 -0.0476  0.3013 -0.2776
  157SAPE  H12A17450   6.769   2.796   6.260 -0.0440  0.3780 -0.5648
  157SAPE  H12B17451   6.691   2.676   6.151  1.9039  2.0584 -2.5038
  157SAPE   C1117452   6.909   2.645   6.176 -0.3241  0.2695 -0.4008
  157SAPE  H11A17453   6.977   2.657   6.263 -1.1965  1.4499  0.1350
  157SAPE  H11B17454   6.935   2.720   6.098  1.6752 -1.8751 -1.9444
  157SAPE     P17455   6.998   2.402   6.192 -0.2927  0.1467 -0.6538
  157SAPE   O1317456   6.971   2.271   6.128 -0.2834 -0.1460 -0.1364
  157SAPE   O1417457   7.134   2.449   6.194 -0.3685  0.4883 -0.4904
  157SAPE   O1217458   6.915   2.515   6.124  0.0860  0.2653 -0.2155
  157SAPE   O1117459   6.942   2.400   6.334 -0.0973 -0.8981 -0.7135
  157SAPE    C117460   6.966   2.287   6.416 -0.4733 -0.0624 -0.6643
  157SAPE    HA17461   6.878   2.220   6.419 -1.6398  1.4494  1.7815
  157SAPE    HB17462   7.063   2.234   6.401  0.8875  2.4113 -1.2180
  157SAPE    C217463   6.967   2.323   6.565  0.1657  0.6263  0.3886
  157SAPE    HS17464   6.871   2.370   6.596 -0.0467  0.8290 -0.5354
  157SAPE   O2117465   7.081   2.408   6.605  0.4611 -0.2310 -0.9846
  157SAPE   C2117466   7.051   2.542   6.590  0.3619  0.0071  0.3333
  157SAPE   O2217467   6.946   2.583   6.538 -0.4422  0.4205 -0.0713
  157SAPE   C2217468   7.155   2.641   6.641 -0.1293 -0.5053 -0.3178
  157SAPE   H2R17469   7.219   2.665   6.553  0.0061 -2.3656 -0.7720
  157SAPE   H2S17470   7.095   2.731   6.669  1.9992  1.0137 -0.3883
  157SAPE    C317471   6.980   2.191   6.650  0.1078  0.0461  0.4855
  157SAPE    HX17472   7.083   2.153   6.632  0.2598  0.5239  0.3328
  157SAPE    HY17473   6.904   2.112   6.627  0.5720 -0.1355 -0.4846
  157SAPE   O3117474   6.972   2.234   6.788  0.7289 -0.3332  0.4097
  157SAPE   C3117475   6.898   2.162   6.871 -0.4046 -0.2278 -0.1237
  157SAPE   O3217476   6.824   2.068   6.840  0.4025  0.1131 -0.3051
  157SAPE   C3217477   6.927   2.204   7.016  0.2546 -0.4185  0.3185
  157SAPE   H2X17478   6.933   2.314   7.027  1.1294 -0.6395  2.4060
  157SAPE   H2Y17479   7.027   2.160   7.032  1.7524  0.3740 -5.0137
  157SAPE   C2317480   7.244   2.595   6.756 -0.5912 -0.5518  0.3179
  157SAPE   H3R17481   7.296   2.498   6.741 -0.3409 -0.5299  0.9712
  157SAPE   H3S17482   7.185   2.583   6.849  1.3097 -2.6950  1.3480
  157SAPE   C2417483   7.351   2.703   6.791 -0.4772  0.4098  0.6702
  157SAPE   H4R17484   7.293   2.797   6.799 -2.2328 -0.7213  1.9168
  157SAPE   H4S17485   7.416   2.705   6.701 -1.4032 -0.9896 -0.0681
  157SAPE   C2517486   7.428   2.671   6.917 -0.0235  0.1830  0.0081
  157SAPE   H5R17487   7.475   2.572   6.919 -0.4158 -0.0009  1.0449
  157SAPE   C2617488   7.427   2.739   7.034  0.2168  0.0689  0.7922
  157SAPE   H6R17489   7.496   2.708   7.114  0.4313 -0.0792  0.5519
  157SAPE   C2717490   7.362   2.870   7.051 -0.5426  0.2677 -0.1304
  157SAPE   H7R17491   7.258   2.858   7.087 -0.5645  2.0625  0.5020
  157SAPE   H7S17492   7.351   2.922   6.954 -3.5069 -0.8603 -0.4848
  157SAPE   C2817493   7.428   2.962   7.145 -0.8759 -1.2916  0.1198
  157SAPE   H8R17494   7.459   3.056   7.097  0.6471 -1.6630  0.3140
  157SAPE   C2917495   7.433   2.939   7.277 -0.0508  0.4586 -0.8126
  157SAPE   H9R17496   7.481   3.017   7.337  0.9213 -1.7236  1.4220
  157SAPE  C21017497   7.377   2.820   7.358 -0.5830  0.0098  0.2126
  157SAPE  H10R17498   7.465   2.764   7.394  0.1354  0.3444 -0.9838
  157SAPE  H10S17499   7.322   2.753   7.288 -1.5587  1.2674 -0.2542
  157SAPE  C21117500   7.293   2.876   7.470  0.5957 -0.4138  0.1748
  157SAPE  H11R17501   7.223   2.952   7.432 -2.9657 -3.1226  0.7335
  157SAPE  C21217502   7.300   2.844   7.596  0.0410 -0.8080 -0.3328
  157SAPE  H12R17503   7.219   2.886   7.659  0.0711  0.1471 -0.9190
  157SAPE  C21317504   7.395   2.743   7.663  0.0756  0.5123 -0.3135
  157SAPE  H13R17505   7.402   2.663   7.587  2.9535 -0.5780  0.9587
  157SAPE  H13S17506   7.350   2.698   7.754 -0.1492 -2.6844 -1.8917
  157SAPE  C21417507   7.535   2.789   7.696 -0.1260  0.0450 -0.0057
  157SAPE  H14R17508   7.572   2.860   7.621  1.3746 -0.3844  0.2981
  157SAPE  C21517509   7.617   2.755   7.804  0.2641  0.3194 -0.3653
  157SAPE  H15R17510   7.710   2.810   7.823 -0.2657  0.7458  1.1094
  157SAPE  C21617511   7.583   2.654   7.910  0.7709 -0.3702  1.0302
  157SAPE  H16R17512   7.570   2.553   7.866  0.2449  1.1137 -2.5531
  157SAPE  H16S17513   7.479   2.666   7.945 -0.8877 -0.3047 -3.3407
  157SAPE  C21717514   7.667   2.629   8.034 -0.1249 -0.0304 -0.3303
  157SAPE  H17R17515   7.682   2.723   8.092  1.6236 -1.5745  1.8773
  157SAPE  H17S17516   7.764   2.590   7.998 -0.6379 -2.5708  0.7858
  157SAPE  C21817517   7.623   2.516   8.126 -0.1845 -0.6382  0.9591
  157SAPE  H18R17518   7.635   2.417   8.075 -0.7917 -0.0508 -0.3721
  157SAPE  H18S17519   7.516   2.543   8.132  0.3909  1.8651  0.8954
  157SAPE  C21917520   7.682   2.507   8.270  0.5197 -0.1605 -0.0371
  157SAPE  H19R17521   7.658   2.606   8.314 -3.8424 -0.8248 -0.4490
  157SAPE  H19S17522   7.791   2.488   8.261  0.2553 -1.7022 -0.2533
  157SAPE  C22017523   7.617   2.399   8.361  0.6608  0.1447 -1.0285
  157SAPE  H20R17524   7.621   2.304   8.303 -1.5404 -0.5661 -0.1370
  157SAPE  H20S17525   7.513   2.429   8.386 -0.8842 -2.5742 -3.4908
  157SAPE  H20T17526   7.685   2.378   8.445  0.1520 -2.9804 -1.2864
  157SAPE   C3317527   6.820   2.146   7.102  0.3317  0.0988 -0.3022
  157SAPE   H3X17528   6.770   2.057   7.056 -0.7436  1.5327 -2.0547
  157SAPE   H3Y17529   6.748   2.230   7.107 -0.2163 -0.4070  0.5108
  157SAPE   C3417530   6.879   2.115   7.242  0.2096  1.1788 -0.1490
  157SAPE   H4X17531   6.945   2.027   7.225 -2.1181 -0.3312 -2.0608
  157SAPE   H4Y17532   6.799   2.082   7.311 -0.4222  1.7027 -0.6165
  157SAPE   C3517533   6.957   2.223   7.311 -0.2297 -0.0226  0.2719
  157SAPE   H5X17534   6.899   2.316   7.292 -0.6628 -0.8052 -2.9160
  157SAPE   H5Y17535   7.058   2.225   7.265  0.4716  0.7211  1.7856
  157SAPE   C3617536   6.996   2.209   7.460  0.2829  1.1892 -0.5412
  157SAPE   H6X17537   6.909   2.224   7.527 -0.6960 -1.9463 -0.9361
  157SAPE   H6Y17538   7.077   2.283   7.481  0.9080  0.4162 -0.1668
  157SAPE   C3717539   7.063   2.073   7.496  0.0696 -0.2327  0.5215
  157SAPE   H7X17540   7.141   2.048   7.421  0.2859 -0.0829  0.6913
  157SAPE   H7Y17541   7.001   1.981   7.495  2.1033 -1.7061  1.5821
  157SAPE   C3817542   7.130   2.069   7.636  0.0383  0.2249 -0.1198
  157SAPE   H8X17543   7.182   2.167   7.648  1.7850 -0.7990  1.1500
  157SAPE   H8Y17544   7.199   1.983   7.647 -0.7159 -0.3504  0.1416
  157SAPE   C3917545   7.029   2.057   7.753  0.3236 -0.1108  0.7182
  157SAPE   H9X17546   6.978   1.959   7.741 -1.3949  0.7350  0.7934
  157SAPE   H9Y17547   6.955   2.139   7.756 -0.4241 -0.7385 -0.1006
  157SAPE  C31017548   7.088   2.063   7.894 -0.0921 -0.2804 -1.0170
  157SAPE  H10X17549   7.137   1.967   7.920 -2.1143 -0.9613  0.5893
  157SAPE  H10Y17550   7.007   2.076   7.969 -0.9073  0.3195 -1.9860
  157SAPE  C31117551   7.192   2.170   7.900 -0.0530 -0.3276 -0.7894
  157SAPE  H11X17552   7.132   2.252   7.855  0.0229 -0.5157 -1.2337
  157SAPE  H11Y17553   7.272   2.160   7.824 -1.7635 -1.7267 -2.4912
  157SAPE  C31217554   7.247   2.227   8.032 -0.3247 -0.5433 -0.3215
  157SAPE  H12X17555   7.191   2.318   8.060 -0.1379 -0.7520  0.7553
  157SAPE  H12Y17556   7.348   2.261   8.001 -0.5889 -0.0782 -0.6715
  157SAPE  C31317557   7.265   2.134   8.145 -0.0290 -0.5599 -0.0542
  157SAPE  H13X17558   7.305   2.036   8.111  0.8024 -0.5015  0.7291
  157SAPE  H13Y17559   7.162   2.115   8.184 -0.7076 -2.2408 -2.4069
  157SAPE  C31417560   7.363   2.175   8.259 -0.1105 -0.4113 -0.2008
  157SAPE  H14X17561   7.310   2.230   8.340  1.3023  0.7565 -0.0478
  157SAPE  H14Y17562   7.442   2.239   8.216 -1.8010  2.3837  0.6076
  157SAPE  C31517563   7.425   2.055   8.335  0.1927 -0.7245 -0.2192
  157SAPE  H15X17564   7.334   1.996   8.358 -0.9582  1.0552 -0.0706
  157SAPE  H15Y17565   7.477   2.092   8.426 -2.1624 -0.3616  1.0499
  157SAPE  C31617566   7.524   1.975   8.259 -0.0516  0.2781 -0.1045
  157SAPE  H16X17567   7.613   2.041   8.244 -0.8979  1.5528  0.2864
  157SAPE  H16Y17568   7.499   1.935   8.159 -0.3166 -0.4536  0.2475
  157SAPE  C31717569   7.565   1.845   8.324  0.0769  0.3210  0.4512
  157SAPE  H17X17570   7.533   1.852   8.431 -2.9393 -0.9578 -0.2599
  157SAPE  H17Y17571   7.676   1.835   8.326  0.1492  1.1191  2.1538
  157SAPE  C31817572   7.509   1.717   8.261 -0.3576 -0.2529  0.6193
  157SAPE  H18X17573   7.545   1.690   8.159 -1.1526  0.6513  0.0808
  157SAPE  H18Y17574   7.398   1.718   8.272 -0.2425 -0.9238  2.0449
  157SAPE  H18Z17575   7.523   1.634   8.333  0.1563 -1.9045 -1.2865
  158SAPE     N17576   4.048   0.937   6.224 -0.1434 -1.0337 -0.5056
  158SAPE   HN117577   4.087   1.033   6.222 -0.6317 -0.7836  1.0562
  158SAPE   HN217578   4.112   0.886   6.159  2.7070  1.4723  0.1579
  158SAPE   HN317579   3.954   0.938   6.180 -0.8376  0.3855  0.9222
  158SAPE   C1217580   4.041   0.894   6.361  0.3119 -0.9605  0.0861
  158SAPE  H12A17581   3.970   0.969   6.403 -0.3286 -0.8173 -1.1981
  158SAPE  H12B17582   4.139   0.909   6.410 -1.0929 -0.2316  2.9153
  158SAPE   C1117583   3.986   0.752   6.351  0.4808  0.1992  0.4502
  158SAPE  H11A17584   3.974   0.732   6.460  0.8110  1.4495  0.7404
  158SAPE  H11B17585   4.067   0.687   6.313 -0.1798 -0.4733  0.1577
  158SAPE     P17586   3.831   0.582   6.234 -0.4766 -0.1032 -0.2414
  158SAPE   O1317587   3.679   0.572   6.232 -0.5132 -0.0865  0.2902
  158SAPE   O1417588   3.908   0.558   6.110  0.5684 -0.3469  0.3987
  158SAPE   O1217589   3.863   0.730   6.282  0.8468 -0.0336  0.1275
  158SAPE   O1117590   3.897   0.502   6.356  0.6938 -0.2695  0.0848
  158SAPE    C117591   3.840   0.383   6.412 -0.1847  0.2128  0.8037
  158SAPE    HA17592   3.788   0.322   6.335 -0.3688  2.9266 -1.4026
  158SAPE    HB17593   3.921   0.310   6.433  0.8564  0.2211 -2.5204
  158SAPE    C217594   3.749   0.407   6.531 -0.1889 -0.3582 -0.1566
  158SAPE    HS17595   3.663   0.470   6.498 -0.1739 -0.0509  0.3886
  158SAPE   O2117596   3.818   0.459   6.640  0.2706 -0.5790 -0.1143
  158SAPE   C2117597   3.820   0.588   6.661 -0.3642 -0.4594 -0.0903
  158SAPE   O2217598   3.762   0.669   6.590  0.2776 -0.1716 -0.0926
  158SAPE   C2217599   3.882   0.625   6.796 -0.7081  0.6179 -0.3657
  158SAPE   H2R17600   3.795   0.614   6.865 -2.4361  3.0030 -1.9878
  158SAPE   H2S17601   3.966   0.561   6.830 -1.3421 -1.4973 -2.5037
  158SAPE    C317602   3.683   0.275   6.583  0.5169  0.0180 -0.1168
  158SAPE    HX17603   3.763   0.199   6.599  0.9910  0.7456  1.1243
  158SAPE    HY17604   3.603   0.238   6.516 -0.2476  0.4022  0.5628
  158SAPE   O3117605   3.608   0.311   6.707 -0.2159  0.0295  0.2872
  158SAPE   C3117606   3.675   0.291   6.823 -0.3429 -0.0844  0.8970
  158SAPE   O3217607   3.790   0.248   6.830 -0.4461  0.2066  0.5614
  158SAPE   C3217608   3.583   0.317   6.936  0.6721 -0.1331 -0.3350
  158SAPE   H2X17609   3.492   0.255   6.923  0.3418  0.0847  0.8183
  158SAPE   H2Y17610   3.542   0.420   6.924 -2.1834 -1.2851 -1.3251
  158SAPE   C2317611   3.928   0.769   6.812 -0.5419 -0.5859 -0.0996
  158SAPE   H3R17612   3.839   0.834   6.799  0.6033  1.2950  1.0962
  158SAPE   H3S17613   4.003   0.788   6.733 -2.4031 -2.2003 -2.3974
  158SAPE   C2417614   3.985   0.786   6.951  0.5633  0.1484 -0.9398
  158SAPE   H4R17615   4.057   0.701   6.961  0.1157 -0.2706 -1.2112
  158SAPE   H4S17616   3.915   0.757   7.031  0.9253 -1.4124 -1.1480
  158SAPE   C2517617   4.062   0.911   6.980  0.2550  0.1681  0.1432
  158SAPE   H5R17618   4.140   0.923   6.903  0.3291  1.8729  0.4391
  158SAPE   C2617619   4.038   0.998   7.078  0.1305 -0.2844  0.1333
  158SAPE   H6R17620   4.113   1.077   7.089  0.3079 -0.6735  2.2222
  158SAPE   C2717621   3.925   1.006   7.170 -0.1399  0.2823 -0.1631
  158SAPE   H7R17622   3.952   0.983   7.275  1.4316  0.1478 -0.5688
  158SAPE   H7S17623   3.848   0.929   7.148 -1.7587  0.7876  3.0930
  158SAPE   C2817624   3.869   1.142   7.181 -0.5530 -0.4623  0.0242
  158SAPE   H8R17625   3.819   1.181   7.092 -1.0003  1.1459  0.9289
  158SAPE   C2917626   3.859   1.219   7.286 -0.2355 -0.5128 -0.4725
  158SAPE   H9R17627   3.834   1.324   7.267  2.4702  0.1144 -0.9418
  158SAPE  C21017628   3.898   1.183   7.427  0.5380 -0.6165  0.1231
  158SAPE  H10R17629   3.938   1.272   7.480  2.2194 -1.2813  0.0493
  158SAPE  H10S17630   3.992   1.124   7.429  2.2113  1.9030  0.0075
  158SAPE  C21117631   3.787   1.116   7.506  0.2875  0.2458 -0.3335
  158SAPE  H11R17632   3.760   1.019   7.462 -3.4422  0.7043  0.6375
  158SAPE  C21217633   3.729   1.144   7.627 -0.0077  0.1718  0.5757
  158SAPE  H12R17634   3.657   1.071   7.665 -0.2796  0.0352 -0.1749
  158SAPE  C21317635   3.752   1.256   7.714  0.3069 -0.6215 -0.1416
  158SAPE  H13R17636   3.811   1.335   7.662 -0.4728 -0.0485 -0.1770
  158SAPE  H13S17637   3.811   1.233   7.805  1.6690 -0.9664 -1.0677
  158SAPE  C21417638   3.614   1.312   7.751 -0.1005  0.5114 -0.5850
  158SAPE  H14R17639   3.547   1.334   7.666 -1.2737  1.9308  0.6672
  158SAPE  C21517640   3.566   1.336   7.876  0.3382  0.3750  0.9881
  158SAPE  H15R17641   3.466   1.377   7.896  0.4315  0.4660  1.2758
  158SAPE  C21617642   3.649   1.299   7.996  0.0046 -1.1994 -0.2485
  158SAPE  H16R17643   3.617   1.366   8.079  1.6276 -1.7780  0.8960
  158SAPE  H16S17644   3.757   1.321   7.982  0.0547 -1.4479 -0.2490
  158SAPE  C21717645   3.626   1.161   8.052 -0.4946  0.8410  0.3160
  158SAPE  H17R17646   3.655   1.082   7.980  1.2342  1.7193 -0.0041
  158SAPE  H17S17647   3.520   1.153   8.081 -0.6769 -2.2753 -0.8827
  158SAPE  C21817648   3.719   1.136   8.171  0.1037 -0.0476 -0.4668
  158SAPE  H18R17649   3.720   1.232   8.226 -2.1150  0.1809 -0.7323
  158SAPE  H18S17650   3.821   1.103   8.141  0.3502  0.8785 -0.6670
  158SAPE  C21917651   3.664   1.028   8.272 -0.1818 -0.4752 -0.5438
  158SAPE  H19R17652   3.664   0.928   8.225 -0.2024  0.3603 -2.4005
  158SAPE  H19S17653   3.559   1.045   8.305 -0.3409  0.9338 -1.6683
  158SAPE  C22017654   3.738   1.022   8.406  0.2420 -0.3567  0.3198
  158SAPE  H20R17655   3.734   1.126   8.446 -3.8185  0.8615 -2.5822
  158SAPE  H20S17656   3.846   1.001   8.392  0.6298  2.4850 -1.9059
  158SAPE  H20T17657   3.685   0.959   8.480 -1.7825  0.2658 -0.5302
  158SAPE   C3317658   3.641   0.310   7.075 -0.0755  0.5909  0.0248
  158SAPE   H3X17659   3.735   0.370   7.075 -0.0402  0.7364 -3.5356
  158SAPE   H3Y17660   3.653   0.202   7.097 -2.1409  0.4569  0.6726
  158SAPE   C3417661   3.542   0.369   7.180  0.0285  0.4489  0.8608
  158SAPE   H4X17662   3.446   0.313   7.173  0.9645 -1.4253  2.2429
  158SAPE   H4Y17663   3.525   0.471   7.137  1.1235 -0.1612 -1.1708
  158SAPE   C3517664   3.598   0.356   7.321 -0.2632  0.4079 -0.7940
  158SAPE   H5X17665   3.692   0.412   7.337 -0.6889  0.9838 -0.2476
  158SAPE   H5Y17666   3.622   0.248   7.328 -0.2852  0.4128 -0.6338
  158SAPE   C3617667   3.499   0.374   7.436 -0.2151  0.1304 -0.4155
  158SAPE   H6X17668   3.427   0.290   7.433  1.5773 -1.6074  1.3857
  158SAPE   H6Y17669   3.446   0.471   7.420 -2.1106 -1.0769 -1.7909
  158SAPE   C3717670   3.570   0.362   7.568  0.8900 -0.1883 -0.1114
  158SAPE   H7X17671   3.640   0.276   7.582  2.7552  0.9269 -2.0154
  158SAPE   H7Y17672   3.637   0.449   7.586 -0.7928  0.6477  2.8554
  158SAPE   C3817673   3.476   0.365   7.692 -0.3351 -0.0183 -0.1204
  158SAPE   H8X17674   3.414   0.273   7.691 -0.5362  0.0732  1.4071
  158SAPE   H8Y17675   3.414   0.457   7.683  1.0747  1.0280  0.6183
  158SAPE   C3917676   3.551   0.361   7.827  0.0170  1.0811 -0.1795
  158SAPE   H9X17677   3.595   0.462   7.841  0.4028  0.7329  1.2162
  158SAPE   H9Y17678   3.631   0.288   7.801 -1.2797 -0.3377 -0.3189
  158SAPE  C31017679   3.477   0.327   7.950  0.1517 -0.6166  0.2179
  158SAPE  H10X17680   3.537   0.360   8.038  1.8071 -2.1682 -0.2703
  158SAPE  H10Y17681   3.450   0.219   7.956  0.6805 -0.7550  0.1252
  158SAPE  C31117682   3.333   0.393   7.961 -0.3700  0.8474 -0.0507
  158SAPE  H11X17683   3.267   0.351   7.882  1.4617  0.4382 -1.4259
  158SAPE  H11Y17684   3.347   0.500   7.938  0.3017  0.6970 -0.3644
  158SAPE  C31217685   3.261   0.353   8.090  0.3844  0.0400  0.0249
  158SAPE  H12X17686   3.264   0.242   8.103  1.8817 -0.3865 -3.0954
  158SAPE  H12Y17687   3.154   0.383   8.079 -0.0979 -0.2205  3.0124
  158SAPE  C31317688   3.320   0.431   8.207  0.1484 -0.3251 -0.1307
  158SAPE  H13X17689   3.304   0.539   8.191  0.4144 -0.4485 -1.3608
  158SAPE  H13Y17690   3.431   0.424   8.203  0.2574  1.5378 -2.2198
  158SAPE  C31417691   3.271   0.391   8.350  0.0271 -0.1174  0.3787
  158SAPE  H14X17692   3.328   0.419   8.441  1.0312  0.8163 -0.5232
  158SAPE  H14Y17693   3.268   0.280   8.351 -0.0842 -0.1349 -0.8342
  158SAPE  C31517694   3.130   0.446   8.374 -0.5222  0.1305  0.1196
  158SAPE  H15X17695   3.103   0.402   8.473  3.9861 -1.3513  0.8968
  158SAPE  H15Y17696   3.068   0.406   8.291 -1.3150  1.1533  0.1877
  158SAPE  C31617697   3.131   0.601   8.369  0.1476 -0.8630 -0.3577
  158SAPE  H16X17698   3.154   0.640   8.268 -0.9312  0.9209  0.0466
  158SAPE  H16Y17699   3.200   0.646   8.443 -1.2577  2.1914 -0.7679
  158SAPE  C31717700   2.995   0.668   8.401 -0.7816  0.0916  0.1686
  158SAPE  H17X17701   2.972   0.636   8.505 -0.0349 -1.0501 -0.0021
  158SAPE  H17Y17702   2.922   0.618   8.334 -0.6930 -0.6226  0.5866
  158SAPE  C31817703   2.999   0.816   8.398  0.0914  0.5257 -0.1793
  158SAPE  H18X17704   2.903   0.864   8.430  0.3603  0.8090  0.2146
  158SAPE  H18Y17705   3.011   0.832   8.289  0.0310 -2.0295 -0.6271
  158SAPE  H18Z17706   3.082   0.860   8.457 -1.0611  2.2250  0.2431
  159SAPE     N17707   3.235   3.078   5.977 -0.1323  0.6671  0.9500
  159SAPE   HN117708   3.304   3.099   5.902  0.5478  0.0703  1.3981
  159SAPE   HN217709   3.138   3.115   5.965  0.2141  1.1488 -0.6875
  159SAPE   HN317710   3.266   3.134   6.059 -2.7431  1.7945  1.2760
  159SAPE   C1217711   3.215   2.930   5.991 -0.2972  0.4215  0.0825
  159SAPE  H12A17712   3.164   2.892   5.901 -0.9878  0.0406  0.6244
  159SAPE  H12B17713   3.144   2.913   6.075 -0.0359  0.6388  0.3511
  159SAPE   C1117714   3.348   2.860   6.025 -0.0625 -0.4124 -0.2380
  159SAPE  H11A17715   3.414   2.859   5.935  1.0124  0.7088  0.4902
  159SAPE  H11B17716   3.328   2.753   6.047 -0.8324  0.2549  2.7768
  159SAPE     P17717   3.375   2.919   6.279 -0.1655  0.0427  0.0321
  159SAPE   O1317718   3.498   2.941   6.353  0.3715 -0.4184 -0.0802
  159SAPE   O1417719   3.262   3.014   6.304  0.7021  0.2504 -0.3061
  159SAPE   O1217720   3.418   2.930   6.131  0.2994  0.7523 -0.3507
  159SAPE   O1117721   3.326   2.768   6.291  0.1192 -0.3898 -0.9466
  159SAPE    C117722   3.399   2.669   6.360 -0.1521  0.2069 -0.5897
  159SAPE    HA17723   3.366   2.574   6.314  1.7438 -1.0054  0.4199
  159SAPE    HB17724   3.510   2.679   6.359 -0.1353  0.0257 -0.4743
  159SAPE    C217725   3.368   2.661   6.510  0.1384 -0.9983 -0.0767
  159SAPE    HS17726   3.260   2.640   6.524  0.7045 -3.1182  1.6929
  159SAPE   O2117727   3.419   2.779   6.574 -0.1024  0.0908 -0.2758
  159SAPE   C2117728   3.320   2.852   6.632 -0.1926 -0.0182 -0.6573
  159SAPE   O2217729   3.201   2.812   6.640 -0.2521 -0.4570 -0.5015
  159SAPE   C2217730   3.384   2.962   6.720 -0.0954  0.9236 -0.7397
  159SAPE   H2R17731   3.478   2.922   6.764 -0.6484 -1.4045 -1.5630
  159SAPE   H2S17732   3.401   3.042   6.645 -0.3716  0.4629 -1.3006
  159SAPE    C317733   3.439   2.550   6.577 -0.2356  0.7896  0.1842
  159SAPE    HX17734   3.422   2.545   6.687 -0.0379  1.2188  0.2381
  159SAPE    HY17735   3.545   2.581   6.568 -0.0206  0.4789  1.5090
  159SAPE   O3117736   3.416   2.417   6.517 -0.1706 -0.1288 -0.2205
  159SAPE   C3117737   3.310   2.353   6.569  0.1597  0.4154  0.3270
  159SAPE   O3217738   3.222   2.403   6.637  0.6132  0.3564 -0.3524
  159SAPE   C3217739   3.325   2.206   6.526  0.3782 -0.2989 -0.5718
  159SAPE   H2X17740   3.396   2.198   6.441  1.4495 -1.4098  0.3777
  159SAPE   H2Y17741   3.225   2.174   6.492 -0.9782  1.0635  1.8240
  159SAPE   C2317742   3.293   3.019   6.831  0.2253  0.2174 -0.1739
  159SAPE   H3R17743   3.187   3.037   6.804  0.1000 -0.4247 -0.1311
  159SAPE   H3S17744   3.322   3.124   6.849  1.2083  0.1982 -1.4497
  159SAPE   C2417745   3.293   2.937   6.956  1.0396 -0.0472  0.2595
  159SAPE   H4R17746   3.264   3.001   7.042 -1.8364  0.6124 -1.0636
  159SAPE   H4S17747   3.399   2.906   6.964  0.9679 -0.4342 -0.2594
  159SAPE   C2517748   3.196   2.817   6.942  0.3213 -0.0223 -0.0697
  159SAPE   H5R17749   3.094   2.835   6.905  0.5177 -2.4254 -2.0558
  159SAPE   C2617750   3.220   2.691   6.982  0.1649 -0.2287  0.2071
  159SAPE   H6R17751   3.136   2.620   6.981 -0.3936  0.4160  0.7721
  159SAPE   C2717752   3.351   2.646   7.037  0.1864  0.3940 -0.2743
  159SAPE   H7R17753   3.378   2.697   7.131 -2.8999 -2.8806  2.6754
  159SAPE   H7S17754   3.426   2.683   6.963  1.3468  1.5221  1.3862
  159SAPE   C2817755   3.372   2.493   7.034  0.6221 -1.1735 -0.8358
  159SAPE   H8R17756   3.355   2.455   6.932 -0.4878  0.5353 -1.3305
  159SAPE   C2917757   3.410   2.406   7.133 -0.9624 -0.1559  0.0716
  159SAPE   H9R17758   3.413   2.300   7.104 -1.4244  0.3262 -1.8624
  159SAPE  C21017759   3.431   2.432   7.279  0.2466  0.2056 -0.1423
  159SAPE  H10R17760   3.365   2.516   7.309 -0.7893 -0.7263  0.2552
  159SAPE  H10S17761   3.539   2.455   7.290  0.4199 -1.5773  3.3441
  159SAPE  C21117762   3.409   2.311   7.365  0.5244  0.2931  0.1050
  159SAPE  H11R17763   3.368   2.223   7.313 -0.4225  0.2513  0.9018
  159SAPE  C21217764   3.445   2.315   7.499 -0.1349  0.2894 -0.1525
  159SAPE  H12R17765   3.451   2.225   7.562 -3.4789 -0.4027 -0.6173
  159SAPE  C21317766   3.492   2.433   7.575 -0.0425 -0.7549 -0.5932
  159SAPE  H13R17767   3.528   2.507   7.501  0.9109  0.8598  1.3897
  159SAPE  H13S17768   3.579   2.395   7.632  1.2377  0.8206 -1.4281
  159SAPE  C21417769   3.399   2.514   7.662  0.2234  0.6235 -0.3309
  159SAPE  H14R17770   3.326   2.578   7.609  0.5018  1.4353  0.2418
  159SAPE  C21517771   3.392   2.507   7.800  0.6314  0.8097 -0.1422
  159SAPE  H15R17772   3.312   2.561   7.853 -1.0652 -1.4205 -0.2806
  159SAPE  C21617773   3.475   2.402   7.876  0.4839 -0.3824 -0.5908
  159SAPE  H16R17774   3.582   2.428   7.891  0.8123 -1.9040 -0.1090
  159SAPE  H16S17775   3.462   2.301   7.832  0.9185  0.6028 -3.1311
  159SAPE  C21717776   3.431   2.398   8.021 -0.0995 -0.4026  0.2095
  159SAPE  H17R17777   3.322   2.380   8.020 -0.2239  0.2777  0.8966
  159SAPE  H17S17778   3.444   2.490   8.082 -0.7605  0.1142 -0.4283
  159SAPE  C21817779   3.493   2.285   8.102 -0.1364  0.2445 -0.0831
  159SAPE  H18R17780   3.603   2.300   8.112  0.2114  0.0158 -2.6499
  159SAPE  H18S17781   3.477   2.190   8.047  0.0751 -0.4607  1.0574
  159SAPE  C21917782   3.427   2.279   8.239  0.2396 -0.0459 -0.7791
  159SAPE  H19R17783   3.318   2.293   8.222 -0.2724 -1.1041  1.3781
  159SAPE  H19S17784   3.447   2.369   8.300  1.7140 -0.8306 -0.0502
  159SAPE  C22017785   3.449   2.148   8.311 -0.3358 -0.4113 -0.0120
  159SAPE  H20R17786   3.421   2.056   8.256 -0.2133 -0.7622  0.5029
  159SAPE  H20S17787   3.409   2.150   8.415  2.2996  1.2013  1.0609
  159SAPE  H20T17788   3.557   2.147   8.334 -0.2963 -0.7396 -0.2098
  159SAPE   C3317789   3.387   2.131   6.654  0.5923 -0.3420 -0.0641
  159SAPE   H3X17790   3.443   2.200   6.720  0.9867  1.9531 -2.6328
  159SAPE   H3Y17791   3.446   2.045   6.615 -0.8390 -1.5214  0.2690
  159SAPE   C3417792   3.281   2.056   6.735 -0.4751 -0.3649 -0.6324
  159SAPE   H4X17793   3.241   1.969   6.678 -3.0081  0.3933 -0.1738
  159SAPE   H4Y17794   3.189   2.117   6.750 -0.4381 -0.5322  0.3043
  159SAPE   C3517795   3.319   2.017   6.881 -0.2448 -0.5243  0.1344
  159SAPE   H5X17796   3.227   1.968   6.918  0.5622 -0.8224  1.8627
  159SAPE   H5Y17797   3.347   2.112   6.931  0.7544 -1.2035  0.8929
  159SAPE   C3617798   3.434   1.920   6.889 -0.5551  0.0592  0.4026
  159SAPE   H6X17799   3.521   1.988   6.882  0.6417 -1.1321  2.5671
  159SAPE   H6Y17800   3.432   1.840   6.812 -0.3109  0.3048  0.1427
  159SAPE   C3717801   3.447   1.853   7.028  0.1947  0.0520 -0.1944
  159SAPE   H7X17802   3.546   1.802   7.026  1.1613  1.8642 -0.8652
  159SAPE   H7Y17803   3.369   1.775   7.032 -0.1220  0.3944  0.7903
  159SAPE   C3817804   3.437   1.949   7.153 -1.0557 -0.0549 -0.0387
  159SAPE   H8X17805   3.332   1.980   7.173 -1.8463 -2.3493 -0.2952
  159SAPE   H8Y17806   3.510   2.033   7.143 -0.2995 -0.6963 -0.0286
  159SAPE   C3917807   3.495   1.879   7.277 -0.0944  0.7215  0.2156
  159SAPE   H9X17808   3.605   1.869   7.272 -0.1289  0.4604 -0.0853
  159SAPE   H9Y17809   3.463   1.772   7.270  1.0743  0.4077 -0.7396
  159SAPE  C31017810   3.455   1.945   7.407 -0.2781 -0.3376 -1.2377
  159SAPE  H10X17811   3.346   1.951   7.424 -0.3095 -0.9386 -1.2003
  159SAPE  H10Y17812   3.495   2.048   7.411 -0.3720 -0.3255  2.2434
  159SAPE  C31117813   3.495   1.861   7.527 -0.0952  0.5018  0.5087
  159SAPE  H11X17814   3.604   1.839   7.532 -0.2826 -0.1900  2.6298
  159SAPE  H11Y17815   3.457   1.757   7.521  0.7738  0.0301  2.2034
  159SAPE  C31217816   3.458   1.916   7.669  0.0516 -0.0529  0.2244
  159SAPE  H12X17817   3.348   1.926   7.656  0.2728  0.8510 -1.1643
  159SAPE  H12Y17818   3.502   2.018   7.678 -1.6522  1.0611 -2.7919
  159SAPE  C31317819   3.493   1.824   7.784  0.0009  0.0123 -0.0835
  159SAPE  H13X17820   3.603   1.808   7.789  0.1558  1.2218  0.8051
  159SAPE  H13Y17821   3.455   1.722   7.761  1.0611 -0.1573 -1.2338
  159SAPE  C31417822   3.451   1.880   7.914  0.1184 -0.1412 -0.7071
  159SAPE  H14X17823   3.341   1.891   7.918  0.1332  0.2384  3.9324
  159SAPE  H14Y17824   3.491   1.984   7.918  2.1892 -0.9189  2.2414
  159SAPE  C31517825   3.510   1.809   8.039  0.2890 -0.2460  0.5367
  159SAPE  H15X17826   3.478   1.870   8.126  0.5225  1.7022 -0.6717
  159SAPE  H15Y17827   3.620   1.799   8.047  0.6059  1.5500 -0.9120
  159SAPE  C31617828   3.434   1.673   8.049  0.5245 -0.1079  0.0027
  159SAPE  H16X17829   3.448   1.607   7.961 -0.8373 -0.6960  0.1875
  159SAPE  H16Y17830   3.327   1.703   8.051  0.5320 -0.0744 -0.1302
  159SAPE  C31717831   3.474   1.602   8.175  0.1562  0.2366 -0.1014
  159SAPE  H17X17832   3.480   1.667   8.265  1.3366  1.2789 -0.9144
  159SAPE  H17Y17833   3.574   1.558   8.158  0.0305 -1.0986  2.2040
  159SAPE  C31817834   3.385   1.479   8.211  0.2305  0.7518 -0.4972
  159SAPE  H18X17835   3.276   1.500   8.211  0.0610  0.3935  2.7576
  159SAPE  H18Y17836   3.397   1.457   8.319  0.0869 -0.2094 -0.6680
  159SAPE  H18Z17837   3.408   1.383   8.161  0.1099 -1.4042  3.2035
  160SAPE     N17838   4.252   3.842   6.222 -0.2649 -0.7754 -0.8035
  160SAPE   HN117839   4.232   3.943   6.234  2.6163 -0.2114 -0.0484
  160SAPE   HN217840   4.266   3.796   6.314 -1.6482 -2.1083 -1.2062
  160SAPE   HN317841   4.345   3.837   6.174  0.9777 -1.0637  1.4826
  160SAPE   C1217842   4.151   3.765   6.147  0.0475 -0.2278  0.1248
  160SAPE  H12A17843   4.154   3.661   6.187  0.4892 -0.3469 -0.2105
  160SAPE  H12B17844   4.184   3.761   6.041  3.5697 -0.3835  1.1105
  160SAPE   C1117845   4.010   3.834   6.149 -0.1198  0.0370 -0.1835
  160SAPE  H11A17846   3.936   3.783   6.083 -0.3063  0.0868 -0.0127
  160SAPE  H11B17847   4.023   3.933   6.102  2.7083 -0.2759 -0.2252
  160SAPE     P17848   3.866   3.962   6.328 -0.1870 -0.4160  0.0008
  160SAPE   O1317849   3.955   4.078   6.360 -0.2156  0.2887  0.3404
  160SAPE   O1417850   3.745   3.982   6.251  0.2778 -0.6660  0.7352
  160SAPE   O1217851   3.956   3.840   6.277  0.3304 -0.7985  0.2164
  160SAPE   O1117852   3.815   3.909   6.469 -0.5676 -0.1037  0.5654
  160SAPE    C117853   3.889   3.820   6.558 -0.2945  0.4762 -0.4935
  160SAPE    HA17854   3.829   3.784   6.644 -1.1508  1.9867 -0.4270
  160SAPE    HB17855   3.929   3.734   6.501 -1.2858  0.8737 -1.8605
  160SAPE    C217856   4.006   3.891   6.618  0.4711  0.2260  0.0008
  160SAPE    HS17857   4.059   3.946   6.537 -1.2220 -4.1867 -4.6335
  160SAPE   O2117858   4.097   3.794   6.676 -0.1313  0.5105  0.0805
  160SAPE   C2117859   4.177   3.732   6.589  0.3201 -0.2688 -0.0305
  160SAPE   O2217860   4.176   3.758   6.468  0.4213 -0.4503 -0.0203
  160SAPE   C2217861   4.274   3.633   6.654 -0.1189 -0.3406 -0.3268
  160SAPE   H2R17862   4.211   3.574   6.723  0.5488 -2.3847 -1.4054
  160SAPE   H2S17863   4.296   3.559   6.575 -0.2584 -1.0923  0.3257
  160SAPE    C317864   3.963   3.996   6.727 -0.4746  0.0284  0.9512
  160SAPE    HX17865   3.885   4.060   6.680 -0.9125 -0.2518  1.2796
  160SAPE    HY17866   4.056   4.052   6.748 -0.7318  0.8604 -0.0162
  160SAPE   O3117867   3.910   3.930   6.839 -1.0362  0.8702  0.2938
  160SAPE   C3117868   3.965   3.947   6.953  0.0605  0.4054  0.1898
  160SAPE   O3217869   4.043   4.035   6.986  0.2633  0.0474 -0.1847
  160SAPE   C3217870   3.909   3.835   7.048 -0.1790 -0.2514 -0.8963
  160SAPE   H2X17871   3.921   3.734   7.003  3.2377 -0.2165 -0.3216
  160SAPE   H2Y17872   3.800   3.852   7.061  0.0878  1.2731 -0.4124
  160SAPE   C2317873   4.400   3.682   6.722  0.2211 -0.1599  0.1492
  160SAPE   H3R17874   4.468   3.745   6.661 -1.5132  0.4548 -1.2086
  160SAPE   H3S17875   4.465   3.600   6.759  1.7516  0.2691 -1.4747
  160SAPE   C2417876   4.360   3.780   6.836  0.0813  0.1945  1.0406
  160SAPE   H4R17877   4.295   3.862   6.799 -2.0267 -0.9801  1.9242
  160SAPE   H4S17878   4.457   3.820   6.872  0.5172  0.4364 -0.3486
  160SAPE   C2517879   4.289   3.709   6.947  0.1399  0.0559  0.8976
  160SAPE   H5R17880   4.188   3.675   6.920 -0.8111  0.8771  3.1465
  160SAPE   C2617881   4.344   3.692   7.071 -0.4582 -0.7462  0.6315
  160SAPE   H6R17882   4.296   3.622   7.141  0.6155 -0.5513  1.5872
  160SAPE   C2717883   4.482   3.730   7.118  0.7530 -0.3151  0.6066
  160SAPE   H7R17884   4.482   3.747   7.228  0.7040 -1.0915  0.7327
  160SAPE   H7S17885   4.511   3.826   7.070  0.5269  0.3015  1.6695
  160SAPE   C2817886   4.593   3.638   7.079  0.0221 -0.0929  0.2553
  160SAPE   H8R17887   4.598   3.642   6.969  1.1802  0.3709  0.3127
  160SAPE   C2917888   4.674   3.563   7.161  0.9438 -0.0660 -0.6311
  160SAPE   H9R17889   4.759   3.507   7.119 -0.6690 -2.4009 -0.9907
  160SAPE  C21017890   4.665   3.548   7.310 -0.3626  0.3622 -0.1071
  160SAPE  H10R17891   4.639   3.638   7.370  0.0919  0.0520  0.5655
  160SAPE  H10S17892   4.772   3.532   7.334 -0.3081 -1.7131 -1.4032
  160SAPE  C21117893   4.579   3.433   7.353 -0.1236 -0.0475  0.3582
  160SAPE  H11R17894   4.541   3.370   7.271 -2.6893  0.3940  1.1132
  160SAPE  C21217895   4.544   3.404   7.476  0.3516 -0.5583 -0.2325
  160SAPE  H12R17896   4.481   3.314   7.485 -0.8379  0.0501 -1.9353
  160SAPE  C21317897   4.590   3.488   7.598 -0.5448 -0.3143 -0.0138
  160SAPE  H13R17898   4.557   3.592   7.581 -3.0228 -1.2445 -1.4742
  160SAPE  H13S17899   4.701   3.488   7.602 -0.5426  1.0082  0.2796
  160SAPE  C21417900   4.534   3.430   7.727 -0.1169 -0.6650  0.8040
  160SAPE  H14R17901   4.601   3.350   7.759  1.4951 -0.0692 -0.9012
  160SAPE  C21517902   4.423   3.461   7.793  0.0150  0.9044  0.5148
  160SAPE  H15R17903   4.395   3.407   7.885 -2.8375 -0.0672 -0.8008
  160SAPE  C21617904   4.325   3.570   7.753 -0.3947  0.4368 -0.5385
  160SAPE  H16R17905   4.226   3.522   7.739  0.1468 -0.8537 -0.0582
  160SAPE  H16S17906   4.349   3.624   7.659  3.7645  0.7796  0.5340
  160SAPE  C21717907   4.323   3.682   7.859  0.0848  0.2624 -0.0924
  160SAPE  H17R17908   4.255   3.764   7.829 -2.1582 -0.4910  2.5310
  160SAPE  H17S17909   4.427   3.721   7.871 -0.0173  0.8857 -1.1224
  160SAPE  C21817910   4.268   3.651   7.998 -0.2158 -0.3353 -0.3839
  160SAPE  H18R17911   4.272   3.744   8.057  1.5226  0.7572 -2.0994
  160SAPE  H18S17912   4.345   3.589   8.048  0.4698  0.4580 -0.4324
  160SAPE  C21917913   4.130   3.588   7.997 -0.1322 -0.6037  0.0408
  160SAPE  H19R17914   4.089   3.558   7.898 -3.2243  0.3606  0.9236
  160SAPE  H19S17915   4.064   3.668   8.038 -0.3093 -0.4086 -0.6188
  160SAPE  C22017916   4.112   3.476   8.094 -0.1472  0.2607  0.0930
  160SAPE  H20R17917   4.195   3.401   8.093 -1.2179 -0.9663  0.2655
  160SAPE  H20S17918   4.023   3.412   8.075  0.3903  0.0573 -1.9060
  160SAPE  H20T17919   4.094   3.504   8.200 -2.0255  0.0586 -0.1456
  160SAPE   C3317920   3.987   3.836   7.192  0.8771  0.5609 -0.5045
  160SAPE   H3X17921   3.930   3.910   7.253  2.2489  0.1103  1.4208
  160SAPE   H3Y17922   4.091   3.871   7.180  1.4934 -1.0199 -0.0128
  160SAPE   C3417923   3.993   3.705   7.260 -0.1125  1.2608 -0.2326
  160SAPE   H4X17924   4.066   3.638   7.210 -1.5063 -0.5384  0.0359
  160SAPE   H4Y17925   3.889   3.669   7.245 -0.4774  1.3764  1.7525
  160SAPE   C3517926   4.020   3.709   7.410  0.2460 -0.2286 -0.0690
  160SAPE   H5X17927   3.947   3.779   7.457  0.3768 -0.6699  0.8162
  160SAPE   H5Y17928   4.127   3.740   7.416  0.7444 -1.5907 -1.5200
  160SAPE   C3617929   3.991   3.592   7.493  0.0493  0.2210 -0.3024
  160SAPE   H6X17930   4.033   3.604   7.595 -0.8001  2.0152 -0.1384
  160SAPE   H6Y17931   4.053   3.511   7.450  0.5143  0.4264 -0.0259
  160SAPE   C3717932   3.849   3.538   7.501 -0.2255  0.2067  0.4567
  160SAPE   H7X17933   3.808   3.505   7.403  0.0516  2.0168 -0.3274
  160SAPE   H7Y17934   3.792   3.630   7.527 -0.3895  0.2421 -0.0118
  160SAPE   C3817935   3.819   3.443   7.613 -0.4525 -0.6478 -0.0339
  160SAPE   H8X17936   3.852   3.485   7.711 -1.3350 -0.5368  0.2248
  160SAPE   H8Y17937   3.881   3.353   7.594 -0.3501 -0.5892  0.0213
  160SAPE   C3917938   3.675   3.398   7.626 -0.7171  0.0418  0.5460
  160SAPE   H9X17939   3.615   3.379   7.534 -1.4892 -0.5816  1.1639
  160SAPE   H9Y17940   3.619   3.484   7.669 -1.1194  0.6303 -1.0478
  160SAPE  C31017941   3.647   3.286   7.727  0.2487  0.2701  0.2541
  160SAPE  H10X17942   3.713   3.196   7.730  1.8148  1.3557 -0.5580
  160SAPE  H10Y17943   3.545   3.254   7.695 -0.0215 -0.0938  1.4315
  160SAPE  C31117944   3.636   3.351   7.872 -0.2604  0.3902  0.0318
  160SAPE  H11X17945   3.584   3.448   7.882 -0.0340  0.3114  2.8453
  160SAPE  H11Y17946   3.737   3.381   7.907  0.8441 -1.4404 -1.3622
  160SAPE  C31217947   3.591   3.260   7.976 -0.2967  1.3527  0.5891
  160SAPE  H12X17948   3.680   3.196   7.999 -1.9856 -0.3891  2.8472
  160SAPE  H12Y17949   3.510   3.190   7.947 -0.7539  1.1161  2.3234
  160SAPE  C31317950   3.555   3.339   8.103 -0.4548 -0.1963  0.4141
  160SAPE  H13X17951   3.474   3.403   8.064 -0.9231 -1.9379 -1.6399
  160SAPE  H13Y17952   3.645   3.395   8.137  1.2649 -2.8594  0.5741
  160SAPE  C31417953   3.510   3.240   8.208  0.3551  0.5122  0.2674
  160SAPE  H14X17954   3.511   3.288   8.308 -1.8107 -0.1383  0.6466
  160SAPE  H14Y17955   3.582   3.155   8.212  0.7349  0.8795  1.9851
  160SAPE  C31517956   3.358   3.197   8.186  0.2610 -1.4439  0.5830
  160SAPE  H15X17957   3.325   3.166   8.085 -0.7330  0.8863  0.1244
  160SAPE  H15Y17958   3.304   3.293   8.205  1.4136 -1.0062  1.9026
  160SAPE  C31617959   3.316   3.091   8.288  0.3131  0.2304 -0.5924
  160SAPE  H16X17960   3.305   3.129   8.391 -0.5320  0.5808 -0.8000
  160SAPE  H16Y17961   3.390   3.008   8.284 -1.0163 -0.9446 -1.7862
  160SAPE  C31717962   3.191   3.018   8.240 -0.5955  0.4041  0.7356
  160SAPE  H17X17963   3.205   2.970   8.140 -4.0243 -0.6457  0.6255
  160SAPE  H17Y17964   3.110   3.091   8.224  0.0175  0.5964 -2.0504
  160SAPE  C31817965   3.140   2.920   8.342  0.2891  0.3012  0.8300
  160SAPE  H18X17966   3.119   2.982   8.432  0.2925 -1.8266  2.3781
  160SAPE  H18Y17967   3.215   2.843   8.372  0.6285 -0.1446 -1.0362
  160SAPE  H18Z17968   3.039   2.878   8.322  0.7050  0.6270 -2.3530
  161SOPE     N17969   2.916   5.621  10.420  0.4171 -0.2027  0.3090
  161SOPE   HN117970   2.979   5.676  10.358  1.0284 -0.3368  0.8026
  161SOPE   HN217971   2.932   5.524  10.388  0.9765 -0.4962  1.4352
  161SOPE   HN317972   2.817   5.652  10.411  0.3426  0.0743  1.7303
  161SOPE   C1217973   2.952   5.633  10.571  1.1687 -0.3259  0.1555
  161SOPE  H12A17974   3.062   5.637  10.588  1.1222 -0.7532  0.5633
  161SOPE  H12B17975   2.909   5.551  10.631 -2.0572  1.8038  1.0351
  161SOPE   C1117976   2.894   5.764  10.619  0.7097 -0.9588 -0.0566
  161SOPE  H11A17977   2.795   5.787  10.575  0.2093 -1.4406  0.7797
  161SOPE  H11B17978   2.973   5.837  10.591  2.5824 -2.9415 -0.1853
  161SOPE     P17979   2.798   5.870  10.836  0.1938  0.2873 -0.0612
  161SOPE   O1317980   2.872   6.000  10.823 -0.2386 -0.0041 -0.1611
  161SOPE   O1417981   2.764   5.825  10.972 -0.0178  0.5160 -0.0473
  161SOPE   O1217982   2.876   5.757  10.761  0.2920  0.1452  0.3193
  161SOPE   O1117983   2.669   5.875  10.754 -0.1830  0.0895  0.1638
  161SOPE    C117984   2.575   5.767  10.764 -0.0057  0.3369 -0.0610
  161SOPE    HA17985   2.474   5.807  10.788 -0.9393 -2.7368  1.6424
  161SOPE    HB17986   2.597   5.694  10.845  1.6192  1.0650  0.2058
  161SOPE    C217987   2.557   5.692  10.633  0.4390  0.0279  1.6485
  161SOPE    HS17988   2.648   5.632  10.612  0.0443 -0.1061  0.2255
  161SOPE   O2117989   2.535   5.785  10.521 -0.2999 -0.3040 -0.9851
  161SOPE   C2117990   2.579   5.752  10.406 -0.2714 -0.0871 -0.1623
  161SOPE   O2217991   2.659   5.667  10.386 -0.1525  0.0656 -0.2771
  161SOPE   C2217992   2.515   5.847  10.304  0.6157 -0.3899 -0.0452
  161SOPE   H2R17993   2.577   5.933  10.270 -0.4412  0.3612 -0.1149
  161SOPE   H2S17994   2.427   5.899  10.347  0.7088  3.6533 -3.9721
  161SOPE    C317995   2.437   5.593  10.632 -0.1815  0.4045 -0.4882
  161SOPE    HX17996   2.341   5.649  10.638 -1.3527 -1.5389  4.6050
  161SOPE    HY17997   2.431   5.535  10.727 -1.2592  0.6171 -0.4136
  161SOPE   O3117998   2.421   5.491  10.533  0.6678 -0.3195  0.6867
  161SOPE   C3117999   2.521   5.398  10.525  0.1367 -0.6166 -0.3129
  161SOPE   O3218000   2.621   5.407  10.601  0.4626  0.0586  0.9940
  161SOPE   C3218001   2.500   5.292  10.422 -0.0669  0.4866 -0.1249
  161SOPE   H2X18002   2.454   5.199  10.463 -1.9523  1.4348  0.0009
  161SOPE   H2Y18003   2.601   5.277  10.378 -0.3726  0.0898 -0.7121
  161SOPE   C2318004   2.453   5.776  10.187  0.1014  0.5656  0.0641
  161SOPE   H3R18005   2.514   5.688  10.156 -1.5298 -0.8253  0.6087
  161SOPE   H3S18006   2.443   5.842  10.098 -1.0215 -0.5382 -0.6716
  161SOPE   C2418007   2.312   5.726  10.208  0.9048  0.0017  0.1907
  161SOPE   H4R18008   2.309   5.640  10.278 -1.0474 -0.1841 -0.0652
  161SOPE   H4S18009   2.253   5.808  10.254 -0.0811 -0.5065 -0.1289
  161SOPE   C2518010   2.240   5.680  10.076 -0.0819 -0.9919  0.4578
  161SOPE   H5R18011   2.245   5.756   9.995 -0.0019 -0.9250  0.5257
  161SOPE   H5S18012   2.306   5.607  10.024 -0.0221 -0.0739 -0.8083
  161SOPE   C2618013   2.107   5.614  10.107 -0.1473  0.2375 -0.0902
  161SOPE   H6R18014   2.124   5.555  10.200  0.7584  1.0717  0.2871
  161SOPE   H6S18015   2.033   5.691  10.137 -2.1948 -0.9019 -1.8594
  161SOPE   C2718016   2.071   5.513   9.996 -0.7650 -0.3257  0.4817
  161SOPE   H7R18017   2.045   5.579   9.910  2.7059  3.0706  1.7585
  161SOPE   H7S18018   2.170   5.477   9.960 -0.5227 -0.1820  0.9958
  161SOPE   C2818019   1.963   5.416  10.034  1.0878  0.5143 -0.6861
  161SOPE   H8R18020   1.877   5.475  10.074  2.5125  1.5295  1.0487
  161SOPE   H8S18021   1.921   5.365   9.944 -0.3833 -0.4206  0.4713
  161SOPE   C2918022   2.006   5.308  10.131  0.0995 -0.0498 -0.1918
  161SOPE   H9118023   1.941   5.291  10.218  0.3085  1.4946  0.2964
  161SOPE  C21018024   2.102   5.211  10.111 -0.0745 -0.3552  0.2434
  161SOPE  H10118025   2.113   5.135  10.189 -2.2203  0.3659  1.3368
  161SOPE  C21118026   2.191   5.194   9.984  0.1086 -0.3961  0.0258
  161SOPE  H11R18027   2.281   5.134  10.008  1.6462  1.0061 -1.8896
  161SOPE  H11S18028   2.232   5.292   9.952 -1.3943  0.4679  0.6369
  161SOPE  C21218029   2.124   5.131   9.860  0.2707  0.8431 -0.6247
  161SOPE  H12R18030   2.046   5.202   9.826 -0.3945 -0.7445 -2.6248
  161SOPE  H12S18031   2.071   5.037   9.886  1.5935  0.4040  0.6090
  161SOPE  C21318032   2.225   5.116   9.746 -0.7635  0.2291  0.2359
  161SOPE  H13R18033   2.313   5.058   9.779  0.2777  1.6109  0.0050
  161SOPE  H13S18034   2.247   5.216   9.702 -1.5427 -0.0330 -0.7902
  161SOPE  C21418035   2.172   5.046   9.616  0.0320 -1.1101  0.4653
  161SOPE  H14R18036   2.094   5.108   9.567 -1.3189 -1.2127  2.3820
  161SOPE  H14S18037   2.129   4.945   9.638  0.3168 -1.9179 -2.2660
  161SOPE  C21518038   2.290   5.036   9.520 -0.3251  0.3449 -0.1846
  161SOPE  H15R18039   2.361   4.963   9.565  0.3875 -0.2598 -2.1773
  161SOPE  H15S18040   2.333   5.138   9.507 -0.5645  0.5169  0.3248
  161SOPE  C21618041   2.246   4.973   9.385  0.4642 -0.0700 -0.2274
  161SOPE  H16R18042   2.186   5.041   9.321  0.6114  3.0368  2.6489
  161SOPE  H16S18043   2.198   4.874   9.404  2.5631 -1.1156  0.0066
  161SOPE  C21718044   2.357   4.935   9.298 -0.2124 -0.0282 -0.2920
  161SOPE  H17R18045   2.413   4.878   9.375  1.2155  0.4033 -0.9735
  161SOPE  H17S18046   2.422   5.022   9.276  2.4615 -2.1566 -1.4578
  161SOPE  C21818047   2.318   4.859   9.172  0.0493  0.5675 -0.2930
  161SOPE  H18R18048   2.223   4.902   9.132 -0.7576 -1.4033 -0.5967
  161SOPE  H18S18049   2.289   4.760   9.213  0.5738  0.9691  1.1219
  161SOPE  H18T18050   2.397   4.853   9.095  2.2128  0.5278  1.8023
  161SOPE   C3318051   2.408   5.319  10.299 -0.3359  0.4809 -0.2822
  161SOPE   H3X18052   2.322   5.385  10.326 -0.1744  0.6698 -0.2245
  161SOPE   H3Y18053   2.385   5.216  10.265  1.3678 -0.2126  0.5178
  161SOPE   C3418054   2.474   5.404  10.200  0.8453  0.3736  0.2067
  161SOPE   H4X18055   2.545   5.470  10.254  3.0511 -1.5220 -0.1913
  161SOPE   H4Y18056   2.397   5.454  10.138  1.2278 -0.6067 -1.1153
  161SOPE   C3518057   2.546   5.321  10.099 -0.6693 -1.1439  0.1522
  161SOPE   H5X18058   2.475   5.276  10.026  1.2244 -2.5796 -0.9245
  161SOPE   H5Y18059   2.596   5.240  10.157  0.8184  0.7122  1.6019
  161SOPE   C3618060   2.647   5.400  10.015  0.3475  1.1552 -0.1829
  161SOPE   H6X18061   2.715   5.454  10.084  0.0665  1.7971 -0.3971
  161SOPE   H6Y18062   2.584   5.475   9.962  0.8113  1.2504 -0.6003
  161SOPE   C3718063   2.717   5.308   9.914 -0.1334  0.0253  0.4277
  161SOPE   H7X18064   2.771   5.222   9.959 -0.0202 -1.3688 -2.1504
  161SOPE   H7Y18065   2.789   5.377   9.866  0.6363 -0.4469  0.8835
  161SOPE   C3818066   2.631   5.249   9.802  0.1968 -0.1910  0.4583
  161SOPE   H8X18067   2.584   5.336   9.752  0.3787 -0.0846  0.4731
  161SOPE   H8Y18068   2.552   5.185   9.845  1.6434 -1.6714  1.0217
  161SOPE   C3918069   2.728   5.173   9.701 -1.2069 -0.6929 -0.7927
  161SOPE   H9X18070   2.765   5.090   9.763 -1.2421 -0.7351 -0.8276
  161SOPE   H9Y18071   2.811   5.244   9.681  1.0403 -2.7088  0.8980
  161SOPE  C31018072   2.650   5.109   9.584 -0.0192 -0.6431 -0.3227
  161SOPE  H10X18073   2.594   5.192   9.536 -0.5149 -0.6369  0.2535
  161SOPE  H10Y18074   2.581   5.032   9.625 -1.3098  0.4627 -0.3543
  161SOPE  C31118075   2.743   5.059   9.478 -1.0509 -0.0952  0.2210
  161SOPE  H11X18076   2.719   4.963   9.428  1.3603 -0.8909  0.4154
  161SOPE  H11Y18077   2.837   5.029   9.530  0.2915 -1.3621 -2.6445
  161SOPE  C31218078   2.783   5.158   9.363  0.4198  0.7052 -0.1161
  161SOPE  H12X18079   2.874   5.123   9.308  0.7489 -0.1581  0.9364
  161SOPE  H12Y18080   2.801   5.262   9.396  0.5855  0.7316 -0.2892
  161SOPE  C31318081   2.667   5.166   9.259 -0.6328  0.0298  0.2147
  161SOPE  H13X18082   2.578   5.205   9.314 -0.9088  0.3090 -0.4162
  161SOPE  H13Y18083   2.653   5.059   9.235 -1.9895 -0.0802  1.3315
  161SOPE  C31418084   2.685   5.266   9.141  0.3114  0.3628 -0.7621
  161SOPE  H14X18085   2.782   5.244   9.090  0.3798 -2.1137  0.2864
  161SOPE  H14Y18086   2.698   5.368   9.182  1.1960  0.3729 -1.0438
  161SOPE  C31518087   2.575   5.254   9.031  0.0704 -0.4682 -0.8028
  161SOPE  H15X18088   2.496   5.320   9.073  0.2139  0.8616 -2.5311
  161SOPE  H15Y18089   2.536   5.154   9.002 -2.6532  1.1390 -3.3084
  161SOPE  C31618090   2.614   5.333   8.906  0.4046 -0.6915  0.3008
  161SOPE  H16X18091   2.722   5.317   8.881  0.5133  2.4419 -1.9044
  161SOPE  H16Y18092   2.613   5.441   8.930 -0.9389 -0.8340  0.9573
  161SOPE  C31718093   2.533   5.298   8.783 -0.9993 -0.3763 -0.1496
  161SOPE  H17X18094   2.432   5.344   8.789 -0.6573  0.4906 -0.8700
  161SOPE  H17Y18095   2.528   5.188   8.773  2.2677 -0.6704  0.3916
  161SOPE  C31818096   2.602   5.322   8.653  0.1945 -0.5047  0.1525
  161SOPE  H18X18097   2.671   5.242   8.618 -0.5626  0.2790 -3.5839
  161SOPE  H18Y18098   2.658   5.418   8.652 -0.1757 -0.2495 -1.6573
  161SOPE  H18Z18099   2.524   5.327   8.573  1.6751  1.5190 -1.2620
  162SOPE     N18100   0.929   4.259  10.975  0.0764 -0.5082 -0.6321
  162SOPE   HN118101   0.888   4.324  11.045  1.9212 -0.2030  0.2183
  162SOPE   HN218102   0.995   4.297  10.905  0.3678  0.0086 -0.0863
  162SOPE   HN318103   0.855   4.221  10.913  1.6660  0.4887 -3.2948
  162SOPE   C1218104   0.998   4.151  11.053  0.4478  0.7234  1.5635
  162SOPE  H12A18105   0.922   4.127  11.130 -0.2324 -1.2673  0.3466
  162SOPE  H12B18106   1.100   4.178  11.088  1.5069 -0.5793 -0.3215
  162SOPE   C1118107   0.998   4.018  10.962  0.2040 -0.3428  0.2055
  162SOPE  H11A18108   1.072   3.953  11.013  0.8112  1.2361  1.4328
  162SOPE  H11B18109   1.041   4.048  10.865 -0.8067 -0.2907 -0.2400
  162SOPE     P18110   0.752   3.977  10.844  0.4307 -0.0833  0.0945
  162SOPE   O1318111   0.732   4.121  10.836 -0.1949  0.1626 -0.4415
  162SOPE   O1418112   0.634   3.894  10.870  0.2580  0.2188  0.0209
  162SOPE   O1218113   0.867   3.946  10.959  0.0929  0.1322  0.2610
  162SOPE   O1118114   0.821   3.923  10.711  0.6745 -0.6384  0.9018
  162SOPE    C118115   0.918   3.817  10.697  0.1202 -0.1167  0.0495
  162SOPE    HA18116   0.911   3.751  10.786 -1.1456 -0.8098 -0.5337
  162SOPE    HB18117   1.021   3.856  10.711 -0.6994  1.8046  1.1278
  162SOPE    C218118   0.909   3.742  10.564 -0.1047 -0.0802  0.2108
  162SOPE    HS18119   0.970   3.650  10.556 -0.0377 -0.0035 -0.2032
  162SOPE   O2118120   0.929   3.833  10.452  0.5060 -0.1551 -0.1045
  162SOPE   C2118121   1.055   3.856  10.417 -0.7050  0.3564  0.1218
  162SOPE   O2218122   1.149   3.795  10.466 -0.3769 -0.1016 -0.0366
  162SOPE   C2218123   1.063   3.955  10.308  0.2555 -0.2843 -0.0339
  162SOPE   H2R18124   1.039   4.051  10.357 -0.0479 -0.4494  0.1447
  162SOPE   H2S18125   0.981   3.941  10.234 -0.6923  1.2975  0.6608
  162SOPE    C318126   0.763   3.686  10.556 -0.5542  0.1269 -0.4335
  162SOPE    HX18127   0.694   3.768  10.585  0.8954  1.6182 -1.0413
  162SOPE    HY18128   0.744   3.607  10.631 -1.5587  0.1102 -0.6911
  162SOPE   O3118129   0.737   3.646  10.420  0.2613 -0.2406  0.1855
  162SOPE   C3118130   0.789   3.528  10.388  0.5753 -0.2939 -0.0214
  162SOPE   O3218131   0.856   3.469  10.470 -0.1453 -0.2888  0.3622
  162SOPE   C3218132   0.753   3.487  10.248 -0.1621  0.3813 -0.3659
  162SOPE   H2X18133   0.647   3.456  10.239 -0.0846  0.0811 -0.2706
  162SOPE   H2Y18134   0.807   3.393  10.220 -0.0902  0.9539 -2.3413
  162SOPE   C2318135   1.196   3.979  10.226  0.0451  0.0284  0.0024
  162SOPE   H3R18136   1.274   3.969  10.304 -1.6531 -1.4734  1.6093
  162SOPE   H3S18137   1.192   4.078  10.176  2.3101 -0.0362 -0.4020
  162SOPE   C2418138   1.220   3.879  10.111 -0.3208  0.1142  0.6457
  162SOPE   H4R18139   1.231   3.774  10.147  3.0850 -0.3635 -1.3926
  162SOPE   H4S18140   1.126   3.884  10.051  0.6367  1.1303 -0.8330
  162SOPE   C2518141   1.341   3.906  10.017  0.4265  0.1991 -0.1253
  162SOPE   H5R18142   1.330   4.008   9.975  2.7330 -0.1691 -1.8036
  162SOPE   H5S18143   1.432   3.905  10.081  0.7340 -0.1964 -0.5633
  162SOPE   C2618144   1.356   3.796   9.913  0.2033 -0.5267  0.7622
  162SOPE   H6R18145   1.457   3.806   9.866 -0.2059 -0.6728 -0.1648
  162SOPE   H6S18146   1.353   3.698   9.964  0.3008 -0.9050  0.0504
  162SOPE   C2718147   1.251   3.806   9.806  0.6278  0.2786  0.3381
  162SOPE   H7R18148   1.154   3.777   9.851  0.3410  1.8047  0.7647
  162SOPE   H7S18149   1.237   3.909   9.769 -1.2832  0.3865  1.2222
  162SOPE   C2818150   1.279   3.714   9.676 -0.0082  0.1988  0.2705
  162SOPE   H8R18151   1.312   3.613   9.710 -2.7369 -0.7457  0.3440
  162SOPE   H8S18152   1.180   3.698   9.627  0.0517  1.6233 -0.3575
  162SOPE   C2918153   1.385   3.780   9.594  0.2312 -0.0836  0.8983
  162SOPE   H9118154   1.459   3.841   9.646 -1.0692  1.8629  0.5793
  162SOPE  C21018155   1.390   3.771   9.455  0.4460  0.0593  0.4531
  162SOPE  H10118156   1.467   3.824   9.397 -1.5607  0.6686 -1.8258
  162SOPE  C21118157   1.301   3.681   9.380 -0.5599 -0.2899 -0.6746
  162SOPE  H11R18158   1.195   3.700   9.409 -0.1236  1.2973 -0.0370
  162SOPE  H11S18159   1.326   3.577   9.408 -0.0823  0.4716  1.9558
  162SOPE  C21218160   1.331   3.688   9.233  0.6349 -0.4524 -0.0285
  162SOPE  H12R18161   1.281   3.604   9.181 -0.7578 -0.4516  1.2529
  162SOPE  H12S18162   1.439   3.673   9.212  0.3128 -2.6330 -0.3608
  162SOPE  C21318163   1.276   3.817   9.163 -0.0527 -0.0555 -0.1288
  162SOPE  H13R18164   1.347   3.899   9.188  2.7549 -2.6115  0.8869
  162SOPE  H13S18165   1.173   3.836   9.200  0.1164  0.3619  0.1465
  162SOPE  C21418166   1.279   3.810   9.008  0.3850  0.2720 -0.6836
  162SOPE  H14R18167   1.211   3.883   8.959  3.3375  3.1332 -0.9074
  162SOPE  H14S18168   1.258   3.706   8.977  0.2630 -0.6323  2.1296
  162SOPE  C21518169   1.413   3.840   8.948 -0.5644 -0.2096 -0.2790
  162SOPE  H15R18170   1.492   3.779   8.996  0.0909  0.1385 -0.8986
  162SOPE  H15S18171   1.458   3.939   8.973 -1.3318 -0.0598  0.5743
  162SOPE  C21618172   1.417   3.818   8.801  0.1599 -0.4581  0.4354
  162SOPE  H16R18173   1.355   3.897   8.753  0.6391  0.2453  0.9512
  162SOPE  H16S18174   1.359   3.726   8.779 -3.4136  0.9717  2.8179
  162SOPE  C21718175   1.563   3.825   8.739  0.6398  0.4180 -0.2186
  162SOPE  H17R18176   1.559   3.789   8.634 -0.4853  2.7245 -1.0438
  162SOPE  H17S18177   1.634   3.754   8.786  0.3006 -0.2756 -0.7384
  162SOPE  C21818178   1.625   3.962   8.743 -0.4077 -0.0337 -0.2991
  162SOPE  H18R18179   1.731   3.961   8.709 -0.4898 -4.1655 -0.9329
  162SOPE  H18S18180   1.624   3.983   8.852 -1.6497 -1.0184 -0.0926
  162SOPE  H18T18181   1.576   4.051   8.697  1.5217  2.1156  1.5049
  162SOPE   C3318182   0.773   3.598  10.139 -0.6116 -0.4774  0.0778
  162SOPE   H3X18183   0.880   3.629  10.128 -0.9358 -0.2000 -5.4384
  162SOPE   H3Y18184   0.711   3.687  10.161  1.3439  0.5764  1.6693
  162SOPE   C3418185   0.738   3.547  10.003 -0.7759 -0.2872  0.4813
  162SOPE   H4X18186   0.635   3.505  10.000  0.3099 -3.1148 -1.4376
  162SOPE   H4Y18187   0.804   3.462   9.975  0.4539  0.8230 -0.1221
  162SOPE   C3518188   0.757   3.659   9.890  0.4270 -0.4023  0.6496
  162SOPE   H5X18189   0.823   3.740   9.928  1.4805 -0.4793 -0.9291
  162SOPE   H5Y18190   0.656   3.697   9.863  1.5252  0.6784 -2.2658
  162SOPE   C3618191   0.829   3.623   9.757 -0.2513  0.4331 -0.7479
  162SOPE   H6X18192   0.787   3.535   9.706  1.7565 -0.6956 -0.5613
  162SOPE   H6Y18193   0.932   3.604   9.794 -0.2370  3.2394  1.0537
  162SOPE   C3718194   0.833   3.747   9.661 -0.4450 -0.1768 -0.4302
  162SOPE   H7X18195   0.888   3.835   9.701 -1.0882 -0.2452  0.6469
  162SOPE   H7Y18196   0.728   3.770   9.633 -0.5208  1.4568  0.9907
  162SOPE   C3818197   0.908   3.712   9.533  0.3893  0.4572 -0.2976
  162SOPE   H8X18198   0.933   3.604   9.541 -2.3302 -0.3428 -1.2636
  162SOPE   H8Y18199   1.009   3.758   9.526  1.3882 -1.2663  1.6455
  162SOPE   C3918200   0.825   3.728   9.402  0.4660 -0.0104  0.4393
  162SOPE   H9X18201   0.717   3.707   9.413 -0.2029  2.4479 -0.8210
  162SOPE   H9Y18202   0.851   3.647   9.330  0.8574  0.9424 -0.5164
  162SOPE  C31018203   0.831   3.869   9.341  0.0606 -0.3597  0.0993
  162SOPE  H10X18204   0.934   3.902   9.314 -0.1633 -1.0211 -1.7562
  162SOPE  H10Y18205   0.791   3.942   9.414  0.3072  1.1174 -1.1968
  162SOPE  C31118206   0.758   3.874   9.203 -0.1016 -0.7349  0.0573
  162SOPE  H11X18207   0.752   3.985   9.194 -0.3046 -0.7996 -0.6117
  162SOPE  H11Y18208   0.650   3.853   9.215  0.0980 -2.2219 -0.5616
  162SOPE  C31218209   0.835   3.796   9.101  0.5522 -0.5064 -0.2315
  162SOPE  H12X18210   0.839   3.688   9.127 -0.3462  0.1788  3.2985
  162SOPE  H12Y18211   0.938   3.837   9.095  0.0340  1.2116  1.6317
  162SOPE  C31318212   0.760   3.810   8.968 -0.1713 -0.0988 -0.2440
  162SOPE  H13X18213   0.777   3.916   8.942 -0.4405 -0.1792 -0.7803
  162SOPE  H13Y18214   0.652   3.798   8.991 -0.5224  1.6809 -0.8045
  162SOPE  C31418215   0.800   3.719   8.855  0.2767 -0.0667 -0.4870
  162SOPE  H14X18216   0.734   3.741   8.768 -3.1466 -0.4484  1.7956
  162SOPE  H14Y18217   0.775   3.613   8.878 -0.4343 -0.0448 -1.1197
  162SOPE  C31518218   0.950   3.704   8.829 -0.1708 -0.3296  0.0030
  162SOPE  H15X18219   1.008   3.652   8.908  0.9765  1.4604  0.3807
  162SOPE  H15Y18220   0.983   3.807   8.807 -0.3665 -0.3129 -0.2150
  162SOPE  C31618221   0.977   3.630   8.693  0.6740  0.1898  0.2757
  162SOPE  H16X18222   0.911   3.667   8.612  0.2949 -0.5030  0.2697
  162SOPE  H16Y18223   0.962   3.522   8.713  0.5887  0.4390  1.6591
  162SOPE  C31718224   1.117   3.668   8.655  0.0287  1.1898  0.2654
  162SOPE  H17X18225   1.188   3.662   8.741  0.2700  0.8109  0.0488
  162SOPE  H17Y18226   1.126   3.775   8.628  2.3357  1.3478  1.4048
  162SOPE  C31818227   1.179   3.585   8.533  0.7003 -0.8020  0.1362
  162SOPE  H18X18228   1.195   3.478   8.559  0.8231 -0.3131  2.2318
  162SOPE  H18Y18229   1.270   3.634   8.491 -1.8471  2.0979 -2.5287
  162SOPE  H18Z18230   1.107   3.590   8.449  1.5438 -1.4301 -0.6428
  163SOPE     N18231   2.518   2.714  10.709  0.4312 -0.5002 -0.0461
  163SOPE   HN118232   2.494   2.645  10.635  0.5617 -0.6948  0.0936
  163SOPE   HN218233   2.514   2.662  10.799 -0.5856 -1.0731 -0.3978
  163SOPE   HN318234   2.442   2.785  10.709  0.2106 -0.6336  2.6217
  163SOPE   C1218235   2.663   2.759  10.687 -0.1584  0.1410  0.7123
  163SOPE  H12A18236   2.684   2.851  10.745  1.6666 -0.2343  0.7177
  163SOPE  H12B18237   2.672   2.771  10.577 -1.4236  1.1905  0.7012
  163SOPE   C1118238   2.762   2.649  10.733  0.2050  0.4874  0.0690
  163SOPE  H11A18239   2.768   2.631  10.842  0.7943  0.4796  0.0384
  163SOPE  H11B18240   2.860   2.692  10.703  0.8212 -1.1330 -0.3427
  163SOPE     P18241   2.814   2.403  10.657  0.4213  0.1587 -0.4227
  163SOPE   O1318242   2.772   2.297  10.748 -0.2998 -0.5197 -0.4995
  163SOPE   O1418243   2.954   2.449  10.668 -0.3620  0.4387  0.2802
  163SOPE   O1218244   2.718   2.527  10.666  0.0905  0.3662 -0.0237
  163SOPE   O1118245   2.797   2.348  10.505  0.6230  0.2643 -0.3039
  163SOPE    C118246   2.794   2.449  10.401  0.0054 -0.5320 -0.2224
  163SOPE    HA18247   2.890   2.504  10.407 -0.1051 -0.4366  0.8072
  163SOPE    HB18248   2.714   2.525  10.410  0.0508  0.3145 -4.6257
  163SOPE    C218249   2.768   2.383  10.256 -0.2316  0.3268 -0.5111
  163SOPE    HS18250   2.766   2.462  10.177  0.2097 -0.1443 -0.9991
  163SOPE   O2118251   2.640   2.316  10.265  0.5381 -0.0759  0.1455
  163SOPE   C2118252   2.539   2.402  10.249 -0.3602  0.5910 -0.4798
  163SOPE   O2218253   2.545   2.525  10.246  0.2345 -0.2447  0.5579
  163SOPE   C2218254   2.410   2.333  10.230 -0.0008 -0.1069  0.3440
  163SOPE   H2R18255   2.334   2.409  10.201  0.3230  0.2763  0.4837
  163SOPE   H2S18256   2.369   2.294  10.326  0.0973  0.3556  0.5746
  163SOPE    C318257   2.881   2.283  10.215 -0.1104 -0.3845  0.1926
  163SOPE    HX18258   2.880   2.203  10.292 -1.1417 -1.2749 -0.7168
  163SOPE    HY18259   2.981   2.332  10.215 -0.8138  1.1933  2.2039
  163SOPE   O3118260   2.848   2.228  10.083  0.1588 -0.3384 -0.4775
  163SOPE   C3118261   2.803   2.104  10.091  0.3349  0.0303 -0.5107
  163SOPE   O3218262   2.789   2.037  10.194 -0.3891 -0.2688  0.7561
  163SOPE   C3218263   2.796   2.049   9.952  0.5712 -0.1009 -0.0735
  163SOPE   H2X18264   2.898   2.042   9.907  1.3352 -2.0728  1.7867
  163SOPE   H2Y18265   2.740   2.131   9.902  2.1530  1.1693  0.1803
  163SOPE   C2318266   2.404   2.214  10.133  0.3507 -0.3858 -0.6655
  163SOPE   H3R18267   2.504   2.187  10.092 -0.0396 -3.5138  0.1813
  163SOPE   H3S18268   2.332   2.233  10.050  0.4565 -3.4227 -1.5877
  163SOPE   C2418269   2.350   2.087  10.204  0.4517 -0.0706  0.1103
  163SOPE   H4R18270   2.397   2.071  10.303 -1.2422 -0.1076  0.9495
  163SOPE   H4S18271   2.242   2.103  10.225  1.0364  2.1112  1.8393
  163SOPE   C2518272   2.366   1.956  10.120 -0.2898 -0.0441  0.1407
  163SOPE   H5R18273   2.476   1.952  10.100 -0.5806  0.3321 -1.7934
  163SOPE   H5S18274   2.347   1.869  10.186 -2.3257  2.2375  2.7654
  163SOPE   C2618275   2.286   1.953   9.986  0.5006  0.1293  0.1747
  163SOPE   H6R18276   2.185   1.944  10.032  2.2524 -0.5299  4.3437
  163SOPE   H6S18277   2.292   2.055   9.941 -0.9407 -0.0144 -0.3854
  163SOPE   C2718278   2.325   1.843   9.893  0.2126 -0.6752 -0.2880
  163SOPE   H7R18279   2.423   1.878   9.853 -0.2811  2.2580  0.8470
  163SOPE   H7S18280   2.348   1.755   9.957  2.6103 -0.7108 -1.0957
  163SOPE   C2818281   2.223   1.818   9.778 -0.7318 -0.2081 -0.2048
  163SOPE   H8R18282   2.125   1.784   9.817 -0.7348  0.4815  0.4169
  163SOPE   H8S18283   2.202   1.915   9.727 -0.1216 -0.4895 -1.0089
  163SOPE   C2918284   2.277   1.714   9.674 -0.5390 -0.1561 -0.4149
  163SOPE   H9118285   2.266   1.609   9.705  0.7151 -0.1871 -0.0313
  163SOPE  C21018286   2.344   1.743   9.558  0.3057  0.4451  0.1458
  163SOPE  H10118287   2.380   1.659   9.497 -1.6537  0.4969 -1.1738
  163SOPE  C21118288   2.372   1.877   9.499 -0.2683  0.6794  0.1829
  163SOPE  H11R18289   2.482   1.892   9.511 -0.2368 -0.8082  2.5172
  163SOPE  H11S18290   2.331   1.963   9.555  1.0347  0.9441  0.7745
  163SOPE  C21218291   2.331   1.904   9.354 -0.1939  0.2140 -0.5568
  163SOPE  H12R18292   2.352   2.010   9.329 -1.3820  0.4271 -0.7060
  163SOPE  H12S18293   2.221   1.900   9.363  0.0098 -2.4266  2.6423
  163SOPE  C21318294   2.389   1.808   9.251  0.1524  0.6395 -0.3393
  163SOPE  H13R18295   2.326   1.718   9.261  0.0017  0.6801 -0.9025
  163SOPE  H13S18296   2.495   1.777   9.267 -0.1466 -0.2948 -0.1413
  163SOPE  C21418297   2.387   1.867   9.111  0.3476 -0.4992 -0.4777
  163SOPE  H14R18298   2.469   1.940   9.098  1.4288 -1.6612 -0.3818
  163SOPE  H14S18299   2.285   1.910   9.105  0.2750  0.2942  3.4928
  163SOPE  C21518300   2.399   1.776   8.981  0.0858 -1.0645  0.1749
  163SOPE  H15R18301   2.321   1.697   8.974 -0.7205 -0.5434  2.3723
  163SOPE  H15S18302   2.490   1.715   9.000  1.8974  1.3496 -0.3462
  163SOPE  C21618303   2.425   1.854   8.847  0.5914  1.0134 -0.6962
  163SOPE  H16R18304   2.472   1.791   8.769 -0.8695 -1.5802  0.3770
  163SOPE  H16S18305   2.482   1.946   8.875  2.0688 -0.4205  1.2643
  163SOPE  C21718306   2.286   1.894   8.789  0.0000 -0.4111 -0.9446
  163SOPE  H17R18307   2.237   1.960   8.865 -0.2932 -1.1897 -0.4387
  163SOPE  H17S18308   2.218   1.807   8.778 -1.1810  0.3342  0.1376
  163SOPE  C21818309   2.302   1.964   8.661 -0.0742  0.3840  0.0043
  163SOPE  H18R18310   2.365   2.055   8.665  0.6941 -0.1382 -0.1121
  163SOPE  H18S18311   2.203   2.004   8.631 -0.6910  0.7015  2.2806
  163SOPE  H18T18312   2.339   1.904   8.575 -1.7388 -0.0777 -0.4311
  163SOPE   C3318313   2.725   1.913   9.926  0.0674  0.2197  0.4310
  163SOPE   H3X18314   2.629   1.912   9.983 -0.4040  2.1040 -0.2691
  163SOPE   H3Y18315   2.789   1.835   9.973 -2.5813 -1.7658  1.0752
  163SOPE   C3418316   2.692   1.887   9.780  0.1637  0.3844 -0.1058
  163SOPE   H4X18317   2.600   1.948   9.766 -1.2142 -0.9967  2.1765
  163SOPE   H4Y18318   2.663   1.781   9.769  0.2330 -0.3009  4.2666
  163SOPE   C3518319   2.807   1.927   9.679  0.4567  0.3499 -0.5095
  163SOPE   H5X18320   2.899   1.872   9.707 -0.0873 -0.1711  0.2970
  163SOPE   H5Y18321   2.824   2.036   9.689 -1.1303  0.4469  2.2814
  163SOPE   C3618322   2.784   1.878   9.528 -0.5545  0.4406 -0.5466
  163SOPE   H6X18323   2.862   1.933   9.471  0.0568 -0.7439 -0.8758
  163SOPE   H6Y18324   2.690   1.898   9.473  0.8405 -2.4092 -4.3932
  163SOPE   C3718325   2.787   1.727   9.516 -0.2682  0.0097  0.2718
  163SOPE   H7X18326   2.727   1.671   9.591  0.5761 -1.7855 -0.3322
  163SOPE   H7Y18327   2.896   1.714   9.532 -0.1603  0.9173  0.3234
  163SOPE   C3818328   2.753   1.665   9.380 -0.0973 -0.3070  0.0889
  163SOPE   H8X18329   2.642   1.656   9.373  0.0073 -0.8067 -1.2658
  163SOPE   H8Y18330   2.798   1.563   9.374 -1.6369 -0.9262 -4.5872
  163SOPE   C3918331   2.815   1.735   9.251 -0.1359 -0.3781  0.4942
  163SOPE   H9X18332   2.924   1.737   9.272  0.3497  4.5246 -1.3336
  163SOPE   H9Y18333   2.778   1.839   9.245 -2.2795 -1.1481 -0.7584
  163SOPE  C31018334   2.771   1.667   9.127 -0.3649 -0.2636  0.0053
  163SOPE  H10X18335   2.660   1.666   9.118 -0.4366  1.7349  0.2603
  163SOPE  H10Y18336   2.812   1.564   9.132 -1.8828 -0.8633  0.9222
  163SOPE  C31118337   2.837   1.740   9.005 -0.1425  0.3321 -0.3769
  163SOPE  H11X18338   2.941   1.752   9.042 -0.6139  0.4106  0.9842
  163SOPE  H11Y18339   2.795   1.841   8.991  1.9467  1.3790  0.4479
  163SOPE  C31218340   2.827   1.665   8.875  0.4464  0.0366  0.3525
  163SOPE  H12X18341   2.722   1.639   8.849  0.0559 -0.4177  2.2069
  163SOPE  H12Y18342   2.885   1.571   8.887 -1.0848 -0.9841  0.0571
  163SOPE  C31318343   2.895   1.749   8.767  1.0554 -0.1787 -0.4281
  163SOPE  H13X18344   2.947   1.681   8.697  3.5151 -0.5104  1.5578
  163SOPE  H13Y18345   2.971   1.813   8.817  1.2216 -0.5166 -0.2445
  163SOPE  C31418346   2.792   1.826   8.684  0.4978  0.0725  0.2935
  163SOPE  H14X18347   2.846   1.895   8.615 -2.4092  1.0899 -1.0995
  163SOPE  H14Y18348   2.714   1.879   8.743 -0.6903 -1.9814  0.6760
  163SOPE  C31518349   2.716   1.735   8.592  0.4159 -0.7292 -0.4015
  163SOPE  H15X18350   2.636   1.685   8.650 -0.4516  0.8924 -0.1337
  163SOPE  H15Y18351   2.787   1.661   8.549  1.8637 -0.3995  1.3131
  163SOPE  C31618352   2.643   1.804   8.482 -0.0038 -0.8774  0.2209
  163SOPE  H16X18353   2.710   1.870   8.422 -2.2116  1.3810  0.1060
  163SOPE  H16Y18354   2.567   1.861   8.537  0.2637 -0.9659  0.6864
  163SOPE  C31718355   2.561   1.713   8.379  0.1983  0.1912 -0.0543
  163SOPE  H17X18356   2.458   1.746   8.351  0.3528  0.7448  0.0262
  163SOPE  H17Y18357   2.545   1.622   8.441 -0.1658  0.5181  0.3326
  163SOPE  C31818358   2.628   1.672   8.248 -0.3328 -0.3946 -0.0676
  163SOPE  H18X18359   2.736   1.652   8.263 -0.6099 -0.5988  1.8902
  163SOPE  H18Y18360   2.620   1.755   8.174 -0.5696 -1.3634 -1.1658
  163SOPE  H18Z18361   2.590   1.578   8.202 -0.3622 -0.5654  0.3010
  164SOPE     N18362   4.965   0.688  10.851 -0.1273 -0.6314 -0.2990
  164SOPE   HN118363   4.935   0.610  10.789 -2.9633 -0.8443  1.1676
  164SOPE   HN218364   5.005   0.654  10.941 -1.7788  2.1789  1.6617
  164SOPE   HN318365   4.886   0.753  10.864 -0.3725 -0.5639 -1.9172
  164SOPE   C1218366   5.075   0.754  10.780  0.8266 -0.0478  0.1384
  164SOPE  H12A18367   5.124   0.820  10.855 -1.6401  1.1500  0.7820
  164SOPE  H12B18368   5.025   0.819  10.706  0.1527  1.6122  1.9522
  164SOPE   C1118369   5.176   0.650  10.714 -0.2130 -1.0556  0.4681
  164SOPE  H11A18370   5.259   0.707  10.667  0.0031 -2.7780 -1.3800
  164SOPE  H11B18371   5.114   0.598  10.637 -0.8037 -1.6491  1.3284
  164SOPE     P18372   5.363   0.587  10.879 -0.1878 -0.0238  0.0125
  164SOPE   O1318373   5.366   0.510  11.000 -0.6151  0.0689 -0.4870
  164SOPE   O1418374   5.399   0.731  10.904  0.3218  0.4873  0.2259
  164SOPE   O1218375   5.220   0.564  10.821  0.0716 -0.7001 -0.2486
  164SOPE   O1118376   5.455   0.521  10.775  0.5176 -0.8614 -0.3127
  164SOPE    C118377   5.451   0.386  10.748  0.5857 -0.2982 -0.4894
  164SOPE    HA18378   5.373   0.329  10.804  1.5887 -1.0437  0.1741
  164SOPE    HB18379   5.549   0.342  10.776 -0.5863 -2.1149  1.0066
  164SOPE    C218380   5.422   0.355  10.594 -0.4753 -1.4591  0.3498
  164SOPE    HS18381   5.502   0.283  10.565  0.0775 -1.4343  1.7603
  164SOPE   O2118382   5.420   0.472  10.510  0.0965 -0.0386 -0.1913
  164SOPE   C2118383   5.528   0.534  10.493  0.0613 -0.3782 -0.4594
  164SOPE   O2218384   5.645   0.517  10.533  0.3149  0.7674  0.5086
  164SOPE   C2218385   5.486   0.665  10.424  0.1280 -0.0090 -0.9978
  164SOPE   H2R18386   5.389   0.694  10.471 -0.6432  0.4850 -2.8065
  164SOPE   H2S18387   5.471   0.636  10.318  0.4581  3.2754 -2.0581
  164SOPE    C318388   5.294   0.277  10.580 -0.6425 -0.3593 -0.6843
  164SOPE    HX18389   5.210   0.341  10.615 -0.2691  0.4540 -1.2476
  164SOPE    HY18390   5.293   0.191  10.650 -1.6995  0.1016 -0.0926
  164SOPE   O3118391   5.267   0.242  10.438 -0.5146 -0.4723 -0.2119
  164SOPE   C3118392   5.320   0.126  10.401  0.2127  0.4171 -0.0053
  164SOPE   O3218393   5.380   0.052  10.472  0.1426  0.2508  0.1989
  164SOPE   C3218394   5.298   0.102  10.252  0.3882 -0.1407  0.1356
  164SOPE   H2X18395   5.375   0.027  10.223  2.2477  0.5575  2.9027
  164SOPE   H2Y18396   5.320   0.202  10.209  1.6767  0.0769  1.2438
  164SOPE   C2318397   5.585   0.784  10.446 -0.8841  0.0539  0.4323
  164SOPE   H3R18398   5.685   0.754  10.407 -0.1499 -0.6538  2.6606
  164SOPE   H3S18399   5.614   0.808  10.551  2.9578  1.8268 -0.8329
  164SOPE   C2418400   5.537   0.910  10.373 -0.3406  0.2823  0.3278
  164SOPE   H4R18401   5.436   0.946  10.401 -0.3126  1.2796 -0.7607
  164SOPE   H4S18402   5.600   0.994  10.410 -2.4294  0.6643  3.3901
  164SOPE   C2518403   5.544   0.899  10.222  0.1070 -0.4599 -0.0615
  164SOPE   H5R18404   5.632   0.944  10.172 -2.4310  1.0523 -3.5900
  164SOPE   H5S18405   5.540   0.791  10.194 -0.2679  0.3168 -3.3651
  164SOPE   C2618406   5.424   0.965  10.145 -0.7929 -0.0986  0.6998
  164SOPE   H6R18407   5.328   0.927  10.186 -1.4252 -2.4781 -2.5763
  164SOPE   H6S18408   5.427   1.075  10.160  0.3292 -0.3606  2.7810
  164SOPE   C2718409   5.429   0.933   9.987 -0.1708 -0.0108  0.4334
  164SOPE   H7R18410   5.352   0.998   9.940 -2.0688 -1.3093  1.6087
  164SOPE   H7S18411   5.530   0.960   9.950 -0.2472 -0.5932 -0.2215
  164SOPE   C2818412   5.392   0.793   9.932 -0.0846 -0.6104 -0.6940
  164SOPE   H8R18413   5.311   0.747   9.992  2.6997 -3.1772  1.3834
  164SOPE   H8S18414   5.360   0.804   9.826 -2.7939  0.6564  0.1518
  164SOPE   C2918415   5.513   0.699   9.935  0.0095  0.3934 -0.5303
  164SOPE   H9118416   5.518   0.637  10.026 -0.6806  0.3774 -0.4966
  164SOPE  C21018417   5.599   0.669   9.835  0.8792  0.3728 -0.4767
  164SOPE  H10118418   5.683   0.601   9.855  0.9247  0.9415  1.4614
  164SOPE  C21118419   5.585   0.728   9.700 -0.1451 -0.5199  0.0643
  164SOPE  H11R18420   5.689   0.745   9.663  0.3533 -3.9048 -0.4690
  164SOPE  H11S18421   5.540   0.828   9.708  0.5832 -0.1592 -0.2137
  164SOPE  C21218422   5.502   0.658   9.587  0.1769  0.0071 -0.2388
  164SOPE  H12R18423   5.402   0.707   9.584 -0.7820 -1.8231 -0.0006
  164SOPE  H12S18424   5.484   0.554   9.622  1.2262  0.1283  0.7111
  164SOPE  C21318425   5.563   0.654   9.456  0.6341 -0.0063 -0.4277
  164SOPE  H13R18426   5.646   0.580   9.452 -1.0704 -2.0427  0.2021
  164SOPE  H13S18427   5.618   0.749   9.444  2.0693 -0.6332  0.8034
  164SOPE  C21418428   5.464   0.618   9.341  0.0469  0.1093  0.2887
  164SOPE  H14R18429   5.420   0.711   9.299  2.6045  0.4570 -1.9515
  164SOPE  H14S18430   5.377   0.557   9.371  0.0827  1.0805  2.6041
  164SOPE  C21518431   5.542   0.564   9.220 -0.3156  0.0981  0.1293
  164SOPE  H15R18432   5.599   0.471   9.238 -0.2040 -0.0940 -1.0928
  164SOPE  H15S18433   5.616   0.639   9.183 -0.2019 -0.2795 -0.4121
  164SOPE  C21618434   5.436   0.529   9.111  0.1681  0.1425 -0.6104
  164SOPE  H16R18435   5.379   0.624   9.095  0.6127  0.2417 -1.6782
  164SOPE  H16S18436   5.371   0.451   9.156  0.3206  0.2221 -0.2509
  164SOPE  C21718437   5.492   0.495   8.970 -0.2652  0.0111 -1.0984
  164SOPE  H17R18438   5.559   0.407   8.984  0.9436  0.9849 -0.6522
  164SOPE  H17S18439   5.561   0.575   8.936 -1.7938  0.6494 -2.8174
  164SOPE  C21818440   5.393   0.465   8.862 -0.8737  0.2547 -0.2617
  164SOPE  H18R18441   5.338   0.370   8.883 -1.8749  0.0493 -3.3057
  164SOPE  H18S18442   5.450   0.437   8.770 -2.0879  0.0838 -0.9850
  164SOPE  H18T18443   5.329   0.551   8.834 -0.3527  0.2192 -1.6679
  164SOPE   C3318444   5.161   0.041  10.217  0.1990 -0.6199  0.1657
  164SOPE   H3X18445   5.082   0.117  10.234  0.0846 -0.1522 -2.1033
  164SOPE   H3Y18446   5.134  -0.051  10.273  1.2547 -1.6981 -1.0385
  164SOPE   C3418447   5.161   0.007  10.067 -0.1193  0.1355 -0.0678
  164SOPE   H4X18448   5.196  -0.098  10.057  4.4359  1.3109  1.2329
  164SOPE   H4Y18449   5.229   0.072  10.009 -2.2114  1.2271 -1.3881
  164SOPE   C3518450   5.013   0.011  10.000  0.0149  0.0656 -0.6115
  164SOPE   H5X18451   4.962   0.110  10.003  2.0443  1.1612  0.8885
  164SOPE   H5Y18452   4.952  -0.058  10.062  4.0373 -0.6711  3.0521
  164SOPE   C3618453   5.001  -0.032   9.850 -0.8798 -0.6473 -0.6991
  164SOPE   H6X18454   4.897  -0.030   9.810 -0.8418 -1.3156 -0.8410
  164SOPE   H6Y18455   5.020  -0.142   9.846 -0.5909 -0.6662  0.8240
  164SOPE   C3718456   5.104   0.040   9.759 -0.5686  0.6994 -0.0195
  164SOPE   H7X18457   5.207   0.000   9.775 -0.6265  0.9641  1.1040
  164SOPE   H7Y18458   5.126   0.145   9.789  1.2025  0.2606  0.3367
  164SOPE   C3818459   5.063   0.033   9.609 -0.3542  0.3815 -0.4830
  164SOPE   H8X18460   5.154   0.081   9.565 -0.8493  0.0848 -1.8707
  164SOPE   H8Y18461   4.983   0.108   9.592 -0.3977  0.2758 -0.7294
  164SOPE   C3918462   5.046  -0.107   9.554  0.4993  0.0772  0.1676
  164SOPE   H9X18463   4.946  -0.149   9.576  0.5117 -0.1691 -0.2402
  164SOPE   H9Y18464   5.106  -0.174   9.619 -0.0471 -0.8524 -0.2670
  164SOPE  C31018465   5.062  -0.123   9.406  0.1608  0.6461  0.1788
  164SOPE  H10X18466   5.055  -0.230   9.376  0.5196  1.3443 -2.6919
  164SOPE  H10Y18467   5.166  -0.100   9.376  1.0794 -1.7912  1.2190
  164SOPE  C31118468   4.953  -0.065   9.310  1.1255  0.3076  0.0211
  164SOPE  H11X18469   4.942   0.043   9.332  1.1819  0.1398  0.9307
  164SOPE  H11Y18470   4.856  -0.117   9.326  2.3305 -1.5393  1.8871
  164SOPE  C31218471   4.974  -0.085   9.162  0.0102 -0.1072 -0.0669
  164SOPE  H12X18472   5.076  -0.051   9.132  0.0042  3.6051  3.2348
  164SOPE  H12Y18473   4.900  -0.020   9.111 -1.2211  0.1399  1.9359
  164SOPE  C31318474   4.953  -0.233   9.113 -0.1446 -0.4178 -0.1382
  164SOPE  H13X18475   4.856  -0.259   9.159  0.1690 -0.8331  0.2948
  164SOPE  H13Y18476   5.032  -0.298   9.157  0.7678 -0.2952 -1.5104
  164SOPE  C31418477   4.940  -0.239   8.964 -0.0973  0.8605  0.7039
  164SOPE  H14X18478   5.022  -0.179   8.921  1.1517 -0.2944  1.4101
  164SOPE  H14Y18479   4.842  -0.192   8.937  0.0967 -0.0809 -1.9179
  164SOPE  C31518480   4.942  -0.384   8.913  0.2903  0.0945  0.4638
  164SOPE  H15X18481   4.914  -0.370   8.806  1.5691 -0.0123  0.0925
  164SOPE  H15Y18482   4.870  -0.452   8.963 -0.6209 -1.0018 -2.1642
  164SOPE  C31618483   5.087  -0.442   8.911  0.5753 -0.1036 -0.9265
  164SOPE  H16X18484   5.129  -0.475   9.008 -2.1881 -1.1186  0.0066
  164SOPE  H16Y18485   5.157  -0.357   8.895  1.4159 -0.7525 -0.7677
  164SOPE  C31718486   5.118  -0.540   8.803  0.2893 -0.0190  0.7110
  164SOPE  H17X18487   5.092  -0.491   8.706 -2.1201 -0.0907  1.2499
  164SOPE  H17Y18488   5.052  -0.630   8.807  3.0514 -2.1703  0.8942
  164SOPE  C31818489   5.259  -0.608   8.817 -0.9849 -0.5972  0.1026
  164SOPE  H18X18490   5.332  -0.525   8.806 -1.3292 -0.4824 -1.4893
  164SOPE  H18Y18491   5.268  -0.681   8.733  1.0055  1.5423 -1.6892
  164SOPE  H18Z18492   5.274  -0.659   8.915 -1.2320 -1.7552 -0.4475
  165SOPE     N18493   3.521   1.242  10.624 -0.1785  0.0589  0.3014
  165SOPE   HN118494   3.559   1.214  10.531  1.8238 -0.2777  1.1701
  165SOPE   HN218495   3.452   1.167  10.643  0.6472 -0.7602  0.1463
  165SOPE   HN318496   3.467   1.331  10.619 -0.4288 -0.1148 -0.2536
  165SOPE   C1218497   3.651   1.251  10.705  0.2264 -0.2069  0.8911
  165SOPE  H12A18498   3.721   1.174  10.666 -0.6823 -0.6400  0.0715
  165SOPE  H12B18499   3.626   1.234  10.811 -0.4041 -0.3718  0.7196
  165SOPE   C1118500   3.712   1.394  10.705 -0.4977 -0.2813  0.6206
  165SOPE  H11A18501   3.745   1.422  10.602 -0.1347  3.3858  1.5954
  165SOPE  H11B18502   3.804   1.395  10.767  0.1409 -2.7321 -0.1941
  165SOPE     P18503   3.639   1.633  10.799 -0.6287  0.4603  0.8336
  165SOPE   O1318504   3.748   1.638  10.897  0.6376  0.4105 -0.4279
  165SOPE   O1418505   3.512   1.697  10.838 -0.2403 -0.0313 -0.2171
  165SOPE   O1218506   3.614   1.485  10.756  0.0992 -0.1542 -0.6318
  165SOPE   O1118507   3.691   1.707  10.669  0.0019 -0.2637  0.0139
  165SOPE    C118508   3.605   1.717  10.556 -0.9452  0.1631 -0.1242
  165SOPE    HA18509   3.516   1.767  10.600 -1.3119 -1.1565  0.6830
  165SOPE    HB18510   3.588   1.624  10.498  0.8151 -0.3213  0.0919
  165SOPE    C218511   3.677   1.807  10.449  0.3536  0.2945  0.1140
  165SOPE    HS18512   3.594   1.849  10.388  2.0312 -0.8469 -3.2094
  165SOPE   O2118513   3.767   1.726  10.372 -0.0503  0.2044  0.0865
  165SOPE   C2118514   3.723   1.666  10.271  0.2567 -0.7429 -0.1413
  165SOPE   O2218515   3.609   1.668  10.230  1.1295 -0.6600  0.3646
  165SOPE   C2218516   3.834   1.573  10.224 -0.8398 -0.4392  0.5815
  165SOPE   H2R18517   3.790   1.493  10.161 -0.8427 -0.6788  0.8869
  165SOPE   H2S18518   3.878   1.523  10.312  0.9804  0.1595  0.0477
  165SOPE    C318519   3.740   1.938  10.509 -0.4780 -0.3137  0.2840
  165SOPE    HX18520   3.846   1.910  10.530  0.0724  1.2258 -0.3148
  165SOPE    HY18521   3.690   1.973  10.602  0.6710 -0.2595  0.9005
  165SOPE   O3118522   3.752   2.044  10.407 -0.1225  0.0338  0.3606
  165SOPE   C3118523   3.644   2.108  10.380  0.4261  0.5903 -0.4608
  165SOPE   O3218524   3.530   2.074  10.408 -0.3583 -0.1436  0.3355
  165SOPE   C3218525   3.675   2.231  10.296  0.2344 -0.0733 -0.0838
  165SOPE   H2X18526   3.771   2.277  10.328  2.7222 -3.0440 -2.6532
  165SOPE   H2Y18527   3.591   2.303  10.300 -0.0519 -0.3822 -0.4339
  165SOPE   C2318528   3.951   1.654  10.148 -0.3822 -1.0664 -0.0995
  165SOPE   H3R18529   4.042   1.589  10.143 -0.2041 -0.7703 -0.9930
  165SOPE   H3S18530   3.981   1.742  10.209 -0.5452 -0.7679 -0.4459
  165SOPE   C2418531   3.927   1.696  10.002 -0.3960 -0.7026 -0.0956
  165SOPE   H4R18532   4.027   1.723   9.961  0.0777 -0.5056  1.1689
  165SOPE   H4S18533   3.894   1.618   9.929  1.1881 -1.7382  0.2512
  165SOPE   C2518534   3.828   1.809   9.988  0.1871  0.2543  0.0999
  165SOPE   H5R18535   3.725   1.777  10.018  0.9571 -2.0031  0.5211
  165SOPE   H5S18536   3.851   1.893  10.057 -0.2304  0.6231 -0.2096
  165SOPE   C2618537   3.813   1.863   9.849 -0.5157  0.2116 -0.0080
  165SOPE   H6R18538   3.766   1.964   9.859  3.1251  2.3076 -1.9511
  165SOPE   H6S18539   3.918   1.885   9.819  0.0738  0.0345  1.8086
  165SOPE   C2718540   3.742   1.769   9.748  0.0290 -0.6680 -0.2175
  165SOPE   H7R18541   3.826   1.701   9.721 -1.1035 -0.8392 -3.8113
  165SOPE   H7S18542   3.657   1.717   9.798 -1.1501  1.6536  0.3485
  165SOPE   C2818543   3.698   1.836   9.621 -0.8330 -0.6083 -0.6101
  165SOPE   H8R18544   3.630   1.770   9.562 -2.9807  0.9349  0.0390
  165SOPE   H8S18545   3.623   1.913   9.647 -0.5721 -0.6210  0.2003
  165SOPE   C2918546   3.809   1.902   9.543 -0.5932 -0.1744  0.0748
  165SOPE   H9118547   3.839   2.006   9.567 -2.7373  0.0934  1.8736
  165SOPE  C21018548   3.864   1.846   9.436 -0.8355 -0.3817 -0.0264
  165SOPE  H10118549   3.953   1.895   9.392 -0.7336 -0.9168 -0.4173
  165SOPE  C21118550   3.841   1.712   9.374 -0.0945  0.4806  0.3188
  165SOPE  H11R18551   3.785   1.637   9.434  1.5287 -1.9106 -0.9760
  165SOPE  H11S18552   3.936   1.658   9.353  0.3878  1.4143  0.0723
  165SOPE  C21218553   3.769   1.720   9.240 -0.2500  0.1472 -0.1448
  165SOPE  H12R18554   3.699   1.806   9.240 -2.8354 -1.8201  1.1221
  165SOPE  H12S18555   3.704   1.631   9.229 -1.0620  0.6034  0.8015
  165SOPE  C21318556   3.864   1.737   9.120  0.1939  0.0741 -0.9747
  165SOPE  H13R18557   3.938   1.654   9.120  1.1505  0.8867 -0.1314
  165SOPE  H13S18558   3.905   1.840   9.127 -1.2472  0.5589  1.4598
  165SOPE  C21418559   3.788   1.735   8.980  0.0645  0.5930  0.1643
  165SOPE  H14R18560   3.751   1.837   8.959 -1.3498 -0.1265 -0.9726
  165SOPE  H14S18561   3.695   1.676   8.995  0.1230  0.0244 -1.5136
  165SOPE  C21518562   3.857   1.675   8.859  0.5871 -0.9560 -0.3444
  165SOPE  H15R18563   3.899   1.579   8.894 -1.1046 -1.1579  1.3033
  165SOPE  H15S18564   3.935   1.750   8.834 -0.8512  0.7888  0.1806
  165SOPE  C21618565   3.757   1.670   8.746  0.1292 -0.2648  0.2743
  165SOPE  H16R18566   3.651   1.681   8.775  0.4609  3.4620  0.5223
  165SOPE  H16S18567   3.779   1.573   8.695  0.8691 -0.0968  0.2682
  165SOPE  C21718568   3.775   1.780   8.643 -0.2256 -0.8614 -0.4434
  165SOPE  H17R18569   3.884   1.785   8.628 -0.2094 -1.3077 -0.5048
  165SOPE  H17S18570   3.739   1.865   8.704 -0.0151 -1.5147  0.6123
  165SOPE  C21818571   3.693   1.763   8.514  0.1863 -0.0038  0.2880
  165SOPE  H18R18572   3.762   1.714   8.441  1.0867  0.8086  0.5634
  165SOPE  H18S18573   3.665   1.866   8.482  0.5803 -0.2782 -1.0342
  165SOPE  H18T18574   3.595   1.712   8.523 -0.4568  1.4955  2.7020
  165SOPE   C3318575   3.697   2.186  10.143  0.1690  0.1661  0.0750
  165SOPE   H3X18576   3.639   2.091  10.140 -0.7778  0.6552  1.5582
  165SOPE   H3Y18577   3.804   2.157  10.135 -0.2386 -1.3848 -0.1775
  165SOPE   C3418578   3.657   2.293  10.046  1.4780 -0.8185 -0.4896
  165SOPE   H4X18579   3.716   2.387  10.049 -0.5407  0.5302 -1.1144
  165SOPE   H4Y18580   3.556   2.322  10.082  2.1332  0.8081  0.1518
  165SOPE   C3518581   3.662   2.223   9.914 -0.7146 -0.0336 -0.4822
  165SOPE   H5X18582   3.589   2.140   9.908  0.1545 -0.9711  1.2572
  165SOPE   H5Y18583   3.766   2.183   9.913  0.6748  3.1666  0.3046
  165SOPE   C3618584   3.637   2.309   9.794 -0.6043  0.0076 -0.0973
  165SOPE   H6X18585   3.725   2.375   9.782  0.1997 -1.3956 -3.0494
  165SOPE   H6Y18586   3.548   2.374   9.805  1.8182  3.4497  0.5527
  165SOPE   C3718587   3.614   2.220   9.675  0.8557  0.3990  0.2393
  165SOPE   H7X18588   3.531   2.148   9.690  0.8984 -0.1269 -1.8455
  165SOPE   H7Y18589   3.693   2.142   9.670 -1.4445 -2.0878  0.7981
  165SOPE   C3818590   3.613   2.285   9.541  0.2537 -0.3957 -0.1163
  165SOPE   H8X18591   3.716   2.324   9.527 -0.4013  0.3954 -3.7103
  165SOPE   H8Y18592   3.536   2.364   9.525  0.8920  0.2753  0.0191
  165SOPE   C3918593   3.594   2.184   9.418 -1.0602 -0.7205  0.3591
  165SOPE   H9X18594   3.493   2.139   9.435  0.0150 -3.3185  0.4155
  165SOPE   H9Y18595   3.672   2.105   9.409 -1.5569 -1.8109  3.9196
  165SOPE  C31018596   3.592   2.262   9.281 -0.1224 -0.6163 -0.4206
  165SOPE  H10X18597   3.664   2.346   9.291 -2.6370  1.5072  0.8721
  165SOPE  H10Y18598   3.488   2.300   9.270 -0.2096 -0.5309  0.5926
  165SOPE  C31118599   3.626   2.167   9.169  0.4231 -0.2399 -0.0293
  165SOPE  H11X18600   3.531   2.126   9.129  1.6517 -2.4014 -0.9224
  165SOPE  H11Y18601   3.698   2.085   9.191  1.2114  0.6164  0.6549
  165SOPE  C31218602   3.673   2.244   9.041 -0.5007 -0.3570  0.2867
  165SOPE  H12X18603   3.779   2.278   9.049 -0.8603  1.7797 -2.4776
  165SOPE  H12Y18604   3.607   2.333   9.036 -2.0634 -1.5413 -1.0677
  165SOPE  C31318605   3.643   2.164   8.911 -0.1340 -0.5649  0.0239
  165SOPE  H13X18606   3.532   2.165   8.899 -0.6991  1.8593  3.7341
  165SOPE  H13Y18607   3.688   2.063   8.918  2.2144  0.2968 -1.4843
  165SOPE  C31418608   3.698   2.240   8.789  0.7127  0.0506 -0.2381
  165SOPE  H14X18609   3.805   2.262   8.809  1.1793 -2.7996  0.8433
  165SOPE  H14Y18610   3.638   2.333   8.794  1.2095  0.3126  1.7665
  165SOPE  C31518611   3.675   2.169   8.661  0.2175  0.4264  0.0529
  165SOPE  H15X18612   3.569   2.172   8.628  0.2975  0.1228 -0.2463
  165SOPE  H15Y18613   3.712   2.064   8.670  2.2194  1.1118  0.1030
  165SOPE  C31618614   3.745   2.245   8.548  0.8428  0.0827 -0.0309
  165SOPE  H16X18615   3.756   2.182   8.457 -0.0677 -1.6954  1.0228
  165SOPE  H16Y18616   3.850   2.254   8.584  1.3256 -0.7618 -1.1663
  165SOPE  C31718617   3.667   2.374   8.504  0.0671  0.4624  0.6004
  165SOPE  H17X18618   3.672   2.455   8.580  0.6867  1.9315 -0.9263
  165SOPE  H17Y18619   3.558   2.361   8.486  0.2336 -3.8048  1.5447
  165SOPE  C31818620   3.736   2.433   8.384 -0.2396 -0.2961 -0.1294
  165SOPE  H18X18621   3.844   2.454   8.400 -0.5625 -0.0103  2.0981
  165SOPE  H18Y18622   3.691   2.534   8.371 -0.3598 -0.0780  1.6835
  165SOPE  H18Z18623   3.721   2.377   8.290  1.8029  1.4173 -1.5451
  166SOPE     N18624   6.042   2.130  10.795 -0.3650 -0.6263  0.5948
  166SOPE   HN118625   5.939   2.113  10.803 -1.0663  2.9438  0.9368
  166SOPE   HN218626   6.076   2.063  10.723  1.0430 -0.6777  1.2896
  166SOPE   HN318627   6.088   2.092  10.880 -1.8275 -0.8368  1.3280
  166SOPE   C1218628   6.078   2.273  10.759  0.1451  0.3059  0.3585
  166SOPE  H12A18629   6.078   2.340  10.848  0.7058  0.5229  0.1998
  166SOPE  H12B18630   6.010   2.315  10.681  1.5026 -0.4034 -1.2581
  166SOPE   C1118631   6.222   2.278  10.692  0.3488  0.4455 -0.1205
  166SOPE  H11A18632   6.242   2.380  10.654  0.5864  1.1741  1.8692
  166SOPE  H11B18633   6.205   2.205  10.609 -1.4651  1.5469 -0.7717
  166SOPE     P18634   6.409   2.327  10.870  0.0747 -0.0172 -0.1489
  166SOPE   O1318635   6.548   2.270  10.881  0.6859  0.5201 -0.5074
  166SOPE   O1418636   6.341   2.357  10.999  0.6040 -0.5188  0.4727
  166SOPE   O1218637   6.319   2.233  10.781  0.2977  0.2117 -0.1310
  166SOPE   O1118638   6.413   2.455  10.781  0.7002  0.3817 -0.0065
  166SOPE    C118639   6.520   2.552  10.809  0.5642 -0.2608  0.9101
  166SOPE    HA18640   6.621   2.508  10.823  0.9197  0.0124 -0.6919
  166SOPE    HB18641   6.488   2.592  10.908 -1.6642 -1.8209  0.9019
  166SOPE    C218642   6.521   2.665  10.703  0.3274  0.5666 -0.1795
  166SOPE    HS18643   6.421   2.713  10.708  0.9817  1.8756  1.9514
  166SOPE   O2118644   6.574   2.609  10.580 -0.5264  0.0668 -0.2776
  166SOPE   C2118645   6.545   2.674  10.476 -0.1793 -0.6215 -0.0021
  166SOPE   O2218646   6.478   2.772  10.470  0.2027 -0.4392 -0.3905
  166SOPE   C2218647   6.591   2.599  10.353  0.0247  0.6004 -0.1488
  166SOPE   H2R18648   6.499   2.548  10.318 -1.4481  2.1889  1.2576
  166SOPE   H2S18649   6.655   2.515  10.389 -0.7730 -0.0473 -0.2147
  166SOPE    C318650   6.621   2.770  10.753 -0.7540 -0.3542 -0.4118
  166SOPE    HX18651   6.720   2.721  10.753 -0.5529 -0.0241  1.3231
  166SOPE    HY18652   6.608   2.791  10.862  2.4518  1.0198 -0.1756
  166SOPE   O3118653   6.619   2.886  10.667 -0.0638  0.1279 -0.4008
  166SOPE   C3118654   6.521   2.977  10.698  0.0538  0.1354 -1.0264
  166SOPE   O3218655   6.439   2.956  10.786 -0.0804 -0.7148 -0.7226
  166SOPE   C3218656   6.541   3.109  10.630 -0.2816 -0.4278  0.3463
  166SOPE   H2X18657   6.617   3.111  10.549  1.3922  1.5249  1.8591
  166SOPE   H2Y18658   6.570   3.166  10.720 -3.4520 -0.8978  1.7923
  166SOPE   C2318659   6.668   2.697  10.257 -0.6247 -0.3197  0.1711
  166SOPE   H3R18660   6.765   2.740  10.287  0.2824 -1.6929 -0.6823
  166SOPE   H3S18661   6.598   2.783  10.244 -0.4642 -0.1408  0.4974
  166SOPE   C2418662   6.687   2.626  10.117 -1.0373  0.3229  0.4852
  166SOPE   H4R18663   6.755   2.542  10.145  1.1557  1.4751 -1.1028
  166SOPE   H4S18664   6.595   2.574  10.084 -0.9742  0.0302  0.7588
  166SOPE   C2518665   6.743   2.725  10.019 -0.0443  0.3825  0.2030
  166SOPE   H5R18666   6.828   2.785  10.058 -0.3182 -0.1736  1.7139
  166SOPE   H5S18667   6.784   2.661   9.938  3.0029  0.7738  1.3452
  166SOPE   C2618668   6.638   2.809   9.952  0.4657  0.3970  0.2492
  166SOPE   H6R18669   6.565   2.729   9.930  0.3074  0.0203  1.9518
  166SOPE   H6S18670   6.606   2.886  10.026 -0.7804  0.6567 -0.5314
  166SOPE   C2718671   6.690   2.894   9.829 -0.0594  0.9301  0.3495
  166SOPE   H7R18672   6.688   2.999   9.863  2.1985  1.0155  0.3397
  166SOPE   H7S18673   6.800   2.881   9.821  0.0270  2.0326 -0.3770
  166SOPE   C2818674   6.620   2.882   9.692 -0.1827  0.2715 -0.3033
  166SOPE   H8R18675   6.513   2.869   9.719 -0.2211  0.6630 -0.2613
  166SOPE   H8S18676   6.629   2.977   9.634  1.7610  0.4047  0.1358
  166SOPE   C2918677   6.684   2.771   9.615 -0.8730 -0.0071 -0.0390
  166SOPE   H9118678   6.696   2.675   9.669 -0.6099 -0.5774 -1.0877
  166SOPE  C21018679   6.733   2.779   9.492 -0.0223  0.5456  0.0038
  166SOPE  H10118680   6.768   2.686   9.446 -0.2117 -0.3304  1.5538
  166SOPE  C21118681   6.737   2.897   9.395 -0.0994  0.0628  0.2058
  166SOPE  H11R18682   6.830   2.956   9.409 -0.0223  0.7579 -2.7036
  166SOPE  H11S18683   6.651   2.964   9.419  0.2228  0.3018  0.7114
  166SOPE  C21218684   6.727   2.863   9.253 -0.1097  0.1005  0.4026
  166SOPE  H12R18685   6.776   2.766   9.230 -1.0134  0.2215 -2.3762
  166SOPE  H12S18686   6.775   2.953   9.207 -0.6846  1.3239  2.0726
  166SOPE  C21318687   6.586   2.868   9.198  0.3427 -0.3236 -0.7491
  166SOPE  H13R18688   6.587   2.862   9.087  0.4839 -3.0025 -0.6633
  166SOPE  H13S18689   6.532   2.959   9.232  0.6750 -0.9008  1.4491
  166SOPE  C21418690   6.499   2.753   9.243 -1.0022  0.0564  0.3727
  166SOPE  H14R18691   6.472   2.741   9.350 -1.1628 -3.3057  0.0621
  166SOPE  H14S18692   6.553   2.658   9.222 -1.6467 -1.0374  3.2642
  166SOPE  C21518693   6.375   2.729   9.152 -0.0455  0.3689 -0.1295
  166SOPE  H15R18694   6.311   2.820   9.155 -1.4577 -0.6027 -0.1197
  166SOPE  H15S18695   6.311   2.652   9.199  2.2299 -2.5693 -1.5436
  166SOPE  C21618696   6.404   2.696   9.005 -0.6025  0.2637 -0.4498
  166SOPE  H16R18697   6.497   2.641   8.979  0.2225  2.0348 -1.4217
  166SOPE  H16S18698   6.423   2.794   8.955 -0.6698  1.3641  1.5590
  166SOPE  C21718699   6.290   2.619   8.943 -0.0249 -0.1200 -0.1650
  166SOPE  H17R18700   6.191   2.665   8.964  1.0368  2.0185  0.4290
  166SOPE  H17S18701   6.290   2.517   8.987 -1.4035 -0.0219  0.1239
  166SOPE  C21818702   6.299   2.616   8.790  0.4280 -0.0021  0.1599
  166SOPE  H18R18703   6.297   2.713   8.736 -1.9118 -0.6179 -0.9885
  166SOPE  H18S18704   6.213   2.556   8.751  0.2355  1.2437 -1.4326
  166SOPE  H18T18705   6.392   2.562   8.762  0.0310 -1.5412  1.6667
  166SOPE   C3318706   6.408   3.172  10.576 -0.3528 -0.1381 -0.3589
  166SOPE   H3X18707   6.444   3.275  10.552  1.2418 -0.3797  0.8441
  166SOPE   H3Y18708   6.333   3.172  10.658 -0.9398  0.4438 -0.8815
  166SOPE   C3418709   6.357   3.105  10.445  0.1935  0.2654  0.2643
  166SOPE   H4X18710   6.254   3.144  10.428 -0.0466  2.1130  4.7413
  166SOPE   H4Y18711   6.338   2.997  10.466  0.0552  0.1909 -0.2243
  166SOPE   C3518712   6.445   3.119  10.318 -0.4434 -0.3023 -0.7811
  166SOPE   H5X18713   6.524   3.043  10.303 -0.2470 -0.2703  0.0458
  166SOPE   H5Y18714   6.494   3.216  10.345 -0.8656 -0.3590  0.2002
  166SOPE   C3618715   6.363   3.139  10.191 -0.1933  0.5522 -0.4029
  166SOPE   H6X18716   6.292   3.224  10.202 -1.3067 -0.3961 -0.1347
  166SOPE   H6Y18717   6.305   3.047  10.167  0.3902 -0.6959  2.5453
  166SOPE   C3718718   6.457   3.175  10.081  0.4278  0.5307 -0.1297
  166SOPE   H7X18719   6.516   3.081  10.072  0.9081  0.4311  2.8620
  166SOPE   H7Y18720   6.529   3.252  10.116  0.2526  0.5513  0.1891
  166SOPE   C3818721   6.399   3.224   9.953  0.0099 -0.0711  0.2343
  166SOPE   H8X18722   6.336   3.314   9.967 -0.2591 -0.3217  0.6365
  166SOPE   H8Y18723   6.332   3.143   9.917 -1.1163 -0.1357  2.3629
  166SOPE   C3918724   6.516   3.278   9.865  0.1220  0.0806 -0.4082
  166SOPE   H9X18725   6.603   3.214   9.891 -0.2614 -0.6559 -0.9132
  166SOPE   H9Y18726   6.538   3.386   9.879 -0.4991  0.1002  0.5064
  166SOPE  C31018727   6.491   3.283   9.712 -0.1701  0.1982 -0.3534
  166SOPE  H10X18728   6.481   3.180   9.671  0.7011 -0.2073  0.4034
  166SOPE  H10Y18729   6.581   3.327   9.665 -0.7290 -0.5642 -2.2183
  166SOPE  C31118730   6.366   3.353   9.671  0.0489  0.1848 -0.5473
  166SOPE  H11X18731   6.369   3.449   9.727 -3.0964  0.6256 -0.9386
  166SOPE  H11Y18732   6.276   3.293   9.698  0.5299 -1.6970 -2.8551
  166SOPE  C31218733   6.339   3.389   9.520  0.4299  0.7911  0.0002
  166SOPE  H12X18734   6.427   3.449   9.491  0.4286  0.4932 -0.6312
  166SOPE  H12Y18735   6.250   3.455   9.525 -1.2826 -1.4402  2.8830
  166SOPE  C31318736   6.312   3.259   9.438 -0.3566 -0.1948  0.0137
  166SOPE  H13X18737   6.229   3.206   9.490 -0.5043  0.9168  0.9703
  166SOPE  H13Y18738   6.398   3.190   9.456 -1.1205 -1.2081 -0.1158
  166SOPE  C31418739   6.277   3.275   9.285 -0.2301  0.0670 -0.6722
  166SOPE  H14X18740   6.359   3.338   9.245  2.4682 -2.6744  0.1565
  166SOPE  H14Y18741   6.183   3.327   9.257 -0.2595  0.8468  0.7688
  166SOPE  C31518742   6.299   3.144   9.210  0.3886  0.1288 -0.1027
  166SOPE  H15X18743   6.204   3.089   9.224 -0.3660  0.3862 -3.4405
  166SOPE  H15Y18744   6.388   3.096   9.255 -0.0849 -1.1240 -0.4814
  166SOPE  C31618745   6.312   3.162   9.054  0.3156  0.3633 -0.5371
  166SOPE  H16X18746   6.233   3.230   9.015  0.1555 -0.3890 -1.5692
  166SOPE  H16Y18747   6.290   3.064   9.006 -1.2123  0.7335 -0.6594
  166SOPE  C31718748   6.449   3.204   9.002 -0.6715 -1.2365 -0.1888
  166SOPE  H17X18749   6.531   3.134   9.028  1.6537  0.8631 -1.4428
  166SOPE  H17Y18750   6.475   3.305   9.038  0.1950 -1.6109  0.2649
  166SOPE  C31818751   6.457   3.227   8.848  0.1336  0.3892  0.2230
  166SOPE  H18X18752   6.371   3.292   8.823  1.3063  1.7488 -0.4666
  166SOPE  H18Y18753   6.438   3.131   8.794 -0.8873  1.1007 -0.7126
  166SOPE  H18Z18754   6.558   3.269   8.826  0.8504 -0.8729  0.9548
  167SOPE     N18755   6.447   6.231   6.699  0.0663 -0.0139  0.4972
  167SOPE   HN118756   6.421   6.312   6.758 -0.1455 -1.0973  1.9766
  167SOPE   HN218757   6.431   6.147   6.760  1.0697 -1.2026 -0.8148
  167SOPE   HN318758   6.550   6.236   6.687  0.2057 -0.7601  1.2301
  167SOPE   C1218759   6.392   6.226   6.561  0.6074  0.2002  0.5021
  167SOPE  H12A18760   6.289   6.266   6.564  0.3016 -0.1548 -2.3441
  167SOPE  H12B18761   6.395   6.119   6.528  1.2796  0.5450 -0.6194
  167SOPE   C1118762   6.488   6.304   6.465  0.0457 -0.2242 -0.3428
  167SOPE  H11A18763   6.496   6.409   6.501  0.8328  0.5556 -2.5822
  167SOPE  H11B18764   6.446   6.305   6.362  0.4726  0.5158 -0.5127
  167SOPE     P18765   6.731   6.319   6.367 -0.0790  0.2495 -0.2726
  167SOPE   O1318766   6.677   6.400   6.255  0.3210  0.1082  0.1837
  167SOPE   O1418767   6.827   6.207   6.340  0.3816  0.3486 -0.3336
  167SOPE   O1218768   6.615   6.243   6.453  0.0077 -0.0182 -0.0360
  167SOPE   O1118769   6.787   6.405   6.486 -0.0109  0.2591  0.2713
  167SOPE    C118770   6.884   6.513   6.470 -0.4073  0.0842 -0.0587
  167SOPE    HA18771   6.854   6.586   6.391 -1.8511  0.8223  1.1157
  167SOPE    HB18772   6.975   6.461   6.434 -2.5736 -3.8389 -0.4876
  167SOPE    C218773   6.915   6.596   6.597 -0.2353 -0.1035 -0.0113
  167SOPE    HS18774   6.996   6.668   6.572 -0.9859  1.2214  1.2181
  167SOPE   O2118775   6.973   6.510   6.694  0.2680 -0.2741 -0.6627
  167SOPE   C2118776   7.091   6.456   6.678  0.1193 -0.0577 -0.4922
  167SOPE   O2218777   7.182   6.487   6.599  0.2452  1.1209  0.0161
  167SOPE   C2218778   7.105   6.347   6.785  0.3295  0.1336 -1.0313
  167SOPE   H2R18779   7.210   6.312   6.785  0.6264  0.9834 -1.7988
  167SOPE   H2S18780   7.050   6.258   6.748  0.6500 -1.0718  1.2098
  167SOPE    C318781   6.788   6.649   6.649 -1.1724 -0.9665  0.0630
  167SOPE    HX18782   6.704   6.576   6.648  0.4968 -2.9903  0.4149
  167SOPE    HY18783   6.751   6.731   6.584  0.3077  0.2467  0.7195
  167SOPE   O3118784   6.807   6.725   6.769  0.0415  0.7724  0.2328
  167SOPE   C3118785   6.770   6.663   6.887 -1.1567  0.1704 -0.3134
  167SOPE   O3218786   6.722   6.552   6.894 -0.4851 -0.0971 -0.4903
  167SOPE   C3218787   6.789   6.762   6.997 -0.2648  1.1915  0.0070
  167SOPE   H2X18788   6.710   6.836   6.975  0.6211  1.6626 -1.7305
  167SOPE   H2Y18789   6.882   6.820   6.982 -1.7623  4.1165  1.2625
  167SOPE   C2318790   7.056   6.372   6.936 -0.1566  0.4632 -0.1676
  167SOPE   H3R18791   7.063   6.280   6.997 -1.2936  1.0166  0.8351
  167SOPE   H3S18792   6.947   6.388   6.932 -0.1457  0.3929 -0.9038
  167SOPE   C2418793   7.114   6.495   7.013 -0.5409  0.6151  0.4310
  167SOPE   H4R18794   7.220   6.503   6.981 -0.6786 -3.3368 -1.5931
  167SOPE   H4S18795   7.054   6.581   6.977  1.3760  1.4173 -1.0434
  167SOPE   C2518796   7.083   6.480   7.158  0.1708  0.3189  0.3544
  167SOPE   H5R18797   6.973   6.465   7.165  0.1692  0.7980  1.3875
  167SOPE   H5S18798   7.121   6.382   7.194 -0.2838 -0.6287 -1.5587
  167SOPE   C2618799   7.131   6.595   7.236 -0.7880 -0.6788  0.2478
  167SOPE   H6R18800   7.241   6.588   7.252 -0.4598  1.6797 -0.5475
  167SOPE   H6S18801   7.120   6.680   7.165 -1.4067  0.4423  1.6270
  167SOPE   C2718802   7.054   6.599   7.365  0.5467 -0.3463 -0.2421
  167SOPE   H7R18803   7.082   6.685   7.429 -1.8829 -0.2603  0.8165
  167SOPE   H7S18804   6.946   6.614   7.346  0.4161  0.2241  0.8677
  167SOPE   C2818805   7.070   6.469   7.444  0.2590 -0.5131 -0.3478
  167SOPE   H8R18806   6.993   6.481   7.523  0.2455  0.2909 -0.4762
  167SOPE   H8S18807   7.060   6.369   7.399 -0.8907 -0.7221  0.3347
  167SOPE   C2918808   7.203   6.468   7.517 -0.5522  0.0738  0.0361
  167SOPE   H9118809   7.281   6.535   7.479  1.2592 -1.3333  1.1210
  167SOPE  C21018810   7.244   6.402   7.625 -0.4954 -0.1623 -0.7372
  167SOPE  H10118811   7.349   6.413   7.653 -1.0974  1.7853  1.0477
  167SOPE  C21118812   7.155   6.311   7.705  0.7579  0.6005 -0.6019
  167SOPE  H11R18813   7.050   6.325   7.674 -0.5324 -1.6712  2.2525
  167SOPE  H11S18814   7.149   6.349   7.809 -0.9333  2.0495 -1.1747
  167SOPE  C21218815   7.192   6.158   7.701  0.1724 -0.4208  0.8421
  167SOPE  H12R18816   7.303   6.153   7.699  0.3669  2.6033  0.2813
  167SOPE  H12S18817   7.150   6.120   7.605 -1.2476  2.2498  0.3011
  167SOPE  C21318818   7.137   6.072   7.817 -0.2259 -0.6804 -0.1322
  167SOPE  H13R18819   7.120   5.964   7.796  0.8064 -0.3857 -2.7859
  167SOPE  H13S18820   7.034   6.111   7.831 -0.8990 -1.3553 -2.7374
  167SOPE  C21418821   7.223   6.088   7.942  0.1427 -0.4628 -0.3412
  167SOPE  H14R18822   7.193   6.187   7.983  0.2062  0.4825 -2.4399
  167SOPE  H14S18823   7.330   6.103   7.916 -0.6105  1.6901 -2.6002
  167SOPE  C21518824   7.206   5.987   8.064  0.7514 -0.1254  0.6819
  167SOPE  H15R18825   7.251   5.892   8.030 -0.7210 -0.8431  0.6333
  167SOPE  H15S18826   7.097   5.965   8.063  0.7443 -0.1748 -0.7554
  167SOPE  C21618827   7.250   6.032   8.198  0.2599  0.0254 -0.4190
  167SOPE  H16R18828   7.185   6.112   8.239 -1.3127 -1.4378  0.0431
  167SOPE  H16S18829   7.356   6.065   8.201  0.0050  0.8527 -0.1546
  167SOPE  C21718830   7.231   5.913   8.304  0.3297 -0.7050 -0.0964
  167SOPE  H17R18831   7.262   5.816   8.260  1.4015  0.1278 -1.2423
  167SOPE  H17S18832   7.121   5.905   8.316  0.4620 -3.9380 -0.2249
  167SOPE  C21818833   7.306   5.938   8.432  0.3018 -0.4137 -0.0853
  167SOPE  H18R18834   7.318   5.846   8.493  0.5888 -0.1891  0.1954
  167SOPE  H18S18835   7.262   6.016   8.498  2.1079  0.4045  0.2170
  167SOPE  H18T18836   7.407   5.973   8.403 -0.1033  0.7660 -0.1284
  167SOPE   C3318837   6.771   6.712   7.138 -0.0875  0.0950 -0.3965
  167SOPE   H3X18838   6.854   6.647   7.174  0.4585  2.3570  2.8320
  167SOPE   H3Y18839   6.676   6.654   7.142  0.2392 -0.3624  1.2374
  167SOPE   C3418840   6.753   6.815   7.247 -0.4150 -0.3976 -0.9275
  167SOPE   H4X18841   6.730   6.762   7.342  0.7757  0.3929 -0.1585
  167SOPE   H4Y18842   6.660   6.870   7.221 -0.3599  0.8669  1.2492
  167SOPE   C3518843   6.866   6.917   7.260  0.6305 -0.0322  0.2550
  167SOPE   H5X18844   6.870   6.967   7.161 -0.8966 -1.5877 -0.6394
  167SOPE   H5Y18845   6.958   6.859   7.281 -0.9370 -2.1405  1.7634
  167SOPE   C3618846   6.850   7.028   7.370  0.3014  0.2861 -0.2657
  167SOPE   H6X18847   6.756   7.084   7.355 -0.2861 -0.8499 -0.9005
  167SOPE   H6Y18848   6.933   7.100   7.352 -0.1756  0.6998 -0.8368
  167SOPE   C3718849   6.859   6.971   7.516  0.8738  0.1515  0.7977
  167SOPE   H7X18850   6.932   6.891   7.539  0.8667 -0.0534  0.1491
  167SOPE   H7Y18851   6.763   6.921   7.543 -0.4676  1.8844 -0.4877
  167SOPE   C3818852   6.880   7.078   7.614 -0.6847 -0.2855 -0.6508
  167SOPE   H8X18853   6.831   7.175   7.589  0.2266  0.2365 -0.4557
  167SOPE   H8Y18854   6.988   7.093   7.591 -0.7831  0.6251 -0.5438
  167SOPE   C3918855   6.863   7.037   7.764  0.3660  0.0897 -0.0966
  167SOPE   H9X18856   6.899   6.932   7.767 -1.1023 -0.6682 -3.6828
  167SOPE   H9Y18857   6.758   7.052   7.798  0.3662  0.8501 -0.4191
  167SOPE  C31018858   6.950   7.121   7.851 -0.0465  0.0237 -1.0004
  167SOPE  H10X18859   6.942   7.228   7.824  2.1729  0.3211 -0.6595
  167SOPE  H10Y18860   7.056   7.114   7.820  0.2663  0.6898 -0.1170
  167SOPE  C31118861   6.921   7.102   7.999 -0.1939  0.2727 -0.1141
  167SOPE  H11X18862   6.814   7.123   8.023 -0.8469 -2.2959 -0.3838
  167SOPE  H11Y18863   6.985   7.165   8.064 -0.1211  0.4008 -0.3094
  167SOPE  C31218864   6.951   6.959   8.054 -0.0647  0.0136  0.0385
  167SOPE  H12X18865   7.060   6.947   8.040 -0.1911  0.8577 -1.9669
  167SOPE  H12Y18866   6.890   6.894   7.989 -2.4498  1.2310  0.9162
  167SOPE  C31318867   6.915   6.933   8.199 -0.9694 -0.7306 -0.5406
  167SOPE  H13X18868   6.960   7.021   8.249  0.4136 -2.0649  0.6838
  167SOPE  H13Y18869   6.966   6.844   8.243 -1.0412 -1.0879 -1.1556
  167SOPE  C31418870   6.766   6.924   8.236  0.1947 -0.1713 -0.6793
  167SOPE  H14X18871   6.711   6.844   8.182  0.0242 -0.9461  0.6174
  167SOPE  H14Y18872   6.707   7.011   8.200  0.1616 -0.2613 -0.8428
  167SOPE  C31518873   6.736   6.916   8.382 -0.3471 -0.0297 -0.7722
  167SOPE  H15X18874   6.782   7.004   8.433 -0.6398 -0.5491  0.4416
  167SOPE  H15Y18875   6.786   6.826   8.423 -0.3214  0.2312 -0.2162
  167SOPE  C31618876   6.590   6.929   8.422 -0.1121 -1.2238 -0.0317
  167SOPE  H16X18877   6.532   6.848   8.374 -0.1742 -2.1186  1.4954
  167SOPE  H16Y18878   6.555   7.030   8.391  2.9257 -0.0183  0.1331
  167SOPE  C31718879   6.569   6.927   8.571 -0.9434  0.1231 -0.6155
  167SOPE  H17X18880   6.474   6.977   8.601  0.3833  1.1339  2.3701
  167SOPE  H17Y18881   6.651   6.984   8.620 -0.2441 -0.7035 -0.7884
  167SOPE  C31818882   6.567   6.788   8.633 -0.0380  0.5097  0.4589
  167SOPE  H18X18883   6.493   6.789   8.715  1.3294  0.2334  1.7282
  167SOPE  H18Y18884   6.665   6.749   8.668 -0.5069 -0.4629  0.7243
  167SOPE  H18Z18885   6.529   6.705   8.569 -1.4946 -0.0820  2.0349
  168SOPE     N18886   6.476   4.446   6.307 -0.2556  0.0067  0.2627
  168SOPE   HN118887   6.398   4.385   6.275  0.2388 -0.8085  0.5869
  168SOPE   HN218888   6.454   4.530   6.365  1.6243 -0.2160  1.3719
  168SOPE   HN318889   6.530   4.472   6.223 -1.2030 -1.6073 -0.8967
  168SOPE   C1218890   6.560   4.364   6.404  0.5402 -0.5080 -0.5549
  168SOPE  H12A18891   6.638   4.426   6.454 -1.0179  0.1626  1.1968
  168SOPE  H12B18892   6.614   4.285   6.349  1.5263 -0.0187 -0.3156
  168SOPE   C1118893   6.463   4.297   6.499  0.3551  0.0491 -0.6284
  168SOPE  H11A18894   6.404   4.374   6.554 -1.6032 -0.9696 -1.1961
  168SOPE  H11B18895   6.523   4.237   6.570  3.4586  1.6396 -1.7219
  168SOPE     P18896   6.399   4.063   6.401  0.0132 -0.0813 -0.0762
  168SOPE   O1318897   6.534   4.061   6.346 -0.5706  0.1055  0.1533
  168SOPE   O1418898   6.294   4.010   6.310  0.2316  0.6667 -0.2240
  168SOPE   O1218899   6.366   4.213   6.433 -0.9127 -0.0735 -0.1229
  168SOPE   O1118900   6.400   3.982   6.531 -0.9211  0.3713 -0.3392
  168SOPE    C118901   6.516   3.946   6.612 -0.1478 -0.5427  0.1019
  168SOPE    HA18902   6.606   3.999   6.575  0.0296 -1.8968 -1.5624
  168SOPE    HB18903   6.536   3.837   6.604  1.4774 -0.1517 -2.0212
  168SOPE    C218904   6.483   3.986   6.759  0.2359  0.0014 -0.6357
  168SOPE    HS18905   6.393   3.928   6.790  1.2532  0.1507  3.0968
  168SOPE   O2118906   6.451   4.133   6.765  1.0419  0.5111 -0.0128
  168SOPE   C2118907   6.319   4.168   6.783  0.0989 -0.0349 -0.5177
  168SOPE   O2218908   6.230   4.087   6.769  0.6643 -0.3019 -0.1121
  168SOPE   C2218909   6.296   4.319   6.816 -0.0967  0.2167  0.5095
  168SOPE   H2R18910   6.262   4.355   6.716  0.9642  0.7108  0.3147
  168SOPE   H2S18911   6.396   4.362   6.837  0.6646 -0.4562 -1.5314
  168SOPE    C318912   6.604   3.955   6.848 -0.2771  0.2170 -0.0698
  168SOPE    HX18913   6.689   4.022   6.823 -1.7593  2.6337  0.9992
  168SOPE    HY18914   6.642   3.850   6.847 -0.3169  0.1472  1.7690
  168SOPE   O3118915   6.578   3.971   6.989  0.5857 -0.2946  0.3830
  168SOPE   C3118916   6.492   3.894   7.052  0.3997 -0.5513  0.3902
  168SOPE   O3218917   6.410   3.816   7.004 -0.0557 -0.1118 -0.2408
  168SOPE   C3218918   6.490   3.920   7.199 -0.0099 -0.0143 -0.0300
  168SOPE   H2X18919   6.463   4.028   7.209  2.0311  0.5282 -0.0099
  168SOPE   H2Y18920   6.596   3.910   7.230 -0.4759 -2.1244  1.1027
  168SOPE   C2318921   6.187   4.350   6.919 -0.2470  0.4665 -0.2389
  168SOPE   H3R18922   6.223   4.328   7.022  2.4316 -1.6644 -1.4858
  168SOPE   H3S18923   6.096   4.289   6.899  0.3371  0.6595 -4.3493
  168SOPE   C2418924   6.147   4.495   6.910  0.3309 -0.0109 -0.1367
  168SOPE   H4R18925   6.241   4.554   6.910  1.1381 -1.2614 -0.6741
  168SOPE   H4S18926   6.108   4.505   6.806 -1.8289  0.3307  0.6658
  168SOPE   C2518927   6.046   4.543   7.021  0.1827 -0.7075 -0.5183
  168SOPE   H5R18928   5.994   4.629   6.975  0.8183 -0.9178 -1.6684
  168SOPE   H5S18929   5.969   4.464   7.031  1.4853 -1.8036  2.1350
  168SOPE   C2618930   6.124   4.562   7.160 -0.5016  0.3042 -0.2160
  168SOPE   H6R18931   6.158   4.463   7.197  0.0225  0.4166 -0.3909
  168SOPE   H6S18932   6.209   4.633   7.155  0.0995 -0.1744  1.8870
  168SOPE   C2718933   6.033   4.609   7.276 -0.7630 -0.4808  0.1863
  168SOPE   H7R18934   5.972   4.690   7.230 -2.3376  0.4928  3.6566
  168SOPE   H7S18935   5.958   4.534   7.307 -2.0466  0.1018 -1.3811
  168SOPE   C2818936   6.114   4.662   7.392 -0.9916  0.9854  0.0338
  168SOPE   H8R18937   6.192   4.601   7.443 -0.5798 -0.3021 -2.0247
  168SOPE   H8S18938   6.175   4.749   7.357  1.3988 -0.3811  0.5553
  168SOPE   C2918939   6.016   4.698   7.499  0.3169  0.2033 -0.1081
  168SOPE   H9118940   5.951   4.783   7.473  0.9889  0.4693 -0.9385
  168SOPE  C21018941   6.002   4.644   7.619 -0.0501 -0.2369  0.6031
  168SOPE  H10118942   5.919   4.696   7.669  0.5040  0.8204  0.4577
  168SOPE  C21118943   6.083   4.542   7.697 -0.2639  0.4998  1.0903
  168SOPE  H11R18944   6.138   4.480   7.623  0.9771  2.8845 -0.1031
  168SOPE  H11S18945   6.020   4.474   7.759  2.2586 -1.1717  1.9626
  168SOPE  C21218946   6.168   4.617   7.801 -0.1005 -0.0702  0.1152
  168SOPE  H12R18947   6.255   4.655   7.742 -1.1320  0.4430 -1.1039
  168SOPE  H12S18948   6.207   4.536   7.866 -1.3254 -1.3174 -0.6628
  168SOPE  C21318949   6.096   4.730   7.885  0.0097  0.9517 -0.2867
  168SOPE  H13R18950   6.042   4.806   7.825  2.1248  2.1899 -0.7425
  168SOPE  H13S18951   6.173   4.794   7.934 -0.0663  1.0855 -0.3404
  168SOPE  C21418952   6.012   4.669   7.995 -0.2515  0.4586 -0.3970
  168SOPE  H14R18953   5.969   4.578   7.946 -0.0406  1.2337 -2.1059
  168SOPE  H14S18954   5.926   4.738   8.012 -1.6075 -1.1944 -0.2571
  168SOPE  C21518955   6.084   4.658   8.135 -0.1692 -0.3622  0.8943
  168SOPE  H15R18956   6.113   4.763   8.160 -1.0844 -0.4441  2.4863
  168SOPE  H15S18957   6.174   4.596   8.122 -2.1012 -3.0306 -0.6011
  168SOPE  C21618958   6.003   4.594   8.258  0.9087 -0.4748 -0.6290
  168SOPE  H16R18959   5.929   4.518   8.225 -0.0359  0.4333 -0.6246
  168SOPE  H16S18960   5.943   4.675   8.305  1.8664 -0.2617  0.2575
  168SOPE  C21718961   6.106   4.534   8.365  0.1964  0.5600  0.0392
  168SOPE  H17R18962   6.170   4.619   8.396  2.2067 -1.3385  1.4196
  168SOPE  H17S18963   6.174   4.453   8.332  1.3085  0.8186  1.5647
  168SOPE  C21818964   6.024   4.474   8.477 -0.5393 -0.2622 -0.6024
  168SOPE  H18R18965   5.970   4.382   8.446  1.1972 -1.2218 -0.9059
  168SOPE  H18S18966   5.956   4.551   8.520  1.6774  0.2779  2.2551
  168SOPE  H18T18967   6.090   4.447   8.562 -0.0395  1.0343 -0.5521
  168SOPE   C3318968   6.404   3.826   7.275 -0.1806 -0.9199  0.3585
  168SOPE   H3X18969   6.447   3.726   7.254  0.0231 -1.0131  1.1912
  168SOPE   H3Y18970   6.298   3.831   7.242 -0.0416  2.2090  0.0980
  168SOPE   C3418971   6.425   3.851   7.425 -0.1715  0.0947  0.5192
  168SOPE   H4X18972   6.390   3.956   7.440 -0.4465 -0.1773  1.9444
  168SOPE   H4Y18973   6.529   3.841   7.461 -0.8066 -1.3318  2.1272
  168SOPE   C3518974   6.351   3.757   7.518  0.3131 -0.2752 -0.2091
  168SOPE   H5X18975   6.376   3.652   7.491  0.2996 -0.0340 -1.1813
  168SOPE   H5Y18976   6.244   3.777   7.496  0.3640 -2.2421 -2.7602
  168SOPE   C3618977   6.378   3.803   7.660  0.1346  0.0942 -0.4855
  168SOPE   H6X18978   6.333   3.904   7.675 -0.7343 -0.4494  0.7864
  168SOPE   H6Y18979   6.487   3.816   7.678  0.1690  1.8619 -1.6570
  168SOPE   C3718980   6.322   3.699   7.759 -0.2464 -0.9788 -0.6621
  168SOPE   H7X18981   6.366   3.597   7.750  1.2941 -0.6332  1.8123
  168SOPE   H7Y18982   6.212   3.695   7.751 -0.2909 -1.2308  0.0494
  168SOPE   C3818983   6.355   3.760   7.893 -0.4860  0.4961  0.0714
  168SOPE   H8X18984   6.305   3.857   7.911 -0.6659  0.1691  1.4148
  168SOPE   H8Y18985   6.466   3.761   7.904 -0.3845  0.9007 -0.8775
  168SOPE   C3918986   6.285   3.669   7.998 -0.6396  0.7770 -0.7486
  168SOPE   H9X18987   6.285   3.564   7.961 -0.2989  1.3489 -2.5133
  168SOPE   H9Y18988   6.178   3.697   8.004 -1.2857 -1.0674 -2.3478
  168SOPE  C31018989   6.349   3.664   8.141  0.1493 -0.3841  0.8949
  168SOPE  H10X18990   6.365   3.770   8.167  1.6102 -0.7258  1.4855
  168SOPE  H10Y18991   6.446   3.610   8.144  0.1924 -0.6644 -2.2765
  168SOPE  C31118992   6.244   3.609   8.240 -0.0658  0.4800  0.4292
  168SOPE  H11X18993   6.139   3.637   8.217 -0.3577 -0.1818  0.9134
  168SOPE  H11Y18994   6.270   3.634   8.346  0.4044 -2.7905  1.1946
  168SOPE  C31218995   6.263   3.460   8.242 -0.0605  0.1052 -0.0922
  168SOPE  H12X18996   6.365   3.433   8.279  1.4176  2.8781 -1.8325
  168SOPE  H12Y18997   6.255   3.407   8.145 -0.3036 -0.0831  0.0280
  168SOPE  C31318998   6.157   3.390   8.335 -0.0417  0.5443 -0.0140
  168SOPE  H13X18999   6.197   3.287   8.345 -0.5924  0.2626 -0.6609
  168SOPE  H13Y19000   6.059   3.393   8.285  0.0624  1.4338 -0.1817
  168SOPE  C31419001   6.162   3.444   8.485 -0.7614  0.5808  0.3221
  168SOPE  H14X19002   6.109   3.542   8.484  1.0507  1.5933  0.2336
  168SOPE  H14Y19003   6.269   3.463   8.510 -0.0621  1.7004 -3.0235
  168SOPE  C31519004   6.106   3.354   8.597 -0.2745 -0.3131 -0.2405
  168SOPE  H15X19005   6.109   3.410   8.693  2.5513  1.3943 -1.2100
  168SOPE  H15Y19006   6.177   3.269   8.605  0.3561  0.2390  0.1777
  168SOPE  C31619007   5.963   3.287   8.561  0.5277 -0.4006 -0.2930
  168SOPE  H16X19008   5.923   3.219   8.639 -0.9753 -0.2122 -0.8695
  168SOPE  H16Y19009   5.981   3.212   8.480 -2.6194  0.1070 -1.5956
  168SOPE  C31719010   5.860   3.386   8.533  0.2858  0.6297 -0.2919
  168SOPE  H17X19011   5.766   3.330   8.516  0.7680  0.0116 -0.9948
  168SOPE  H17Y19012   5.873   3.431   8.432  0.3770  0.0382 -0.5479
  168SOPE  C31819013   5.838   3.496   8.639 -0.2233 -0.1930 -0.2771
  168SOPE  H18X19014   5.934   3.549   8.659 -0.7872  0.8961 -0.4383
  168SOPE  H18Y19015   5.798   3.456   8.735 -0.2474 -1.4229 -0.7809
  168SOPE  H18Z19016   5.763   3.573   8.612 -2.3412 -2.2710 -0.6380
  169SOPE     N19017   6.560   1.247   6.445  0.3919  0.3008  0.0911
  169SOPE   HN119018   6.580   1.282   6.541 -0.0871 -0.1589  0.3628
  169SOPE   HN219019   6.638   1.186   6.415 -0.8863 -1.6499  0.5293
  169SOPE   HN319020   6.556   1.327   6.379  2.5934 -0.3412 -0.8890
  169SOPE   C1219021   6.426   1.180   6.449 -0.3739 -0.1129 -0.1087
  169SOPE  H12A19022   6.349   1.260   6.455  0.1313  0.3863 -0.2540
  169SOPE  H12B19023   6.427   1.111   6.537 -1.3286  1.1910  0.9693
  169SOPE   C1119024   6.398   1.089   6.322 -0.2644 -0.0991  0.3769
  169SOPE  H11A19025   6.385   1.156   6.234 -0.5290 -0.8040 -0.1279
  169SOPE  H11B19026   6.301   1.036   6.332 -0.1394 -0.1664  1.3116
  169SOPE     P19027   6.505   0.846   6.317  0.0642 -0.2047 -0.1445
  169SOPE   O1319028   6.625   0.777   6.267 -0.5473 -0.0782  0.5635
  169SOPE   O1419029   6.373   0.807   6.266 -0.2153  0.7946  0.3061
  169SOPE   O1219030   6.513   1.003   6.300 -0.4801 -0.3647 -0.3924
  169SOPE   O1119031   6.504   0.836   6.477  0.2870 -0.0921  0.1691
  169SOPE    C119032   6.602   0.895   6.561 -0.6310 -0.8780 -0.1249
  169SOPE    HA19033   6.547   0.941   6.646  0.2929  0.0894 -0.0303
  169SOPE    HB19034   6.649   0.984   6.513 -1.7186 -0.3248 -0.2105
  169SOPE    C219035   6.702   0.792   6.611 -0.0023  0.9440 -0.1727
  169SOPE    HS19036   6.747   0.747   6.520  1.8618  3.2029 -0.4354
  169SOPE   O2119037   6.626   0.691   6.690 -0.5775 -0.0191 -0.0949
  169SOPE   C2119038   6.685   0.575   6.702 -0.9786 -0.7467 -0.0877
  169SOPE   O2219039   6.783   0.541   6.635 -0.5418  0.0710  0.2929
  169SOPE   C2219040   6.608   0.490   6.808 -0.1841  0.0172 -0.4189
  169SOPE   H2R19041   6.536   0.428   6.750 -1.6810  0.7300  0.6097
  169SOPE   H2S19042   6.557   0.560   6.878  0.7470  0.2656  0.0261
  169SOPE    C319043   6.822   0.851   6.689  0.4994  0.2667 -0.7203
  169SOPE    HX19044   6.787   0.882   6.790 -0.6174 -0.4589 -0.8737
  169SOPE    HY19045   6.868   0.936   6.634 -1.0501  1.2788 -0.5077
  169SOPE   O3119046   6.931   0.752   6.713  0.0365 -0.0068 -0.0445
  169SOPE   C3119047   7.025   0.739   6.624  0.0688  0.1916  0.2559
  169SOPE   O3219048   7.047   0.812   6.528  0.1071  0.6945  0.4422
  169SOPE   C3219049   7.118   0.614   6.660  0.2195 -0.1826 -0.0813
  169SOPE   H2X19050   7.199   0.613   6.584  0.5254  2.5239  0.1009
  169SOPE   H2Y19051   7.058   0.522   6.643 -0.8124  0.6483 -1.2053
  169SOPE   C2319052   6.699   0.382   6.881 -0.2303 -0.5452  0.4155
  169SOPE   H3R19053   6.775   0.341   6.811 -1.0363  0.5693 -1.1732
  169SOPE   H3S19054   6.626   0.301   6.904 -0.1912 -0.1218  2.1822
  169SOPE   C2419055   6.767   0.442   7.009  0.0558  0.2188  0.4330
  169SOPE   H4R19056   6.847   0.371   7.038  1.5943  0.9598 -1.7172
  169SOPE   H4S19057   6.824   0.532   6.978  1.2990  0.1157  2.2509
  169SOPE   C2519058   6.672   0.444   7.134 -0.7642 -0.7907  0.3321
  169SOPE   H5R19059   6.577   0.490   7.099  0.1143  1.3410  0.5937
  169SOPE   H5S19060   6.657   0.341   7.174  1.1008 -0.6963  1.4334
  169SOPE   C2619061   6.731   0.533   7.238 -0.3766  0.1946  1.0732
  169SOPE   H6R19062   6.833   0.500   7.265  0.2702 -0.4868 -1.8583
  169SOPE   H6S19063   6.748   0.635   7.196  1.5264  0.4497  2.3508
  169SOPE   C2719064   6.638   0.542   7.358 -0.2198 -0.0889 -0.2827
  169SOPE   H7R19065   6.530   0.559   7.339  0.1532  0.3781 -2.1683
  169SOPE   H7S19066   6.646   0.450   7.420 -1.3137  0.1472  0.2379
  169SOPE   C2819067   6.690   0.648   7.448 -0.8251  0.4471 -0.2916
  169SOPE   H8R19068   6.775   0.615   7.512  0.0279  0.2793 -1.4810
  169SOPE   H8S19069   6.737   0.725   7.384  0.0376 -0.5266 -0.8744
  169SOPE   C2919070   6.579   0.709   7.535 -0.4916  0.7357  0.5402
  169SOPE   H9119071   6.530   0.798   7.492  0.5736  0.9197 -0.3394
  169SOPE  C21019072   6.536   0.655   7.648 -0.2777 -0.2627 -0.2200
  169SOPE  H10119073   6.457   0.697   7.712  0.7679  0.7992  0.4141
  169SOPE  C21119074   6.591   0.536   7.720 -0.3137  0.2466 -0.2361
  169SOPE  H11R19075   6.683   0.501   7.668 -0.1577  0.9229 -0.4331
  169SOPE  H11S19076   6.523   0.452   7.696  2.4612 -1.7089 -1.9129
  169SOPE  C21219077   6.611   0.563   7.871 -0.2671  0.2477  0.8482
  169SOPE  H12R19078   6.631   0.670   7.889 -0.0015  0.3289  0.1199
  169SOPE  H12S19079   6.694   0.493   7.892  0.7852  0.7088 -1.4412
  169SOPE  C21319080   6.489   0.519   7.958  0.0103  0.2949 -0.0542
  169SOPE  H13R19081   6.458   0.417   7.925  1.6356 -0.2750  0.0660
  169SOPE  H13S19082   6.406   0.591   7.943 -2.3202 -2.4727 -1.6023
  169SOPE  C21419083   6.529   0.524   8.107 -0.8932 -0.0579  0.1523
  169SOPE  H14R19084   6.584   0.618   8.132 -0.0475 -0.9323  1.6921
  169SOPE  H14S19085   6.615   0.457   8.126 -0.5078  1.0563  2.6896
  169SOPE  C21519086   6.417   0.490   8.211  0.0630  0.1985 -0.4280
  169SOPE  H15R19087   6.343   0.571   8.193  1.0446  1.4791  1.0520
  169SOPE  H15S19088   6.470   0.503   8.307  0.7829  0.3301 -0.8384
  169SOPE  C21619089   6.354   0.355   8.211  0.4606  0.6719  0.1326
  169SOPE  H16R19090   6.427   0.281   8.249 -0.2346  0.4813  1.1288
  169SOPE  H16S19091   6.334   0.330   8.104  2.0312 -0.4077  0.0680
  169SOPE  C21719092   6.231   0.351   8.300 -0.2752 -0.3969 -0.4481
  169SOPE  H17R19093   6.189   0.251   8.275  0.8137 -0.8754 -0.4271
  169SOPE  H17S19094   6.159   0.426   8.259 -0.8672 -1.3528 -1.2236
  169SOPE  C21819095   6.235   0.364   8.451  0.2103  0.0266  0.2488
  169SOPE  H18R19096   6.282   0.275   8.498 -2.2646 -1.1177  0.6626
  169SOPE  H18S19097   6.130   0.375   8.483 -0.0759 -0.3668 -0.5221
  169SOPE  H18T19098   6.284   0.459   8.481 -0.8236 -0.0019  2.1288
  169SOPE   C3319099   7.197   0.624   6.789 -0.2395  0.1195 -0.0968
  169SOPE   H3X19100   7.265   0.712   6.796 -1.4784  1.0203  1.4179
  169SOPE   H3Y19101   7.259   0.532   6.795 -0.8896 -0.2966  0.3753
  169SOPE   C3419102   7.110   0.603   6.921 -1.0061  0.4163  0.7597
  169SOPE   H4X19103   7.057   0.505   6.916  0.8967 -0.6918 -4.7213
  169SOPE   H4Y19104   7.029   0.679   6.926 -3.2039 -1.7770  0.5825
  169SOPE   C3519105   7.193   0.605   7.052  0.3880  0.5013  0.3756
  169SOPE   H5X19106   7.237   0.707   7.058 -1.5676  1.3438  0.9023
  169SOPE   H5Y19107   7.262   0.518   7.047 -0.0333  0.2014 -0.4201
  169SOPE   C3619108   7.098   0.602   7.171  0.2350  0.1213 -0.3781
  169SOPE   H6X19109   7.040   0.508   7.179 -0.6564  0.3556 -3.2295
  169SOPE   H6Y19110   7.025   0.685   7.159 -1.8310 -1.5625  0.0091
  169SOPE   C3719111   7.169   0.644   7.307 -0.4769 -0.0012 -0.9649
  169SOPE   H7X19112   7.212   0.746   7.298 -1.1566  0.2268 -1.6996
  169SOPE   H7Y19113   7.254   0.574   7.322  0.8207  1.7095 -0.0092
  169SOPE   C3819114   7.069   0.639   7.420 -0.2102  0.4221  0.1256
  169SOPE   H8X19115   6.968   0.678   7.393 -0.1861 -0.7540 -1.8820
  169SOPE   H8Y19116   7.043   0.533   7.442 -2.2348  0.8611  0.1150
  169SOPE   C3919117   7.114   0.700   7.551  0.1802 -0.1185  0.6395
  169SOPE   H9X19118   7.155   0.802   7.535  1.1745 -0.6783 -0.5819
  169SOPE   H9Y19119   7.197   0.630   7.574 -0.0125 -0.9605 -1.0384
  169SOPE  C31019120   7.021   0.695   7.674  0.2137  0.3238 -0.3758
  169SOPE  H10X19121   6.983   0.591   7.682  0.9758  0.0088 -0.7224
  169SOPE  H10Y19122   6.932   0.762   7.672  0.5720  0.8904  1.1500
  169SOPE  C31119123   7.084   0.713   7.810  0.0364  0.8112 -0.8725
  169SOPE  H11X19124   7.131   0.813   7.805  0.2802  0.7429 -0.0012
  169SOPE  H11Y19125   7.167   0.640   7.821 -0.1863  0.8712  1.8284
  169SOPE  C31219126   6.984   0.707   7.925  0.1565 -0.7326  0.3379
  169SOPE  H12X19127   6.928   0.618   7.890  2.2261 -1.7713 -0.5032
  169SOPE  H12Y19128   6.912   0.792   7.915  3.0517  1.8935  0.1774
  169SOPE  C31319129   7.052   0.672   8.055 -0.1330  0.1837  0.0534
  169SOPE  H13X19130   7.125   0.747   8.093  1.1689 -0.8940 -0.2181
  169SOPE  H13Y19131   7.118   0.585   8.031  1.2488  1.5131 -1.1469
  169SOPE  C31419132   6.954   0.632   8.172  0.3607 -0.2360  0.4028
  169SOPE  H14X19133   6.883   0.553   8.139 -0.5393  0.2232  1.1873
  169SOPE  H14Y19134   6.902   0.728   8.194 -0.3205 -0.7874  1.2862
  169SOPE  C31519135   7.033   0.597   8.298  0.3801 -0.2205 -0.1921
  169SOPE  H15X19136   7.104   0.678   8.326 -0.3817 -0.5009  2.9161
  169SOPE  H15Y19137   7.084   0.501   8.275  0.5384  0.3770 -2.5691
  169SOPE  C31619138   6.935   0.574   8.422  0.1692 -0.2256 -0.5655
  169SOPE  H16X19139   6.925   0.663   8.488 -0.5647 -0.5425 -0.2357
  169SOPE  H16Y19140   6.995   0.500   8.480  0.0403 -1.4465 -1.9394
  169SOPE  C31719141   6.796   0.520   8.382  1.0041 -0.8044  0.6418
  169SOPE  H17X19142   6.806   0.432   8.314 -0.4191 -0.0947 -0.5459
  169SOPE  H17Y19143   6.733   0.593   8.327  2.1303  0.2369  0.6759
  169SOPE  C31819144   6.717   0.481   8.500 -0.4170  0.1303 -0.4857
  169SOPE  H18X19145   6.617   0.442   8.471 -1.0059  2.1990 -1.4325
  169SOPE  H18Y19146   6.697   0.562   8.573 -1.7778  0.2761 -0.9833
  169SOPE  H18Z19147   6.773   0.401   8.553 -0.3892  2.3747  3.1836
  170SOPE     N19148   4.911   4.930   6.397 -0.3936  0.1647 -0.3599
  170SOPE   HN119149   4.951   4.953   6.491  0.6353 -1.3537 -0.3844
  170SOPE   HN219150   4.978   4.986   6.339  0.3963 -0.1964  0.1772
  170SOPE   HN319151   4.818   4.975   6.403 -0.4749 -0.1706  1.4289
  170SOPE   C1219152   4.897   4.781   6.374 -0.5710 -0.8418 -0.2559
  170SOPE  H12A19153   4.995   4.728   6.372 -0.1784 -0.1158 -0.5240
  170SOPE  H12B19154   4.855   4.772   6.271  0.5795 -2.3410 -0.6377
  170SOPE   C1119155   4.785   4.726   6.463 -0.4716 -0.1365 -0.1151
  170SOPE  H11A19156   4.797   4.768   6.565  0.7613 -2.3348  0.6967
  170SOPE  H11B19157   4.795   4.616   6.455 -1.1886 -0.1182 -1.6451
  170SOPE     P19158   4.550   4.665   6.334 -0.4011 -0.5361 -0.3117
  170SOPE   O1319159   4.615   4.579   6.237  0.1515 -0.3115 -0.2491
  170SOPE   O1419160   4.442   4.748   6.273 -0.6563 -0.1741 -0.2211
  170SOPE   O1219161   4.656   4.765   6.406  0.4435  0.8571  0.4094
  170SOPE   O1119162   4.480   4.588   6.444  0.7995 -0.3559  0.0512
  170SOPE    C119163   4.416   4.675   6.545 -0.0553 -0.0447  0.0407
  170SOPE    HA19164   4.343   4.746   6.501 -0.2547  0.0702  0.5512
  170SOPE    HB19165   4.483   4.738   6.607 -1.4618  0.7344  0.8052
  170SOPE    C219166   4.338   4.585   6.652 -0.3302 -0.1648  0.3922
  170SOPE    HS19167   4.255   4.642   6.699 -1.4326 -0.7527 -0.7742
  170SOPE   O2119168   4.424   4.536   6.754  0.1452  0.4637 -0.6007
  170SOPE   C2119169   4.485   4.617   6.843 -0.2965  0.1083  0.8865
  170SOPE   O2219170   4.476   4.739   6.837 -0.6091  0.8180  0.0134
  170SOPE   C2219171   4.563   4.538   6.953  0.2744 -0.6579 -0.0064
  170SOPE   H2R19172   4.639   4.475   6.901 -0.6122 -0.8890 -1.0761
  170SOPE   H2S19173   4.494   4.478   7.014 -0.9714 -1.6606 -2.2649
  170SOPE    C319174   4.270   4.470   6.578 -0.2884  0.2099  0.4888
  170SOPE    HX19175   4.353   4.418   6.526 -0.4405  2.4381 -2.1916
  170SOPE    HY19176   4.195   4.503   6.503  0.5087 -2.3223 -1.5475
  170SOPE   O3119177   4.205   4.375   6.671 -0.2759  0.1303 -0.3893
  170SOPE   C3119178   4.084   4.417   6.714 -0.2993 -0.0919  0.3471
  170SOPE   O3219179   4.029   4.516   6.672 -0.2008  0.2822 -0.0702
  170SOPE   C3219180   4.025   4.324   6.810  0.6095  0.5020 -0.5479
  170SOPE   H2X19181   4.113   4.270   6.852  2.3444  1.5193 -2.6656
  170SOPE   H2Y19182   3.964   4.243   6.765  0.4386  1.0299 -1.2784
  170SOPE   C2319183   4.641   4.642   7.031  0.4755 -0.2750 -0.5650
  170SOPE   H3R19184   4.696   4.714   6.966  1.2633  0.9322  1.3666
  170SOPE   H3S19185   4.718   4.577   7.077  0.8683 -0.3793 -1.3452
  170SOPE   C2419186   4.556   4.724   7.138 -0.7207  0.9318  0.0141
  170SOPE   H4R19187   4.474   4.775   7.083 -1.3286  0.2440  0.2794
  170SOPE   H4S19188   4.487   4.660   7.196 -1.1596  2.2381  0.9729
  170SOPE   C2519189   4.642   4.799   7.234  0.4115  0.2232 -0.6266
  170SOPE   H5R19190   4.700   4.726   7.294 -2.5749 -0.6454  1.4492
  170SOPE   H5S19191   4.721   4.852   7.177 -0.4489 -1.0289 -3.0901
  170SOPE   C2619192   4.559   4.890   7.330 -0.2972 -0.5634  0.4107
  170SOPE   H6R19193   4.592   4.996   7.325 -3.8858  0.8469  2.6276
  170SOPE   H6S19194   4.451   4.887   7.306 -0.2835 -1.3849  0.4470
  170SOPE   C2719195   4.584   4.847   7.476  0.7284 -0.0139 -0.8478
  170SOPE   H7R19196   4.535   4.749   7.494  2.7122 -0.9725 -0.3681
  170SOPE   H7S19197   4.691   4.818   7.468  0.4497 -1.6096  0.5780
  170SOPE   C2819198   4.559   4.954   7.584  0.0414 -0.4229  0.1836
  170SOPE   H8R19199   4.609   4.939   7.682 -1.2915  1.3849  1.2018
  170SOPE   H8S19200   4.597   5.053   7.551  1.6926  0.0944  3.3023
  170SOPE   C2919201   4.408   4.967   7.594  0.4904  0.6734  0.1050
  170SOPE   H9119202   4.358   4.982   7.497 -1.3917 -0.2768  0.8811
  170SOPE  C21019203   4.327   4.960   7.706 -0.4757  0.2199  0.3941
  170SOPE  H10119204   4.219   4.968   7.690 -0.4523  0.2374  0.2378
  170SOPE  C21119205   4.374   4.943   7.849 -0.1229 -0.4536  0.0227
  170SOPE  H11R19206   4.462   4.875   7.848  0.5069  0.3419  0.4462
  170SOPE  H11S19207   4.296   4.895   7.912  1.1319 -1.4025  0.9034
  170SOPE  C21219208   4.418   5.076   7.918  0.1712 -0.9807 -0.4132
  170SOPE  H12R19209   4.345   5.156   7.894 -0.9943 -2.3341 -1.6058
  170SOPE  H12S19210   4.513   5.119   7.880 -0.0801  0.6110  0.6731
  170SOPE  C21319211   4.443   5.058   8.069 -0.3937 -0.1134  0.0091
  170SOPE  H13R19212   4.542   5.008   8.086  0.5229  1.1511 -1.4116
  170SOPE  H13S19213   4.368   4.997   8.124 -0.0404  0.1093  0.7534
  170SOPE  C21419214   4.455   5.194   8.125  0.2078  0.0083 -0.0131
  170SOPE  H14R19215   4.385   5.268   8.081  1.3238  0.8361 -0.4293
  170SOPE  H14S19216   4.552   5.228   8.082 -1.2053  1.5484 -2.1730
  170SOPE  C21519217   4.475   5.213   8.277  0.5702  0.2041  0.2321
  170SOPE  H15R19218   4.479   5.322   8.299  0.1290  0.6345 -1.6504
  170SOPE  H15S19219   4.578   5.177   8.300  1.7152  1.2144 -2.8767
  170SOPE  C21619220   4.378   5.131   8.364  0.5727  0.6085  0.9204
  170SOPE  H16R19221   4.384   5.023   8.338 -0.4560  1.1313 -1.7642
  170SOPE  H16S19222   4.274   5.158   8.336 -0.7338 -1.6382  3.1780
  170SOPE  C21719223   4.394   5.161   8.512 -0.0675 -0.2136  0.3374
  170SOPE  H17R19224   4.390   5.269   8.535 -3.0236 -0.2382  0.3297
  170SOPE  H17S19225   4.491   5.115   8.541 -0.8983 -1.0048  2.0401
  170SOPE  C21819226   4.282   5.090   8.579 -0.0622  0.3629 -1.4916
  170SOPE  H18R19227   4.294   5.093   8.689  0.6903 -2.4963 -1.4056
  170SOPE  H18S19228   4.288   4.985   8.544  1.2190  0.2085 -0.8711
  170SOPE  H18T19229   4.184   5.134   8.553 -0.9793 -0.2213  0.7972
  170SOPE   C3319230   3.947   4.397   6.923 -1.0433 -0.2103  0.5679
  170SOPE   H3X19231   3.927   4.326   7.006  2.0246 -1.0192  0.7574
  170SOPE   H3Y19232   3.855   4.445   6.884 -0.5395  0.6794  0.4698
  170SOPE   C3419233   4.032   4.496   7.000 -0.1339  0.3236 -0.1899
  170SOPE   H4X19234   3.958   4.554   7.059 -1.4363 -0.4241 -1.0464
  170SOPE   H4Y19235   4.091   4.565   6.935  0.4219 -1.0875 -1.2415
  170SOPE   C3519236   4.129   4.431   7.103  0.3415  0.2771  0.1431
  170SOPE   H5X19237   4.228   4.431   7.052  0.8513  0.5551  1.0988
  170SOPE   H5Y19238   4.100   4.331   7.141 -2.5462  0.6660 -0.7911
  170SOPE   C3619239   4.146   4.518   7.231  0.3303  0.8787  0.2942
  170SOPE   H6X19240   4.046   4.521   7.280 -0.3771  1.6184 -1.1561
  170SOPE   H6Y19241   4.187   4.618   7.205  1.0810  0.5048  0.0085
  170SOPE   C3719242   4.252   4.449   7.330  0.2573 -0.0288 -0.3940
  170SOPE   H7X19243   4.348   4.436   7.275  0.3218  3.0379 -1.1604
  170SOPE   H7Y19244   4.218   4.346   7.353  0.9855 -0.3166 -0.5524
  170SOPE   C3819245   4.287   4.517   7.466 -0.1873  0.4176  0.2830
  170SOPE   H8X19246   4.350   4.607   7.450  0.5645 -0.2285 -0.5198
  170SOPE   H8Y19247   4.364   4.455   7.516  0.8818  1.4397 -0.0603
  170SOPE   C3919248   4.166   4.544   7.560 -0.0541 -0.4563  0.1686
  170SOPE   H9X19249   4.104   4.452   7.552  2.0595 -2.0016  0.8390
  170SOPE   H9Y19250   4.117   4.627   7.505  0.6433  1.0687  1.7193
  170SOPE  C31019251   4.186   4.586   7.709 -0.3330 -0.2220  1.0632
  170SOPE  H10X19252   4.276   4.651   7.702 -0.3468 -0.3458 -0.5901
  170SOPE  H10Y19253   4.184   4.501   7.781  0.8221 -0.4772  0.8230
  170SOPE  C31119254   4.076   4.684   7.748  0.6576 -0.1798  0.5349
  170SOPE  H11X19255   4.084   4.760   7.668  0.7340 -1.7600 -1.0202
  170SOPE  H11Y19256   4.097   4.735   7.844 -0.3438 -0.6995  1.0498
  170SOPE  C31219257   3.936   4.620   7.756  0.0503 -0.0266 -0.1688
  170SOPE  H12X19258   3.911   4.567   7.662 -1.5713  2.0337 -0.9873
  170SOPE  H12Y19259   3.866   4.707   7.764  0.4992  0.5495 -1.9262
  170SOPE  C31319260   3.928   4.516   7.873  0.8245 -0.4195  0.5876
  170SOPE  H13X19261   3.945   4.574   7.967  1.3597  1.7083 -0.7406
  170SOPE  H13Y19262   4.003   4.435   7.866  0.7183 -0.5015  0.4021
  170SOPE  C31419263   3.785   4.453   7.867  0.6968 -1.1128 -0.5241
  170SOPE  H14X19264   3.765   4.406   7.768  0.1767 -0.9983 -0.4750
  170SOPE  H14Y19265   3.716   4.539   7.872 -1.2072 -2.4942 -1.5256
  170SOPE  C31519266   3.752   4.346   7.974 -0.4953 -0.1820 -0.2157
  170SOPE  H15X19267   3.828   4.264   7.973  1.0943  1.2026  0.8883
  170SOPE  H15Y19268   3.650   4.302   7.964  0.2683 -2.1876  0.2813
  170SOPE  C31619269   3.758   4.393   8.120 -0.9432 -0.3637  0.4736
  170SOPE  H16X19270   3.854   4.446   8.138 -1.7685  1.2797  0.3147
  170SOPE  H16Y19271   3.769   4.297   8.174 -1.9146 -1.9585 -1.9966
  170SOPE  C31719272   3.642   4.482   8.176 -0.0959  0.6503  0.3725
  170SOPE  H17X19273   3.634   4.454   8.283  1.2928  2.4492  1.0127
  170SOPE  H17Y19274   3.547   4.436   8.143 -1.3533 -0.6093  5.0321
  170SOPE  C31819275   3.649   4.633   8.155  0.1766  0.4620 -0.6439
  170SOPE  H18X19276   3.609   4.676   8.060  1.4630 -0.7051 -1.7539
  170SOPE  H18Y19277   3.755   4.665   8.162 -0.3476  2.6217 -1.5701
  170SOPE  H18Z19278   3.592   4.677   8.240 -2.0565 -0.4382 -1.6193
  171SOPE     N19279   3.218   1.203   6.384  0.3226  0.3539  0.5896
  171SOPE   HN119280   3.283   1.124   6.366  0.7554  1.2719 -2.3524
  171SOPE   HN219281   3.120   1.176   6.402  0.5021 -0.3461  0.5128
  171SOPE   HN319282   3.231   1.270   6.305  0.3165 -0.2447  0.0810
  171SOPE   C1219283   3.275   1.264   6.512  0.0341 -0.3251 -0.2662
  171SOPE  H12A19284   3.254   1.191   6.594  0.0088  1.2034  1.1444
  171SOPE  H12B19285   3.206   1.346   6.543 -0.7241 -2.0751  3.2365
  171SOPE   C1119286   3.423   1.295   6.498  0.1656 -0.0617 -0.0227
  171SOPE  H11A19287   3.456   1.335   6.596 -1.6305  0.8301  0.2453
  171SOPE  H11B19288   3.420   1.380   6.427 -0.0961 -0.9775 -1.1351
  171SOPE     P19289   3.647   1.226   6.393 -0.3452 -0.3407 -0.1681
  171SOPE   O1319290   3.665   1.369   6.414 -0.5051  0.0800  0.4854
  171SOPE   O1419291   3.661   1.182   6.253  0.5451  0.4638 -0.1729
  171SOPE   O1219292   3.506   1.191   6.454  0.1587 -0.3927  0.1258
  171SOPE   O1119293   3.760   1.156   6.482  0.3427  0.6413 -0.5952
  171SOPE    C119294   3.726   1.085   6.604  0.4972  0.0470 -0.2297
  171SOPE    HA19295   3.817   1.028   6.635  0.4594 -0.6083 -1.2682
  171SOPE    HB19296   3.645   1.013   6.582  0.7824  0.5094 -3.3638
  171SOPE    C219297   3.693   1.183   6.723  0.3674 -0.0818 -0.3233
  171SOPE    HS19298   3.596   1.231   6.698 -0.3239 -1.0176  0.5076
  171SOPE   O2119299   3.795   1.286   6.736  0.0305 -0.3241  0.3640
  171SOPE   C2119300   3.747   1.408   6.750 -0.0352  0.7846  0.7904
  171SOPE   O2219301   3.629   1.434   6.764 -0.3417 -0.6867  0.1199
  171SOPE   C2219302   3.857   1.519   6.744  0.6611 -0.1552 -0.4352
  171SOPE   H2R19303   3.861   1.557   6.640 -0.5423 -2.4009 -1.3620
  171SOPE   H2S19304   3.955   1.470   6.763  0.2516 -0.8102  0.0651
  171SOPE    C319305   3.693   1.110   6.859 -0.3899 -0.0741  0.0380
  171SOPE    HX19306   3.793   1.066   6.880 -0.5141 -0.9123 -1.0722
  171SOPE    HY19307   3.621   1.027   6.852 -1.8704  1.2515 -1.2324
  171SOPE   O3119308   3.657   1.206   6.960 -0.0190 -0.1741 -0.0908
  171SOPE   C3119309   3.527   1.245   6.963  0.8860 -0.3893 -0.9837
  171SOPE   O3219310   3.435   1.197   6.898  0.0839 -0.1831 -0.1039
  171SOPE   C3219311   3.507   1.362   7.062 -0.0219 -0.6671  0.6972
  171SOPE   H2X19312   3.511   1.455   7.002 -1.2856 -1.9174 -1.4381
  171SOPE   H2Y19313   3.598   1.352   7.125  0.2465 -2.8353  0.0617
  171SOPE   C2319314   3.833   1.631   6.848  0.4513  0.4410 -0.1872
  171SOPE   H3R19315   3.733   1.678   6.838  0.5652  0.7267 -0.0012
  171SOPE   H3S19316   3.911   1.710   6.847 -0.5516  1.4925  0.7512
  171SOPE   C2419317   3.840   1.578   6.998 -0.1538  0.2540 -0.0622
  171SOPE   H4R19318   3.739   1.540   7.024  0.1618 -0.8847 -0.4308
  171SOPE   H4S19319   3.906   1.488   7.000 -1.3814 -0.6718  0.2369
  171SOPE   C2519320   3.875   1.684   7.101  0.4682 -0.4443  0.4091
  171SOPE   H5R19321   3.967   1.743   7.083  1.1282 -1.4564  0.4312
  171SOPE   H5S19322   3.790   1.756   7.109  0.4486 -0.3731 -0.3715
  171SOPE   C2619323   3.890   1.619   7.242  0.1942 -0.3503 -0.4188
  171SOPE   H6R19324   3.797   1.565   7.265 -0.3553  0.3593 -0.9333
  171SOPE   H6S19325   3.977   1.550   7.236  0.0817 -0.3943 -2.1952
  171SOPE   C2719326   3.921   1.731   7.347 -0.0987  0.5039 -0.1073
  171SOPE   H7R19327   3.998   1.797   7.301 -1.1142  1.3739 -0.6199
  171SOPE   H7S19328   3.825   1.787   7.350  0.1087  0.8685 -0.2247
  171SOPE   C2819329   3.961   1.692   7.489  0.6838 -0.0674  0.3633
  171SOPE   H8R19330   4.062   1.646   7.502 -0.8064 -3.0421  2.5359
  171SOPE   H8S19331   3.977   1.789   7.541  1.9931 -0.8018  1.4357
  171SOPE   C2919332   3.868   1.607   7.568 -0.3288 -0.1338 -0.3796
  171SOPE   H9119333   3.814   1.528   7.515 -0.6641 -0.5788  0.5915
  171SOPE  C21019334   3.829   1.619   7.702 -0.1886 -0.1675 -0.5024
  171SOPE  H10119335   3.776   1.539   7.756  0.1550  0.0755  0.2107
  171SOPE  C21119336   3.885   1.730   7.796  0.5420  0.1717 -0.0792
  171SOPE  H11R19337   3.809   1.811   7.803  0.9419  0.4484  1.4755
  171SOPE  H11S19338   3.982   1.772   7.763  1.0540 -0.4584  0.5823
  171SOPE  C21219339   3.897   1.667   7.938 -0.0393  0.2298 -0.1256
  171SOPE  H12R19340   3.799   1.631   7.975  1.0686 -1.7634  1.0579
  171SOPE  H12S19341   3.937   1.746   8.005  0.0092 -0.9994  1.3505
  171SOPE  C21319342   4.001   1.556   7.960 -0.4466 -0.0885 -1.1826
  171SOPE  H13R19343   4.097   1.567   7.904  0.6436 -0.1043  0.6220
  171SOPE  H13S19344   3.962   1.457   7.928 -1.2674 -0.8069  1.7137
  171SOPE  C21419345   4.047   1.538   8.108 -0.4299  0.1508 -0.1181
  171SOPE  H14R19346   4.100   1.629   8.142 -3.4259  2.2168 -0.6056
  171SOPE  H14S19347   4.119   1.454   8.101  0.1791  0.6077  0.5240
  171SOPE  C21519348   3.935   1.489   8.203  0.6353  0.0359  0.0216
  171SOPE  H15R19349   3.878   1.403   8.164  0.9667  0.5820 -1.7330
  171SOPE  H15S19350   3.857   1.565   8.222 -0.3380 -0.2792 -2.3746
  171SOPE  C21619351   3.994   1.461   8.346 -0.1967  0.9516  0.2720
  171SOPE  H16R19352   4.036   1.562   8.367 -1.8800  1.7918 -0.2537
  171SOPE  H16S19353   4.074   1.383   8.349 -1.9270 -0.9026  2.9551
  171SOPE  C21719354   3.889   1.417   8.448 -0.0666 -0.4817 -0.7213
  171SOPE  H17R19355   3.826   1.334   8.409 -0.5616 -0.2112 -0.5191
  171SOPE  H17S19356   3.816   1.501   8.458  2.5518  1.6561  3.2330
  171SOPE  C21819357   3.943   1.381   8.583 -0.8114 -0.8130  0.7825
  171SOPE  H18R19358   3.856   1.363   8.651 -0.2926  0.1398  1.7328
  171SOPE  H18S19359   4.018   1.447   8.632  1.1682 -0.7979 -2.0204
  171SOPE  H18T19360   3.994   1.283   8.576 -2.4395 -1.6902  0.5919
  171SOPE   C3319361   3.377   1.339   7.140 -0.1028  0.8551 -0.3329
  171SOPE   H3X19362   3.376   1.240   7.188 -0.6212 -0.1310 -2.2710
  171SOPE   H3Y19363   3.281   1.344   7.085 -1.0245  0.0573  1.1499
  171SOPE   C3419364   3.361   1.440   7.254  0.2700 -0.3243 -0.3144
  171SOPE   H4X19365   3.351   1.547   7.227 -0.0700 -0.3383 -0.2502
  171SOPE   H4Y19366   3.462   1.435   7.300  0.3349  0.3115 -0.3835
  171SOPE   C3519367   3.259   1.415   7.365  0.6388  0.2466 -0.3460
  171SOPE   H5X19368   3.255   1.305   7.380  1.3267  0.1385 -0.9199
  171SOPE   H5Y19369   3.158   1.459   7.348 -0.1164 -1.7902 -1.3993
  171SOPE   C3619370   3.312   1.472   7.498  0.0617  0.3892  0.3569
  171SOPE   H6X19371   3.337   1.578   7.480  1.7880  0.1843  1.3137
  171SOPE   H6Y19372   3.412   1.430   7.523  0.8752  3.3031  2.4982
  171SOPE   C3719373   3.205   1.473   7.611  0.0344  0.4630  0.1579
  171SOPE   H7X19374   3.162   1.372   7.627 -1.6552  1.1085 -0.0338
  171SOPE   H7Y19375   3.121   1.542   7.585 -0.8248 -1.5786 -3.0417
  171SOPE   C3819376   3.260   1.510   7.750  0.1869  0.2447  1.2055
  171SOPE   H8X19377   3.249   1.619   7.769 -0.2432  0.0728  2.0071
  171SOPE   H8Y19378   3.365   1.473   7.752  0.9129  2.1810  0.9736
  171SOPE   C3919379   3.173   1.468   7.864 -0.3973  0.9356  0.5091
  171SOPE   H9X19380   3.225   1.505   7.955 -0.1147 -1.6821  1.4967
  171SOPE   H9Y19381   3.184   1.358   7.863 -0.1872  0.8852 -2.7104
  171SOPE  C31019382   3.028   1.524   7.868 -0.1640 -0.5693  0.5372
  171SOPE  H10X19383   2.968   1.482   7.785 -1.4796  0.4892  0.9147
  171SOPE  H10Y19384   3.039   1.634   7.861  0.6003 -0.6464  0.4143
  171SOPE  C31119385   2.948   1.489   7.996  0.1330 -0.2853  0.1069
  171SOPE  H11X19386   2.873   1.571   8.003 -1.2442 -1.5767  1.2225
  171SOPE  H11Y19387   3.006   1.505   8.089 -0.2850  0.4033  0.2572
  171SOPE  C31219388   2.878   1.350   7.988  0.6856  0.0578 -0.1286
  171SOPE  H12X19389   2.957   1.277   7.960 -0.8362 -1.3950 -0.8089
  171SOPE  H12Y19390   2.803   1.350   7.906 -0.4153 -0.8183  0.8447
  171SOPE  C31319391   2.802   1.326   8.120  0.0591  0.2416  0.0927
  171SOPE  H13X19392   2.778   1.217   8.117 -0.7065  0.3480  1.4776
  171SOPE  H13Y19393   2.709   1.386   8.133 -0.0120 -0.1079  1.3597
  171SOPE  C31419394   2.887   1.348   8.244  1.0645 -0.8357  0.1663
  171SOPE  H14X19395   2.889   1.458   8.261 -0.7173 -0.6008 -0.8864
  171SOPE  H14Y19396   2.989   1.309   8.224  1.5525  0.4823 -0.0451
  171SOPE  C31519397   2.834   1.291   8.376 -0.0151 -0.0841  0.0596
  171SOPE  H15X19398   2.837   1.180   8.382  2.1904 -0.0707  0.1909
  171SOPE  H15Y19399   2.726   1.314   8.384 -0.1658 -1.0672  1.1558
  171SOPE  C31619400   2.903   1.341   8.492 -0.3311 -0.7881  0.7655
  171SOPE  H16X19401   2.893   1.452   8.496 -0.4136 -0.6289 -1.9348
  171SOPE  H16Y19402   3.011   1.315   8.487  0.2592  1.4531  0.8559
  171SOPE  C31719403   2.845   1.281   8.628 -0.1930 -0.2708  0.1457
  171SOPE  H17X19404   2.854   1.171   8.618  0.1709 -0.2063 -0.3189
  171SOPE  H17Y19405   2.739   1.312   8.638 -0.7386 -1.4730 -1.5569
  171SOPE  C31819406   2.931   1.322   8.746 -0.6009 -1.1449 -0.1160
  171SOPE  H18X19407   2.929   1.430   8.773 -0.3903 -1.3450  0.7522
  171SOPE  H18Y19408   3.034   1.289   8.721  0.0644  0.6325  0.1210
  171SOPE  H18Z19409   2.900   1.258   8.832  0.9533 -0.9094  0.6596
  172SOPE     N19410   5.857   1.281   6.025 -0.3806  0.1814 -0.2280
  172SOPE   HN119411   5.849   1.177   6.020  0.5761  0.0086  1.2450
  172SOPE   HN219412   5.781   1.330   6.076 -0.3131  2.5770 -2.2295
  172SOPE   HN319413   5.862   1.313   5.926  0.3726 -1.8522 -0.8958
  172SOPE   C1219414   5.998   1.305   6.090  0.7391  0.0563  0.3036
  172SOPE  H12A19415   6.012   1.415   6.096  1.4323  0.0717 -1.2975
  172SOPE  H12B19416   6.072   1.262   6.020 -0.5253  1.1851 -1.8319
  172SOPE   C1119417   6.024   1.235   6.223  0.8681  0.0780  0.5630
  172SOPE  H11A19418   6.128   1.233   6.264  0.1958  0.2235  2.3536
  172SOPE  H11B19419   5.996   1.128   6.210 -1.3267  0.6530  0.1500
  172SOPE     P19420   6.000   1.372   6.445 -0.4983 -0.2594 -0.0884
  172SOPE   O1319421   5.885   1.418   6.523  0.3675 -0.3800  0.3248
  172SOPE   O1419422   6.092   1.468   6.377 -0.1526  0.0009 -0.1231
  172SOPE   O1219423   5.938   1.278   6.329 -0.0943 -0.0209  0.3173
  172SOPE   O1119424   6.089   1.287   6.545 -0.3842 -0.3456 -0.0923
  172SOPE    C119425   6.073   1.150   6.561  0.5263  0.0798 -0.4867
  172SOPE    HA19426   6.168   1.117   6.608  1.4559  1.2522 -1.4979
  172SOPE    HB19427   6.064   1.098   6.463  0.0005  0.2025 -0.5101
  172SOPE    C219428   5.959   1.111   6.663 -0.6052 -0.2550  0.6234
  172SOPE    HS19429   5.864   1.152   6.623 -1.6653 -0.2196  3.0194
  172SOPE   O2119430   5.992   1.189   6.779 -0.3831  0.1180 -0.3171
  172SOPE   C2119431   5.894   1.191   6.870 -0.4959  0.3032 -0.2139
  172SOPE   O2219432   5.784   1.138   6.863 -0.3613 -0.1695 -0.1871
  172SOPE   C2219433   5.953   1.269   6.981  0.6911  0.1272  0.1082
  172SOPE   H2R19434   5.979   1.367   6.937  0.2709 -1.2609 -3.5236
  172SOPE   H2S19435   6.028   1.209   7.037  2.0130  1.6594  0.0498
  172SOPE    C319436   5.943   0.957   6.691 -0.2710 -0.2110  0.2400
  172SOPE    HX19437   5.900   0.915   6.598  0.0045 -2.7645  1.1583
  172SOPE    HY19438   5.874   0.930   6.773  0.2214  0.5076  0.9074
  172SOPE   O3119439   6.073   0.895   6.707  0.0270 -0.1137 -0.2774
  172SOPE   C3119440   6.131   0.929   6.822  0.5193  0.2100  0.2419
  172SOPE   O3219441   6.075   0.981   6.914  0.1288 -0.0624 -0.3761
  172SOPE   C3219442   6.265   0.876   6.827  0.1005  0.1384 -0.7214
  172SOPE   H2X19443   6.332   0.957   6.793  1.4080 -0.9060 -0.7171
  172SOPE   H2Y19444   6.267   0.796   6.749 -0.0001  2.0822 -2.8312
  172SOPE   C2319445   5.847   1.310   7.086 -0.6284 -0.4971  0.2807
  172SOPE   H3R19446   5.811   1.219   7.138 -3.2640  0.6031  0.5734
  172SOPE   H3S19447   5.759   1.356   7.034 -0.0043  0.1791 -0.1965
  172SOPE   C2419448   5.912   1.421   7.174 -0.2450  0.5964  0.3076
  172SOPE   H4R19449   5.943   1.510   7.115  1.2727  1.1359  1.8088
  172SOPE   H4S19450   5.836   1.451   7.249  0.9174  3.2061  0.5671
  172SOPE   C2519451   6.035   1.360   7.246  0.1925  0.2170  0.1246
  172SOPE   H5R19452   6.003   1.257   7.275 -1.2254  0.3405 -0.9302
  172SOPE   H5S19453   6.124   1.336   7.184 -0.9174 -5.6298  0.2275
  172SOPE   C2619454   6.076   1.432   7.378  0.2092  0.4537  0.1499
  172SOPE   H6R19455   5.994   1.500   7.410  1.1203  1.8013 -0.2838
  172SOPE   H6S19456   6.078   1.349   7.452  3.0169  0.5240  0.2558
  172SOPE   C2719457   6.213   1.503   7.362 -0.6145 -0.5578  0.3313
  172SOPE   H7R19458   6.287   1.432   7.318  0.7637  1.0979 -0.1280
  172SOPE   H7S19459   6.197   1.581   7.285  0.9769  0.5091  1.0338
  172SOPE   C2819460   6.281   1.569   7.481 -0.7719 -0.4156  0.0629
  172SOPE   H8R19461   6.327   1.486   7.540  0.5887 -0.4907 -1.0339
  172SOPE   H8S19462   6.361   1.635   7.440 -1.3273 -0.3322 -0.9293
  172SOPE   C2919463   6.191   1.656   7.569 -0.5224 -0.2370 -0.2636
  172SOPE   H9119464   6.108   1.703   7.515 -1.2936  1.5541  2.2694
  172SOPE  C21019465   6.209   1.680   7.700 -0.2889  0.1842 -0.5084
  172SOPE  H10119466   6.139   1.746   7.754  1.1427  0.7564  0.7303
  172SOPE  C21119467   6.332   1.627   7.778 -0.2967 -0.1672  0.2790
  172SOPE  H11R19468   6.387   1.707   7.833 -0.7023  1.1060 -1.1084
  172SOPE  H11S19469   6.408   1.588   7.707  0.3945 -0.8710  1.3632
  172SOPE  C21219470   6.273   1.513   7.867  0.0747  0.1320 -0.1714
  172SOPE  H12R19471   6.360   1.468   7.919  0.8539  1.7755  0.0084
  172SOPE  H12S19472   6.215   1.437   7.811 -0.8239  1.2603 -0.8179
  172SOPE  C21319473   6.193   1.567   7.978 -0.1354 -0.4630 -0.2045
  172SOPE  H13R19474   6.102   1.620   7.941  0.0960  0.6590  0.7860
  172SOPE  H13S19475   6.248   1.648   8.031  0.8389 -0.9731 -0.4143
  172SOPE  C21419476   6.167   1.460   8.083 -0.5689 -1.1338 -0.1840
  172SOPE  H14R19477   6.137   1.517   8.174 -1.2525 -0.4628 -0.8224
  172SOPE  H14S19478   6.258   1.398   8.101 -0.1020 -0.8340 -1.4349
  172SOPE  C21519479   6.053   1.370   8.041 -0.3777  0.2389  0.1529
  172SOPE  H15R19480   6.082   1.295   7.964 -1.9302 -2.6208  2.1687
  172SOPE  H15S19481   5.971   1.432   7.999 -0.2220 -0.2252 -0.8514
  172SOPE  C21619482   5.988   1.288   8.154 -0.2287  1.1193  0.6425
  172SOPE  H16R19483   5.908   1.220   8.118 -0.5442  0.9772  1.5815
  172SOPE  H16S19484   5.939   1.354   8.229 -0.4538  0.4954  1.0548
  172SOPE  C21719485   6.087   1.188   8.216 -0.1998 -0.0280 -0.0728
  172SOPE  H17R19486   6.166   1.240   8.275  0.3545  1.1173 -1.7333
  172SOPE  H17S19487   6.132   1.137   8.129  1.3853  0.8502  0.1905
  172SOPE  C21819488   6.024   1.080   8.316  0.2090 -0.3229 -0.6382
  172SOPE  H18R19489   6.102   1.014   8.359 -0.0466  1.7326  3.4339
  172SOPE  H18S19490   5.942   1.021   8.268  0.2497  0.0241 -1.1387
  172SOPE  H18T19491   5.970   1.126   8.402 -0.6695  1.4146 -2.0418
  172SOPE   C3319492   6.318   0.833   6.967 -0.8822 -0.1444  0.3825
  172SOPE   H3X19493   6.312   0.723   6.981 -1.4331 -0.3120 -1.0418
  172SOPE   H3Y19494   6.251   0.884   7.039 -1.5865  1.0263 -1.0461
  172SOPE   C3419495   6.461   0.875   6.999 -0.1059  0.1377  0.6301
  172SOPE   H4X19496   6.482   0.974   6.953 -1.2458 -0.2904 -0.9240
  172SOPE   H4Y19497   6.528   0.796   6.958 -0.6023 -0.4320  0.8933
  172SOPE   C3519498   6.494   0.885   7.149 -0.0868  0.3826  0.3574
  172SOPE   H5X19499   6.604   0.880   7.167  0.4562  0.3260 -2.5416
  172SOPE   H5Y19500   6.447   0.793   7.192 -0.4063  1.0600  1.4950
  172SOPE   C3619501   6.429   1.005   7.217  0.0500 -0.3096 -0.4727
  172SOPE   H6X19502   6.325   1.012   7.178  0.3790  4.0171 -1.1456
  172SOPE   H6Y19503   6.481   1.090   7.168 -2.1099  0.4965 -1.4935
  172SOPE   C3719504   6.432   1.016   7.372  0.3259 -0.8271  0.8002
  172SOPE   H7X19505   6.541   1.012   7.392  0.3739  2.5415  1.8024
  172SOPE   H7Y19506   6.382   0.931   7.422 -0.9010  0.7719  2.3945
  172SOPE   C3819507   6.381   1.155   7.411  0.4695  0.1937 -0.1312
  172SOPE   H8X19508   6.271   1.148   7.396  0.2117  0.0477  1.6035
  172SOPE   H8Y19509   6.413   1.242   7.351 -1.4693  0.6928 -0.5191
  172SOPE   C3919510   6.394   1.190   7.566 -0.0367 -0.0632  1.0353
  172SOPE   H9X19511   6.318   1.267   7.592  1.9277  2.2337  0.3454
  172SOPE   H9Y19512   6.490   1.245   7.566  0.2532 -0.5647  1.1881
  172SOPE  C31019513   6.405   1.073   7.672  0.5156 -0.3724  0.4082
  172SOPE  H10X19514   6.481   0.997   7.643  1.1438  0.1423  0.6836
  172SOPE  H10Y19515   6.306   1.023   7.673  1.2479 -1.8612  0.8272
  172SOPE  C31119516   6.439   1.117   7.817 -0.3753  0.5876 -0.4837
  172SOPE  H11X19517   6.348   1.163   7.862  0.4022 -0.4300  2.3060
  172SOPE  H11Y19518   6.522   1.191   7.815 -1.9187  2.5028  1.5042
  172SOPE  C31219519   6.474   0.995   7.898 -0.2446 -0.3528 -0.2654
  172SOPE  H12X19520   6.551   0.938   7.842  0.8038  1.3914 -0.6734
  172SOPE  H12Y19521   6.384   0.931   7.894 -1.8277  1.7180  0.2515
  172SOPE  C31319522   6.517   1.033   8.040  0.5848  0.0911 -0.4437
  172SOPE  H13X19523   6.418   1.071   8.075  1.0898  1.0026  0.0308
  172SOPE  H13Y19524   6.596   1.110   8.052  0.7828 -0.0405 -0.9132
  172SOPE  C31419525   6.557   0.906   8.117 -0.3182 -0.1069  0.0544
  172SOPE  H14X19526   6.664   0.894   8.091  0.0628  1.5333  0.7545
  172SOPE  H14Y19527   6.504   0.813   8.087 -0.5281  0.3476 -1.0380
  172SOPE  C31519528   6.564   0.916   8.270 -0.2877  0.3410 -0.3563
  172SOPE  H15X19529   6.603   1.012   8.310  1.0727  0.4751 -1.9122
  172SOPE  H15Y19530   6.634   0.833   8.293  0.4101  0.6985 -1.1242
  172SOPE  C31619531   6.429   0.888   8.340  0.7047  0.5211 -0.3930
  172SOPE  H16X19532   6.349   0.829   8.290 -0.2216  2.4498 -1.2941
  172SOPE  H16Y19533   6.387   0.986   8.371  0.8739 -0.0419  1.8013
  172SOPE  C31719534   6.439   0.809   8.479  0.4846  0.2319  0.1196
  172SOPE  H17X19535   6.485   0.880   8.550  0.8967 -0.9890  1.1246
  172SOPE  H17Y19536   6.525   0.739   8.469 -0.2173 -0.8331  1.0977
  172SOPE  C31819537   6.309   0.745   8.531  0.3567 -0.1525  0.3100
  172SOPE  H18X19538   6.333   0.690   8.624 -2.7802 -0.9455  0.7357
  172SOPE  H18Y19539   6.285   0.662   8.462  2.0731 -0.4607  0.0253
  172SOPE  H18Z19540   6.220   0.811   8.538 -0.0769 -0.8467  1.5910
  173SAPI   C1219541   1.561   0.547  11.140  0.7129  0.2090 -0.4637
  173SAPI    H219542   1.496   0.556  11.050  1.4470 -1.2180 -1.1664
  173SAPI    O219543   1.631   0.671  11.147  0.1071  0.1552 -0.4064
  173SAPI   HO219544   1.633   0.704  11.057  2.1036  0.5480 -0.2679
  173SAPI   C1319545   1.471   0.527  11.255 -0.8730 -0.5079 -0.1630
  173SAPI    H319546   1.412   0.435  11.239 -0.2972 -0.8284 -0.4560
  173SAPI    O319547   1.372   0.625  11.253 -0.1191  0.2500  0.4762
  173SAPI   HO319548   1.409   0.713  11.243 -0.3867  0.2686 -0.3878
  173SAPI   C1419549   1.552   0.509  11.385  1.0312  0.7922  0.6900
  173SAPI    H419550   1.612   0.598  11.414 -0.5892  2.0831  0.1751
  173SAPI    O419551   1.461   0.483  11.492  0.5486  0.0060  0.3496
  173SAPI   HO419552   1.507   0.506  11.573 -1.4501 -0.1651  1.6028
  173SAPI   C1519553   1.652   0.397  11.355 -0.2405 -0.4898 -0.3588
  173SAPI    H519554   1.585   0.313  11.328 -2.6178  0.8848  0.9095
  173SAPI    O519555   1.717   0.365  11.479 -0.1118  0.4966 -0.3754
  173SAPI   HO519556   1.669   0.291  11.516 -0.5218  1.8459  1.9681
  173SAPI   C1619557   1.744   0.419  11.231 -0.1281 -0.2648 -0.1988
  173SAPI    H619558   1.803   0.513  11.241  1.3355 -1.1356 -0.2537
  173SAPI    O619559   1.833   0.313  11.211 -0.5038 -0.2077  0.0353
  173SAPI   HO619560   1.909   0.356  11.169 -0.9357 -0.4250 -1.0105
  173SAPI   C1119561   1.653   0.437  11.111 -0.0712  0.1246 -1.2517
  173SAPI    H119562   1.596   0.342  11.115 -1.5233  0.8944  4.2313
  173SAPI     P19563   1.717   0.352  10.859  0.0710  0.1431  0.0021
  173SAPI   O1319564   1.600   0.266  10.874  0.1325 -0.3476 -0.3869
  173SAPI   O1419565   1.848   0.284  10.856  0.3436 -0.2183 -0.0884
  173SAPI   O1219566   1.715   0.468  10.984  0.0969  0.0752  0.0158
  173SAPI   O1119567   1.712   0.433  10.720  0.3158  0.5461  0.0404
  173SAPI    C119568   1.590   0.498  10.691  0.0931  0.0269  0.4545
  173SAPI    HA19569   1.505   0.425  10.686  0.1491 -0.0304  0.3332
  173SAPI    HB19570   1.565   0.574  10.768  0.0277  2.9181 -2.2128
  173SAPI    C219571   1.591   0.573  10.551  0.2521 -0.4831 -0.7365
  173SAPI    HS19572   1.485   0.588  10.520 -0.1798 -0.8226  0.5424
  173SAPI   O2119573   1.676   0.509  10.456  0.0423  0.1178  0.2726
  173SAPI   C2119574   1.605   0.422  10.376 -0.0530 -0.7373 -0.6708
  173SAPI   O2219575   1.486   0.392  10.387 -0.1588 -0.0595  0.4501
  173SAPI   C2219576   1.688   0.394  10.250  0.2568  0.2452  0.6353
  173SAPI   H2R19577   1.762   0.473  10.228 -0.2053  0.6807  0.6160
  173SAPI   H2S19578   1.746   0.307  10.286  0.3946  0.4165  0.8237
  173SAPI    C319579   1.664   0.716  10.567  0.3371  0.0940 -0.2205
  173SAPI    HX19580   1.758   0.700  10.624  0.7192  2.2914 -0.1202
  173SAPI    HY19581   1.598   0.774  10.635  0.5140 -1.7378  1.6087
  173SAPI   O3119582   1.683   0.799  10.446 -0.3821  0.0185 -0.2765
  173SAPI   C3119583   1.808   0.786  10.390  0.4834  0.4950 -0.1463
  173SAPI   O3219584   1.885   0.696  10.423  0.0893 -0.7432 -0.4113
  173SAPI   C3219585   1.843   0.896  10.293 -0.1379 -0.4754 -0.2839
  173SAPI   H2X19586   1.922   0.956  10.342 -1.7362  0.6022  1.1001
  173SAPI   H2Y19587   1.751   0.955  10.272  1.2370  1.8336 -0.0349
  173SAPI   C2319588   1.611   0.363  10.119 -0.2809 -0.2257 -0.5664
  173SAPI   H3R19589   1.541   0.446  10.096  0.3993  0.3264 -0.6937
  173SAPI   H3S19590   1.555   0.269  10.141 -1.5382  0.4520 -0.7876
  173SAPI   C2419591   1.703   0.334  10.006 -0.2663  0.1438  0.1781
  173SAPI   H4R19592   1.642   0.278   9.932 -0.3812  0.5435 -0.0346
  173SAPI   H4S19593   1.782   0.259  10.027 -0.5945 -0.8038 -1.7220
  173SAPI   C2519594   1.772   0.457   9.955 -0.4585 -0.5828 -0.0246
  173SAPI   H5R19595   1.807   0.526  10.034  0.0213 -3.0824  2.0906
  173SAPI   C2619596   1.788   0.490   9.820  0.0205  0.1111  0.1147
  173SAPI   H6R19597   1.817   0.593   9.794  1.4640 -0.4590 -0.6807
  173SAPI   C2719598   1.748   0.407   9.701  0.1234  0.2665 -0.8674
  173SAPI   H7R19599   1.757   0.298   9.724  1.4567  0.7172  0.9806
  173SAPI   H7S19600   1.824   0.427   9.622  3.6465  2.2226  2.6801
  173SAPI   C2819601   1.613   0.441   9.659 -0.2867  0.2348  0.0905
  173SAPI   H8R19602   1.536   0.438   9.737 -1.7343  2.2896 -1.1396
  173SAPI   C2919603   1.575   0.462   9.531  0.0127  0.4832  0.2776
  173SAPI   H9R19604   1.467   0.475   9.518  0.2356  0.2139 -2.6650
  173SAPI  C21019605   1.654   0.464   9.400 -0.5405  0.0278 -0.5734
  173SAPI  H10R19606   1.645   0.371   9.339 -1.3847 -0.7334  0.6735
  173SAPI  H10S19607   1.764   0.464   9.416 -0.4740  0.7687 -0.9779
  173SAPI  C21119608   1.624   0.585   9.322  1.0522 -0.0552  0.4683
  173SAPI  H11R19609   1.558   0.658   9.370  0.6101 -0.0493 -0.1340
  173SAPI  C21219610   1.658   0.607   9.194  0.6400 -0.6598 -0.1874
  173SAPI  H12R19611   1.631   0.705   9.151  1.5405 -0.7888 -1.0880
  173SAPI  C21319612   1.731   0.510   9.107  0.1698  0.1353 -0.2975
  173SAPI  H13R19613   1.653   0.473   9.036 -0.9084  0.9649  0.4142
  173SAPI  H13S19614   1.773   0.421   9.159  1.8909 -0.2705 -2.2478
  173SAPI  C21419615   1.842   0.577   9.040 -0.1535 -0.1591  0.3490
  173SAPI  H14R19616   1.928   0.613   9.098  1.3969 -2.7221 -0.2204
  173SAPI  C21519617   1.847   0.598   8.904 -0.6312  0.7070  0.2171
  173SAPI  H15R19618   1.936   0.641   8.856  1.1443 -2.4857  0.3908
  173SAPI  C21619619   1.740   0.560   8.808  0.4081 -0.7597  0.1099
  173SAPI  H16R19620   1.673   0.643   8.780  2.8242  1.7452  1.2068
  173SAPI  H16S19621   1.686   0.471   8.846 -0.0846 -1.1288 -1.3820
  173SAPI  C21719622   1.805   0.513   8.672 -0.1728  0.4380  0.6101
  173SAPI  H17R19623   1.888   0.446   8.702 -0.6456 -0.2595  0.3807
  173SAPI  H17S19624   1.858   0.596   8.620 -1.3200  0.4734 -0.5614
  173SAPI  C21819625   1.715   0.424   8.587 -0.1980 -0.4553  0.0982
  173SAPI  H18R19626   1.625   0.487   8.579 -0.1744 -0.1926  1.6912
  173SAPI  H18S19627   1.683   0.345   8.658  0.7522 -0.0756  0.9762
  173SAPI  C21919628   1.772   0.363   8.458 -0.4676  0.2805 -0.9331
  173SAPI  H19R19629   1.865   0.301   8.464 -1.5003 -1.1959  2.4244
  173SAPI  H19S19630   1.800   0.440   8.383  0.1006  0.6046 -0.3968
  173SAPI  C22019631   1.670   0.273   8.393  0.5054 -0.0232 -0.3786
  173SAPI  H20R19632   1.572   0.322   8.373  0.5419 -1.0501 -3.6693
  173SAPI  H20S19633   1.654   0.193   8.469  1.2190 -1.6581 -1.8742
  173SAPI  H20T19634   1.703   0.217   8.303  0.2072  1.7823 -1.6630
  173SAPI   C3319635   1.897   0.836  10.159 -0.0265  0.4067  0.0331
  173SAPI   H3X19636   1.828   0.766  10.108  1.1883 -3.0481  2.7426
  173SAPI   H3Y19637   1.992   0.791  10.194 -0.0194 -0.0365 -0.5559
  173SAPI   C3419638   1.924   0.949  10.060 -0.0290 -0.3966  0.0751
  173SAPI   H4X19639   1.934   1.041  10.120  1.0486 -0.1768 -0.4179
  173SAPI   H4Y19640   1.828   0.969  10.009 -1.5873 -2.8052  1.8239
  173SAPI   C3519641   2.049   0.935   9.974  0.6978  0.0353  0.1510
  173SAPI   H5X19642   2.124   0.871  10.025  0.4128 -2.5247 -2.3844
  173SAPI   H5Y19643   2.088   1.030   9.932  1.8927 -1.4103 -2.2344
  173SAPI   C3619644   2.027   0.846   9.850  0.5900  0.2073  0.1662
  173SAPI   H6X19645   1.939   0.896   9.804 -0.3315 -0.5770  1.0178
  173SAPI   H6Y19646   2.010   0.739   9.878  0.1380  0.5047  1.0508
  173SAPI   C3719647   2.141   0.873   9.743 -0.1476  0.3029 -0.3604
  173SAPI   H7X19648   2.234   0.820   9.776 -0.9862  0.0935  1.8938
  173SAPI   H7Y19649   2.172   0.979   9.729  2.2068 -0.2402  0.2906
  173SAPI   C3819650   2.104   0.815   9.601  0.3106 -0.1534 -0.0501
  173SAPI   H8X19651   2.015   0.873   9.567  0.3955 -0.0043 -0.0171
  173SAPI   H8Y19652   2.079   0.709   9.623 -0.6600 -0.2765 -1.5714
  173SAPI   C3919653   2.208   0.823   9.492 -0.2830 -0.1786 -0.0261
  173SAPI   H9X19654   2.284   0.750   9.526  0.7756 -0.0857 -2.0258
  173SAPI   H9Y19655   2.249   0.926   9.496  0.1097 -0.3451  0.3193
  173SAPI  C31019656   2.156   0.776   9.353 -0.0659 -0.6053 -1.0712
  173SAPI  H10X19657   2.098   0.861   9.310  1.6110  0.4912 -1.2604
  173SAPI  H10Y19658   2.099   0.681   9.361 -3.1660  1.1814 -0.4418
  173SAPI  C31119659   2.268   0.769   9.248 -0.2570  0.2692  0.8064
  173SAPI  H11X19660   2.352   0.721   9.304  0.3405 -0.6733 -0.8442
  173SAPI  H11Y19661   2.302   0.870   9.220  0.7522 -0.4681 -0.7558
  173SAPI  C31219662   2.214   0.698   9.122  1.0850 -0.4409  0.4611
  173SAPI  H12X19663   2.115   0.741   9.097  0.6326 -1.9027 -0.3463
  173SAPI  H12Y19664   2.191   0.592   9.143  0.0732 -0.8824 -2.5010
  173SAPI  C31319665   2.301   0.713   8.990  0.6679 -0.5399  0.1081
  173SAPI  H13X19666   2.402   0.675   9.013  0.5907  0.5369  2.5083
  173SAPI  H13Y19667   2.313   0.823   8.973 -2.1108 -0.2525 -0.5761
  173SAPI  C31419668   2.245   0.634   8.872 -0.1319  0.0639 -0.4532
  173SAPI  H14X19669   2.145   0.672   8.842 -0.0556  0.3662 -0.3385
  173SAPI  H14Y19670   2.229   0.533   8.914  0.8300  0.5433  1.1990
  173SAPI  C31519671   2.341   0.626   8.755 -0.9494  0.3227  0.4295
  173SAPI  H15X19672   2.436   0.598   8.804 -1.4276 -0.4277  0.9422
  173SAPI  H15Y19673   2.356   0.720   8.697 -2.3174 -1.0579 -2.4086
  173SAPI  C31619674   2.299   0.515   8.657 -0.3384 -0.2231 -0.8752
  173SAPI  H16X19675   2.203   0.561   8.625  0.6066  2.7172  0.2376
  173SAPI  H16Y19676   2.266   0.419   8.703 -2.4876 -1.2233 -4.1008
  173SAPI  C31719677   2.384   0.479   8.537  0.7294  0.0793 -0.5127
  173SAPI  H17X19678   2.363   0.383   8.486 -0.6711  0.9359 -1.6185
  173SAPI  H17Y19679   2.488   0.467   8.575  0.0155  0.8570  1.7980
  173SAPI  C31819680   2.385   0.592   8.431 -0.3514  0.0044 -0.6039
  173SAPI  H18X19681   2.283   0.605   8.389 -1.7242  0.5929  2.6468
  173SAPI  H18Y19682   2.465   0.560   8.360  1.5806  0.2773  1.3611
  173SAPI  H18Z19683   2.411   0.691   8.474  1.6093 -0.1245 -1.3755
  174SAPI   C1219684   2.928   6.664  11.154  0.0348 -0.3273 -0.6359
  174SAPI    H219685   2.845   6.711  11.097 -0.2029 -0.4792 -0.4190
  174SAPI    O219686   2.932   6.726  11.281  0.5841  0.8507  0.0227
  174SAPI   HO219687   2.875   6.803  11.289 -2.4902 -1.2584  0.0159
  174SAPI   C1319688   2.903   6.512  11.155 -0.0818 -0.6384  0.0310
  174SAPI    H319689   2.882   6.491  11.048 -0.5044  0.4419 -0.1057
  174SAPI    O319690   2.781   6.477  11.227 -0.6170  0.5086 -0.0067
  174SAPI   HO319691   2.795   6.507  11.318 -1.2941  0.9789 -0.0488
  174SAPI   C1419692   3.022   6.437  11.213 -0.2697 -0.1969  0.3297
  174SAPI    H419693   3.035   6.462  11.321  2.3164  0.9880 -0.1562
  174SAPI    O419694   3.003   6.298  11.209  0.3740 -1.2476  0.6732
  174SAPI   HO419695   2.962   6.292  11.123  1.3029 -1.2423  0.2284
  174SAPI   C1519696   3.150   6.478  11.129  0.2752 -0.6957 -0.4234
  174SAPI    H519697   3.127   6.431  11.031  1.5379 -0.8572 -0.6567
  174SAPI    O519698   3.266   6.401  11.162  0.2613  0.1070 -0.0052
  174SAPI   HO519699   3.316   6.390  11.081 -0.0398  1.2282 -0.3599
  174SAPI   C1619700   3.183   6.623  11.118  0.2834 -0.5894  0.5398
  174SAPI    H619701   3.206   6.671  11.215  1.1416  0.0414  0.0332
  174SAPI    O619702   3.283   6.665  11.029 -0.3268  0.3151  0.2265
  174SAPI   HO619703   3.264   6.756  11.008  0.4964  0.7829  1.4031
  174SAPI   C1119704   3.052   6.692  11.072 -0.1412  0.3008  0.7165
  174SAPI    H119705   3.033   6.652  10.970  0.2468  0.9467  0.3839
  174SAPI     P19706   2.997   6.928  10.948  0.0876 -0.2259 -0.0734
  174SAPI   O1319707   2.952   7.059  11.012 -0.4455 -0.0827  0.0326
  174SAPI   O1419708   2.891   6.852  10.882  0.6477  0.0064  0.5325
  174SAPI   O1219709   3.073   6.835  11.062  0.0096  0.1855  0.8048
  174SAPI   O1119710   3.120   6.943  10.851  0.2296  0.3762 -0.2588
  174SAPI    C119711   3.164   6.838  10.765  0.3691  0.4445  0.7676
  174SAPI    HA19712   3.265   6.805  10.800 -0.2729  1.5429  4.1020
  174SAPI    HB19713   3.109   6.742  10.768  0.4185  0.3295 -1.1721
  174SAPI    C219714   3.181   6.880  10.614  0.3952  0.5065 -0.1754
  174SAPI    HS19715   3.267   6.950  10.612  1.1553 -0.3353 -3.4737
  174SAPI   O2119716   3.054   6.916  10.559  0.6958 -0.1324 -0.0114
  174SAPI   C2119717   3.034   7.044  10.567 -0.0709 -0.2046  0.0325
  174SAPI   O2219718   3.120   7.129  10.595 -0.3515  0.1618  0.3086
  174SAPI   C2219719   2.894   7.075  10.523 -0.5492  0.1037 -0.2128
  174SAPI   H2R19720   2.819   7.027  10.590  1.7121 -0.6720  1.9518
  174SAPI   H2S19721   2.877   7.183  10.543  0.4200  0.0205  1.2986
  174SAPI    C319722   3.236   6.750  10.542 -0.1925  0.0712  0.3054
  174SAPI    HX19723   3.165   6.667  10.564  0.3579 -0.1043  1.5010
  174SAPI    HY19724   3.331   6.722  10.593 -1.0948 -2.2182  0.8646
  174SAPI   O3119725   3.258   6.783  10.399  0.2133  0.1036 -0.3698
  174SAPI   C3119726   3.210   6.704  10.308 -0.3388  0.1604  0.6818
  174SAPI   O3219727   3.143   6.603  10.329 -0.0633 -0.2440 -0.5366
  174SAPI   C3219728   3.247   6.753  10.167  0.3047  0.4140  0.7802
  174SAPI   H2X19729   3.296   6.666  10.118  0.9003  0.5578  1.1120
  174SAPI   H2Y19730   3.316   6.839  10.183 -0.4581  1.0394  0.7332
  174SAPI   C2319731   2.879   7.033  10.379 -0.1954 -0.1351 -1.1302
  174SAPI   H3R19732   2.867   6.923  10.373 -1.8304 -0.1340  1.0621
  174SAPI   H3S19733   2.967   7.065  10.319  0.6153 -2.2185 -1.1030
  174SAPI   C2419734   2.755   7.087  10.307 -0.2371 -0.3739  0.3318
  174SAPI   H4R19735   2.754   7.051  10.202  1.8483 -0.4475  0.2987
  174SAPI   H4S19736   2.763   7.197  10.310  1.9940 -0.4009 -2.0021
  174SAPI   C2519737   2.633   7.035  10.371  0.1678  0.1518  0.0751
  174SAPI   H5R19738   2.620   7.078  10.471  1.0367  4.2243 -1.3687
  174SAPI   C2619739   2.541   6.959  10.314 -0.2940 -0.0791 -0.0627
  174SAPI   H6R19740   2.446   6.932  10.362 -1.5476  0.6095 -2.0092
  174SAPI   C2719741   2.525   6.916  10.170 -0.3810 -0.0911  0.3623
  174SAPI   H7R19742   2.469   6.821  10.163 -0.0959 -0.5186  2.8767
  174SAPI   H7S19743   2.625   6.882  10.135 -1.4806 -1.8972 -1.2570
  174SAPI   C2819744   2.471   7.003  10.062 -0.1036 -0.0869  0.3553
  174SAPI   H8R19745   2.430   7.098  10.101  0.2592  0.3698 -0.3622
  174SAPI   C2919746   2.476   6.978   9.935 -0.0463  0.2016 -0.2918
  174SAPI   H9R19747   2.426   7.044   9.862 -1.1840 -0.4087 -0.0932
  174SAPI  C21019748   2.535   6.859   9.874 -0.4313 -0.3528 -0.3636
  174SAPI  H10R19749   2.475   6.843   9.781  1.4176 -2.1577 -1.3544
  174SAPI  H10S19750   2.505   6.769   9.932 -0.5531 -0.6065 -0.8138
  174SAPI  C21119751   2.681   6.874   9.844  0.2259  0.7833  0.5033
  174SAPI  H11R19752   2.746   6.856   9.932 -0.5285 -1.5641  0.6471
  174SAPI  C21219753   2.745   6.883   9.727 -0.6145  0.0281  0.3471
  174SAPI  H12R19754   2.852   6.908   9.727 -0.8770  1.2164  0.0035
  174SAPI  C21319755   2.680   6.881   9.592  0.8390  0.2892 -0.0047
  174SAPI  H13R19756   2.739   6.928   9.511  0.6779  0.0930 -0.2391
  174SAPI  H13S19757   2.595   6.953   9.592  0.8546  0.3386 -1.1559
  174SAPI  C21419758   2.625   6.747   9.555  0.6352  0.1930 -0.0218
  174SAPI  H14R19759   2.621   6.674   9.637  0.3014 -0.5925 -0.7265
  174SAPI  C21519760   2.583   6.701   9.435 -0.1091  0.5752 -0.3914
  174SAPI  H15R19761   2.540   6.600   9.426 -1.7119  0.9947  1.8634
  174SAPI  C21619762   2.578   6.779   9.307  0.0383  0.2579 -0.0057
  174SAPI  H16R19763   2.677   6.800   9.260  1.5600 -1.6266  2.1318
  174SAPI  H16S19764   2.521   6.873   9.326 -0.5189  0.2318 -1.4453
  174SAPI  C21719765   2.495   6.716   9.195 -0.4103 -0.4564 -0.2717
  174SAPI  H17R19766   2.477   6.791   9.115 -0.3076 -0.6528 -0.4811
  174SAPI  H17S19767   2.395   6.676   9.222 -0.4789  0.7660  1.3855
  174SAPI  C21819768   2.574   6.598   9.133  0.3169  0.1060  0.2920
  174SAPI  H18R19769   2.595   6.522   9.212  0.6077 -3.6253 -3.0153
  174SAPI  H18S19770   2.671   6.632   9.092  1.1778 -3.3206 -0.8565
  174SAPI  C21919771   2.486   6.519   9.032  0.2612 -0.0187 -0.2325
  174SAPI  H19R19772   2.446   6.600   8.968 -1.8036  0.6897  1.8171
  174SAPI  H19S19773   2.400   6.472   9.084 -0.2544 -0.3121 -1.3201
  174SAPI  C22019774   2.559   6.415   8.954 -0.0216  0.3750  0.2485
  174SAPI  H20R19775   2.637   6.460   8.889  1.5456 -1.2282  0.9184
  174SAPI  H20S19776   2.490   6.353   8.893  0.4994 -2.8335  2.6494
  174SAPI  H20T19777   2.625   6.344   9.010  0.9483  0.4829 -0.7219
  174SAPI   C3319778   3.118   6.799  10.093 -0.5772 -0.1313 -0.5208
  174SAPI   H3X19779   3.085   6.899  10.128  3.7149  1.6369 -0.9287
  174SAPI   H3Y19780   3.039   6.722  10.104  0.6299 -1.2018  1.0633
  174SAPI   C3419781   3.124   6.803   9.938  0.5291 -0.3013  0.1250
  174SAPI   H4X19782   3.220   6.848   9.905 -0.6146  1.4519 -0.9969
  174SAPI   H4Y19783   3.048   6.879   9.910  0.6000 -0.1929  0.2193
  174SAPI   C3519784   3.089   6.671   9.870 -0.1571  0.1654  0.4886
  174SAPI   H5X19785   3.009   6.615   9.922 -1.1521  3.1461  2.4622
  174SAPI   H5Y19786   3.170   6.595   9.866 -0.6893 -0.3947 -2.6325
  174SAPI   C3619787   3.052   6.681   9.716  0.0101 -0.3150 -0.9717
  174SAPI   H6X19788   3.150   6.691   9.663  1.3692 -1.5376  1.1548
  174SAPI   H6Y19789   2.982   6.764   9.697  0.9473  0.3609 -1.5606
  174SAPI   C3719790   3.005   6.545   9.666  0.6939 -0.8155 -0.0456
  174SAPI   H7X19791   2.926   6.522   9.741  0.9094 -0.8075  0.1845
  174SAPI   H7Y19792   3.091   6.478   9.688  1.1153 -0.5957 -0.9792
  174SAPI   C3819793   2.969   6.529   9.515 -0.4075  0.3649  0.2265
  174SAPI   H8X19794   3.057   6.554   9.452 -0.6886 -0.6915 -0.6147
  174SAPI   H8Y19795   2.896   6.610   9.491  0.2233  1.0356  0.5459
  174SAPI   C3919796   2.923   6.398   9.465 -0.4243  0.7116 -0.4848
  174SAPI   H9X19797   2.840   6.350   9.521  0.2291 -0.3740 -0.4337
  174SAPI   H9Y19798   3.004   6.323   9.470 -1.7517 -0.9442 -2.5139
  174SAPI  C31019799   2.892   6.404   9.317 -0.4204 -0.1770 -0.1117
  174SAPI  H10X19800   2.960   6.482   9.277 -0.4592  1.3537  2.5714
  174SAPI  H10Y19801   2.789   6.446   9.315 -0.4903 -0.2986 -3.1868
  174SAPI  C31119802   2.903   6.273   9.238  0.7168  0.2348 -0.2268
  174SAPI  H11X19803   2.809   6.217   9.256  0.4187  0.1718 -1.8124
  174SAPI  H11Y19804   2.987   6.219   9.287  0.5126  1.8112  2.0262
  174SAPI  C31219805   2.933   6.309   9.092  0.4757 -0.1509 -0.0109
  174SAPI  H12X19806   3.029   6.366   9.087  0.2321  0.3181  0.4826
  174SAPI  H12Y19807   2.851   6.368   9.045 -1.3631 -1.3646  1.5048
  174SAPI  C31319808   2.946   6.182   9.004  0.4749  0.2187  0.0619
  174SAPI  H13X19809   2.851   6.124   9.006  1.6052 -1.7778 -1.1646
  174SAPI  H13Y19810   3.011   6.116   9.066  0.3857 -3.3750 -3.3162
  174SAPI  C31419811   2.986   6.201   8.853 -0.4056 -0.0909 -0.8878
  174SAPI  H14X19812   3.074   6.269   8.850 -0.9808  0.6263 -1.8876
  174SAPI  H14Y19813   2.900   6.249   8.803 -0.2510  0.5061 -0.5918
  174SAPI  C31519814   3.027   6.075   8.777  0.2962 -0.4148 -0.1639
  174SAPI  H15X19815   2.943   6.002   8.782  0.1505 -0.3921 -1.6587
  174SAPI  H15Y19816   3.117   6.029   8.822  0.7741 -1.0992 -1.7412
  174SAPI  C31619817   3.060   6.102   8.625 -1.2451 -0.2470  0.5006
  174SAPI  H16X19818   3.145   6.173   8.625 -1.5594  0.1799  2.1217
  174SAPI  H16Y19819   2.974   6.135   8.562 -0.2626 -1.0003 -1.2999
  174SAPI  C31719820   3.100   5.975   8.554 -0.1087 -0.1907 -0.5739
  174SAPI  H17X19821   3.019   5.899   8.565  0.3564 -0.8095 -1.2984
  174SAPI  H17Y19822   3.192   5.948   8.610 -0.9934 -1.9923  0.0859
  174SAPI  C31819823   3.125   6.014   8.411 -0.3214  0.3906  0.3410
  174SAPI  H18X19824   3.041   6.051   8.349  1.0459  0.8927 -1.2756
  174SAPI  H18Y19825   3.153   5.923   8.354  1.9286 -0.0879  2.0656
  174SAPI  H18Z19826   3.210   6.085   8.398  0.1674 -0.2301  0.0975
  175SAPI   C1219827   2.471   4.247   6.551 -0.6279  0.3267 -0.5315
  175SAPI    H219828   2.414   4.310   6.623 -0.5789  1.3974 -1.4035
  175SAPI    O219829   2.589   4.310   6.513 -0.0551  0.0690 -0.1812
  175SAPI   HO219830   2.619   4.374   6.578  2.0581 -2.1687  1.2420
  175SAPI   C1319831   2.498   4.114   6.628 -0.2086  0.2240 -0.6363
  175SAPI    H319832   2.392   4.080   6.627 -0.3522  0.6572 -1.8630
  175SAPI    O319833   2.557   4.136   6.757 -0.0191 -0.8626 -0.3713
  175SAPI   HO319834   2.644   4.172   6.739  0.5254 -1.8089  0.2935
  175SAPI   C1419835   2.571   4.021   6.532 -0.3922  0.0720 -0.6776
  175SAPI    H419836   2.670   4.070   6.516 -0.4059  0.8973  1.4112
  175SAPI    O419837   2.605   3.898   6.596 -0.4014 -0.1490  0.6431
  175SAPI   HO419838   2.690   3.913   6.639  0.0685  0.2237 -0.3846
  175SAPI   C1519839   2.496   3.996   6.403 -0.5026  0.6241 -0.3381
  175SAPI    H519840   2.407   3.930   6.414  0.5236 -0.8073 -0.2894
  175SAPI    O519841   2.579   3.916   6.319 -0.6155  0.0782  0.6322
  175SAPI   HO519842   2.605   3.839   6.371 -0.7680  1.4338  2.8244
  175SAPI   C1619843   2.462   4.131   6.332  0.8825 -0.7295  1.3126
  175SAPI    H619844   2.561   4.175   6.306 -0.7842  1.2433 -2.3340
  175SAPI    O619845   2.390   4.106   6.209 -0.4577  0.1811 -0.2361
  175SAPI   HO619846   2.370   4.012   6.205 -2.5325  0.5831 -1.0182
  175SAPI   C1119847   2.389   4.222   6.422  0.1226 -0.7496 -0.7650
  175SAPI    H119848   2.299   4.164   6.453  0.0562 -0.2134  0.0713
  175SAPI     P19849   2.205   4.414   6.364  0.0380  0.1190 -0.2862
  175SAPI   O1319850   2.106   4.315   6.303  0.2613  0.1627 -0.5036
  175SAPI   O1419851   2.219   4.544   6.303 -0.1870 -0.2266 -0.4759
  175SAPI   O1219852   2.356   4.347   6.366 -0.1961  0.0631 -0.2835
  175SAPI   O1119853   2.169   4.434   6.521 -0.0890  0.3979  0.2280
  175SAPI    C119854   2.201   4.564   6.576 -0.2030  0.1819  0.2526
  175SAPI    HA19855   2.178   4.647   6.505 -0.7574  1.0681  1.4262
  175SAPI    HB19856   2.150   4.595   6.670  1.1769  2.2473  0.3867
  175SAPI    C219857   2.347   4.585   6.605 -0.2604 -0.6165  0.2701
  175SAPI    HS19858   2.409   4.527   6.534 -0.6118 -0.8995  0.1918
  175SAPI   O2119859   2.373   4.531   6.733  0.0263  0.1002 -0.0127
  175SAPI   C2119860   2.497   4.521   6.767  0.9746 -0.2031 -0.0359
  175SAPI   O2219861   2.595   4.541   6.697 -0.2309 -0.2850  0.2187
  175SAPI   C2219862   2.492   4.485   6.913 -0.3226  0.6487  0.4851
  175SAPI   H2R19863   2.416   4.534   6.978  0.7494  1.6639  1.0201
  175SAPI   H2S19864   2.463   4.378   6.910 -1.8982  1.0392  0.8389
  175SAPI    C319865   2.387   4.736   6.605  0.0976 -0.0391 -0.4441
  175SAPI    HX19866   2.386   4.760   6.496  1.1236 -0.5695 -0.5819
  175SAPI    HY19867   2.494   4.753   6.628  0.5045  2.2313 -3.4679
  175SAPI   O3119868   2.290   4.825   6.673  0.0351 -0.3685 -0.3601
  175SAPI   C3119869   2.296   4.826   6.809 -0.8529  0.1743  0.0243
  175SAPI   O3219870   2.389   4.785   6.877 -0.5171  0.4328 -0.2379
  175SAPI   C3219871   2.179   4.899   6.870  0.4011 -0.0989  0.0395
  175SAPI   H2X19872   2.155   4.982   6.800 -0.8606  0.1901  0.7799
  175SAPI   H2Y19873   2.212   4.964   6.955  1.3814  1.7077 -1.6362
  175SAPI   C2319874   2.633   4.502   6.982 -0.3327 -1.0512  0.5199
  175SAPI   H3R19875   2.647   4.609   7.005 -0.5588 -0.6297 -1.2173
  175SAPI   H3S19876   2.717   4.472   6.917  0.8382  0.3629  1.3338
  175SAPI   C2419877   2.643   4.409   7.101  0.2723  0.2334 -0.3822
  175SAPI   H4R19878   2.545   4.364   7.125  0.7688  0.7749  3.2804
  175SAPI   H4S19879   2.677   4.456   7.196  3.1804  1.4763 -1.9213
  175SAPI   C2519880   2.731   4.293   7.068 -0.2362 -0.6467 -0.1852
  175SAPI   H5R19881   2.748   4.266   6.963  0.1868 -3.8615  0.6205
  175SAPI   C2619882   2.783   4.213   7.169  0.0222 -0.4987  0.1447
  175SAPI   H6R19883   2.854   4.131   7.149  0.9060 -0.3844  2.4907
  175SAPI   C2719884   2.758   4.228   7.317 -0.2961 -1.0268  0.0696
  175SAPI   H7R19885   2.770   4.128   7.363 -0.9143 -0.9722  0.3639
  175SAPI   H7S19886   2.650   4.247   7.335 -0.0501 -0.1959  0.7503
  175SAPI   C2819887   2.832   4.336   7.396  0.5856  0.1216  0.3334
  175SAPI   H8R19888   2.840   4.432   7.342 -0.9533 -0.7694 -1.5846
  175SAPI   C2919889   2.868   4.316   7.519  0.2420 -0.1659 -0.1052
  175SAPI   H9R19890   2.914   4.399   7.576 -0.9360 -0.8858  2.0155
  175SAPI  C21019891   2.851   4.196   7.614  0.5139 -0.4391 -0.1891
  175SAPI  H10R19892   2.928   4.126   7.574 -0.7170 -1.8011 -0.2980
  175SAPI  H10S19893   2.756   4.142   7.592 -1.0482  2.3029 -0.5555
  175SAPI  C21119894   2.884   4.207   7.757  0.0968 -0.0279  0.0366
  175SAPI  H11R19895   2.792   4.226   7.815 -1.9967 -0.3873 -2.8910
  175SAPI  C21219896   3.003   4.193   7.819 -1.1662  0.2360 -0.6434
  175SAPI  H12R19897   3.007   4.184   7.928 -3.5090 -2.4515 -0.6793
  175SAPI  C21319898   3.134   4.172   7.749 -0.1077 -0.6780 -0.2070
  175SAPI  H13R19899   3.125   4.213   7.646 -1.6239  0.8469  0.4657
  175SAPI  H13S19900   3.150   4.063   7.757 -0.0543 -0.5789  1.4388
  175SAPI  C21419901   3.249   4.245   7.817  0.4367  0.2744  0.3824
  175SAPI  H14R19902   3.328   4.185   7.866  0.6575  1.7163  1.8488
  175SAPI  C21519903   3.258   4.375   7.829 -0.1018 -0.3717  0.0144
  175SAPI  H15R19904   3.341   4.429   7.878 -1.9936  2.9541 -0.1281
  175SAPI  C21619905   3.157   4.477   7.787 -0.5062  0.4383 -0.3929
  175SAPI  H16R19906   3.065   4.486   7.849  0.3818  0.0745  1.0487
  175SAPI  H16S19907   3.113   4.456   7.688  1.1838 -3.2746 -0.5069
  175SAPI  C21719908   3.230   4.617   7.770 -0.3275 -0.1709 -0.2100
  175SAPI  H17R19909   3.159   4.687   7.720  0.0799  0.5910  0.2586
  175SAPI  H17S19910   3.316   4.611   7.699 -1.0268 -1.5213 -0.9858
  175SAPI  C21819911   3.274   4.676   7.907 -0.1874 -0.2584  0.4459
  175SAPI  H18R19912   3.307   4.782   7.900  0.0507 -0.3958 -0.8801
  175SAPI  H18S19913   3.356   4.619   7.954  1.9253  2.4054  0.2107
  175SAPI  C21919914   3.171   4.694   8.028  0.0630  0.2124 -0.5341
  175SAPI  H19R19915   3.144   4.587   8.039 -1.6241  0.4645 -1.8935
  175SAPI  H19S19916   3.082   4.755   8.003 -2.8596 -2.3289  2.5866
  175SAPI  C22019917   3.241   4.754   8.152 -0.1444  0.5147 -0.3293
  175SAPI  H20R19918   3.257   4.864   8.154 -0.8709  0.6291  1.2019
  175SAPI  H20S19919   3.335   4.696   8.163  1.0471  2.5768  1.1675
  175SAPI  H20T19920   3.164   4.735   8.230 -0.3720  1.0534 -0.4144
  175SAPI   C3319921   2.070   4.801   6.908  0.1600  0.0345 -0.0606
  175SAPI   H3X19922   2.024   4.749   6.821 -3.5224  1.6237  0.7047
  175SAPI   H3Y19923   1.988   4.862   6.952  0.0760 -0.7503  0.8977
  175SAPI   C3419924   2.102   4.686   6.997 -0.0633 -0.7813 -0.9449
  175SAPI   H4X19925   2.169   4.607   6.957  0.4926 -1.3735  1.0145
  175SAPI   H4Y19926   2.006   4.636   7.027 -0.3599 -0.7792 -1.8541
  175SAPI   C3519927   2.177   4.727   7.132  0.0104  0.2522  0.5520
  175SAPI   H5X19928   2.275   4.762   7.095 -0.1517 -0.4231 -0.5595
  175SAPI   H5Y19929   2.207   4.639   7.192  4.8835 -1.2221 -3.3510
  175SAPI   C3619930   2.104   4.825   7.223 -0.2156 -0.2165  0.5472
  175SAPI   H6X19931   2.013   4.771   7.257  1.1912 -2.2847  1.2253
  175SAPI   H6Y19932   2.083   4.912   7.157  2.4243 -0.9570 -1.4339
  175SAPI   C3719933   2.180   4.862   7.353  0.5546 -0.3104  0.3741
  175SAPI   H7X19934   2.150   4.969   7.363 -2.1788 -0.8943 -0.8023
  175SAPI   H7Y19935   2.290   4.855   7.339  0.3737 -0.7334 -0.9688
  175SAPI   C3819936   2.143   4.790   7.486  0.0037  0.5053 -0.3558
  175SAPI   H8X19937   2.157   4.680   7.479  1.8161  0.6481  0.5255
  175SAPI   H8Y19938   2.042   4.821   7.520  1.3262  1.2810  3.2473
  175SAPI   C3919939   2.233   4.836   7.606  0.3512 -0.0173  0.2856
  175SAPI   H9X19940   2.223   4.945   7.623  0.2922 -0.0280  0.3190
  175SAPI   H9Y19941   2.340   4.822   7.578  0.0692  1.1701 -1.5220
  175SAPI  C31019942   2.213   4.753   7.737 -0.4079  0.3748 -0.0260
  175SAPI  H10X19943   2.227   4.647   7.705 -0.8401  1.0821 -2.8997
  175SAPI  H10Y19944   2.106   4.754   7.767 -0.5540 -3.8171  0.2209
  175SAPI  C31119945   2.306   4.818   7.846 -0.3149  0.2789 -0.2354
  175SAPI  H11X19946   2.257   4.910   7.884 -1.0837  0.3478 -1.3389
  175SAPI  H11Y19947   2.405   4.847   7.805 -0.1447 -0.6365 -0.4939
  175SAPI  C31219948   2.308   4.725   7.965 -0.7074  0.8277  0.0935
  175SAPI  H12X19949   2.355   4.631   7.930  0.6697  2.5516 -3.1340
  175SAPI  H12Y19950   2.201   4.701   7.985 -1.4142  2.6140 -1.2041
  175SAPI  C31319951   2.381   4.790   8.084  0.3553 -0.6695  0.5834
  175SAPI  H13X19952   2.342   4.894   8.091 -0.6332 -1.0817  1.6813
  175SAPI  H13Y19953   2.488   4.796   8.058 -0.5243  1.1006 -3.2103
  175SAPI  C31419954   2.354   4.717   8.214 -0.6940  0.6159 -0.0882
  175SAPI  H14X19955   2.252   4.674   8.204 -0.1007 -1.0371  0.6463
  175SAPI  H14Y19956   2.364   4.794   8.294 -0.3206  2.4205 -1.7838
  175SAPI  C31519957   2.461   4.608   8.247  0.5843  0.9362  0.1385
  175SAPI  H15X19958   2.562   4.654   8.245  0.6400  0.7902 -0.9181
  175SAPI  H15Y19959   2.467   4.528   8.170  0.6506  0.6411  0.4489
  175SAPI  C31619960   2.448   4.529   8.373 -0.3293 -0.1189 -0.2600
  175SAPI  H16X19961   2.480   4.583   8.465  0.1626 -0.9543  0.0763
  175SAPI  H16Y19962   2.533   4.456   8.370  1.7634  2.1811  0.0168
  175SAPI  C31719963   2.319   4.454   8.394 -0.9381  0.2986  0.3004
  175SAPI  H17X19964   2.285   4.397   8.305  0.6971  0.4586 -0.4686
  175SAPI  H17Y19965   2.240   4.529   8.416 -0.3706  0.8716  0.4291
  175SAPI  C31819966   2.327   4.369   8.526 -0.2710  0.0199 -0.0852
  175SAPI  H18X19967   2.392   4.279   8.529  0.5319  0.5561 -0.8201
  175SAPI  H18Y19968   2.227   4.330   8.554  0.2330 -1.7404 -0.6422
  175SAPI  H18Z19969   2.370   4.438   8.602  0.3468  0.8927 -1.1994
  176SAPI   C1219970   4.800   3.617   6.029 -0.0832  0.2529 -0.2912
  176SAPI    H219971   4.749   3.526   6.067  1.8897 -1.9947 -2.6110
  176SAPI    O219972   4.934   3.612   6.084 -0.3207 -0.5420 -0.1059
  176SAPI   HO219973   4.915   3.608   6.178 -1.5577  0.9507 -0.2410
  176SAPI   C1319974   4.801   3.602   5.876  0.3617  0.1348 -0.5187
  176SAPI    H319975   4.697   3.605   5.837  0.2378  0.2670 -0.1837
  176SAPI    O319976   4.851   3.472   5.834  0.2695 -0.1216 -0.8862
  176SAPI   HO319977   4.937   3.486   5.794  0.5764  0.6416  0.0134
  176SAPI   C1419978   4.870   3.718   5.812 -0.2268  0.5688 -0.5375
  176SAPI    H419979   4.975   3.724   5.848  0.2449  0.5579 -1.8539
  176SAPI    O419980   4.877   3.713   5.668 -0.0819 -0.2493 -0.5538
  176SAPI   HO419981   4.844   3.798   5.639 -0.8614 -1.0799 -2.2579
  176SAPI   C1519982   4.803   3.842   5.854 -0.1295 -1.2366 -0.5828
  176SAPI    H519983   4.695   3.853   5.831 -0.5183 -1.1064  1.1347
  176SAPI    O519984   4.863   3.961   5.796 -0.1540 -0.4164 -0.4183
  176SAPI   HO519985   4.958   3.972   5.808 -0.3743  0.6566  0.5101
  176SAPI   C1619986   4.794   3.853   6.003  0.6021 -0.3020  0.5553
  176SAPI    H619987   4.899   3.861   6.037  0.4457  0.0005  0.9774
  176SAPI    O619988   4.730   3.978   6.044 -0.3349  0.0425 -0.0720
  176SAPI   HO619989   4.798   4.033   6.081  0.8032 -1.8028  0.7452
  176SAPI   C1119990   4.722   3.743   6.071 -0.2245 -0.0565 -0.1781
  176SAPI    H119991   4.619   3.742   6.030  0.0721  2.9097 -1.2248
  176SAPI     P19992   4.602   3.703   6.308  0.2130 -0.0617 -0.1342
  176SAPI   O1319993   4.666   3.636   6.420  0.3763 -0.1317 -0.1686
  176SAPI   O1419994   4.508   3.627   6.225  0.1599 -0.7681  0.0976
  176SAPI   O1219995   4.729   3.754   6.214  0.5788  0.8913  0.5214
  176SAPI   O1119996   4.539   3.830   6.369 -0.3079 -0.3762  0.2263
  176SAPI    C119997   4.595   3.963   6.381 -0.7134  0.2552  0.7879
  176SAPI    HA19998   4.703   3.973   6.356 -0.9303  1.3567  0.2068
  176SAPI    HB19999   4.538   4.028   6.311  0.3619 -1.1245 -1.4932
  176SAPI    C220000   4.590   4.030   6.520 -1.1379  0.0664  0.4731
  176SAPI    HS20001   4.646   4.125   6.516  0.1375 -0.6973 -0.7260
  176SAPI   O2120002   4.632   3.946   6.633 -0.7048 -0.4465 -0.4500
  176SAPI   C2120003   4.759   3.902   6.619  0.2866 -0.2747 -0.4318
  176SAPI   O2220004   4.842   3.940   6.540 -0.1300  0.1837 -0.9753
  176SAPI   C2220005   4.788   3.784   6.720 -0.3499  0.7981 -0.5756
  176SAPI   H2R20006   4.808   3.824   6.822 -0.9785 -0.4355  0.0578
  176SAPI   H2S20007   4.691   3.731   6.730 -1.2793  2.7037  1.3111
  176SAPI    C320008   4.442   4.072   6.542 -0.1419 -0.1291  0.4600
  176SAPI    HX20009   4.383   4.001   6.481 -1.6330  2.2904 -1.0774
  176SAPI    HY20010   4.418   4.173   6.502 -0.5468  0.3992  1.9621
  176SAPI   O3120011   4.386   4.080   6.679 -0.4607  0.1225 -0.0898
  176SAPI   C3120012   4.445   4.165   6.756  0.1408 -0.1968  0.8955
  176SAPI   O3220013   4.541   4.237   6.738 -0.7638 -0.3734  0.3997
  176SAPI   C3220014   4.369   4.176   6.886 -0.7146  0.5345 -0.3365
  176SAPI   H2X20015   4.286   4.102   6.890  0.5772 -0.9308  2.3571
  176SAPI   H2Y20016   4.320   4.275   6.899 -1.4268 -0.0164  1.5924
  176SAPI   C2320017   4.890   3.681   6.673 -0.4911  0.8903 -0.2209
  176SAPI   H3R20018   4.983   3.709   6.619 -1.8047  0.2215 -3.0073
  176SAPI   H3S20019   4.835   3.623   6.595  0.1223 -1.5928  1.0869
  176SAPI   C2420020   4.935   3.581   6.782 -0.0272 -0.3831 -0.7181
  176SAPI   H4R20021   4.890   3.600   6.881  0.3774 -1.8576 -0.2197
  176SAPI   H4S20022   5.042   3.594   6.808 -0.3303  0.0530  0.3521
  176SAPI   C2520023   4.914   3.440   6.739  0.0485 -0.0496 -0.1809
  176SAPI   H5R20024   4.913   3.432   6.629  0.7192  0.1611 -0.2088
  176SAPI   C2620025   4.878   3.334   6.821  0.1753  0.5388  0.4079
  176SAPI   H6R20026   4.851   3.237   6.778  0.8516 -0.4566  2.1649
  176SAPI   C2720027   4.864   3.322   6.969  0.2252  0.3477 -0.6568
  176SAPI   H7R20028   4.757   3.336   6.994  0.8834  2.9405  1.2184
  176SAPI   H7S20029   4.911   3.413   7.012  1.5569  1.4387 -4.0850
  176SAPI   C2820030   4.919   3.193   7.026 -1.3009  0.4600  0.8587
  176SAPI   H8R20031   4.972   3.132   6.950 -0.4530 -1.3826  2.8304
  176SAPI   C2920032   4.935   3.158   7.158 -1.3654  0.2869  0.6457
  176SAPI   H9R20033   4.972   3.057   7.183  0.0796  0.0813 -1.8754
  176SAPI  C21020034   4.880   3.232   7.270  0.7339  0.3680 -0.4847
  176SAPI  H10R20035   4.818   3.318   7.237 -0.2464 -0.1138  0.0332
  176SAPI  H10S20036   4.962   3.271   7.334  0.6215  1.0207 -0.7296
  176SAPI  C21120037   4.784   3.149   7.361  0.2136  0.0093 -1.1724
  176SAPI  H11R20038   4.682   3.167   7.325 -0.1560 -1.5046 -0.9255
  176SAPI  C21220039   4.809   3.053   7.452 -0.4479  0.3811  0.3132
  176SAPI  H12R20040   4.735   3.015   7.524  0.0659  2.0663  1.7894
  176SAPI  C21320041   4.946   2.999   7.488  0.1934 -0.1716 -0.1929
  176SAPI  H13R20042   5.015   3.005   7.401  1.9124 -0.8660  1.0812
  176SAPI  H13S20043   4.932   2.890   7.504 -1.0723 -0.3916 -2.3836
  176SAPI  C21420044   5.012   3.084   7.590  0.2476  0.2204 -0.2927
  176SAPI  H14R20045   5.036   3.188   7.563  2.9378 -0.1166  0.4505
  176SAPI  C21520046   5.068   3.038   7.704  0.6342  0.1011  0.5325
  176SAPI  H15R20047   5.114   3.113   7.770  0.8025 -0.3507  0.9350
  176SAPI  C21620048   5.066   2.903   7.773  0.2615  0.1658  0.5661
  176SAPI  H16R20049   5.048   2.817   7.705  0.9573 -1.0805  1.8970
  176SAPI  H16S20050   4.975   2.900   7.837 -1.3302  0.7239 -1.5615
  176SAPI  C21720051   5.190   2.876   7.858 -0.1878 -0.3133  0.0953
  176SAPI  H17R20052   5.170   2.795   7.931 -1.5065 -0.6775 -0.6406
  176SAPI  H17S20053   5.213   2.963   7.923 -2.4571  0.4905 -0.0937
  176SAPI  C21820054   5.311   2.833   7.770  0.0805  0.0175 -0.3203
  176SAPI  H18R20055   5.333   2.911   7.694  0.2667  1.6999  1.3997
  176SAPI  H18S20056   5.296   2.733   7.723  2.7407 -0.3167 -0.6445
  176SAPI  C21920057   5.438   2.826   7.861  0.1936  0.1365  0.4318
  176SAPI  H19R20058   5.523   2.779   7.808  0.3039  0.0379  0.6955
  176SAPI  H19S20059   5.427   2.758   7.948  0.7672  0.6088  0.8820
  176SAPI  C22020060   5.495   2.968   7.900 -1.1436 -0.3429 -0.5198
  176SAPI  H20R20061   5.410   3.035   7.922  0.4027  1.5733 -0.1592
  176SAPI  H20S20062   5.561   3.020   7.827  1.5471  0.1480  2.0901
  176SAPI  H20T20063   5.553   2.975   7.994  0.1957 -3.5361 -0.9703
  176SAPI   C3320064   4.466   4.132   7.001 -0.5101 -0.3982 -0.1984
  176SAPI   H3X20065   4.549   4.206   7.008  0.4693 -1.2661 -1.9117
  176SAPI   H3Y20066   4.514   4.035   6.979 -0.7292 -0.1572 -1.8442
  176SAPI   C3420067   4.395   4.112   7.130  0.1278  0.3964  0.3433
  176SAPI   H4X20068   4.331   4.021   7.125  0.0332  0.5152 -2.0582
  176SAPI   H4Y20069   4.329   4.200   7.148 -0.1864  0.4800 -1.1068
  176SAPI   C3520070   4.491   4.089   7.244  0.0151 -0.4987 -0.0564
  176SAPI   H5X20071   4.542   4.186   7.267 -1.5278  0.0149  1.3868
  176SAPI   H5Y20072   4.568   4.017   7.209 -1.5652 -2.1016 -0.3614
  176SAPI   C3620073   4.435   4.038   7.371 -0.4964 -0.5711 -0.2116
  176SAPI   H6X20074   4.373   3.947   7.360 -0.6006 -0.6185  0.6777
  176SAPI   H6Y20075   4.362   4.112   7.409 -0.4481  0.0001 -1.2092
  176SAPI   C3720076   4.535   4.011   7.479  0.2013  0.8697 -0.6559
  176SAPI   H7X20077   4.616   4.087   7.491  0.8681  0.0328  0.4193
  176SAPI   H7Y20078   4.583   3.917   7.444 -0.6764  0.3379 -0.4711
  176SAPI   C3820079   4.458   3.992   7.617 -0.5722  0.1904  0.5358
  176SAPI   H8X20080   4.515   3.944   7.699  1.8229  1.7655 -0.1135
  176SAPI   H8Y20081   4.376   3.925   7.583  0.8820 -1.2642 -0.2295
  176SAPI   C3920082   4.396   4.114   7.676  0.5230 -0.0906 -0.0253
  176SAPI   H9X20083   4.319   4.143   7.601  0.0198 -0.3877  0.3694
  176SAPI   H9Y20084   4.472   4.195   7.679  0.5490 -0.0566 -1.0917
  176SAPI  C31020085   4.339   4.101   7.815  0.8314  0.7597  0.1610
  176SAPI  H10X20086   4.419   4.076   7.888  0.6264  0.3954  0.2653
  176SAPI  H10Y20087   4.271   4.013   7.822  0.3754  0.8782 -2.0084
  176SAPI  C31120088   4.271   4.221   7.870 -0.3217  0.0638 -0.6023
  176SAPI  H11X20089   4.193   4.192   7.944 -1.0961  0.0486 -1.4171
  176SAPI  H11Y20090   4.205   4.274   7.798 -1.7260  0.1937  0.7034
  176SAPI  C31220091   4.364   4.335   7.925  0.7989  0.5525 -0.1019
  176SAPI  H12X20092   4.305   4.413   7.979  2.4001  0.8543  1.2988
  176SAPI  H12Y20093   4.401   4.383   7.832 -0.6446  1.1019 -0.4239
  176SAPI  C31320094   4.475   4.294   8.018  0.5118  0.5683 -0.3037
  176SAPI  H13X20095   4.527   4.386   8.055  1.5895  0.7156 -2.0564
  176SAPI  H13Y20096   4.551   4.240   7.957  1.0654  2.5677 -1.4800
  176SAPI  C31420097   4.409   4.220   8.129 -0.4826  0.5913 -0.5086
  176SAPI  H14X20098   4.369   4.124   8.089 -2.9081  0.8209  1.1631
  176SAPI  H14Y20099   4.325   4.272   8.180 -0.2228 -0.0739  0.6474
  176SAPI  C31520100   4.503   4.180   8.252  0.0179 -1.0743  0.1737
  176SAPI  H15X20101   4.440   4.147   8.338  1.2459 -1.3017  1.0210
  176SAPI  H15Y20102   4.582   4.254   8.273 -0.6830 -0.2936  0.1152
  176SAPI  C31620103   4.579   4.051   8.239  0.8125  0.2546  0.1242
  176SAPI  H16X20104   4.639   4.041   8.146 -1.2096 -3.3181 -0.9798
  176SAPI  H16Y20105   4.514   3.962   8.229  1.0403  0.1104 -0.0774
  176SAPI  C31720106   4.674   4.036   8.362  0.3907  0.0814  0.0798
  176SAPI  H17X20107   4.685   4.138   8.406  0.9044  1.3388 -2.7645
  176SAPI  H17Y20108   4.769   3.998   8.319  0.0432 -1.3254  0.5182
  176SAPI  C31820109   4.627   3.928   8.462 -0.0413  0.3196 -0.3158
  176SAPI  H18X20110   4.715   3.924   8.530 -0.8361 -2.4235  0.6738
  176SAPI  H18Y20111   4.599   3.835   8.408  3.5473  0.0868 -2.1035
  176SAPI  H18Z20112   4.540   3.958   8.524 -1.0727 -0.2738 -1.4262
  177SLPC     N20113   5.781   0.719  10.954 -0.1987 -0.2600 -0.1292
  177SLPC   C1320114   5.713   0.822  10.869  0.1296  0.6014 -0.1914
  177SLPC  H13A20115   5.608   0.800  10.860  0.6578 -1.6996 -1.6275
  177SLPC  H13B20116   5.716   0.917  10.920  0.5801  0.5585 -0.1337
  177SLPC  H13C20117   5.757   0.831  10.770  0.6225  0.4254  0.0093
  177SLPC   C1420118   5.734   0.733  11.094  0.2454 -0.0180 -0.0646
  177SLPC  H14A20119   5.792   0.675  11.164  0.9285 -0.5509 -1.0521
  177SLPC  H14B20120   5.727   0.836  11.126 -1.1121  0.3019 -1.2833
  177SLPC  H14C20121   5.633   0.696  11.098  0.1064  0.2586 -0.8122
  177SLPC   C1520122   5.924   0.756  10.942 -0.2917 -0.7654  0.0309
  177SLPC  H15A20123   5.981   0.696  11.012 -0.1374 -1.5687 -0.7560
  177SLPC  H15B20124   5.970   0.732  10.848  0.3278 -0.0481  0.1405
  177SLPC  H15C20125   5.954   0.858  10.961 -1.1745 -0.1906 -1.5387
  177SLPC   C1220126   5.753   0.574  10.913  0.7667  0.7336  0.2664
  177SLPC  H12A20127   5.787   0.553  10.813  0.2560  2.5546 -0.3247
  177SLPC  H12B20128   5.647   0.557  10.911  0.8478  0.2797 -1.1520
  177SLPC   C1120129   5.791   0.464  11.018  0.6531 -0.0031 -0.2599
  177SLPC  H11A20130   5.749   0.379  10.959  2.4394 -0.3839 -1.0572
  177SLPC  H11B20131   5.729   0.466  11.110 -1.8679 -0.2279 -1.8798
  177SLPC     P20132   6.022   0.388  10.933  0.1421  0.4346 -0.2725
  177SLPC   O1320133   6.148   0.467  10.949  0.4981  0.6964  0.5697
  177SLPC   O1420134   6.034   0.244  10.961 -0.6651 -0.4839  0.0278
  177SLPC   O1220135   5.927   0.450  11.037  0.2917 -0.3315 -0.8508
  177SLPC   O1120136   5.957   0.410  10.791 -0.2005 -0.6147  0.2357
  177SLPC    C120137   5.893   0.296  10.732  0.3291  0.1877  0.0629
  177SLPC    HA20138   5.842   0.228  10.804  0.4724  1.0971  1.0596
  177SLPC    HB20139   5.803   0.323  10.673  0.0780 -0.1922  0.2615
  177SLPC    C220140   5.986   0.219  10.627  0.1583 -0.6379 -0.4095
  177SLPC    HS20141   6.062   0.173  10.694  0.6211 -0.5682 -0.8790
  177SLPC   O2120142   6.044   0.320  10.546 -0.3335  0.1738 -0.3109
  177SLPC   C2120143   6.169   0.290  10.499 -0.2462  0.2378  0.1498
  177SLPC   O2220144   6.233   0.189  10.532 -0.1947 -0.7726  0.0242
  177SLPC   C2220145   6.220   0.393  10.402  0.2074 -0.2686 -0.3246
  177SLPC   H2R20146   6.163   0.385  10.307  0.8951  0.0690 -0.7736
  177SLPC   H2S20147   6.194   0.490  10.449  2.1728 -0.0065  0.3200
  177SLPC    C320148   5.919   0.113  10.542  0.0444  0.6278  0.0015
  177SLPC    HX20149   5.900   0.021  10.601  0.3716 -0.5148 -1.6090
  177SLPC    HY20150   5.997   0.071  10.475 -0.4226  1.6815 -1.2517
  177SLPC   O3120151   5.808   0.165  10.470 -0.0681  0.4326 -0.5435
  177SLPC   C3120152   5.831   0.220  10.354 -0.8939 -0.1847  0.7116
  177SLPC   O3220153   5.942   0.232  10.302  0.0374  0.2024 -0.3205
  177SLPC   C3220154   5.705   0.248  10.283 -0.1662 -0.6706 -0.0371
  177SLPC   H2X20155   5.687   0.357  10.298 -1.7789 -1.0825  1.3227
  177SLPC   H2Y20156   5.628   0.189  10.336  2.3139 -2.5587  1.7074
  177SLPC   C2320157   6.364   0.377  10.369 -0.0082  0.6517 -0.0459
  177SLPC   H3R20158   6.399   0.273  10.352  0.8346  0.8044  0.6466
  177SLPC   H3S20159   6.434   0.408  10.450  1.4550  0.7248 -1.2815
  177SLPC   C2420160   6.399   0.448  10.232  0.1517 -0.0231 -0.0681
  177SLPC   H4R20161   6.348   0.545  10.215  0.0881  0.0266  0.4024
  177SLPC   H4S20162   6.355   0.377  10.158  1.6271 -2.8525  1.6054
  177SLPC   C2520163   6.548   0.429  10.197 -0.1414  0.3957 -0.1533
  177SLPC   H5R20164   6.567   0.320  10.202  0.0686  0.4327 -0.1127
  177SLPC   H5S20165   6.608   0.484  10.272 -0.6379  0.6401  0.0672
  177SLPC   C2620166   6.593   0.488  10.060  0.3055 -0.1694 -0.1060
  177SLPC   H6R20167   6.704   0.495  10.062  0.3810 -1.2092  1.8758
  177SLPC   H6S20168   6.549   0.589  10.043  2.9856  1.5023  1.8202
  177SLPC   C2720169   6.559   0.387   9.952 -0.1436 -0.1616  0.2300
  177SLPC   H7R20170   6.452   0.363   9.940  0.5697 -3.3174 -0.8425
  177SLPC   H7S20171   6.606   0.290   9.980 -2.0770 -0.9155  1.0603
  177SLPC   C2820172   6.596   0.428   9.806  0.0009  0.2732  0.1612
  177SLPC   H8R20173   6.531   0.513   9.776 -2.9549 -2.1071 -0.6921
  177SLPC   H8S20174   6.585   0.334   9.747  0.5943 -0.3612  1.0228
  177SLPC   C2920175   6.743   0.459   9.777 -0.3374 -0.6538  0.2566
  177SLPC   H9R20176   6.812   0.441   9.860  2.3458  0.5067 -1.5712
  177SLPC  C21020177   6.798   0.527   9.677 -0.3854  0.6948 -0.3022
  177SLPC  H10R20178   6.907   0.533   9.683 -0.3503 -0.4740  0.8675
  177SLPC  C21120179   6.736   0.579   9.549  0.5212 -0.4886 -0.1163
  177SLPC  H11R20180   6.625   0.581   9.559  0.4673 -2.9615  0.6077
  177SLPC  H11S20181   6.771   0.683   9.537 -0.6571  0.2669  2.2602
  177SLPC  C21220182   6.772   0.489   9.432  0.2149 -0.7321  0.0936
  177SLPC  H12R20183   6.745   0.383   9.450 -0.8390 -0.5108 -0.1019
  177SLPC  C21320184   6.818   0.513   9.308  0.3462 -0.3575 -0.4912
  177SLPC  H13R20185   6.850   0.420   9.259  0.5623 -0.9065  0.6604
  177SLPC  C21420186   6.850   0.644   9.247 -0.5113 -0.5148  0.2317
  177SLPC  H14R20187   6.958   0.662   9.266 -0.3501  0.3379 -1.3647
  177SLPC  H14S20188   6.792   0.728   9.291 -2.7464 -1.5680 -0.5436
  177SLPC  C21520189   6.824   0.647   9.100  0.5670 -0.6883  0.4721
  177SLPC  H15R20190   6.727   0.601   9.073 -0.2511  0.9901  0.3984
  177SLPC  H15S20191   6.895   0.573   9.057 -0.5069 -1.2579 -0.3443
  177SLPC  C21620192   6.853   0.784   9.026  0.2282 -0.0073 -0.2760
  177SLPC  H16R20193   6.950   0.820   9.066  1.1425 -2.4578 -0.0837
  177SLPC  H16S20194   6.772   0.848   9.066 -0.4316 -0.0338 -1.5252
  177SLPC  C21720195   6.848   0.769   8.877  0.2533  0.2704  0.0415
  177SLPC  H17R20196   6.843   0.873   8.838  1.1505  0.5887  0.7301
  177SLPC  H17S20197   6.750   0.728   8.846  0.2576 -0.4565  0.9478
  177SLPC  C21820198   6.945   0.688   8.807 -0.4556 -0.1764  0.1500
  177SLPC  H18R20199   6.939   0.583   8.841  1.5101 -1.0044 -1.8666
  177SLPC  H18S20200   7.047   0.731   8.819 -0.7263  0.6134 -0.2772
  177SLPC  H18T20201   6.916   0.689   8.700 -0.4928 -0.5348  0.1560
  177SLPC   C3320202   5.720   0.204  10.128  0.8499 -0.2506  0.1791
  177SLPC   H3X20203   5.750   0.102  10.097 -0.9778 -0.8125  0.1152
  177SLPC   H3Y20204   5.803   0.268  10.091 -0.1041  1.4854  0.9061
  177SLPC   C3420205   5.597   0.237  10.030 -0.0624 -0.4825  0.0435
  177SLPC   H4X20206   5.570   0.344  10.028  1.3175 -0.1167 -0.2910
  177SLPC   H4Y20207   5.506   0.186  10.068 -0.9062  0.8682 -0.1273
  177SLPC   C3520208   5.623   0.193   9.881 -1.0691 -0.5668  0.2827
  177SLPC   H5X20209   5.638   0.084   9.868  1.6319 -0.2497  0.1525
  177SLPC   H5Y20210   5.717   0.236   9.840 -0.7519  0.0286  1.6066
  177SLPC   C3620211   5.513   0.237   9.789  0.4453  0.5707  0.1503
  177SLPC   H6X20212   5.513   0.348   9.781  1.9097  0.5172 -1.0188
  177SLPC   H6Y20213   5.418   0.204   9.836  1.4640  1.2746  2.8793
  177SLPC   C3720214   5.531   0.182   9.652 -0.3335  0.3212  0.1489
  177SLPC   H7X20215   5.540   0.071   9.654  0.4133  0.3092 -1.7159
  177SLPC   H7Y20216   5.617   0.235   9.604 -0.5938  0.7909  0.2008
  177SLPC   C3820217   5.414   0.215   9.567 -0.3250  0.0027  0.2140
  177SLPC   H8X20218   5.420   0.317   9.522 -0.7317 -0.1588 -0.2239
  177SLPC   H8Y20219   5.325   0.199   9.631  0.9772  0.8195  2.3129
  177SLPC   C3920220   5.415   0.115   9.437 -0.0856 -0.0809 -0.1903
  177SLPC   H9X20221   5.356   0.024   9.459 -2.4969  1.2425 -0.8238
  177SLPC   H9Y20222   5.522   0.089   9.422  0.0767 -0.8936  2.0576
  177SLPC  C31020223   5.352   0.175   9.306  0.6903  0.5532 -0.3069
  177SLPC  H10X20224   5.414   0.259   9.270 -0.1186  2.1785  1.8675
  177SLPC  H10Y20225   5.251   0.205   9.341  1.5224  2.5908  0.5285
  177SLPC  C31120226   5.374   0.069   9.203 -0.3325 -0.0274  0.9946
  177SLPC  H11X20227   5.347  -0.034   9.233  3.2367 -1.7964 -1.1068
  177SLPC  H11Y20228   5.484   0.068   9.188 -0.3175  2.0212  0.6645
  177SLPC  C31220229   5.302   0.110   9.073  0.8769 -0.3466 -0.1279
  177SLPC  H12X20230   5.334   0.215   9.053  0.4370 -0.1929 -0.0545
  177SLPC  H12Y20231   5.192   0.126   9.073  1.0722  1.2607 -1.1742
  177SLPC  C31320232   5.335   0.020   8.949 -0.0497  0.3339 -0.8122
  177SLPC  H13X20233   5.310  -0.083   8.986  0.2226  0.5063 -0.1242
  177SLPC  H13Y20234   5.445   0.024   8.938  0.0199 -0.6851 -0.6135
  177SLPC  C31420235   5.251   0.055   8.826  0.4610 -0.4234 -0.1607
  177SLPC  H14X20236   5.251   0.166   8.822  1.1849 -0.2962  2.2165
  177SLPC  H14Y20237   5.149   0.012   8.841 -0.5101  1.7790 -0.0117
  177SLPC  C31520238   5.302  -0.003   8.687 -0.2178 -1.2344 -0.5757
  177SLPC  H15X20239   5.401   0.047   8.676 -1.5995  2.3042  1.5161
  177SLPC  H15Y20240   5.234   0.030   8.606 -2.0869 -1.9271  0.6513
  177SLPC  C31620241   5.304  -0.159   8.711  0.3019 -0.0396  0.0842
  177SLPC  H16X20242   5.212  -0.182   8.768  0.4263 -1.0191 -0.0998
  177SLPC  H16Y20243   5.394  -0.190   8.768  0.0537 -1.9633 -0.4974
  177SLPC  C31720244   5.295  -0.245   8.586  0.3096  0.5057 -0.0800
  177SLPC  H17X20245   5.201  -0.243   8.527  0.5091  0.7430 -0.3924
  177SLPC  H17Y20246   5.313  -0.352   8.613  4.1781  0.9097 -0.5160
  177SLPC  C31820247   5.420  -0.216   8.495  0.2064 -0.1064  0.1967
  177SLPC  H18X20248   5.457  -0.311   8.452  2.0293 -0.3022  2.0709
  177SLPC  H18Y20249   5.509  -0.170   8.543 -0.1475 -1.1545  1.9489
  177SLPC  H18Z20250   5.396  -0.150   8.408 -0.1489 -1.2682 -0.6076
  178SLPC     N20251   1.360   3.260  11.153  0.4604 -0.2172  0.4964
  178SLPC   C1320252   1.326   3.144  11.247  0.5624  1.0006  0.6556
  178SLPC  H13A20253   1.319   3.051  11.192 -1.3989  1.1374  0.5964
  178SLPC  H13B20254   1.404   3.131  11.320 -0.5573 -0.1725  1.7010
  178SLPC  H13C20255   1.232   3.157  11.299  0.1543 -1.6701  0.7701
  178SLPC   C1420256   1.393   3.376  11.237  0.3826 -1.3252  0.0503
  178SLPC  H14A20257   1.306   3.406  11.293 -0.4054  0.0781 -1.7927
  178SLPC  H14B20258   1.472   3.364  11.309  1.4716 -0.0535 -0.8733
  178SLPC  H14C20259   1.407   3.458  11.167 -2.1984 -0.0043  0.9611
  178SLPC   C1520260   1.238   3.295  11.073  0.1317 -0.4136  0.5582
  178SLPC  H15A20261   1.170   3.361  11.126  0.7770  1.6942 -1.1353
  178SLPC  H15B20262   1.269   3.337  10.979  3.0223  0.8786  1.9818
  178SLPC  H15C20263   1.200   3.202  11.033  0.9145  0.2315 -1.8073
  178SLPC   C1220264   1.482   3.228  11.064 -0.2746  0.0591  0.6644
  178SLPC  H12A20265   1.451   3.144  11.005 -1.0678  0.3374  0.6668
  178SLPC  H12B20266   1.563   3.193  11.126 -0.6766 -0.1560  1.0786
  178SLPC   C1120267   1.536   3.338  10.964  0.9978  0.5917  0.0860
  178SLPC  H11A20268   1.447   3.386  10.918  0.7719  0.3089  0.2253
  178SLPC  H11B20269   1.584   3.282  10.881 -1.1466 -2.6201  0.8223
  178SLPC     P20270   1.754   3.413  11.087 -0.3197  0.0925 -0.4124
  178SLPC   O1320271   1.809   3.544  11.128  0.0269 -0.0668  0.5327
  178SLPC   O1420272   1.754   3.299  11.181  0.2745  0.0354  0.0868
  178SLPC   O1220273   1.616   3.439  11.023 -0.1845 -0.0269 -0.0223
  178SLPC   O1120274   1.832   3.364  10.958  0.4817 -0.1047  0.3847
  178SLPC    C120275   1.890   3.447  10.851 -0.1347  0.3244  0.8142
  178SLPC    HA20276   1.903   3.554  10.876  0.5992  0.4538 -0.0556
  178SLPC    HB20277   1.992   3.414  10.821 -1.3494 -2.8339 -0.3435
  178SLPC    C220278   1.813   3.449  10.717 -0.0562 -0.2615  0.0702
  178SLPC    HS20279   1.720   3.504  10.744  0.9554  1.1940  0.6762
  178SLPC   O2120280   1.785   3.304  10.685  0.7221  0.1747 -0.3618
  178SLPC   C2120281   1.674   3.282  10.634 -0.4584  0.0103  0.2834
  178SLPC   O2220282   1.583   3.360  10.611  0.2958  0.3515 -0.4935
  178SLPC   C2220283   1.665   3.134  10.602  0.1991 -0.6277  0.8673
  178SLPC   H2R20284   1.696   3.080  10.694 -2.1215 -0.9332  1.5179
  178SLPC   H2S20285   1.560   3.102  10.590  0.4440 -0.7474 -1.1550
  178SLPC    C320286   1.888   3.523  10.609 -0.2575 -0.6525 -0.3520
  178SLPC    HX20287   1.995   3.501  10.624  0.5682  1.8541 -2.0028
  178SLPC    HY20288   1.897   3.627  10.647  4.1618 -0.7113 -0.7970
  178SLPC   O3120289   1.838   3.492  10.481 -0.2660 -0.7086 -0.2751
  178SLPC   C3120290   1.791   3.595  10.415 -0.4569  0.4846  0.0769
  178SLPC   O3220291   1.806   3.712  10.445  0.1682  0.2812 -0.5177
  178SLPC   C3220292   1.731   3.551  10.287  0.2420 -0.1787 -0.7263
  178SLPC   H2X20293   1.648   3.480  10.308  0.7381 -0.7563 -0.6969
  178SLPC   H2Y20294   1.798   3.489  10.223 -2.9406 -1.0722 -3.5015
  178SLPC   C2320295   1.740   3.084  10.468  0.8234  0.1624 -0.0357
  178SLPC   H3R20296   1.731   2.974  10.459  0.9795  0.1905 -0.5629
  178SLPC   H3S20297   1.847   3.116  10.464  0.8576  0.1405  0.5668
  178SLPC   C2420298   1.654   3.134  10.347  0.3685 -0.1679  0.3563
  178SLPC   H4R20299   1.648   3.245  10.356  2.6170  0.4500 -3.6301
  178SLPC   H4S20300   1.548   3.101  10.357  0.3639 -0.3159 -0.1633
  178SLPC   C2520301   1.714   3.112  10.211  0.4850  0.3544 -0.2959
  178SLPC   H5R20302   1.650   3.147  10.128  2.1967 -0.9422 -2.2950
  178SLPC   H5S20303   1.729   3.002  10.205 -0.9004 -0.0027  1.7313
  178SLPC   C2620304   1.856   3.167  10.200 -0.4125  0.4131  0.0265
  178SLPC   H6R20305   1.921   3.112  10.270  1.1267  0.5909 -1.2121
  178SLPC   H6S20306   1.848   3.273  10.232  0.5248  0.0061  1.6954
  178SLPC   C2720307   1.921   3.169  10.059 -0.1889  0.1743  0.0145
  178SLPC   H7R20308   2.001   3.246  10.047 -0.2112  0.3835  1.1458
  178SLPC   H7S20309   1.853   3.192   9.974 -0.2591 -2.0892 -0.6090
  178SLPC   C2820310   1.983   3.027  10.036 -0.1169  0.1543 -0.2062
  178SLPC   H8R20311   2.005   2.981  10.135 -1.4461 -2.6450 -1.0887
  178SLPC   H8S20312   2.080   3.045   9.985  0.4415  0.1290  0.8382
  178SLPC   C2920313   1.896   2.914   9.978  0.0909 -0.0515 -0.0686
  178SLPC   H9R20314   1.854   2.841  10.049 -0.8487  1.3499  0.8542
  178SLPC  C21020315   1.896   2.878   9.846 -0.1522 -0.2878 -0.4482
  178SLPC  H10R20316   1.839   2.786   9.830 -0.2524 -0.3778  0.3783
  178SLPC  C21120317   1.963   2.953   9.731  0.0726 -0.2671  0.5613
  178SLPC  H11R20318   2.027   2.880   9.675 -0.0595  0.9184 -1.2172
  178SLPC  H11S20319   2.024   3.044   9.752  1.3067 -0.8151 -0.4629
  178SLPC  C21220320   1.847   2.991   9.639 -0.4575  0.4333 -0.0169
  178SLPC  H12R20321   1.747   2.975   9.683  0.3588 -3.8442  0.8221
  178SLPC  C21320322   1.854   3.026   9.508  0.0391  0.0281  0.3056
  178SLPC  H13R20323   1.771   3.063   9.446 -0.3019 -0.6446  0.3500
  178SLPC  C21420324   1.983   3.032   9.429  0.3059 -0.3618  0.6251
  178SLPC  H14R20325   2.066   3.039   9.503  0.8528  0.5723 -0.0573
  178SLPC  H14S20326   1.991   3.128   9.374  0.2682 -0.5348  0.3177
  178SLPC  C21520327   2.015   2.909   9.335  0.3959  0.6035 -0.1142
  178SLPC  H15R20328   2.025   2.816   9.394  0.8590  0.7455  0.0367
  178SLPC  H15S20329   2.115   2.934   9.294  1.8602 -2.3953  1.3115
  178SLPC  C21620330   1.919   2.880   9.225  0.1973  0.4777  0.1594
  178SLPC  H16R20331   1.897   2.979   9.179  0.3851  0.0090 -0.9863
  178SLPC  H16S20332   1.825   2.841   9.271  0.3322  0.1594  0.1697
  178SLPC  C21720333   1.973   2.793   9.105  0.3612  1.0069 -0.0242
  178SLPC  H17R20334   1.988   2.686   9.132 -1.6845  1.0692  1.5857
  178SLPC  H17S20335   2.078   2.819   9.077  0.5044  1.5430  0.9594
  178SLPC  C21820336   1.902   2.807   8.975  0.4276  0.2933 -0.0546
  178SLPC  H18R20337   1.793   2.791   8.989  0.7637 -1.0226  1.2156
  178SLPC  H18S20338   1.936   2.740   8.893  0.6513 -1.1172  1.1722
  178SLPC  H18T20339   1.903   2.913   8.941 -0.4005  0.0780 -0.8010
  178SLPC   C3320340   1.671   3.668  10.206  0.5888 -0.4795 -0.0165
  178SLPC   H3X20341   1.748   3.748  10.197  1.6391 -1.5144 -0.5035
  178SLPC   H3Y20342   1.584   3.704  10.265  0.9477  0.0981  0.1794
  178SLPC   C3420343   1.622   3.625  10.063 -0.2412  0.1736 -0.0472
  178SLPC   H4X20344   1.589   3.719  10.012  1.3041  0.1825 -1.1055
  178SLPC   H4Y20345   1.536   3.558  10.085 -0.4737 -0.0786 -1.6057
  178SLPC   C3520346   1.727   3.564   9.974  0.1719  0.5837  0.4670
  178SLPC   H5X20347   1.747   3.465  10.021  0.1521  0.2248 -0.2727
  178SLPC   H5Y20348   1.818   3.625   9.958  1.3149 -1.1928 -0.0389
  178SLPC   C3620349   1.685   3.537   9.829  0.9547  0.2860  0.2741
  178SLPC   H6X20350   1.769   3.501   9.766  0.9282  0.5889  0.0599
  178SLPC   H6Y20351   1.656   3.632   9.779 -1.3758  0.0202  1.0073
  178SLPC   C3720352   1.566   3.438   9.810 -0.4900  0.0975 -0.5847
  178SLPC   H7X20353   1.464   3.483   9.818  0.4170  2.0764  0.5831
  178SLPC   H7Y20354   1.582   3.361   9.889 -0.7524 -1.0154 -1.5928
  178SLPC   C3820355   1.570   3.349   9.681  0.2926 -0.4097 -0.3451
  178SLPC   H8X20356   1.495   3.268   9.693  1.3239 -1.3835 -0.2507
  178SLPC   H8Y20357   1.664   3.289   9.685  0.1871 -0.5473  0.1876
  178SLPC   C3920358   1.549   3.425   9.554 -0.3608 -0.1751 -0.2522
  178SLPC   H9X20359   1.610   3.517   9.568  0.4144 -0.6646 -0.3564
  178SLPC   H9Y20360   1.444   3.460   9.539  0.0092  1.2411  0.3059
  178SLPC  C31020361   1.586   3.342   9.430 -0.5197  0.3549  0.3670
  178SLPC  H10X20362   1.528   3.248   9.434  1.8910 -1.2918 -0.4306
  178SLPC  H10Y20363   1.687   3.304   9.456  0.3440  1.4901 -1.1227
  178SLPC  C31120364   1.576   3.412   9.296  0.0924  0.1209  0.0459
  178SLPC  H11X20365   1.638   3.504   9.297 -1.9240  1.5245 -0.3342
  178SLPC  H11Y20366   1.472   3.439   9.270 -0.5310  0.7517  2.8809
  178SLPC  C31220367   1.637   3.319   9.189 -0.1958  0.1783 -0.0106
  178SLPC  H12X20368   1.551   3.254   9.164 -1.0036  1.6812 -1.3697
  178SLPC  H12Y20369   1.720   3.263   9.237 -2.0017 -0.7815  2.1906
  178SLPC  C31320370   1.672   3.380   9.052 -0.0603 -0.5170  0.3107
  178SLPC  H13X20371   1.750   3.456   9.073 -1.5391  1.5004 -1.1755
  178SLPC  H13Y20372   1.577   3.427   9.019  0.8824  0.4994 -1.0627
  178SLPC  C31420373   1.711   3.278   8.951  0.4203 -0.0406 -0.3406
  178SLPC  H14X20374   1.627   3.205   8.941  0.9932 -0.9100  0.8753
  178SLPC  H14Y20375   1.801   3.221   8.983  0.5282  0.4934  0.3300
  178SLPC  C31520376   1.735   3.345   8.821 -0.7991 -0.7063  0.9361
  178SLPC  H15X20377   1.645   3.394   8.779  0.0285 -1.5103 -2.0726
  178SLPC  H15Y20378   1.817   3.419   8.830  0.0441 -1.3865 -0.6238
  178SLPC  C31620379   1.780   3.242   8.717  0.6025 -0.9610  0.5057
  178SLPC  H16X20380   1.705   3.161   8.712 -1.1311  0.5980  0.0974
  178SLPC  H16Y20381   1.871   3.189   8.754  1.0542 -0.1137  0.6433
  178SLPC  C31720382   1.799   3.292   8.570 -0.2713  0.2609 -0.0935
  178SLPC  H17X20383   1.816   3.202   8.507  2.9713  0.6445  0.0898
  178SLPC  H17Y20384   1.900   3.337   8.558 -0.2337 -0.0148 -0.8699
  178SLPC  C31820385   1.690   3.384   8.516 -0.1849 -0.5020  0.1271
  178SLPC  H18X20386   1.716   3.406   8.410 -0.5400 -3.1785 -0.5692
  178SLPC  H18Y20387   1.692   3.480   8.572  1.4072  0.3723 -1.3314
  178SLPC  H18Z20388   1.590   3.336   8.525 -0.4283 -0.6657 -2.4920
  179SLPC     N20389   4.107   6.334  10.766  0.2802 -0.1601  0.2029
  179SLPC   C1320390   4.035   6.465  10.724  0.0619  0.4311  0.0983
  179SLPC  H13A20391   4.092   6.539  10.671 -1.7410  1.8661  0.0891
  179SLPC  H13B20392   3.947   6.443  10.665  1.4380  0.5546 -2.1199
  179SLPC  H13C20393   4.007   6.519  10.813  0.6793  0.4765  0.2751
  179SLPC   C1420394   4.020   6.275  10.871 -0.0044 -0.3392 -0.1356
  179SLPC  H14A20395   4.067   6.184  10.907  1.0746  0.0506 -0.5118
  179SLPC  H14B20396   4.015   6.334  10.961  2.2053 -1.3471  0.7334
  179SLPC  H14C20397   3.920   6.249  10.841 -0.5313  0.5616  0.7936
  179SLPC   C1520398   4.242   6.368  10.822  0.2512 -0.2168 -0.1422
  179SLPC  H15A20399   4.293   6.289  10.874 -2.2792 -1.6146  0.4122
  179SLPC  H15B20400   4.310   6.421  10.757  1.8892 -1.4197  0.5154
  179SLPC  H15C20401   4.226   6.437  10.904 -1.4122 -2.0762  1.1989
  179SLPC   C1220402   4.128   6.247  10.641 -0.0087 -0.2978  0.7009
  179SLPC  H12A20403   4.195   6.300  10.574 -3.0931 -0.4302 -2.8161
  179SLPC  H12B20404   4.040   6.240  10.580  1.8587  1.3190 -2.4437
  179SLPC   C1120405   4.187   6.108  10.669 -0.1672 -0.2067 -0.1103
  179SLPC  H11A20406   4.139   6.032  10.604  0.0556 -1.5213  1.1979
  179SLPC  H11B20407   4.146   6.068  10.764  2.1700 -1.1181  0.6029
  179SLPC     P20408   4.424   6.067  10.534  0.2972 -0.2498 -0.1420
  179SLPC   O1320409   4.456   6.195  10.463 -0.7557 -0.0286 -0.5933
  179SLPC   O1420410   4.537   5.986  10.580 -0.2479  0.3628  0.1783
  179SLPC   O1220411   4.332   6.104  10.664 -0.6879 -0.4949 -0.3609
  179SLPC   O1120412   4.332   5.977  10.454  0.0096  0.2828  0.5525
  179SLPC    C120413   4.379   5.852  10.399 -0.0596 -0.4815 -0.1854
  179SLPC    HA20414   4.478   5.859  10.349 -0.1711  2.6412 -0.1359
  179SLPC    HB20415   4.373   5.771  10.475 -1.8009 -1.8980 -1.7472
  179SLPC    C220416   4.274   5.819  10.283 -1.0878 -0.6713 -0.9504
  179SLPC    HS20417   4.308   5.719  10.246  0.9534  0.0448 -1.1289
  179SLPC   O2120418   4.289   5.914  10.176 -0.5443  0.2264  0.2106
  179SLPC   C2120419   4.267   5.867  10.058 -0.1300 -0.3717  0.1313
  179SLPC   O2220420   4.252   5.752  10.028 -0.5485 -0.3517 -0.2002
  179SLPC   C2220421   4.273   5.990   9.965  0.8181  0.1927 -0.6015
  179SLPC   H2R20422   4.182   6.052   9.979  0.5752 -0.5319  1.3738
  179SLPC   H2S20423   4.365   6.044   9.996 -0.0150  1.9395 -1.0840
  179SLPC    C320424   4.122   5.811  10.331 -0.4742 -0.2046  0.8109
  179SLPC    HX20425   4.105   5.908  10.384 -0.0069  1.0601 -1.2504
  179SLPC    HY20426   4.116   5.731  10.408  0.4363 -0.0531  1.0639
  179SLPC   O3120427   4.026   5.798  10.225 -0.0559  0.5890  0.4055
  179SLPC   C3120428   3.978   5.664  10.222  0.2479  0.1030 -0.2144
  179SLPC   O3220429   4.003   5.574  10.297  0.5714 -0.2592 -0.3667
  179SLPC   C3220430   3.891   5.644  10.099  0.5391 -0.3339  0.0650
  179SLPC   H2X20431   3.903   5.740  10.045  0.9516  0.0921  0.9029
  179SLPC   H2Y20432   3.788   5.626  10.134  0.5052 -0.1396  0.0639
  179SLPC   C2320433   4.292   5.934   9.829  0.3284 -0.3990  0.4516
  179SLPC   H3R20434   4.211   5.866   9.795  0.7359 -0.0172 -1.3762
  179SLPC   H3S20435   4.380   5.867   9.841  0.3843 -0.0338  2.6621
  179SLPC   C2420436   4.330   6.032   9.727  0.6574 -0.2075  0.0061
  179SLPC   H4R20437   4.406   6.105   9.762 -1.2549  2.7986 -1.7245
  179SLPC   H4S20438   4.248   6.094   9.686  1.7925  0.3354 -1.5250
  179SLPC   C2520439   4.394   5.971   9.603 -0.3643 -1.0777  0.0513
  179SLPC   H5R20440   4.455   5.884   9.637  1.9517  0.5781  0.3346
  179SLPC   H5S20441   4.467   6.041   9.559 -3.0852  1.3157 -0.9446
  179SLPC   C2620442   4.290   5.939   9.495  0.2699  0.1092  0.1122
  179SLPC   H6R20443   4.262   6.029   9.437 -0.4508 -0.1056  0.1252
  179SLPC   H6S20444   4.197   5.896   9.538  1.0752 -1.2189  0.5935
  179SLPC   C2720445   4.350   5.847   9.386 -0.8465 -0.4030  0.0231
  179SLPC   H7R20446   4.343   5.743   9.425 -0.2196 -0.8275 -0.9457
  179SLPC   H7S20447   4.455   5.878   9.371 -0.6353 -0.6910  0.8751
  179SLPC   C2820448   4.284   5.837   9.245 -0.1075 -0.2360  0.1315
  179SLPC   H8R20449   4.181   5.802   9.268  0.0213 -0.2304  0.7419
  179SLPC   H8S20450   4.340   5.755   9.195 -0.8317 -0.2412 -0.6997
  179SLPC   C2920451   4.291   5.970   9.170 -0.2171  0.9038  0.4831
  179SLPC   H9R20452   4.284   6.058   9.235 -0.2414  0.5800  0.9243
  179SLPC  C21020453   4.290   5.990   9.033  0.3047 -0.2085 -0.2944
  179SLPC  H10R20454   4.295   6.097   9.004  0.3733  0.0625  0.6860
  179SLPC  C21120455   4.298   5.883   8.923  0.2486  0.1761  0.5173
  179SLPC  H11R20456   4.220   5.903   8.847  0.4215  0.5725  0.4412
  179SLPC  H11S20457   4.262   5.787   8.967  2.6573  0.4731  3.5147
  179SLPC  C21220458   4.442   5.877   8.864  0.2555  0.5110 -0.4715
  179SLPC  H12R20459   4.516   5.836   8.934 -0.8014 -1.8688 -0.6523
  179SLPC  C21320460   4.483   5.916   8.746  0.2201 -0.3771 -0.3973
  179SLPC  H13R20461   4.589   5.911   8.714  1.2833  3.6704  1.8895
  179SLPC  C21420462   4.405   5.978   8.628  0.5189  0.6354 -0.0595
  179SLPC  H14R20463   4.307   6.013   8.666  0.1683 -0.9803  0.5851
  179SLPC  H14S20464   4.382   5.894   8.559 -0.3292  0.8455 -0.0437
  179SLPC  C21520465   4.466   6.086   8.540  0.6179  0.6689 -1.0682
  179SLPC  H15R20466   4.560   6.050   8.494  0.1358 -0.9455 -0.8205
  179SLPC  H15S20467   4.488   6.180   8.596  0.9323  0.1434 -0.3023
  179SLPC  C21620468   4.375   6.128   8.428 -0.2923 -0.2597  0.4618
  179SLPC  H16R20469   4.271   6.129   8.467 -0.0197  2.4729  1.3320
  179SLPC  H16S20470   4.372   6.062   8.338  0.2830  1.3806 -0.8249
  179SLPC  C21720471   4.401   6.278   8.383  0.2654 -0.0992  0.2226
  179SLPC  H17R20472   4.505   6.306   8.410 -0.3483  2.2440  0.3868
  179SLPC  H17S20473   4.328   6.340   8.438  0.6914 -1.0932  1.9814
  179SLPC  C21820474   4.387   6.287   8.228 -1.0984 -0.3953  0.1790
  179SLPC  H18R20475   4.281   6.283   8.194 -1.3295 -1.7340  0.9973
  179SLPC  H18S20476   4.454   6.216   8.175  2.8963  2.3779  1.0318
  179SLPC  H18T20477   4.435   6.382   8.196 -0.7549 -0.9034 -0.8433
  179SLPC   C3320478   3.927   5.518  10.013  0.2946  0.2466  0.1994
  179SLPC   H3X20479   3.926   5.431  10.082  2.9156 -1.5561 -1.8412
  179SLPC   H3Y20480   4.026   5.530   9.964  0.0684  2.3721  0.1576
  179SLPC   C3420481   3.822   5.492   9.905  0.4521  0.4530  0.9017
  179SLPC   H4X20482   3.804   5.584   9.844  0.5832 -0.0172  0.1369
  179SLPC   H4Y20483   3.716   5.475   9.934  0.5746  0.3438  1.2922
  179SLPC   C3520484   3.854   5.380   9.801 -0.1022  0.2268  0.5903
  179SLPC   H5X20485   3.860   5.285   9.858  0.0356  1.4372  2.6935
  179SLPC   H5Y20486   3.952   5.404   9.756 -0.8144 -0.8087 -1.7038
  179SLPC   C3620487   3.762   5.369   9.675  0.4369 -0.7467  0.1557
  179SLPC   H6X20488   3.654   5.362   9.700  0.4575  1.4197  1.1357
  179SLPC   H6Y20489   3.801   5.291   9.606 -0.1578 -0.7928 -0.1394
  179SLPC   C3720490   3.763   5.492   9.592  0.3521 -0.5190  0.3560
  179SLPC   H7X20491   3.866   5.510   9.553  1.4048 -0.8124  2.8165
  179SLPC   H7Y20492   3.731   5.582   9.648 -2.2530 -1.3687  0.3496
  179SLPC   C3820493   3.655   5.495   9.476 -0.0581  0.3731 -0.0484
  179SLPC   H8X20494   3.678   5.586   9.416  0.9417  0.7662  0.9029
  179SLPC   H8Y20495   3.550   5.503   9.511 -0.8051 -3.3155 -1.0488
  179SLPC   C3920496   3.661   5.367   9.387 -0.0217  0.6042  0.0070
  179SLPC   H9X20497   3.626   5.277   9.442 -0.6375  1.3777  0.9220
  179SLPC   H9Y20498   3.768   5.343   9.366  0.0143  1.1056 -0.3887
  179SLPC  C31020499   3.578   5.392   9.258 -0.0956 -1.1042  0.3951
  179SLPC  H10X20500   3.628   5.475   9.203 -1.7462  0.5991  1.3113
  179SLPC  H10Y20501   3.478   5.435   9.280  0.6139  0.1247  1.3597
  179SLPC  C31120502   3.560   5.274   9.166 -0.4288 -0.1735  0.3600
  179SLPC  H11X20503   3.512   5.306   9.071 -1.8528  0.0176  1.1128
  179SLPC  H11Y20504   3.493   5.201   9.218 -1.6828  0.4342 -0.3570
  179SLPC  C31220505   3.696   5.206   9.129  0.0293 -0.8745 -0.0273
  179SLPC  H12X20506   3.755   5.187   9.221 -1.1370  0.3934  1.0181
  179SLPC  H12Y20507   3.748   5.276   9.060 -2.1385 -0.0451 -0.8893
  179SLPC  C31320508   3.681   5.072   9.062  0.0227  0.0838 -0.4675
  179SLPC  H13X20509   3.638   5.014   9.147  0.4169  3.5907  2.3529
  179SLPC  H13Y20510   3.782   5.031   9.042 -0.7506 -1.0579 -2.3482
  179SLPC  C31420511   3.590   5.066   8.933 -0.1677 -0.3322 -1.0720
  179SLPC  H14X20512   3.496   5.119   8.960 -0.7818 -1.6635 -0.5201
  179SLPC  H14Y20513   3.560   4.960   8.923 -1.1126 -0.4351  1.8266
  179SLPC  C31520514   3.660   5.130   8.816 -0.3477 -0.1532  0.3434
  179SLPC  H15X20515   3.768   5.122   8.842 -0.3643  3.0508  1.8770
  179SLPC  H15Y20516   3.633   5.238   8.808  0.1865  0.0366  0.9643
  179SLPC  C31620517   3.636   5.065   8.684  0.0287  0.4498  0.9014
  179SLPC  H16X20518   3.701   5.116   8.609  2.0765 -0.6233  1.8581
  179SLPC  H16Y20519   3.531   5.079   8.650  0.4800  0.6389 -0.4903
  179SLPC  C31720520   3.668   4.912   8.675  0.7676  0.6300 -1.7683
  179SLPC  H17X20521   3.665   4.874   8.571 -2.5493 -0.6259 -1.3320
  179SLPC  H17Y20522   3.586   4.857   8.727  3.6253 -0.6658  1.7748
  179SLPC  C31820523   3.802   4.857   8.732 -0.8864  0.3165  1.0167
  179SLPC  H18X20524   3.823   4.896   8.833  0.1876  0.5295  0.7225
  179SLPC  H18Y20525   3.886   4.880   8.663 -1.4831  0.9392  0.4770
  179SLPC  H18Z20526   3.799   4.746   8.733 -1.1163  0.2965 -0.1062
  180SLPC     N20527   3.361   3.973  11.095 -0.3342  0.1881 -0.3298
  180SLPC   C1320528   3.444   4.102  11.113  0.8358  0.1723 -0.4617
  180SLPC  H13A20529   3.536   4.102  11.057  0.9103 -2.4590 -0.4668
  180SLPC  H13B20530   3.380   4.182  11.079 -1.9090 -1.8699 -0.4648
  180SLPC  H13C20531   3.467   4.117  11.217  2.3203 -0.7910 -0.6326
  180SLPC   C1420532   3.220   4.006  11.143 -0.5598 -0.2208 -0.2060
  180SLPC  H14A20533   3.230   4.050  11.242 -0.2488  1.0146 -0.7603
  180SLPC  H14B20534   3.182   4.083  11.078  1.8879  0.7931 -0.5647
  180SLPC  H14C20535   3.151   3.924  11.148 -0.4948 -0.5571 -3.2551
  180SLPC   C1520536   3.424   3.867  11.186 -0.2469 -0.9029 -0.0860
  180SLPC  H15A20537   3.513   3.823  11.143  0.3610 -0.1559  0.3781
  180SLPC  H15B20538   3.457   3.909  11.280  0.4706 -1.4741 -0.0714
  180SLPC  H15C20539   3.365   3.779  11.204  1.4838 -2.1245 -0.1536
  180SLPC   C1220540   3.360   3.931  10.946  0.4496  0.3146 -0.0827
  180SLPC  H12A20541   3.462   3.915  10.914  0.3968  0.8739 -0.5604
  180SLPC  H12B20542   3.329   4.016  10.888 -1.0485 -0.2296 -0.1407
  180SLPC   C1120543   3.291   3.803  10.911  0.8641  0.0947 -0.0078
  180SLPC  H11A20544   3.320   3.725  10.985  3.9530  1.2459  0.1373
  180SLPC  H11B20545   3.323   3.763  10.812 -0.2053 -1.0958  0.0956
  180SLPC     P20546   3.058   3.894  10.827  0.1682  0.1878  0.2740
  180SLPC   O1320547   2.992   3.802  10.739  0.0227 -0.4677  0.3559
  180SLPC   O1420548   2.973   3.973  10.913 -0.0226  0.1297 -0.0996
  180SLPC   O1220549   3.148   3.809  10.923  0.1645  0.5903 -0.2150
  180SLPC   O1120550   3.167   3.981  10.749 -0.0110  0.2222  0.1187
  180SLPC    C120551   3.160   4.116  10.706 -0.3179 -0.2051  0.2261
  180SLPC    HA20552   3.182   4.182  10.793  1.5778 -0.5520  0.0524
  180SLPC    HB20553   3.242   4.136  10.634 -0.2050 -0.3699  0.3113
  180SLPC    C220554   3.026   4.142  10.628  0.4624  0.2995  0.2127
  180SLPC    HS20555   2.947   4.107  10.698 -1.2421 -0.6344 -2.0589
  180SLPC   O2120556   3.014   4.057  10.513 -0.1368 -0.3062 -0.7859
  180SLPC   C2120557   2.898   4.012  10.468  0.4089  0.1621 -0.3468
  180SLPC   O2220558   2.789   4.048  10.512 -0.7495 -0.3286  0.1248
  180SLPC   C2220559   2.923   3.922  10.346 -0.0712  0.0788  0.3361
  180SLPC   H2R20560   2.870   3.956  10.255  3.7783 -1.2935 -2.6781
  180SLPC   H2S20561   3.031   3.919  10.320 -0.1432  3.0319 -0.6668
  180SLPC    C320562   3.014   4.285  10.591  0.4280  0.3104  0.0222
  180SLPC    HX20563   3.116   4.305  10.553  0.9694  0.8716  1.6433
  180SLPC    HY20564   3.009   4.335  10.691 -2.5431  0.3575 -0.0588
  180SLPC   O3120565   2.902   4.336  10.511  0.5940  0.3155  0.2487
  180SLPC   C3120566   2.941   4.377  10.384  0.4883 -0.7918 -0.1848
  180SLPC   O3220567   3.054   4.366  10.338  0.5237 -0.2048  0.2973
  180SLPC   C3220568   2.832   4.454  10.310  0.4675  0.6459  0.0187
  180SLPC   H2X20569   2.866   4.560  10.314 -0.7766  1.0359  1.5619
  180SLPC   H2Y20570   2.734   4.446  10.362 -0.1049  1.5026 -0.8836
  180SLPC   C2320571   2.871   3.777  10.356 -0.0601 -0.5234  0.5195
  180SLPC   H3R20572   2.772   3.773  10.406  0.0440 -2.1170  0.6485
  180SLPC   H3S20573   2.941   3.727  10.426  3.0390 -1.3835 -2.8977
  180SLPC   C2420574   2.871   3.700  10.220 -0.3371 -0.1199 -0.1788
  180SLPC   H4R20575   2.976   3.708  10.187 -1.0851  0.7654 -2.5813
  180SLPC   H4S20576   2.807   3.747  10.143  1.8098  1.1358 -1.2715
  180SLPC   C2520577   2.847   3.550  10.229 -0.1692  0.2728 -0.5383
  180SLPC   H5R20578   2.753   3.522  10.283  0.9360 -1.0594  0.7882
  180SLPC   H5S20579   2.927   3.509  10.295  0.0459  1.3849 -0.0835
  180SLPC   C2620580   2.861   3.471  10.097  0.4397 -0.4149 -0.2237
  180SLPC   H6R20581   2.956   3.500  10.048  1.1207  1.2353  1.9001
  180SLPC   H6S20582   2.778   3.486  10.025 -0.9821 -1.8472  1.0188
  180SLPC   C2720583   2.872   3.323  10.138 -0.5839 -0.0830 -0.1872
  180SLPC   H7R20584   2.775   3.298  10.187 -1.1120  2.1048 -0.0540
  180SLPC   H7S20585   2.954   3.297  10.209 -1.4148 -3.1556 -0.1847
  180SLPC   C2820586   2.895   3.233  10.011  0.6042  0.0748 -0.0505
  180SLPC   H8R20587   2.807   3.256   9.947  0.7647 -1.3458 -0.8146
  180SLPC   H8S20588   2.895   3.127  10.044 -0.0369  0.9637  3.0876
  180SLPC   C2920589   3.017   3.252   9.935 -0.4122 -1.0615 -0.3166
  180SLPC   H9R20590   3.085   3.326   9.982 -0.5706 -1.1433  0.0460
  180SLPC  C21020591   3.041   3.222   9.807  0.8386 -0.1902  0.6116
  180SLPC  H10R20592   3.140   3.237   9.761  0.7542 -2.1055 -0.3185
  180SLPC  C21120593   2.934   3.147   9.731  0.0781 -0.0483 -0.3212
  180SLPC  H11R20594   2.916   3.191   9.630 -1.3780 -0.9669 -0.4875
  180SLPC  H11S20595   2.832   3.146   9.776  0.0507  0.4627 -0.3644
  180SLPC  C21220596   2.971   3.003   9.726 -0.0321  0.5568  0.7698
  180SLPC  H12R20597   3.043   2.966   9.800  1.9600  2.5548 -0.0588
  180SLPC  C21320598   2.949   2.932   9.616 -0.0244 -0.1581 -0.2492
  180SLPC  H13R20599   2.985   2.828   9.623  1.4781  0.2667 -1.3145
  180SLPC  C21420600   2.889   2.976   9.488  0.2215 -0.1925  1.1312
  180SLPC  H14R20601   2.963   3.018   9.417  2.0445 -2.8726  1.2900
  180SLPC  H14S20602   2.808   3.049   9.511 -0.1600 -0.9137  2.1344
  180SLPC  C21520603   2.814   2.861   9.410  0.1849 -0.2716 -0.3724
  180SLPC  H15R20604   2.746   2.903   9.334  1.9229 -0.0865 -1.9001
  180SLPC  H15S20605   2.759   2.803   9.487  1.2608 -1.8274 -0.7302
  180SLPC  C21620606   2.901   2.757   9.342  1.2063 -0.5804 -0.1729
  180SLPC  H16R20607   2.947   2.689   9.417  2.4569 -0.0623 -0.4483
  180SLPC  H16S20608   2.976   2.820   9.289  0.7539 -0.0364 -0.1826
  180SLPC  C21720609   2.834   2.684   9.222 -0.6511 -0.0113  0.0451
  180SLPC  H17R20610   2.787   2.761   9.157  1.7455  1.5845  0.0491
  180SLPC  H17S20611   2.764   2.610   9.267  1.0724 -1.0409  1.1738
  180SLPC  C21820612   2.923   2.590   9.141  0.5414 -0.3363 -0.3558
  180SLPC  H18R20613   2.873   2.537   9.057  0.5419 -1.1306  0.1438
  180SLPC  H18S20614   2.962   2.515   9.212 -2.0646  1.0488  2.7567
  180SLPC  H18T20615   3.008   2.651   9.102 -0.5765  0.9611 -0.8337
  180SLPC   C3320616   2.824   4.399  10.168  0.3817 -0.6411  0.2330
  180SLPC   H3X20617   2.922   4.401  10.115 -0.4136  1.5035 -1.3054
  180SLPC   H3Y20618   2.749   4.459  10.112  1.2666  1.4453  1.1626
  180SLPC   C3420619   2.766   4.257  10.155  0.0028  0.7089  0.1228
  180SLPC   H4X20620   2.660   4.258  10.188  0.7525 -1.4251  2.9930
  180SLPC   H4Y20621   2.814   4.197  10.235  0.2879  1.5259  0.5779
  180SLPC   C3520622   2.771   4.170  10.029 -0.3399 -1.0865 -0.2175
  180SLPC   H5X20623   2.700   4.214   9.955 -0.8761  0.6900  1.2718
  180SLPC   H5Y20624   2.740   4.066  10.052  1.4324 -1.8203 -1.0015
  180SLPC   C3620625   2.914   4.167   9.965  0.6929 -0.4024 -0.0304
  180SLPC   H6X20626   2.998   4.141  10.033  0.8055  1.8470  0.7753
  180SLPC   H6Y20627   2.939   4.273   9.945 -1.4413 -0.1619 -1.7571
  180SLPC   C3720628   2.922   4.091   9.830  0.4617 -0.6472 -0.2671
  180SLPC   H7X20629   2.823   4.084   9.781  1.2284  2.3942 -2.5438
  180SLPC   H7Y20630   2.954   3.986   9.850 -1.5359 -0.8637  2.2917
  180SLPC   C3820631   3.010   4.176   9.734  0.7983 -0.8274  0.7873
  180SLPC   H8X20632   3.110   4.187   9.781 -0.1230  0.9287  2.4504
  180SLPC   H8Y20633   2.965   4.275   9.716 -0.0182 -1.5179 -1.3039
  180SLPC   C3920634   3.051   4.113   9.600  0.2972  0.2756  0.2560
  180SLPC   H9X20635   3.084   4.010   9.626 -0.2827 -0.1897 -0.7661
  180SLPC   H9Y20636   3.147   4.156   9.564  1.0966 -1.3869  0.2742
  180SLPC  C31020637   2.943   4.119   9.484 -0.2822 -0.0926 -0.4438
  180SLPC  H10X20638   2.900   4.222   9.487 -0.9496 -0.3519  2.6644
  180SLPC  H10Y20639   2.865   4.046   9.515 -0.1974 -0.5665 -1.3227
  180SLPC  C31120640   2.995   4.074   9.349  0.0216 -0.1433 -0.1268
  180SLPC  H11X20641   3.026   3.968   9.359  2.1983  0.2771 -1.5931
  180SLPC  H11Y20642   3.076   4.138   9.307  0.1979 -0.4391 -0.2418
  180SLPC  C31220643   2.872   4.068   9.252 -0.3321  1.0965  0.0074
  180SLPC  H12X20644   2.833   4.172   9.248  2.3509  2.2309  0.8276
  180SLPC  H12Y20645   2.800   3.996   9.298  0.0305  0.3997 -0.5002
  180SLPC  C31320646   2.912   4.018   9.104 -0.5660 -0.5378 -0.3016
  180SLPC  H13X20647   2.821   4.008   9.041 -0.8354  0.9600 -0.1870
  180SLPC  H13Y20648   2.976   3.928   9.120  0.3695  0.0276 -0.8004
  180SLPC  C31420649   3.015   4.113   9.039 -0.2040  0.7915 -0.8533
  180SLPC  H14X20650   3.121   4.088   9.059 -0.9403 -2.5389 -0.4853
  180SLPC  H14Y20651   2.984   4.213   9.077 -2.4577 -0.6381  1.3919
  180SLPC  C31520652   3.005   4.096   8.885 -0.8294  0.3891  0.2484
  180SLPC  H15X20653   3.095   4.140   8.837 -1.5783  1.4961 -0.1611
  180SLPC  H15Y20654   2.916   4.154   8.854 -0.3557  0.0967 -1.7652
  180SLPC  C31620655   3.009   3.954   8.830 -0.1052 -0.0908  0.5434
  180SLPC  H16X20656   2.933   3.892   8.882  0.8758 -1.2572  0.6254
  180SLPC  H16Y20657   3.104   3.901   8.850 -0.2373 -0.6100 -0.1426
  180SLPC  C31720658   2.993   3.946   8.678  0.0483  0.5972 -0.8801
  180SLPC  H17X20659   3.095   3.982   8.650  0.8649 -0.2985  0.7624
  180SLPC  H17Y20660   2.923   4.029   8.653  0.5999  1.3867  0.1172
  180SLPC  C31820661   2.953   3.813   8.623  0.4642  0.4041 -0.7493
  180SLPC  H18X20662   3.033   3.739   8.646 -0.8435 -0.9388 -0.3967
  180SLPC  H18Y20663   2.927   3.815   8.515 -2.0700 -3.3213 -0.3970
  180SLPC  H18Z20664   2.867   3.771   8.679  1.3504  0.2604  0.5383
  181SLPC     N20665   0.534   1.316  11.400  0.0398  0.3064 -0.5163
  181SLPC   C1320666   0.583   1.375  11.276  0.2278 -0.7984 -0.1908
  181SLPC  H13A20667   0.563   1.481  11.285  0.8073 -0.7821  1.1207
  181SLPC  H13B20668   0.689   1.367  11.263  0.3507  1.2807 -0.7801
  181SLPC  H13C20669   0.532   1.340  11.187  1.8585 -2.0798 -0.6716
  181SLPC   C1420670   0.605   1.372  11.525 -0.4752 -0.0836 -0.2461
  181SLPC  H14A20671   0.712   1.364  11.519 -0.3053  1.7294 -0.1192
  181SLPC  H14B20672   0.586   1.478  11.533 -2.5417 -0.2631 -1.8266
  181SLPC  H14C20673   0.571   1.310  11.606 -1.6825 -0.9677 -1.3661
  181SLPC   C1520674   0.554   1.166  11.393  0.2660  0.4322  0.2009
  181SLPC  H15A20675   0.656   1.135  11.376  0.7497  1.5640  0.9667
  181SLPC  H15B20676   0.521   1.128  11.488  0.8591  0.5597  0.4644
  181SLPC  H15C20677   0.497   1.116  11.315 -1.9917  0.6738  1.6033
  181SLPC   C1220678   0.383   1.354  11.423  0.5652 -0.0115  0.3289
  181SLPC  H12A20679   0.368   1.461  11.431 -0.1356 -0.0840  0.0063
  181SLPC  H12B20680   0.353   1.312  11.518  1.4267  1.8788  1.5035
  181SLPC   C1120681   0.284   1.316  11.316 -0.0464  0.1281 -0.2733
  181SLPC  H11A20682   0.181   1.326  11.355  0.2249 -0.2321  0.5466
  181SLPC  H11B20683   0.294   1.206  11.304  2.2362  0.1996  0.5618
  181SLPC     P20684   0.243   1.522  11.171 -0.0509 -0.2625 -0.0930
  181SLPC   O1320685   0.116   1.500  11.107 -0.1263 -0.1512  0.7051
  181SLPC   O1420686   0.243   1.601  11.291 -0.2365  0.0658 -0.2235
  181SLPC   O1220687   0.310   1.385  11.193 -0.6991  0.0717 -0.8070
  181SLPC   O1120688   0.347   1.578  11.073 -0.0818  0.0983  0.1038
  181SLPC    C120689   0.400   1.498  10.968 -0.2111 -0.1127  0.2082
  181SLPC    HA20690   0.509   1.482  10.982  0.1137  0.4985 -1.4214
  181SLPC    HB20691   0.345   1.401  10.968 -1.3422  0.5127  0.6641
  181SLPC    C220692   0.386   1.577  10.830  0.1169  0.3268  0.0475
  181SLPC    HS20693   0.398   1.680  10.870  2.4348  0.3426 -0.5825
  181SLPC   O2120694   0.249   1.552  10.776 -0.5264  0.4317  0.8496
  181SLPC   C2120695   0.207   1.641  10.684  0.4886 -0.3322 -0.9304
  181SLPC   O2220696   0.250   1.752  10.673  0.0268 -0.6364 -0.1824
  181SLPC   C2220697   0.084   1.586  10.607  0.2208 -0.6678 -0.8557
  181SLPC   H2R20698   0.107   1.483  10.572  0.5775 -1.7324  2.2183
  181SLPC   H2S20699  -0.002   1.584  10.678  0.4528 -2.3921 -0.5701
  181SLPC    C320700   0.494   1.531  10.731 -0.3328 -0.0695  0.4037
  181SLPC    HX20701   0.468   1.430  10.693  1.1138 -0.2924 -0.0654
  181SLPC    HY20702   0.592   1.525  10.783  0.2205 -0.7807 -0.6865
  181SLPC   O3120703   0.507   1.626  10.617 -0.3993  0.1927 -0.1271
  181SLPC   C3120704   0.458   1.581  10.503  0.4097 -0.2846 -0.0824
  181SLPC   O3220705   0.424   1.465  10.482  0.0227  0.5151  0.2637
  181SLPC   C3220706   0.452   1.683  10.396  0.1049  0.1586  0.0545
  181SLPC   H2X20707   0.556   1.722  10.391  0.5659 -1.0948 -0.7011
  181SLPC   H2Y20708   0.390   1.765  10.437  1.1879  0.1064  1.9366
  181SLPC   C2320709   0.054   1.690  10.495 -0.0857 -0.1302  0.1017
  181SLPC   H3R20710   0.148   1.718  10.442  0.6154 -0.5076  1.1254
  181SLPC   H3S20711   0.001   1.777  10.540  2.5345  0.5437  2.1144
  181SLPC   C2420712  -0.035   1.636  10.375 -0.3716  0.1378 -1.0441
  181SLPC   H4R20713  -0.138   1.621  10.414 -0.4604  4.2802  0.8603
  181SLPC   H4S20714   0.013   1.548  10.329  0.2823  0.3627 -0.8088
  181SLPC   C2520715  -0.063   1.751  10.273 -0.1560  1.1431 -0.0986
  181SLPC   H5R20716   0.006   1.750  10.186  1.3014 -0.2746  1.0165
  181SLPC   H5S20717  -0.055   1.848  10.328  0.7504  0.5977  0.7699
  181SLPC   C2620718  -0.197   1.724  10.197  0.1922  0.0647 -1.1422
  181SLPC   H6R20719  -0.207   1.813  10.131  1.6028  1.2269  0.1144
  181SLPC   H6S20720  -0.275   1.731  10.276  0.5959 -0.8774 -0.6463
  181SLPC   C2720721  -0.220   1.584  10.129 -0.4389  0.3300 -0.0840
  181SLPC   H7R20722  -0.323   1.581  10.089 -1.3624  0.0707  2.1945
  181SLPC   H7S20723  -0.214   1.504  10.206  0.7729 -0.2386 -0.7349
  181SLPC   C2820724  -0.119   1.551  10.020 -0.2672  0.1541 -0.7445
  181SLPC   H8R20725  -0.137   1.446   9.989 -3.7415  0.1695  0.7607
  181SLPC   H8S20726  -0.015   1.543  10.058  0.4890 -0.5881 -2.8536
  181SLPC   C2920727  -0.140   1.651   9.911  0.0765  0.1978 -0.1306
  181SLPC   H9R20728  -0.200   1.740   9.936  0.5001 -0.2774  3.0361
  181SLPC  C21020729  -0.098   1.626   9.782  0.4426 -0.3826  0.2692
  181SLPC  H10R20730  -0.122   1.700   9.704 -0.1667 -0.8195  0.0352
  181SLPC  C21120731  -0.009   1.515   9.736  0.0627  0.1331 -0.7119
  181SLPC  H11R20732   0.048   1.459   9.813  0.7759 -0.8066 -1.8757
  181SLPC  H11S20733   0.070   1.563   9.676  0.7633  0.4832  0.4708
  181SLPC  C21220734  -0.091   1.409   9.659 -0.0757 -0.8367 -0.7753
  181SLPC  H12R20735  -0.135   1.334   9.726 -1.8817  2.0414  1.5043
  181SLPC  C21320736  -0.123   1.411   9.531 -0.1084 -0.1846 -0.6908
  181SLPC  H13R20737  -0.168   1.315   9.500 -0.1083 -0.4551  0.1306
  181SLPC  C21420738  -0.086   1.514   9.430 -0.5768 -0.4909 -1.0480
  181SLPC  H14R20739  -0.049   1.603   9.486 -0.0897 -0.8424 -0.8051
  181SLPC  H14S20740  -0.183   1.545   9.386 -0.9691 -0.2253 -0.0251
  181SLPC  C21520741   0.020   1.459   9.341 -1.0731  0.0870 -0.2133
  181SLPC  H15R20742   0.100   1.409   9.399 -1.3333  0.3137  0.3425
  181SLPC  H15S20743   0.072   1.538   9.283  0.7274  0.0757  1.3098
  181SLPC  C21620744  -0.032   1.354   9.245  0.2912 -0.0310 -0.0517
  181SLPC  H16R20745  -0.133   1.380   9.206 -1.1882 -4.6207  0.0841
  181SLPC  H16S20746  -0.042   1.259   9.302  1.9935  1.2278  2.4977
  181SLPC  C21720747   0.059   1.342   9.117  0.0294  0.3008  0.0434
  181SLPC  H17R20748   0.161   1.312   9.149  0.4912  2.2502  0.4985
  181SLPC  H17S20749   0.068   1.435   9.057 -1.5662  0.4488 -0.0078
  181SLPC  C21820750   0.003   1.247   9.020  0.2598  0.1558 -0.9276
  181SLPC  H18R20751   0.005   1.143   9.058 -0.6623  0.9867  1.5805
  181SLPC  H18S20752   0.063   1.255   8.927  4.6188 -1.2240  1.4827
  181SLPC  H18T20753  -0.108   1.254   9.006 -0.2829 -1.6608  1.8393
  181SLPC   C3320754   0.397   1.632  10.257 -0.4128  0.6830 -0.0346
  181SLPC   H3X20755   0.300   1.587  10.287  0.4525  0.5219  2.7697
  181SLPC   H3Y20756   0.455   1.555  10.202 -0.0144  1.2436 -0.4060
  181SLPC   C3420757   0.393   1.753  10.164  0.5958  0.4468 -0.3613
  181SLPC   H4X20758   0.495   1.784  10.130  1.2886 -0.2406  0.9943
  181SLPC   H4Y20759   0.352   1.845  10.213 -0.4740  0.7826 -1.8175
  181SLPC   C3520760   0.322   1.723  10.030 -0.2322 -0.1234  0.2756
  181SLPC   H5X20761   0.295   1.818   9.979 -0.7172 -0.4671 -0.1128
  181SLPC   H5Y20762   0.221   1.681  10.051 -0.8033  0.0917 -1.8359
  181SLPC   C3620763   0.399   1.652   9.919 -1.0816 -0.4218  0.9895
  181SLPC   H6X20764   0.415   1.546   9.946  1.1132 -1.2146 -2.6748
  181SLPC   H6Y20765   0.505   1.687   9.913 -1.2884 -0.0069 -1.4189
  181SLPC   C3720766   0.341   1.666   9.775  0.7141 -0.2001 -0.4630
  181SLPC   H7X20767   0.320   1.771   9.747 -2.6935  0.0457  2.3584
  181SLPC   H7Y20768   0.240   1.620   9.778  1.0049 -1.0056 -1.9585
  181SLPC   C3820769   0.424   1.587   9.662  0.9182  0.4307 -0.6971
  181SLPC   H8X20770   0.461   1.494   9.710 -0.0987 -0.9951 -2.5618
  181SLPC   H8Y20771   0.515   1.649   9.652  1.6188 -0.2184  1.1533
  181SLPC   C3920772   0.348   1.554   9.531  0.2652  0.2802  0.2127
  181SLPC   H9X20773   0.308   1.656   9.509 -0.7209  0.1284  1.2223
  181SLPC   H9Y20774   0.261   1.490   9.554  0.9868 -0.5916  0.5747
  181SLPC  C31020775   0.441   1.481   9.429 -0.2039 -0.0089 -0.7978
  181SLPC  H10X20776   0.439   1.374   9.459 -4.0082 -0.2325 -1.4218
  181SLPC  H10Y20777   0.544   1.521   9.441  0.0284  0.3005 -3.2794
  181SLPC  C31120778   0.421   1.500   9.279  0.4685 -0.1599 -0.7361
  181SLPC  H11X20779   0.344   1.427   9.244  0.4125 -1.7334  2.2786
  181SLPC  H11Y20780   0.509   1.458   9.227  0.0788 -0.0532 -1.4944
  181SLPC  C31220781   0.385   1.637   9.236  0.7974 -0.3198 -0.2644
  181SLPC  H12X20782   0.467   1.709   9.260 -1.1582  1.0891  2.7610
  181SLPC  H12Y20783   0.301   1.680   9.294  2.6728  3.6699 -0.1699
  181SLPC  C31320784   0.359   1.651   9.087  0.8989 -0.5012  0.4043
  181SLPC  H13X20785   0.343   1.758   9.060  1.2273 -0.8512 -1.2752
  181SLPC  H13Y20786   0.264   1.597   9.067  0.0371  0.1293  2.5667
  181SLPC  C31420787   0.466   1.607   8.991  0.1212  0.7250  0.1391
  181SLPC  H14X20788   0.496   1.501   9.009 -0.3601  0.5943  0.1942
  181SLPC  H14Y20789   0.554   1.671   9.017  1.4730 -1.6690  1.9449
  181SLPC  C31520790   0.441   1.613   8.846  0.1537  0.5731  0.4897
  181SLPC  H15X20791   0.398   1.714   8.825  0.3570  0.7284  0.8106
  181SLPC  H15Y20792   0.371   1.532   8.815  2.4209 -1.2325 -0.1256
  181SLPC  C31620793   0.570   1.592   8.763 -0.1850  0.7679 -0.0338
  181SLPC  H16X20794   0.607   1.488   8.772 -0.0474  0.9456  2.1956
  181SLPC  H16Y20795   0.648   1.644   8.822 -0.3373 -1.0290  1.8756
  181SLPC  C31720796   0.569   1.646   8.621  0.3591  0.0236 -1.0104
  181SLPC  H17X20797   0.501   1.584   8.560  0.8967 -1.1209 -0.4800
  181SLPC  H17Y20798   0.672   1.639   8.579  0.5407  0.7840 -0.7024
  181SLPC  C31820799   0.517   1.789   8.604  0.2564  0.1890  0.2937
  181SLPC  H18X20800   0.431   1.824   8.665  1.0447 -0.6722  1.9770
  181SLPC  H18Y20801   0.477   1.791   8.500  0.6088 -4.3623 -0.1204
  181SLPC  H18Z20802   0.596   1.867   8.611  0.8052 -0.3742  0.4592
  182SLPC     N20803   3.290   6.035  11.258 -0.9266  0.7077 -0.2304
  182SLPC   C1320804   3.423   6.098  11.211  0.3130  0.1512 -0.7565
  182SLPC  H13A20805   3.499   6.080  11.286 -1.3207  1.0103  1.1602
  182SLPC  H13B20806   3.444   6.073  11.108  1.2805  2.7270 -1.2666
  182SLPC  H13C20807   3.397   6.202  11.222 -0.5718 -0.2317  1.2401
  182SLPC   C1420808   3.267   6.081  11.399  1.0018 -0.3032 -0.1538
  182SLPC  H14A20809   3.343   6.060  11.472 -1.9881  2.0874  4.0740
  182SLPC  H14B20810   3.250   6.188  11.394 -0.3188 -0.3696  1.8505
  182SLPC  H14C20811   3.175   6.036  11.434  0.3740  1.4146  0.5253
  182SLPC   C1520812   3.317   5.883  11.261  0.1898 -0.1434 -0.7899
  182SLPC  H15A20813   3.367   5.856  11.170  1.2262 -0.6989 -0.0732
  182SLPC  H15B20814   3.375   5.857  11.349 -2.3400 -0.2111  0.9753
  182SLPC  H15C20815   3.220   5.837  11.270 -0.3109  1.2693  2.7554
  182SLPC   C1220816   3.182   6.067  11.159  0.2062 -0.4610 -0.3955
  182SLPC  H12A20817   3.138   6.164  11.172  0.2835 -0.5755  0.8917
  182SLPC  H12B20818   3.101   5.996  11.174 -0.5307  0.2140 -1.0785
  182SLPC   C1120819   3.224   6.067  11.014  0.2455 -0.0843 -0.5562
  182SLPC  H11A20820   3.249   6.175  11.000  1.5240 -0.5660 -2.4495
  182SLPC  H11B20821   3.136   6.045  10.949 -1.0940 -0.5064  1.3435
  182SLPC     P20822   3.429   6.021  10.854 -0.2569 -0.3714 -0.2284
  182SLPC   O1320823   3.533   6.105  10.908 -0.7203 -0.4386  0.4140
  182SLPC   O1420824   3.470   5.893  10.792  0.0689  0.2410 -0.0461
  182SLPC   O1220825   3.338   5.986  10.978  0.1672 -0.6085  0.7768
  182SLPC   O1120826   3.343   6.101  10.751  0.2287 -0.2496 -0.0403
  182SLPC    C120827   3.236   6.034  10.685  0.7131 -0.3105  0.3078
  182SLPC    HA20828   3.219   5.934  10.732 -1.3040 -0.8430 -1.4194
  182SLPC    HB20829   3.152   6.106  10.692  0.5287  0.1552 -4.0512
  182SLPC    C220830   3.257   6.042  10.523  0.7539 -0.4168 -0.3258
  182SLPC    HS20831   3.162   6.011  10.475  0.6109 -0.4718 -0.0126
  182SLPC   O2120832   3.381   5.976  10.480  0.0958 -0.2316  0.6716
  182SLPC   C2120833   3.365   5.843  10.464 -0.9971 -0.4390 -0.3788
  182SLPC   O2220834   3.266   5.782  10.488 -0.4806  0.2122 -0.0331
  182SLPC   C2220835   3.499   5.777  10.427 -0.5823  0.5449  0.4382
  182SLPC   H2R20836   3.571   5.804  10.507 -1.5981 -0.2717  1.6679
  182SLPC   H2S20837   3.499   5.666  10.424  1.5007  0.5144 -0.3618
  182SLPC    C320838   3.267   6.192  10.481 -0.8149 -0.6711  0.3641
  182SLPC    HX20839   3.337   6.252  10.544  0.4772  1.7807 -3.0941
  182SLPC    HY20840   3.167   6.234  10.506 -1.0467 -2.4359  2.8566
  182SLPC   O3120841   3.284   6.212  10.343 -0.1211 -0.3124 -0.5309
  182SLPC   C3120842   3.401   6.255  10.300  0.2245 -0.3807 -0.5550
  182SLPC   O3220843   3.492   6.296  10.371  0.5115  0.8947  0.1264
  182SLPC   C3220844   3.391   6.271  10.152  1.0582  0.0381 -0.3627
  182SLPC   H2X20845   3.295   6.319  10.120  1.3396  0.5436 -0.4642
  182SLPC   H2Y20846   3.393   6.173  10.101 -0.0457  0.1151 -0.5970
  182SLPC   C2320847   3.538   5.830  10.291  0.4105  0.1548 -0.0931
  182SLPC   H3R20848   3.647   5.816  10.276  0.0688 -2.8795 -0.3272
  182SLPC   H3S20849   3.533   5.940  10.279  1.1430  0.2775  0.5754
  182SLPC   C2420850   3.463   5.766  10.176  0.3268  0.1359 -0.4548
  182SLPC   H4R20851   3.361   5.808  10.189 -0.1888 -0.8649 -1.0916
  182SLPC   H4S20852   3.470   5.655  10.187  1.9768  0.3531  1.0787
  182SLPC   C2520853   3.529   5.793  10.044 -0.3169 -0.2335  0.4418
  182SLPC   H5R20854   3.627   5.742  10.040 -0.3348 -0.2273 -0.1056
  182SLPC   H5S20855   3.549   5.902  10.046 -0.7156  0.0818 -3.8195
  182SLPC   C2620856   3.441   5.756   9.923  0.0728 -0.4773  0.1699
  182SLPC   H6R20857   3.338   5.795   9.934 -0.7686 -2.1746 -1.1560
  182SLPC   H6S20858   3.438   5.645   9.920 -1.9647 -0.4576 -2.6257
  182SLPC   C2720859   3.505   5.800   9.796 -0.7954  0.0968  0.6308
  182SLPC   H7R20860   3.580   5.724   9.766 -1.4480 -0.3667  0.1178
  182SLPC   H7S20861   3.561   5.895   9.805 -1.4579  0.9450 -2.7576
  182SLPC   C2820862   3.406   5.797   9.669 -0.0110  0.2220 -0.4117
  182SLPC   H8R20863   3.326   5.871   9.694 -2.0994 -1.3806 -1.9683
  182SLPC   H8S20864   3.349   5.702   9.666  1.7422 -0.9940  1.9460
  182SLPC   C2920865   3.480   5.824   9.534  0.3387 -0.0425 -0.2121
  182SLPC   H9R20866   3.576   5.877   9.540 -0.1234  0.7815 -0.0333
  182SLPC  C21020867   3.435   5.792   9.409  0.6461 -0.4536 -0.3471
  182SLPC  H10R20868   3.507   5.814   9.329 -0.0749  0.1977 -0.8329
  182SLPC  C21120869   3.303   5.730   9.377  0.3959 -0.2698  0.4127
  182SLPC  H11R20870   3.220   5.751   9.448  2.2756  0.4497  2.4913
  182SLPC  H11S20871   3.309   5.620   9.358  1.5899  0.3924 -4.3416
  182SLPC  C21220872   3.264   5.790   9.240  0.0362  0.8641  0.0460
  182SLPC  H12R20873   3.342   5.843   9.182  0.2801  0.3268 -0.1188
  182SLPC  C21320874   3.148   5.777   9.184  0.6646 -0.8407  1.1622
  182SLPC  H13R20875   3.131   5.824   9.086  1.1181  0.1206  1.5309
  182SLPC  C21420876   3.025   5.698   9.230  0.2921  0.3297 -0.0265
  182SLPC  H14R20877   2.944   5.769   9.258 -0.0713  0.4370 -1.2924
  182SLPC  H14S20878   3.035   5.632   9.319 -1.7787  0.6012  0.4604
  182SLPC  C21520879   2.965   5.597   9.132  1.0748 -0.0098  0.1857
  182SLPC  H15R20880   2.869   5.554   9.168  0.2258  0.7366 -1.0698
  182SLPC  H15S20881   3.035   5.516   9.104 -1.4810 -1.7882 -1.4385
  182SLPC  C21620882   2.928   5.666   8.996 -0.1291 -0.1117  0.2403
  182SLPC  H16R20883   3.015   5.719   8.950  0.8148 -1.0078  0.9454
  182SLPC  H16S20884   2.839   5.732   9.003 -0.4303 -0.6849  3.0246
  182SLPC  C21720885   2.886   5.558   8.896  0.4801 -0.3688  0.2262
  182SLPC  H17R20886   2.777   5.570   8.873  0.3780 -1.8730 -0.1942
  182SLPC  H17S20887   2.883   5.453   8.932 -1.6561 -0.9896 -1.5165
  182SLPC  C21820888   2.967   5.561   8.764  0.9534  0.1834 -0.4269
  182SLPC  H18R20889   3.073   5.529   8.774  1.5080  1.8711 -0.6017
  182SLPC  H18S20890   2.954   5.666   8.728 -0.2512  0.3641  0.4811
  182SLPC  H18T20891   2.914   5.503   8.686  2.5838  0.7110 -1.9979
  182SLPC   C3320892   3.509   6.356  10.092  0.9731  0.4018 -0.7672
  182SLPC   H3X20893   3.594   6.284  10.100  0.9499  0.5228  1.2024
  182SLPC   H3Y20894   3.532   6.435  10.166  2.5504 -0.1701 -0.5957
  182SLPC   C3420895   3.470   6.411   9.952 -0.8900 -0.1594 -0.2043
  182SLPC   H4X20896   3.557   6.467   9.912  0.8726 -3.0956 -0.8018
  182SLPC   H4Y20897   3.386   6.483   9.958 -0.7904 -0.0138 -0.5275
  182SLPC   C3520898   3.438   6.299   9.859 -0.1353 -0.2886 -0.5655
  182SLPC   H5X20899   3.338   6.254   9.876  0.4613 -1.5851 -0.3458
  182SLPC   H5Y20900   3.519   6.224   9.876 -0.4724 -0.3177  1.1537
  182SLPC   C3620901   3.422   6.349   9.712 -0.0233 -0.2601 -0.8837
  182SLPC   H6X20902   3.524   6.380   9.678  0.1620 -1.2170 -1.2310
  182SLPC   H6Y20903   3.350   6.429   9.685  1.0514  0.4914 -1.6239
  182SLPC   C3720904   3.388   6.235   9.613 -0.2613 -0.5441 -0.3478
  182SLPC   H7X20905   3.282   6.208   9.629 -0.1961  0.1109  1.3967
  182SLPC   H7Y20906   3.448   6.144   9.639  1.4429  0.7128  0.2982
  182SLPC   C3820907   3.411   6.274   9.472  0.0189  0.3774  0.5288
  182SLPC   H8X20908   3.518   6.292   9.448 -0.1089  0.4545 -0.0051
  182SLPC   H8Y20909   3.346   6.363   9.458  2.8448  2.3307 -1.2083
  182SLPC   C3920910   3.363   6.156   9.381 -0.2224 -0.3977 -0.3093
  182SLPC   H9X20911   3.273   6.107   9.424 -0.0704 -1.1814 -0.8447
  182SLPC   H9Y20912   3.442   6.077   9.378  2.2717  1.8430  1.6979
  182SLPC  C31020913   3.333   6.200   9.238  0.3399  0.0980  0.1711
  182SLPC  H10X20914   3.244   6.268   9.232 -0.2436 -0.5026  1.5508
  182SLPC  H10Y20915   3.310   6.105   9.185  1.6657  0.2961 -0.8068
  182SLPC  C31120916   3.439   6.287   9.167 -0.6703  0.3476  0.5979
  182SLPC  H11X20917   3.537   6.233   9.172 -0.8859 -0.0371  0.7545
  182SLPC  H11Y20918   3.457   6.383   9.219  2.1963 -0.3950  1.1520
  182SLPC  C31220919   3.416   6.314   9.018  0.0236 -0.0030 -0.5343
  182SLPC  H12X20920   3.327   6.380   9.028 -2.9009 -3.9684  4.0420
  182SLPC  H12Y20921   3.395   6.229   8.950  1.8933  0.2388 -1.4858
  182SLPC  C31320922   3.536   6.388   8.961  0.1679  0.7035 -0.1583
  182SLPC  H13X20923   3.627   6.324   8.955 -1.5972 -1.8852 -2.0292
  182SLPC  H13Y20924   3.560   6.479   9.020 -2.7340  1.8099 -0.5289
  182SLPC  C31420925   3.514   6.442   8.818 -0.2175 -0.2656 -0.2078
  182SLPC  H14X20926   3.592   6.519   8.803  0.8907 -1.1412  0.9173
  182SLPC  H14Y20927   3.412   6.485   8.814  0.2125  1.3353  2.8156
  182SLPC  C31520928   3.523   6.335   8.697 -0.1904 -0.9689 -0.6900
  182SLPC  H15X20929   3.458   6.246   8.712 -1.8447  0.0088 -1.7325
  182SLPC  H15Y20930   3.628   6.302   8.713  0.2971  0.3432 -1.0212
  182SLPC  C31620931   3.502   6.401   8.564  0.7010 -0.5975 -0.0909
  182SLPC  H16X20932   3.549   6.502   8.562 -1.4355  0.5261  1.9003
  182SLPC  H16Y20933   3.393   6.414   8.551  0.6812  1.1322  1.3505
  182SLPC  C31720934   3.555   6.300   8.450  0.9376 -0.5353  0.7771
  182SLPC  H17X20935   3.507   6.203   8.476  0.3485  0.6870  4.9947
  182SLPC  H17Y20936   3.665   6.305   8.438  0.8060  2.3940 -0.0009
  182SLPC  C31820937   3.500   6.325   8.316  0.1865 -0.5909 -0.5324
  182SLPC  H18X20938   3.524   6.249   8.238  0.7152 -0.9929  0.0088
  182SLPC  H18Y20939   3.515   6.429   8.280  0.5964 -0.5633 -0.2872
  182SLPC  H18Z20940   3.390   6.309   8.316  0.0730  0.1426 -0.7719
  183SLPC     N20941   6.287   1.027  11.297 -0.1432 -0.5258  1.0392
  183SLPC   C1320942   6.258   1.117  11.413  0.4219  0.6373  0.0696
  183SLPC  H13A20943   6.240   1.057  11.501 -0.5960  1.4143  0.4184
  183SLPC  H13B20944   6.331   1.196  11.421 -0.5144  1.6802 -1.1439
  183SLPC  H13C20945   6.161   1.160  11.394  1.0874  3.1356  1.8800
  183SLPC   C1420946   6.204   0.905  11.316  0.1531  0.2367 -0.0759
  183SLPC  H14A20947   6.100   0.934  11.314  0.5871  1.9663  0.7764
  183SLPC  H14B20948   6.215   0.830  11.239  2.1486  1.1147 -0.6955
  183SLPC  H14C20949   6.215   0.858  11.413  3.5947 -2.4652 -1.5745
  183SLPC   C1520950   6.430   0.983  11.302  0.0278 -0.2812  0.5230
  183SLPC  H15A20951   6.427   0.913  11.383 -3.5517  2.7135  3.3286
  183SLPC  H15B20952   6.459   0.933  11.211 -0.0836 -1.6383  1.2085
  183SLPC  H15C20953   6.496   1.065  11.327 -0.1665  0.0975 -0.1760
  183SLPC   C1220954   6.251   1.092  11.161 -0.5452  0.0796  0.3025
  183SLPC  H12A20955   6.148   1.066  11.139 -0.8483  1.9475 -0.6528
  183SLPC  H12B20956   6.303   1.039  11.083 -2.1439 -0.8310 -0.1895
  183SLPC   C1120957   6.277   1.238  11.123 -0.2601  0.2393 -0.8553
  183SLPC  H11A20958   6.237   1.302  11.205  1.4621 -0.5748  0.7117
  183SLPC  H11B20959   6.221   1.272  11.034  0.9257  1.6599 -1.1015
  183SLPC     P20960   6.492   1.189  10.984 -0.0687  0.3428 -0.1808
  183SLPC   O1320961   6.636   1.229  10.988 -0.2070 -0.3633 -0.0802
  183SLPC   O1420962   6.467   1.041  10.988 -0.4428 -0.4366  0.1510
  183SLPC   O1220963   6.417   1.260  11.111  0.3179  0.5252 -0.3358
  183SLPC   O1120964   6.422   1.252  10.860 -0.6621 -0.2517 -0.5076
  183SLPC    C120965   6.442   1.394  10.823 -0.2410 -1.0742  0.5847
  183SLPC    HA20966   6.343   1.444  10.824  0.8957  1.4657 -1.5006
  183SLPC    HB20967   6.514   1.449  10.887 -0.4295 -0.7405  0.5099
  183SLPC    C220968   6.490   1.405  10.680  0.1591 -0.1934  0.4879
  183SLPC    HS20969   6.530   1.506  10.658  1.5883 -0.4710  1.6556
  183SLPC   O2120970   6.384   1.364  10.593  0.1818  0.8327 -0.6317
  183SLPC   C2120971   6.338   1.448  10.503  0.1239 -0.3948  0.2215
  183SLPC   O2220972   6.382   1.566  10.488 -0.1196  0.0129 -0.0410
  183SLPC   C2220973   6.242   1.385  10.403 -0.3476 -0.6104 -0.0865
  183SLPC   H2R20974   6.194   1.293  10.442 -0.0528 -1.1042 -0.8739
  183SLPC   H2S20975   6.161   1.462  10.406  1.0102  0.9988 -1.8832
  183SLPC    C320976   6.609   1.313  10.655 -0.3124  1.2163 -0.4206
  183SLPC    HX20977   6.576   1.210  10.680  1.9432  0.6086  0.2959
  183SLPC    HY20978   6.677   1.356  10.731  0.8735  1.4861 -1.6001
  183SLPC   O3120979   6.660   1.324  10.521 -0.6274  0.0236 -0.4371
  183SLPC   C3120980   6.769   1.253  10.498  0.3617  0.4822  0.1145
  183SLPC   O3220981   6.833   1.189  10.583 -0.0725 -1.0713  0.0045
  183SLPC   C3220982   6.810   1.254  10.348 -0.5441  0.0406  0.2978
  183SLPC   H2X20983   6.746   1.332  10.301 -0.7719 -0.3399 -0.0305
  183SLPC   H2Y20984   6.771   1.155  10.315 -1.0176  0.5754 -0.7797
  183SLPC   C2320985   6.303   1.374  10.261  0.2867  0.0984 -0.5241
  183SLPC   H3R20986   6.380   1.294  10.252  0.0539 -0.0026 -1.9666
  183SLPC   H3S20987   6.345   1.474  10.235 -1.0505 -0.0392 -3.6911
  183SLPC   C2420988   6.184   1.355  10.159 -0.7642  0.1250 -0.2825
  183SLPC   H4R20989   6.095   1.414  10.189 -0.6741 -0.2912  0.8405
  183SLPC   H4S20990   6.143   1.252  10.160  0.5942 -0.4269  0.5262
  183SLPC   C2520991   6.225   1.378  10.018  0.1127  0.0990  0.7014
  183SLPC   H5R20992   6.270   1.479  10.023  0.0626  0.2989 -1.7635
  183SLPC   H5S20993   6.130   1.377   9.960  0.0013  2.7433  0.7151
  183SLPC   C2620994   6.322   1.271   9.956 -0.1783  0.2689  0.2270
  183SLPC   H6R20995   6.274   1.171   9.951  0.2484  0.0848 -0.2852
  183SLPC   H6S20996   6.409   1.255  10.023 -0.4682  0.0671  0.5567
  183SLPC   C2720997   6.386   1.324   9.830  0.1311  0.1683  0.0189
  183SLPC   H7R20998   6.496   1.320   9.843  0.6267  1.7779 -2.7301
  183SLPC   H7S20999   6.366   1.431   9.810 -0.3035 -0.1679 -1.4427
  183SLPC   C2821000   6.362   1.229   9.708 -0.0991  0.7590 -0.0221
  183SLPC   H8R21001   6.399   1.127   9.730 -0.9079  0.8261  1.9044
  183SLPC   H8S21002   6.420   1.272   9.624 -0.4289  0.6084 -0.3258
  183SLPC   C2921003   6.221   1.217   9.656 -1.0045 -0.0281 -0.6944
  183SLPC   H9R21004   6.144   1.230   9.733  0.8715  0.9574  1.1063
  183SLPC  C21021005   6.198   1.205   9.525 -0.0052  0.0917 -0.9628
  183SLPC  H10R21006   6.092   1.193   9.495  0.1043 -2.0012 -0.6234
  183SLPC  C21121007   6.305   1.205   9.415  0.0936  0.2028  0.0992
  183SLPC  H11R21008   6.383   1.126   9.428 -0.6857 -1.0718 -2.3314
  183SLPC  H11S21009   6.361   1.300   9.408 -1.4408  1.0471 -1.8230
  183SLPC  C21221010   6.251   1.184   9.275  0.1468 -0.8752 -0.2468
  183SLPC  H12R21011   6.310   1.106   9.226 -0.6037 -1.3412 -0.4280
  183SLPC  C21321012   6.163   1.249   9.199  1.2985 -0.4570 -0.5277
  183SLPC  H13R21013   6.124   1.195   9.111 -1.5088 -0.3942  0.5611
  183SLPC  C21421014   6.069   1.361   9.255 -1.0706  0.7114  0.1848
  183SLPC  H14R21015   6.060   1.448   9.186 -0.7129 -0.0555 -0.8616
  183SLPC  H14S21016   6.112   1.396   9.351 -0.1326 -0.1321  0.0839
  183SLPC  C21521017   5.937   1.285   9.275 -0.1159  0.1174 -0.3415
  183SLPC  H15R21018   5.955   1.193   9.336 -0.3221  0.4795  0.2795
  183SLPC  H15S21019   5.895   1.260   9.175  3.8967  0.1515 -2.2123
  183SLPC  C21621020   5.821   1.366   9.357 -0.4138  0.4246  0.2790
  183SLPC  H16R21021   5.880   1.389   9.449  0.4120 -2.6762  0.6425
  183SLPC  H16S21022   5.745   1.289   9.385 -0.4444  0.5549  0.5615
  183SLPC  C21721023   5.765   1.486   9.284  0.6955  0.5858 -0.4676
  183SLPC  H17R21024   5.718   1.449   9.191  1.1550  0.3577 -0.6145
  183SLPC  H17S21025   5.852   1.549   9.254  2.4379 -1.6959 -0.4409
  183SLPC  C21821026   5.673   1.558   9.374  0.3828  0.2458 -0.3489
  183SLPC  H18R21027   5.714   1.585   9.474 -0.1750 -0.2067  0.0145
  183SLPC  H18S21028   5.586   1.493   9.399 -1.8559  3.3124  0.4059
  183SLPC  H18T21029   5.618   1.642   9.326 -0.2529 -0.9886 -1.8815
  183SLPC   C3321030   6.962   1.256  10.330  0.2449 -0.0388 -0.3123
  183SLPC   H3X21031   7.004   1.174  10.392  1.0399  1.5951  1.3864
  183SLPC   H3Y21032   7.004   1.351  10.369 -0.6754 -0.7840  2.7631
  183SLPC   C3421033   6.999   1.235  10.180 -0.5739  0.1204 -0.2005
  183SLPC   H4X21034   6.958   1.324  10.127  1.4737  1.3990  0.2527
  183SLPC   H4Y21035   6.958   1.139  10.144 -1.2902  1.1216 -2.1521
  183SLPC   C3521036   7.156   1.247  10.157 -0.2667  0.4862 -0.5285
  183SLPC   H5X21037   7.207   1.166  10.214  1.1317 -0.1134 -2.5198
  183SLPC   H5Y21038   7.192   1.339  10.207  1.9018 -1.4686  1.8149
  183SLPC   C3621039   7.198   1.234  10.011  0.9556  0.5310 -0.0385
  183SLPC   H6X21040   7.181   1.335   9.970  3.8373  2.1934  2.4711
  183SLPC   H6Y21041   7.136   1.160   9.956 -0.2431  1.3323  0.2152
  183SLPC   C3721042   7.343   1.203   9.989 -0.3085  0.3321 -0.0069
  183SLPC   H7X21043   7.372   1.110  10.042 -1.1451  0.6192  0.9965
  183SLPC   H7Y21044   7.405   1.278  10.042 -0.3731 -0.3468  1.0566
  183SLPC   C3821045   7.381   1.215   9.839 -0.3337  1.0337 -0.0647
  183SLPC   H8X21046   7.376   1.321   9.810 -0.4039  1.2346  0.6479
  183SLPC   H8Y21047   7.320   1.155   9.768  1.6388  0.4901 -1.3752
  183SLPC   C3921048   7.528   1.179   9.811  0.4652  0.4772 -0.1301
  183SLPC   H9X21049   7.552   1.082   9.860 -1.3823 -0.4418 -0.9605
  183SLPC   H9Y21050   7.583   1.255   9.870  0.8177  0.1630 -0.0506
  183SLPC  C31021051   7.587   1.175   9.667  0.1584  0.1129 -0.4524
  183SLPC  H10X21052   7.696   1.192   9.680  0.3961 -1.1338 -0.6545
  183SLPC  H10Y21053   7.541   1.267   9.627 -1.3290  0.7299  2.3953
  183SLPC  C31121054   7.557   1.057   9.579 -0.6258  0.2057  1.0622
  183SLPC  H11X21055   7.447   1.040   9.581 -0.3028 -2.7740 -0.8937
  183SLPC  H11Y21056   7.607   0.973   9.631  0.2386  1.1953  1.8920
  183SLPC  C31221057   7.599   1.067   9.429  0.9093  0.4962  0.1918
  183SLPC  H12X21058   7.708   1.089   9.436  1.8257 -2.5332 -2.2339
  183SLPC  H12Y21059   7.536   1.143   9.378 -2.8598 -2.1660  0.4646
  183SLPC  C31321060   7.562   0.941   9.347  0.0429 -0.3362  0.0242
  183SLPC  H13X21061   7.451   0.941   9.351 -0.1032  3.7888  1.9207
  183SLPC  H13Y21062   7.593   0.852   9.406  0.7223  1.3519  2.3905
  183SLPC  C31421063   7.627   0.940   9.208 -0.3900 -0.3903 -0.0558
  183SLPC  H14X21064   7.737   0.953   9.217 -0.5129 -0.3741  1.8369
  183SLPC  H14Y21065   7.595   1.028   9.150  0.6703  0.1414  0.1350
  183SLPC  C31521066   7.595   0.819   9.115 -0.1363 -0.1430 -0.6929
  183SLPC  H15X21067   7.484   0.827   9.105 -0.4631  1.7254  2.7854
  183SLPC  H15Y21068   7.628   0.735   9.179  0.5716 -0.6036 -1.6401
  183SLPC  C31621069   7.668   0.804   8.983 -1.4093  0.0195 -0.5038
  183SLPC  H16X21070   7.774   0.791   9.015 -1.7940  0.0411  0.8279
  183SLPC  H16Y21071   7.684   0.901   8.931  0.4360  1.0051  1.7175
  183SLPC  C31721072   7.634   0.674   8.914  0.7096  0.3972  0.1975
  183SLPC  H17X21073   7.528   0.666   8.883  1.0081 -1.8313 -0.4329
  183SLPC  H17Y21074   7.648   0.582   8.975 -0.8608 -0.3216 -0.4806
  183SLPC  C31821075   7.728   0.664   8.797  0.2420 -0.3129  0.1362
  183SLPC  H18X21076   7.689   0.577   8.741 -0.2039 -0.4145  0.5968
  183SLPC  H18Y21077   7.830   0.657   8.841  0.3526  0.3993 -0.0021
  183SLPC  H18Z21078   7.736   0.753   8.732 -2.1508 -0.4335 -0.4079
  184SLPC     N21079   2.721   1.941  10.522  0.0885 -0.0456 -1.2659
  184SLPC   C1321080   2.606   1.989  10.440  0.2650  1.1510  0.6240
  184SLPC  H13A21081   2.539   1.908  10.418  0.2901  1.2698  0.0851
  184SLPC  H13B21082   2.549   2.065  10.492  0.5820  1.1253  1.0138
  184SLPC  H13C21083   2.643   2.036  10.350  0.3125 -0.4212 -0.2029
  184SLPC   C1421084   2.681   1.861  10.639 -0.7702 -0.0321 -0.3525
  184SLPC  H14A21085   2.762   1.824  10.701 -0.9374  2.4401  1.4852
  184SLPC  H14B21086   2.626   1.931  10.701 -0.3846  1.2919 -1.4678
  184SLPC  H14C21087   2.615   1.780  10.611 -0.2171 -0.6565  0.0973
  184SLPC   C1521088   2.794   2.066  10.576 -0.1070  0.0404 -0.2566
  184SLPC  H15A21089   2.889   2.027  10.608 -0.0195 -0.8941 -1.5955
  184SLPC  H15B21090   2.805   2.142  10.501  0.0746  1.8329  1.4984
  184SLPC  H15C21091   2.755   2.114  10.665  1.1405  0.2591  0.1858
  184SLPC   C1221092   2.824   1.856  10.448  0.8363  0.3345  0.4637
  184SLPC  H12A21093   2.913   1.846  10.509  0.3962 -1.7968  0.8366
  184SLPC  H12B21094   2.870   1.912  10.368 -0.0434  1.6178  0.8240
  184SLPC   C1121095   2.782   1.717  10.391  0.1516 -0.0668  0.1858
  184SLPC  H11A21096   2.848   1.684  10.308  1.1068  1.5396  0.2659
  184SLPC  H11B21097   2.683   1.724  10.340  0.0018 -0.3720  0.4336
  184SLPC     P21098   2.679   1.513  10.521 -0.1327 -0.3945  0.0959
  184SLPC   O1321099   2.747   1.392  10.572  0.4420 -0.0632 -1.3154
  184SLPC   O1421100   2.563   1.570  10.594 -0.1855  0.1411 -0.3709
  184SLPC   O1221101   2.785   1.623  10.494  0.0134  0.3221 -0.6185
  184SLPC   O1121102   2.634   1.494  10.374  0.1200  0.4672 -0.1609
  184SLPC    C121103   2.578   1.378  10.317  0.0902  0.0722  0.4962
  184SLPC    HA21104   2.546   1.295  10.384  0.2850  0.0829  0.6040
  184SLPC    HB21105   2.504   1.407  10.240 -0.3824  2.1626  1.6590
  184SLPC    C221106   2.692   1.302  10.237 -1.0607  0.3621 -0.5778
  184SLPC    HS21107   2.775   1.294  10.310 -1.5289 -0.0241 -0.0757
  184SLPC   O2121108   2.723   1.399  10.135  0.0432 -0.0641  0.5557
  184SLPC   C2121109   2.849   1.392  10.093 -0.1575 -0.1267  0.3808
  184SLPC   O2221110   2.921   1.301  10.111  0.2510  0.7752  0.4787
  184SLPC   C2221111   2.880   1.524  10.017 -0.0113  0.1623 -0.5162
  184SLPC   H2R21112   2.814   1.522   9.927  2.2721 -2.9251 -2.3145
  184SLPC   H2S21113   2.846   1.608  10.082  1.6410  0.2243  0.3225
  184SLPC    C321114   2.635   1.164  10.189  0.7171  0.3347 -0.5068
  184SLPC    HX21115   2.534   1.188  10.150  0.8788  1.1430 -0.4289
  184SLPC    HY21116   2.627   1.100  10.280  2.2549 -0.7128 -1.0678
  184SLPC   O3121117   2.717   1.099  10.086 -0.2164 -0.0924  0.2960
  184SLPC   C3121118   2.807   1.009  10.129  0.5039 -0.2357 -0.2056
  184SLPC   O3221119   2.817   0.970  10.244  0.4785 -0.1299  0.3117
  184SLPC   C3221120   2.895   0.965  10.019 -0.4963  0.2860  0.4714
  184SLPC   H2X21121   2.857   1.001   9.921 -1.0878 -0.0062  0.5935
  184SLPC   H2Y21122   2.896   0.854  10.020  3.2802  0.1862  0.0980
  184SLPC   C2321123   3.026   1.537   9.976  0.5493 -0.5333  0.0960
  184SLPC   H3R21124   3.070   1.437   9.954 -0.3615 -0.6704 -1.2355
  184SLPC   H3S21125   3.080   1.577  10.064  0.2451  0.5604 -0.2067
  184SLPC   C2421126   3.035   1.625   9.858 -0.5187 -0.2362 -0.1336
  184SLPC   H4R21127   3.021   1.730   9.893  4.1014  0.5870 -0.0613
  184SLPC   H4S21128   2.962   1.603   9.777 -1.1953 -2.0437  0.9309
  184SLPC   C2521129   3.173   1.618   9.787 -1.1312 -0.6506  0.0973
  184SLPC   H5R21130   3.184   1.523   9.730 -1.2541 -0.3072 -0.5103
  184SLPC   H5S21131   3.246   1.619   9.870 -2.4811  1.2434  1.3324
  184SLPC   C2621132   3.185   1.734   9.686  0.6831 -0.5558  1.0005
  184SLPC   H6R21133   3.159   1.824   9.744 -1.7838 -0.6541  0.1398
  184SLPC   H6S21134   3.103   1.728   9.612  1.4020 -2.5921  0.2797
  184SLPC   C2721135   3.312   1.751   9.617 -0.2447 -0.5178  0.1971
  184SLPC   H7R21136   3.403   1.756   9.680  1.6596  1.3659 -2.4812
  184SLPC   H7S21137   3.311   1.846   9.559 -2.2268  0.5567  1.8477
  184SLPC   C2821138   3.344   1.635   9.521 -0.3740 -0.8261 -0.1005
  184SLPC   H8R21139   3.353   1.547   9.589  0.4966  1.3171  2.7286
  184SLPC   H8S21140   3.445   1.659   9.482 -0.3373  0.5081  0.7545
  184SLPC   C2921141   3.244   1.617   9.414  0.6803 -0.5582  0.7539
  184SLPC   H9R21142   3.146   1.574   9.439  0.9286 -0.9915  1.0095
  184SLPC  C21021143   3.262   1.644   9.279  0.1090 -0.6663  0.0288
  184SLPC  H10R21144   3.172   1.638   9.216 -1.0272 -0.9084  1.6141
  184SLPC  C21121145   3.384   1.707   9.223  0.5683 -0.9752 -0.3834
  184SLPC  H11R21146   3.455   1.628   9.191  0.8391 -0.8712 -0.0474
  184SLPC  H11S21147   3.442   1.762   9.300 -2.1523  0.0328  1.1065
  184SLPC  C21221148   3.359   1.788   9.097 -0.0050  0.0780  0.0286
  184SLPC  H12R21149   3.356   1.895   9.123 -1.8169 -0.4460  2.3037
  184SLPC  C21321150   3.321   1.744   8.977 -0.4521  0.0323 -0.1588
  184SLPC  H13R21151   3.292   1.824   8.906 -2.2997  2.2449  2.8659
  184SLPC  C21421152   3.314   1.599   8.949 -0.1969  0.3072 -0.4161
  184SLPC  H14R21153   3.214   1.558   8.977 -0.4804 -0.2433 -2.0967
  184SLPC  H14S21154   3.391   1.544   9.007 -1.0966  0.0737  0.6068
  184SLPC  C21521155   3.322   1.556   8.806  0.9111 -0.0584  0.0109
  184SLPC  H15R21156   3.411   1.607   8.763  0.2947  1.3208  0.3104
  184SLPC  H15S21157   3.235   1.591   8.746  2.8944  1.9135 -1.8918
  184SLPC  C21621158   3.336   1.411   8.802 -0.0954  0.4425  0.6389
  184SLPC  H16R21159   3.243   1.357   8.830 -0.9941  1.3673 -0.4680
  184SLPC  H16S21160   3.415   1.385   8.876  0.7355  0.5088 -0.1992
  184SLPC  C21721161   3.358   1.354   8.659  0.2815  0.0806  0.0875
  184SLPC  H17R21162   3.272   1.381   8.594  1.2858  1.2848 -0.7963
  184SLPC  H17S21163   3.364   1.243   8.666 -1.2808  0.0605  1.8129
  184SLPC  C21821164   3.488   1.412   8.598 -0.8505 -0.6732 -0.1331
  184SLPC  H18R21165   3.514   1.355   8.506  0.6806 -0.5603  0.2088
  184SLPC  H18S21166   3.582   1.398   8.654  0.8917  0.1371 -2.7071
  184SLPC  H18T21167   3.490   1.519   8.568 -2.2928 -0.1720  1.3985
  184SLPC   C3321168   3.044   1.021  10.016  0.0937 -0.8324  0.4443
  184SLPC   H3X21169   3.090   1.012  10.116 -0.4975 -3.2756  0.5359
  184SLPC   H3Y21170   3.030   1.128   9.988  0.7260 -1.2923 -1.8798
  184SLPC   C3421171   3.134   0.964   9.905 -0.5367 -0.2074  0.1473
  184SLPC   H4X21172   3.239   0.993   9.929 -1.3725  1.6015  1.8432
  184SLPC   H4Y21173   3.103   1.023   9.816  1.7114  0.5390 -0.2121
  184SLPC   C3521174   3.116   0.819   9.873 -0.0963 -0.8956 -0.0615
  184SLPC   H5X21175   3.010   0.791   9.854 -0.0940 -0.3940 -0.8401
  184SLPC   H5Y21176   3.152   0.763   9.963 -2.0236 -2.5074 -0.2261
  184SLPC   C3621177   3.201   0.779   9.748  0.7513 -0.0291 -0.3528
  184SLPC   H6X21178   3.232   0.678   9.780  3.5079  1.7026  3.1821
  184SLPC   H6Y21179   3.283   0.853   9.733 -1.3241  2.4597 -0.2876
  184SLPC   C3721180   3.112   0.775   9.625  0.0077 -0.4823 -0.6792
  184SLPC   H7X21181   3.078   0.881   9.628  1.6038  0.0389  0.2189
  184SLPC   H7Y21182   3.032   0.701   9.643 -1.2998  1.3428  1.6073
  184SLPC   C3821183   3.176   0.755   9.491 -0.5808  0.3720 -0.2676
  184SLPC   H8X21184   3.244   0.668   9.503 -2.2633 -1.2114 -1.7131
  184SLPC   H8Y21185   3.231   0.845   9.456 -1.0579  0.2978 -1.2416
  184SLPC   C3921186   3.072   0.714   9.389 -0.2918  0.8199  0.1101
  184SLPC   H9X21187   2.975   0.766   9.392 -0.1436  1.4688 -2.8883
  184SLPC   H9Y21188   3.064   0.603   9.394  1.7843  0.6141 -0.1787
  184SLPC  C31021189   3.127   0.734   9.243 -0.6477  0.1874 -0.3971
  184SLPC  H10X21190   3.218   0.672   9.229  1.4304  2.6226  1.5322
  184SLPC  H10Y21191   3.162   0.836   9.215  1.5838 -1.0816 -2.6581
  184SLPC  C31121192   3.036   0.694   9.127  0.2089  0.2556  0.6102
  184SLPC  H11X21193   3.015   0.585   9.117  0.5135  0.3476 -1.6480
  184SLPC  H11Y21194   3.102   0.724   9.043  0.9685 -1.1281  0.6927
  184SLPC  C31221195   2.904   0.777   9.119 -0.2516  0.0553 -0.2268
  184SLPC  H12X21196   2.925   0.886   9.119 -3.5908  0.7897 -0.1701
  184SLPC  H12Y21197   2.858   0.756   9.218 -0.8206 -0.9543 -0.6964
  184SLPC  C31321198   2.801   0.744   9.010 -0.3790  0.1399 -0.5630
  184SLPC  H13X21199   2.762   0.643   9.033 -0.2546  0.4963  1.3441
  184SLPC  H13Y21200   2.847   0.740   8.909  0.6625 -0.3455 -0.0757
  184SLPC  C31421201   2.686   0.842   9.003  0.0250 -0.0763  0.5139
  184SLPC  H14X21202   2.724   0.946   9.018  0.1156 -0.1377  0.7108
  184SLPC  H14Y21203   2.620   0.827   9.091  0.7920 -0.6799  1.0039
  184SLPC  C31521204   2.613   0.842   8.869  0.1450  0.6095 -0.5254
  184SLPC  H15X21205   2.509   0.879   8.878 -0.9945 -2.6943  1.6726
  184SLPC  H15Y21206   2.593   0.741   8.826 -0.7816  0.7789 -0.5070
  184SLPC  C31621207   2.678   0.931   8.762 -0.4610  0.6552 -0.6028
  184SLPC  H16X21208   2.783   0.898   8.753 -0.9930 -0.9070 -1.5532
  184SLPC  H16Y21209   2.679   1.040   8.779  1.7544  1.4510 -4.5636
  184SLPC  C31721210   2.604   0.908   8.631  0.1009 -0.7217 -0.0194
  184SLPC  H17X21211   2.494   0.913   8.645 -0.1022 -2.1180 -0.8784
  184SLPC  H17Y21212   2.627   0.802   8.604  2.1854  0.4863 -3.8516
  184SLPC  C31821213   2.635   1.008   8.523 -0.2113  0.2067 -1.0869
  184SLPC  H18X21214   2.736   0.984   8.486 -0.1279 -1.5655  0.1629
  184SLPC  H18Y21215   2.631   1.110   8.569 -0.9329  0.4226 -1.6092
  184SLPC  H18Z21216   2.570   0.994   8.435  0.9810 -4.1615 -1.4938
  185SLPC     N21217   2.492   4.542   6.052 -0.5190  0.0279 -0.2173
  185SLPC   C1321218   2.519   4.396   6.084 -0.2668 -0.0579 -0.5492
  185SLPC  H13A21219   2.510   4.337   5.993 -0.3531 -0.6069 -0.1895
  185SLPC  H13B21220   2.619   4.390   6.123  0.9271  1.2738 -3.1341
  185SLPC  H13C21221   2.456   4.351   6.159  1.7419 -0.8740  0.7309
  185SLPC   C1421222   2.368   4.568   5.978  0.0755  0.2384  0.7246
  185SLPC  H14A21223   2.280   4.544   6.037 -0.0438 -2.1945 -0.3119
  185SLPC  H14B21224   2.366   4.675   5.962  0.8375  0.8566  3.9270
  185SLPC  H14C21225   2.355   4.524   5.881 -0.6505  2.8453 -0.4465
  185SLPC   C1521226   2.606   4.590   5.963  0.7218  1.1234  0.8198
  185SLPC  H15A21227   2.571   4.675   5.906  0.2722 -0.4388 -1.3756
  185SLPC  H15B21228   2.693   4.614   6.021  1.1455 -2.6659  2.0019
  185SLPC  H15C21229   2.633   4.521   5.885 -0.5361  0.8541  0.5867
  185SLPC   C1221230   2.478   4.629   6.179 -0.0977 -0.5107  0.3155
  185SLPC  H12A21231   2.385   4.608   6.230 -0.6125 -0.1963 -0.4760
  185SLPC  H12B21232   2.465   4.731   6.144 -2.4757 -0.8766 -0.0589
  185SLPC   C1121233   2.588   4.605   6.289 -0.8493  0.6571 -0.3337
  185SLPC  H11A21234   2.595   4.495   6.307 -0.4485  0.6336 -0.6238
  185SLPC  H11B21235   2.557   4.657   6.383 -1.2998  0.2058 -0.2243
  185SLPC     P21236   2.752   4.795   6.251 -0.8922 -0.2931 -0.0731
  185SLPC   O1321237   2.836   4.821   6.136 -0.0597  0.1429  0.8685
  185SLPC   O1421238   2.631   4.881   6.257 -0.6598 -0.2133 -0.4090
  185SLPC   O1221239   2.718   4.636   6.246 -0.4701 -0.7820  0.2361
  185SLPC   O1121240   2.834   4.821   6.380  0.1816  0.5234  0.1118
  185SLPC    C121241   2.831   4.723   6.486 -0.2249  0.5556  0.6577
  185SLPC    HA21242   2.729   4.688   6.515  0.0797 -0.4659  0.5375
  185SLPC    HB21243   2.892   4.638   6.451 -0.5776  1.0630 -1.2713
  185SLPC    C221244   2.895   4.790   6.610 -0.3284 -0.0237  0.0806
  185SLPC    HS21245   2.997   4.829   6.586  0.5770  0.5862  4.1216
  185SLPC   O2121246   2.907   4.690   6.711 -0.3510  0.4769  0.3502
  185SLPC   C2121247   3.014   4.621   6.711  0.3244  0.8015  0.0773
  185SLPC   O2221248   3.112   4.629   6.639  0.0524 -0.1068 -0.5326
  185SLPC   C2221249   2.995   4.522   6.822  0.7391  0.1034 -0.6579
  185SLPC   H2R21250   3.005   4.580   6.916  1.8970  2.4503 -2.1322
  185SLPC   H2S21251   2.892   4.481   6.816  0.7120  0.1126 -0.2936
  185SLPC    C321252   2.820   4.920   6.661  0.2281  0.1370  0.1440
  185SLPC    HX21253   2.723   4.892   6.709 -0.4505  0.5336 -0.9756
  185SLPC    HY21254   2.794   4.987   6.577  0.0346 -0.4087 -0.2345
  185SLPC   O3121255   2.898   4.984   6.761  0.0943  0.2048  0.1715
  185SLPC   C3121256   2.990   5.062   6.712  0.5365  0.1497 -0.2137
  185SLPC   O3221257   2.990   5.111   6.601  0.3610  0.0131  0.6474
  185SLPC   C3221258   3.104   5.093   6.806 -0.2031 -0.1059 -0.2915
  185SLPC   H2X21259   3.128   5.200   6.785 -2.1496  0.5495  0.6457
  185SLPC   H2Y21260   3.194   5.038   6.769 -0.3631 -0.3193 -0.3617
  185SLPC   C2321261   3.103   4.410   6.816 -0.4165 -1.0841  0.6711
  185SLPC   H3R21262   3.201   4.461   6.808 -0.2113 -1.1868  2.2318
  185SLPC   H3S21263   3.090   4.349   6.724 -1.5876  0.0814  0.0051
  185SLPC   C2421264   3.111   4.313   6.937  0.3039  0.4131 -0.5360
  185SLPC   H4R21265   3.197   4.245   6.915  1.0972  0.4521  2.1099
  185SLPC   H4S21266   3.016   4.256   6.937 -0.4936  1.7097 -0.8801
  185SLPC   C2521267   3.145   4.380   7.080 -0.2438 -0.2224  0.2796
  185SLPC   H5R21268   3.074   4.465   7.091  0.1142  0.3928 -1.7433
  185SLPC   H5S21269   3.248   4.418   7.063 -0.2430 -0.7807 -1.0391
  185SLPC   C2621270   3.149   4.289   7.202 -0.4273  0.2359  0.3558
  185SLPC   H6R21271   3.202   4.197   7.169 -0.1943  0.7075 -0.6103
  185SLPC   H6S21272   3.047   4.261   7.234  0.2167 -0.1357  2.2347
  185SLPC   C2721273   3.223   4.345   7.325 -0.6639  0.1611  0.4312
  185SLPC   H7R21274   3.246   4.261   7.394 -2.1458  0.0697  0.8431
  185SLPC   H7S21275   3.146   4.413   7.367 -0.3263 -0.1748  1.6255
  185SLPC   C2821276   3.361   4.408   7.300 -0.3053  0.3053  0.2009
  185SLPC   H8R21277   3.347   4.510   7.258  0.8052  0.0738 -0.7894
  185SLPC   H8S21278   3.407   4.346   7.219  0.2452  0.2446  0.5549
  185SLPC   C2921279   3.461   4.413   7.419  0.4554 -0.7581  0.1725
  185SLPC   H9R21280   3.427   4.466   7.509  2.3870  2.2415 -0.7197
  185SLPC  C21021281   3.579   4.345   7.425 -0.8907  0.0923  0.3124
  185SLPC  H10R21282   3.638   4.356   7.517  1.2605  3.6386 -1.3185
  185SLPC  C21121283   3.640   4.264   7.314  0.1481  0.2623 -0.3930
  185SLPC  H11R21284   3.573   4.270   7.226 -1.9211  1.3968  1.1657
  185SLPC  H11S21285   3.653   4.159   7.349 -1.2591  0.1217 -0.2330
  185SLPC  C21221286   3.775   4.320   7.282  0.5898  0.1362  0.6389
  185SLPC  H12R21287   3.778   4.402   7.209 -1.6494  0.7737  1.1758
  185SLPC  C21321288   3.896   4.277   7.324  0.3512 -0.0588 -0.0859
  185SLPC  H13R21289   3.983   4.343   7.309 -0.7012  1.6137  0.8912
  185SLPC  C21421290   3.913   4.160   7.425  0.1847  0.0080 -0.5315
  185SLPC  H14R21291   4.011   4.108   7.412 -1.3254 -3.3314  0.4556
  185SLPC  H14S21292   3.831   4.087   7.406  1.1835 -1.2847 -0.0621
  185SLPC  C21521293   3.911   4.211   7.570  0.3955 -0.0241 -0.3338
  185SLPC  H15R21294   3.807   4.234   7.603 -0.2523  0.8260 -2.7397
  185SLPC  H15S21295   3.965   4.305   7.594  0.8815  0.5287 -3.1962
  185SLPC  C21621296   3.958   4.109   7.679  0.1237 -0.1749 -0.1030
  185SLPC  H16R21297   3.943   4.146   7.782  0.3629 -1.8776  0.5691
  185SLPC  H16S21298   4.062   4.072   7.664  0.5142 -0.1481  2.2642
  185SLPC  C21721299   3.875   3.977   7.677 -0.0906 -0.1742  0.4119
  185SLPC  H17R21300   3.893   3.932   7.577  1.1246  2.9898 -0.9173
  185SLPC  H17S21301   3.770   4.005   7.696  0.5695  0.8440  3.0384
  185SLPC  C21821302   3.907   3.874   7.783 -0.5331 -0.4577 -0.9064
  185SLPC  H18R21303   4.009   3.833   7.768 -0.5618 -0.2054 -1.8876
  185SLPC  H18S21304   3.829   3.795   7.776 -1.3211  0.1604  0.4629
  185SLPC  H18T21305   3.896   3.920   7.884  0.1029 -1.4472 -0.3743
  185SLPC   C3321306   3.067   5.064   6.956  0.6232  0.0528  0.6831
  185SLPC   H3X21307   2.964   5.097   6.982 -1.1987 -2.7709 -2.1275
  185SLPC   H3Y21308   3.132   5.119   7.026  0.7312  0.3956  0.3159
  185SLPC   C3421309   3.089   4.919   7.002  0.3610 -0.8246 -0.1058
  185SLPC   H4X21310   3.195   4.893   6.982  0.8251  0.8427 -0.0159
  185SLPC   H4Y21311   3.016   4.861   6.941 -1.2483  0.3471  0.6155
  185SLPC   C3521312   3.050   4.911   7.150 -0.0453  0.0291  0.5092
  185SLPC   H5X21313   2.942   4.931   7.159  0.2454  0.9672  2.6569
  185SLPC   H5Y21314   3.097   4.993   7.208  1.5713 -1.2572  1.1277
  185SLPC   C3621315   3.100   4.778   7.208 -0.3236 -0.0808  0.0841
  185SLPC   H6X21316   3.198   4.751   7.164  0.2249 -2.2644  2.4131
  185SLPC   H6Y21317   3.031   4.695   7.184  0.0330  0.1788 -2.0110
  185SLPC   C3721318   3.106   4.789   7.361 -0.1372  1.0075 -1.0077
  185SLPC   H7X21319   3.184   4.862   7.392  1.9431 -2.3617  2.5617
  185SLPC   H7Y21320   3.128   4.690   7.407  3.2482  1.4759 -1.4054
  185SLPC   C3821321   2.982   4.849   7.422  0.0997 -0.2788 -0.1553
  185SLPC   H8X21322   2.901   4.779   7.393 -0.0337  0.5235 -1.8608
  185SLPC   H8Y21323   2.968   4.953   7.386  1.1755  0.1015  0.4662
  185SLPC   C3921324   2.981   4.857   7.578  0.1645 -0.0697 -0.0321
  185SLPC   H9X21325   3.077   4.880   7.630 -0.6847  1.5881  0.8824
  185SLPC   H9Y21326   2.970   4.755   7.620 -2.1023  0.3009  0.3836
  185SLPC  C31021327   2.882   4.963   7.639 -0.7932 -0.7357 -0.6150
  185SLPC  H10X21328   2.779   4.935   7.606 -1.0600  1.3939 -1.7304
  185SLPC  H10Y21329   2.911   5.061   7.595 -0.1552  0.2505  1.8357
  185SLPC  C31121330   2.889   4.969   7.795 -0.6556 -0.6198 -0.0183
  185SLPC  H11X21331   2.984   5.019   7.824 -0.4619 -0.9343 -0.1001
  185SLPC  H11Y21332   2.895   4.860   7.812  1.4880 -1.0703 -2.8176
  185SLPC  C31221333   2.777   5.025   7.877 -0.6238 -0.2903 -0.0087
  185SLPC  H12X21334   2.681   5.011   7.823 -1.7470  2.4204  1.0738
  185SLPC  H12Y21335   2.789   5.135   7.891 -1.7060 -0.2442  0.7109
  185SLPC  C31321336   2.751   4.958   8.013 -0.2520  0.3832 -0.1890
  185SLPC  H13X21337   2.719   4.854   7.987  2.2884 -0.9911  1.7441
  185SLPC  H13Y21338   2.671   4.999   8.079  0.4112 -0.1299  0.9553
  185SLPC  C31421339   2.862   4.962   8.121 -0.2394  0.5447 -1.3721
  185SLPC  H14X21340   2.951   4.906   8.086 -0.3462 -1.7916  1.6297
  185SLPC  H14Y21341   2.822   4.897   8.202 -2.6064  0.9987 -2.0710
  185SLPC  C31521342   2.885   5.107   8.168  0.1956  0.4103  0.0009
  185SLPC  H15X21343   2.812   5.130   8.249 -1.5198 -1.2407 -0.9817
  185SLPC  H15Y21344   2.891   5.183   8.088  1.4737 -0.4683 -0.7858
  185SLPC  C31621345   3.022   5.118   8.247  0.2589  0.0878  0.6251
  185SLPC  H16X21346   3.099   5.101   8.169  2.4983  2.3391  2.1775
  185SLPC  H16Y21347   3.042   5.029   8.311 -0.7780 -0.2531  0.4966
  185SLPC  C31721348   3.036   5.235   8.339  0.3929 -0.4492  0.9784
  185SLPC  H17X21349   2.958   5.236   8.419 -0.5358 -0.8755  0.0972
  185SLPC  H17Y21350   3.014   5.322   8.274 -0.0759 -1.3291 -0.0636
  185SLPC  C31821351   3.173   5.239   8.393 -0.3679 -0.2047 -0.4146
  185SLPC  H18X21352   3.181   5.316   8.472 -1.0787  0.1131 -0.6536
  185SLPC  H18Y21353   3.246   5.269   8.315  0.7634 -1.9629 -0.0952
  185SLPC  H18Z21354   3.200   5.143   8.444 -1.2651 -1.1487 -1.6431
  186SLPC     N21355   2.509   0.380   6.032  0.1937  0.9202  0.3294
  186SLPC   C1321356   2.559   0.442   5.910 -0.0591 -0.0876  0.8722
  186SLPC  H13A21357   2.645   0.505   5.926 -0.2539  0.8027 -1.2467
  186SLPC  H13B21358   2.595   0.374   5.834 -1.1445  2.0382 -1.6833
  186SLPC  H13C21359   2.489   0.511   5.866  2.0984  1.2690 -0.6186
  186SLPC   C1421360   2.491   0.474   6.149 -0.6998 -0.6789  0.0441
  186SLPC  H14A21361   2.492   0.411   6.237  0.5782  0.0112  0.5431
  186SLPC  H14B21362   2.577   0.539   6.147 -0.5286 -0.8764 -2.6496
  186SLPC  H14C21363   2.401   0.533   6.139  0.1448  1.1605  2.2234
  186SLPC   C1521364   2.604   0.276   6.071 -0.1743  1.3888 -0.1975
  186SLPC  H15A21365   2.707   0.307   6.080  0.3580 -0.1059 -0.7857
  186SLPC  H15B21366   2.568   0.225   6.159  2.0430 -0.0114 -0.0340
  186SLPC  H15C21367   2.625   0.210   5.988  0.1349  2.0316 -0.6456
  186SLPC   C1221368   2.378   0.310   6.004  0.1276  1.3944 -0.1786
  186SLPC  H12A21369   2.394   0.233   5.930 -0.0448 -2.1286  3.1477
  186SLPC  H12B21370   2.311   0.381   5.957  0.4282  1.4588 -0.5195
  186SLPC   C1121371   2.296   0.235   6.120  0.5470 -0.2335 -0.2284
  186SLPC  H11A21372   2.196   0.202   6.084  0.4952 -0.6450  0.3012
  186SLPC  H11B21373   2.269   0.306   6.200 -2.3813 -2.3133  0.7644
  186SLPC     P21374   2.370  -0.021   6.123 -0.6588 -0.1423  0.3132
  186SLPC   O1321375   2.247  -0.049   6.046 -0.1849  0.8095  0.6558
  186SLPC   O1421376   2.499  -0.031   6.049  0.3531  0.5109  0.0803
  186SLPC   O1221377   2.367   0.126   6.183 -0.0572  0.2049  0.0492
  186SLPC   O1121378   2.382  -0.115   6.253  0.0928  0.6141 -0.0420
  186SLPC    C121379   2.274  -0.105   6.355  0.0287  0.2478  0.0271
  186SLPC    HA21380   2.262   0.002   6.383  2.8272  0.7257 -0.3116
  186SLPC    HB21381   2.184  -0.160   6.319  0.9230 -0.7175 -0.7845
  186SLPC    C221382   2.303  -0.176   6.492 -0.4089  0.1370  0.5901
  186SLPC    HS21383   2.229  -0.143   6.568  0.0970 -0.2097  1.2384
  186SLPC   O2121384   2.433  -0.155   6.552  0.1042  0.2855  0.0525
  186SLPC   C2121385   2.465  -0.031   6.590  0.0819 -0.1530  1.0138
  186SLPC   O2221386   2.386   0.062   6.591  0.3753 -0.6862 -0.1056
  186SLPC   C2221387   2.613  -0.020   6.621  0.4183 -0.0163 -0.2715
  186SLPC   H2R21388   2.652  -0.119   6.653 -0.5923 -0.9127 -1.6940
  186SLPC   H2S21389   2.667   0.006   6.527  0.8396  0.4676  0.0953
  186SLPC    C321390   2.287  -0.327   6.463  0.3870 -0.0376 -0.3757
  186SLPC    HX21391   2.352  -0.357   6.378 -0.9610  1.4528 -2.0045
  186SLPC    HY21392   2.180  -0.346   6.440  0.3670 -0.3172 -0.0673
  186SLPC   O3121393   2.313  -0.406   6.580 -0.0901 -0.0590  0.4064
  186SLPC   C3121394   2.352  -0.534   6.558 -1.0001 -0.4048  0.3855
  186SLPC   O3221395   2.361  -0.582   6.447  0.1649  0.1680 -0.7398
  186SLPC   C3221396   2.402  -0.605   6.685 -0.3837  0.2070 -0.1688
  186SLPC   H2X21397   2.426  -0.710   6.656 -0.4789  0.7183 -2.2022
  186SLPC   H2Y21398   2.311  -0.617   6.749  0.2370 -0.0581  0.6842
  186SLPC   C2321399   2.651   0.082   6.741  0.8365  0.4698 -0.2728
  186SLPC   H3R21400   2.625   0.189   6.729 -2.2337 -0.3535 -2.3529
  186SLPC   H3S21401   2.757   0.093   6.772  1.0269  0.8730 -1.0428
  186SLPC   C2421402   2.564   0.035   6.865 -0.0624 -1.0428 -0.2737
  186SLPC   H4R21403   2.587  -0.071   6.890 -0.5159 -0.7950  1.3022
  186SLPC   H4S21404   2.458   0.040   6.832 -0.5679  1.3649  1.4479
  186SLPC   C2521405   2.579   0.121   6.990  0.0937 -0.2216  0.4281
  186SLPC   H5R21406   2.550   0.224   6.963 -1.4903 -1.0285 -1.1734
  186SLPC   H5S21407   2.688   0.129   7.011 -0.0487  0.9148  0.7857
  186SLPC   C2621408   2.497   0.069   7.108 -0.0782  0.0650 -0.3701
  186SLPC   H6R21409   2.519  -0.033   7.146  0.4746  1.4606  3.5946
  186SLPC   H6S21410   2.387   0.071   7.097 -0.4085 -0.2388  2.2497
  186SLPC   C2721411   2.526   0.154   7.234 -0.1314 -0.9466  0.4759
  186SLPC   H7R21412   2.495   0.257   7.205  1.2740 -0.4624  0.6374
  186SLPC   H7S21413   2.634   0.149   7.259  0.1254 -0.7499 -0.5692
  186SLPC   C2821414   2.443   0.110   7.358 -0.1452 -0.2317  0.7182
  186SLPC   H8R21415   2.485   0.015   7.396 -0.0846 -0.4215  0.1875
  186SLPC   H8S21416   2.337   0.093   7.329  0.1459 -1.5625  0.3396
  186SLPC   C2921417   2.445   0.205   7.472 -0.0485  0.2317  0.7415
  186SLPC   H9R21418   2.451   0.313   7.448  0.4799 -0.1922 -1.2290
  186SLPC  C21021419   2.415   0.168   7.601 -0.0347 -0.0870  0.3822
  186SLPC  H10R21420   2.409   0.241   7.682 -1.2049 -1.1481  1.2916
  186SLPC  C21121421   2.382   0.033   7.655  0.8799  0.7310  0.1766
  186SLPC  H11R21422   2.332  -0.026   7.576  0.8687 -0.7694  1.2530
  186SLPC  H11S21423   2.294   0.041   7.722 -2.6053  0.8266 -3.9929
  186SLPC  C21221424   2.487  -0.067   7.701  0.8021 -0.0785 -0.2493
  186SLPC  H12R21425   2.566  -0.087   7.627 -0.2424  0.3228 -1.5010
  186SLPC  C21321426   2.497  -0.111   7.831 -0.1009 -0.3989 -0.4758
  186SLPC  H13R21427   2.570  -0.187   7.864 -1.5812 -0.4783  2.9719
  186SLPC  C21421428   2.402  -0.069   7.934 -0.5773 -0.0548 -0.3634
  186SLPC  H14R21429   2.389  -0.152   8.006  0.4511 -0.5644 -0.7397
  186SLPC  H14S21430   2.301  -0.042   7.897 -0.9117 -0.5388  0.1703
  186SLPC  C21521431   2.449   0.072   7.991 -0.4614  0.3966 -0.1776
  186SLPC  H15R21432   2.461   0.147   7.909  1.4658 -1.4804 -1.7128
  186SLPC  H15S21433   2.551   0.064   8.034  0.3356 -1.0680 -2.1919
  186SLPC  C21621434   2.340   0.131   8.084 -0.1111 -0.2845  0.5560
  186SLPC  H16R21435   2.240   0.141   8.037  1.1633 -0.8412 -2.5815
  186SLPC  H16S21436   2.374   0.235   8.104 -0.9310  0.6354 -2.3126
  186SLPC  C21721437   2.324   0.047   8.211 -0.3737  0.3807 -0.3208
  186SLPC  H17R21438   2.425   0.026   8.252 -0.3676 -1.8380 -1.3336
  186SLPC  H17S21439   2.273  -0.049   8.187  2.6270 -1.2266 -0.7314
  186SLPC  C21821440   2.248   0.117   8.322  0.0699 -0.9355  0.1059
  186SLPC  H18R21441   2.295   0.211   8.359 -1.1849  0.3871 -1.5228
  186SLPC  H18S21442   2.252   0.039   8.401 -1.1259 -2.1904 -1.0199
  186SLPC  H18T21443   2.145   0.136   8.287  0.4806 -2.0679 -1.8104
  186SLPC   C3321444   2.521  -0.531   6.752  0.4078  0.5612 -0.2393
  186SLPC   H3X21445   2.515  -0.420   6.762  1.1625  0.5676  0.2073
  186SLPC   H3Y21446   2.611  -0.553   6.690  0.7079 -1.9515  0.9693
  186SLPC   C3421447   2.550  -0.591   6.892 -0.4362  0.5157  0.1512
  186SLPC   H4X21448   2.655  -0.560   6.906 -0.1019  1.8297 -3.8733
  186SLPC   H4Y21449   2.559  -0.700   6.877 -2.1501 -0.1009  2.9759
  186SLPC   C3521450   2.454  -0.564   7.006 -0.3600 -0.4217  0.7219
  186SLPC   H5X21451   2.489  -0.623   7.093  0.8483  0.2352  0.7026
  186SLPC   H5Y21452   2.352  -0.589   6.969 -1.3784  1.8920  1.7636
  186SLPC   C3621453   2.468  -0.415   7.041  0.0459  0.1719 -0.0779
  186SLPC   H6X21454   2.440  -0.350   6.955 -1.9069  0.5759  0.8148
  186SLPC   H6Y21455   2.576  -0.399   7.058 -0.2537  2.6860 -0.1547
  186SLPC   C3721456   2.390  -0.368   7.164  0.0092 -0.4894 -0.3425
  186SLPC   H7X21457   2.283  -0.353   7.138 -0.7241 -0.2425  2.4611
  186SLPC   H7Y21458   2.437  -0.268   7.175 -1.7998  0.2385  1.4807
  186SLPC   C3821459   2.406  -0.457   7.288  0.0748 -0.6538  0.6441
  186SLPC   H8X21460   2.515  -0.463   7.311  0.2078  1.1534  0.5796
  186SLPC   H8Y21461   2.362  -0.557   7.265 -0.7214 -0.1382 -0.1113
  186SLPC   C3921462   2.358  -0.379   7.407 -0.4225 -0.4001  0.1968
  186SLPC   H9X21463   2.252  -0.352   7.389 -0.1802  1.1938  0.9499
  186SLPC   H9Y21464   2.417  -0.285   7.417 -1.0618 -0.1608  1.9913
  186SLPC  C31021465   2.356  -0.462   7.539 -0.0541 -0.1695  0.2411
  186SLPC  H10X21466   2.459  -0.485   7.572  0.5859  3.0712  0.8990
  186SLPC  H10Y21467   2.302  -0.555   7.512 -1.2216  0.4056  0.4866
  186SLPC  C31121468   2.284  -0.379   7.648 -0.5938 -0.5585 -0.2294
  186SLPC  H11X21469   2.199  -0.322   7.603  1.0927  0.4633 -2.2690
  186SLPC  H11Y21470   2.348  -0.302   7.696 -1.3248 -1.1076  1.7582
  186SLPC  C31221471   2.235  -0.459   7.766 -0.5925 -0.6066  0.1498
  186SLPC  H12X21472   2.326  -0.481   7.825  0.3452  1.0570 -0.6240
  186SLPC  H12Y21473   2.179  -0.549   7.733 -1.6658  0.7629 -1.9347
  186SLPC  C31321474   2.141  -0.367   7.859  0.2933  0.7502 -0.0183
  186SLPC  H13X21475   2.038  -0.408   7.853  1.4536 -2.6931  0.9965
  186SLPC  H13Y21476   2.148  -0.262   7.823 -0.9138  0.0193 -2.6922
  186SLPC  C31421477   2.195  -0.382   8.005  0.8421 -0.7170  0.0831
  186SLPC  H14X21478   2.300  -0.346   8.010  0.0379  1.8408  0.2609
  186SLPC  H14Y21479   2.196  -0.490   8.029  3.8479 -0.2370  2.8184
  186SLPC  C31521480   2.102  -0.324   8.108 -0.5615 -0.0648 -0.7189
  186SLPC  H15X21481   2.004  -0.376   8.111 -1.0776  0.6778 -2.7571
  186SLPC  H15Y21482   2.079  -0.220   8.074  1.7086  0.4938 -0.7215
  186SLPC  C31621483   2.166  -0.330   8.249 -0.1580  0.3848 -0.4836
  186SLPC  H16X21484   2.260  -0.272   8.236 -1.2748  2.3895 -0.0610
  186SLPC  H16Y21485   2.191  -0.437   8.270 -1.2210  0.3462  0.7065
  186SLPC  C31721486   2.074  -0.283   8.361 -0.1719  0.1862 -0.4481
  186SLPC  H17X21487   1.990  -0.356   8.370 -0.7785  0.5912 -2.3766
  186SLPC  H17Y21488   2.026  -0.190   8.323  3.5223  2.7949  0.7725
  186SLPC  C31821489   2.147  -0.241   8.487  0.0591 -0.0467  0.4272
  186SLPC  H18X21490   2.183  -0.329   8.544 -0.4833 -0.4347  0.1820
  186SLPC  H18Y21491   2.087  -0.177   8.555 -1.6552  2.9766 -3.5047
  186SLPC  H18Z21492   2.240  -0.182   8.471  0.0979  0.3065  1.8251
  187SLPC     N21493   1.452   5.221   6.034 -0.3132 -0.0936  0.9609
  187SLPC   C1321494   1.315   5.261   5.989  0.0769  0.9716  0.1236
  187SLPC  H13A21495   1.238   5.201   6.034 -0.1067  0.5882 -0.6736
  187SLPC  H13B21496   1.298   5.366   6.004  0.0337  0.9473  0.2430
  187SLPC  H13C21497   1.294   5.263   5.883  1.9436 -1.6379 -0.3984
  187SLPC   C1421498   1.551   5.303   5.961 -0.1154  0.1293 -0.0726
  187SLPC  H14A21499   1.644   5.267   6.001  0.4847 -0.7037 -2.0640
  187SLPC  H14B21500   1.544   5.287   5.854  0.5080 -1.3129  0.0784
  187SLPC  H14C21501   1.542   5.407   5.989 -0.2761  0.0427  0.2011
  187SLPC   C1521502   1.480   5.079   6.001  0.1111 -0.0258 -0.0578
  187SLPC  H15A21503   1.477   5.072   5.894  2.1325 -0.1864 -0.1485
  187SLPC  H15B21504   1.571   5.040   6.045  1.0313  1.6715 -0.3952
  187SLPC  H15C21505   1.407   5.013   6.046  1.7709 -0.7387  1.7559
  187SLPC   C1221506   1.467   5.247   6.180 -0.0225  0.0033 -0.0547
  187SLPC  H12A21507   1.449   5.353   6.193  2.6333  0.7885 -1.8000
  187SLPC  H12B21508   1.572   5.243   6.204  0.5433  0.8022 -2.1334
  187SLPC   C1121509   1.385   5.165   6.274  0.0610 -0.3636 -0.8351
  187SLPC  H11A21510   1.418   5.059   6.273 -0.3062 -0.4830 -0.6421
  187SLPC  H11B21511   1.275   5.166   6.256 -0.0231 -0.4002 -0.3435
  187SLPC     P21512   1.465   5.142   6.531  0.0709  0.1963  0.0956
  187SLPC   O1321513   1.561   5.032   6.486  0.2985 -0.1724 -0.5361
  187SLPC   O1421514   1.537   5.229   6.615 -0.2191 -0.0143 -0.3308
  187SLPC   O1221515   1.418   5.219   6.404 -0.1838 -0.2779 -0.4853
  187SLPC   O1121516   1.339   5.076   6.607  0.3769  0.3785  0.3413
  187SLPC    C121517   1.248   5.162   6.669  0.1784 -0.2364  0.2856
  187SLPC    HA21518   1.258   5.271   6.647 -0.8746  0.0363  1.0615
  187SLPC    HB21519   1.150   5.146   6.621  0.8226  1.3922 -1.7019
  187SLPC    C221520   1.238   5.132   6.825 -0.4086 -0.0687  1.1342
  187SLPC    HS21521   1.157   5.198   6.861 -2.3131 -0.0833 -2.6672
  187SLPC   O2121522   1.360   5.153   6.889  0.3006  0.0458 -0.2819
  187SLPC   C2121523   1.399   5.277   6.877 -0.4172 -0.3201  0.4325
  187SLPC   O2221524   1.338   5.374   6.838  0.0290  0.3854 -0.1690
  187SLPC   C2221525   1.537   5.292   6.944 -0.0711 -0.2053 -0.1834
  187SLPC   H2R21526   1.565   5.198   6.997 -0.2291 -1.3773 -2.1004
  187SLPC   H2S21527   1.601   5.300   6.854 -0.2433 -3.4896 -0.6907
  187SLPC    C321528   1.198   4.978   6.845 -0.8916 -0.0969  0.3849
  187SLPC    HX21529   1.265   4.921   6.777 -1.4362 -0.7865  0.4137
  187SLPC    HY21530   1.094   4.947   6.822  0.0344 -3.0318 -0.2519
  187SLPC   O3121531   1.224   4.942   6.985 -0.1835  0.1203 -0.0904
  187SLPC   C3121532   1.136   4.986   7.074 -0.3656  0.1923 -0.0212
  187SLPC   O3221533   1.043   5.058   7.053  0.2889  0.0507  0.1138
  187SLPC   C3221534   1.156   4.910   7.204 -0.6629  0.4374  0.0599
  187SLPC   H2X21535   1.137   4.802   7.182 -1.9062 -0.1978  3.5014
  187SLPC   H2Y21536   1.076   4.932   7.278  0.0820 -1.2303  1.4373
  187SLPC   C2321537   1.541   5.401   7.050  0.2823  0.4724 -0.2092
  187SLPC   H3R21538   1.489   5.494   7.017 -1.9830 -0.0870  1.4617
  187SLPC   H3S21539   1.649   5.427   7.053  0.7490 -1.3303 -0.3297
  187SLPC   C2421540   1.487   5.360   7.193  0.2536  0.6892  0.0957
  187SLPC   H4R21541   1.548   5.268   7.211 -0.0568  0.5558  0.4899
  187SLPC   H4S21542   1.379   5.332   7.199  1.1586 -3.1970  1.5753
  187SLPC   C2521543   1.524   5.463   7.294 -0.4363 -0.1467 -0.5450
  187SLPC   H5R21544   1.456   5.549   7.282 -0.5283 -0.2249 -0.5868
  187SLPC   H5S21545   1.623   5.507   7.271 -1.1691  1.8229 -0.0661
  187SLPC   C2621546   1.507   5.423   7.441  0.0734 -0.6717 -0.5272
  187SLPC   H6R21547   1.582   5.475   7.504  1.1701 -2.0873 -0.6203
  187SLPC   H6S21548   1.529   5.315   7.452  1.8999 -0.1748  1.3991
  187SLPC   C2721549   1.364   5.446   7.498  0.2349  0.3645  0.8331
  187SLPC   H7R21550   1.293   5.382   7.442 -0.1057  0.7096  0.8718
  187SLPC   H7S21551   1.320   5.547   7.488 -2.6488 -0.9755 -1.3116
  187SLPC   C2821552   1.333   5.400   7.643 -0.2942  0.7256  0.2667
  187SLPC   H8R21553   1.227   5.428   7.661  0.0866  2.6717 -0.2900
  187SLPC   H8S21554   1.389   5.452   7.724 -0.0921 -0.7179  1.0955
  187SLPC   C2921555   1.358   5.258   7.681  0.1933  0.2681 -0.3482
  187SLPC   H9R21556   1.352   5.186   7.598 -0.9977 -0.1710  0.0936
  187SLPC  C21021557   1.374   5.209   7.809 -0.3446 -0.1870 -0.3039
  187SLPC  H10R21558   1.389   5.101   7.821  1.2657  0.2716  2.5478
  187SLPC  C21121559   1.377   5.292   7.928  0.0977 -0.0376 -0.0654
  187SLPC  H11R21560   1.334   5.234   8.012  1.7067 -1.6951 -0.3327
  187SLPC  H11S21561   1.306   5.377   7.919 -1.4014 -1.1030  1.1529
  187SLPC  C21221562   1.509   5.352   7.963 -0.1364 -0.2912  0.4245
  187SLPC  H12R21563   1.579   5.353   7.878 -0.4019  1.1108  0.2110
  187SLPC  C21321564   1.547   5.396   8.087 -0.0135 -0.4027  0.3357
  187SLPC  H13R21565   1.653   5.420   8.103 -0.4734  0.3683  2.6379
  187SLPC  C21421566   1.460   5.406   8.210  0.1045  0.2932 -0.6766
  187SLPC  H14R21567   1.352   5.398   8.186  0.2774 -2.1476 -0.9280
  187SLPC  H14S21568   1.482   5.502   8.262 -0.7674  0.6094 -0.8742
  187SLPC  C21521569   1.514   5.293   8.301 -0.3775  0.5783  0.2408
  187SLPC  H15R21570   1.624   5.285   8.308 -0.3572  1.1402  0.5490
  187SLPC  H15S21571   1.488   5.192   8.262 -0.8233  0.4650  0.8082
  187SLPC  C21621572   1.458   5.307   8.445  0.0810  0.2914  0.5583
  187SLPC  H16R21573   1.348   5.313   8.431  0.4640  1.0430 -3.3128
  187SLPC  H16S21574   1.495   5.392   8.505  0.2629  1.5624 -1.2666
  187SLPC  C21721575   1.492   5.191   8.534 -0.5401 -0.0641 -0.3794
  187SLPC  H17R21576   1.603   5.186   8.544 -0.5757  0.0219  0.0653
  187SLPC  H17S21577   1.446   5.099   8.493 -0.5643 -0.3285  0.2329
  187SLPC  C21821578   1.425   5.205   8.672  0.1123  0.2802 -0.0180
  187SLPC  H18R21579   1.440   5.308   8.710  1.8136  0.3098 -0.7131
  187SLPC  H18S21580   1.475   5.142   8.748  0.1766 -1.3140 -1.3227
  187SLPC  H18T21581   1.320   5.169   8.679  0.3484 -0.4073  0.0391
  187SLPC   C3321582   1.298   4.917   7.276  0.5771 -0.2678  0.2135
  187SLPC   H3X21583   1.297   4.846   7.361  1.3577  0.9542  1.2863
  187SLPC   H3Y21584   1.313   5.021   7.315  0.4579 -0.0283 -0.3749
  187SLPC   C3421585   1.415   4.872   7.197  0.5937  1.2796 -0.2548
  187SLPC   H4X21586   1.425   4.944   7.112 -1.8326  0.9149 -0.9467
  187SLPC   H4Y21587   1.393   4.770   7.158  2.8475  1.1324 -1.2690
  187SLPC   C3521588   1.547   4.858   7.269  0.3585 -0.4572 -0.0399
  187SLPC   H5X21589   1.622   4.804   7.209  0.4356  0.7089 -1.0344
  187SLPC   H5Y21590   1.533   4.800   7.363 -0.0520 -3.0213 -1.6190
  187SLPC   C3621591   1.615   4.992   7.309  0.2740  0.1589 -0.0667
  187SLPC   H6X21592   1.540   5.060   7.356  0.3824 -0.1535  0.5641
  187SLPC   H6Y21593   1.658   5.041   7.219  0.3041  0.2681  0.0072
  187SLPC   C3721594   1.724   4.975   7.415 -0.0679 -0.5171 -0.3271
  187SLPC   H7X21595   1.807   4.901   7.404  1.3369  0.8654  0.6263
  187SLPC   H7Y21596   1.778   5.070   7.398  0.7825 -1.2928 -2.3490
  187SLPC   C3821597   1.657   4.972   7.552 -0.5169 -0.1637 -0.6655
  187SLPC   H8X21598   1.578   4.896   7.573 -1.3437  0.5997 -0.9659
  187SLPC   H8Y21599   1.602   5.065   7.579 -0.9251 -0.7758  0.7227
  187SLPC   C3921600   1.755   4.968   7.669  0.7930  0.4911 -0.3346
  187SLPC   H9X21601   1.836   5.043   7.655  2.1357 -1.3269 -3.2761
  187SLPC   H9Y21602   1.801   4.867   7.677 -1.3333 -0.4374  0.9593
  187SLPC  C31021603   1.679   4.998   7.800 -0.7110 -0.1416  0.6625
  187SLPC  H10X21604   1.621   4.904   7.813 -0.6024 -0.3491 -0.3080
  187SLPC  H10Y21605   1.612   5.086   7.795 -2.8326 -1.7319 -1.3416
  187SLPC  C31121606   1.766   5.011   7.924 -0.7450  0.3654 -0.0826
  187SLPC  H11X21607   1.846   5.086   7.910  0.4833 -1.1101 -1.3486
  187SLPC  H11Y21608   1.814   4.912   7.936  0.5231  0.9196 -0.3944
  187SLPC  C31221609   1.693   5.060   8.048  0.1664 -0.3889  0.1663
  187SLPC  H12X21610   1.587   5.025   8.052  0.2816 -0.6372  1.3045
  187SLPC  H12Y21611   1.692   5.169   8.027 -4.2142 -0.2040  0.2800
  187SLPC  C31321612   1.763   5.031   8.185  0.5230  0.5288  0.1762
  187SLPC  H13X21613   1.742   4.923   8.202 -1.6523  0.8664 -0.0451
  187SLPC  H13Y21614   1.710   5.091   8.262 -1.7117 -0.2410 -0.6763
  187SLPC  C31421615   1.919   5.051   8.187 -0.2827  0.5976  0.6168
  187SLPC  H14X21616   1.932   5.153   8.146 -2.1593  0.5378 -0.2301
  187SLPC  H14Y21617   1.960   4.972   8.121 -3.4378 -0.0054 -0.8196
  187SLPC  C31521618   1.982   5.041   8.327  0.5369  0.3482 -0.1585
  187SLPC  H15X21619   1.974   4.945   8.382  1.6392 -0.1116 -0.7687
  187SLPC  H15Y21620   1.925   5.107   8.396  3.8472  1.0403  2.1366
  187SLPC  C31621621   2.132   5.065   8.325 -0.3244 -0.1321 -0.2579
  187SLPC  H16X21622   2.142   5.163   8.275  2.5330  0.1921  0.7576
  187SLPC  H16Y21623   2.177   4.979   8.270  0.6024 -1.0555  1.8311
  187SLPC  C31721624   2.204   5.067   8.462 -0.2042 -0.1314  0.0572
  187SLPC  H17X21625   2.311   5.085   8.436 -0.1764 -1.5530 -0.8991
  187SLPC  H17Y21626   2.207   4.967   8.510  2.3662 -1.5900 -2.7460
  187SLPC  C31821627   2.152   5.169   8.561  0.1664 -0.4771 -0.1318
  187SLPC  H18X21628   2.149   5.269   8.512  0.1018  0.2594  1.3251
  187SLPC  H18Y21629   2.218   5.174   8.650 -1.1351 -1.8930  0.9634
  187SLPC  H18Z21630   2.053   5.148   8.607 -0.5680  2.0055 -0.4333
  188SLPC     N21631   0.623   0.064   6.025  0.2351  0.1207 -0.3948
  188SLPC   C1321632   0.687   0.094   6.161  0.6597 -0.6389  0.5800
  188SLPC  H13A21633   0.746   0.184   6.152  1.5413 -1.2477  0.2341
  188SLPC  H13B21634   0.614   0.105   6.240  0.6212 -0.4952  0.5257
  188SLPC  H13C21635   0.749   0.008   6.182 -1.6856 -2.6779 -0.3153
  188SLPC   C1421636   0.565   0.194   5.970 -0.0029  0.9271 -0.2271
  188SLPC  H14A21637   0.648   0.259   5.947 -0.6771  1.9177  0.0988
  188SLPC  H14B21638   0.521   0.181   5.872 -1.9204  0.7285  0.6147
  188SLPC  H14C21639   0.495   0.228   6.045  1.7369 -0.5758  2.2519
  188SLPC   C1521640   0.508  -0.028   6.049 -0.0914  1.0394 -0.0749
  188SLPC  H15A21641   0.536  -0.114   6.109 -0.9488  2.1278  1.9874
  188SLPC  H15B21642   0.442   0.028   6.114  1.9484  0.3493  2.7589
  188SLPC  H15C21643   0.458  -0.058   5.958 -0.2402  0.2171  0.2691
  188SLPC   C1221644   0.726   0.006   5.926  0.1257  0.8278  0.3559
  188SLPC  H12A21645   0.802   0.081   5.915  1.5011 -0.2880  1.7151
  188SLPC  H12B21646   0.677  -0.021   5.834  0.2101  0.5142  0.4004
  188SLPC   C1121647   0.805  -0.123   5.964  0.0373 -0.1241 -0.4384
  188SLPC  H11A21648   0.859  -0.162   5.874 -1.5166  0.8068 -1.8372
  188SLPC  H11B21649   0.728  -0.201   5.985  1.4841 -1.1371  1.3362
  188SLPC     P21650   0.935  -0.215   6.165 -0.1018 -0.0783  0.8266
  188SLPC   O1321651   0.816  -0.280   6.223  0.6643 -0.4512 -0.0857
  188SLPC   O1421652   1.041  -0.293   6.093  0.1474  0.0821 -0.4409
  188SLPC   O1221653   0.891  -0.097   6.073 -0.4571  0.0642  0.2921
  188SLPC   O1121654   0.999  -0.125   6.278  0.0909  0.1741 -0.0943
  188SLPC    C121655   1.123  -0.069   6.261 -0.8444 -0.2051  0.5600
  188SLPC    HA21656   1.172  -0.079   6.162 -0.0069 -1.2677  1.0630
  188SLPC    HB21657   1.107   0.040   6.274  0.9736  0.2194 -0.4038
  188SLPC    C221658   1.222  -0.111   6.373  0.1429 -0.8041  1.1340
  188SLPC    HS21659   1.242  -0.218   6.350  1.3646 -0.6960  1.5859
  188SLPC   O2121660   1.168  -0.096   6.499 -0.0912  0.1607 -0.3887
  188SLPC   C2121661   1.120  -0.204   6.560  0.1211  0.5565  0.4039
  188SLPC   O2221662   1.135  -0.322   6.523 -0.1731  0.5279 -0.2868
  188SLPC   C2221663   1.051  -0.161   6.686 -1.0062 -0.4580  0.1218
  188SLPC   H2R21664   1.074  -0.053   6.702  3.8739 -1.2605 -0.0119
  188SLPC   H2S21665   0.947  -0.168   6.647  0.0456 -2.3032 -2.6367
  188SLPC    C321666   1.356  -0.026   6.376 -0.1179  0.8834  0.2170
  188SLPC    HX21667   1.333   0.082   6.368  3.3376  1.7071  0.0781
  188SLPC    HY21668   1.412  -0.047   6.283 -1.5883  3.0783 -1.2557
  188SLPC   O3121669   1.441  -0.041   6.491 -0.0265 -0.8210 -0.5849
  188SLPC   C3121670   1.502   0.060   6.543  0.4701  0.0245 -0.7486
  188SLPC   O3221671   1.479   0.177   6.521 -0.2266  0.0139  0.4069
  188SLPC   C3221672   1.584   0.005   6.664  0.4838  0.2051 -0.0041
  188SLPC   H2X21673   1.628  -0.093   6.635 -0.5478  0.0525 -1.1414
  188SLPC   H2Y21674   1.510  -0.025   6.742 -0.7941  1.7543 -0.5818
  188SLPC   C2321675   1.072  -0.247   6.809  1.2066  0.4946  0.4249
  188SLPC   H3R21676   1.136  -0.335   6.786 -0.1047 -0.5887  0.8186
  188SLPC   H3S21677   0.972  -0.289   6.833  0.8265 -0.0448 -1.8236
  188SLPC   C2421678   1.117  -0.172   6.932 -0.7499 -0.4919 -0.3039
  188SLPC   H4R21679   1.036  -0.096   6.940 -0.0571  0.4911 -1.9989
  188SLPC   H4S21680   1.214  -0.121   6.914 -0.9984 -0.4255 -1.5761
  188SLPC   C2521681   1.126  -0.267   7.051 -0.6770  0.0827  0.0734
  188SLPC   H5R21682   1.021  -0.287   7.077 -1.6649  1.0532 -2.7385
  188SLPC   H5S21683   1.177  -0.216   7.135 -0.6938 -1.9675  1.3990
  188SLPC   C2621684   1.202  -0.400   7.030 -0.2033  0.0999 -0.5540
  188SLPC   H6R21685   1.292  -0.391   6.965  0.0111 -3.6331 -0.9878
  188SLPC   H6S21686   1.127  -0.459   6.974 -0.1068  0.7053 -1.3422
  188SLPC   C2721687   1.246  -0.459   7.162 -0.3243 -0.5130 -0.2680
  188SLPC   H7R21688   1.322  -0.389   7.200  0.9807 -0.4295 -2.7995
  188SLPC   H7S21689   1.305  -0.551   7.143  0.1097  0.3895 -4.1649
  188SLPC   C2821690   1.133  -0.482   7.264 -0.6144  0.2926  0.0064
  188SLPC   H8R21691   1.094  -0.379   7.272  2.0725  1.2353  2.7800
  188SLPC   H8S21692   1.184  -0.508   7.359  1.1528  0.8785 -0.7505
  188SLPC   C2921693   1.044  -0.587   7.211 -0.0030  0.2857 -0.9392
  188SLPC   H9R21694   1.034  -0.604   7.102 -0.8408 -2.1612 -0.5486
  188SLPC  C21021695   0.954  -0.656   7.281 -0.0783  0.5694 -0.6233
  188SLPC  H10R21696   0.905  -0.744   7.238  1.2790 -1.7575  2.2866
  188SLPC  C21121697   0.929  -0.656   7.429  0.5358 -0.0664 -0.0471
  188SLPC  H11R21698   1.031  -0.659   7.474  1.1447 -0.5192 -1.4197
  188SLPC  H11S21699   0.900  -0.756   7.466  0.5919  0.3642  1.2246
  188SLPC  C21221700   0.849  -0.553   7.493  0.8308  0.1399  0.4486
  188SLPC  H12R21701   0.833  -0.461   7.434 -0.4284 -1.3468 -1.6684
  188SLPC  C21321702   0.796  -0.570   7.617  0.2704  0.1722  0.0211
  188SLPC  H13R21703   0.734  -0.487   7.653  0.1448  0.9307 -1.8407
  188SLPC  C21421704   0.804  -0.689   7.713 -0.0935 -0.3271  0.0941
  188SLPC  H14R21705   0.874  -0.765   7.672  2.2234  1.2940  0.8096
  188SLPC  H14S21706   0.702  -0.730   7.727 -0.1650  0.4318  2.2366
  188SLPC  C21521707   0.850  -0.654   7.853 -0.0779 -0.6133 -0.4525
  188SLPC  H15R21708   0.778  -0.585   7.901  0.2670 -0.7406  0.2618
  188SLPC  H15S21709   0.944  -0.595   7.845  0.0215 -0.4368  1.5818
  188SLPC  C21621710   0.871  -0.783   7.938 -0.1851  0.4200 -0.2650
  188SLPC  H16R21711   0.935  -0.851   7.876  1.2852  2.5413 -1.1857
  188SLPC  H16S21712   0.769  -0.818   7.962  0.1966 -0.8097 -0.3182
  188SLPC  C21721713   0.943  -0.764   8.071 -0.5388 -0.0258  0.7413
  188SLPC  H17R21714   0.886  -0.693   8.136  0.7599  0.7411  1.0801
  188SLPC  H17S21715   1.045  -0.725   8.050  0.3375 -2.2622  0.5732
  188SLPC  C21821716   0.953  -0.905   8.139  0.0587 -0.0464  0.4103
  188SLPC  H18R21717   0.856  -0.947   8.172  0.5011 -0.3972  1.2998
  188SLPC  H18S21718   1.027  -0.909   8.222  0.5686  2.3869  0.1358
  188SLPC  H18T21719   0.988  -0.982   8.066  1.0187  0.0274  0.7760
  188SLPC   C3321720   1.689   0.098   6.728  0.3718  0.5171 -0.4195
  188SLPC   H3X21721   1.649   0.202   6.726 -0.2176  0.2823 -1.2832
  188SLPC   H3Y21722   1.778   0.088   6.661  0.6285  2.4069 -0.4215
  188SLPC   C3421723   1.731   0.053   6.869  0.1812 -0.3365 -0.6091
  188SLPC   H4X21724   1.818   0.109   6.910  0.7061 -2.0526  0.7074
  188SLPC   H4Y21725   1.763  -0.053   6.867  0.4200 -0.3358  1.2896
  188SLPC   C3521726   1.616   0.086   6.975 -0.4492  0.0787 -0.3478
  188SLPC   H5X21727   1.518   0.049   6.938 -0.4125 -0.5640  0.1856
  188SLPC   H5Y21728   1.620   0.194   6.998  0.1262  0.7015 -2.9580
  188SLPC   C3621729   1.651   0.012   7.109  0.4051 -0.7031  0.4076
  188SLPC   H6X21730   1.731   0.068   7.160  0.6736  1.3466 -2.0696
  188SLPC   H6Y21731   1.686  -0.090   7.084 -1.9021 -1.6206  0.6484
  188SLPC   C3721732   1.524   0.002   7.191 -0.0182 -0.2340  0.1068
  188SLPC   H7X21733   1.433  -0.024   7.132 -1.5902  0.7613  1.9563
  188SLPC   H7Y21734   1.504   0.107   7.220  1.9761  0.4773 -0.9100
  188SLPC   C3821735   1.549  -0.082   7.311 -0.1366  0.2010  0.7902
  188SLPC   H8X21736   1.604  -0.035   7.396 -0.6136  0.3000  1.0504
  188SLPC   H8Y21737   1.610  -0.170   7.284  1.0154  1.2539 -0.1930
  188SLPC   C3921738   1.417  -0.132   7.370  0.8825  0.1056 -0.3559
  188SLPC   H9X21739   1.342  -0.171   7.299 -0.6005  1.3146  0.4747
  188SLPC   H9Y21740   1.357  -0.048   7.411  0.8018  0.3217 -0.9124
  188SLPC  C31021741   1.443  -0.236   7.479 -0.2140  0.2110  0.8700
  188SLPC  H10X21742   1.512  -0.191   7.554 -0.6902  3.1793 -0.3394
  188SLPC  H10Y21743   1.477  -0.327   7.426 -0.1262  1.1603 -0.7559
  188SLPC  C31121744   1.315  -0.265   7.566  0.6172  0.1284  0.3477
  188SLPC  H11X21745   1.237  -0.328   7.519  0.9865 -0.3027  0.3175
  188SLPC  H11Y21746   1.263  -0.175   7.606 -1.9809 -1.0297 -0.2372
  188SLPC  C31221747   1.349  -0.340   7.701  0.2290 -0.3264 -0.4053
  188SLPC  H12X21748   1.401  -0.271   7.771 -0.9898  1.0759 -0.8189
  188SLPC  H12Y21749   1.434  -0.407   7.676  2.7927  3.4384 -2.9816
  188SLPC  C31321750   1.226  -0.401   7.772  0.1868  0.4465 -0.0204
  188SLPC  H13X21751   1.175  -0.465   7.697  1.4356  0.0590 -0.5757
  188SLPC  H13Y21752   1.156  -0.321   7.804  2.7517  1.9666  2.2350
  188SLPC  C31421753   1.268  -0.487   7.897  0.1345  0.1474  0.1274
  188SLPC  H14X21754   1.336  -0.561   7.851 -2.4268 -1.4794 -1.3271
  188SLPC  H14Y21755   1.182  -0.543   7.939  1.3308 -0.9476  1.1893
  188SLPC  C31521756   1.339  -0.415   8.005 -0.7172 -0.3283 -0.7973
  188SLPC  H15X21757   1.268  -0.342   8.050 -0.2831 -1.2291  1.5230
  188SLPC  H15Y21758   1.433  -0.366   7.972 -0.1138 -1.7474 -1.2958
  188SLPC  C31621759   1.384  -0.513   8.117 -0.0935 -0.1372 -0.8930
  188SLPC  H16X21760   1.429  -0.448   8.195 -2.3901 -0.5324  0.8498
  188SLPC  H16Y21761   1.463  -0.583   8.081 -0.3897 -0.0526 -1.7233
  188SLPC  C31721762   1.273  -0.583   8.184  0.0336  0.2282 -0.0470
  188SLPC  H17X21763   1.235  -0.660   8.113  0.9007 -0.4650  0.2240
  188SLPC  H17Y21764   1.193  -0.510   8.211 -1.0850 -1.6624  2.0423
  188SLPC  C31821765   1.299  -0.651   8.319 -1.0431  0.3721 -0.0631
  188SLPC  H18X21766   1.208  -0.680   8.376 -1.2631 -1.7113 -1.3635
  188SLPC  H18Y21767   1.348  -0.579   8.388  0.2623  0.5930 -1.1764
  188SLPC  H18Z21768   1.357  -0.746   8.313  0.6105  1.2366  1.3106
  189SLPC     N21769   1.869   1.258   6.258 -0.1102  0.1026  0.2421
  189SLPC   C1321770   1.827   1.310   6.390 -0.5317 -0.9520  0.2985
  189SLPC  H13A21771   1.844   1.231   6.461  1.2668 -1.5850 -0.7718
  189SLPC  H13B21772   1.888   1.396   6.416 -0.8347 -1.1707  1.7609
  189SLPC  H13C21773   1.725   1.346   6.395 -0.5772 -1.2576  2.2509
  189SLPC   C1421774   1.848   1.365   6.159 -0.3395  1.0306  0.3900
  189SLPC  H14A21775   1.894   1.461   6.177  1.1255  0.0767  2.0669
  189SLPC  H14B21776   1.872   1.332   6.059  0.0981  0.9225  0.5290
  189SLPC  H14C21777   1.741   1.373   6.153 -0.3922 -0.6189 -2.1141
  189SLPC   C1521778   1.797   1.132   6.221 -0.1070  0.1300 -0.2392
  189SLPC  H15A21779   1.693   1.159   6.221 -0.1458  0.0949 -1.8235
  189SLPC  H15B21780   1.817   1.107   6.117 -1.3009  0.3875 -0.5538
  189SLPC  H15C21781   1.828   1.061   6.295  1.7596  1.2689  0.1261
  189SLPC   C1221782   2.016   1.225   6.275 -0.0147 -0.4658  0.2930
  189SLPC  H12A21783   2.053   1.158   6.199  0.3742  0.3155 -0.2295
  189SLPC  H12B21784   2.036   1.172   6.366  0.7233 -2.3553 -0.9070
  189SLPC   C1121785   2.107   1.344   6.269 -0.4859 -0.4439 -0.4954
  189SLPC  H11A21786   2.077   1.420   6.345  1.1622 -0.2700  0.0235
  189SLPC  H11B21787   2.106   1.404   6.176 -0.2950 -1.0189 -0.8714
  189SLPC     P21788   2.294   1.283   6.433 -0.2031 -0.1923  0.1434
  189SLPC   O1321789   2.223   1.163   6.477 -0.0791  0.2292  0.1549
  189SLPC   O1421790   2.443   1.266   6.426 -0.1757 -0.4798  0.2152
  189SLPC   O1221791   2.240   1.311   6.290 -0.4178  0.0010 -0.0360
  189SLPC   O1121792   2.256   1.410   6.519 -0.3993 -0.8789  0.4637
  189SLPC    C121793   2.168   1.407   6.635 -0.3962  0.2344  0.3119
  189SLPC    HA21794   2.073   1.461   6.617  0.1596  0.4791 -2.2727
  189SLPC    HB21795   2.144   1.303   6.665  3.2229 -0.9681 -0.5308
  189SLPC    C221796   2.231   1.467   6.769 -0.2618 -1.3767  0.1677
  189SLPC    HS21797   2.158   1.436   6.847 -0.9507 -0.5883 -0.1454
  189SLPC   O2121798   2.250   1.611   6.764 -0.3494  0.3723  0.5549
  189SLPC   C2121799   2.131   1.682   6.763  0.3865 -0.4436 -0.1100
  189SLPC   O2221800   2.019   1.645   6.774  0.2648 -0.5108 -0.1455
  189SLPC   C2221801   2.164   1.826   6.743 -0.1978 -0.3354 -0.1284
  189SLPC   H2R21802   2.215   1.861   6.835 -3.1346  0.5033  1.2980
  189SLPC   H2S21803   2.243   1.824   6.664 -1.4007 -1.5706 -1.3551
  189SLPC    C321804   2.371   1.400   6.795  0.4426 -0.8738 -0.0827
  189SLPC    HX21805   2.415   1.442   6.888 -0.2400  1.0576 -0.5726
  189SLPC    HY21806   2.431   1.426   6.705 -2.4402  0.0187 -1.9060
  189SLPC   O3121807   2.342   1.262   6.818  0.1335  0.7841  0.4609
  189SLPC   C3121808   2.450   1.186   6.797  0.0375 -0.5176  0.0613
  189SLPC   O3221809   2.564   1.228   6.773 -0.2977 -0.0995 -0.0667
  189SLPC   C3221810   2.405   1.033   6.809  0.5129  0.0237  0.1040
  189SLPC   H2X21811   2.494   0.983   6.765  1.7485  2.6562 -0.6353
  189SLPC   H2Y21812   2.315   1.032   6.744  0.5536 -3.2699 -0.0579
  189SLPC   C2321813   2.054   1.928   6.703 -0.2374  1.0959  0.0677
  189SLPC   H3R21814   1.955   1.892   6.736 -0.9840  0.5596 -2.5218
  189SLPC   H3S21815   2.043   1.930   6.592  1.2232  1.8918 -0.0832
  189SLPC   C2421816   2.065   2.070   6.754 -0.6209 -0.2186  0.3653
  189SLPC   H4R21817   2.172   2.093   6.737 -1.1115  0.5912 -2.0686
  189SLPC   H4S21818   2.027   2.075   6.858 -0.9173  0.1032  0.2445
  189SLPC   C2521819   1.979   2.168   6.671 -0.2866 -0.0326 -0.2661
  189SLPC   H5R21820   1.873   2.135   6.674 -0.4010  0.3154 -0.4503
  189SLPC   H5S21821   2.009   2.181   6.565 -1.2451  0.5607 -0.4759
  189SLPC   C2621822   2.005   2.314   6.727 -0.0412  0.3787 -0.5008
  189SLPC   H6R21823   1.960   2.379   6.649  1.4671 -2.1539 -3.7641
  189SLPC   H6S21824   2.113   2.337   6.717  0.0952 -0.1060 -0.1748
  189SLPC   C2721825   1.955   2.332   6.870 -0.8836 -0.5374  0.1007
  189SLPC   H7R21826   2.012   2.277   6.948 -0.9883 -0.5787  0.1485
  189SLPC   H7S21827   1.848   2.306   6.885 -1.3951  1.4237  0.1437
  189SLPC   C2821828   1.943   2.483   6.910  0.0850  0.5921  0.2617
  189SLPC   H8R21829   1.867   2.489   6.991  0.2244  1.7905  0.3274
  189SLPC   H8S21830   1.889   2.530   6.824 -1.0527 -0.0084  0.6354
  189SLPC   C2921831   2.075   2.545   6.927 -0.3355  0.4750 -0.5262
  189SLPC   H9R21832   2.148   2.522   6.849  1.9464  1.2059  1.2780
  189SLPC  C21021833   2.120   2.608   7.043  0.5703 -0.4577 -0.0459
  189SLPC  H10R21834   2.220   2.654   7.049 -0.3686  1.6508  0.3466
  189SLPC  C21121835   2.036   2.628   7.168 -0.0721 -0.6667 -0.4213
  189SLPC  H11R21836   2.087   2.628   7.266 -1.7245 -2.6269  0.5116
  189SLPC  H11S21837   1.979   2.535   7.187  0.1401 -0.5829  0.7126
  189SLPC  C21221838   1.937   2.749   7.162  0.3112 -0.1049 -0.3342
  189SLPC  H12R21839   1.844   2.741   7.104 -0.6688  0.2723  1.1510
  189SLPC  C21321840   1.938   2.850   7.247 -0.3515  0.0359  0.4098
  189SLPC  H13R21841   1.873   2.934   7.221 -0.9945  0.1874  2.4013
  189SLPC  C21421842   2.029   2.889   7.365 -0.2177 -0.3160  0.5776
  189SLPC  H14R21843   2.078   2.987   7.345  0.7641 -0.6268  1.3579
  189SLPC  H14S21844   2.102   2.805   7.370  1.2005  0.8052 -0.3097
  189SLPC  C21521845   1.946   2.911   7.498 -0.7666 -0.5111 -0.4009
  189SLPC  H15R21846   2.020   2.920   7.581 -1.3453  4.1830 -0.1324
  189SLPC  H15S21847   1.873   2.830   7.519 -0.0837 -0.4902  2.6469
  189SLPC  C21621848   1.880   3.050   7.500  0.0672 -0.1989 -1.1020
  189SLPC  H16R21849   1.783   3.049   7.445  0.2637 -0.4576 -1.4494
  189SLPC  H16S21850   1.943   3.126   7.449  0.1279  0.3050 -0.2841
  189SLPC  C21721851   1.872   3.101   7.644 -0.0946  0.7023 -1.0562
  189SLPC  H17R21852   1.851   3.017   7.714 -0.0925  0.4562 -1.3498
  189SLPC  H17S21853   1.778   3.158   7.658 -0.1868  0.1992  0.5445
  189SLPC  C21821854   1.995   3.180   7.694  0.1219  1.1782 -0.1662
  189SLPC  H18R21855   2.076   3.109   7.718  0.3556  1.3746 -0.3650
  189SLPC  H18S21856   1.957   3.233   7.784 -0.4268  2.0867 -0.9149
  189SLPC  H18T21857   2.035   3.249   7.617 -1.8826 -0.0019 -2.3800
  189SLPC   C3321858   2.356   0.999   6.946 -0.8407 -0.6976 -0.5375
  189SLPC   H3X21859   2.363   1.080   7.021  0.6789 -0.1364 -1.2566
  189SLPC   H3Y21860   2.426   0.926   6.993 -0.9681  0.3659  1.3955
  189SLPC   C3421861   2.224   0.933   6.955 -0.3284  0.7231  0.2856
  189SLPC   H4X21862   2.205   0.866   6.869 -1.7008 -0.4307  1.4326
  189SLPC   H4Y21863   2.143   1.009   6.947  2.5018  3.8450 -1.4860
  189SLPC   C3521864   2.217   0.833   7.072  0.2819  0.2707 -0.5147
  189SLPC   H5X21865   2.295   0.754   7.063 -1.0946 -0.8704 -3.6534
  189SLPC   H5Y21866   2.117   0.786   7.069 -0.3631  1.0267  3.4472
  189SLPC   C3621867   2.208   0.892   7.216  0.8782 -0.7939  0.3788
  189SLPC   H6X21868   2.130   0.970   7.217  0.6138 -1.0558  0.3539
  189SLPC   H6Y21869   2.305   0.939   7.243  0.0913  1.8289 -1.0536
  189SLPC   C3721870   2.181   0.796   7.327 -0.5898 -0.3770 -0.7429
  189SLPC   H7X21871   2.269   0.729   7.337  1.9675  2.5402 -2.2855
  189SLPC   H7Y21872   2.103   0.721   7.300 -0.2242 -1.7284  1.6321
  189SLPC   C3821873   2.154   0.863   7.464  1.0921  0.5182 -0.5051
  189SLPC   H8X21874   2.141   0.779   7.535  0.7454  0.8576 -0.1628
  189SLPC   H8Y21875   2.062   0.924   7.455  0.3993 -0.4698 -0.3062
  189SLPC   C3921876   2.267   0.950   7.514 -0.1170 -0.8747  0.2993
  189SLPC   H9X21877   2.278   1.037   7.445  1.4848  1.3759  3.1180
  189SLPC   H9Y21878   2.355   0.883   7.518 -0.4880 -1.3136  2.5229
  189SLPC  C31021879   2.237   1.009   7.650 -0.5534 -0.3401  0.3777
  189SLPC  H10X21880   2.156   1.082   7.628 -0.3090 -0.0856  0.3164
  189SLPC  H10Y21881   2.320   1.063   7.701 -0.6756 -1.2534  1.5971
  189SLPC  C31121882   2.197   0.904   7.756  0.8352 -0.2606  0.3879
  189SLPC  H11X21883   2.282   0.838   7.782  1.6982 -0.3371 -2.3002
  189SLPC  H11Y21884   2.110   0.841   7.729 -0.9270  1.1108  2.5347
  189SLPC  C31221885   2.161   0.975   7.885  0.6753  0.2996 -0.1725
  189SLPC  H12X21886   2.107   1.070   7.868 -1.3118 -0.3459  1.9023
  189SLPC  H12Y21887   2.258   1.002   7.932  1.4636 -0.5304 -1.2579
  189SLPC  C31321888   2.092   0.876   7.986 -0.2479  0.0408  0.5982
  189SLPC  H13X21889   2.162   0.794   8.014  1.0045  1.1483  0.7689
  189SLPC  H13Y21890   2.006   0.820   7.943 -1.0264  0.7485  1.2135
  189SLPC  C31421891   2.051   0.951   8.113 -0.4702  0.1789  0.1160
  189SLPC  H14X21892   1.954   0.995   8.081 -1.1492 -0.7591  0.8319
  189SLPC  H14Y21893   2.114   1.031   8.158 -2.6531  0.9301  2.0309
  189SLPC  C31521894   2.017   0.858   8.223  0.1899  0.1283  0.4915
  189SLPC  H15X21895   2.101   0.785   8.228  0.2257  0.2582  2.4356
  189SLPC  H15Y21896   1.928   0.805   8.183  0.5978  0.3108 -0.7153
  189SLPC  C31621897   2.019   0.917   8.362 -0.0482  0.0762  0.0308
  189SLPC  H16X21898   1.942   0.996   8.371 -0.7724 -0.7019  0.8050
  189SLPC  H16Y21899   2.118   0.959   8.388  0.5119 -0.4396 -1.1620
  189SLPC  C31721900   1.988   0.818   8.474  0.6516  0.7307  0.0561
  189SLPC  H17X21901   2.048   0.725   8.473  0.7421  0.7627  1.2008
  189SLPC  H17Y21902   1.880   0.790   8.469  0.9027 -0.3945  0.6230
  189SLPC  C31821903   2.009   0.872   8.620 -0.2465  0.7207 -0.0084
  189SLPC  H18X21904   1.938   0.954   8.643 -0.4149  0.1438  1.6942
  189SLPC  H18Y21905   2.111   0.915   8.625 -0.4743  1.5441 -1.6592
  189SLPC  H18Z21906   1.998   0.797   8.702 -0.0233 -2.7145 -2.8604
  190SLPC     N21907   0.742   2.055   6.350 -0.2710  0.6151 -0.0701
  190SLPC   C1321908   0.759   2.192   6.397 -0.3533 -0.5384  0.4305
  190SLPC  H13A21909   0.675   2.246   6.439  1.4442  1.8207  1.2670
  190SLPC  H13B21910   0.842   2.210   6.464  1.3046 -0.4829 -1.5753
  190SLPC  H13C21911   0.790   2.260   6.319  0.2540  1.6737  2.4811
  190SLPC   C1421912   0.859   2.007   6.276  0.1623  0.3565 -0.6678
  190SLPC  H14A21913   0.847   1.901   6.257  0.6821  0.0281  0.7197
  190SLPC  H14B21914   0.864   2.057   6.180  0.2895 -0.0158 -0.8555
  190SLPC  H14C21915   0.955   2.015   6.325 -0.3664 -0.3194  0.5176
  190SLPC   C1521916   0.627   2.051   6.259  0.0079  0.5209 -0.0174
  190SLPC  H15A21917   0.542   2.108   6.294 -0.7032 -0.2281 -0.4952
  190SLPC  H15B21918   0.652   2.099   6.165 -1.0257  0.5335 -0.2915
  190SLPC  H15C21919   0.601   1.948   6.242 -0.0974  0.6305 -0.5630
  190SLPC   C1221920   0.731   1.972   6.474 -0.0317  1.2964  0.0700
  190SLPC  H12A21921   0.659   2.023   6.536 -1.7032  0.4109 -1.0653
  190SLPC  H12B21922   0.822   1.976   6.533 -0.4080 -0.7486  0.8809
  190SLPC   C1121923   0.687   1.820   6.453  0.3327  0.1614  0.0270
  190SLPC  H11A21924   0.577   1.811   6.452  0.2870 -0.1858  2.7557
  190SLPC  H11B21925   0.716   1.767   6.546  1.7964  0.1002 -0.4384
  190SLPC     P21926   0.696   1.646   6.259  0.3241  0.0082  0.4242
  190SLPC   O1321927   0.577   1.700   6.196 -0.3015  0.2117 -0.5400
  190SLPC   O1421928   0.793   1.578   6.176  0.0171  0.1346  0.0208
  190SLPC   O1221929   0.763   1.761   6.344 -0.8904 -0.0767 -0.0117
  190SLPC   O1121930   0.658   1.545   6.383  0.5762  0.0667 -0.1544
  190SLPC    C121931   0.771   1.476   6.444  0.0660 -0.2070  0.6180
  190SLPC    HA21932   0.837   1.422   6.372  0.1589 -1.2525  1.4734
  190SLPC    HB21933   0.831   1.549   6.502 -3.3962  1.0721  2.8774
  190SLPC    C221934   0.730   1.376   6.556  0.4504 -0.3855  0.3498
  190SLPC    HS21935   0.718   1.274   6.512  0.4023 -0.1129 -0.2782
  190SLPC   O2121936   0.606   1.424   6.617  0.2578  0.3691  0.0248
  190SLPC   C2121937   0.541   1.338   6.694 -0.0168 -0.0844 -0.1904
  190SLPC   O2221938   0.534   1.219   6.671 -0.1310 -0.0526 -0.2082
  190SLPC   C2221939   0.463   1.406   6.796 -0.8124  0.0679 -0.4433
  190SLPC   H2R21940   0.383   1.467   6.748  1.2640  3.0203 -0.4250
  190SLPC   H2S21941   0.420   1.325   6.858 -1.4117  1.7953  1.4896
  190SLPC    C321942   0.839   1.361   6.661  0.3146 -0.0817 -0.7608
  190SLPC    HX21943   0.840   1.451   6.726  2.1243  0.1611 -1.0852
  190SLPC    HY21944   0.943   1.362   6.621  1.2569 -0.4315  1.5396
  190SLPC   O3121945   0.830   1.256   6.753 -0.0474  0.2831  0.1511
  190SLPC   C3121946   0.846   1.140   6.709 -0.4944  0.1795  0.0007
  190SLPC   O3221947   0.886   1.121   6.594  0.5672  0.2213 -0.4120
  190SLPC   C3221948   0.819   1.031   6.815  0.0263 -0.8067  0.1876
  190SLPC   H2X21949   0.753   0.955   6.766 -0.8578 -0.0974  0.2552
  190SLPC   H2Y21950   0.776   1.066   6.910 -1.9563 -2.1689 -0.1460
  190SLPC   C2321951   0.541   1.481   6.908  0.2663 -0.0356  0.0539
  190SLPC   H3R21952   0.459   1.532   6.963 -0.3709  1.0264 -1.8014
  190SLPC   H3S21953   0.597   1.563   6.859  1.8002 -2.0533 -1.7959
  190SLPC   C2421954   0.629   1.387   6.992  0.1422 -0.6964  0.3012
  190SLPC   H4R21955   0.718   1.358   6.932 -0.4097 -1.5979 -0.0966
  190SLPC   H4S21956   0.571   1.294   7.006 -0.8922 -0.3923 -1.6304
  190SLPC   C2521957   0.658   1.444   7.134 -0.4918  0.0645 -0.4546
  190SLPC   H5R21958   0.564   1.488   7.172  0.2009  0.1425  1.2356
  190SLPC   H5S21959   0.736   1.521   7.116  0.3704 -0.4688  0.8442
  190SLPC   C2621960   0.713   1.342   7.237 -0.3475  0.6879 -0.1494
  190SLPC   H6R21961   0.792   1.270   7.208 -0.5596 -0.7408  2.5058
  190SLPC   H6S21962   0.633   1.273   7.271  1.0581 -1.8944 -1.7485
  190SLPC   C2721963   0.781   1.406   7.359  0.5504 -0.0649 -1.0180
  190SLPC   H7R21964   0.714   1.491   7.385 -1.4232 -2.0668  0.8758
  190SLPC   H7S21965   0.878   1.442   7.320  1.3854 -1.0343  0.1302
  190SLPC   C2821966   0.788   1.312   7.484 -0.0208 -0.1933 -0.0695
  190SLPC   H8R21967   0.881   1.334   7.541 -0.5199 -0.9737  1.0955
  190SLPC   H8S21968   0.802   1.209   7.444  1.1228  0.5368 -1.6360
  190SLPC   C2921969   0.660   1.311   7.563 -0.6115  0.2921 -0.0072
  190SLPC   H9R21970   0.562   1.330   7.517 -0.7292 -1.0507 -0.3438
  190SLPC  C21021971   0.653   1.281   7.694  0.3769  0.2170 -0.7751
  190SLPC  H10R21972   0.551   1.278   7.736  1.1233  0.4986  1.1815
  190SLPC  C21121973   0.764   1.236   7.785  0.1690 -0.3046 -0.5573
  190SLPC  H11R21974   0.822   1.160   7.728  0.7047  0.8874 -1.6376
  190SLPC  H11S21975   0.713   1.192   7.874  2.1691  2.0879  1.9483
  190SLPC  C21221976   0.854   1.353   7.825 -0.2541 -0.3112  0.6951
  190SLPC  H12R21977   0.874   1.416   7.737 -1.1695 -1.3057 -0.2592
  190SLPC  C21321978   0.896   1.381   7.946 -0.1029  0.1799 -0.1057
  190SLPC  H13R21979   0.956   1.471   7.965  0.7753 -0.6437  1.1544
  190SLPC  C21421980   0.870   1.299   8.073 -0.0408  0.2519  0.8249
  190SLPC  H14R21981   0.966   1.270   8.120  0.0697 -1.6427 -0.4702
  190SLPC  H14S21982   0.819   1.202   8.056  0.3766  0.0878  0.4849
  190SLPC  C21521983   0.791   1.381   8.178  0.6359 -0.0666 -0.2520
  190SLPC  H15R21984   0.831   1.484   8.193 -1.0302  0.6084 -0.2277
  190SLPC  H15S21985   0.792   1.337   8.280  1.9507  0.5916  0.0348
  190SLPC  C21621986   0.642   1.393   8.134 -0.7814 -0.5255  0.9191
  190SLPC  H16R21987   0.631   1.314   8.057  2.4172  1.0450 -1.3672
  190SLPC  H16S21988   0.632   1.496   8.095 -1.3039 -0.7312  0.4856
  190SLPC  C21721989   0.545   1.359   8.237  0.1958 -0.1825 -0.5200
  190SLPC  H17R21990   0.441   1.371   8.200  0.1831 -1.7457 -1.0762
  190SLPC  H17S21991   0.563   1.430   8.320 -0.3077 -0.0936 -0.4821
  190SLPC  C21821992   0.562   1.220   8.283 -0.4193  0.7123  0.4264
  190SLPC  H18R21993   0.569   1.150   8.197 -2.2321 -0.7052  1.3667
  190SLPC  H18S21994   0.470   1.193   8.339 -0.1015  1.8195  1.5067
  190SLPC  H18T21995   0.653   1.204   8.346  0.3258  1.0824 -0.5309
  190SLPC   C3321996   0.948   0.949   6.840 -0.3695 -0.5970  0.0931
  190SLPC   H3X21997   1.007   0.927   6.748 -1.6466  0.0692 -0.9214
  190SLPC   H3Y21998   0.926   0.855   6.894 -1.1216 -1.1325 -1.1167
  190SLPC   C3421999   1.041   1.031   6.932 -0.6061 -0.1149  1.1152
  190SLPC   H4X22000   1.063   1.129   6.885  1.1149 -0.9106  0.2002
  190SLPC   H4Y22001   1.138   0.979   6.925 -0.3943  0.3252  0.7264
  190SLPC   C3522002   0.999   1.058   7.078 -0.1939 -0.1777  0.1635
  190SLPC   H5X22003   0.989   0.952   7.110 -2.8565 -0.3074 -0.8217
  190SLPC   H5Y22004   0.898   1.104   7.079 -0.5762 -0.9902  1.3321
  190SLPC   C3622005   1.104   1.140   7.155  0.4642  0.3440  1.0866
  190SLPC   H6X22006   1.088   1.248   7.136  1.3912  0.6887  2.1799
  190SLPC   H6Y22007   1.208   1.117   7.122  0.7604  2.4214  0.4143
  190SLPC   C3722008   1.091   1.125   7.303  0.1127  0.0429 -0.8291
  190SLPC   H7X22009   1.100   1.023   7.345  0.1887  0.2782 -0.2604
  190SLPC   H7Y22010   0.984   1.146   7.324 -0.2356 -0.8598 -1.6220
  190SLPC   C3822011   1.169   1.229   7.397 -0.7408  0.4904  0.4930
  190SLPC   H8X22012   1.131   1.205   7.498  0.5886 -0.8396  0.7056
  190SLPC   H8Y22013   1.142   1.335   7.376  0.0596  0.6387  0.1644
  190SLPC   C3922014   1.324   1.225   7.378 -0.3586  0.4391 -0.6233
  190SLPC   H9X22015   1.349   1.244   7.271  0.2686  2.8260 -0.0968
  190SLPC   H9Y22016   1.357   1.125   7.413 -2.9490 -0.6066 -0.9046
  190SLPC  C31022017   1.386   1.342   7.460  0.5490  0.6950 -0.0057
  190SLPC  H10X22018   1.362   1.435   7.403  0.0654  0.8024  0.3692
  190SLPC  H10Y22019   1.497   1.332   7.454  0.4590 -2.7539  1.6575
  190SLPC  C31122020   1.350   1.350   7.605 -0.1917 -0.2187  1.0000
  190SLPC  H11X22021   1.247   1.384   7.628  0.1071  1.9219 -0.6229
  190SLPC  H11Y22022   1.411   1.433   7.646  0.7136  0.2811 -1.2000
  190SLPC  C31222023   1.371   1.224   7.687  0.1928 -0.0397 -0.2631
  190SLPC  H12X22024   1.468   1.186   7.649 -0.1398  1.3493 -2.7545
  190SLPC  H12Y22025   1.294   1.145   7.681  0.0226  0.1633 -0.8198
  190SLPC  C31322026   1.391   1.255   7.838  0.1887  0.0243  0.9853
  190SLPC  H13X22027   1.298   1.279   7.895  0.5172 -0.9839  1.9842
  190SLPC  H13Y22028   1.453   1.346   7.827 -0.1530  0.1736  0.2442
  190SLPC  C31422029   1.488   1.157   7.919 -0.2406 -0.6674  0.5842
  190SLPC  H14X22030   1.582   1.151   7.860  0.2483 -0.1613  1.2972
  190SLPC  H14Y22031   1.454   1.052   7.917 -1.1625 -0.3770  0.2339
  190SLPC  C31522032   1.502   1.208   8.056  0.1991 -0.3088  0.3907
  190SLPC  H15X22033   1.397   1.216   8.093 -0.5153 -0.1032 -1.5528
  190SLPC  H15Y22034   1.555   1.305   8.058 -0.2376 -0.0341 -0.6478
  190SLPC  C31622035   1.601   1.122   8.150 -0.0287 -0.2208  0.4592
  190SLPC  H16X22036   1.702   1.119   8.103  1.3598  2.3572  2.9559
  190SLPC  H16Y22037   1.553   1.022   8.155  2.1994 -1.4446 -0.8944
  190SLPC  C31722038   1.616   1.170   8.296 -0.1330 -0.2951 -0.5429
  190SLPC  H17X22039   1.674   1.090   8.347  1.6104  0.0288 -1.9592
  190SLPC  H17Y22040   1.517   1.192   8.343  1.1079  2.0550  1.2052
  190SLPC  C31822041   1.705   1.291   8.309 -0.4128  0.0212  0.0098
  190SLPC  H18X22042   1.799   1.281   8.251  0.3360  1.1315  0.9866
  190SLPC  H18Y22043   1.731   1.303   8.416  0.5889 -0.7055 -0.1372
  190SLPC  H18Z22044   1.655   1.385   8.277  0.4619  0.1502 -1.0613
  191SLPC     N22045   3.866   1.244   5.594 -0.4160  0.6875 -0.5324
  191SLPC   C1322046   3.728   1.301   5.580 -0.5172  1.3932  0.4203
  191SLPC  H13A22047   3.734   1.389   5.517 -0.1634  1.4303  0.5047
  191SLPC  H13B22048   3.670   1.217   5.546 -0.5951  0.2401  3.1231
  191SLPC  H13C22049   3.684   1.328   5.675  0.6261 -0.2873  1.4753
  191SLPC   C1422050   3.970   1.348   5.637  0.6845  0.1457 -0.6099
  191SLPC  H14A22051   3.959   1.361   5.744 -1.0988  1.6779 -0.9274
  191SLPC  H14B22052   4.071   1.319   5.615  0.2701 -0.6003 -1.6113
  191SLPC  H14C22053   3.953   1.442   5.589 -0.5087 -0.2095 -0.9197
  191SLPC   C1522054   3.915   1.209   5.457  0.1143 -0.3256  0.0821
  191SLPC  H15A22055   4.016   1.172   5.469  1.2302  2.5166  0.4458
  191SLPC  H15B22056   3.849   1.137   5.411  0.0800 -0.3172  0.1186
  191SLPC  H15C22057   3.909   1.299   5.398 -2.3718  0.7488  1.8013
  191SLPC   C1222058   3.874   1.126   5.692 -0.0907  0.3024 -0.4074
  191SLPC  H12A22059   3.977   1.100   5.709 -0.7432 -1.9381  0.6946
  191SLPC  H12B22060   3.818   1.044   5.649  0.6260  0.1295 -1.0243
  191SLPC   C1122061   3.819   1.157   5.830  0.2145 -1.0952 -1.2866
  191SLPC  H11A22062   3.807   1.060   5.883  0.9120 -1.1879 -1.2974
  191SLPC  H11B22063   3.715   1.197   5.832  1.0776  1.2524 -0.4873
  191SLPC     P22064   4.050   1.171   5.945 -0.0890 -0.2099  0.2817
  191SLPC   O1322065   4.069   1.027   5.910  0.3153 -0.2734  0.1762
  191SLPC   O1422066   4.155   1.262   5.889 -0.5227 -0.2481 -0.6015
  191SLPC   O1222067   3.913   1.234   5.906 -0.3167  0.3301 -0.3750
  191SLPC   O1122068   4.052   1.175   6.109 -0.6457  0.0471 -0.5994
  191SLPC    C122069   4.000   1.292   6.181 -1.1848 -0.5661 -0.6719
  191SLPC    HA22070   3.979   1.375   6.111  2.4585  0.1203 -1.1527
  191SLPC    HB22071   3.908   1.262   6.236 -0.4768 -0.3961  0.6359
  191SLPC    C222072   4.092   1.357   6.296  0.8557 -0.4149  0.0785
  191SLPC    HS22073   4.172   1.421   6.253  0.1373 -0.5512 -1.5544
  191SLPC   O2122074   4.148   1.241   6.359 -0.0939 -0.0957 -0.5389
  191SLPC   C2122075   4.257   1.276   6.429  0.1391  0.3704 -0.4741
  191SLPC   O2222076   4.318   1.384   6.420  0.2458 -0.0768  0.0267
  191SLPC   C2222077   4.293   1.170   6.529 -0.1172  0.0490  0.7266
  191SLPC   H2R22078   4.326   1.083   6.469 -1.2832  0.4633 -0.5751
  191SLPC   H2S22079   4.380   1.212   6.584  1.0288 -0.1587 -0.8613
  191SLPC    C322080   3.993   1.439   6.391  0.0870 -0.8440  0.6032
  191SLPC    HX22081   3.918   1.365   6.425 -0.8526 -0.0092  0.3876
  191SLPC    HY22082   3.940   1.520   6.336  0.6241 -0.9137 -0.0323
  191SLPC   O3122083   4.063   1.492   6.503 -0.6959 -0.0428  0.1573
  191SLPC   C3122084   4.131   1.602   6.482  0.3777  0.4038  0.0682
  191SLPC   O3222085   4.122   1.672   6.386  0.4154 -0.6957  0.3774
  191SLPC   C3222086   4.202   1.624   6.616 -0.8218 -0.1862  0.8170
  191SLPC   H2X22087   4.267   1.536   6.637 -1.3646 -1.5514 -2.6404
  191SLPC   H2Y22088   4.125   1.633   6.696 -2.8525 -2.0349 -0.7928
  191SLPC   C2322089   4.176   1.128   6.621  0.1977  0.7450  0.0577
  191SLPC   H3R22090   4.203   1.031   6.668 -0.1706  1.3228  1.5378
  191SLPC   H3S22091   4.085   1.108   6.561  1.2543  0.4243 -1.4886
  191SLPC   C2422092   4.131   1.231   6.729  0.6036 -0.7926 -0.0863
  191SLPC   H4R22093   4.071   1.170   6.800 -0.8449 -0.3699 -0.9074
  191SLPC   H4S22094   4.069   1.308   6.679  1.2944 -1.4144 -1.9924
  191SLPC   C2522095   4.246   1.292   6.809  1.2313  0.1028 -0.1620
  191SLPC   H5R22096   4.323   1.344   6.749  1.8758 -0.8584 -0.1821
  191SLPC   H5S22097   4.291   1.211   6.870 -0.7235  1.8938  4.0926
  191SLPC   C2622098   4.195   1.393   6.916  0.4337 -0.5526 -0.3893
  191SLPC   H6R22099   4.110   1.346   6.970 -0.9537  0.9265 -1.1966
  191SLPC   H6S22100   4.159   1.485   6.865 -1.0159 -1.1677 -0.5208
  191SLPC   C2722101   4.298   1.428   7.027 -0.1221 -0.1973 -0.0461
  191SLPC   H7R22102   4.343   1.526   7.001  1.9039 -1.1535 -0.3802
  191SLPC   H7S22103   4.378   1.351   7.041 -0.4961 -0.3976  1.0986
  191SLPC   C2822104   4.247   1.440   7.176 -0.0124  0.2860  0.1991
  191SLPC   H8R22105   4.182   1.353   7.199 -0.0075  0.2641  0.1299
  191SLPC   H8S22106   4.175   1.524   7.190 -0.8528 -0.5967  1.4085
  191SLPC   C2922107   4.349   1.469   7.276  0.2471  0.2321 -0.4886
  191SLPC   H9R22108   4.436   1.527   7.242  0.6562  1.3375  2.1429
  191SLPC  C21022109   4.355   1.419   7.406  0.3616  0.2975 -0.2352
  191SLPC  H10R22110   4.442   1.452   7.464  2.3782  2.2797 -4.0412
  191SLPC  C21122111   4.259   1.326   7.473 -0.2589 -0.1956  0.2970
  191SLPC  H11R22112   4.312   1.229   7.485 -1.4445 -1.1221 -1.4751
  191SLPC  H11S22113   4.168   1.297   7.416 -1.3236 -3.3928  3.2555
  191SLPC  C21222114   4.216   1.378   7.607  0.5637 -0.4607  0.1143
  191SLPC  H12R22115   4.225   1.487   7.622 -1.9912 -0.3350  1.2917
  191SLPC  C21322116   4.166   1.313   7.711 -0.1790 -0.8012  0.2667
  191SLPC  H13R22117   4.147   1.374   7.801  2.3274  1.6574 -0.7206
  191SLPC  C21422118   4.145   1.161   7.714 -0.0497 -0.0129 -0.1202
  191SLPC  H14R22119   4.172   1.112   7.618 -0.8997  1.4409 -1.1431
  191SLPC  H14S22120   4.039   1.141   7.742  0.3566  0.7206  2.2200
  191SLPC  C21522121   4.228   1.096   7.833  0.2273 -0.3390 -0.0027
  191SLPC  H15R22122   4.338   1.101   7.820  0.0083 -0.9155 -2.5804
  191SLPC  H15S22123   4.201   0.988   7.836 -0.6576 -0.2173 -1.9950
  191SLPC  C21622124   4.184   1.146   7.974 -0.5699 -0.5055 -0.0252
  191SLPC  H16R22125   4.074   1.151   7.984 -0.7439 -0.0410 -1.7468
  191SLPC  H16S22126   4.217   1.251   7.987 -0.2070 -0.2162 -2.7468
  191SLPC  C21722127   4.239   1.061   8.086 -0.5367  0.2684  0.1139
  191SLPC  H17R22128   4.349   1.073   8.084 -0.6050  1.1358  0.7288
  191SLPC  H17S22129   4.229   0.951   8.079 -0.8054  0.0776  2.5593
  191SLPC  C21822130   4.187   1.104   8.228  0.4315  0.1956  0.0592
  191SLPC  H18R22131   4.255   1.077   8.312 -0.6023  0.4171  0.9987
  191SLPC  H18S22132   4.086   1.061   8.245  2.2769 -4.7749 -0.0857
  191SLPC  H18T22133   4.184   1.215   8.238 -0.0784  0.4924 -2.5670
  191SLPC   C3322134   4.294   1.749   6.625 -0.2448  0.2639 -0.1800
  191SLPC   H3X22135   4.239   1.843   6.601 -0.0194  0.3429 -0.3980
  191SLPC   H3Y22136   4.373   1.735   6.547  1.3195  0.5335  1.3021
  191SLPC   C3422137   4.358   1.779   6.760  0.2031  0.1493  0.1165
  191SLPC   H4X22138   4.446   1.845   6.746 -0.5135  1.0573 -0.1825
  191SLPC   H4Y22139   4.407   1.682   6.784  1.9645  1.2762  1.2703
  191SLPC   C3522140   4.260   1.820   6.869  0.0890 -0.0672  0.5541
  191SLPC   H5X22141   4.187   1.740   6.894 -0.5113  0.9024  2.0405
  191SLPC   H5Y22142   4.210   1.906   6.821  0.9799  0.7535  1.0535
  191SLPC   C3622143   4.340   1.852   6.989 -0.0442 -0.2492 -0.3464
  191SLPC   H6X22144   4.393   1.948   6.969  2.8943 -1.4739  1.0772
  191SLPC   H6Y22145   4.429   1.787   6.994  0.1583 -0.0914 -1.6360
  191SLPC   C3722146   4.265   1.849   7.121 -0.1394  0.4730 -0.0357
  191SLPC   H7X22147   4.227   1.746   7.138  0.7916  0.2598  0.8959
  191SLPC   H7Y22148   4.168   1.900   7.106 -2.6467 -3.0317  2.4726
  191SLPC   C3822149   4.347   1.883   7.238 -0.1010 -0.9926 -0.3014
  191SLPC   H8X22150   4.368   1.992   7.238  2.0686 -1.3403 -1.5859
  191SLPC   H8Y22151   4.442   1.826   7.232  1.4515  1.0005  2.8583
  191SLPC   C3922152   4.274   1.849   7.373 -0.2723 -0.2150 -0.0247
  191SLPC   H9X22153   4.264   1.739   7.378 -4.4430  0.0570  2.0439
  191SLPC   H9Y22154   4.174   1.897   7.363 -0.8396 -1.4783 -0.5746
  191SLPC  C31022155   4.350   1.896   7.495  0.4891  0.5293 -0.3632
  191SLPC  H10X22156   4.392   1.997   7.474  0.8982  0.6867  1.1260
  191SLPC  H10Y22157   4.440   1.832   7.505  0.1907  0.3821  1.8609
  191SLPC  C31122158   4.265   1.893   7.618  0.1160  0.4152  0.1499
  191SLPC  H11X22159   4.223   1.791   7.630  1.2229  0.1099  1.6534
  191SLPC  H11Y22160   4.178   1.963   7.622 -0.5415 -0.1829 -2.2666
  191SLPC  C31222161   4.353   1.924   7.744 -1.0255 -0.2183  0.1722
  191SLPC  H12X22162   4.402   2.024   7.742 -1.5280  0.0549  1.0716
  191SLPC  H12Y22163   4.442   1.858   7.747 -0.4454  0.5465  0.2842
  191SLPC  C31322164   4.267   1.906   7.867 -0.0101 -0.0403 -0.5313
  191SLPC  H13X22165   4.226   1.803   7.866  0.3746 -0.1972 -1.9057
  191SLPC  H13Y22166   4.190   1.986   7.857  0.0136  0.2140  1.0515
  191SLPC  C31422167   4.336   1.945   8.001 -0.1745  0.9268  0.4053
  191SLPC  H14X22168   4.276   1.924   8.092 -4.0826 -0.3087 -2.1961
  191SLPC  H14Y22169   4.354   2.054   8.013 -1.1287  0.8639  3.5028
  191SLPC  C31522170   4.472   1.875   8.031 -0.1455 -0.1625  0.1820
  191SLPC  H15X22171   4.547   1.929   7.971 -0.9938  1.6985  0.7132
  191SLPC  H15Y22172   4.467   1.770   7.997  0.7346  0.3796 -1.7577
  191SLPC  C31622173   4.521   1.898   8.172 -0.4578  0.5917  0.1951
  191SLPC  H16X22174   4.517   2.008   8.186  0.1461  0.4716  1.4568
  191SLPC  H16Y22175   4.627   1.865   8.172 -0.6346 -0.0294 -0.7114
  191SLPC  C31722176   4.452   1.836   8.294  0.3681 -0.1409 -0.4009
  191SLPC  H17X22177   4.426   1.729   8.280 -0.5165 -0.0262  0.3097
  191SLPC  H17Y22178   4.354   1.888   8.298  2.0754  3.4932 -1.4226
  191SLPC  C31822179   4.511   1.854   8.436 -0.3641 -0.1586 -0.4454
  191SLPC  H18X22180   4.535   1.962   8.446  0.5198 -0.3041 -0.9259
  191SLPC  H18Y22181   4.598   1.789   8.461 -2.2048 -2.3137  0.6972
  191SLPC  H18Z22182   4.434   1.826   8.511  0.0135  0.9276  0.3729
  192SLPC     N22183   5.116   3.240   6.068  0.3747 -0.4572  0.2011
  192SLPC   C1322184   5.249   3.311   6.051 -0.2169  0.4660  0.0945
  192SLPC  H13A22185   5.241   3.407   6.002  0.3252  0.3087 -0.3186
  192SLPC  H13B22186   5.294   3.316   6.149 -2.0907  1.3701  0.9541
  192SLPC  H13C22187   5.315   3.249   5.991 -0.2090 -1.8504  2.3187
  192SLPC   C1422188   5.139   3.109   6.135  0.4772 -0.1265  0.4068
  192SLPC  H14A22189   5.042   3.068   6.161  1.3185 -1.3927  1.7146
  192SLPC  H14B22190   5.186   3.036   6.071 -0.5268 -0.8984  0.5245
  192SLPC  H14C22191   5.196   3.119   6.226  0.4942 -0.5889  0.4499
  192SLPC   C1522192   5.058   3.211   5.935  0.1857 -0.1895  0.4657
  192SLPC  H15A22193   4.980   3.137   5.945 -0.7123  0.6436 -0.1620
  192SLPC  H15B22194   5.012   3.301   5.895 -0.1092  0.1772  1.5838
  192SLPC  H15C22195   5.120   3.172   5.856 -0.8761 -1.3793  0.2012
  192SLPC   C1222196   5.017   3.324   6.148 -0.3981  0.0851  0.4671
  192SLPC  H12A22197   4.997   3.411   6.088  0.2051 -1.0387 -1.4691
  192SLPC  H12B22198   5.075   3.365   6.229  1.3924  0.2006 -0.8320
  192SLPC   C1122199   4.882   3.259   6.192  0.3957  0.0604  0.3214
  192SLPC  H11A22200   4.843   3.214   6.099  0.3021  0.7582  0.0141
  192SLPC  H11B22201   4.818   3.344   6.225  2.0359  1.2446  0.6026
  192SLPC     P22202   4.922   3.192   6.437  0.0358 -0.3588  0.1297
  192SLPC   O1322203   4.986   3.077   6.502  0.2229  0.4385 -0.2698
  192SLPC   O1422204   4.990   3.320   6.436  0.1562 -0.3081 -0.2724
  192SLPC   O1222205   4.897   3.150   6.288 -0.1827 -0.3466 -0.3605
  192SLPC   O1122206   4.777   3.200   6.498  0.1007 -0.0245  0.3112
  192SLPC    C122207   4.675   3.102   6.494 -0.2102 -0.2729  0.0714
  192SLPC    HA22208   4.584   3.151   6.456  0.8368  2.7583  1.1917
  192SLPC    HB22209   4.691   3.013   6.429  0.6909 -0.8734  1.0681
  192SLPC    C222210   4.648   3.043   6.629 -0.3905 -0.3422 -0.0460
  192SLPC    HS22211   4.582   2.955   6.618  2.1347 -2.2529 -1.1047
  192SLPC   O2122212   4.604   3.143   6.712 -0.3429  0.0440 -0.4680
  192SLPC   C2122213   4.473   3.166   6.710  0.0410 -0.7064 -0.3461
  192SLPC   O2222214   4.381   3.125   6.636 -0.0696  0.2218 -0.3431
  192SLPC   C2222215   4.430   3.265   6.822 -0.2215 -0.3609  0.4581
  192SLPC   H2R22216   4.521   3.308   6.868  0.2846 -1.2443  0.2884
  192SLPC   H2S22217   4.370   3.340   6.766 -1.4967 -0.2482  1.9131
  192SLPC    C322218   4.767   2.972   6.697  0.3003  0.3582 -0.3201
  192SLPC    HX22219   4.838   3.051   6.730  0.4783 -0.8411  2.3583
  192SLPC    HY22220   4.815   2.905   6.622  0.0826  0.1622 -0.2819
  192SLPC   O3122221   4.722   2.904   6.818 -0.3033  0.4661 -0.3843
  192SLPC   C3122222   4.809   2.842   6.891 -0.1684  0.9061 -0.4003
  192SLPC   O3222223   4.928   2.845   6.876  0.3525  0.5850 -0.0168
  192SLPC   C3222224   4.731   2.757   7.000 -0.5872  0.0452 -0.7813
  192SLPC   H2X22225   4.666   2.696   6.935  0.5588 -1.1128 -0.8726
  192SLPC   H2Y22226   4.660   2.829   7.046 -0.0815 -0.5555  1.0484
  192SLPC   C2322227   4.337   3.205   6.919  0.3104  0.8693  0.4807
  192SLPC   H3R22228   4.376   3.107   6.955 -3.4413 -1.1763 -0.4886
  192SLPC   H3S22229   4.245   3.164   6.872  0.8862 -0.2523  0.2756
  192SLPC   C2422230   4.288   3.296   7.032  0.3160 -0.2584 -0.2406
  192SLPC   H4R22231   4.208   3.362   6.992  1.2107  1.3541  0.5589
  192SLPC   H4S22232   4.363   3.374   7.055 -1.0770  0.9330  0.4346
  192SLPC   C2522233   4.233   3.227   7.153 -0.1296  0.1266 -0.6129
  192SLPC   H5R22234   4.316   3.169   7.199 -2.3066 -1.5998  1.3618
  192SLPC   H5S22235   4.157   3.154   7.120 -0.5727  0.3180 -0.0316
  192SLPC   C2622236   4.149   3.310   7.254  0.0379 -0.2998  0.7124
  192SLPC   H6R22237   4.076   3.369   7.195 -0.4130 -2.0996 -0.6314
  192SLPC   H6S22238   4.212   3.389   7.300 -2.2690  1.7611  0.4780
  192SLPC   C2722239   4.071   3.221   7.351 -0.6591 -0.1758 -0.3640
  192SLPC   H7R22240   4.022   3.136   7.298  0.5838 -1.5253  0.5547
  192SLPC   H7S22241   3.979   3.272   7.387 -0.3727 -1.8224  3.1454
  192SLPC   C2822242   4.154   3.173   7.470 -0.4872 -0.0067 -0.5045
  192SLPC   H8R22243   4.177   3.262   7.532  0.1211 -0.4639 -0.0619
  192SLPC   H8S22244   4.254   3.138   7.436 -0.7802  0.1129 -1.5189
  192SLPC   C2922245   4.090   3.062   7.544 -0.0386 -0.4773  0.0075
  192SLPC   H9R22246   4.069   2.979   7.475 -2.4306  0.8187 -0.9422
  192SLPC  C21022247   4.049   3.061   7.672  0.4627 -0.0178 -0.4744
  192SLPC  H10R22248   3.968   2.991   7.693 -1.6505  1.9834 -1.4303
  192SLPC  C21122249   4.064   3.175   7.767 -0.1472 -0.4220 -0.5307
  192SLPC  H11R22250   4.025   3.269   7.723 -0.0433  0.6554  1.5355
  192SLPC  H11S22251   4.164   3.217   7.790 -0.6534  0.8927 -0.6217
  192SLPC  C21222252   4.003   3.141   7.899 -0.7079  0.6212 -0.5168
  192SLPC  H12R22253   3.902   3.184   7.910 -0.6276  0.6782  0.0197
  192SLPC  C21322254   4.066   3.070   7.993 -0.2155  0.3693 -0.2679
  192SLPC  H13R22255   4.008   3.047   8.084  0.4710  0.2562  0.1495
  192SLPC  C21422256   4.201   3.004   7.982 -0.4804  0.4609 -0.2138
  192SLPC  H14R22257   4.261   3.068   7.913  0.5909 -0.8245 -0.5040
  192SLPC  H14S22258   4.195   2.896   7.960 -0.0335 -0.0523  2.0007
  192SLPC  C21522259   4.268   3.001   8.122 -0.1121  0.1587  0.0288
  192SLPC  H15R22260   4.358   2.936   8.117  0.0821  0.3523  0.8115
  192SLPC  H15S22261   4.209   2.933   8.188 -0.3237 -0.8752 -1.1992
  192SLPC  C21622262   4.305   3.133   8.194  0.0256  0.4636 -0.0153
  192SLPC  H16R22263   4.312   3.111   8.302  0.2065  0.5545 -0.0072
  192SLPC  H16S22264   4.222   3.207   8.192 -1.4080 -1.0694  0.7904
  192SLPC  C21722265   4.447   3.187   8.153  0.0926 -0.1376 -0.0369
  192SLPC  H17R22266   4.463   3.174   8.044 -3.0584 -1.2319 -0.4820
  192SLPC  H17S22267   4.450   3.295   8.178 -0.3477 -0.2646  0.6030
  192SLPC  C21822268   4.557   3.118   8.220 -0.0370 -0.2011 -0.0652
  192SLPC  H18R22269   4.532   3.114   8.328  0.1820  1.7397  0.0854
  192SLPC  H18S22270   4.651   3.178   8.217 -0.3916  0.3817  0.4634
  192SLPC  H18T22271   4.572   3.016   8.178  1.8299 -0.4780  1.1498
  192SLPC   C3322272   4.823   2.676   7.100 -0.2941 -0.0708 -0.0037
  192SLPC   H3X22273   4.885   2.747   7.158 -1.4999 -0.7503  2.2529
  192SLPC   H3Y22274   4.894   2.612   7.043 -0.4196  1.2115 -1.6372
  192SLPC   C3422275   4.746   2.591   7.195 -0.0125  0.4017 -0.5561
  192SLPC   H4X22276   4.707   2.497   7.151 -2.8186  1.3023 -0.1612
  192SLPC   H4Y22277   4.659   2.635   7.248 -0.4952 -1.5099  0.3189
  192SLPC   C3522278   4.838   2.552   7.312 -0.4674  0.1829  0.0178
  192SLPC   H5X22279   4.879   2.641   7.364 -0.6418  0.6313 -0.5960
  192SLPC   H5Y22280   4.911   2.484   7.263 -2.6272 -2.2876 -0.0316
  192SLPC   C3622281   4.768   2.466   7.419 -0.7105 -1.4108  0.2418
  192SLPC   H6X22282   4.719   2.375   7.377 -1.8695 -1.5951  1.8961
  192SLPC   H6Y22283   4.696   2.537   7.464  2.0765  3.6096 -2.2984
  192SLPC   C3722284   4.861   2.429   7.528 -0.9437 -0.3443  0.1146
  192SLPC   H7X22285   4.937   2.359   7.488 -1.7604 -2.0528  1.4008
  192SLPC   H7Y22286   4.815   2.352   7.594  1.1062 -2.0815 -0.3636
  192SLPC   C3822287   4.915   2.545   7.618 -0.0244 -0.3605  0.0708
  192SLPC   H8X22288   4.836   2.617   7.646 -0.1539 -0.0801 -0.9793
  192SLPC   H8Y22289   4.985   2.598   7.550  0.0971 -1.5719 -0.7778
  192SLPC   C3922290   4.990   2.492   7.742  0.7033  0.0335 -0.6492
  192SLPC   H9X22291   5.053   2.576   7.781  0.1806  0.6050 -1.0198
  192SLPC   H9Y22292   5.063   2.418   7.704  0.6296 -0.1446 -0.4472
  192SLPC  C31022293   4.902   2.434   7.849  0.6690 -0.1829 -0.5529
  192SLPC  H10X22294   4.870   2.335   7.811 -2.3154  0.1087  0.9189
  192SLPC  H10Y22295   4.809   2.495   7.850 -0.6671 -2.1360 -0.5938
  192SLPC  C31122296   4.957   2.448   7.990 -0.1708 -0.0108  0.2784
  192SLPC  H11X22297   4.884   2.402   8.061 -0.1391  1.2814  1.1814
  192SLPC  H11Y22298   4.972   2.555   8.017  0.0856 -0.2228  1.0068
  192SLPC  C31222299   5.091   2.374   8.007 -0.8328  0.3014 -0.2830
  192SLPC  H12X22300   5.166   2.410   7.933 -1.6793 -0.2771 -1.4655
  192SLPC  H12Y22301   5.082   2.264   7.993 -3.7593  0.2644  1.0882
  192SLPC  C31322302   5.155   2.379   8.152  0.1799 -0.0622  0.0344
  192SLPC  H13X22303   5.075   2.370   8.229  2.3440  0.8187  2.5353
  192SLPC  H13Y22304   5.198   2.480   8.163  1.3836 -0.4352 -0.9879
  192SLPC  C31422305   5.267   2.282   8.183 -0.0200  0.1636  0.1490
  192SLPC  H14X22306   5.361   2.315   8.134  1.2771 -1.6912  1.2677
  192SLPC  H14Y22307   5.231   2.185   8.143 -0.9055  0.7374 -0.4715
  192SLPC  C31522308   5.290   2.255   8.331  0.1950  0.1431  0.3577
  192SLPC  H15X22309   5.191   2.258   8.381 -1.3821  0.5255 -2.5681
  192SLPC  H15Y22310   5.345   2.343   8.371 -1.2263 -0.5086  4.0947
  192SLPC  C31622311   5.378   2.133   8.357 -0.1797 -0.1683  0.7207
  192SLPC  H16X22312   5.482   2.145   8.322  0.2322  0.7967  2.1730
  192SLPC  H16Y22313   5.331   2.044   8.311  0.8451 -0.9085  1.0680
  192SLPC  C31722314   5.394   2.109   8.504  0.1360  0.2183 -0.5119
  192SLPC  H17X22315   5.293   2.082   8.541 -0.6550  2.3992 -0.9503
  192SLPC  H17Y22316   5.425   2.209   8.542  2.0880  0.0275 -1.4993
  192SLPC  C31822317   5.500   2.010   8.547  0.1071  0.4673  0.2790
  192SLPC  H18X22318   5.494   1.907   8.506 -0.2800  0.0996  1.2214
  192SLPC  H18Y22319   5.510   2.005   8.658 -3.1697 -1.8830  0.5999
  192SLPC  H18Z22320   5.600   2.044   8.512 -0.4951  0.3449 -1.6649
  193SOD    SOD22321   1.642   6.263  15.335  0.1361 -0.4362  0.6430
  194SOD    SOD22322   3.913   2.424  10.784  0.1176 -0.0219  0.4216
  195SOD    SOD22323   1.668   5.355  13.213  0.0753  0.1800  0.5993
  196SOD    SOD22324   3.050   3.193   4.217  0.1121 -0.2924  0.0794
  197SOD    SOD22325   4.157   0.207   3.743 -0.4228 -0.2773  0.0035
  198SOD    SOD22326   6.446   4.896  14.935 -0.0011  0.2697  0.2805
  199SOD    SOD22327   1.109   0.262  10.952  0.4205  0.3787 -0.1407
  200SOD    SOD22328   5.013   4.710  14.529  0.3497 -0.4673  0.1306
  201SOD    SOD22329   1.917   3.286   3.310  0.1755  0.2113 -0.3633
  202SOD    SOD22330   4.699   2.341  12.513  0.4459  0.1168  0.1822
  203SOD    SOD22331   4.899   1.501   3.264  0.1586  0.4323  0.1073
  204SOD    SOD22332   1.108   5.867   4.515  0.0568 -0.3281  0.5151
  205SOD    SOD22333   0.745   5.154  15.102  0.2587 -0.3698  0.1699
  206SOD    SOD22334   0.838   1.364   3.433 -0.1834 -0.3476 -0.0704
  207SOD    SOD22335   0.564   3.879  11.975 -0.0239  0.1142  0.2949
  208SOD    SOD22336   3.309   6.825   0.608 -0.6276 -0.2816 -0.7323
  209SOD    SOD22337   5.299   2.274  16.038 -0.1192  0.1957  0.0639
  210SOD    SOD22338   5.511   2.969   6.846 -0.0939  0.3976 -0.0250
  211SOD    SOD22339   1.076   0.349  10.524 -0.1883 -0.3202 -0.2916
  212SOD    SOD22340   1.682   5.361   1.746  0.2873  0.1643 -0.6968
  213SOD    SOD22341   3.250   1.959   3.769 -0.2728  0.7869  0.2393
  214SOD    SOD22342   6.584   4.120   4.533  0.0817  0.6669  0.2476
  215SOD    SOD22343   5.840   0.702  16.450 -0.2153  0.1439 -0.3174
  216SOD    SOD22344   0.158   6.409  12.461  0.2289  0.3418 -0.0856
  217SOD    SOD22345   6.220   6.646  11.169  0.3409  0.1686 -0.0066
  218SOD    SOD22346   4.625   4.287  13.185 -0.9226  0.0270  0.3351
  219SOD    SOD22347   2.161   2.512   3.179 -0.0045  0.0873 -0.2983
  220SOD    SOD22348   5.693   6.253  10.803 -0.0971 -0.8374 -0.0681
  221SOD    SOD22349   2.215   4.669  12.055  0.3674  0.2945  0.4865
  222SOD    SOD22350   4.218   4.513   6.016  0.1728  0.2118  0.5073
  223SOD    SOD22351   1.075   1.081   4.437  0.0872 -0.1443  0.5929
  224SOD    SOD22352   4.051   4.922   1.589 -0.0935  0.1575 -0.1312
  225SOD    SOD22353   4.118   5.097   4.312 -0.6670 -0.2803  0.6422
  226SOD    SOD22354   3.505   6.549   4.450  0.1266  0.2381 -0.5659
  227SOD    SOD22355   6.276   1.268   0.943  0.0441 -0.3465 -0.0801
  228SOD    SOD22356   2.877   5.331  15.683  0.2153  0.0245 -0.0367
  229SOD    SOD22357   0.647   1.158   5.050 -0.0905 -0.0193  0.0804
  230SOD    SOD22358   0.331   2.105   0.890 -0.2391 -0.1686  0.0464
  231SOD    SOD22359   0.551   0.744   1.281  0.4363 -0.1482  0.5774
  232SOD    SOD22360   5.007   6.574   5.253  0.0854 -0.1221 -0.3849
  233SOD    SOD22361   3.207   6.582   6.052 -0.0730  0.2681 -0.2043
  234SOD    SOD22362   5.417   1.105  14.523  0.0126  0.3762  0.2578
  235SOD    SOD22363   0.030   4.578   3.441 -0.1468 -0.5507  0.1684
  236SOD    SOD22364   1.454   2.319  14.557 -0.1841 -0.2840 -0.0085
  237SOD    SOD22365   2.181   3.016  13.350  0.0613  0.4845 -0.0448
  238SOD    SOD22366   1.914   0.919  15.593 -0.2676  0.1000  0.4121
  239SOD    SOD22367   3.621   3.952  12.320 -0.0741 -0.2296 -0.4327
  240SOD    SOD22368   3.671   4.391   6.128  0.5853  0.4864  0.3014
  241SOD    SOD22369   4.160   0.288  17.095 -0.0112 -0.7782 -0.0636
  242SOD    SOD22370   0.615   2.004  10.837  0.6407 -0.1543  0.0298
  243SOD    SOD22371   6.347   6.421   1.724 -0.2402  0.0738 -0.0097
  244SOD    SOD22372   6.579   3.196  13.499  0.1440 -0.0737 -0.4943
  245SOD    SOD22373   4.723   3.962   4.432  0.2826 -0.6229  0.2494
  246SOD    SOD22374   5.626   5.989   3.025 -0.1455 -0.6960 -0.2610
  247SOD    SOD22375   6.556   6.286  12.782  0.4749  0.1305 -0.5599
  248SOD    SOD22376   2.101   0.936   1.740 -0.2699  0.0914  0.3841
  249SOD    SOD22377   1.675   0.363   1.024  0.0618  0.1129 -0.1969
  250SOD    SOD22378   0.687   2.437   4.750  0.1205 -0.8201  0.4603
  251SOD    SOD22379   1.759   5.676   3.716 -0.4406  0.0424  1.0545
  252SOD    SOD22380   1.256   6.480  15.187 -0.4005  0.2086 -0.0872
  253SOD    SOD22381   0.826   1.685   5.530 -0.3416  0.2123 -0.1590
  254SOD    SOD22382   3.969   1.877  12.946  0.3518 -0.2034 -0.6037
  255SOD    SOD22383   2.126   6.536  10.623  0.1454  0.3425 -0.2767
  256SOD    SOD22384   1.262   5.872  16.749 -0.0066 -0.1627  0.4191
  257SOD    SOD22385   2.645   3.608   5.455  0.0206  0.4499  0.4838
  258SOD    SOD22386   3.531   0.115  13.437  0.2921 -0.6882 -0.5088
  259SOD    SOD22387   1.285   4.527   4.424  0.1904  0.2733  0.0604
  260SOD    SOD22388   3.995   0.481  16.385 -0.0704  0.6312  0.6956
  261SOD    SOD22389   2.727   5.001   0.362 -0.0206  0.4977  0.2271
  262SOD    SOD22390   3.379   0.425  11.583 -0.2942  0.5392  0.1034
  263SOD    SOD22391   3.548   0.450  15.363 -0.2387 -0.2581  0.2358
  264SOD    SOD22392   3.569   3.071  13.842  0.2629  0.5846  0.5111
  265SOD    SOD22393   5.171   1.917   4.507 -0.1107  0.3859  0.0818
  266CLA    CLA22394   6.824   0.853  16.957  0.3431 -0.1879  0.3187
  267CLA    CLA22395   5.539   2.464  16.610  0.0485  0.1880 -0.3114
  268CLA    CLA22396   0.620   5.599  14.552 -0.4182  0.3109 -0.3324
  269CLA    CLA22397   1.088   4.817  13.180  0.1061  0.2058  0.2037
  270CLA    CLA22398   0.465   3.836  16.037  0.1211 -0.1386  0.3827
  271CLA    CLA22399   0.329   1.842   4.083  0.2285  0.0870 -0.0976
  272CLA    CLA22400   5.655   5.768  11.732 -0.0907  0.0753  0.0463
  273CLA    CLA22401   4.493   5.362   5.289  0.7762  0.1518 -0.1221
  274CLA    CLA22402   3.472   2.330   3.921  0.1247 -0.4737  0.1358
  275CLA    CLA22403   4.551   1.107  16.520  0.1223  0.2722  0.0660
  276CLA    CLA22404   3.750   5.419  12.555  0.4283 -0.7010  0.4909
  277CLA    CLA22405   6.082   4.594  13.970  0.2321  0.1186 -0.1106
  278CLA    CLA22406   1.034   4.082  12.628  0.2879  0.2626  0.2564
  279CLA    CLA22407   5.958   6.376   1.644  0.2386 -0.4906 -0.3886
  280CLA    CLA22408   4.386   4.030  14.691 -0.1599  0.1041 -0.2455
  281CLA    CLA22409   4.002   1.622   3.502  0.1415 -0.1004 -0.1821
  282CLA    CLA22410   3.152   0.487  15.059  0.0294 -0.2009  0.2679
  283CLA    CLA22411   1.452   2.625   0.265  0.1738 -0.1855 -0.4736
  284CLA    CLA22412   1.705   3.898   0.777 -0.0044  0.1509  0.4161
  285CLA    CLA22413   3.614   3.227   5.073  0.1848  0.3134 -0.2651
  286CLA    CLA22414   4.707   1.969   4.465 -0.4719 -0.0991 -0.2354
  287CLA    CLA22415   1.540   4.568   4.367 -0.3145 -0.0734 -0.1692
  288CLA    CLA22416   5.978   5.379   2.584  0.3636  0.3885 -0.2735
  289CLA    CLA22417   4.335   1.164  14.259  0.0097 -0.1454  0.1143
  290CLA    CLA22418   5.536   2.784  12.866  0.1078 -0.3816  0.2277
  291CLA    CLA22419   3.472   0.578   0.967 -0.2150 -0.1424 -0.0735
  292CLA    CLA22420   6.311   4.842   5.679 -0.2352 -0.5126  0.1267
  293CLA    CLA22421   4.352   2.575  12.233 -0.1813 -0.2153 -0.0664
  294CLA    CLA22422   1.975   5.341   1.401  0.0271 -0.2032  0.3507
  295CLA    CLA22423   2.880   4.679   0.799  0.1622  0.2363  0.6434
  296CLA    CLA22424   3.636   5.912   4.913  0.2912  0.5823  0.1490
  297CLA    CLA22425   5.259   4.921   4.359  0.2372 -0.0304  0.1354
  298CLA    CLA22426   2.711   2.903   4.036  0.1263  0.0251 -0.3781
  299CLA    CLA22427   2.986   4.196  15.970  0.2713 -0.1383  0.2343
  300CLA    CLA22428   0.242   3.926   3.006  0.0980  0.3139  0.1213
  301CLA    CLA22429   3.241   6.020   2.594 -0.1279  0.2298  0.3433
  302CLA    CLA22430   2.834   0.518  12.800  0.0474 -0.1184  0.1172
  303CLA    CLA22431   5.235   5.732   0.833 -0.0295 -0.3044 -0.2517
  304CLA    CLA22432   0.589   4.687   3.680  0.4636  0.3642  0.4146
  305CLA    CLA22433   4.540   5.044   1.689 -0.0248  0.2190  0.4146
  306CLA    CLA22434   1.272   6.346   1.981  0.1027  0.0138  0.1467
  307CLA    CLA22435   3.071   2.192   0.475 -0.0322  0.1100 -0.5060
  308CLA    CLA22436   1.140   3.051  15.414  0.0419 -0.1760  0.1488
  309CLA    CLA22437   1.225   4.720  11.713 -0.1208 -0.1434  0.2723
  310CLA    CLA22438   0.609   4.137  13.753  0.3467  0.0170  0.1860
  311CLA    CLA22439   3.706   0.373  16.403 -0.4237  0.1700 -0.2043
  312CLA    CLA22440   3.715   5.217   4.871 -0.6512  0.3076  0.3450
  313CLA    CLA22441   1.622   1.938   4.480 -0.2991 -0.3184 -0.5463
  314CLA    CLA22442   1.479   0.854   1.256 -0.0274 -0.0017  0.2857
  315CLA    CLA22443   3.122   5.973   0.512  0.1596  0.2144  0.3834
  316CLA    CLA22444   4.726   5.851   4.115 -0.3546 -0.1127  0.0881
  317CLA    CLA22445   1.266   1.170  13.573  0.3863 -0.5424  0.2617
  318CLA    CLA22446   2.473   2.516  14.273  0.0161 -0.0343 -0.0452
  319TIP3   OH222447   3.190   1.126  16.819  0.3304  0.1153 -0.2852
  319TIP3    H122448   3.183   1.041  16.862  3.0614 -0.5988 -1.0589
  319TIP3    H222449   3.251   1.175  16.875  0.5277  0.7355 -1.0302
  320TIP3   OH222450   3.855   2.118   6.084  0.1308 -0.1535 -0.0750
  320TIP3    H122451   3.824   2.151   6.169 -0.0749  1.6072 -0.7839
  320TIP3    H222452   3.948   2.100   6.098 -0.0501 -0.5293  0.6965
  321TIP3   OH222453   3.496   6.293   5.156  0.4847 -0.4870  0.2194
  321TIP3    H122454   3.425   6.353   5.175  0.6274 -0.5054  0.8217
  321TIP3    H222455   3.468   6.246   5.077 -0.9981 -1.7899  1.4564
  322TIP3   OH222456   4.814   1.379  13.828  1.0248  0.3457 -0.1762
  322TIP3    H122457   4.820   1.419  13.741 -0.5623 -0.6025 -0.7548
  322TIP3    H222458   4.832   1.451  13.888  0.5325  1.4028 -1.2490
  323TIP3   OH222459   4.988   6.148  14.976 -0.0715 -0.5546 -0.1817
  323TIP3    H122460   4.921   6.214  14.992 -0.3737 -0.7545 -0.6089
  323TIP3    H222461   5.063   6.178  15.027 -0.3028 -0.0344 -0.1353
  324TIP3   OH222462   4.595   6.153   5.316 -0.1788  0.4020  0.2341
  324TIP3    H122463   4.669   6.092   5.314 -1.2733 -0.9582 -0.0933
  324TIP3    H222464   4.562   6.153   5.227 -0.3419  1.3046  0.2919
  325TIP3   OH222465   6.608   4.117   5.379 -0.4018 -0.4283  0.4871
  325TIP3    H122466   6.654   4.197   5.355 -2.8406  1.6171  2.0751
  325TIP3    H222467   6.574   4.134   5.467 -3.8151 -1.8173 -0.3793
  326TIP3   OH222468   0.502   3.968   3.473  0.3554  0.1326 -0.4599
  326TIP3    H122469   0.560   3.899   3.505 -0.0368  0.0644  0.1425
  326TIP3    H222470   0.505   3.961   3.378 -0.3941 -1.3544 -0.4113
  327TIP3   OH222471   3.638   2.786   0.109  0.2090  0.0483  0.0939
  327TIP3    H122472   3.715   2.819   0.156  0.3074 -1.6891  1.2358
  327TIP3    H222473   3.613   2.707   0.156 -2.5050  0.7255 -0.0434
  328TIP3   OH222474   4.771   1.311  14.475  0.1868 -0.0363  0.2078
  328TIP3    H122475   4.754   1.403  14.496  0.8858  0.2542 -0.4680
  328TIP3    H222476   4.770   1.267  14.561  1.0947  0.8158  0.6855
  329TIP3   OH222477   6.519   1.081   2.768 -0.1411 -0.3823 -0.3074
  329TIP3    H122478   6.542   0.988   2.779 -0.7901 -0.6867 -1.3483
  329TIP3    H222479   6.551   1.103   2.680 -1.4808 -0.1073 -0.7588
  330TIP3   OH222480   2.164   4.512  11.523  0.0674  0.1860  0.0490
  330TIP3    H122481   2.189   4.435  11.471  0.0381  0.7644 -0.8443
  330TIP3    H222482   2.068   4.506  11.527  0.1929 -1.8357  3.1708
  331TIP3   OH222483   2.858   1.022  12.940  0.4591 -0.7125  0.3220
  331TIP3    H122484   2.790   1.014  12.873  0.0968 -1.8531  0.8059
  331TIP3    H222485   2.906   1.102  12.916 -1.3159  0.3680  0.2266
  332TIP3   OH222486   3.558   4.305   1.985  0.1433 -0.0566 -0.5889
  332TIP3    H122487   3.498   4.303   2.059  1.0586  0.7466  0.2034
  332TIP3    H222488   3.633   4.253   2.013 -0.0921 -0.9307 -1.5109
  333TIP3   OH222489   3.362   3.492  13.177 -0.1052 -0.3714 -0.3327
  333TIP3    H122490   3.335   3.553  13.245  0.9099 -0.1200 -0.1478
  333TIP3    H222491   3.316   3.411  13.198  1.0964 -0.6498  1.3371
  334TIP3   OH222492   6.380   5.979  12.433  0.2602  0.0173 -0.2441
  334TIP3    H122493   6.318   5.979  12.505 -0.9150  0.3426 -1.2216
  334TIP3    H222494   6.337   5.928  12.364  1.6993 -0.9817 -0.4554
  335TIP3   OH222495   5.014   2.385   0.663 -0.1473  0.4629  0.0160
  335TIP3    H122496   5.082   2.369   0.728  0.1613  0.3343 -0.3341
  335TIP3    H222497   4.967   2.302   0.655 -0.9089  0.7853  0.8833
  336TIP3   OH222498   3.590   1.080  12.248 -0.3682  0.3222  0.2196
  336TIP3    H122499   3.510   1.043  12.284  0.3087 -1.4536  0.0123
  336TIP3    H222500   3.641   1.004  12.221  2.0913  1.2850  1.8036
  337TIP3   OH222501   2.189   4.847   3.569  0.5388 -0.3621 -0.3043
  337TIP3    H122502   2.256   4.783   3.543  0.7942  0.0857 -0.7769
  337TIP3    H222503   2.236   4.931   3.570  0.2895 -0.2245  0.6438
  338TIP3   OH222504   5.475   3.234   3.782  0.3763  0.7787  0.3790
  338TIP3    H122505   5.507   3.323   3.797 -0.3963  0.9474  1.0897
  338TIP3    H222506   5.540   3.177   3.823  1.1781  0.9702 -0.5837
  339TIP3   OH222507   6.244   4.139   5.384 -0.4563 -0.6279 -0.3378
  339TIP3    H122508   6.164   4.179   5.416 -0.0899 -0.5788  0.5705
  339TIP3    H222509   6.241   4.148   5.289 -0.7525  0.8304 -0.2040
  340TIP3   OH222510   5.462   6.173  15.380 -0.2566  0.6632  0.5510
  340TIP3    H122511   5.531   6.140  15.438 -0.8527  0.7749  1.3451
  340TIP3    H222512   5.447   6.263  15.410 -0.4826  0.7660  0.1337
  341TIP3   OH222513   1.772   5.325  10.867  0.5907  0.0898 -0.4833
  341TIP3    H122514   1.746   5.262  10.801 -2.1694  0.6806 -0.0956
  341TIP3    H222515   1.704   5.393  10.864  0.9191  0.6720  2.2107
  342TIP3   OH222516   0.208   3.284  13.710  0.1675  0.8045  0.6141
  342TIP3    H122517   0.165   3.350  13.656  0.1217  0.7049  0.5284
  342TIP3    H222518   0.258   3.231  13.648  1.1335  1.4678  0.8082
  343TIP3   OH222519   4.890   6.561   2.739 -0.5353  0.3166 -0.2364
  343TIP3    H122520   4.980   6.550   2.771 -0.5782  0.8213  0.0780
  343TIP3    H222521   4.900   6.576   2.645 -0.4681 -2.0632 -0.6475
  344TIP3   OH222522   2.185   4.804  12.519  0.2793 -0.1590  0.3675
  344TIP3    H122523   2.261   4.840  12.566  0.4788 -0.4331  0.2566
  344TIP3    H222524   2.135   4.881  12.492  0.4807  0.0217  0.5079
  345TIP3   OH222525   2.237   5.902   0.496 -0.1112 -0.3995  0.1024
  345TIP3    H122526   2.145   5.903   0.468  0.5645 -1.3807 -2.4005
  345TIP3    H222527   2.270   5.817   0.466  1.7868  0.2117  0.3601
  346TIP3   OH222528   1.030   4.280  14.588 -0.0029  0.3413 -0.4135
  346TIP3    H122529   1.100   4.215  14.584 -0.2058  0.1262 -3.7753
  346TIP3    H222530   0.961   4.242  14.533 -0.6919  2.7603 -1.3130
  347TIP3   OH222531   1.828   3.227  14.053  0.0418  0.1558  0.5527
  347TIP3    H122532   1.864   3.202  13.967  0.6921 -0.0364  0.8733
  347TIP3    H222533   1.868   3.311  14.072  0.2385 -0.0084  0.8664
  348TIP3   OH222534   4.700   4.816   1.479 -0.0883  0.1575  0.6104
  348TIP3    H122535   4.661   4.834   1.393 -0.3496  1.5570  0.9955
  348TIP3    H222536   4.630   4.835   1.541  0.2198 -0.4714  1.1667
  349TIP3   OH222537   3.623   2.071   2.097 -0.0295 -0.2335 -0.0451
  349TIP3    H122538   3.549   2.053   2.039 -0.1322  0.6097 -0.1834
  349TIP3    H222539   3.645   1.986   2.135  0.2845 -0.8686 -1.6026
  350TIP3   OH222540   4.819   5.799   1.495  0.3319  0.3947  0.0057
  350TIP3    H122541   4.800   5.726   1.555 -0.5705 -0.1213 -0.8676
  350TIP3    H222542   4.772   5.873   1.533  2.7684  1.0800  1.9370
  351TIP3   OH222543   2.189   5.519  16.651  0.5855 -0.1080  0.6693
  351TIP3    H122544   2.155   5.607  16.635  0.5368 -0.1521  0.5365
  351TIP3    H222545   2.133   5.461  16.601 -1.1768 -0.5143  2.9346
  352TIP3   OH222546   5.666   0.274  11.360 -0.4432 -0.1358  0.7861
  352TIP3    H122547   5.593   0.288  11.420 -0.8845 -0.3371  0.2986
  352TIP3    H222548   5.726   0.217  11.409 -0.4930  0.2185  1.2738
  353TIP3   OH222549   2.289   5.221   1.848  0.6907  0.1548 -0.1277
  353TIP3    H122550   2.354   5.151   1.852  1.6206  1.0512  0.8897
  353TIP3    H222551   2.321   5.280   1.780  1.3742  0.9898  0.8910
  354TIP3   OH222552   2.658   5.787   5.132 -0.7535 -0.1411 -0.3619
  354TIP3    H122553   2.722   5.716   5.138 -1.2343 -0.7221 -1.7484
  354TIP3    H222554   2.608   5.768   5.053 -0.9852  1.6800 -0.7077
  355TIP3   OH222555   5.896   6.417  10.803  0.0574 -0.3304  0.0950
  355TIP3    H122556   5.874   6.505  10.772 -1.3520 -0.6148  0.2023
  355TIP3    H222557   5.991   6.418  10.814  0.0854  1.1129 -0.0946
  356TIP3   OH222558   6.069   0.476   5.969 -0.4080 -0.5001 -0.8505
  356TIP3    H122559   6.102   0.388   5.985  3.2341  0.4199 -2.0729
  356TIP3    H222560   6.134   0.533   6.011 -2.1161  1.6209 -0.9313
  357TIP3   OH222561   2.031   6.722   2.291  0.2435  0.8817  0.2107
  357TIP3    H122562   2.042   6.672   2.371 -1.1676  1.3489  0.7285
  357TIP3    H222563   2.023   6.813   2.320 -3.3742  0.8134 -0.0576
  358TIP3   OH222564   0.042   1.661   4.044 -0.1880 -0.2542 -0.2551
  358TIP3    H122565   0.137   1.671   4.047 -0.3752  2.2119 -0.7274
  358TIP3    H222566   0.026   1.574   4.080  2.1604 -0.3129  0.8220
  359TIP3   OH222567   5.011   0.999   3.710 -0.2275 -0.3694 -0.0755
  359TIP3    H122568   5.076   0.943   3.753  0.7428 -1.1451 -2.3884
  359TIP3    H222569   4.930   0.948   3.713 -0.2206 -0.3332  0.9370
  360TIP3   OH222570   5.438   0.044  10.950  0.0485  0.1736 -0.2289
  360TIP3    H122571   5.444   0.105  11.024 -2.0856  0.2570 -0.0819
  360TIP3    H222572   5.455  -0.042  10.989 -0.4860  0.2806  0.2601
  361TIP3   OH222573   5.954   2.559   3.515  0.4609 -0.6594  0.3097
  361TIP3    H122574   5.869   2.601   3.530  0.8662 -0.0286  0.8764
  361TIP3    H222575   5.956   2.543   3.420 -0.4294 -1.0052  0.3362
  362TIP3   OH222576   1.130   5.502  14.077  0.0484 -0.3439 -0.4818
  362TIP3    H122577   1.100   5.519  14.167  0.5979 -0.5463 -0.2559
  362TIP3    H222578   1.055   5.526  14.022 -0.1175  0.2700 -0.0044
  363TIP3   OH222579   0.658   1.852   5.995  0.6488 -0.8907  0.3718
  363TIP3    H122580   0.636   1.791   6.065  1.4427 -0.4699  0.9995
  363TIP3    H222581   0.747   1.830   5.969 -0.1951 -2.1796 -1.7347
  364TIP3   OH222582   3.260   1.335   4.512  0.0047 -0.2181  0.4955
  364TIP3    H122583   3.231   1.323   4.422  1.5496 -0.8124  0.0507
  364TIP3    H222584   3.265   1.429   4.524  3.2617 -0.0496 -1.2673
  365TIP3   OH222585   2.678   4.096  13.931 -0.3158 -0.3656  0.1267
  365TIP3    H122586   2.739   4.073  14.000  1.5802  0.4702 -1.1857
  365TIP3    H222587   2.679   4.192  13.929 -1.1111 -0.3584 -0.4039
  366TIP3   OH222588   5.611   5.451  14.020 -0.3530  0.3168 -0.0366
  366TIP3    H122589   5.672   5.430  13.949 -0.8017 -1.1262 -0.0267
  366TIP3    H222590   5.561   5.526  13.987 -1.3781 -1.0425 -1.8084
  367TIP3   OH222591   0.566   5.110   1.265  0.9136 -0.9666  0.4202
  367TIP3    H122592   0.533   5.192   1.229  0.4982 -0.6158  1.5268
  367TIP3    H222593   0.559   5.047   1.194 -0.1135 -0.3683 -0.0271
  368TIP3   OH222594   6.767   5.866  13.925  0.1364 -0.0858 -0.4086
  368TIP3    H122595   6.803   5.952  13.904  0.4700 -0.0892  0.1322
  368TIP3    H222596   6.680   5.884  13.960 -0.2526 -0.0521 -1.3587
  369TIP3   OH222597   0.144   6.739  11.589  0.0227 -0.4207  0.0776
  369TIP3    H122598   0.177   6.828  11.603 -1.0514 -0.2883  2.3290
  369TIP3    H222599   0.172   6.691  11.667 -3.3185 -0.7739  1.2494
  370TIP3   OH222600   6.509   4.841  12.726 -0.4457 -0.1404 -0.1776
  370TIP3    H122601   6.591   4.836  12.677 -0.3578 -1.7443  0.0737
  370TIP3    H222602   6.485   4.749  12.742 -1.0666  0.3189  1.7735
  371TIP3   OH222603   5.120   2.008   6.019  0.0608  0.0037  0.0080
  371TIP3    H122604   5.083   1.923   5.998 -0.3821  0.0583  0.5412
  371TIP3    H222605   5.088   2.027   6.108  0.5520  0.5018  0.0863
  372TIP3   OH222606   5.779   3.640  13.377 -0.0445 -0.2084  0.2515
  372TIP3    H122607   5.779   3.638  13.282 -1.0633  2.3804  0.1162
  372TIP3    H222608   5.821   3.557  13.403 -0.7698 -1.5053 -2.3816
  373TIP3   OH222609   2.931   3.607  12.169 -0.3533 -0.1370 -0.2745
  373TIP3    H122610   2.885   3.592  12.252 -0.9972 -1.2225 -0.8100
  373TIP3    H222611   2.871   3.660  12.117 -0.1294  0.1801 -0.2132
  374TIP3   OH222612   1.779   2.057  15.472 -0.3845 -0.1622  0.4373
  374TIP3    H122613   1.764   2.130  15.413  1.3505  1.5488  1.9915
  374TIP3    H222614   1.711   2.066  15.539 -0.6690 -0.4813  0.1968
  375TIP3   OH222615   3.220   0.255  11.618  0.3611  0.2149  0.4767
  375TIP3    H122616   3.169   0.210  11.551  0.6288  0.2171  0.2703
  375TIP3    H222617   3.155   0.281  11.684  0.1418 -0.0657  0.3747
  376TIP3   OH222618   5.573   6.626  15.922 -0.4900 -0.3338 -0.3797
  376TIP3    H122619   5.543   6.653  16.009  0.4749  2.0998 -0.7066
  376TIP3    H222620   5.502   6.573  15.887 -1.2313 -0.7261  1.5916
  377TIP3   OH222621   2.651   2.832   0.912  0.2629 -0.0068 -0.2814
  377TIP3    H122622   2.738   2.804   0.882 -0.2257 -2.4584  0.3493
  377TIP3    H222623   2.662   2.848   1.006  0.1818  0.3249 -0.3290
  378TIP3   OH222624   1.239   4.867  16.148  0.0067 -0.0857  0.3141
  378TIP3    H122625   1.167   4.854  16.085 -0.3041 -1.1604  0.8622
  378TIP3    H222626   1.211   4.941  16.201 -0.3444 -0.0035  0.0221
  379TIP3   OH222627   5.733   4.434   6.476 -0.4792 -0.6038  0.2217
  379TIP3    H122628   5.702   4.345   6.490 -1.3884 -0.1124  1.4900
  379TIP3    H222629   5.656   4.482   6.443 -0.0554 -0.2292 -0.2509
  380TIP3   OH222630   1.946   4.418   3.121 -0.1145  0.3941 -0.2872
  380TIP3    H122631   2.014   4.361   3.155  0.3738 -0.0784 -1.9778
  380TIP3    H222632   1.993   4.488   3.076 -0.7335  0.2458 -1.1848
  381TIP3   OH222633   6.672   4.976  11.308 -0.0593  0.2750 -0.1746
  381TIP3    H122634   6.583   5.008  11.319 -0.2798 -0.1128 -0.7668
  381TIP3    H222635   6.666   4.910  11.238  0.5581 -0.3019  0.2956
  382TIP3   OH222636   6.549   6.723   2.249 -0.1644  0.2198  0.3180
  382TIP3    H122637   6.494   6.765   2.183 -0.0703  0.3418  0.3166
  382TIP3    H222638   6.624   6.782   2.259  0.9454 -0.8729 -1.0716
  383TIP3   OH222639   0.049   3.409  14.712 -0.2801 -0.1509 -0.4382
  383TIP3    H122640  -0.039   3.408  14.675 -0.3830 -2.1023 -0.2314
  383TIP3    H222641   0.097   3.472  14.658 -1.7415  0.8533 -0.6352
  384TIP3   OH222642   6.545   4.524  13.925  0.5657 -0.3648  0.6424
  384TIP3    H122643   6.506   4.600  13.966  1.0761 -0.4392  1.2782
  384TIP3    H222644   6.558   4.462  13.996 -0.3736 -1.2844  0.0411
  385TIP3   OH222645   6.392   6.438  14.799  0.1915  0.0148  0.6134
  385TIP3    H122646   6.390   6.343  14.791 -1.1754 -0.1134  1.9396
  385TIP3    H222647   6.481   6.458  14.830  0.2881 -0.9045  0.9511
  386TIP3   OH222648   4.995   4.286   4.616 -0.1004  0.2783 -0.0794
  386TIP3    H122649   4.970   4.371   4.655 -1.7948  0.1079 -0.7103
  386TIP3    H222650   5.014   4.306   4.525  0.2032  0.0806 -0.0611
  387TIP3   OH222651   3.951   2.496  11.835 -0.0869 -0.4071 -0.1919
  387TIP3    H122652   3.937   2.584  11.869  0.5055 -0.1953 -0.4651
  387TIP3    H222653   3.981   2.446  11.911 -0.6025 -0.4181  0.0036
  388TIP3   OH222654   2.133   6.136  11.338 -0.2964 -0.2904  0.4130
  388TIP3    H122655   2.199   6.191  11.296 -0.8316  0.2864  0.3109
  388TIP3    H222656   2.135   6.054  11.289  1.6896 -1.0226  1.6070
  389TIP3   OH222657   4.178   5.765  14.910 -0.3510 -0.2123 -0.2302
  389TIP3    H122658   4.237   5.742  14.981  1.2988 -1.1090 -1.8130
  389TIP3    H222659   4.093   5.731  14.937  0.2829 -0.7199  1.2066
  390TIP3   OH222660   3.756   0.983  15.184 -0.4783  0.2165 -0.7286
  390TIP3    H122661   3.727   1.074  15.187 -0.8331  0.1544 -1.8457
  390TIP3    H222662   3.701   0.938  15.248 -2.6235  0.1911 -2.4911
  391TIP3   OH222663   5.876   6.577  12.574 -0.0012 -0.0168 -0.1394
  391TIP3    H122664   5.934   6.541  12.640  0.1755 -0.1592 -0.3712
  391TIP3    H222665   5.794   6.529  12.585  0.8013 -1.8956 -1.6986
  392TIP3   OH222666   1.135   2.747  15.422  0.1992 -0.0930  0.2508
  392TIP3    H122667   1.049   2.713  15.396 -0.1783  1.5180 -0.7345
  392TIP3    H222668   1.129   2.841  15.406  2.2914 -0.0071 -0.2023
  393TIP3   OH222669   1.970   2.544  16.500  0.1379  0.0179 -0.2673
  393TIP3    H122670   1.876   2.543  16.519 -0.5240 -0.6448 -3.0957
  393TIP3    H222671   1.988   2.458  16.462  2.1513 -0.2439  1.1174
  394TIP3   OH222672   2.364   4.287   0.523  0.3742 -0.1280  0.0401
  394TIP3    H122673   2.339   4.359   0.582 -0.1346  0.5988 -1.0346
  394TIP3    H222674   2.337   4.317   0.437  2.4435 -0.5346 -0.8034
  395TIP3   OH222675   1.644   4.651  13.598 -0.1418  0.0579  0.1870
  395TIP3    H122676   1.618   4.567  13.637  3.5316 -1.9461 -1.1897
  395TIP3    H222677   1.608   4.648  13.510 -0.1112  0.0003  0.1765
  396TIP3   OH222678   3.551   3.337   2.153 -0.3124 -0.0034  1.0948
  396TIP3    H122679   3.645   3.319   2.157 -0.4310 -0.5121  1.8842
  396TIP3    H222680   3.523   3.302   2.068  0.4812  1.5950  0.1282
  397TIP3   OH222681   5.657   1.891  12.927 -0.2124 -0.0175 -0.4806
  397TIP3    H122682   5.684   1.816  12.875  0.3194  0.1313 -0.4265
  397TIP3    H222683   5.718   1.893  13.000  0.3319  0.9786 -0.9482
  398TIP3   OH222684   2.681   2.479   0.647 -0.0706  1.1332 -0.2687
  398TIP3    H122685   2.635   2.549   0.602  1.6479  2.0498 -0.6912
  398TIP3    H222686   2.770   2.482   0.612  0.1523 -1.0730 -0.0793
  399TIP3   OH222687   6.750   4.274  14.403 -0.2876  0.3653 -0.0451
  399TIP3    H122688   6.667   4.314  14.378 -0.5236 -0.6783 -1.0241
  399TIP3    H222689   6.785   4.331  14.472 -2.0074  0.5847  0.6885
  400TIP3   OH222690   2.252   2.747   0.592 -0.5028  0.9930  0.4536
  400TIP3    H122691   2.320   2.766   0.658  2.8201  2.8030 -3.0719
  400TIP3    H222692   2.275   2.661   0.558 -0.5733  1.1695 -0.0494
  401TIP3   OH222693   6.648   2.542  13.341  0.4486  0.2222  0.6260
  401TIP3    H122694   6.664   2.600  13.266  1.1310  1.0568  1.3826
  401TIP3    H222695   6.584   2.589  13.394 -1.8347 -1.4289 -0.5373
  402TIP3   OH222696   0.095   5.502   1.497 -0.4683  0.4229 -0.1631
  402TIP3    H122697   0.153   5.438   1.538  0.1838  0.4330 -1.0470
  402TIP3    H222698   0.008   5.481   1.533  0.0088  0.1730  0.8862
  403TIP3   OH222699   0.354   0.731   1.132  0.0197 -0.0513 -0.4060
  403TIP3    H122700   0.332   0.823   1.147  0.6932  0.2519 -1.1706
  403TIP3    H222701   0.424   0.734   1.067  0.1626 -1.1046 -0.3146
  404TIP3   OH222702   4.186   2.573  12.532  0.5130  0.0406 -0.1313
  404TIP3    H122703   4.117   2.631  12.500 -0.0421 -0.3206  0.3679
  404TIP3    H222704   4.245   2.561  12.458  1.3618  2.2492  0.1089
  405TIP3   OH222705   4.553   4.556   2.472  0.0502  0.1894  0.6513
  405TIP3    H122706   4.619   4.498   2.434 -0.1112  0.6137 -0.2951
  405TIP3    H222707   4.601   4.606   2.539  0.3392 -0.5481  1.0084
  406TIP3   OH222708   3.237   5.500  13.330  0.0933  0.0965 -0.2991
  406TIP3    H122709   3.326   5.530  13.309 -0.3067  0.9210 -0.8475
  406TIP3    H222710   3.248   5.452  13.412  1.0169  0.3789 -0.2371
  407TIP3   OH222711   3.558   1.031   1.678  0.2855  0.3438  0.0810
  407TIP3    H122712   3.603   1.099   1.628  0.4776 -0.3928 -0.7745
  407TIP3    H222713   3.566   0.952   1.625  0.6936 -0.5301  1.3865
  408TIP3   OH222714   4.356   6.178  10.209  0.2879  0.1868 -0.3794
  408TIP3    H122715   4.406   6.203  10.287 -0.7030  0.1408  0.2914
  408TIP3    H222716   4.341   6.084  10.220 -0.1822  0.2534 -0.4288
  409TIP3   OH222717   4.563   2.346   2.291  0.2354 -0.1093  0.4396
  409TIP3    H122718   4.552   2.326   2.384  0.7516 -0.5107  0.4208
  409TIP3    H222719   4.476   2.335   2.253 -0.6176  2.7439  1.3408
  410TIP3   OH222720   4.675   1.131  14.713  0.1918  0.6153 -0.1842
  410TIP3    H122721   4.735   1.073  14.759  0.0576  1.1679  0.6993
  410TIP3    H222722   4.638   1.076  14.643  0.5892 -0.1579  0.2027
  411TIP3   OH222723   3.729   2.865   1.895  0.1726 -0.3223 -0.3561
  411TIP3    H122724   3.642   2.846   1.930  0.2989  1.2098  0.8650
  411TIP3    H222725   3.725   2.836   1.804 -1.1719 -1.5114  0.0493
  412TIP3   OH222726   0.758   3.120   3.651  0.1377 -0.2564 -0.1258
  412TIP3    H122727   0.711   3.037   3.644 -0.7249  0.2829 -0.9638
  412TIP3    H222728   0.773   3.131   3.745 -1.8113 -0.2547  0.2384
  413TIP3   OH222729   1.831   5.218   0.375  0.5727 -0.1998  0.3651
  413TIP3    H122730   1.827   5.126   0.348  0.6263  0.1109 -0.7641
  413TIP3    H222731   1.787   5.220   0.459  1.1394 -1.3736  0.7146
  414TIP3   OH222732   5.867   6.658  17.139  0.4349  0.5884  0.2459
  414TIP3    H122733   5.905   6.644  17.226  1.1001  0.3193 -0.0880
  414TIP3    H222734   5.911   6.736  17.106  1.5904 -0.3966 -0.6302
  415TIP3   OH222735   2.326   6.619   1.613  0.2413 -0.0846 -0.5094
  415TIP3    H122736   2.358   6.709   1.624  0.4583 -0.3515  1.3727
  415TIP3    H222737   2.258   6.610   1.680  1.6813 -1.9512  0.8056
  416TIP3   OH222738   0.793   6.050   3.237  0.1095 -0.6757 -0.3835
  416TIP3    H122739   0.756   5.978   3.289  0.3762 -1.1689 -0.8635
  416TIP3    H222740   0.865   6.010   3.188  0.9663  0.1606  0.1571
  417TIP3   OH222741   3.624   6.099  10.524 -0.1685 -0.3716  0.7776
  417TIP3    H122742   3.532   6.081  10.542 -0.3167 -1.3477 -0.7972
  417TIP3    H222743   3.623   6.168  10.456  0.2592 -0.3762  0.7595
  418TIP3   OH222744   4.280   4.472   1.320  0.3366 -0.5126 -0.4065
  418TIP3    H122745   4.364   4.484   1.277 -0.5039  1.0189 -1.7285
  418TIP3    H222746   4.216   4.504   1.257 -1.2044 -1.0624  0.8049
  419TIP3   OH222747   3.614   0.666   5.496  0.2822  0.1734 -0.4343
  419TIP3    H122748   3.621   0.620   5.412  0.6056 -0.6043  0.0093
  419TIP3    H222749   3.630   0.599   5.561  0.4035  0.8518  0.2484
  420TIP3   OH222750   3.737   6.734  14.119  0.6915  0.0806 -0.0147
  420TIP3    H122751   3.802   6.680  14.163 -0.1467 -0.5865  0.4435
  420TIP3    H222752   3.653   6.698  14.147  0.0886  1.9056  0.6629
  421TIP3   OH222753   4.615   6.097  15.169  0.1928  0.2527 -0.1738
  421TIP3    H122754   4.590   6.007  15.186 -0.2418  0.3916 -0.0700
  421TIP3    H222755   4.711   6.097  15.175  0.1954 -0.1970 -0.1747
  422TIP3   OH222756   3.091   3.399  16.229  0.0115  0.5372  0.1915
  422TIP3    H122757   3.081   3.304  16.235 -1.1008  0.5345 -1.2115
  422TIP3    H222758   3.175   3.412  16.185 -0.4205  0.1530 -0.7693
  423TIP3   OH222759   2.518   3.692   5.287  0.0809  0.2354  0.3127
  423TIP3    H122760   2.487   3.774   5.249 -0.0995 -0.3787 -0.9296
  423TIP3    H222761   2.478   3.624   5.233  0.4847 -0.6662  1.1152
  424TIP3   OH222762   3.925   0.571   4.183  0.5524 -0.4301 -0.4693
  424TIP3    H122763   4.019   0.590   4.184  0.6205 -0.7274 -0.8465
  424TIP3    H222764   3.889   0.620   4.257  1.1824 -1.2869  0.4285
  425TIP3   OH222765   6.178   4.939   0.659 -0.2711 -0.8117 -0.1511
  425TIP3    H122766   6.091   4.955   0.695  0.4379  0.3159  1.1789
  425TIP3    H222767   6.162   4.902   0.572 -2.0641 -2.4987  0.8280
  426TIP3   OH222768   6.154   4.229  16.785 -0.2385  0.3695 -0.6141
  426TIP3    H122769   6.194   4.315  16.796 -0.2680  0.2212  0.9200
  426TIP3    H222770   6.227   4.168  16.785 -0.3408  0.0677  2.5237
  427TIP3   OH222771   2.782   5.423   2.473 -0.2322  0.2059 -0.9642
  427TIP3    H122772   2.820   5.510   2.457 -0.4157  0.7867  1.4741
  427TIP3    H222773   2.696   5.427   2.431 -0.9821  1.8856  0.5814
  428TIP3   OH222774   2.157   0.553  12.420  0.1645 -0.1172 -0.4417
  428TIP3    H122775   2.113   0.637  12.426  0.9149  0.1537  2.4248
  428TIP3    H222776   2.212   0.560  12.341 -2.0459  0.8698 -1.9818
  429TIP3   OH222777   3.534   1.821  14.870  0.0040  0.6329 -0.0706
  429TIP3    H122778   3.497   1.812  14.782  1.6677  0.5125 -0.7947
  429TIP3    H222779   3.552   1.915  14.878  2.2851  0.3441 -0.9602
  430TIP3   OH222780   0.865   6.109  16.757 -0.3439 -0.4503 -0.2793
  430TIP3    H122781   0.911   6.193  16.763  0.3047 -0.8386  0.2798
  430TIP3    H222782   0.775   6.133  16.736  0.1546  0.3134 -1.6775
  431TIP3   OH222783   3.555   6.606   1.713 -0.5591 -0.6057 -0.0039
  431TIP3    H122784   3.618   6.586   1.643  0.8639  0.1480  1.0011
  431TIP3    H222785   3.485   6.655   1.669  0.9997  1.1325 -0.7283
  432TIP3   OH222786   3.494   3.941  16.182  0.0050 -0.1274 -0.4967
  432TIP3    H122787   3.547   4.021  16.176  0.2831  0.0448  2.7427
  432TIP3    H222788   3.407   3.972  16.208  0.5355 -0.8519  2.5061
  433TIP3   OH222789   4.762   4.911   1.847 -0.1928  0.5063  0.1312
  433TIP3    H122790   4.684   4.936   1.797  0.3370  1.3184 -0.3020
  433TIP3    H222791   4.743   4.941   1.936  0.3573  2.4118 -0.3354
  434TIP3   OH222792   6.693   1.039  16.384 -0.0256 -0.8609 -0.8447
  434TIP3    H122793   6.764   1.093  16.421  1.2748 -2.5119 -0.8056
  434TIP3    H222794   6.702   1.051  16.289 -0.2630 -0.3845 -0.8093
  435TIP3   OH222795   3.426   4.761   2.694 -0.1287 -0.2383  0.3642
  435TIP3    H122796   3.515   4.744   2.662 -0.5540  0.0103 -1.0333
  435TIP3    H222797   3.389   4.674   2.709  0.4850 -0.3365  1.3835
  436TIP3   OH222798   6.034   4.512  15.337 -0.3889  0.8282  0.1196
  436TIP3    H122799   6.018   4.444  15.272 -0.2340  0.6681  0.2467
  436TIP3    H222800   5.954   4.564  15.338 -0.1469  1.2443 -0.6867
  437TIP3   OH222801   5.987   3.373   0.704  0.4195 -0.2232 -0.1419
  437TIP3    H122802   6.032   3.371   0.619 -0.3436  1.8741 -0.6513
  437TIP3    H222803   5.984   3.282   0.732  0.9426 -0.9253 -2.2385
  438TIP3   OH222804   5.771   5.343   1.173 -0.0175 -0.1120 -0.6997
  438TIP3    H122805   5.741   5.331   1.263  1.1493  1.1180 -0.1190
  438TIP3    H222806   5.819   5.426   1.174 -1.4033  0.7949 -2.8373
  439TIP3   OH222807   0.881   5.570  13.441  0.3210 -0.7247  0.6331
  439TIP3    H122808   0.949   5.503  13.443  0.6492 -0.3799  2.4067
  439TIP3    H222809   0.833   5.558  13.523 -0.3946  0.4224  0.4038
  440TIP3   OH222810   1.247   6.150  13.230 -0.2615 -0.4836 -0.5067
  440TIP3    H122811   1.182   6.220  13.243 -0.8517 -1.2346  0.7958
  440TIP3    H222812   1.204   6.088  13.172 -0.4341 -0.6312 -0.2224
  441TIP3   OH222813   2.120   4.025   5.126 -0.8430 -0.2689  0.2212
  441TIP3    H122814   2.108   3.954   5.190 -0.6056 -0.4050  0.1168
  441TIP3    H222815   2.107   3.982   5.041 -1.5156 -0.0143  0.1918
  442TIP3   OH222816   1.023   4.091   5.655 -0.1486 -0.1513 -0.0092
  442TIP3    H122817   0.940   4.046   5.638  0.5005 -0.8939 -1.4052
  442TIP3    H222818   1.064   4.042   5.726 -0.0040 -1.0310 -0.6881
  443TIP3   OH222819   5.020   6.417  11.785  0.1308  0.1221 -0.5386
  443TIP3    H122820   5.088   6.354  11.809 -0.9393 -1.0908 -0.5963
  443TIP3    H222821   5.012   6.474  11.861 -0.4919 -1.2626  0.4847
  444TIP3   OH222822   3.737   1.739   3.612 -0.1005  0.4730 -0.2027
  444TIP3    H122823   3.819   1.704   3.579 -0.5819 -0.0058 -0.9255
  444TIP3    H222824   3.730   1.704   3.701  1.3715  2.0481  0.5955
  445TIP3   OH222825   6.040   0.789   5.441  0.6776 -0.0818  0.6254
  445TIP3    H122826   5.981   0.800   5.367  1.8066 -0.0220 -0.3098
  445TIP3    H222827   6.065   0.697   5.438  1.3622  0.0998  0.4012
  446TIP3   OH222828   4.334   0.512   1.956 -0.1478 -0.0250  0.2262
  446TIP3    H122829   4.365   0.603   1.953 -1.7558  0.5300 -1.3081
  446TIP3    H222830   4.252   0.517   2.005 -0.3349 -0.6262 -0.0187
  447TIP3   OH222831   1.585   1.505  12.103  0.7634 -0.2054 -0.3588
  447TIP3    H122832   1.668   1.468  12.073  1.0300  2.3264 -3.3262
  447TIP3    H222833   1.519   1.442  12.074  1.4926 -1.1975  0.0866
  448TIP3   OH222834   3.111   1.481   2.434  0.4477 -0.0309 -0.3907
  448TIP3    H122835   3.161   1.558   2.459  0.0169  1.1428 -2.8264
  448TIP3    H222836   3.176   1.412   2.422  0.8235 -0.1670  1.9473
  449TIP3   OH222837   4.938   2.301   4.267 -0.5607  0.4672  0.3318
  449TIP3    H122838   4.931   2.389   4.303 -2.6585  0.1904  0.7227
  449TIP3    H222839   4.872   2.297   4.198  1.6954  0.1790 -1.9512
  450TIP3   OH222840   5.770   0.051   2.646  0.3011  0.0822 -0.2210
  450TIP3    H122841   5.811  -0.033   2.668 -0.7602 -0.5029 -0.4352
  450TIP3    H222842   5.686   0.028   2.609  0.3660  1.2200 -1.1287
  451TIP3   OH222843   4.587   0.492   4.221  0.3346  0.4740 -0.2081
  451TIP3    H122844   4.665   0.438   4.233  0.3104  0.5827  0.4766
  451TIP3    H222845   4.620   0.578   4.196  0.4374  0.5449  0.1728
  452TIP3   OH222846   0.597   0.171   5.681  0.0877 -0.2700 -0.0906
  452TIP3    H122847   0.682   0.127   5.678 -1.0813 -2.9711  1.7841
  452TIP3    H222848   0.544   0.125   5.614 -1.0721 -1.6823  1.6966
  453TIP3   OH222849   5.989   1.900   0.486  0.2145  0.2041  0.8624
  453TIP3    H122850   5.933   1.824   0.501 -0.1751  0.2400 -0.3331
  453TIP3    H222851   5.928   1.971   0.463  0.6750  0.5068  0.5598
  454TIP3   OH222852   2.121   0.741   1.871 -0.0767 -0.0078  0.4924
  454TIP3    H122853   2.112   0.657   1.825  0.1023  0.1346  0.1956
  454TIP3    H222854   2.179   0.722   1.945  0.2894 -0.0550  0.1951
  455TIP3   OH222855   5.131   3.568   0.168 -0.6397  0.2811 -0.2508
  455TIP3    H122856   5.112   3.644   0.114 -2.1878 -0.5610 -0.9523
  455TIP3    H222857   5.078   3.498   0.131  1.5866 -1.4861 -0.3507
  456TIP3   OH222858   3.387   5.506   4.343  0.9216 -0.5367 -0.0195
  456TIP3    H122859   3.342   5.575   4.295 -0.6819 -0.0613  2.0198
  456TIP3    H222860   3.431   5.455   4.275 -0.9486  0.2483 -1.9725
  457TIP3   OH222861   1.387   4.067   1.851 -0.5883  0.1406  0.0837
  457TIP3    H122862   1.448   3.995   1.864  0.3429  0.6865 -1.0354
  457TIP3    H222863   1.301   4.031   1.874  0.1250 -0.6657  1.6149
  458TIP3   OH222864   2.011   4.208  11.621 -0.0069 -0.6550  0.0768
  458TIP3    H122865   1.996   4.185  11.713 -1.2297 -0.7132 -0.1154
  458TIP3    H222866   1.934   4.261  11.597  3.0343  4.8588  0.8193
  459TIP3   OH222867   4.752   6.545   1.566 -0.0226  0.1082 -0.3303
  459TIP3    H122868   4.842   6.569   1.587  0.0673  0.7934 -1.4272
  459TIP3    H222869   4.698   6.604   1.619  0.1908  2.7081 -2.7475
  460TIP3   OH222870   5.463   0.467  14.185 -0.3615 -0.1072  0.4535
  460TIP3    H122871   5.402   0.529  14.224 -1.9042 -0.1550 -1.6958
  460TIP3    H222872   5.550   0.505  14.203 -1.2365  3.2589 -1.4841
  461TIP3   OH222873   5.405   2.004  15.381  0.4982  0.2471  0.0473
  461TIP3    H122874   5.488   1.959  15.366 -0.2285 -1.2362  0.2879
  461TIP3    H222875   5.355   1.989  15.301 -0.9982 -2.3023  1.3314
  462TIP3   OH222876   6.247   6.357  16.984  0.2763 -0.2724 -0.0027
  462TIP3    H122877   6.244   6.265  17.009  1.5503 -1.3575 -3.3226
  462TIP3    H222878   6.253   6.356  16.888 -0.5650  3.3156 -0.2458
  463TIP3   OH222879   1.782   0.839   2.127 -1.1083  0.5551 -0.4135
  463TIP3    H122880   1.778   0.905   2.058 -1.9449  1.3289  0.3497
  463TIP3    H222881   1.787   0.889   2.208 -0.8743 -0.3357  0.1338
  464TIP3   OH222882   2.608   4.402   3.796 -0.2229 -0.0173 -0.7273
  464TIP3    H122883   2.673   4.393   3.726  0.2933  1.2100 -0.4412
  464TIP3    H222884   2.539   4.455   3.756 -0.9373 -1.0794 -0.9395
  465TIP3   OH222885   3.548   0.050  12.460 -0.1358 -0.4189 -0.4174
  465TIP3    H122886   3.628  -0.001  12.447  0.3145 -0.0845  0.8904
  465TIP3    H222887   3.525   0.081  12.373 -0.1316 -2.4115 -1.1885
  466TIP3   OH222888   0.742   3.439  12.676  0.0356 -0.4671 -0.1768
  466TIP3    H122889   0.754   3.409  12.586 -0.3547 -3.1745  0.5779
  466TIP3    H222890   0.714   3.361  12.724  0.9153  0.7010  2.4491
  467TIP3   OH222891   1.076   4.039   0.451 -0.2325  0.1422 -0.4649
  467TIP3    H122892   1.157   4.012   0.408  0.0394 -1.4900  0.9570
  467TIP3    H222893   1.021   4.071   0.380  1.4211  0.7625 -1.5388
  468TIP3   OH222894   0.962   5.914   3.073 -0.5156  0.1617 -0.5383
  468TIP3    H122895   0.922   5.861   3.003 -0.5242 -2.0866  1.0485
  468TIP3    H222896   1.034   5.859   3.105 -0.0657  1.4564  0.7394
  469TIP3   OH222897   6.148   5.553  12.861 -0.1175  0.2422 -0.4285
  469TIP3    H122898   6.183   5.641  12.846  0.9748 -0.3370 -1.4574
  469TIP3    H222899   6.198   5.520  12.936 -0.9403  0.6846  0.3426
  470TIP3   OH222900   4.263   4.577  13.032  0.4079  0.2787 -0.1676
  470TIP3    H122901   4.240   4.589  12.940  0.5784  0.8871 -0.1322
  470TIP3    H222902   4.180   4.586  13.079  0.5635  1.6252 -0.1175
  471TIP3   OH222903   2.287   5.692   1.253  0.1062  0.0438  0.1557
  471TIP3    H122904   2.280   5.771   1.199  0.0995 -1.0202 -1.4886
  471TIP3    H222905   2.377   5.661   1.237  0.7964  0.7502  2.3424
  472TIP3   OH222906   3.278   3.166   3.520 -0.0013  0.4884 -0.4411
  472TIP3    H122907   3.213   3.236   3.510 -0.2613  0.0471 -2.1935
  472TIP3    H222908   3.362   3.211   3.524 -0.2988  0.9891  0.3993
  473TIP3   OH222909   2.783   5.407  16.221  0.1318  0.1818 -0.6883
  473TIP3    H122910   2.771   5.312  16.209 -0.1976  0.2099 -0.5938
  473TIP3    H222911   2.758   5.422  16.312  1.0265  0.2260 -0.4355
  474TIP3   OH222912   5.603   0.720  11.828  0.4378  0.0569 -0.1907
  474TIP3    H122913   5.657   0.767  11.764  0.3348  1.1979  0.5285
  474TIP3    H222914   5.573   0.642  11.781  1.1065  0.4037 -1.2345
  475TIP3   OH222915   2.509   4.864  11.767  0.5721  0.1752 -0.6346
  475TIP3    H122916   2.507   4.925  11.692  3.0508  2.0417  0.6629
  475TIP3    H222917   2.532   4.780  11.728 -2.3458  0.0461 -2.4204
  476TIP3   OH222918   3.233   0.942   1.041 -0.3613  0.2868  0.5358
  476TIP3    H122919   3.267   0.859   1.010 -2.6006 -0.9583  1.1633
  476TIP3    H222920   3.268   0.951   1.130  0.1985  0.2393  0.3252
  477TIP3   OH222921   2.615   1.291   2.933  0.7650 -0.2026  0.4094
  477TIP3    H122922   2.606   1.348   2.857 -3.2532 -0.5074  0.4156
  477TIP3    H222923   2.635   1.351   3.005  0.2944  0.6943 -0.1825
  478TIP3   OH222924   4.129   0.471   2.129 -0.5101 -0.0801 -0.6386
  478TIP3    H122925   4.034   0.483   2.119 -0.4535 -0.4153 -1.6887
  478TIP3    H222926   4.141   0.376   2.124 -0.3070 -0.2159  1.4704
  479TIP3   OH222927   3.122   5.349   0.801 -0.4694 -0.0529 -0.1623
  479TIP3    H122928   3.028   5.335   0.806 -0.1588 -2.2797  0.8032
  479TIP3    H222929   3.160   5.264   0.825  1.7778  0.3119 -1.9993
  480TIP3   OH222930   1.425   4.529   0.586 -0.6544 -0.3397 -0.0881
  480TIP3    H122931   1.429   4.448   0.534 -1.4282 -0.6124  0.2680
  480TIP3    H222932   1.511   4.533   0.629 -0.6957 -1.1090  0.0872
  481TIP3   OH222933   2.103   0.839  12.847 -0.1522  0.0364  0.7323
  481TIP3    H122934   2.089   0.930  12.873 -0.5439 -0.2217  1.4473
  481TIP3    H222935   2.052   0.829  12.766  0.1214  0.5273  0.4986
  482TIP3   OH222936   3.576   2.016  12.925  0.0666 -0.3071 -0.3071
  482TIP3    H122937   3.519   2.001  13.001  0.3609  1.3439  0.2776
  482TIP3    H222938   3.551   1.948  12.863  0.8775 -2.7334  1.8400
  483TIP3   OH222939   5.798   6.224   1.411  0.2200  0.1013  0.6877
  483TIP3    H122940   5.854   6.284   1.460 -1.2157  0.7339  1.6132
  483TIP3    H222941   5.763   6.278   1.340 -1.3541  0.5070  1.7296
  484TIP3   OH222942   2.841   3.693  14.870 -0.5072 -0.1759  0.2192
  484TIP3    H122943   2.830   3.602  14.899  2.8909 -0.7841 -0.0231
  484TIP3    H222944   2.839   3.744  14.950  1.6599 -1.0208  0.8878
  485TIP3   OH222945   5.059   2.558  15.465 -0.0267  0.1529  0.9263
  485TIP3    H122946   5.079   2.610  15.387  0.2562 -1.9005 -0.4475
  485TIP3    H222947   5.145   2.527  15.495 -0.3856 -1.7845  0.0448
  486TIP3   OH222948   0.022   0.656  14.933 -0.3383  0.3105 -0.2889
  486TIP3    H122949   0.076   0.723  14.977 -1.4202  0.9385  0.1453
  486TIP3    H222950   0.073   0.629  14.858  1.2106 -0.1674  0.8890
  487TIP3   OH222951   3.520   1.814  12.744  0.2969  0.6848 -0.4896
  487TIP3    H122952   3.427   1.837  12.750 -0.4173 -2.1433  0.8490
  487TIP3    H222953   3.534   1.795  12.652 -0.6762  0.3690 -0.5838
  488TIP3   OH222954   1.318   1.106  13.924  0.5113 -0.4945 -0.3220
  488TIP3    H122955   1.270   1.112  13.842  0.3220  2.6658 -0.0905
  488TIP3    H222956   1.293   1.184  13.973  2.4201 -1.0696  1.7646
  489TIP3   OH222957   2.977   6.305   5.759  0.1322 -0.2432  0.0565
  489TIP3    H122958   3.064   6.287   5.795  0.0763 -1.2672 -0.2937
  489TIP3    H222959   2.969   6.246   5.685 -1.3000 -0.9611  0.7422
  490TIP3   OH222960   5.896   4.614  14.751  0.6543 -0.1833  0.5036
  490TIP3    H122961   5.888   4.540  14.691  1.7314  0.3142 -0.2888
  490TIP3    H222962   5.957   4.674  14.708 -0.4692  1.3570  0.9581
  491TIP3   OH222963   6.703   3.486  13.779  0.4242 -0.3381  0.2036
  491TIP3    H122964   6.620   3.461  13.741  0.1248 -1.9885  1.8165
  491TIP3    H222965   6.764   3.488  13.705 -0.1273 -3.3042 -0.4609
  492TIP3   OH222966   1.726   5.414   6.621  0.5128 -0.3240  0.2710
  492TIP3    H122967   1.671   5.468   6.564  0.4164  0.6633  1.2661
  492TIP3    H222968   1.692   5.326   6.609  0.3006 -0.1040 -0.9693
  493TIP3   OH222969   1.451   3.149   5.807  0.2016  0.2425  0.3888
  493TIP3    H122970   1.372   3.160   5.860  0.4528  1.1141  0.6015
  493TIP3    H222971   1.497   3.076   5.847 -0.5931 -0.4159  0.1345
  494TIP3   OH222972   4.469   3.317  10.361 -0.2177  0.2835  0.0459
  494TIP3    H122973   4.470   3.383  10.431  0.3116 -0.5168  0.8026
  494TIP3    H222974   4.558   3.317  10.326 -0.1282 -0.2538  0.2650
  495TIP3   OH222975   5.654   3.514   0.982  0.0368  0.2155  0.5796
  495TIP3    H122976   5.696   3.506   1.068  1.9550  1.8827 -0.0994
  495TIP3    H222977   5.672   3.431   0.939 -1.8064 -1.0356  2.0697
  496TIP3   OH222978   5.150   5.179  14.714 -0.1230 -0.5063 -0.5374
  496TIP3    H122979   5.058   5.166  14.691 -0.1521 -1.0120 -0.1384
  496TIP3    H222980   5.174   5.261  14.670 -0.8709 -0.1641 -0.3131
  497TIP3   OH222981   3.706   6.055  13.706  0.4262 -0.2613 -0.0165
  497TIP3    H122982   3.698   5.996  13.781  0.6918  0.1337  0.3250
  497TIP3    H222983   3.715   6.142  13.745 -0.2088  0.0370 -0.5258
  498TIP3   OH222984   2.516   2.181   2.215 -0.1490  0.6676 -0.0129
  498TIP3    H122985   2.491   2.143   2.299  1.4967 -0.0760  0.1879
  498TIP3    H222986   2.477   2.124   2.150  0.0145  0.2195  0.2750
  499TIP3   OH222987   5.917   4.167  12.957 -0.0407  0.3579  0.2373
  499TIP3    H122988   5.947   4.171  12.866 -0.4358  0.1719  0.0981
  499TIP3    H222989   5.998   4.171  13.008  0.0963  2.1313 -0.0630
  500TIP3   OH222990   0.153   2.037   2.219  0.0196 -0.3534 -0.1724
  500TIP3    H122991   0.065   2.075   2.217  0.5087  0.8512  0.6745
  500TIP3    H222992   0.183   2.042   2.128  0.0100  1.1560 -0.1084
  501TIP3   OH222993   4.320   1.146  16.223  0.0950 -0.4236  0.2659
  501TIP3    H122994   4.341   1.121  16.313  0.1332 -1.4418 -0.0112
  501TIP3    H222995   4.291   1.237  16.229 -0.3733 -0.6365  1.3690
  502TIP3   OH222996   5.303   0.773   2.116  0.5097  0.4880 -0.0841
  502TIP3    H122997   5.216   0.756   2.152  0.7173  1.0474  0.7190
  502TIP3    H222998   5.307   0.868   2.106  1.1371  0.4949  0.1784
  503TIP3   OH222999   2.243   3.037   4.728 -0.8314 -0.1174 -0.0160
  503TIP3    H123000   2.168   2.997   4.685 -1.6046 -1.0711  2.0963
  503TIP3    H223001   2.266   3.111   4.673 -2.8356 -0.2612 -1.1148
  504TIP3   OH223002   5.423   3.188  12.542 -0.0631 -0.1494  0.5153
  504TIP3    H123003   5.363   3.114  12.536  0.6899 -0.7231 -0.0977
  504TIP3    H223004   5.396   3.247  12.472 -1.7846  1.0349  2.0835
  505TIP3   OH223005   5.190   1.223  13.179  0.0299 -0.5615  0.0218
  505TIP3    H123006   5.156   1.134  13.166  2.2309 -1.8483  2.1737
  505TIP3    H223007   5.156   1.250  13.264  0.8605 -0.1254  0.2288
  506TIP3   OH223008   3.283   4.147  14.248 -0.5935 -0.0733  0.1706
  506TIP3    H123009   3.217   4.169  14.314 -0.7215 -1.1437  0.4219
  506TIP3    H223010   3.243   4.075  14.199 -0.2431  0.3105 -0.6829
  507TIP3   OH223011   2.541   5.438   5.685 -0.2980  0.3041  0.1687
  507TIP3    H123012   2.477   5.429   5.615  0.3900  2.4226 -0.8347
  507TIP3    H223013   2.626   5.445   5.640  0.5976 -1.6620  1.4209
  508TIP3   OH223014   2.372   2.403   5.211  0.3652  0.1250  0.0897
  508TIP3    H123015   2.455   2.359   5.224 -0.5305 -1.6654 -0.0094
  508TIP3    H223016   2.316   2.339   5.167 -2.0597  0.1208  2.8757
  509TIP3   OH223017   3.962   3.420  10.370  0.6608 -0.0956 -0.3144
  509TIP3    H123018   3.868   3.418  10.351  0.2608  3.1424  0.7406
  509TIP3    H223019   4.004   3.417  10.284 -0.4081 -0.8909 -0.8337
  510TIP3   OH223020   2.493   1.332   1.127  0.3409 -1.0928 -0.3715
  510TIP3    H123021   2.457   1.327   1.039 -0.5174 -0.7119 -0.0496
  510TIP3    H223022   2.479   1.423   1.154 -0.7050 -1.5391  0.6936
  511TIP3   OH223023   2.143   4.588  16.549 -0.5454 -0.3274 -0.0422
  511TIP3    H123024   2.118   4.648  16.619  1.2673  1.4138 -0.7985
  511TIP3    H223025   2.080   4.604  16.480 -0.7361 -0.1222  0.1783
  512TIP3   OH223026   3.244   1.468   1.082 -0.2573  0.1032  0.3141
  512TIP3    H123027   3.233   1.517   1.001  0.2983 -0.9462 -0.4206
  512TIP3    H223028   3.203   1.383   1.065  0.5665 -0.4182  0.8473
  513TIP3   OH223029   5.631   1.741   2.741 -0.2406 -0.0324  0.0885
  513TIP3    H123030   5.680   1.717   2.662 -0.8529  0.3893 -0.4299
  513TIP3    H223031   5.539   1.727   2.718 -0.3959 -0.6214  0.9838
  514TIP3   OH223032   4.923   3.086  17.037 -0.3000 -0.3339  0.0597
  514TIP3    H123033   4.966   3.095  17.122  0.9143 -0.2324 -0.5476
  514TIP3    H223034   4.958   3.005  17.000  0.4051  0.4242 -1.0110
  515TIP3   OH223035   5.495   3.091   1.984 -0.6840  0.1771  0.0969
  515TIP3    H123036   5.515   3.038   1.907 -1.5953  0.9171 -0.6750
  515TIP3    H223037   5.430   3.155   1.953 -1.0427  0.5088  1.4664
  516TIP3   OH223038   0.953   4.490   2.786  0.0505  0.4706  0.1778
  516TIP3    H123039   1.041   4.458   2.769 -0.3663 -0.6228  0.0174
  516TIP3    H223040   0.916   4.429   2.850 -1.2054 -0.1778 -1.1041
  517TIP3   OH223041   4.053   2.941   4.341  0.3975 -0.3534 -0.0710
  517TIP3    H123042   3.980   2.898   4.385 -1.6781  2.4341 -0.4831
  517TIP3    H223043   4.073   3.017   4.395  1.8218 -0.0777 -0.9051
  518TIP3   OH223044   0.687   0.091  15.909  0.6897  0.5579  0.6351
  518TIP3    H123045   0.721   0.144  15.838 -0.7397  0.0163 -0.4993
  518TIP3    H223046   0.608   0.137  15.938 -0.0322 -0.4143  0.2800
  519TIP3   OH223047   3.886   0.381  11.002  0.3160  0.5755 -0.4883
  519TIP3    H123048   3.845   0.456  10.958 -0.5509  0.2816 -0.2081
  519TIP3    H223049   3.825   0.360  11.073  0.8454 -0.0361 -0.2128
  520TIP3   OH223050   0.159   5.901   6.154 -0.0071  0.8325 -0.3313
  520TIP3    H123051   0.151   5.843   6.230  1.5198  0.0994 -0.6947
  520TIP3    H223052   0.134   5.987   6.186  0.0683  0.4300  0.8500
  521TIP3   OH223053   2.594   6.536  13.700 -0.3664 -0.3164  0.4445
  521TIP3    H123054   2.587   6.441  13.707 -3.2911 -0.3058 -1.1780
  521TIP3    H223055   2.679   6.551  13.658  0.4532 -2.1338  1.3732
  522TIP3   OH223056   5.237   1.464   5.807  0.2047  0.4792 -0.0949
  522TIP3    H123057   5.177   1.463   5.732  0.6233  0.8163 -0.4403
  522TIP3    H223058   5.186   1.425   5.878 -0.1867  0.1121 -0.5621
  523TIP3   OH223059   2.136   6.043   5.608 -0.1953 -0.1806 -0.9303
  523TIP3    H123060   2.135   5.983   5.682 -2.3814 -1.5371 -1.9599
  523TIP3    H223061   2.211   6.017   5.556  0.2810 -0.4208 -0.1396
  524TIP3   OH223062   0.544   6.262  16.471 -0.4966 -0.2942  0.2114
  524TIP3    H123063   0.510   6.251  16.382 -0.9560  0.4169  0.2865
  524TIP3    H223064   0.582   6.350  16.471 -1.3755  0.1117  0.9747
  525TIP3   OH223065   2.466   3.546   5.635 -0.1302 -0.1273  0.3539
  525TIP3    H123066   2.488   3.632   5.672 -1.0369  0.1755  0.2010
  525TIP3    H223067   2.500   3.483   5.699  1.8480  0.2810 -0.2068
  526TIP3   OH223068   1.600   2.524  10.513  0.5262  0.1583  0.1548
  526TIP3    H123069   1.607   2.583  10.588  0.1588  0.8948 -0.3807
  526TIP3    H223070   1.507   2.506  10.504  0.6319 -0.4779  0.2868
  527TIP3   OH223071   1.021   2.978   3.369 -0.1660  0.4292 -1.0313
  527TIP3    H123072   1.116   2.987   3.365 -0.2067  1.7395  0.2151
  527TIP3    H223073   0.988   3.065   3.346 -0.9333  1.0614  2.0250
  528TIP3   OH223074   6.753   4.577   3.229  0.4670  0.0787 -0.1321
  528TIP3    H123075   6.717   4.488   3.225  3.0157 -1.3166  2.8318
  528TIP3    H223076   6.777   4.598   3.139 -0.3881 -2.1635 -0.9516
  529TIP3   OH223077   3.795   0.123   0.078  0.7067  0.3715  0.4592
  529TIP3    H123078   3.765   0.037   0.051 -0.6756  0.4099  1.7554
  529TIP3    H223079   3.875   0.106   0.128  0.2236 -0.2218  1.0554
  530TIP3   OH223080   1.368   2.155  11.771  0.1817 -0.1253  0.4940
  530TIP3    H123081   1.381   2.212  11.696 -4.2720  2.2382  1.2013
  530TIP3    H223082   1.377   2.212  11.847 -1.5656 -0.9670  1.3925
  531TIP3   OH223083   6.010   0.528  13.345 -0.4491 -0.3796 -0.1174
  531TIP3    H123084   6.049   0.444  13.322 -1.9481 -1.3696  0.7476
  531TIP3    H223085   5.967   0.557  13.265  0.4818 -0.1753 -0.5560
  532TIP3   OH223086   4.358   1.229   5.372 -0.4102 -0.6237 -0.6732
  532TIP3    H123087   4.319   1.289   5.308 -1.2531  0.1732  0.5405
  532TIP3    H223088   4.444   1.209   5.336 -0.7071  0.1156 -1.8604
  533TIP3   OH223089   1.389   3.274   5.370 -0.3455  0.0205 -0.2246
  533TIP3    H123090   1.428   3.187   5.372  1.1193  0.6518 -0.0452
  533TIP3    H223091   1.330   3.275   5.446 -2.0492 -1.5005 -1.4396
  534TIP3   OH223092   4.919   2.378  10.803  0.3710  0.1134  0.0285
  534TIP3    H123093   4.902   2.424  10.721  0.0808 -0.1075 -0.0354
  534TIP3    H223094   4.978   2.436  10.851  1.6680 -0.3592 -0.9077
  535TIP3   OH223095   5.484   3.860  11.115 -0.0434  0.2593  0.3684
  535TIP3    H123096   5.409   3.895  11.068 -0.2262 -1.1421 -0.4469
  535TIP3    H223097   5.460   3.769  11.133  1.5653 -0.3080 -0.1716
  536TIP3   OH223098   5.161   2.576  16.517 -0.5737 -0.0132  0.1377
  536TIP3    H123099   5.112   2.497  16.492 -0.2347 -0.3200  0.4339
  536TIP3    H223100   5.213   2.549  16.592  0.1031  0.2906 -0.2152
  537TIP3   OH223101   3.122   4.029  14.075  0.2409  0.0247 -0.0962
  537TIP3    H123102   3.027   4.040  14.072  0.3439  0.9047 -0.2529
  537TIP3    H223103   3.134   3.941  14.112 -0.6215  0.6321  1.7664
  538TIP3   OH223104   1.369   2.539  11.679 -0.0021 -0.5803 -0.1135
  538TIP3    H123105   1.286   2.577  11.709  0.9265  0.7092  0.9417
  538TIP3    H223106   1.426   2.543  11.756  1.5610  0.1105 -1.2513
  539TIP3   OH223107   1.367   5.551   0.512 -0.2884  0.1637  0.5855
  539TIP3    H123108   1.347   5.518   0.600  0.0520  1.8089  1.3203
  539TIP3    H223109   1.463   5.554   0.510 -0.3078  2.1467  0.9859
  540TIP3   OH223110   2.318   4.134  12.787 -0.2822  0.2881 -0.2570
  540TIP3    H123111   2.315   4.229  12.781  1.9733  0.3393 -1.8487
  540TIP3    H223112   2.382   4.116  12.857  0.8977  0.0038 -1.3768
  541TIP3   OH223113   4.386   5.107   5.133 -0.3121 -0.0895  0.3956
  541TIP3    H123114   4.319   5.130   5.198 -0.6643  0.8980 -0.2942
  541TIP3    H223115   4.448   5.180   5.137 -1.6344  1.3143 -2.0927
  542TIP3   OH223116   3.573   0.439  13.788  0.1427 -0.5808 -0.5654
  542TIP3    H123117   3.554   0.384  13.865 -1.2350 -0.4644 -0.7878
  542TIP3    H223118   3.528   0.522  13.807  1.0383 -0.0150 -0.8562
  543TIP3   OH223119   4.641   4.426  14.012  0.2539 -0.0589 -0.3238
  543TIP3    H123120   4.602   4.338  14.011  1.0514 -0.4224 -0.6360
  543TIP3    H223121   4.566   4.485  14.011 -0.3312 -0.7261  0.9434
  544TIP3   OH223122   3.235   2.410   1.953  0.6535  0.1354  0.6900
  544TIP3    H123123   3.203   2.455   2.032  0.0935 -1.0363  1.1603
  544TIP3    H223124   3.173   2.434   1.885  0.7412  0.6009  0.7722
  545TIP3   OH223125   0.987   2.361  15.255 -0.1472 -0.1332 -0.8670
  545TIP3    H123126   0.958   2.439  15.303  1.7924  0.4837 -0.6128
  545TIP3    H223127   0.981   2.290  15.319 -0.3532  0.1284 -0.5895
  546TIP3   OH223128   4.793   6.813   2.516 -0.5876  0.3836 -0.8539
  546TIP3    H123129   4.792   6.891   2.459 -0.0681  0.2100 -1.1071
  546TIP3    H223130   4.792   6.849   2.604  1.5030  0.7721 -0.9202
  547TIP3   OH223131   2.978   2.443   6.724  0.3581 -0.0262  0.3206
  547TIP3    H123132   3.067   2.450   6.689  0.8818 -0.9037  1.4463
  547TIP3    H223133   2.971   2.352   6.753 -1.8778 -0.8203 -2.2855
  548TIP3   OH223134   4.845   3.578   3.988  0.0030 -0.2471 -0.1937
  548TIP3    H123135   4.773   3.639   3.973  0.6020  0.5079 -0.0452
  548TIP3    H223136   4.824   3.536   4.071  1.4522  2.5736  1.7865
  549TIP3   OH223137   6.173   4.084   0.538  0.0994  0.3814 -0.0512
  549TIP3    H123138   6.083   4.107   0.514  0.8078  1.2113 -2.1924
  549TIP3    H223139   6.215   4.168   0.555  0.8958  0.1618 -0.8464
  550TIP3   OH223140   5.767   3.218   3.306 -0.3472 -0.7195  0.8212
  550TIP3    H123141   5.761   3.138   3.253 -2.7680 -0.4152  0.5024
  550TIP3    H223142   5.791   3.286   3.243  0.4531 -0.9771  0.8448
  551TIP3   OH223143   3.425   0.601  15.200  0.0557  0.3697  0.0548
  551TIP3    H123144   3.359   0.544  15.160 -0.1810  1.0919 -0.6151
  551TIP3    H223145   3.374   0.673  15.237  0.4233  0.6308  0.0545
  552TIP3   OH223146   5.461   0.215  11.163  0.3027  0.0716 -0.0396
  552TIP3    H123147   5.387   0.169  11.201  0.5513  0.2719  0.6963
  552TIP3    H223148   5.534   0.198  11.223  0.6702  0.5114 -0.3493
  553TIP3   OH223149   2.605   3.325   3.160  0.2535  0.4650  0.6115
  553TIP3    H123150   2.598   3.414   3.127 -0.1940  0.3373  0.3511
  553TIP3    H223151   2.519   3.286   3.144  0.4430 -0.0131  0.7224
  554TIP3   OH223152   1.903   6.593  15.427 -0.4381  0.0997 -0.4044
  554TIP3    H123153   1.919   6.556  15.340 -0.3540  0.5504 -0.5878
  554TIP3    H223154   1.878   6.684  15.409 -0.8306  0.0767  0.0209
  555TIP3   OH223155   5.791   4.577   5.847  0.3440  0.2632 -0.5197
  555TIP3    H123156   5.869   4.616   5.888  0.4209  0.4941 -0.8729
  555TIP3    H223157   5.784   4.490   5.885  0.8964  0.1644 -0.6317
  556TIP3   OH223158   0.683   2.396   0.722  0.2220 -0.1713  0.3349
  556TIP3    H123159   0.761   2.447   0.742 -0.9941  1.3001  1.6282
  556TIP3    H223160   0.679   2.396   0.626  0.5272  1.8342  0.2644
  557TIP3   OH223161   4.691   1.231  15.901  0.1346  0.3093 -0.2639
  557TIP3    H123162   4.697   1.319  15.939 -1.6566  0.3315  0.0654
  557TIP3    H223163   4.604   1.200  15.928 -0.0684 -0.7788 -2.0378
  558TIP3   OH223164   0.777   3.960   0.432 -0.5201  0.1138 -0.8272
  558TIP3    H123165   0.684   3.973   0.411 -0.2932  0.9361 -1.3638
  558TIP3    H223166   0.824   4.013   0.367  0.2931  0.4997  0.0576
  559TIP3   OH223167   4.729   2.033   3.598 -0.5334  0.3958  0.5864
  559TIP3    H123168   4.804   2.092   3.602  1.3586 -1.8002 -0.1219
  559TIP3    H223169   4.699   2.026   3.688 -0.4041  1.9271  0.7623
  560TIP3   OH223170   6.542   5.756  11.543 -0.1516 -0.3063 -0.5695
  560TIP3    H123171   6.636   5.736  11.539 -0.2492 -0.8552 -0.2746
  560TIP3    H223172   6.529   5.793  11.630  0.0505  1.2205 -1.1573
  561TIP3   OH223173   6.337   6.534   1.930  0.3584  0.1655 -0.3914
  561TIP3    H123174   6.283   6.526   2.009  0.6386 -0.4749 -0.2562
  561TIP3    H223175   6.400   6.602   1.950  1.0245 -0.6410  0.2947
  562TIP3   OH223176   6.182   4.112   1.293  0.4206  0.0994 -0.3345
  562TIP3    H123177   6.255   4.131   1.234 -0.3411  0.9861 -1.0176
  562TIP3    H223178   6.106   4.103   1.236 -0.2793  0.6578  0.4754
  563TIP3   OH223179   5.921   1.528  14.375  0.7870  0.2822  0.1967
  563TIP3    H123180   5.924   1.444  14.329  1.6125  0.1558  0.4665
  563TIP3    H223181   6.007   1.567  14.361  0.2362  1.3377 -0.3699
  564TIP3   OH223182   6.459   5.527  15.711 -0.3060 -0.2522 -0.2566
  564TIP3    H123183   6.437   5.613  15.676  1.1335 -0.1203 -0.8989
  564TIP3    H223184   6.453   5.538  15.806 -0.8617  0.3374 -0.3538
  565TIP3   OH223185   2.369   0.928   3.446  0.2001  0.0683 -0.2675
  565TIP3    H123186   2.364   1.022   3.432 -1.4687 -0.3404 -3.2363
  565TIP3    H223187   2.367   0.918   3.541 -0.3212  2.9854  0.1220
  566TIP3   OH223188   5.839   0.943  11.317 -0.2592  0.1735  0.1566
  566TIP3    H123189   5.866   1.025  11.276 -2.7532  1.5093  0.9989
  566TIP3    H223190   5.774   0.968  11.382 -1.5996 -2.5313  0.0205
  567TIP3   OH223191   5.130   3.655  17.013  0.1982 -0.4648 -0.2962
  567TIP3    H123192   5.077   3.590  17.058  0.2123 -0.3727 -0.1470
  567TIP3    H223193   5.219   3.620  17.015 -0.0403 -1.1937 -1.5885
  568TIP3   OH223194   6.158   1.707  12.141  0.0102 -0.4370  0.2943
  568TIP3    H123195   6.134   1.780  12.199 -0.4721 -0.0429 -0.3859
  568TIP3    H223196   6.221   1.656  12.192  0.1671  0.3175  0.8808
  569TIP3   OH223197   5.758   6.610   2.743 -1.2372  0.1492  0.3875
  569TIP3    H123198   5.712   6.543   2.693 -3.5922 -0.2569  2.8322
  569TIP3    H223199   5.764   6.574   2.832 -1.1537  2.4766  1.4074
  570TIP3   OH223200   5.643   3.666   4.978  0.3232  0.2833  0.3042
  570TIP3    H123201   5.591   3.605   5.029  2.1831 -2.0509 -0.3923
  570TIP3    H223202   5.656   3.621   4.894  0.8462  2.1497 -0.6568
  571TIP3   OH223203   6.454   2.144  15.366 -0.1411  0.1379 -0.1290
  571TIP3    H123204   6.540   2.125  15.328  0.0290 -2.0270  1.1882
  571TIP3    H223205   6.471   2.210  15.433  0.4300 -0.0055 -0.1285
  572TIP3   OH223206   3.056   0.690   4.606 -0.4739 -0.2951  0.2317
  572TIP3    H123207   3.035   0.718   4.695 -0.6071  1.4032 -0.3076
  572TIP3    H223208   2.997   0.616   4.590  0.3071 -1.3389  1.9079
  573TIP3   OH223209   3.642   0.537  12.223 -0.1660  0.4780 -0.0044
  573TIP3    H123210   3.568   0.564  12.277 -1.5085  0.0825 -1.5464
  573TIP3    H223211   3.659   0.447  12.248 -0.1368  0.6001  0.4185
  574TIP3   OH223212   3.445   2.227  12.032  0.4489 -0.4713  0.0144
  574TIP3    H123213   3.461   2.279  11.954  0.8101 -0.4043  0.1319
  574TIP3    H223214   3.468   2.138  12.007  0.5628 -0.4500  0.0412
  575TIP3   OH223215   2.742   0.542   2.099 -0.3153 -0.2263  0.0498
  575TIP3    H123216   2.764   0.457   2.060 -1.5956  0.1360 -1.5798
  575TIP3    H223217   2.688   0.521   2.174  1.6988 -0.9249  1.3973
  576TIP3   OH223218   0.360   3.310   4.656  0.2578 -0.3433 -0.2680
  576TIP3    H123219   0.445   3.351   4.643 -0.3252  0.4439 -1.8091
  576TIP3    H223220   0.353   3.245   4.587 -0.0279 -1.0629  0.4136
  577TIP3   OH223221   1.510   5.289  15.122  0.7053 -0.4548 -0.0890
  577TIP3    H123222   1.549   5.206  15.150 -1.9167 -1.0228  2.3258
  577TIP3    H223223   1.578   5.354  15.138  2.1568 -1.8875 -0.2289
  578TIP3   OH223224   3.952   3.514   1.428  0.6377  0.1698  0.0336
  578TIP3    H123225   3.860   3.488   1.418  0.0121  1.0581  2.7788
  578TIP3    H223226   3.960   3.593   1.375 -0.5442  0.7963  0.7455
  579TIP3   OH223227   6.417   5.048  11.389  0.4645 -0.0457  0.1918
  579TIP3    H123228   6.345   5.088  11.341  0.1708  0.1384  0.7683
  579TIP3    H223229   6.403   4.954  11.381  1.8622 -0.1098 -2.2351
  580TIP3   OH223230   4.255   4.645  15.447  0.0693  0.1839  0.3098
  580TIP3    H123231   4.287   4.711  15.510  0.5864  0.7519 -0.5287
  580TIP3    H223232   4.331   4.591  15.428  0.3023  0.8793 -0.8726
  581TIP3   OH223233   1.283   1.301   1.005 -0.1507 -0.4131  0.2798
  581TIP3    H123234   1.263   1.243   0.931 -0.4299  1.1082 -0.8979
  581TIP3    H223235   1.232   1.380   0.987  1.3564  0.7785  1.0303
  582TIP3   OH223236   4.792   2.431  12.787  0.4982  0.5661  0.2775
  582TIP3    H123237   4.881   2.458  12.808  0.2183  1.7176  0.0355
  582TIP3    H223238   4.743   2.513  12.777 -0.8479 -0.0378  1.4810
  583TIP3   OH223239   4.351   3.731  13.050 -0.4523 -0.4577  0.5218
  583TIP3    H123240   4.294   3.807  13.035 -1.9668 -1.3063  1.6987
  583TIP3    H223241   4.389   3.747  13.136  1.6372  0.3933 -0.5040
  584TIP3   OH223242   6.459   3.693   4.646 -0.5821 -0.3351 -0.5623
  584TIP3    H123243   6.456   3.787   4.666  3.2570 -0.2327  0.2265
  584TIP3    H223244   6.484   3.690   4.553  1.0408 -0.4769 -0.1504
  585TIP3   OH223245   3.556   0.001   0.010  0.0923 -0.1556 -0.1666
  585TIP3    H123246   3.518  -0.085   0.027  0.9090 -0.4275  0.3353
  585TIP3    H223247   3.546   0.049   0.092  1.7867 -0.6134  0.3588
  586TIP3   OH223248   0.402   1.628   6.491  0.2513  0.1557 -0.6469
  586TIP3    H123249   0.498   1.618   6.490  0.0901 -1.8373 -0.7020
  586TIP3    H223250   0.371   1.562   6.429 -1.2358 -0.5811  0.8069
  587TIP3   OH223251   6.112   4.003   0.802 -0.1475  0.4428 -0.3491
  587TIP3    H123252   6.098   3.974   0.712  1.2472  0.1876 -0.5049
  587TIP3    H223253   6.121   4.098   0.795 -0.5611  0.4811 -0.3999
  588TIP3   OH223254   2.465   4.619  14.597  0.1229 -0.2207  0.1528
  588TIP3    H123255   2.540   4.646  14.544 -0.2824  0.7139  0.0402
  588TIP3    H223256   2.457   4.525  14.581 -0.8164  0.2143 -2.5600
  589TIP3   OH223257   2.499   1.736  12.936 -0.1514 -0.1435  0.4723
  589TIP3    H123258   2.504   1.831  12.930 -0.7235 -0.0739  1.0436
  589TIP3    H223259   2.419   1.719  12.986  0.0575 -0.9189  0.5514
  590TIP3   OH223260   1.212   1.467   5.638 -0.1088 -0.0323 -0.1505
  590TIP3    H123261   1.166   1.450   5.721  0.0729  1.2203  0.2272
  590TIP3    H223262   1.169   1.409   5.575 -1.6040  0.4230  0.3941
  591TIP3   OH223263   6.578   4.915   0.809  0.1052  0.0687 -0.1730
  591TIP3    H123264   6.617   4.944   0.891  0.5415 -0.5356 -0.1590
  591TIP3    H223265   6.623   4.832   0.789  0.0771  0.2574 -1.0670
  592TIP3   OH223266   1.201   4.403  13.039 -0.6343  0.0587  0.1171
  592TIP3    H123267   1.180   4.341  13.108  0.6041 -0.3667  0.1275
  592TIP3    H223268   1.160   4.365  12.960  0.6957 -1.1618 -0.0209
  593TIP3   OH223269   6.215   1.061  16.298  0.5203 -0.1431 -0.4232
  593TIP3    H123270   6.250   0.974  16.279  1.2571  0.6924 -3.5213
  593TIP3    H223271   6.138   1.068  16.243  1.5937  1.7986 -1.8085
  594TIP3   OH223272   5.145   2.741  15.286 -0.6364 -0.2259 -0.4940
  594TIP3    H123273   5.209   2.813  15.287  0.1949 -0.8490  2.5735
  594TIP3    H223274   5.061   2.784  15.297 -0.1430  0.3436  1.3593
  595TIP3   OH223275   1.706   1.943   2.468 -0.0106 -0.5667  0.1122
  595TIP3    H123276   1.624   1.892   2.468  0.3128 -1.1747  1.8633
  595TIP3    H223277   1.772   1.881   2.436  0.0519 -0.6447  0.3867
  596TIP3   OH223278   5.340   1.724   1.477 -0.4565  0.4086  0.1576
  596TIP3    H123279   5.382   1.645   1.510 -0.0465  0.6324  0.1747
  596TIP3    H223280   5.411   1.787   1.466 -0.7145  0.6289 -0.2961
  597TIP3   OH223281   1.003   3.778  11.254  0.2930 -0.1190  0.4844
  597TIP3    H123282   1.051   3.798  11.174 -0.6750  1.0587  0.1600
  597TIP3    H223283   1.067   3.787  11.324  0.5341  1.6049  0.0800
  598TIP3   OH223284   3.983   1.054   2.115  0.2532  0.2929  0.0906
  598TIP3    H123285   4.027   1.102   2.185 -0.7001  0.9837  0.2345
  598TIP3    H223286   4.034   1.073   2.036  0.2585  1.0121  0.2656
  599TIP3   OH223287   3.790   4.836  14.261  0.4486 -0.1650  0.0856
  599TIP3    H123288   3.719   4.866  14.203  0.6423  0.8916  0.3758
  599TIP3    H223289   3.859   4.901  14.248  0.3133  0.3715  1.8653
  600TIP3   OH223290   6.309   2.611  17.249  0.1758  0.5812 -0.3211
  600TIP3    H123291   6.372   2.539  17.243 -1.5661 -0.9318 -1.5537
  600TIP3    H223292   6.304   2.631  17.342  1.7157  0.0740 -0.0944
  601TIP3   OH223293   2.781   3.648  11.172  0.1474  0.1461  0.5135
  601TIP3    H123294   2.766   3.625  11.264 -0.0378 -0.1435  0.4147
  601TIP3    H223295   2.870   3.618  11.154 -0.2195 -0.8686  0.2824
  602TIP3   OH223296   3.316   0.555   4.933 -0.5025  0.1379 -0.1422
  602TIP3    H123297   3.339   0.479   4.985  1.6730  0.1869 -0.9227
  602TIP3    H223298   3.264   0.520   4.860  0.3343 -0.5941 -0.3993
  603TIP3   OH223299   1.035   0.972   5.243  0.2020  0.2185  0.6600
  603TIP3    H123300   1.026   1.013   5.329  0.5809  1.0221  0.3274
  603TIP3    H223301   1.125   0.940   5.241 -0.4409 -1.8015  1.3982
  604TIP3   OH223302   0.337   0.113  12.946  0.4538 -0.1307 -0.2603
  604TIP3    H123303   0.274   0.074  13.007  0.9867  0.7650  0.9001
  604TIP3    H223304   0.404   0.046  12.935  0.6018 -0.1244  0.5411
  605TIP3   OH223305   6.261   5.154  12.326  0.5582  0.8139 -0.7153
  605TIP3    H123306   6.275   5.075  12.378  0.4682  0.9101 -0.5418
  605TIP3    H223307   6.348   5.190  12.313  0.5156  1.2422  0.0910
  606TIP3   OH223308   0.194   3.563  16.446 -0.4333  0.3119 -0.5671
  606TIP3    H123309   0.183   3.550  16.540 -0.5123  2.4357 -0.2344
  606TIP3    H223310   0.155   3.485  16.406  0.0380 -0.8622  1.1425
  607TIP3   OH223311   4.794   4.130  13.165  0.0615  0.1803 -0.0413
  607TIP3    H123312   4.787   4.065  13.096 -0.5707 -2.0259  1.9564
  607TIP3    H223313   4.872   4.104  13.215  0.2998  1.4923  0.3228
  608TIP3   OH223314   0.367   1.196  12.455 -0.0099 -0.2459  0.2537
  608TIP3    H123315   0.399   1.285  12.468 -1.1115  0.3238 -0.7925
  608TIP3    H223316   0.353   1.189  12.361 -0.1245 -1.4727  0.3426
  609TIP3   OH223317   6.353   0.413  14.227 -0.4609  0.5472  0.5299
  609TIP3    H123318   6.273   0.360  14.221  1.0712 -1.7604 -1.0757
  609TIP3    H223319   6.411   0.363  14.284  0.7902  0.8389 -0.4553
  610TIP3   OH223320   6.261   0.945   1.394 -0.0157 -0.3714  0.0743
  610TIP3    H123321   6.320   0.876   1.424 -1.5549 -1.1684  1.4130
  610TIP3    H223322   6.250   1.002   1.469  0.4254  0.7903 -0.7107
  611TIP3   OH223323   5.701   1.194   1.321  0.3752  0.2908 -0.0474
  611TIP3    H123324   5.641   1.145   1.265 -0.2806 -0.6279  1.3917
  611TIP3    H223325   5.707   1.280   1.281  0.0837 -0.3855 -1.6144
  612TIP3   OH223326   6.456   0.197   2.534  0.4940  0.1662  0.2293
  612TIP3    H123327   6.418   0.109   2.530  0.0003  0.4093 -0.6097
  612TIP3    H223328   6.471   0.221   2.442  1.6113  0.5408  0.4967
  613TIP3   OH223329   3.037   2.278  15.958 -0.0897  0.3577  0.0356
  613TIP3    H123330   2.996   2.365  15.965  0.1245  1.0901 -4.7181
  613TIP3    H223331   2.965   2.219  15.937  0.1848 -0.0094  0.1189
  614TIP3   OH223332   4.762   5.234   6.184 -0.0578  0.5976 -0.3972
  614TIP3    H123333   4.852   5.266   6.173 -0.2010  1.4792  0.7903
  614TIP3    H223334   4.708   5.299   6.140 -0.0776 -0.5117 -2.0921
  615TIP3   OH223335   3.953   2.112  15.846 -0.5674  0.0764  0.5402
  615TIP3    H123336   3.987   2.026  15.870  0.5983  0.4490  0.2835
  615TIP3    H223337   3.915   2.147  15.927  1.0330  0.2648  1.2459
  616TIP3   OH223338   5.761   2.917   3.076 -0.5737  0.0535 -0.3102
  616TIP3    H123339   5.688   2.927   3.015 -0.0611 -0.7005 -1.0684
  616TIP3    H223340   5.783   2.824   3.073  0.7043  0.3424 -0.4342
  617TIP3   OH223341   2.713   0.482  12.506  0.2652 -0.0717 -0.6549
  617TIP3    H123342   2.722   0.389  12.526 -1.4719 -0.4760 -1.5833
  617TIP3    H223343   2.762   0.526  12.576 -1.3346 -1.5737  1.5284
  618TIP3   OH223344   0.229   5.600  16.217  0.1835 -0.5651 -0.2910
  618TIP3    H123345   0.323   5.614  16.224  0.1128 -0.2236  0.0573
  618TIP3    H223346   0.205   5.554  16.298 -0.3550  1.7385  0.9512
  619TIP3   OH223347   0.820   5.314   0.647  0.2185 -0.4512 -0.2127
  619TIP3    H123348   0.833   5.408   0.655 -0.3455 -0.3310 -0.6349
  619TIP3    H223349   0.907   5.276   0.663  0.2767  0.0855  0.7893
  620TIP3   OH223350   0.029   1.881  11.625  0.1028  0.5586  0.0826
  620TIP3    H123351   0.106   1.849  11.672  0.3981 -0.2752 -0.9285
  620TIP3    H223352   0.054   1.876  11.533 -1.5774 -0.9189 -0.3516
  621TIP3   OH223353   3.953   6.171   3.602 -0.2124 -0.1967  0.8966
  621TIP3    H123354   4.026   6.115   3.576 -0.9939 -0.5786 -0.5717
  621TIP3    H223355   3.955   6.169   3.698  1.2971 -0.7100  0.8898
  622TIP3   OH223356   1.183   4.921  16.618  0.4357  0.6174  0.3590
  622TIP3    H123357   1.134   4.986  16.568  1.6252  1.4711  0.2605
  622TIP3    H223358   1.147   4.925  16.706 -0.6004  0.2334 -0.0372
  623TIP3   OH223359   4.897   4.246   5.602 -0.0913 -0.1521  0.0789
  623TIP3    H123360   4.875   4.280   5.689 -0.5196  0.4515 -0.2551
  623TIP3    H223361   4.993   4.240   5.602 -0.0190  0.8764  0.2187
  624TIP3   OH223362   6.529   0.686  14.503  0.4431  0.2091 -0.0166
  624TIP3    H123363   6.587   0.761  14.507 -0.2922  0.8009 -0.1386
  624TIP3    H223364   6.585   0.610  14.518  1.2052  0.7777  0.0214
  625TIP3   OH223365   6.717   3.613  16.326 -0.3654  0.4166 -0.1922
  625TIP3    H123366   6.743   3.594  16.235  0.7182 -1.8681  0.5184
  625TIP3    H223367   6.739   3.705  16.338 -0.7829  0.8518 -2.3179
  626TIP3   OH223368   5.764   0.753   3.858 -0.7176  0.4676 -0.5599
  626TIP3    H123369   5.788   0.794   3.941 -0.1485  0.5151 -0.7479
  626TIP3    H223370   5.741   0.663   3.882 -1.5545  0.7571 -0.2113
  627TIP3   OH223371   2.543   5.838   1.435  0.5063 -0.4361 -0.3566
  627TIP3    H123372   2.639   5.842   1.434  0.5950 -1.5908  0.7204
  627TIP3    H223373   2.523   5.748   1.463 -0.9002 -0.3879 -1.1423
  628TIP3   OH223374   1.121   0.548  12.338  0.0285 -0.0004  0.5770
  628TIP3    H123375   1.053   0.602  12.297  2.3548  1.8641 -1.1475
  628TIP3    H223376   1.105   0.558  12.432 -2.2928 -0.0181  0.2598
  629TIP3   OH223377   5.094   3.441  16.643  0.2134  0.0286  0.4242
  629TIP3    H123378   5.028   3.510  16.634  0.7601  0.4638 -0.4658
  629TIP3    H223379   5.167   3.484  16.688  1.0680  0.4404 -1.2613
  630TIP3   OH223380   0.319   2.247  15.723 -0.1471 -0.1071  0.2395
  630TIP3    H123381   0.237   2.288  15.696 -0.6602 -1.0552  0.3102
  630TIP3    H223382   0.344   2.293  15.803 -1.0600 -0.3607  0.6851
  631TIP3   OH223383   2.470   5.786   0.904  0.3087 -0.1158  0.2961
  631TIP3    H123384   2.378   5.761   0.896  0.5577 -0.9679 -0.0548
  631TIP3    H223385   2.506   5.772   0.817  0.9619 -0.6279  0.6372
  632TIP3   OH223386   2.281   0.171   1.773 -0.5595  0.6984 -0.2595
  632TIP3    H123387   2.244   0.095   1.818  1.5329 -0.2348  0.0217
  632TIP3    H223388   2.214   0.197   1.710 -1.8841 -0.5274  0.5898
  633TIP3   OH223389   6.521   3.377   5.081  0.0628  0.1531 -0.4208
  633TIP3    H123390   6.461   3.432   5.029 -0.8526 -1.9801 -1.7920
  633TIP3    H223391   6.468   3.349   5.156  0.5035  1.0521  0.2366
  634TIP3   OH223392   0.032   3.776  12.183 -0.1897  0.2727  0.0597
  634TIP3    H123393   0.080   3.851  12.218  0.4124  0.9310 -2.0576
  634TIP3    H223394   0.029   3.714  12.256  1.4224  1.3600  1.1215
  635TIP3   OH223395   6.004   0.627  16.999  0.3913 -0.0157  0.1473
  635TIP3    H123396   5.970   0.640  16.911 -0.1773  1.8453  0.5905
  635TIP3    H223397   6.081   0.684  17.004 -0.8104  1.6031  1.4663
  636TIP3   OH223398   5.708   0.904   2.016  0.1044 -0.2238 -0.0932
  636TIP3    H123399   5.679   0.831   1.962 -1.0445  0.4120 -0.3696
  636TIP3    H223400   5.787   0.872   2.060  1.0812 -0.7802 -2.1087
  637TIP3   OH223401   6.557   2.248   4.770  0.2458 -0.2128  0.6112
  637TIP3    H123402   6.495   2.280   4.836  0.1058  1.0030 -0.0875
  637TIP3    H223403   6.501   2.205   4.705  0.4671 -2.4961  1.8001
  638TIP3   OH223404   0.136   0.628   4.288  0.3582 -0.3799 -0.1527
  638TIP3    H123405   0.214   0.584   4.322  1.0253  0.4640 -0.5551
  638TIP3    H223406   0.089   0.559   4.241  0.8601 -0.8956  0.0817
  639TIP3   OH223407   0.609   5.603   2.554  0.3862 -0.4228  0.3064
  639TIP3    H123408   0.648   5.542   2.617 -0.2039 -0.9985  0.1370
  639TIP3    H223409   0.670   5.676   2.550  1.1232 -1.0085  0.5167
  640TIP3   OH223410   1.311   2.511   5.180  0.5708 -0.0372  0.6061
  640TIP3    H123411   1.404   2.532   5.170  0.7785  0.0591  2.3704
  640TIP3    H223412   1.268   2.597   5.182  0.4076 -0.0889 -0.4276
  641TIP3   OH223413   1.310   5.102   1.002 -0.1313 -0.2183  0.1791
  641TIP3    H123414   1.283   5.029   1.057 -0.8717 -0.6809 -0.7573
  641TIP3    H223415   1.384   5.067   0.951 -1.8986 -1.1202 -1.9041
  642TIP3   OH223416   4.674   1.013  16.235 -0.2185  0.0760  0.1434
  642TIP3    H123417   4.627   1.012  16.319  0.7171 -0.1420  0.6670
  642TIP3    H223418   4.610   1.048  16.173 -0.7528  0.7404  1.0461
  643TIP3   OH223419   0.180   0.946  16.296 -0.1396 -0.2853  0.4507
  643TIP3    H123420   0.230   1.015  16.340 -0.2890  0.1023  0.0283
  643TIP3    H223421   0.131   0.902  16.365  1.5434 -1.3359  1.0338
  644TIP3   OH223422   0.835   6.261   1.767 -0.0358 -0.1497  0.1450
  644TIP3    H123423   0.776   6.336   1.762  0.5907  0.3556  0.1884
  644TIP3    H223424   0.873   6.267   1.854  0.9867  0.2421 -0.3090
  645TIP3   OH223425   5.404   3.033  13.766 -0.0257  0.2414 -0.1764
  645TIP3    H123426   5.407   2.972  13.692 -1.9047 -1.1061  0.7381
  645TIP3    H223427   5.493   3.068  13.773  0.8231 -1.4851 -1.5215
  646TIP3   OH223428   6.433   4.445   0.875 -0.2621 -0.2784  0.0853
  646TIP3    H123429   6.491   4.433   0.800  0.0781 -0.6913  0.4040
  646TIP3    H223430   6.445   4.537   0.901 -1.0712  0.1186 -0.9189
  647TIP3   OH223431   4.598   1.495  10.604  0.0764 -0.2775  0.2197
  647TIP3    H123432   4.521   1.484  10.660  0.4980  1.0792  1.1208
  647TIP3    H223433   4.564   1.535  10.524 -0.1222  0.7361  0.7923
  648TIP3   OH223434   4.950   2.158  13.384  0.1996 -0.7206  0.4304
  648TIP3    H123435   4.960   2.249  13.356 -0.4824 -1.1227 -1.2294
  648TIP3    H223436   5.040   2.126  13.392  0.4471 -0.5331 -1.2291
  649TIP3   OH223437   5.173   6.493  16.472 -0.0909 -0.4389  0.3714
  649TIP3    H123438   5.084   6.520  16.493 -0.8919 -1.4495 -1.5281
  649TIP3    H223439   5.171   6.398  16.471  0.5850 -0.4701 -1.2851
  650TIP3   OH223440   3.380   6.166  12.327 -0.6851  0.2182 -0.4518
  650TIP3    H123441   3.361   6.260  12.329  0.7973  0.5336  0.7503
  650TIP3    H223442   3.399   6.143  12.418  2.2648 -0.4882 -1.1394
  651TIP3   OH223443   0.836   1.147  15.330  0.1583  0.1146 -0.3918
  651TIP3    H123444   0.789   1.079  15.378  2.0718 -1.2929 -0.3894
  651TIP3    H223445   0.771   1.214  15.313 -1.3143 -0.7693  1.4343
  652TIP3   OH223446   0.231   0.588   2.479 -0.2224 -0.0986 -0.1222
  652TIP3    H123447   0.227   0.599   2.384 -0.7967 -2.4874 -0.4357
  652TIP3    H223448   0.140   0.595   2.508 -0.0439  0.6797  0.3006
  653TIP3   OH223449   6.474   4.541   3.996 -0.1823 -0.3700  0.2172
  653TIP3    H123450   6.519   4.598   3.934 -0.1936 -1.4368 -0.8030
  653TIP3    H223451   6.451   4.599   4.069  0.1222  0.8397 -0.6119
  654TIP3   OH223452   4.050   4.500  13.211  0.0154  0.3287  0.1605
  654TIP3    H123453   3.977   4.503  13.149 -2.2298  1.1010  2.6242
  654TIP3    H223454   4.058   4.590  13.243  1.2208 -0.0067  0.8824
  655TIP3   OH223455   0.492   2.153   0.716 -0.4032  0.0479  0.6224
  655TIP3    H123456   0.458   2.174   0.629 -0.5811  0.0150  0.6843
  655TIP3    H223457   0.576   2.198   0.720  1.3553 -2.7720 -0.9198
  656TIP3   OH223458   4.208   2.585  13.240  0.2146  0.0389 -0.1540
  656TIP3    H123459   4.300   2.608  13.225  0.1402  0.4993  0.0742
  656TIP3    H223460   4.182   2.538  13.160  0.3984  0.6854 -0.6094
  657TIP3   OH223461   0.762   3.498   4.102  0.2910  0.0163  0.0595
  657TIP3    H123462   0.787   3.581   4.143 -0.1126  0.5169 -0.6765
  657TIP3    H223463   0.710   3.524   4.026  1.9437 -0.8512 -1.4358
  658TIP3   OH223464   1.010   0.208  11.786  0.8794 -0.1920 -0.3344
  658TIP3    H123465   0.986   0.301  11.793  2.8567  0.5768 -2.3525
  658TIP3    H223466   1.053   0.188  11.869 -0.8417  0.2044  0.7163
  659TIP3   OH223467   6.657   6.393   4.063  0.0209  0.2290  0.4035
  659TIP3    H123468   6.631   6.377   3.973  0.8219 -1.2101  0.4010
  659TIP3    H223469   6.676   6.487   4.066 -2.8599  0.9138 -0.1210
  660TIP3   OH223470   1.559   4.568   4.053  0.4897 -0.2630 -0.2252
  660TIP3    H123471   1.545   4.546   4.146  0.9363  0.5940  0.0539
  660TIP3    H223472   1.648   4.539   4.034  1.1311  1.3220  0.1803
  661TIP3   OH223473   1.910   0.915   6.389 -0.0332  0.0354 -0.0186
  661TIP3    H123474   1.818   0.892   6.405  0.3839 -1.1146  0.8268
  661TIP3    H223475   1.954   0.898   6.472  0.6395  2.4202  0.1913
  662TIP3   OH223476   6.180   6.530  15.465 -0.3721 -0.3581  0.6454
  662TIP3    H123477   6.251   6.471  15.438  0.4743  1.4349 -1.3174
  662TIP3    H223478   6.101   6.490  15.429  0.0449 -0.8267  0.2246
  663TIP3   OH223479   0.907   1.047   2.236 -0.0310 -0.3255 -0.1523
  663TIP3    H123480   0.976   1.047   2.170 -0.2707  1.0546 -0.4213
  663TIP3    H223481   0.927   0.970   2.291  0.5386 -1.1064 -1.4137
  664TIP3   OH223482   3.083   5.480   1.060  0.3960 -0.2736 -0.0948
  664TIP3    H123483   3.024   5.406   1.072  2.6412 -2.2375 -0.6836
  664TIP3    H223484   3.038   5.536   0.996 -1.4549 -0.9157  0.5744
  665TIP3   OH223485   2.896   5.080  12.842  0.2615 -0.0802  0.3268
  665TIP3    H123486   2.934   5.168  12.837  0.1920 -0.1031 -1.0355
  665TIP3    H223487   2.813   5.093  12.888 -1.0388  1.0762 -2.1470
  666TIP3   OH223488   6.055   3.068  16.744  0.0296  0.0591 -0.0810
  666TIP3    H123489   6.000   3.127  16.796  0.8946 -0.3801  1.3854
  666TIP3    H223490   6.021   2.981  16.762  1.1889 -0.2191  0.8634
  667TIP3   OH223491   1.693   1.583  13.863  0.7421 -0.3775  0.1815
  667TIP3    H123492   1.642   1.567  13.942  2.4578 -0.4313  1.3219
  667TIP3    H223493   1.727   1.496  13.840  0.0208 -0.4168 -0.8238
  668TIP3   OH223494   0.997   3.211   2.943  0.1468 -0.3578  0.2905
  668TIP3    H123495   0.973   3.299   2.915 -0.0036 -0.5355 -0.1524
  668TIP3    H223496   1.088   3.219   2.971 -0.5514  0.4698  2.6086
  669TIP3   OH223497   0.999   1.715  12.705  0.2470  0.2988 -0.4360
  669TIP3    H123498   1.029   1.766  12.631  0.4958  1.3387  0.3564
  669TIP3    H223499   0.972   1.780  12.770 -0.7634 -0.5871  0.0671
  670TIP3   OH223500   1.515   1.493   5.263 -0.2291  0.0746  0.0582
  670TIP3    H123501   1.599   1.539   5.265 -0.8229  1.1779  0.7658
  670TIP3    H223502   1.539   1.401   5.254  1.0158  0.4569 -0.8746
  671TIP3   OH223503   4.737   0.712  15.927 -0.0323  0.2618  0.4236
  671TIP3    H123504   4.809   0.725  15.865  0.2680 -0.4976  0.5944
  671TIP3    H223505   4.756   0.627  15.968 -1.2067 -0.1073  0.2371
  672TIP3   OH223506   5.970   4.523   5.039 -0.2686 -0.5475  0.2603
  672TIP3    H123507   5.885   4.560   5.061 -0.9758 -2.2018  0.4836
  672TIP3    H223508   6.014   4.511   5.123  1.4602  2.9550  0.0303
  673TIP3   OH223509   0.226   2.824   2.913  0.0083 -0.1969  0.3992
  673TIP3    H123510   0.236   2.772   2.992 -1.0906 -1.2624 -0.1340
  673TIP3    H223511   0.301   2.799   2.858  1.6214  1.6358  1.6246
  674TIP3   OH223512   4.185   1.983   1.643 -0.0905 -0.1399 -0.3186
  674TIP3    H123513   4.227   2.054   1.595  0.8492  0.0480  0.7382
  674TIP3    H223514   4.198   2.005   1.735 -2.3590 -0.1928  0.0695
  675TIP3   OH223515   5.344   3.669   3.120  0.0756  0.1448 -0.8121
  675TIP3    H123516   5.413   3.644   3.182  0.7375 -1.0133 -1.9728
  675TIP3    H223517   5.265   3.675   3.173  0.9400  0.9365  0.4542
  676TIP3   OH223518   4.363   2.891  10.929 -0.3665 -0.1416 -0.4378
  676TIP3    H123519   4.418   2.881  11.006 -0.4315 -2.7315 -0.6427
  676TIP3    H223520   4.425   2.902  10.857 -0.1937 -0.7742 -0.3880
  677TIP3   OH223521   6.167   4.008  16.373 -0.1593  0.2139  0.1491
  677TIP3    H123522   6.252   4.043  16.347  0.1605 -1.3555 -1.1214
  677TIP3    H223523   6.164   3.921  16.333 -1.8843 -0.2349  1.1470
  678TIP3   OH223524   0.372   1.096  14.315  0.3415  0.0110  0.3223
  678TIP3    H123525   0.370   1.191  14.304 -0.1759 -0.0430 -0.1251
  678TIP3    H223526   0.448   1.079  14.370  0.8409  0.6270 -0.1673
  679TIP3   OH223527   0.003   3.638   1.512 -0.2281 -0.0643 -0.8214
  679TIP3    H123528   0.070   3.679   1.567 -0.0632 -2.9053  1.3085
  679TIP3    H223529  -0.071   3.699   1.514  1.7346  2.5366 -2.1891
  680TIP3   OH223530   0.479   4.694  16.061 -0.5930 -0.0748  0.2356
  680TIP3    H123531   0.477   4.599  16.051  1.4425 -0.2323  0.8791
  680TIP3    H223532   0.476   4.728  15.971 -4.4567 -0.5338  0.0207
  681TIP3   OH223533   2.884   2.143  14.289 -0.4184 -0.2975  0.4489
  681TIP3    H123534   2.893   2.112  14.379 -1.1636  1.7915  1.2987
  681TIP3    H223535   2.946   2.216  14.283  0.9683 -1.5419 -1.3328
  682TIP3   OH223536   5.148   3.378  15.841 -1.0001 -0.7595  0.2944
  682TIP3    H123537   5.128   3.285  15.830 -1.7151 -0.9041  2.3646
  682TIP3    H223538   5.074   3.413  15.890  0.0089  0.5422  0.9453
  683TIP3   OH223539   5.055   4.196   3.081  0.1521  0.3562 -0.0537
  683TIP3    H123540   5.141   4.230   3.107 -0.8080  0.8971  2.7039
  683TIP3    H223541   5.050   4.111   3.124 -0.6991  0.3191 -0.2214
  684TIP3   OH223542   4.284   6.030   1.377  0.5372 -0.5412  0.2282
  684TIP3    H123543   4.245   6.022   1.464 -1.7100  2.3083 -0.3613
  684TIP3    H223544   4.211   6.017   1.317  1.2407  1.1663 -1.0801
  685TIP3   OH223545   1.742   0.307  14.301 -0.4645  0.3998  0.5940
  685TIP3    H123546   1.831   0.336  14.283 -0.0133  1.0884  3.4704
  685TIP3    H223547   1.742   0.214  14.281  1.2512  0.1556  1.5410
  686TIP3   OH223548   1.592   2.748   5.635  0.4527 -0.7332 -0.4321
  686TIP3    H123549   1.541   2.755   5.554 -0.2672 -1.0177 -0.0092
  686TIP3    H223550   1.659   2.816   5.627 -0.2530 -0.0692 -0.8063
  687TIP3   OH223551   2.181   1.198   5.912 -0.1369  0.7993 -1.0144
  687TIP3    H123552   2.215   1.109   5.918  0.3804  0.8063 -3.1810
  687TIP3    H223553   2.087   1.186   5.897 -0.4400  0.7015  0.7501
  688TIP3   OH223554   4.594   1.089   6.009  0.1324 -0.1236 -0.7171
  688TIP3    H123555   4.540   1.164   6.031 -2.3154 -1.7640 -0.7441
  688TIP3    H223556   4.679   1.108   6.049 -1.1383  1.5404  1.4181
  689TIP3   OH223557   0.318   0.034   2.897 -0.4530 -0.3372  0.2782
  689TIP3    H123558   0.277   0.089   2.963  0.1311  1.7161 -0.9707
  689TIP3    H223559   0.246   0.007   2.840 -0.5262  0.7277 -0.1610
  690TIP3   OH223560   3.593   2.426   5.081  0.4246 -0.3598  0.1807
  690TIP3    H123561   3.516   2.482   5.080  0.0722 -0.8319 -0.7314
  690TIP3    H223562   3.592   2.383   4.995  1.7681 -0.2885  0.1062
  691TIP3   OH223563   5.479   5.185  14.583 -0.4287 -0.1015 -0.3394
  691TIP3    H123564   5.446   5.224  14.502  0.0638 -0.2588 -0.6192
  691TIP3    H223565   5.554   5.133  14.556 -0.1109  0.0399  0.2511
  692TIP3   OH223566   2.385   5.257   0.115 -0.2012 -0.6458  0.1933
  692TIP3    H123567   2.366   5.312   0.039  1.1457  1.6675  1.4395
  692TIP3    H223568   2.338   5.297   0.187 -0.1798 -1.8724  0.9188
  693TIP3   OH223569   1.274   6.685   3.544  0.3940  0.0628 -0.5241
  693TIP3    H123570   1.350   6.734   3.576  1.8260 -2.2060 -0.2654
  693TIP3    H223571   1.205   6.751   3.539  1.9558  1.9308  0.6348
  694TIP3   OH223572   2.537   2.780  10.304  0.0148 -0.1513  0.1709
  694TIP3    H123573   2.561   2.693  10.272  2.1980  0.8020 -0.9427
  694TIP3    H223574   2.442   2.786  10.288 -0.5043 -2.8188  1.6308
  695TIP3   OH223575   2.549   5.096   1.253 -0.1736 -0.1461  0.4294
  695TIP3    H123576   2.624   5.041   1.273 -1.5284 -1.6578  1.5988
  695TIP3    H223577   2.502   5.105   1.336 -0.0898  2.7457  0.2814
  696TIP3   OH223578   5.849   5.913  14.963  0.3256 -0.1073 -0.1983
  696TIP3    H123579   5.894   5.893  15.045  1.4878  0.8450 -0.5905
  696TIP3    H223580   5.863   6.007  14.950 -0.7057 -0.0479 -0.9803
  697TIP3   OH223581   5.513   5.381   4.814 -0.4214 -1.1142 -0.1515
  697TIP3    H123582   5.599   5.342   4.803 -0.0657 -0.3074 -0.3022
  697TIP3    H223583   5.451   5.309   4.799  0.2345 -2.0118  1.2568
  698TIP3   OH223584   3.827   4.367   1.707 -0.3055  0.5726 -0.2329
  698TIP3    H123585   3.795   4.363   1.617 -1.4339  1.1129  0.1146
  698TIP3    H223586   3.893   4.436   1.706  1.7096 -1.2516 -1.1847
  699TIP3   OH223587   3.496   1.091  11.619  0.6986 -0.2443 -0.6739
  699TIP3    H123588   3.530   1.154  11.683  0.3824 -0.7249 -0.0118
  699TIP3    H223589   3.404   1.081  11.642  0.4091  0.0800 -1.6445
  700TIP3   OH223590   3.205   2.407   4.737 -0.3158  0.4050 -0.0754
  700TIP3    H123591   3.158   2.363   4.666  0.5711 -1.5788  0.4959
  700TIP3    H223592   3.288   2.434   4.697  1.3156 -2.9917  0.6786
  701TIP3   OH223593   1.238   1.491  13.658 -0.6014  0.2947  0.0994
  701TIP3    H123594   1.251   1.399  13.635  0.6734  0.2797  0.8167
  701TIP3    H223595   1.246   1.538  13.575 -0.0913 -0.1359 -0.0996
  702TIP3   OH223596   2.359   2.538  14.604 -0.1284  0.0544  0.1975
  702TIP3    H123597   2.377   2.545  14.510 -1.5120 -0.9035 -0.1699
  702TIP3    H223598   2.406   2.459  14.632  0.8806  0.7432  0.4828
  703TIP3   OH223599   3.937   2.233   4.072 -0.2383 -0.2073  0.2995
  703TIP3    H123600   3.872   2.293   4.035 -0.2044 -0.8714 -0.8941
  703TIP3    H223601   3.888   2.180   4.135 -0.4399  0.5370  0.7718
  704TIP3   OH223602   5.352   6.590   1.374 -0.7326 -0.7093 -0.4962
  704TIP3    H123603   5.417   6.657   1.352 -1.4445 -0.0271 -0.5615
  704TIP3    H223604   5.362   6.524   1.304 -0.5081 -0.3322 -0.8255
  705TIP3   OH223605   1.560   0.947  15.142 -0.1821 -0.6277  0.6507
  705TIP3    H123606   1.610   0.874  15.106  1.5580  0.6114  0.4079
  705TIP3    H223607   1.469   0.918  15.139  0.4876 -2.9648  1.0530
  706TIP3   OH223608   5.693   0.574  14.280 -0.4354 -0.2752 -0.3864
  706TIP3    H123609   5.704   0.669  14.272 -2.6987  0.1473  0.9222
  706TIP3    H223610   5.749   0.550  14.354 -0.2981  0.1027 -0.3632
  707TIP3   OH223611   4.054   5.663   4.840  0.0990 -0.2149 -0.4589
  707TIP3    H123612   4.056   5.736   4.901 -1.0500 -0.9784  0.5331
  707TIP3    H223613   3.995   5.599   4.880 -2.2222 -0.0062 -3.2195
  708TIP3   OH223614   2.424   6.064  15.113 -0.5482 -0.3996 -0.8139
  708TIP3    H123615   2.376   6.020  15.183 -0.5262  0.2186 -0.4028
  708TIP3    H223616   2.499   6.103  15.157  0.8783 -2.1189 -1.5825
  709TIP3   OH223617   1.552   4.803   1.299 -0.0653  0.0145 -0.2589
  709TIP3    H123618   1.464   4.804   1.261  0.1491  0.2010 -0.7528
  709TIP3    H223619   1.595   4.728   1.259 -0.2868 -0.6164  0.6542
  710TIP3   OH223620   0.198   5.427   4.077 -0.7660 -0.4299  0.7645
  710TIP3    H123621   0.191   5.334   4.053  1.2840 -0.8515  1.6323
  710TIP3    H223622   0.258   5.428   4.152 -0.8934  1.5900  0.8789
  711TIP3   OH223623   6.540   5.296   3.999  0.2104  0.1416  0.0386
  711TIP3    H123624   6.466   5.250   4.038 -2.0398  2.6687 -0.9472
  711TIP3    H223625   6.603   5.227   3.980 -2.4720 -2.3934 -0.4162
  712TIP3   OH223626   3.538   1.223  16.726  0.5540  0.1352  0.4947
  712TIP3    H123627   3.500   1.224  16.814  0.0272  1.5811  0.2789
  712TIP3    H223628   3.514   1.308  16.688  1.3912 -0.1638 -0.7858
  713TIP3   OH223629   6.559   6.505  16.111  0.3371 -1.0675  0.2069
  713TIP3    H123630   6.475   6.517  16.155  0.7406 -1.8612  1.2472
  713TIP3    H223631   6.538   6.500  16.018 -0.6038  0.1799  0.3304
  714TIP3   OH223632   1.098   6.809  12.645  0.2959 -0.3942 -0.1702
  714TIP3    H123633   1.178   6.858  12.667 -0.3688  0.6859 -0.0963
  714TIP3    H223634   1.065   6.778  12.729  0.2644 -0.2375 -0.1245
  715TIP3   OH223635   0.242   4.402   6.572 -0.0311 -0.2636 -0.4075
  715TIP3    H123636   0.157   4.391   6.614  1.2521  0.7625  2.7542
  715TIP3    H223637   0.276   4.484   6.607  3.3564 -1.9241  0.6533
  716TIP3   OH223638   4.889   1.156   0.590 -0.0001 -0.3690 -0.1750
  716TIP3    H123639   4.862   1.067   0.610  0.4805 -0.2350  1.1795
  716TIP3    H223640   4.974   1.148   0.548  0.8340 -0.5136  1.4454
  717TIP3   OH223641   3.090   3.481  15.381 -0.2805  0.2996 -0.1669
  717TIP3    H123642   3.182   3.496  15.404 -0.3380  3.9420 -1.5833
  717TIP3    H223643   3.088   3.392  15.347  2.8388  0.2900 -0.6335
  718TIP3   OH223644   1.306   5.920   0.907  0.8003  0.3467  0.5743
  718TIP3    H123645   1.347   5.901   0.991  1.0582  0.2823  0.4324
  718TIP3    H223646   1.300   6.016   0.905  0.0061  0.3234  1.0432
  719TIP3   OH223647   6.324   3.934  11.596 -0.4510  0.2743 -0.0847
  719TIP3    H123648   6.281   3.849  11.596  1.0517 -0.5111  0.1075
  719TIP3    H223649   6.366   3.940  11.682 -0.9181  1.4104  0.0766
  720TIP3   OH223650   2.217   2.593  11.197 -0.1800  0.0997  0.4200
  720TIP3    H123651   2.255   2.508  11.220 -3.0009 -1.0598  1.1780
  720TIP3    H223652   2.191   2.584  11.106  1.4458  0.9720 -0.1667
  721TIP3   OH223653   3.160   0.192   2.446 -0.3004 -0.0590  0.0250
  721TIP3    H123654   3.100   0.180   2.519  0.2150  1.5465  0.7572
  721TIP3    H223655   3.125   0.267   2.398  0.2283 -0.1225 -0.4736
  722TIP3   OH223656   3.111   4.702  16.667  0.4068  0.3086  0.0723
  722TIP3    H123657   3.098   4.649  16.588  1.8115 -2.4958  1.5798
  722TIP3    H223658   3.034   4.686  16.721  0.6005  0.2163  0.3237
  723TIP3   OH223659   1.847   0.474   3.023  0.0089  0.5849  0.2232
  723TIP3    H123660   1.783   0.417   2.980  1.2333 -1.7153  1.2646
  723TIP3    H223661   1.839   0.454   3.116  2.2804  0.1084  0.3788
  724TIP3   OH223662   6.315   4.912  13.400 -0.1583 -0.4455 -0.0815
  724TIP3    H123663   6.312   5.008  13.394 -0.5427 -0.5000 -0.8027
  724TIP3    H223664   6.224   4.885  13.403 -0.0781 -0.8448 -0.9081
  725TIP3   OH223665   2.318   0.743   0.789 -0.1397  0.1687 -0.0928
  725TIP3    H123666   2.358   0.818   0.743 -0.7886  0.7423  0.2538
  725TIP3    H223667   2.304   0.678   0.720  1.0476  0.0875 -0.2861
  726TIP3   OH223668   3.603   5.622   5.052  0.0540 -0.0857 -0.2981
  726TIP3    H123669   3.628   5.702   5.006  2.1415 -0.5470 -0.0673
  726TIP3    H223670   3.544   5.651   5.122  1.0955  1.3123  0.0441
  727TIP3   OH223671   3.327   4.249   5.575  0.0184 -0.2546 -0.2598
  727TIP3    H123672   3.372   4.170   5.605  1.5457  1.2959  1.8359
  727TIP3    H223673   3.308   4.298   5.655 -1.9911  0.9788 -1.3908
  728TIP3   OH223674   3.118   5.161  11.157 -0.1447  0.3338  0.4608
  728TIP3    H123675   3.184   5.105  11.115 -1.1485 -1.3131  0.9936
  728TIP3    H223676   3.166   5.208  11.225  0.5568 -0.5551  0.5958
  729TIP3   OH223677   3.269   6.222  12.083  0.2058 -0.5650  0.0526
  729TIP3    H123678   3.327   6.193  12.154 -1.9311 -1.1719  1.6391
  729TIP3    H223679   3.309   6.303  12.051  1.7329 -0.7724  1.2918
  730TIP3   OH223680   0.500   0.846  16.589 -0.1941 -0.3426  0.3411
  730TIP3    H123681   0.551   0.898  16.651  0.4191  0.3753 -0.7453
  730TIP3    H223682   0.409   0.865  16.611  0.0244  0.9988  0.1347
  731TIP3   OH223683   3.408   2.747  14.727 -0.3722 -0.8042 -0.0193
  731TIP3    H123684   3.490   2.716  14.688  0.5613  0.7158  0.6456
  731TIP3    H223685   3.432   2.776  14.815 -1.4491  0.4513 -0.1012
  732TIP3   OH223686   2.913   6.558   4.421 -0.4051  0.3688  0.1147
  732TIP3    H123687   2.953   6.490   4.367  0.8032  1.6009 -0.6241
  732TIP3    H223688   2.974   6.570   4.494 -1.5525 -0.6201  1.2814
  733TIP3   OH223689   1.820   2.376  10.429 -0.4670 -0.2550 -0.0124
  733TIP3    H123690   1.735   2.419  10.439 -0.5764 -0.3548 -0.5168
  733TIP3    H223691   1.810   2.293  10.476 -0.7458 -0.3957 -0.3136
  734TIP3   OH223692   0.906   5.274   2.375  0.0155  0.6276  0.2488
  734TIP3    H123693   0.881   5.274   2.468 -0.0801 -1.1626  0.2614
  734TIP3    H223694   0.876   5.189   2.342  2.0498  0.2615 -0.8536
  735TIP3   OH223695   5.031   3.234  14.680  0.2590  0.0650 -0.2730
  735TIP3    H123696   5.023   3.172  14.608 -0.9108 -1.0300  0.7525
  735TIP3    H223697   4.955   3.292  14.671  0.7679  0.6824 -0.6143
  736TIP3   OH223698   0.813   3.875   6.036  0.5775  0.5062  0.2537
  736TIP3    H123699   0.728   3.835   6.053  1.0309 -0.5645  0.0875
  736TIP3    H223700   0.876   3.810   6.067  1.5089 -1.2050 -4.4687
  737TIP3   OH223701   5.974   4.089  11.566  0.4255  0.2497  0.1692
  737TIP3    H123702   5.970   4.161  11.502  1.1145 -0.4094 -0.6396
  737TIP3    H223703   5.970   4.133  11.651 -2.4116  1.0474 -0.2726
  738TIP3   OH223704   1.501   3.023   3.886  0.1517  0.2962  0.1259
  738TIP3    H123705   1.457   3.025   3.972 -0.4352  0.6022 -0.1722
  738TIP3    H223706   1.526   2.932   3.874 -0.0924  0.1809  0.4610
  739TIP3   OH223707   6.076   3.678   4.634  0.3713 -0.1807  0.1013
  739TIP3    H123708   6.148   3.710   4.690 -0.9438 -0.7505  2.2469
  739TIP3    H223709   6.008   3.744   4.643 -0.0642 -0.5581 -0.4097
  740TIP3   OH223710   1.054   4.212  13.236  0.4344 -0.4368 -0.2340
  740TIP3    H123711   0.990   4.278  13.213  0.7970 -0.1185 -0.3375
  740TIP3    H223712   1.006   4.129  13.232 -0.3380 -0.0748  1.1163
  741TIP3   OH223713   4.548   3.941   4.022 -0.3477 -0.4045 -1.0372
  741TIP3    H123714   4.468   3.963   4.070 -0.1716  0.6885 -1.2073
  741TIP3    H223715   4.550   4.003   3.949  1.3462  0.5694 -0.2502
  742TIP3   OH223716   0.792   0.123   6.863  0.4537  0.0860 -0.0761
  742TIP3    H123717   0.734   0.199   6.862  1.4933  0.8878 -0.6406
  742TIP3    H223718   0.762   0.070   6.789 -0.0530  0.1110  0.1084
  743TIP3   OH223719   3.239   5.373  11.658  0.1671 -0.5570 -0.0299
  743TIP3    H123720   3.203   5.462  11.661 -0.3151 -0.7666  0.5501
  743TIP3    H223721   3.168   5.320  11.624  0.2470 -0.8213  0.2110
  744TIP3   OH223722   4.547   2.743  14.528 -0.2860  0.3614  0.6894
  744TIP3    H123723   4.471   2.800  14.515  0.3336  1.1279  0.3149
  744TIP3    H223724   4.540   2.715  14.620 -2.0699 -1.1851  0.1286
  745TIP3   OH223725   0.323   1.705  15.205 -0.3855  0.5958 -0.1810
  745TIP3    H123726   0.228   1.699  15.210 -0.2211 -2.5081  1.3626
  745TIP3    H223727   0.344   1.684  15.114 -1.1163 -1.7448  0.1366
  746TIP3   OH223728   0.341   6.765   3.557 -0.3669  0.3856 -0.4828
  746TIP3    H123729   0.417   6.802   3.601 -1.1805  0.3539  1.0033
  746TIP3    H223730   0.284   6.840   3.539 -0.4485  0.2790 -0.6768
  747TIP3   OH223731   0.077   3.223   2.679  0.1050  0.1875 -0.1575
  747TIP3    H123732   0.081   3.318   2.672 -0.7107  0.2428  0.0527
  747TIP3    H223733   0.054   3.193   2.591  0.5867  0.1655 -0.2785
  748TIP3   OH223734   5.359   3.775  17.203  0.2834 -0.8364  0.2602
  748TIP3    H123735   5.394   3.797  17.117 -0.2476 -2.0460 -0.2955
  748TIP3    H223736   5.432   3.790  17.264  0.3156  1.1722 -0.2029
  749TIP3   OH223737   2.486   3.027  16.728  0.3600  0.3903  0.0207
  749TIP3    H123738   2.464   3.080  16.805  2.4578 -0.0995  1.0275
  749TIP3    H223739   2.504   3.091  16.659  1.2857  0.9853  0.7828
  750TIP3   OH223740   5.137   2.791   4.089 -0.3911 -0.5071  0.3970
  750TIP3    H123741   5.185   2.873   4.076 -0.9856 -0.2107  0.0529
  750TIP3    H223742   5.199   2.735   4.136  0.9121 -0.7256 -1.4830
  751TIP3   OH223743   3.586   2.245  14.363  0.4604 -0.1645  0.0494
  751TIP3    H123744   3.546   2.285  14.440 -0.9700 -1.4146  0.0085
  751TIP3    H223745   3.627   2.165  14.396  0.5435 -0.2887 -0.3546
  752TIP3   OH223746   3.577   5.841   5.505 -0.4454  0.2044  0.1124
  752TIP3    H123747   3.576   5.847   5.410 -1.7143 -0.9205  0.0309
  752TIP3    H223748   3.634   5.913   5.533  1.3962 -0.5159 -1.5549
  753TIP3   OH223749   0.742   4.710   3.118  0.0610 -0.4884 -0.4748
  753TIP3    H123750   0.658   4.738   3.083  0.8076 -0.3734 -2.2792
  753TIP3    H223751   0.727   4.620   3.148 -0.6334 -0.5870 -1.0872
  754TIP3   OH223752   0.983   1.022   0.429 -0.3740  0.3968 -0.2079
  754TIP3    H123753   0.989   0.939   0.382 -1.1685  1.4602 -2.3199
  754TIP3    H223754   0.918   1.006   0.498  0.2610 -1.0014  0.0911
  755TIP3   OH223755   0.959   5.201   5.793 -0.0197 -0.6253  0.5083
  755TIP3    H123756   0.939   5.125   5.847 -1.5074 -1.8245 -1.6167
  755TIP3    H223757   0.906   5.271   5.831 -0.9404 -1.4035  0.6931
  756TIP3   OH223758   3.976   3.420   2.722 -0.1387 -0.4052 -0.3842
  756TIP3    H123759   3.945   3.335   2.752 -1.4830 -0.3804 -1.5958
  756TIP3    H223760   3.984   3.411   2.627  1.8997  0.1650 -0.3157
  757TIP3   OH223761   5.872   1.786  11.953 -0.2871  0.2992  0.0616
  757TIP3    H123762   5.918   1.829  11.881 -0.0254  0.8418  0.5511
  757TIP3    H223763   5.784   1.770  11.919 -0.2935  0.9388 -0.2302
  758TIP3   OH223764   5.827   1.113   3.318 -0.0468  0.6350 -0.2555
  758TIP3    H123765   5.752   1.071   3.361 -0.9866  0.3830 -2.0415
  758TIP3    H223766   5.806   1.206   3.319 -0.7107  0.5156 -1.2699
  759TIP3   OH223767   0.502   2.173   1.060 -0.3343 -0.2302 -0.6055
  759TIP3    H123768   0.552   2.254   1.053  0.3045 -0.5477  0.1506
  759TIP3    H223769   0.497   2.156   1.154 -0.6533 -0.9541 -0.7455
  760TIP3   OH223770   6.331   4.450  16.704  0.0510  0.2692 -0.3857
  760TIP3    H123771   6.408   4.499  16.734  0.1777 -0.2071  0.0695
  760TIP3    H223772   6.367   4.381  16.648  0.0467 -0.5389  0.5789
  761TIP3   OH223773   6.050   3.309   3.992  0.5081 -0.0125 -0.4728
  761TIP3    H123774   6.080   3.290   4.081  1.1886 -1.5326 -0.9970
  761TIP3    H223775   5.959   3.338   4.003  0.1855 -1.3450  0.6346
  762TIP3   OH223776   0.888   6.256  15.337 -0.2995  0.2917  0.1156
  762TIP3    H123777   0.877   6.186  15.402  0.7500 -2.2355 -2.2437
  762TIP3    H223778   0.819   6.241  15.273 -0.6172  2.0443 -0.0024
  763TIP3   OH223779   1.313   1.628   0.187  0.1226 -0.1819 -0.1839
  763TIP3    H123780   1.283   1.656   0.100  1.6107 -0.1879 -0.7425
  763TIP3    H223781   1.395   1.677   0.200  0.3217 -0.7808  0.8679
  764TIP3   OH223782   4.103   4.350   6.346  0.3077 -0.0018  0.1630
  764TIP3    H123783   4.021   4.303   6.333  0.0905  0.6179 -0.8405
  764TIP3    H223784   4.079   4.443   6.343  0.9738  0.1847  0.3477
  765TIP3   OH223785   1.500   1.358   2.064 -0.0996 -0.1074  0.2165
  765TIP3    H123786   1.524   1.336   1.974 -0.6262  1.7931 -0.4425
  765TIP3    H223787   1.492   1.274   2.109  0.8638 -1.0596 -1.3228
  766TIP3   OH223788   0.510   0.859  15.863 -0.2636  0.2923  0.5979
  766TIP3    H123789   0.432   0.851  15.918 -2.3063  1.3558 -1.8929
  766TIP3    H223790   0.501   0.789  15.799 -0.6675  1.9486 -1.2852
  767TIP3   OH223791   5.090   4.393   1.019  0.2135  0.1295  0.2363
  767TIP3    H123792   5.072   4.464   0.958  1.8383  1.4311  1.1811
  767TIP3    H223793   5.183   4.372   1.005  0.3279 -0.3088  1.4739
  768TIP3   OH223794   5.253   5.159  16.785 -0.0489 -0.3322  0.6997
  768TIP3    H123795   5.194   5.233  16.786  0.1380 -0.1820  0.7024
  768TIP3    H223796   5.197   5.083  16.773 -0.2435 -0.1934  0.7365
  769TIP3   OH223797   5.699   0.232   0.815  0.6881  0.5301 -0.3569
  769TIP3    H123798   5.737   0.319   0.799  0.0975  0.8208 -0.2172
  769TIP3    H223799   5.691   0.227   0.910 -0.8175  1.0064 -0.4365
  770TIP3   OH223800   0.937   0.844   2.417  0.5412  0.0974  0.6393
  770TIP3    H123801   1.016   0.789   2.419  0.1015 -0.6850 -1.2531
  770TIP3    H223802   0.871   0.791   2.463  0.0312 -1.2164 -1.4543
  771TIP3   OH223803   3.792   2.970  15.090  0.0552  0.1522  0.1015
  771TIP3    H123804   3.727   2.899  15.083  1.4688 -1.1157 -0.7186
  771TIP3    H223805   3.757   3.027  15.158 -2.0782 -0.3072 -0.5221
  772TIP3   OH223806   2.693   1.662  13.258 -0.0995 -0.6098  0.2863
  772TIP3    H123807   2.700   1.639  13.166  1.9852 -1.5152  0.6064
  772TIP3    H223808   2.691   1.578  13.304 -0.0439 -0.1694  1.1157
  773TIP3   OH223809   0.061   3.263  16.633  0.0882  0.1146  0.5739
  773TIP3    H123810   0.008   3.324  16.685  0.9398  0.2435  1.3202
  773TIP3    H223811   0.051   3.293  16.543 -0.2501  0.7976  0.8322
  774TIP3   OH223812   4.182   1.805  12.882  0.5227  0.1707 -0.2915
  774TIP3    H123813   4.230   1.860  12.821  1.9450  0.5606  1.1085
  774TIP3    H223814   4.187   1.717  12.844  2.5417  0.1655 -0.1242
  775TIP3   OH223815   4.050   4.427  11.302  0.2036 -0.4517 -0.2857
  775TIP3    H123816   4.114   4.360  11.326 -0.6485 -2.0346 -2.0953
  775TIP3    H223817   4.092   4.476  11.231  0.1202 -0.2859 -0.2212
  776TIP3   OH223818   0.134   4.293  12.041 -0.1110 -0.0274 -0.4095
  776TIP3    H123819   0.052   4.330  12.009 -0.3847 -0.2218  0.0500
  776TIP3    H223820   0.107   4.222  12.099  0.3955 -0.4588 -0.7002
  777TIP3   OH223821   1.851   0.421  15.597 -0.2432  0.4392  0.2023
  777TIP3    H123822   1.824   0.422  15.688 -0.4715  1.5303  0.1312
  777TIP3    H223823   1.909   0.497  15.587  1.3123 -0.7330 -0.1166
  778TIP3   OH223824   6.612   4.558  13.069 -0.2443 -0.2889 -0.0568
  778TIP3    H123825   6.692   4.517  13.036 -0.5057 -0.8004 -0.0618
  778TIP3    H223826   6.640   4.645  13.097  0.3457 -0.5172  0.0866
  779TIP3   OH223827   2.358   6.818  15.107 -0.1063 -0.0219 -0.2231
  779TIP3    H123828   2.429   6.868  15.066  2.1824 -1.6113  1.5624
  779TIP3    H223829   2.327   6.759  15.037 -0.0244  1.0174 -1.1625
  780TIP3   OH223830   4.364   4.784  17.024  0.0503 -0.8301  0.2772
  780TIP3    H123831   4.315   4.861  16.995  0.0719 -0.5031  1.0757
  780TIP3    H223832   4.332   4.713  16.968  0.5714 -0.1101 -0.9807
  781TIP3   OH223833   0.321   2.092   3.073  0.3514 -0.2083 -0.0404
  781TIP3    H123834   0.401   2.040   3.077  0.0838 -0.5897  0.3430
  781TIP3    H223835   0.253   2.030   3.049 -0.0147 -0.0945  0.6926
  782TIP3   OH223836   0.065   3.979   0.504 -0.1508  0.3820  0.6970
  782TIP3    H123837   0.006   4.045   0.467 -0.3795  0.2148  0.7594
  782TIP3    H223838   0.112   4.024   0.573  0.8381  0.9193 -0.2876
  783TIP3   OH223839   4.779   3.331  16.047 -0.1818  0.0872 -0.3783
  783TIP3    H123840   4.858   3.382  16.027 -0.3138  0.0216 -1.1096
  783TIP3    H223841   4.707   3.391  16.032 -0.2644  0.3351  0.8913
  784TIP3   OH223842   0.398   0.516   4.909  0.3920 -0.0636 -0.4766
  784TIP3    H123843   0.364   0.527   4.821  0.3777  0.6946 -0.3834
  784TIP3    H223844   0.493   0.521   4.899  0.4182 -0.5409 -0.5163
  785TIP3   OH223845   6.214   4.831   6.713 -0.4609  0.2365 -0.0184
  785TIP3    H123846   6.191   4.882   6.790  0.1292  1.3907 -0.5864
  785TIP3    H223847   6.310   4.837   6.708 -0.4097 -0.6515 -0.2885
  786TIP3   OH223848   1.449   5.695   2.714 -0.2983  0.3949  1.0041
  786TIP3    H123849   1.477   5.782   2.685 -0.6585  0.7170  1.6018
  786TIP3    H223850   1.439   5.645   2.634 -1.0960  1.2096  0.5818
  787TIP3   OH223851   3.153   2.021   1.268  0.0302 -0.5871  0.1045
  787TIP3    H123852   3.109   2.082   1.208 -0.1426  0.0704  0.8764
  787TIP3    H223853   3.091   2.011   1.341  0.5555 -0.7745  0.5280
  788TIP3   OH223854   5.681   2.698   0.299 -0.4477  0.9788  0.0226
  788TIP3    H123855   5.772   2.725   0.289 -0.6888  1.8106  0.0500
  788TIP3    H223856   5.664   2.705   0.392 -0.3256  0.0962  0.1212
  789TIP3   OH223857   5.281   2.917  12.208 -0.0016  0.2920 -0.3233
  789TIP3    H123858   5.226   2.984  12.168 -0.8486 -0.4885 -0.5215
  789TIP3    H223859   5.252   2.835  12.167  0.7228 -0.2406  0.2051
  790TIP3   OH223860   4.081   6.375   3.781  0.5919  0.0858 -0.5065
  790TIP3    H123861   3.991   6.400   3.803 -0.1853 -2.7030 -0.0844
  790TIP3    H223862   4.079   6.361   3.686  0.1612 -1.2790 -0.3202
  791TIP3   OH223863   3.291   6.094   2.891 -0.5054  0.4353 -0.1513
  791TIP3    H123864   3.310   6.014   2.939  0.4573  0.9089  0.2854
  791TIP3    H223865   3.268   6.065   2.803  2.0932 -0.2410 -0.6882
  792TIP3   OH223866   4.527   2.784  13.904 -0.2827 -0.0634 -0.1038
  792TIP3    H123867   4.615   2.788  13.942 -0.1420  1.6477 -0.5333
  792TIP3    H223868   4.525   2.701  13.856  1.1361 -0.0626 -0.1966
  793TIP3   OH223869   3.280   6.728  16.681  0.2237 -0.0007  0.2083
  793TIP3    H123870   3.344   6.769  16.739  0.8727  0.8701 -1.0748
  793TIP3    H223871   3.271   6.789  16.608 -2.0267 -0.1455  0.2992
  794TIP3   OH223872   2.690   1.910   4.319  0.1101 -0.4666 -0.1210
  794TIP3    H123873   2.596   1.905   4.338  0.2747 -1.7752  0.4513
  794TIP3    H223874   2.700   1.868   4.234  0.2035 -0.4432 -0.1217
  795TIP3   OH223875   2.708   5.812   3.019  0.0273  0.5388  0.2836
  795TIP3    H123876   2.630   5.818   3.075 -0.4481  1.6288 -0.4641
  795TIP3    H223877   2.710   5.721   2.991 -0.6261  0.3493  0.8201
  796TIP3   OH223878   0.448   4.280   5.235  0.3679  0.4468  0.0988
  796TIP3    H123879   0.490   4.360   5.265  0.0328  0.3270  0.8989
  796TIP3    H223880   0.517   4.214   5.238  0.3156  0.4138  0.7156
  797TIP3   OH223881   5.558   5.424   4.203 -0.2591  0.3843  0.3949
  797TIP3    H123882   5.534   5.380   4.284  0.5571 -1.5518 -0.3475
  797TIP3    H223883   5.642   5.466   4.223  0.3723 -0.7927  0.3809
  798TIP3   OH223884   4.826   5.492   0.665 -0.1195 -0.8969  0.2460
  798TIP3    H123885   4.841   5.488   0.759  1.9642 -0.0733  0.0161
  798TIP3    H223886   4.891   5.432   0.627 -1.0829 -1.4051 -0.6817
  799TIP3   OH223887   2.226   2.107  10.549 -1.2541  0.0964 -0.3198
  799TIP3    H123888   2.305   2.156  10.570 -1.4465  0.2651  0.0177
  799TIP3    H223889   2.155   2.159  10.586 -1.5152 -0.1058 -0.5341
  800TIP3   OH223890   1.343   5.471   0.102 -0.0942  0.1558  0.4359
  800TIP3    H123891   1.266   5.452   0.156 -0.2319  0.3315  0.3000
  800TIP3    H223892   1.417   5.442   0.156 -0.3728 -2.6684 -0.5493
  801TIP3   OH223893   2.378   0.238  15.854 -0.2472 -0.6982  0.4719
  801TIP3    H123894   2.407   0.329  15.856 -0.1577 -0.7340  1.4944
  801TIP3    H223895   2.393   0.209  15.764  0.7715 -0.0400  0.4222
  802TIP3   OH223896   6.215   4.982   5.986  0.2094  0.2290 -0.0886
  802TIP3    H123897   6.143   5.043   5.973  1.5564  1.7526 -0.8344
  802TIP3    H223898   6.234   4.948   5.899 -0.1663 -0.8426  0.2408
  803TIP3   OH223899   4.882   1.663  14.984 -0.7606  0.4300 -0.5538
  803TIP3    H123900   4.833   1.586  15.012  0.9094 -0.1842  0.9414
  803TIP3    H223901   4.886   1.719  15.061 -0.3530  1.1315 -1.0640
  804TIP3   OH223902   5.534   2.442   3.025  0.0176 -0.7525  0.1599
  804TIP3    H123903   5.623   2.407   3.025 -0.4289 -1.9498  0.6185
  804TIP3    H223904   5.527   2.491   3.106  0.3953 -0.2571 -0.1002
  805TIP3   OH223905   0.827   1.352   2.986  0.0835 -0.0665  0.2869
  805TIP3    H123906   0.843   1.364   2.893 -0.0158  1.0279  0.3998
  805TIP3    H223907   0.734   1.330   2.992  0.6947 -3.2482 -0.0976
  806TIP3   OH223908   5.622   4.834   6.190  0.1273 -0.1353 -0.1162
  806TIP3    H123909   5.710   4.862   6.166 -0.0901 -1.6790 -3.0652
  806TIP3    H223910   5.566   4.910   6.170  0.6499  0.7055  1.3988
  807TIP3   OH223911   0.872   5.716  12.093 -0.0260 -0.1610  0.2455
  807TIP3    H123912   0.963   5.695  12.116  0.3670 -0.4307 -1.4369
  807TIP3    H223913   0.865   5.810  12.108  0.3724 -0.2315  0.9137
  808TIP3   OH223914   1.842   1.771  12.354 -0.4569 -0.4839 -0.4760
  808TIP3    H123915   1.750   1.747  12.339 -1.5347 -0.8776  4.7087
  808TIP3    H223916   1.840   1.820  12.436  3.9393  0.4502 -0.6910
  809TIP3   OH223917   1.813   5.922   0.442 -0.1950  0.4082 -0.2320
  809TIP3    H123918   1.890   5.978   0.430  0.7905 -0.7597  0.4732
  809TIP3    H223919   1.848   5.833   0.443 -1.7374 -0.2521 -1.3515
  810TIP3   OH223920   4.578   3.422   6.539 -0.2677 -0.0482  0.6162
  810TIP3    H123921   4.649   3.367   6.506 -0.5558 -0.6871  1.0426
  810TIP3    H223922   4.595   3.509   6.502  0.4793 -0.3037  0.3520
  811TIP3   OH223923   6.602   2.235  16.343  0.5168  0.6943  0.2939
  811TIP3    H123924   6.517   2.212  16.380  0.2796  0.8418 -0.1521
  811TIP3    H223925   6.666   2.191  16.400  0.1485  0.6912  0.7040
  812TIP3   OH223926   3.412   5.267  16.830 -0.0017  0.1795  0.5193
  812TIP3    H123927   3.351   5.214  16.881  0.1209 -0.5520 -0.0843
  812TIP3    H223928   3.356   5.323  16.776 -0.1550 -0.8752 -0.4338
  813TIP3   OH223929   5.728   5.459  11.892  0.6028 -0.1295 -0.9775
  813TIP3    H123930   5.686   5.538  11.857  0.1597  0.2291  0.2900
  813TIP3    H223931   5.779   5.491  11.967  1.0955 -0.9344 -0.9629
  814TIP3   OH223932   2.574   0.209  16.765 -0.2357  0.2200  0.3271
  814TIP3    H123933   2.560   0.274  16.834  0.7354 -0.1005  0.8366
  814TIP3    H223934   2.651   0.241  16.718 -0.4807  0.0699 -0.1785
  815TIP3   OH223935   0.309   6.534   0.085 -0.2225  0.2178  0.2506
  815TIP3    H123936   0.388   6.524   0.032  0.7302  1.9745  1.2590
  815TIP3    H223937   0.250   6.586   0.029  0.4682  1.3615  0.5399
  816TIP3   OH223938   4.303   2.733  14.197 -0.0890  0.5380  0.2671
  816TIP3    H123939   4.376   2.783  14.233 -0.4622  1.6465 -0.4799
  816TIP3    H223940   4.339   2.688  14.121  0.3889 -0.8255  1.2585
  817TIP3   OH223941   5.255   0.935  14.557 -0.0875  0.3594 -0.2055
  817TIP3    H123942   5.159   0.939  14.561 -0.0778 -0.1489  0.7719
  817TIP3    H223943   5.277   0.850  14.594  0.7436  0.4747 -0.4297
  818TIP3   OH223944   2.946   1.193   1.260 -0.2197  0.2306 -0.4448
  818TIP3    H123945   3.006   1.236   1.321 -1.7394 -0.8476  1.9741
  818TIP3    H223946   2.996   1.117   1.228  0.4685  0.5680 -0.1887
  819TIP3   OH223947   3.103   1.455  17.068 -0.4814  0.5316  0.1636
  819TIP3    H123948   3.195   1.478  17.052 -0.2435 -1.0217 -0.8586
  819TIP3    H223949   3.060   1.539  17.085  1.1254  1.2788  0.7453
  820TIP3   OH223950   4.742   3.962   2.059  0.1562 -0.4935  0.2645
  820TIP3    H123951   4.722   3.975   1.967 -0.0654 -1.6089  0.1378
  820TIP3    H223952   4.659   3.935   2.098  0.6600 -1.9307  0.3946
  821TIP3   OH223953   3.746   2.838  14.122  0.8887  0.5116  0.1829
  821TIP3    H123954   3.718   2.844  14.213  0.9532 -2.2195  0.4630
  821TIP3    H223955   3.839   2.860  14.124  0.1697  4.0635  0.1146
  822TIP3   OH223956   2.397   3.950  10.751 -0.4594  0.6130 -0.2752
  822TIP3    H123957   2.369   4.035  10.785 -1.0565  0.7137 -0.9878
  822TIP3    H223958   2.488   3.964  10.725 -0.3279  0.8262  0.2805
  823TIP3   OH223959   2.504   0.501  15.896  0.1526 -0.2862  0.1378
  823TIP3    H123960   2.514   0.577  15.954  2.2628 -0.1257 -0.3500
  823TIP3    H223961   2.565   0.436  15.932 -0.2150 -1.0401 -0.5745
  824TIP3   OH223962   6.529   3.289   3.551  0.1527 -0.0827  0.3883
  824TIP3    H123963   6.519   3.268   3.458 -1.9580 -0.4966  0.6599
  824TIP3    H223964   6.514   3.205   3.595  1.0058  0.1428  1.1273
  825TIP3   OH223965   1.536   2.359  13.944 -0.7550  0.0005  0.2872
  825TIP3    H123966   1.464   2.337  14.004  0.1086 -0.7160  1.1014
  825TIP3    H223967   1.493   2.391  13.865 -2.0998 -3.1427 -0.3901
  826TIP3   OH223968   0.809   2.263   1.155  0.2875  0.1545  0.0082
  826TIP3    H123969   0.904   2.258   1.159  0.3716  0.8072 -0.8984
  826TIP3    H223970   0.781   2.173   1.141  0.7544 -0.0690  0.4762
  827TIP3   OH223971   6.357   0.718   4.999 -0.1078  0.2255  0.0547
  827TIP3    H123972   6.325   0.759   5.079  1.1105  1.9861 -0.2958
  827TIP3    H223973   6.279   0.681   4.958 -0.7618 -0.6497  1.9785
  828TIP3   OH223974   1.695   6.538  13.730  0.2595  0.1377 -0.4218
  828TIP3    H123975   1.693   6.485  13.651 -0.4146  0.9336 -0.9591
  828TIP3    H223976   1.784   6.575  13.733  1.7006 -3.0621  1.4111
  829TIP3   OH223977   3.418   4.216   2.253 -0.3662  0.0881 -0.3564
  829TIP3    H123978   3.434   4.212   2.347  1.5897  0.2263 -0.6438
  829TIP3    H223979   3.378   4.302   2.239 -0.3434  0.2086  0.3024
  830TIP3   OH223980   4.500   4.104  13.750  0.1142 -0.4125  0.2252
  830TIP3    H123981   4.491   4.192  13.713  1.8245 -0.6311 -0.8214
  830TIP3    H223982   4.439   4.050  13.699  1.3439 -0.4090 -1.3331
  831TIP3   OH223983   4.634   1.168   5.254 -0.6630 -0.0345 -0.4700
  831TIP3    H123984   4.669   1.184   5.167  3.2822 -2.9968  0.2696
  831TIP3    H223985   4.603   1.077   5.251 -0.0805 -0.3326  1.2441
  832TIP3   OH223986   0.377   5.004   6.131 -1.1631  0.2485  0.3256
  832TIP3    H123987   0.470   4.978   6.129 -1.3005 -0.4694  1.7667
  832TIP3    H223988   0.379   5.100   6.131 -0.3508  0.2551  1.4909
  833TIP3   OH223989   4.855   3.067  16.076  0.3928 -0.2497  0.0092
  833TIP3    H123990   4.828   3.155  16.050  2.3993 -0.3556 -2.9976
  833TIP3    H223991   4.909   3.080  16.154  0.3920  1.1502 -0.2049
  834TIP3   OH223992   0.429   3.342   1.647 -0.0367 -0.3998  0.1705
  834TIP3    H123993   0.334   3.347   1.637  0.0666  1.0131 -0.3269
  834TIP3    H223994   0.461   3.425   1.612  1.4056 -0.9536  0.1172
  835TIP3   OH223995   1.961   6.076  17.099  0.3795  0.2578  0.2635
  835TIP3    H123996   1.990   6.134  17.169 -1.2215 -0.8876  1.9598
  835TIP3    H223997   1.963   5.989  17.138 -0.4202 -0.4317 -1.1611
  836TIP3   OH223998   2.128   3.809  10.727  0.3250  0.0290  0.2313
  836TIP3    H123999   2.055   3.865  10.702 -0.0932  1.6637  4.4195
  836TIP3    H224000   2.205   3.863  10.714  0.3732 -0.0981 -0.0186
  837TIP3   OH224001   4.758   3.847  14.982 -0.3438  0.0080  0.3803
  837TIP3    H124002   4.847   3.811  14.979 -1.0241 -1.7844  0.6803
  837TIP3    H224003   4.751   3.898  14.901  2.3734  3.9535  2.2892
  838TIP3   OH224004   3.945   1.289   2.622  0.9115  0.0419  0.0115
  838TIP3    H124005   3.997   1.295   2.702 -0.9740  1.1756  1.2453
  838TIP3    H224006   3.871   1.347   2.638 -0.7499 -1.5001 -1.6272
  839TIP3   OH224007   0.585   3.768   4.024  0.4792 -0.0486 -0.1597
  839TIP3    H124008   0.506   3.817   3.999  0.5576 -0.1833 -0.6879
  839TIP3    H224009   0.588   3.695   3.962 -0.3173 -1.4499  1.3790
  840TIP3   OH224010   6.339   6.547  16.276  0.4686 -0.1486  0.4236
  840TIP3    H124011   6.309   6.501  16.355  0.0359 -0.5913  0.0031
  840TIP3    H224012   6.261   6.552  16.220  0.5373  0.9931  0.4109
  841TIP3   OH224013   5.561   0.162   6.444 -0.5508 -0.2467 -0.3167
  841TIP3    H124014   5.471   0.136   6.422 -0.3867 -2.1095  0.9847
  841TIP3    H224015   5.557   0.190   6.535  0.1708 -0.1443 -0.3082
  842TIP3   OH224016   4.931   1.197  14.041 -0.0630  0.2716  0.1544
  842TIP3    H124017   4.952   1.249  13.963 -3.4363 -0.5314 -1.4872
  842TIP3    H224018   4.885   1.258  14.098  1.6192  0.6259  1.1864
  843TIP3   OH224019   5.171   0.041  14.233  0.5646 -0.4170  0.1966
  843TIP3    H124020   5.154   0.015  14.324 -0.9806  0.7376  0.2853
  843TIP3    H224021   5.257   0.082  14.235  1.0813 -1.4850  0.8832
  844TIP3   OH224022   3.213   2.311  11.276  0.1419 -0.4290 -0.2196
  844TIP3    H124023   3.248   2.256  11.206 -0.3830 -3.0703  1.4411
  844TIP3    H224024   3.196   2.250  11.348 -1.4174  1.7992  1.4451
  845TIP3   OH224025   5.693   5.966  13.086 -0.0671  0.2015  0.4208
  845TIP3    H124026   5.640   5.900  13.131  0.0678 -0.8515 -0.8954
  845TIP3    H224027   5.741   6.010  13.156  0.2278 -1.4525  1.3066
  846TIP3   OH224028   1.487   2.090  14.547  0.0998  0.2003 -0.5535
  846TIP3    H124029   1.545   2.072  14.621 -0.8293 -0.5138  0.0371
  846TIP3    H224030   1.469   2.004  14.509 -1.0821  0.3043 -0.2946
  847TIP3   OH224031   5.298   0.859  16.118 -0.2264 -0.0910 -0.7377
  847TIP3    H124032   5.293   0.954  16.135 -2.0386 -0.3132  0.2273
  847TIP3    H224033   5.309   0.820  16.205  1.2045 -0.7824 -1.1857
  848TIP3   OH224034   2.895   1.572  11.524 -0.3972 -0.1144 -0.0982
  848TIP3    H124035   2.925   1.587  11.613 -0.2077 -3.4874  0.5599
  848TIP3    H224036   2.800   1.577  11.530 -0.6024 -3.0800  1.0976
  849TIP3   OH224037   5.547   4.410  14.821  0.1159 -0.4591  0.2398
  849TIP3    H124038   5.522   4.421  14.730 -1.2692 -1.5452  0.4625
  849TIP3    H224039   5.638   4.380  14.818  0.1768 -0.1874 -0.7531
  850TIP3   OH224040   5.202   1.215  14.157  0.1432  0.2067  0.3407
  850TIP3    H124041   5.124   1.205  14.212  0.3500 -1.7579  0.3510
  850TIP3    H224042   5.169   1.251  14.074 -0.6073  0.4257  0.7305
  851TIP3   OH224043   5.407   1.275  15.849 -0.3602 -0.0439  0.0839
  851TIP3    H124044   5.421   1.256  15.757  0.3563 -0.0423  0.1852
  851TIP3    H224045   5.317   1.248  15.866 -0.1118 -1.1838 -0.3261
  852TIP3   OH224046   5.811   3.599   1.975 -0.1806 -0.4715 -0.3260
  852TIP3    H124047   5.717   3.603   1.958 -0.5514  0.2886  1.5749
  852TIP3    H224048   5.822   3.522   2.031 -0.1351  0.8257  1.5772
  853TIP3   OH224049   3.585   4.944   5.947 -0.5764  0.5356 -0.5536
  853TIP3    H124050   3.558   4.948   6.039 -0.4805  1.0748 -0.5446
  853TIP3    H224051   3.677   4.919   5.950 -0.6727  0.1734 -0.5228
  854TIP3   OH224052   6.327   6.144  14.145 -0.5417  0.0579  0.0312
  854TIP3    H124053   6.276   6.213  14.188  1.1629  0.4946  1.4417
  854TIP3    H224054   6.261   6.083  14.113 -1.9666  0.1285  2.5706
  855TIP3   OH224055   6.680   4.639  14.746 -0.5160 -0.3337  0.2574
  855TIP3    H124056   6.667   4.702  14.816  2.9315 -0.4676  1.1717
  855TIP3    H224057   6.722   4.689  14.676 -0.2082 -1.0337 -0.0716
  856TIP3   OH224058   3.756   1.811   5.011  0.4433 -0.0140 -0.1324
  856TIP3    H124059   3.691   1.749   4.977  0.8253 -0.0769 -0.7602
  856TIP3    H224060   3.768   1.875   4.941  2.5018 -1.1021 -0.8470
  857TIP3   OH224061   2.464   0.465  12.627  0.6304 -0.7419 -0.4559
  857TIP3    H124062   2.437   0.534  12.687 -0.0287 -0.3917 -1.1354
  857TIP3    H224063   2.551   0.491  12.597  0.5750 -0.4390 -0.3540
  858TIP3   OH224064   1.816   4.658  16.901  0.3038  0.1676  0.1632
  858TIP3    H124065   1.806   4.566  16.878  0.7398  0.6389 -2.1775
  858TIP3    H224066   1.728   4.695  16.889  0.2086  0.1418  0.7493
  859TIP3   OH224067   6.592   3.174   3.073  0.2528 -0.1802  0.0051
  859TIP3    H124068   6.599   3.079   3.081  0.6264 -0.1560 -0.0115
  859TIP3    H224069   6.586   3.189   2.979  1.0738 -0.1350 -0.0476
  860TIP3   OH224070   0.331   6.326  14.559 -0.0488  0.2372  0.6352
  860TIP3    H124071   0.254   6.318  14.616 -1.7510  0.3178 -1.5259
  860TIP3    H224072   0.353   6.235  14.536  0.1735  0.2399  0.8393
  861TIP3   OH224073   2.674   0.336   5.543 -0.3838  0.1619  0.2409
  861TIP3    H124074   2.660   0.276   5.615 -0.3980 -0.5409 -0.3323
  861TIP3    H224075   2.652   0.285   5.465  0.1229  0.7421 -0.2931
  862TIP3   OH224076   5.279   4.013   1.011  0.8651 -0.2885  0.1686
  862TIP3    H124077   5.322   4.009   1.097  0.9554  0.3381  0.1573
  862TIP3    H224078   5.275   4.107   0.991  0.0080 -0.3792 -0.0931
  863TIP3   OH224079   4.187   5.324  14.109  0.1417 -0.0145  0.3401
  863TIP3    H124080   4.167   5.252  14.049  0.2473  0.2311  0.0097
  863TIP3    H224081   4.133   5.306  14.187 -1.6384  0.8211 -0.6549
  864TIP3   OH224082   1.587   6.305   1.968 -0.0610  0.7276  0.1702
  864TIP3    H124083   1.613   6.216   1.991 -0.2674  0.8231  0.7709
  864TIP3    H224084   1.495   6.311   1.992 -0.1712  0.9586 -0.2939
  865TIP3   OH224085   2.249   5.246  14.660  0.5899 -0.2954  0.0871
  865TIP3    H124086   2.327   5.249  14.714 -0.4908 -0.2196  1.7092
  865TIP3    H224087   2.253   5.325  14.607  1.4912 -0.1865  0.3006
  866TIP3   OH224088   2.709   6.307  14.160  0.3890  0.0607  0.1888
  866TIP3    H124089   2.733   6.313  14.068 -0.0968 -0.4073  0.0251
  866TIP3    H224090   2.757   6.231  14.193  0.1680 -0.0815  0.1894
  867TIP3   OH224091   2.592   3.809  11.678  0.2733  0.6204  0.0744
  867TIP3    H124092   2.595   3.866  11.601 -0.5375 -0.1101 -0.5295
  867TIP3    H224093   2.499   3.786  11.687  0.3862  0.5213  1.1500
  868TIP3   OH224094   5.712   2.005  12.365  0.0243  0.1069  1.2843
  868TIP3    H124095   5.794   1.967  12.399 -0.3111 -0.9122  1.0057
  868TIP3    H224096   5.733   2.033  12.276 -0.2271 -1.3195  0.7457
  869TIP3   OH224097   5.125   5.490   1.742 -0.0337 -0.1512  0.8770
  869TIP3    H124098   5.116   5.584   1.760  3.6776  0.5336  0.1238
  869TIP3    H224099   5.142   5.451   1.828  1.5195  0.4709  0.8998
  870TIP3   OH224100   4.490   0.608   0.515 -0.7845  0.2955  0.0811
  870TIP3    H124101   4.466   0.533   0.571  0.5113  0.6173  1.1311
  870TIP3    H224102   4.428   0.676   0.539  0.2832  0.7224  1.8617
  871TIP3   OH224103   2.976   3.235   1.799  0.0801 -0.0726 -0.0012
  871TIP3    H124104   3.001   3.171   1.732 -2.1281 -0.9385 -0.0770
  871TIP3    H224105   2.910   3.289   1.758 -1.6423 -0.8978  1.5491
  872TIP3   OH224106   1.250   1.393  13.233 -0.1350 -0.2214 -0.2188
  872TIP3    H124107   1.173   1.393  13.176 -0.8967 -1.2804  0.7394
  872TIP3    H224108   1.299   1.314  13.208  0.9417  0.7162 -1.1677
  873TIP3   OH224109   0.127   4.003  15.679  0.0763 -0.3365  0.1520
  873TIP3    H124110   0.214   3.977  15.649  0.4187  0.1770  0.6616
  873TIP3    H224111   0.068   3.978  15.609  0.6706 -0.4790 -0.3012
  874TIP3   OH224112   2.999   5.353  12.876  0.7498  0.0102 -0.4928
  874TIP3    H124113   3.032   5.400  12.799 -0.0888 -2.1018 -2.2782
  874TIP3    H224114   3.073   5.349  12.936  2.0587  0.0694 -2.0450
  875TIP3   OH224115   6.458   0.196   4.664 -0.2772  0.4361 -0.4002
  875TIP3    H124116   6.544   0.167   4.693 -1.1089  0.1892  2.0210
  875TIP3    H224117   6.431   0.260   4.729 -2.9887 -1.3709  0.4025
  876TIP3   OH224118   4.689   0.274   3.100  0.0437  0.3542  0.2803
  876TIP3    H124119   4.597   0.294   3.120 -0.1490  1.3846 -1.4500
  876TIP3    H224120   4.738   0.349   3.134  0.4227 -0.7233  2.2399
  877TIP3   OH224121   0.428   6.487   1.234 -0.5947 -0.9650  0.0223
  877TIP3    H124122   0.493   6.542   1.277 -0.1531 -0.5014 -1.1938
  877TIP3    H224123   0.466   6.399   1.234 -1.6750 -1.5302  2.7509
  878TIP3   OH224124   1.997   2.443  14.992  0.4635  0.3120  0.4585
  878TIP3    H124125   1.950   2.527  14.996 -0.3730  0.2122 -3.2996
  878TIP3    H224126   1.941   2.382  15.039 -2.3257  0.6500 -2.1006
  879TIP3   OH224127   3.654   0.517   4.889 -0.1976 -0.4659  0.2446
  879TIP3    H124128   3.695   0.432   4.901 -0.8149 -0.9049 -0.6289
  879TIP3    H224129   3.565   0.506   4.923 -0.8772 -0.7441 -1.5153
  880TIP3   OH224130   0.581   3.209  12.820  0.6953 -0.3286  0.1232
  880TIP3    H124131   0.537   3.166  12.894 -1.9699 -0.8597 -1.6528
  880TIP3    H224132   0.605   3.137  12.762  0.8351  0.2359 -0.5165
  881TIP3   OH224133   5.486   1.424  13.297 -0.1119  0.1884  0.7128
  881TIP3    H124134   5.453   1.495  13.242  2.2582  0.9046  0.0990
  881TIP3    H224135   5.503   1.352  13.236  1.2295  0.5092  0.6834
  882TIP3   OH224136   3.329   5.998   5.314 -0.5824  0.2722  0.3015
  882TIP3    H124137   3.254   6.053   5.289 -0.8529  0.4231  1.3843
  882TIP3    H224138   3.290   5.913   5.334 -0.8378  0.8852  2.8982
  883TIP3   OH224139   3.186   3.122  14.586  0.2979  0.7262 -0.5052
  883TIP3    H124140   3.187   3.062  14.511  2.1327  0.3781 -0.2306
  883TIP3    H224141   3.255   3.185  14.568  1.1724  0.2956  1.1559
  884TIP3   OH224142   6.381   2.117   3.365  0.3989  0.5519  0.1703
  884TIP3    H124143   6.403   2.064   3.442  0.7626  0.5824  0.0893
  884TIP3    H224144   6.451   2.098   3.302 -0.0687  0.2858 -0.2728
  885TIP3   OH224145   5.884   3.985  15.823 -0.1724  0.0898  0.0947
  885TIP3    H124146   5.820   3.995  15.753  0.2158  0.2435 -0.2395
  885TIP3    H224147   5.842   4.022  15.900 -0.9945 -0.9842  0.1827
  886TIP3   OH224148   4.300   3.729   0.575  0.1345  0.1048  0.2702
  886TIP3    H124149   4.333   3.728   0.486 -0.5937 -0.6250 -0.0074
  886TIP3    H224150   4.342   3.804   0.616 -1.1954  1.8024 -1.3140
  887TIP3   OH224151   1.913   6.386  13.004 -0.2951  0.2239 -0.1372
  887TIP3    H124152   1.923   6.443  12.928 -1.8346  0.0160 -0.5186
  887TIP3    H224153   1.911   6.445  13.079  1.8941  0.3946 -0.1407
  888TIP3   OH224154   4.101   6.418   4.632  0.1935 -0.0459  0.3172
  888TIP3    H124155   4.145   6.503   4.627 -0.1581  0.2609  1.9551
  888TIP3    H224156   4.026   6.427   4.573  0.0238  0.8703  0.6500
  889TIP3   OH224157   6.150   3.200  11.338 -0.0752  0.1017  0.3072
  889TIP3    H124158   6.156   3.284  11.383 -0.4967  0.7868 -0.8502
  889TIP3    H224159   6.152   3.223  11.245 -0.5338 -1.1464 -0.0324
  890TIP3   OH224160   3.150   0.460  14.146  0.8547 -0.0304  0.0347
  890TIP3    H124161   3.120   0.406  14.219  1.7233 -1.4533 -0.6099
  890TIP3    H224162   3.134   0.550  14.174  0.0957 -0.5870  1.4786
  891TIP3   OH224163   0.998   3.886  13.130 -0.5337  0.8018 -0.1487
  891TIP3    H124164   1.063   3.830  13.089 -1.4637  0.1164 -0.7146
  891TIP3    H224165   0.955   3.931  13.057 -2.3522 -0.5932 -0.0025
  892TIP3   OH224166   2.172   5.629   0.037  0.7779 -0.2253  0.0817
  892TIP3    H124167   2.149   5.595  -0.050  2.8642 -2.4636  0.2992
  892TIP3    H224168   2.089   5.631   0.084 -0.3496  0.6940 -1.7899
  893TIP3   OH224169   2.506   2.732   2.205  0.0578 -0.2193  0.1430
  893TIP3    H124170   2.589   2.717   2.251 -1.3188 -0.9274  2.5794
  893TIP3    H224171   2.482   2.647   2.170 -1.4159 -0.9745  2.7487
  894TIP3   OH224172   5.332   6.659  14.062 -0.5344 -0.7109  0.5967
  894TIP3    H124173   5.357   6.722  14.130 -0.2312 -1.0962  0.8535
  894TIP3    H224174   5.237   6.661  14.061 -0.5377 -0.6273  0.9694
  895TIP3   OH224175   3.819   1.091   0.056 -0.1660  0.1275  0.2773
  895TIP3    H124176   3.726   1.071   0.048  0.1518 -0.6120 -3.0993
  895TIP3    H224177   3.855   1.019   0.107 -1.5279  0.9515  2.5293
  896TIP3   OH224178   3.726   3.380  16.134 -0.1219  0.2321 -0.3476
  896TIP3    H124179   3.805   3.341  16.171 -0.7090 -0.6375  0.0331
  896TIP3    H224180   3.656   3.318  16.157 -0.7759  0.5516 -1.4167
  897TIP3   OH224181   1.224   2.139  12.283 -0.2553 -0.2191  0.2645
  897TIP3    H124182   1.292   2.074  12.265 -0.6641 -0.7126  0.4499
  897TIP3    H224183   1.163   2.131  12.209 -0.7999 -0.7198  0.7546
  898TIP3   OH224184   6.220   3.592  12.348  0.8434  0.1686 -0.3065
  898TIP3    H124185   6.172   3.552  12.421  1.4619 -0.2101 -0.0970
  898TIP3    H224186   6.185   3.549  12.270  1.6304 -0.9334 -0.0679
  899TIP3   OH224187   3.639   0.966   0.233  0.7102 -0.6824  0.5592
  899TIP3    H124188   3.557   1.014   0.224  1.3363  0.3787  0.4201
  899TIP3    H224189   3.612   0.875   0.243 -0.4817 -0.3534  0.4718
  900TIP3   OH224190   3.218   6.401   1.555 -0.2473  0.0831 -0.3802
  900TIP3    H124191   3.236   6.446   1.638  0.4787  0.3500 -0.6806
  900TIP3    H224192   3.123   6.412   1.543 -0.2757  0.4832  0.1587
  901TIP3   OH224193   4.076   4.314  11.582 -1.2120  0.0146  0.2711
  901TIP3    H124194   4.074   4.408  11.564 -1.5004 -0.1614 -0.6638
  901TIP3    H224195   4.152   4.283  11.532 -1.5108 -0.3531  0.0469
  902TIP3   OH224196   3.184   1.122  16.522 -0.2490  0.3052  0.6111
  902TIP3    H124197   3.104   1.090  16.480 -0.7077  2.2989 -0.1394
  902TIP3    H224198   3.169   1.108  16.615 -2.6581  2.9028  0.7632
  903TIP3   OH224199   4.165   2.383  16.089  0.5848 -0.3633 -0.3868
  903TIP3    H124200   4.123   2.347  16.166 -1.2297  0.5354 -0.8917
  903TIP3    H224201   4.185   2.307  16.034  1.8755 -1.0049  0.8955
  904TIP3   OH224202   1.937   5.538  13.830  0.1854  0.2734  0.2134
  904TIP3    H124203   1.857   5.547  13.778  0.5668  0.3148 -0.3700
  904TIP3    H224204   1.926   5.455  13.877  0.2402 -0.2272 -0.6412
  905TIP3   OH224205   3.954   0.700  16.434 -0.3584 -0.4336  0.1750
  905TIP3    H124206   3.994   0.773  16.482 -1.1383  0.9960 -1.2616
  905TIP3    H224207   3.861   0.706  16.455 -0.2094 -2.3294  1.6590
  906TIP3   OH224208   6.742   5.435  15.675  0.6221  0.3779  0.5065
  906TIP3    H124209   6.789   5.389  15.605  0.2463 -0.4686  0.8014
  906TIP3    H224210   6.671   5.480  15.630 -0.2216 -0.9739  0.4461
  907TIP3   OH224211   0.672   0.449  11.649  0.1064 -0.5170  0.2023
  907TIP3    H124212   0.758   0.446  11.689 -0.7862 -0.9675  2.2166
  907TIP3    H224213   0.611   0.457  11.723 -1.5430  0.5151 -1.1891
  908TIP3   OH224214   1.780   5.338   3.091 -0.3068  0.1759 -0.3778
  908TIP3    H124215   1.799   5.420   3.046 -2.0735 -1.0585 -3.7139
  908TIP3    H224216   1.686   5.341   3.107 -0.0393 -0.3120  1.5552
  909TIP3   OH224217   1.148   5.171  11.613 -0.7179 -0.0896 -0.6782
  909TIP3    H124218   1.194   5.180  11.697  1.3991 -0.3612 -1.7267
  909TIP3    H224219   1.097   5.090  11.622  1.5027 -1.5598 -0.4710
  910TIP3   OH224220   1.580   3.331   6.670 -0.2911 -0.3143  0.2110
  910TIP3    H124221   1.489   3.355   6.650 -0.1494 -0.2324 -0.3681
  910TIP3    H224222   1.625   3.414   6.677 -0.1396 -0.3681 -0.1104
  911TIP3   OH224223   3.452   1.676  11.091  0.4878 -0.0674 -0.4063
  911TIP3    H124224   3.418   1.765  11.088 -0.0020 -0.1965  0.7999
  911TIP3    H224225   3.464   1.652  10.999 -2.2165  0.1817 -0.9134
  912TIP3   OH224226   1.943   0.725  13.150  0.2964  0.1833  0.0353
  912TIP3    H124227   2.003   0.718  13.223  1.5785  1.2670 -0.8700
  912TIP3    H224228   1.977   0.663  13.085 -1.0081 -1.0056  0.4355
  913TIP3   OH224229   1.595   6.809  17.249 -0.1210 -0.3096  0.5646
  913TIP3    H124230   1.585   6.742  17.181 -0.4838  1.1604 -0.8898
  913TIP3    H224231   1.688   6.807  17.271 -0.0942 -1.1521  0.4243
  914TIP3   OH224232   5.717   6.172  13.587 -0.4238  0.3771  0.5596
  914TIP3    H124233   5.775   6.247  13.603 -0.7209  0.7942 -0.2608
  914TIP3    H224234   5.631   6.201  13.618 -0.7351  0.7321 -0.5752
  915TIP3   OH224235   4.432   3.210   4.083  0.2543 -0.3496  0.7342
  915TIP3    H124236   4.435   3.238   4.174 -2.5128  0.6415  0.6073
  915TIP3    H224237   4.411   3.116   4.087 -1.2536 -0.0256  1.1758
  916TIP3   OH224238   2.421   2.053  15.247  0.0793  0.4797  0.2082
  916TIP3    H124239   2.512   2.072  15.227 -0.0216  0.5028 -0.2391
  916TIP3    H224240   2.380   2.138  15.261 -0.0143  0.5012 -0.2069
  917TIP3   OH224241   3.924   5.786   5.973  0.4687 -0.2074 -0.8361
  917TIP3    H124242   3.993   5.757   6.032  1.1372  0.1518 -1.4302
  917TIP3    H224243   3.843   5.754   6.013  0.7667  1.1081  0.9546
  918TIP3   OH224244   2.385   2.943   1.058 -0.4140 -0.2960 -0.0304
  918TIP3    H124245   2.450   2.972   0.994  0.4849 -0.2319  0.8904
  918TIP3    H224246   2.360   3.023   1.104 -2.3793 -0.0232 -1.4204
  919TIP3   OH224247   6.766   0.161  15.160 -0.4121 -0.6518 -0.4151
  919TIP3    H124248   6.823   0.189  15.231  0.6081 -0.7706 -1.1687
  919TIP3    H224249   6.797   0.209  15.083 -2.7906  1.0592 -0.4236
  920TIP3   OH224250   0.130   4.429   4.395 -0.4037 -0.3737 -0.2725
  920TIP3    H124251   0.200   4.382   4.439 -0.0973  0.5091  0.2146
  920TIP3    H224252   0.061   4.438   4.461 -0.0860  0.6423 -0.0539
  921TIP3   OH224253   0.415   5.337   2.113 -0.5071  0.6368 -0.2907
  921TIP3    H124254   0.441   5.346   2.204  0.9095  1.4362 -0.7433
  921TIP3    H224255   0.392   5.426   2.085 -1.4678  0.3148 -0.5812
  922TIP3   OH224256   2.308   3.098   4.064 -0.1195 -0.1437 -0.2139
  922TIP3    H124257   2.306   3.053   3.980  0.1010 -4.8292  1.9633
  922TIP3    H224258   2.217   3.122   4.081 -0.9071 -2.8821 -0.1550
  923TIP3   OH224259   5.453   6.409  11.998  0.1647 -0.0322  0.5695
  923TIP3    H124260   5.523   6.473  12.011 -0.7183  1.1263 -0.1227
  923TIP3    H224261   5.377   6.448  12.041 -1.1169  0.7987 -2.1946
  924TIP3   OH224262   2.570   1.185  11.163 -0.2046  0.0245  0.1839
  924TIP3    H124263   2.548   1.276  11.140 -0.0730 -0.0322 -0.1768
  924TIP3    H224264   2.543   1.176  11.254 -0.2248  0.4267  0.2200
  925TIP3   OH224265   2.439   0.724  12.445  0.4410 -0.1024 -0.0418
  925TIP3    H124266   2.363   0.670  12.426  0.3089  0.4984 -1.3003
  925TIP3    H224267   2.476   0.746  12.360  1.0874  0.9455  0.4777
  926TIP3   OH224268   4.311   6.677  14.744 -0.2595 -0.8357 -0.2098
  926TIP3    H124269   4.230   6.711  14.706 -0.5745  0.1337  1.2292
  926TIP3    H224270   4.380   6.717  14.693 -0.6684  0.6359  0.3443
  927TIP3   OH224271   2.168   2.246   3.595 -0.5801 -0.1211 -0.1802
  927TIP3    H124272   2.143   2.178   3.534  0.4032 -1.2301  0.6231
  927TIP3    H224273   2.206   2.200   3.670  0.8119  1.3244  0.0710
  928TIP3   OH224274   4.956   4.453  15.512  0.2523  0.0216  0.0638
  928TIP3    H124275   4.958   4.542  15.545  0.6402  0.1499 -0.3020
  928TIP3    H224276   5.041   4.416  15.538  0.5804  0.1337 -0.7969
  929TIP3   OH224277   3.982   0.885   1.744  0.0191 -0.0326 -0.3322
  929TIP3    H124278   4.034   0.836   1.808  1.0470  0.0422 -1.0791
  929TIP3    H224279   3.899   0.903   1.789  0.0464 -1.4685  0.3581
  930TIP3   OH224280   3.587   4.161   1.217  0.2495 -0.4989  0.9704
  930TIP3    H124281   3.636   4.241   1.202 -1.5313  0.3349 -0.8138
  930TIP3    H224282   3.530   4.181   1.292 -0.7203  0.1945  0.0677
  931TIP3   OH224283   5.125   4.677  12.454 -0.4121 -0.0508  0.0189
  931TIP3    H124284   5.174   4.757  12.473  0.0979 -0.5854  1.0559
  931TIP3    H224285   5.084   4.694  12.370 -1.0662  1.6536  0.6331
  932TIP3   OH224286   5.112   6.776  12.225 -0.3119  0.0642  0.1512
  932TIP3    H124287   5.136   6.843  12.161  1.1728  1.4833  2.0554
  932TIP3    H224288   5.195   6.731  12.244 -1.2429 -2.2867 -0.9510
  933TIP3   OH224289   3.864   3.451  10.986 -0.5795  0.1885  0.0136
  933TIP3    H124290   3.820   3.398  11.053  1.6101  0.1313  1.5263
  933TIP3    H224291   3.924   3.390  10.942  0.0717  0.8218 -0.0098
  934TIP3   OH224292   2.771   1.644   1.743 -0.0766  0.2435 -0.4018
  934TIP3    H124293   2.774   1.722   1.688  1.3103 -0.3038 -1.1473
  934TIP3    H224294   2.819   1.578   1.693  1.6836 -0.1337  1.6764
  935TIP3   OH224295   0.932   5.635   3.366 -0.0399 -0.2902  0.2502
  935TIP3    H124296   1.023   5.613   3.350 -0.1655 -0.6784  0.0420
  935TIP3    H224297   0.905   5.576   3.437  0.3062  0.9088  1.4125
  936TIP3   OH224298   6.116   1.726  16.891 -0.2067  0.4901 -0.3817
  936TIP3    H124299   6.055   1.796  16.868  0.5392  1.2063 -0.2244
  936TIP3    H224300   6.164   1.759  16.968  2.1493  1.0589 -1.9727
  937TIP3   OH224301   1.078   5.134  12.196  0.1258 -0.0024  0.1879
  937TIP3    H124302   1.100   5.125  12.103 -1.2277 -2.0001 -0.0058
  937TIP3    H224303   1.020   5.209  12.200  0.1322  0.0537 -0.5906
  938TIP3   OH224304   5.473   4.779   3.370  0.1855 -0.1298 -0.2284
  938TIP3    H124305   5.477   4.704   3.428 -1.8049 -1.0310 -1.1410
  938TIP3    H224306   5.561   4.817   3.372  0.5431 -0.9423  2.2209
  939TIP3   OH224307   5.083   4.549   1.834  0.6640  0.3343  0.0487
  939TIP3    H124308   5.107   4.507   1.917  1.6542  1.2988  0.2702
  939TIP3    H224309   4.999   4.591   1.852 -0.0210 -0.9888  0.0117
  940TIP3   OH224310   3.727   1.550  14.124  0.2579 -0.2026  0.1618
  940TIP3    H124311   3.811   1.528  14.084  0.1629 -1.0766  0.4326
  940TIP3    H224312   3.735   1.521  14.215 -0.1362  0.2328  0.3443
  941TIP3   OH224313   1.334   6.761   4.622  0.1400 -0.7652  0.1168
  941TIP3    H124314   1.347   6.678   4.575  1.6956 -0.7326  0.4425
  941TIP3    H224315   1.392   6.755   4.697 -0.2322  0.3624  0.5112
  942TIP3   OH224316   3.904   5.353   1.039  0.1706  0.5372 -0.1119
  942TIP3    H124317   3.819   5.312   1.021  0.3249  0.4964 -0.7573
  942TIP3    H224318   3.885   5.417   1.108 -0.2970  0.2107  0.0711
  943TIP3   OH224319   0.079   3.052  16.819 -0.4757  0.5954  0.6211
  943TIP3    H124320   0.127   3.061  16.901  2.5346 -0.8854 -0.8217
  943TIP3    H224321   0.117   3.117  16.761  0.6831 -1.3438 -0.8963
  944TIP3   OH224322   1.072   4.901  11.491 -0.2568  0.1430  0.5634
  944TIP3    H124323   1.083   4.868  11.402 -0.1156  0.7222  0.3627
  944TIP3    H224324   1.132   4.848  11.544 -1.5022 -1.2902  0.5906
  945TIP3   OH224325   5.043   6.156   0.933 -0.0191 -0.2747  0.1136
  945TIP3    H124326   5.025   6.183   1.023  0.5594  0.2128  0.0873
  945TIP3    H224327   5.132   6.121   0.936 -0.0566 -0.4011 -0.2389
  946TIP3   OH224328   6.448   3.940  12.972 -0.2384 -0.4286  0.4884
  946TIP3    H124329   6.414   3.868  12.918 -0.8771  1.2909 -1.5369
  946TIP3    H224330   6.540   3.919  12.985 -0.0558 -0.9202 -1.3439
  947TIP3   OH224331   6.605   0.985  13.308 -0.2630 -0.2067  0.1389
  947TIP3    H124332   6.697   1.002  13.330  0.1049 -1.8070 -0.0397
  947TIP3    H224333   6.592   1.031  13.225  0.3951 -0.0076  0.1357
  948TIP3   OH224334   6.036   0.962  12.548 -0.0004  0.0839 -0.5974
  948TIP3    H124335   6.080   1.041  12.580  0.0316  0.5152 -1.6626
  948TIP3    H224336   6.093   0.890  12.577 -1.3388  0.1561  2.6754
  949TIP3   OH224337   2.977   1.420  13.121  0.3765 -0.3624 -0.5282
  949TIP3    H124338   2.951   1.511  13.133  3.6700  0.7839 -1.0594
  949TIP3    H224339   2.943   1.375  13.198 -1.2823  1.2794 -0.2295
  950TIP3   OH224340   0.542   5.684   1.915  0.1937  0.5833  0.0859
  950TIP3    H124341   0.589   5.606   1.946 -0.5641 -0.3888 -1.1125
  950TIP3    H224342   0.597   5.757   1.942  0.6972 -0.3254  1.6661
  951TIP3   OH224343   4.518   6.401   1.957 -0.4494  0.2169 -0.2024
  951TIP3    H124344   4.493   6.394   2.049 -1.5109  2.4260 -0.2490
  951TIP3    H224345   4.588   6.337   1.946 -1.2209 -1.0753  1.7790
  952TIP3   OH224346   1.191   3.558   6.479 -0.3988 -0.6261 -0.0189
  952TIP3    H124347   1.283   3.559   6.505 -0.2784 -1.4119 -0.4100
  952TIP3    H224348   1.151   3.489   6.531 -1.2335  1.0070  1.6376
  953TIP3   OH224349   3.407   2.963   4.305  0.6534  0.0351 -0.1657
  953TIP3    H124350   3.311   2.970   4.311  0.7315  0.6011  0.5774
  953TIP3    H224351   3.422   2.920   4.221 -0.2354  0.4237 -0.5431
  954TIP3   OH224352   0.807   6.023  14.295  0.0809 -0.1804  0.4020
  954TIP3    H124353   0.857   5.944  14.315  0.9458  0.2477 -0.0147
  954TIP3    H224354   0.809   6.029  14.199  3.2476  2.2994  0.4442
  955TIP3   OH224355   5.213   3.488  13.037 -0.0133 -0.1055  0.4421
  955TIP3    H124356   5.169   3.406  13.059  1.1443 -0.4275  1.5941
  955TIP3    H224357   5.258   3.470  12.955 -1.1370 -0.0766 -0.2133
  956TIP3   OH224358   1.452   2.882  11.254 -0.1615 -0.3939  0.4789
  956TIP3    H124359   1.522   2.943  11.279  1.1168 -1.4276 -0.4128
  956TIP3    H224360   1.439   2.827  11.332 -1.9114  1.4538  1.5887
  957TIP3   OH224361   4.140   3.444   1.650  0.2328  0.4923  0.4998
  957TIP3    H124362   4.093   3.492   1.582 -0.1531 -0.9164 -0.2505
  957TIP3    H224363   4.121   3.492   1.731 -4.7640 -1.3771  0.7844
  958TIP3   OH224364   6.037   1.687  13.014 -0.4690  0.4854 -0.4585
  958TIP3    H124365   6.018   1.618  12.950 -0.6540 -0.7004  0.8444
  958TIP3    H224366   6.063   1.640  13.093  1.1179  1.9522 -0.0688
  959TIP3   OH224367   3.569   4.096  15.457  0.1784 -0.6335 -0.4595
  959TIP3    H124368   3.478   4.076  15.435 -0.0187  1.3803 -1.7999
  959TIP3    H224369   3.611   4.110  15.372  1.1623  0.6376  0.1898
  960TIP3   OH224370   2.032   5.080   0.826 -0.2778  0.6356 -0.4798
  960TIP3    H124371   1.987   5.159   0.857 -1.6657  0.4399 -1.8699
  960TIP3    H224372   2.109   5.073   0.882  0.1245  3.2053 -0.5767
  961TIP3   OH224373   4.552   1.747   2.826  0.2132 -0.2105 -0.1736
  961TIP3    H124374   4.574   1.840   2.832 -1.0579  0.1135 -0.2253
  961TIP3    H224375   4.625   1.708   2.779 -0.1372  1.1342 -1.9478
  962TIP3   OH224376   3.673   1.957  13.652  0.2077 -0.5174 -0.8703
  962TIP3    H124377   3.766   1.979  13.648  0.1427 -0.1900 -0.6146
  962TIP3    H224378   3.662   1.913  13.736 -0.1059  0.6120 -0.2884
  963TIP3   OH224379   1.205   6.506  16.159  0.0989 -0.4561 -0.2751
  963TIP3    H124380   1.250   6.518  16.243 -0.0674  0.4848 -0.3011
  963TIP3    H224381   1.266   6.455  16.106  1.5467  1.4767 -0.5944
  964TIP3   OH224382   2.809   1.225  14.758  0.2505  0.2256  0.0330
  964TIP3    H124383   2.892   1.178  14.750  0.5020  0.4771  1.0043
  964TIP3    H224384   2.777   1.203  14.846  0.4926  2.0247  0.6238
  965TIP3   OH224385   2.401   5.915   5.551 -0.4565 -0.1025  0.0565
  965TIP3    H124386   2.436   5.887   5.635 -0.8458 -0.6527  0.0438
  965TIP3    H224387   2.360   5.836   5.514  0.0403  0.0348 -0.8211
  966TIP3   OH224388   6.485   5.764   3.552  0.2474  0.5091 -0.4119
  966TIP3    H124389   6.533   5.836   3.592 -2.0114  1.6998  0.3167
  966TIP3    H224390   6.484   5.695   3.618  2.5707 -0.3790 -1.1776
  967TIP3   OH224391   5.967   1.927  13.446 -0.5922 -0.2117 -0.3388
  967TIP3    H124392   5.908   1.988  13.401 -1.0509 -0.6325 -0.3184
  967TIP3    H224393   6.039   1.913  13.384 -1.2781 -0.8810 -1.0106
  968TIP3   OH224394   4.192   3.201  16.420  0.6246  0.3979  0.9794
  968TIP3    H124395   4.244   3.213  16.341  0.7798  0.2160  1.0549
  968TIP3    H224396   4.170   3.108  16.420 -0.7846  0.7064  0.2671
  969TIP3   OH224397   5.910   3.571  15.446  0.3643  0.5223 -0.2007
  969TIP3    H124398   5.904   3.588  15.352  0.4308 -0.5199 -0.4044
  969TIP3    H224399   5.820   3.555  15.474  0.4240  0.1156 -0.2339
  970TIP3   OH224400   6.701   4.940  11.019  0.4356 -0.1774  0.1068
  970TIP3    H124401   6.768   4.937  10.950  1.3769  1.4729  0.9054
  970TIP3    H224402   6.621   4.968  10.974  0.3025 -1.8595 -0.8011
  971TIP3   OH224403   1.640   0.958  12.619  0.2812  0.1923  0.1097
  971TIP3    H124404   1.612   0.931  12.707 -1.4998  2.8349  0.4853
  971TIP3    H224405   1.710   1.020  12.634 -0.9182  1.6745 -0.1940
  972TIP3   OH224406   6.162   0.488   3.830  0.0175  0.1394 -0.0253
  972TIP3    H124407   6.188   0.400   3.857 -2.5075 -1.8466 -3.1285
  972TIP3    H224408   6.144   0.535   3.911  0.4910 -2.5704  1.7607
  973TIP3   OH224409   5.315   5.702  15.881 -0.4612  0.2070 -0.2224
  973TIP3    H124410   5.275   5.655  15.954 -0.7470  1.7978  0.6948
  973TIP3    H224411   5.241   5.736  15.830 -0.2748  0.5733 -0.2529
  974TIP3   OH224412   4.773   0.589  12.464 -1.6009 -0.2507  0.0123
  974TIP3    H124413   4.769   0.601  12.369  0.9050 -1.7554 -0.3692
  974TIP3    H224414   4.807   0.672  12.497  1.0525 -0.8764 -0.8944
  975TIP3   OH224415   4.367   5.422   2.863 -0.2236  0.0762 -0.3833
  975TIP3    H124416   4.352   5.516   2.849  0.4021  0.5073  1.5676
  975TIP3    H224417   4.419   5.394   2.788  1.2112  1.7350 -0.0513
  976TIP3   OH224418   2.345   4.076  12.124  0.6097 -0.6697 -0.7150
  976TIP3    H124419   2.346   4.106  12.033 -1.4449 -0.0853 -0.6001
  976TIP3    H224420   2.277   4.009  12.127 -0.0543  0.0066  0.5435
  977TIP3   OH224421   1.829   4.749  14.822  0.0838  0.0639  0.0655
  977TIP3    H124422   1.828   4.834  14.778  0.2508  0.8178  1.4776
  977TIP3    H224423   1.922   4.727  14.828  0.1792  0.7851  1.5425
  978TIP3   OH224424   0.822   2.020   0.659 -0.2784 -0.1247  0.4743
  978TIP3    H124425   0.852   2.099   0.704 -2.5088  1.0960 -0.0453
  978TIP3    H224426   0.801   1.959   0.730 -0.9573  0.7108  1.0187
  979TIP3   OH224427   0.223   3.024  11.156 -0.1357  0.6437  0.6447
  979TIP3    H124428   0.181   3.105  11.126  1.8457  1.0721 -1.3280
  979TIP3    H224429   0.245   3.041  11.247  0.3060  2.4144  0.2521
  980TIP3   OH224430   2.655   2.447  11.874  0.0644 -0.3852  0.0819
  980TIP3    H124431   2.640   2.531  11.831  1.4788  1.9490  3.6952
  980TIP3    H224432   2.701   2.395  11.808 -0.9051  1.5935 -2.3342
  981TIP3   OH224433   6.067   2.447  14.118  0.0187  0.0681  0.0776
  981TIP3    H124434   6.020   2.529  14.133  2.0352  1.7963 -2.2811
  981TIP3    H224435   6.027   2.411  14.039 -0.6266 -1.1022  0.9130
  982TIP3   OH224436   1.845   2.841   2.110 -0.4425  0.0079 -0.0578
  982TIP3    H124437   1.917   2.871   2.166  0.5204 -2.8310  0.3822
  982TIP3    H224438   1.787   2.794   2.170 -1.9816  1.0510 -0.6680
  983TIP3   OH224439   1.643   3.794   3.909 -0.6868  0.1808 -0.0294
  983TIP3    H124440   1.681   3.882   3.918 -0.7558  0.3362 -1.1160
  983TIP3    H224441   1.576   3.804   3.842  0.6555 -1.1114 -1.6489
  984TIP3   OH224442   4.254   1.179  13.328  0.1802 -0.6683 -0.7195
  984TIP3    H124443   4.290   1.219  13.248 -1.2356  0.1354 -0.9931
  984TIP3    H224444   4.284   1.089  13.325 -0.1789 -0.7681 -2.4090
  985TIP3   OH224445   6.153   5.848  16.789  0.1106  0.7188  0.1047
  985TIP3    H124446   6.134   5.770  16.736  1.0312  0.0360  0.7580
  985TIP3    H224447   6.070   5.896  16.791 -0.7711 -0.7569  0.5230
  986TIP3   OH224448   4.340   0.724  14.810 -0.1619  0.4680 -0.2193
  986TIP3    H124449   4.426   0.742  14.773  0.9439 -1.4400  1.2833
  986TIP3    H224450   4.320   0.802  14.862  0.4754  1.0572 -0.8290
  987TIP3   OH224451   4.784   4.416  13.082  0.9311  0.3973  0.2290
  987TIP3    H124452   4.797   4.442  12.991  1.5231 -0.3647  0.0803
  987TIP3    H224453   4.822   4.487  13.133  1.1721  0.5387 -0.1379
  988TIP3   OH224454   1.078   5.841  15.194 -0.3309 -0.1040  0.0108
  988TIP3    H124455   1.106   5.752  15.214 -0.5008 -0.1563  0.0193
  988TIP3    H224456   0.983   5.834  15.181 -0.2689 -0.0156 -0.5076
  989TIP3   OH224457   4.333   6.594  15.956  0.3351  0.1185  0.0768
  989TIP3    H124458   4.361   6.677  15.917  1.0963 -0.3178 -0.3264
  989TIP3    H224459   4.238   6.604  15.967  0.2121  0.5616 -1.1586
  990TIP3   OH224460   5.568   1.187  12.878  0.2449  0.0526 -0.8008
  990TIP3    H124461   5.607   1.226  12.799 -2.9669  0.7003 -2.2187
  990TIP3    H224462   5.474   1.187  12.861 -0.3687 -2.8974  1.6849
  991TIP3   OH224463   1.493   6.748  14.904  0.4704  0.3457  0.1622
  991TIP3    H124464   1.540   6.689  14.964 -0.0729  0.2349  0.4873
  991TIP3    H224465   1.518   6.836  14.932 -0.5031  0.3262  1.1804
  992TIP3   OH224466   2.043   5.626   1.086 -0.6559 -0.5829 -0.0874
  992TIP3    H124467   2.104   5.645   1.157  0.1891  0.6558 -1.0983
  992TIP3    H224468   1.965   5.592   1.130 -0.3278  0.5759  1.4880
  993TIP3   OH224469   4.155   2.608  15.244  0.1264 -0.0680 -0.1012
  993TIP3    H124470   4.139   2.680  15.305  2.5542  2.7538 -2.4863
  993TIP3    H224471   4.094   2.623  15.172  0.7031 -0.3264 -0.6549
  994TIP3   OH224472   4.583   6.519  12.449 -0.0153  0.3059 -0.2178
  994TIP3    H124473   4.547   6.579  12.514 -0.6329 -0.6260  0.3159
  994TIP3    H224474   4.618   6.446  12.499  1.7034  0.6822 -0.7904
  995TIP3   OH224475   2.349   5.596   4.107 -0.2533  0.3160 -0.0900
  995TIP3    H124476   2.358   5.667   4.044  1.6830 -0.5331 -0.8617
  995TIP3    H224477   2.255   5.584   4.117 -0.6265  2.4751 -0.4816
  996TIP3   OH224478   6.734   3.445  15.361  0.2543 -0.0857 -0.1115
  996TIP3    H124479   6.704   3.394  15.437 -1.0828 -0.3940 -0.8102
  996TIP3    H224480   6.802   3.391  15.321 -0.0828 -0.6118  0.0180
  997TIP3   OH224481   0.713   4.756  14.407 -0.0862  0.6792  0.2349
  997TIP3    H124482   0.670   4.671  14.420 -1.0438  1.3598  1.8242
  997TIP3    H224483   0.754   4.749  14.321 -4.0110  0.2078 -1.8271
  998TIP3   OH224484   0.997   0.529  15.858  0.0736  0.0845 -0.1354
  998TIP3    H124485   1.026   0.447  15.897  1.4002  1.2427  1.4398
  998TIP3    H224486   0.927   0.560  15.915 -0.0246  0.3378 -0.3875
  999TIP3   OH224487   6.381   6.606  13.743 -0.3504 -0.1845  0.0753
  999TIP3    H124488   6.431   6.680  13.776  1.4370 -1.2464 -0.1101
  999TIP3    H224489   6.315   6.645  13.685 -1.8998  1.5009  2.8013
 1000TIP3   OH224490   4.495   2.868  11.168  0.2864 -0.4239 -0.2635
 1000TIP3    H124491   4.566   2.907  11.219 -1.9463  1.0385  1.9182
 1000TIP3    H224492   4.497   2.775  11.191 -0.1257  0.0588  1.9049
 1001TIP3   OH224493   4.909   1.527  11.209 -0.6918 -0.4896 -0.1573
 1001TIP3    H124494   4.959   1.608  11.222 -1.1832 -0.3619  1.0857
 1001TIP3    H224495   4.972   1.467  11.169  0.0441  0.1091  0.0746
 1002TIP3   OH224496   6.774   1.141  11.592  0.3449 -0.0843 -0.4158
 1002TIP3    H124497   6.777   1.128  11.497  0.2464 -2.5485 -0.1335
 1002TIP3    H224498   6.685   1.114  11.617  0.3446  0.6173  0.4024
 1003TIP3   OH224499   1.196   5.391  11.410  0.7759  0.2449  0.2341
 1003TIP3    H124500   1.174   5.315  11.464 -0.8372  0.2918 -0.2932
 1003TIP3    H224501   1.122   5.451  11.422  1.0829  0.8831 -0.8947
 1004TIP3   OH224502   4.816   1.389  13.544  0.1719 -0.1072 -0.1964
 1004TIP3    H124503   4.853   1.309  13.582 -0.2018 -0.1920 -0.0083
 1004TIP3    H224504   4.892   1.439  13.516  0.5186  0.3096  1.3719
 1005TIP3   OH224505   0.244   2.635   4.278 -0.2162 -0.1133 -0.2867
 1005TIP3    H124506   0.333   2.619   4.246  0.0100 -0.3033  0.4102
 1005TIP3    H224507   0.244   2.599   4.367 -1.1518 -0.6028 -0.4763
 1006TIP3   OH224508   6.117   0.180   2.435  0.0570 -0.3129 -0.2652
 1006TIP3    H124509   6.037   0.233   2.438 -0.2620 -0.8186  0.2237
 1006TIP3    H224510   6.179   0.235   2.387 -0.6206  0.0342 -0.7775
 1007TIP3   OH224511   0.204   5.100  12.415 -0.3488  0.4647  0.1105
 1007TIP3    H124512   0.265   5.158  12.462 -0.1058  0.6674 -0.4427
 1007TIP3    H224513   0.124   5.101  12.467 -0.1377  0.8173  0.4316
 1008TIP3   OH224514   4.395   6.684   3.930  0.1738 -0.4047 -0.0611
 1008TIP3    H124515   4.407   6.667   3.837 -1.3637  1.3221 -0.6240
 1008TIP3    H224516   4.317   6.635   3.954 -0.8494  1.0339 -0.3072
 1009TIP3   OH224517   2.995   6.452  13.276 -0.4018  0.1381  0.2069
 1009TIP3    H124518   3.066   6.506  13.240 -1.2296  0.3375 -1.1655
 1009TIP3    H224519   2.920   6.511  13.280 -0.3858  0.0908  2.2006
 1010TIP3   OH224520   4.123   3.431   5.450 -0.3179 -0.1874 -0.4335
 1010TIP3    H124521   4.132   3.453   5.543  0.7804  2.0725 -0.9977
 1010TIP3    H224522   4.074   3.349   5.450 -0.7884 -0.0134  2.1178
 1011TIP3   OH224523   1.258   3.244   1.041 -0.0431 -0.3313 -0.2299
 1011TIP3    H124524   1.233   3.211   0.954 -1.5972  1.9710 -0.7489
 1011TIP3    H224525   1.340   3.292   1.026 -0.1567 -0.1822 -0.3794
 1012TIP3   OH224526   2.072   1.754   5.497 -0.0081 -0.7729  0.1067
 1012TIP3    H124527   2.110   1.677   5.539 -1.0236 -2.1040 -1.3301
 1012TIP3    H224528   2.127   1.769   5.420 -0.4496 -0.7111 -0.1969
 1013TIP3   OH224529   0.157   5.671   6.365  0.1480 -0.3476 -0.2323
 1013TIP3    H124530   0.237   5.720   6.346  0.2125 -0.2723  0.2290
 1013TIP3    H224531   0.162   5.594   6.308  0.1109  0.1054 -0.8657
 1014TIP3   OH224532   0.762   3.091   3.925  0.7893 -0.6189 -0.1474
 1014TIP3    H124533   0.760   3.027   3.997  0.7845 -0.0739  0.3509
 1014TIP3    H224534   0.669   3.105   3.904  0.7212  0.1116  0.5678
 1015TIP3   OH224535   1.919   6.141  12.420 -0.2721 -0.2101  0.6814
 1015TIP3    H124536   1.999   6.193  12.422 -0.6163  0.5337 -1.5615
 1015TIP3    H224537   1.878   6.156  12.505  2.2384 -1.1650  2.1843
 1016TIP3   OH224538   5.749   3.776   0.250 -0.1325  0.2059  0.3675
 1016TIP3    H124539   5.657   3.790   0.232  0.1382 -1.2885 -2.8356
 1016TIP3    H224540   5.793   3.854   0.218 -0.0394 -0.6081 -1.6065
 1017TIP3   OH224541   6.165   6.603   4.865  0.0071  0.5157  0.1586
 1017TIP3    H124542   6.204   6.575   4.782 -0.5544  0.6432 -0.1499
 1017TIP3    H224543   6.188   6.696   4.871  0.2863  0.4403  0.2843
 1018TIP3   OH224544   3.934   4.961   4.338  0.1371  0.1722 -0.1176
 1018TIP3    H124545   3.895   4.944   4.424 -1.5343 -0.0595 -0.8833
 1018TIP3    H224546   3.890   4.900   4.279  1.6889 -0.0902 -1.0593
 1019TIP3   OH224547   2.311   1.778  11.596  0.5485  0.1613 -0.1193
 1019TIP3    H124548   2.396   1.771  11.553  0.7211 -1.1099  0.3822
 1019TIP3    H224549   2.308   1.867  11.629  2.0856 -0.0414  0.6380
 1020TIP3   OH224550   6.116   3.236   0.004 -0.4489 -0.1620  0.5007
 1020TIP3    H124551   6.029   3.200  -0.011 -1.6025  2.8593 -0.8505
 1020TIP3    H224552   6.110   3.279   0.089 -1.5933  3.1586 -1.0928
 1021TIP3   OH224553   1.733   5.402  14.606  0.3504 -0.8248 -0.0863
 1021TIP3    H124554   1.732   5.458  14.683 -1.3846 -0.5583 -0.2702
 1021TIP3    H224555   1.804   5.340  14.622 -0.2146 -1.0033  1.8934
 1022TIP3   OH224556   3.829   4.092   4.961  0.5292 -0.2729  0.2176
 1022TIP3    H124557   3.775   4.020   4.993 -1.8678  1.1718 -0.2835
 1022TIP3    H224558   3.811   4.164   5.023  3.2417 -0.1654  1.0058
 1023TIP3   OH224559   0.695   3.391  13.015  0.1268  0.0924 -0.5361
 1023TIP3    H124560   0.760   3.450  12.977 -0.6155  0.5131 -1.1979
 1023TIP3    H224561   0.697   3.314  12.959 -0.1265  0.2208 -0.7279
 1024TIP3   OH224562   2.598   0.676   6.357  0.2674  0.2077 -0.4117
 1024TIP3    H124563   2.520   0.711   6.399  0.4738 -0.5807  0.6901
 1024TIP3    H224564   2.604   0.586   6.389  1.7138  0.3051 -0.3340
 1025TIP3   OH224565   5.336   6.770   3.362  0.6994 -0.0200  0.3272
 1025TIP3    H124566   5.278   6.802   3.293  1.2277  0.0277 -0.1005
 1025TIP3    H224567   5.330   6.835   3.431 -2.3016 -1.5821  1.7382
 1026TIP3   OH224568   4.031   0.877  11.949  0.0372  0.3568  0.1491
 1026TIP3    H124569   4.079   0.927  12.015  1.2487 -1.0563  0.4043
 1026TIP3    H224570   4.073   0.899  11.866  0.0383  0.3832  0.1561
 1027TIP3   OH224571   6.356   3.978   5.017  0.2560  0.1427 -0.3347
 1027TIP3    H124572   6.430   4.038   5.017 -0.3441  0.9050  0.2491
 1027TIP3    H224573   6.368   3.924   5.096  0.6913 -0.3943 -0.7565
 1028TIP3   OH224574   1.121   1.686  11.928 -0.1309  0.3250  0.5772
 1028TIP3    H124575   1.194   1.690  11.990 -0.2305 -0.6395  0.7753
 1028TIP3    H224576   1.129   1.766  11.877  1.8159 -0.3357 -0.2483
 1029TIP3   OH224577   6.609   1.241  12.546  0.1530  1.0514  0.6055
 1029TIP3    H124578   6.702   1.226  12.566  0.5266  1.0685 -1.0094
 1029TIP3    H224579   6.585   1.169  12.488 -0.9351  0.8998  1.2148
 1030TIP3   OH224580   2.794   1.572  14.866 -0.3020  0.0209 -0.4050
 1030TIP3    H124581   2.765   1.481  14.872  1.0424 -0.3477  1.3069
 1030TIP3    H224582   2.713   1.623  14.868 -1.0141 -1.0673  1.3132
 1031TIP3   OH224583   4.193   1.736   1.088 -0.1963 -0.6660  0.3997
 1031TIP3    H124584   4.212   1.688   1.169 -0.0503  0.1131  0.8366
 1031TIP3    H224585   4.274   1.784   1.069 -0.6774  0.2192  0.5450
 1032TIP3   OH224586   2.222   2.082  12.022  0.1876  0.2456 -0.0533
 1032TIP3    H124587   2.259   2.165  11.992  0.3825 -0.0581 -0.6774
 1032TIP3    H224588   2.127   2.094  12.015  0.2328  0.0561 -1.1789
 1033TIP3   OH224589   6.761   0.656   5.668  0.3125 -0.0011 -0.2712
 1033TIP3    H124590   6.720   0.630   5.750  1.3603  2.1519  1.0095
 1033TIP3    H224591   6.690   0.691   5.615 -1.1822 -4.8244 -2.0718
 1034TIP3   OH224592   4.369   1.735   4.684  0.6189  0.0113  0.0548
 1034TIP3    H124593   4.417   1.685   4.618  1.0277  1.1403 -0.5323
 1034TIP3    H224594   4.421   1.814   4.697  0.0559  0.2283  1.0499
 1035TIP3   OH224595   1.320   5.314  16.376  0.5192 -0.2578 -0.2816
 1035TIP3    H124596   1.281   5.323  16.463  1.7992 -0.5452  0.3608
 1035TIP3    H224597   1.359   5.401  16.359 -0.8989  0.2230 -1.1887
 1036TIP3   OH224598   5.443   4.065  15.922  0.4106  0.2207  0.1443
 1036TIP3    H124599   5.360   4.029  15.951  0.2573  0.5017  0.0624
 1036TIP3    H224600   5.503   4.049  15.995  0.4974 -0.7034 -0.1228
 1037TIP3   OH224601   0.424   4.751  11.972  0.1549 -0.1190  0.2465
 1037TIP3    H124602   0.447   4.683  11.909 -0.8379  0.5073 -0.8375
 1037TIP3    H224603   0.343   4.719  12.013  0.0688  0.0781  0.2321
 1038TIP3   OH224604   1.852   5.319  15.017 -0.2281 -0.0759  0.4995
 1038TIP3    H124605   1.902   5.339  14.938  0.1390  2.3395  1.2751
 1038TIP3    H224606   1.906   5.256  15.064  0.6531  0.2391 -0.0628
 1039TIP3   OH224607   4.556   6.745  15.254  0.3663  0.2261 -0.2224
 1039TIP3    H124608   4.524   6.688  15.324  1.7034 -0.9527 -0.5359
 1039TIP3    H224609   4.494   6.733  15.182  0.5097 -0.6716 -0.1989
 1040TIP3   OH224610   5.540   2.242   0.530  0.2613 -0.1328  0.4926
 1040TIP3    H124611   5.454   2.283   0.525  1.4863  2.5549 -0.4907
 1040TIP3    H224612   5.596   2.297   0.476  2.3305 -2.6556 -0.1624
 1041TIP3   OH224613   3.966   0.751  15.489 -0.0669 -0.1374 -0.1860
 1041TIP3    H124614   4.052   0.760  15.531  0.4387 -1.4783 -0.8862
 1041TIP3    H224615   3.917   0.826  15.521  0.9643  0.0024  1.1919
 1042TIP3   OH224616   2.338   4.925   0.516 -0.3102 -0.9803 -0.1516
 1042TIP3    H124617   2.350   4.832   0.494 -2.3297 -1.2974 -0.0551
 1042TIP3    H224618   2.270   4.926   0.583 -1.3017  0.6538 -1.1171
 1043TIP3   OH224619   2.068   2.479   5.617 -0.0810 -0.7473 -0.3730
 1043TIP3    H124620   2.063   2.572   5.640 -0.8054 -0.6017 -1.0621
 1043TIP3    H224621   2.087   2.435   5.699  0.5546  0.0370 -0.0885
 1044TIP3   OH224622   5.193   0.096  15.117  0.1307  0.8058  0.2935
 1044TIP3    H124623   5.221   0.069  15.205  0.7091 -0.9599 -0.3887
 1044TIP3    H224624   5.260   0.157  15.087 -0.7924  2.5453  1.5743
 1045TIP3   OH224625   0.224   3.401  16.157  1.2969 -0.9068 -0.5691
 1045TIP3    H124626   0.303   3.386  16.105  2.0700  0.7760  0.0266
 1045TIP3    H224627   0.223   3.496  16.172 -0.5128 -0.9687 -0.0250
 1046TIP3   OH224628   0.160   0.079   5.548 -0.2562  0.0522  1.0596
 1046TIP3    H124629   0.091   0.080   5.615 -1.4841  0.6354 -0.1764
 1046TIP3    H224630   0.136   0.148   5.487  0.7507 -0.5657 -0.0890
 1047TIP3   OH224631   2.336   4.131  16.236  0.3435  0.3983 -0.5186
 1047TIP3    H124632   2.405   4.157  16.298  1.5331 -1.9962 -0.7174
 1047TIP3    H224633   2.279   4.073  16.287 -0.3372  0.6922 -0.9299
 1048TIP3   OH224634   5.399   4.803   4.848  0.1383 -0.0752  0.0812
 1048TIP3    H124635   5.480   4.815   4.798 -1.1521  0.8206 -1.9198
 1048TIP3    H224636   5.375   4.712   4.832 -1.1208  0.6170 -2.4328
 1049TIP3   OH224637   3.367   4.691   5.790 -0.2383  0.5055  0.8743
 1049TIP3    H124638   3.413   4.718   5.711  1.9543 -2.6889  0.8578
 1049TIP3    H224639   3.284   4.655   5.758  1.1395 -1.8971 -0.2578
 1050TIP3   OH224640   6.136   0.667  15.421  0.0404 -0.7865  0.0267
 1050TIP3    H124641   6.082   0.705  15.353  1.7586 -0.8687 -1.4660
 1050TIP3    H224642   6.225   0.667  15.384  1.3571  0.6891  2.8883
 1051TIP3   OH224643   3.738   0.176   3.016 -0.0866 -0.3756  0.4299
 1051TIP3    H124644   3.694   0.217   3.090  0.6745  0.2945  0.5302
 1051TIP3    H224645   3.778   0.097   3.053 -1.4258 -1.1607  0.2683
 1052TIP3   OH224646   3.939   1.545   4.954  0.7492 -0.3882  0.0427
 1052TIP3    H124647   3.847   1.518   4.950  0.6378  0.1494 -1.8837
 1052TIP3    H224648   3.937   1.640   4.941  1.4900 -0.1374  1.6123
 1053TIP3   OH224649   0.257   5.152  13.616  0.2871 -0.1352  0.0801
 1053TIP3    H124650   0.246   5.083  13.550 -0.1372 -0.3845  0.4061
 1053TIP3    H224651   0.318   5.214  13.575 -1.5698  0.8007 -1.4304
 1054TIP3   OH224652   3.237   5.778  14.400 -0.2168 -0.3890 -0.7499
 1054TIP3    H124653   3.239   5.744  14.490  0.0757  0.3564 -0.4654
 1054TIP3    H224654   3.145   5.793  14.382 -0.2708 -0.4717 -0.5429
 1055TIP3   OH224655   5.445   6.622   4.159 -0.4245 -0.2618 -0.4415
 1055TIP3    H124656   5.381   6.593   4.094 -2.4645 -0.7070  1.6363
 1055TIP3    H224657   5.504   6.547   4.170  0.2067 -0.0398 -1.9852
 1056TIP3   OH224658   5.220   2.190   5.839  0.4070 -0.4645  0.5300
 1056TIP3    H124659   5.181   2.138   5.909  0.5514 -0.4662  0.6093
 1056TIP3    H224660   5.207   2.281   5.866 -2.1588 -0.3502 -0.8267
 1057TIP3   OH224661   4.064   4.185   4.576  0.1276  0.2425 -0.2815
 1057TIP3    H124662   4.103   4.100   4.558 -0.0693 -0.1051  0.8657
 1057TIP3    H224663   4.064   4.193   4.671  3.3750  3.0562 -0.3195
 1058TIP3   OH224664   3.104   3.456  13.339  0.3148 -0.2512 -0.0761
 1058TIP3    H124665   3.077   3.528  13.281 -0.3721 -0.9276 -0.6095
 1058TIP3    H224666   3.037   3.389  13.327  1.2325 -1.2060  0.0185
 1059TIP3   OH224667   2.709   0.672   6.025  0.1167 -0.2364 -0.0432
 1059TIP3    H124668   2.674   0.733   5.960 -1.1498 -2.7705 -1.9201
 1059TIP3    H224669   2.729   0.727   6.101 -1.6071  2.3782 -1.3257
 1060TIP3   OH224670   6.608   1.534   2.422 -0.0420 -0.0645 -0.0531
 1060TIP3    H124671   6.683   1.584   2.390 -0.1111  0.4924  0.6430
 1060TIP3    H224672   6.595   1.466   2.356  1.0908 -0.1844 -0.1712
 1061TIP3   OH224673   4.330   3.487   1.279  0.2354  0.1116 -0.3771
 1061TIP3    H124674   4.287   3.458   1.198  1.0124  0.9572 -1.1332
 1061TIP3    H224675   4.283   3.567   1.304 -0.4963 -0.5692  0.4536
 1062TIP3   OH224676   4.661   5.696   2.311 -0.1458 -0.0189 -0.0127
 1062TIP3    H124677   4.691   5.773   2.360  0.1848  0.8851 -1.5931
 1062TIP3    H224678   4.646   5.727   2.222 -2.6829 -1.1830 -0.0748
 1063TIP3   OH224679   0.106   0.120  15.549 -0.2780 -0.2467 -0.0750
 1063TIP3    H124680   0.163   0.167  15.489 -1.8166  0.3612 -1.1469
 1063TIP3    H224681   0.162   0.054  15.589  0.9379 -0.3398 -1.7966
 1064TIP3   OH224682   2.611   3.522  15.920 -0.4713  0.0054  0.1921
 1064TIP3    H124683   2.554   3.590  15.885  0.5678 -0.6027 -2.9757
 1064TIP3    H224684   2.693   3.532  15.872  0.9800 -1.2470  2.2437
 1065TIP3   OH224685   1.131   6.070  14.766  0.4180  0.0406  0.5259
 1065TIP3    H124686   1.070   6.006  14.802 -1.0129 -0.1369 -1.9747
 1065TIP3    H224687   1.216   6.025  14.766 -0.4228 -1.6250 -0.5252
 1066TIP3   OH224688   6.432   4.343  11.365  0.0161  0.4655 -0.0672
 1066TIP3    H124689   6.363   4.289  11.403  1.8078 -2.6906 -0.8981
 1066TIP3    H224690   6.432   4.319  11.272  3.9018 -1.9200  0.3316
 1067TIP3   OH224691   6.744   5.829   4.492  0.5719 -0.1637 -0.2536
 1067TIP3    H124692   6.784   5.786   4.567  1.1374 -0.2788 -0.6143
 1067TIP3    H224693   6.657   5.788   4.485  1.0130 -1.0957 -0.4494
 1068TIP3   OH224694   0.830   0.302  15.746 -0.0198 -0.0542  0.0633
 1068TIP3    H124695   0.833   0.372  15.681 -0.7917 -0.0812 -0.0094
 1068TIP3    H224696   0.913   0.255  15.735 -0.4715 -0.5415 -1.4619
 1069TIP3   OH224697   5.785   0.810  12.294 -0.2235  0.4897 -0.1102
 1069TIP3    H124698   5.704   0.766  12.271 -0.0371 -0.4729  0.9948
 1069TIP3    H224699   5.828   0.751  12.355  2.1477  0.1415 -1.9708
 1070TIP3   OH224700   1.013   1.267  13.366 -0.0762  0.3029 -0.7608
 1070TIP3    H124701   0.978   1.187  13.405  0.2331  0.5261 -0.0099
 1070TIP3    H224702   1.105   1.268  13.392  0.4139 -0.0515 -2.3363
 1071TIP3   OH224703   0.837   3.840  12.701  0.2404  0.4070  0.2052
 1071TIP3    H124704   0.824   3.880  12.787  2.0784 -0.2271  0.8246
 1071TIP3    H224705   0.893   3.902  12.654 -1.4495  1.1683 -0.9042
 1072TIP3   OH224706   2.563   1.923  13.982  1.2021 -0.0975  0.0219
 1072TIP3    H124707   2.615   1.880  14.050  0.2741 -0.1981  0.6793
 1072TIP3    H224708   2.627   1.946  13.915  2.1593  0.0682  0.9571
 1073TIP3   OH224709   5.158   1.856  16.786 -0.2707  0.5001 -0.3033
 1073TIP3    H124710   5.070   1.858  16.824 -0.2137  1.0467 -0.1930
 1073TIP3    H224711   5.216   1.855  16.862 -0.1473  1.9891 -0.3470
 1074TIP3   OH224712   2.141   5.760   4.271 -0.3009  0.2430 -0.1375
 1074TIP3    H124713   2.179   5.837   4.228  1.7530 -1.4453 -1.5483
 1074TIP3    H224714   2.207   5.731   4.333 -0.7483 -0.7489 -0.0915
 1075TIP3   OH224715   3.026   4.671  12.037 -0.6051 -0.1059  0.6212
 1075TIP3    H124716   3.011   4.717  11.954  1.7560 -0.2649  0.0502
 1075TIP3    H224717   2.967   4.596  12.033 -1.6168  0.6954 -0.2228
 1076TIP3   OH224718   4.300   2.493  14.912 -0.2620  0.6891  0.3712
 1076TIP3    H124719   4.205   2.501  14.922 -0.5199  1.3976 -1.9663
 1076TIP3    H224720   4.312   2.450  14.827  1.5353 -1.7542  1.7242
 1077TIP3   OH224721   5.859   6.631  12.295  0.3866 -0.6416  0.3926
 1077TIP3    H124722   5.840   6.723  12.274 -1.0997 -1.4747 -2.4078
 1077TIP3    H224723   5.860   6.629  12.391 -0.9838  2.0433  0.5790
 1078TIP3   OH224724   0.960   6.460  11.485 -0.1212  0.0828  0.1483
 1078TIP3    H124725   0.869   6.474  11.459 -0.3349 -1.2663  0.1208
 1078TIP3    H224726   1.000   6.417  11.410  0.5253  0.5847  0.1956
 1079TIP3   OH224727   2.280   5.152  15.956  0.4557 -0.0471  0.7679
 1079TIP3    H124728   2.222   5.094  15.906 -0.2722  1.5139 -0.2810
 1079TIP3    H224729   2.247   5.148  16.046 -1.0238  0.4627  0.2684
 1080TIP3   OH224730   0.671   6.535  15.418  0.1706 -0.1301  0.0414
 1080TIP3    H124731   0.765   6.525  15.430  0.2043 -1.6745 -1.1412
 1080TIP3    H224732   0.637   6.446  15.422 -1.3241  0.4500  0.9202
 1081TIP3   OH224733   2.192   1.713   6.155  0.1137 -0.6062  0.0881
 1081TIP3    H124734   2.139   1.675   6.226 -0.4036 -1.5705 -0.7830
 1081TIP3    H224735   2.256   1.768   6.200 -1.2294  0.1171  1.2124
 1082TIP3   OH224736   5.544   1.393   5.277  0.3461  0.1825  0.2364
 1082TIP3    H124737   5.623   1.439   5.248  2.2482 -1.9151  1.7175
 1082TIP3    H224738   5.551   1.390   5.372 -0.5865 -1.6022  0.3047
 1083TIP3   OH224739   0.449   1.939  10.682  0.3715  0.5728  0.1138
 1083TIP3    H124740   0.390   1.866  10.661 -0.4884  0.9281  1.2122
 1083TIP3    H224741   0.463   1.983  10.598  0.7341 -0.7139 -0.5318
 1084TIP3   OH224742   2.182   0.769   3.322 -0.1691  0.4900 -0.2030
 1084TIP3    H124743   2.220   0.834   3.381  1.7065  0.5181 -1.3571
 1084TIP3    H224744   2.097   0.747   3.361 -0.5899  3.1484  0.5524
 1085TIP3   OH224745   3.175   4.527  12.213 -0.1489 -0.0038 -0.2957
 1085TIP3    H124746   3.150   4.554  12.124  3.1183  0.6294 -1.1443
 1085TIP3    H224747   3.260   4.486  12.202 -0.4598 -1.5557  2.3805
 1086TIP3   OH224748   2.466   1.143  17.257 -0.1988  0.3480  0.2878
 1086TIP3    H124749   2.552   1.121  17.223  0.7979  0.7128  2.4211
 1086TIP3    H224750   2.450   1.232  17.226 -0.9794 -0.5577 -2.1823
 1087TIP3   OH224751   2.262   5.055  14.204  0.5423 -0.4197 -0.6896
 1087TIP3    H124752   2.173   5.026  14.184  0.0300 -0.1261  0.9900
 1087TIP3    H224753   2.318   4.983  14.175 -0.5187 -2.1099  1.2211
 1088TIP3   OH224754   0.557   3.748  15.200  0.6345 -0.0206 -0.2826
 1088TIP3    H124755   0.557   3.693  15.121 -1.8890  0.0776 -0.4371
 1088TIP3    H224756   0.475   3.726  15.244  1.2310  1.1121  1.4971
 1089TIP3   OH224757   2.720   6.726  12.396 -0.1416  0.0871 -0.4491
 1089TIP3    H124758   2.641   6.763  12.437  0.0730  1.1077 -0.9147
 1089TIP3    H224759   2.691   6.642  12.361 -0.8905  0.2126 -0.1612
 1090TIP3   OH224760   1.093   1.338   5.121  0.2628  0.0052 -0.3925
 1090TIP3    H124761   1.118   1.338   5.029  0.1127 -1.0980 -0.4468
 1090TIP3    H224762   1.125   1.422   5.155 -0.7131  0.9453 -1.7060
 1091TIP3   OH224763   2.912   2.040   2.341 -0.2350  0.4351  0.0121
 1091TIP3    H124764   2.856   2.092   2.283 -2.7825 -1.6242  0.4625
 1091TIP3    H224765   2.864   1.959   2.355  1.8977 -0.5727  2.2570
 1092TIP3   OH224766   4.203   1.665  11.921  0.0159 -0.4357 -0.2185
 1092TIP3    H124767   4.131   1.654  11.859  0.5687  0.7728 -1.1196
 1092TIP3    H224768   4.282   1.653  11.867  0.5109 -1.9560  0.7882
 1093TIP3   OH224769   6.683   5.969  10.984  0.5525  0.1339 -0.5675
 1093TIP3    H124770   6.676   5.874  10.990 -1.2408  0.2920  1.4383
 1093TIP3    H224771   6.650   5.991  10.897  1.4756 -1.0799 -1.2463
 1094TIP3   OH224772   3.935   5.500  12.283 -0.0733  0.2775 -0.0245
 1094TIP3    H124773   3.877   5.475  12.355 -0.4129  0.9299 -0.0638
 1094TIP3    H224774   3.890   5.574  12.241  0.7748  0.7858 -0.0614
 1095TIP3   OH224775   3.475   5.171   3.302  0.0812 -0.2899  0.0849
 1095TIP3    H124776   3.532   5.127   3.239 -0.2445 -1.7363  0.7784
 1095TIP3    H224777   3.440   5.101   3.357 -1.7728  0.6397  0.1722
 1096TIP3   OH224778   3.806   5.737   5.275 -0.3532  0.2924 -0.2374
 1096TIP3    H124779   3.744   5.799   5.237 -1.0001 -2.1366 -3.6507
 1096TIP3    H224780   3.751   5.662   5.301  0.8760 -1.8715 -3.2224
 1097TIP3   OH224781   0.751   0.961   0.914  0.5699  0.0774  0.1052
 1097TIP3    H124782   0.787   0.971   0.826 -0.5117 -2.1561 -0.6739
 1097TIP3    H224783   0.817   0.911   0.962  0.8941  0.7794  0.4107
 1098TIP3   OH224784   1.562   2.500   0.885 -0.6362 -0.1381  0.4143
 1098TIP3    H124785   1.603   2.440   0.947  1.0588  0.5930  0.0489
 1098TIP3    H224786   1.546   2.580   0.936  0.5717  0.3907  0.0052
 1099TIP3   OH224787   0.371   2.819  11.758  0.5987  0.6996 -0.2034
 1099TIP3    H124788   0.334   2.823  11.669 -1.0199 -0.1225  0.3886
 1099TIP3    H224789   0.299   2.847  11.815  1.7517  1.6443  0.8345
 1100TIP3   OH224790   1.068   0.090  12.364 -0.4442 -0.2868  0.6239
 1100TIP3    H124791   1.131   0.154  12.397 -0.0538 -1.0187  1.3504
 1100TIP3    H224792   0.992   0.099  12.420 -1.0742  0.7175 -0.3649
 1101TIP3   OH224793   4.327   6.217   5.356 -0.0148 -0.2065 -0.8396
 1101TIP3    H124794   4.302   6.275   5.283  2.1816  1.3805 -0.4428
 1101TIP3    H224795   4.416   6.190   5.336 -0.3406 -1.9754 -0.0519
 1102TIP3   OH224796   2.574   0.703   3.062  0.2546  0.9753 -0.0443
 1102TIP3    H124797   2.492   0.654   3.070  0.0940  1.4060  1.1799
 1102TIP3    H224798   2.551   0.780   3.011  0.6348 -0.4455 -2.4897
 1103TIP3   OH224799   1.840   1.409  12.062 -0.2756 -0.0456 -0.0602
 1103TIP3    H124800   1.873   1.332  12.017 -0.5879 -0.1168 -0.1720
 1103TIP3    H224801   1.885   1.410  12.146 -3.5814 -3.0031  2.0252
 1104TIP3   OH224802   0.087   4.961   6.347 -0.5490 -0.2488 -0.4119
 1104TIP3    H124803   0.095   4.999   6.259 -3.3282  1.3145 -0.0803
 1104TIP3    H224804   0.163   4.902   6.354  0.7421  0.9064 -3.1518
 1105TIP3   OH224805   0.310   5.866  11.502 -0.2267  0.2199  0.6128
 1105TIP3    H124806   0.399   5.873  11.468  0.2584  0.3025  1.8271
 1105TIP3    H224807   0.261   5.821  11.433  1.4566 -2.6238  1.1107
 1106TIP3   OH224808   5.199   3.506   0.920 -0.2760  0.1585 -0.0053
 1106TIP3    H124809   5.194   3.538   1.011 -0.5461  1.3928 -0.4332
 1106TIP3    H224810   5.260   3.433   0.924 -1.0707 -0.4811  1.3567
 1107TIP3   OH224811   2.702   2.084   6.705 -0.0452 -0.4577  0.4860
 1107TIP3    H124812   2.654   2.166   6.701  0.8155  0.1413  1.6716
 1107TIP3    H224813   2.676   2.037   6.626 -0.2557  1.1150 -0.4246
 1108TIP3   OH224814   6.310   5.295  11.642 -0.1336  0.0400 -0.6032
 1108TIP3    H124815   6.404   5.300  11.625  0.5946 -0.8541  2.4920
 1108TIP3    H224816   6.295   5.206  11.672 -1.3357  0.9519  1.8276
 1109TIP3   OH224817   1.132   1.094   5.906 -0.5083 -0.3002  0.0341
 1109TIP3    H124818   1.133   1.073   6.000 -1.7346 -0.0169  0.1249
 1109TIP3    H224819   1.148   1.189   5.903  0.5086 -0.4618 -0.1174
 1110TIP3   OH224820   4.709   4.493  12.155  0.5664  0.1494 -0.1747
 1110TIP3    H124821   4.635   4.452  12.110  1.1494 -0.7164 -0.3671
 1110TIP3    H224822   4.726   4.573  12.105  1.0250 -0.6569 -1.3374
 1111TIP3   OH224823   2.268   1.553   4.208 -0.3660  0.2859 -0.2411
 1111TIP3    H124824   2.294   1.645   4.206  0.2041  0.1240 -0.6411
 1111TIP3    H224825   2.350   1.505   4.199 -0.6545 -0.2627  0.0184
 1112TIP3   OH224826   5.646   3.703  11.776 -0.2700 -0.2099 -0.2669
 1112TIP3    H124827   5.720   3.764  11.769  0.4603 -0.9822  0.4165
 1112TIP3    H224828   5.614   3.716  11.865 -0.5453 -0.3352 -0.3494
 1113TIP3   OH224829   2.932   3.879   1.770  0.9161 -0.0399 -0.2718
 1113TIP3    H124830   2.844   3.873   1.733  1.2512 -0.0309 -1.0917
 1113TIP3    H224831   2.921   3.931   1.849  0.1764 -0.0733 -0.3486
 1114TIP3   OH224832   2.034   0.732  16.480  0.1931  0.0106  0.2763
 1114TIP3    H124833   2.017   0.787  16.556  0.2648  0.7712 -0.2417
 1114TIP3    H224834   2.079   0.656  16.515 -0.9995 -0.3173  1.1822
 1115TIP3   OH224835   4.099   0.808  10.928 -0.1925 -0.2930  0.1878
 1115TIP3    H124836   4.168   0.763  10.976  0.6900  0.6681 -0.1351
 1115TIP3    H224837   4.018   0.783  10.972  0.5254  0.0042  1.7347
 1116TIP3   OH224838   3.685   1.558   1.304  0.3387 -0.6628  0.3785
 1116TIP3    H124839   3.647   1.643   1.282 -0.4471 -1.3272 -0.9594
 1116TIP3    H224840   3.779   1.570   1.295  0.3326  0.3642  1.3796
 1117TIP3   OH224841   0.255   3.466  13.907  0.2806 -0.1530  0.5131
 1117TIP3    H124842   0.170   3.435  13.937  2.1022 -3.4754  2.9602
 1117TIP3    H224843   0.271   3.418  13.825 -0.5369  1.2627 -0.5174
 1118TIP3   OH224844   4.265   5.458   5.108 -0.2955 -0.0612  0.5102
 1118TIP3    H124845   4.191   5.495   5.157 -0.7750  0.1818 -0.3736
 1118TIP3    H224846   4.334   5.449   5.173  0.0732  2.9358  0.6919
 1119TIP3   OH224847   3.207   2.258  14.260 -0.6393 -0.4243  0.7689
 1119TIP3    H124848   3.165   2.328  14.211 -0.3700 -0.0143  1.1184
 1119TIP3    H224849   3.252   2.302  14.332  4.3896 -0.1542 -2.0758
 1120TIP3   OH224850   3.944   5.219   0.674 -0.2597 -0.2824 -0.3920
 1120TIP3    H124851   3.993   5.283   0.725 -2.4075  1.1801 -0.0029
 1120TIP3    H224852   3.996   5.205   0.595  0.2312  2.0631 -0.5387
 1121TIP3   OH224853   5.878   5.866  11.433 -0.1638  0.5094  0.3867
 1121TIP3    H124854   5.851   5.869  11.342  1.4852 -1.0537 -0.2242
 1121TIP3    H224855   5.809   5.817  11.477  0.1797 -0.9007 -0.5549
 1122TIP3   OH224856   5.770   4.902   0.044 -0.2167 -0.8038 -0.3924
 1122TIP3    H124857   5.817   4.884  -0.037  1.9737 -1.4131  0.9548
 1122TIP3    H224858   5.809   4.843   0.109 -0.8482  0.7270  1.4691
 1123TIP3   OH224859   1.284   1.685  12.493 -0.3434 -0.3224 -0.0157
 1123TIP3    H124860   1.336   1.628  12.436 -0.7663 -0.5295 -0.1998
 1123TIP3    H224861   1.221   1.726  12.434 -0.3546 -0.0312  0.1983
 1124TIP3   OH224862   3.102   5.833  14.819  0.0172  0.0556 -0.4960
 1124TIP3    H124863   3.086   5.739  14.811 -3.5534  0.4778 -0.1922
 1124TIP3    H224864   3.120   5.846  14.912 -0.1810 -0.2532 -0.4115
 1125TIP3   OH224865   2.972   1.726   0.666  0.1203  0.0519  0.6957
 1125TIP3    H124866   2.988   1.706   0.574  1.4777 -0.5629  1.0310
 1125TIP3    H224867   2.979   1.822   0.671 -0.0995  0.1010  0.1417
 1126TIP3   OH224868   0.747   5.012  11.311 -0.0102  0.2321 -0.5735
 1126TIP3    H124869   0.831   5.017  11.265  1.5484  0.7591  2.0847
 1126TIP3    H224870   0.756   4.937  11.370 -0.7058  1.2547  0.9161
 1127TIP3   OH224871   4.655   3.909   0.830 -0.0400  0.0581  0.0244
 1127TIP3    H124872   4.673   3.821   0.799  0.3459  0.3746 -0.6877
 1127TIP3    H224873   4.687   3.911   0.920 -0.1119 -0.5436  0.0622
 1128TIP3   OH224874   6.472   2.402  17.189 -0.0500  0.3388 -0.2384
 1128TIP3    H124875   6.443   2.311  17.198 -0.6326  0.5345 -0.0619
 1128TIP3    H224876   6.451   2.425  17.099 -0.9054  0.6231  0.0159
 1129TIP3   OH224877   0.809   2.811   1.366 -0.0115  0.5884  0.2105
 1129TIP3    H124878   0.747   2.737   1.365  1.6274 -0.9071  1.8712
 1129TIP3    H224879   0.888   2.776   1.325  0.4481  1.7975  0.0290
 1130TIP3   OH224880   3.041   4.203  12.755 -0.2222 -0.2895 -0.4073
 1130TIP3    H124881   3.131   4.170  12.762 -0.6646 -1.1792  1.8151
 1130TIP3    H224882   3.038   4.276  12.817 -0.4419  1.2765 -2.1772
 1131TIP3   OH224883   0.355   5.999  13.758  0.2661  0.4232  0.1873
 1131TIP3    H124884   0.367   5.917  13.806  0.5357  0.4041  0.0926
 1131TIP3    H224885   0.414   6.061  13.801  1.6679  0.0132 -1.0321
 1132TIP3   OH224886   3.811   3.359  12.073  0.3405  0.2457 -0.1921
 1132TIP3    H124887   3.782   3.450  12.084  1.0010  0.3139  1.2075
 1132TIP3    H224888   3.781   3.314  12.152  1.1417 -0.4470 -0.2688
 1133TIP3   OH224889   2.162   4.506   5.730  0.5009  0.3389 -0.1765
 1133TIP3    H124890   2.095   4.475   5.669  0.6466 -2.0088  0.7310
 1133TIP3    H224891   2.114   4.552   5.798 -0.1891 -0.9413  0.2341
 1134TIP3   OH224892   6.186   3.688  11.623 -0.2509 -0.1855 -0.4615
 1134TIP3    H124893   6.189   3.599  11.588 -0.8251 -1.5982  2.7493
 1134TIP3    H224894   6.126   3.734  11.564  0.0783 -1.8706 -2.2224
 1135TIP3   OH224895   1.659   3.879   0.450 -0.3428  0.1167  0.0807
 1135TIP3    H124896   1.699   3.897   0.536 -1.0126  1.3621  0.1621
 1135TIP3    H224897   1.580   3.830   0.470 -0.7657  0.8439  0.2366
 1136TIP3   OH224898   1.718   0.202   3.598  0.2849 -0.6700  0.6902
 1136TIP3    H124899   1.662   0.178   3.672 -0.8382  1.1344  0.4790
 1136TIP3    H224900   1.681   0.153   3.524  1.0001 -1.9543  1.1451
 1137TIP3   OH224901   1.477   6.319  11.405  0.3339  0.2221  0.0822
 1137TIP3    H124902   1.529   6.335  11.483 -1.2165 -0.6345  1.3481
 1137TIP3    H224903   1.467   6.405  11.365  1.5025  0.6114  0.5628
 1138TIP3   OH224904   6.203   6.539  12.350  0.9517  0.4086  0.0494
 1138TIP3    H124905   6.176   6.493  12.429  2.5884  0.4502  0.6689
 1138TIP3    H224906   6.156   6.495  12.279 -1.3410  1.0168  1.0809
 1139TIP3   OH224907   5.283   2.131   0.222 -0.4671 -0.0165  0.2769
 1139TIP3    H124908   5.363   2.086   0.246 -0.4266 -0.3515 -0.4670
 1139TIP3    H224909   5.295   2.220   0.255  1.0959  0.5297 -1.5627
 1140TIP3   OH224910   4.338   1.424   3.209  0.1233 -0.3507 -0.4108
 1140TIP3    H124911   4.408   1.473   3.166  1.6581 -0.7201  1.5090
 1140TIP3    H224912   4.337   1.457   3.299 -2.9404  0.3911 -0.6114
 1141TIP3   OH224913   4.842   2.781   2.058 -0.4180  0.3021 -0.0601
 1141TIP3    H124914   4.911   2.846   2.066 -0.5020  0.3944 -0.0826
 1141TIP3    H224915   4.839   2.761   1.965 -0.9833  0.9130 -0.1814
 1142TIP3   OH224916   1.485   2.499   5.438 -0.0419  0.2699  0.4680
 1142TIP3    H124917   1.502   2.466   5.526 -0.0571  0.2506  0.4636
 1142TIP3    H224918   1.448   2.586   5.452  0.7107  0.5984  0.4650
 1143TIP3   OH224919   1.921   6.784   4.057  0.1309 -0.0831 -0.6078
 1143TIP3    H124920   1.954   6.817   3.973  0.0611 -0.8221 -0.9289
 1143TIP3    H224921   1.858   6.716   4.033 -1.5026  1.1434 -0.0125
 1144TIP3   OH224922   6.676   2.730  17.188  0.3004  0.6054 -0.2190
 1144TIP3    H124923   6.608   2.784  17.229  0.7008  0.0463  1.2265
 1144TIP3    H224924   6.637   2.702  17.105 -1.3703  0.0507  0.6994
 1145TIP3   OH224925   6.761   6.421  15.301  0.0024  0.1554 -0.0423
 1145TIP3    H124926   6.806   6.502  15.327  0.9924 -0.0487 -1.0410
 1145TIP3    H224927   6.831   6.366  15.264 -0.4854 -1.5296  1.4175
 1146TIP3   OH224928   3.566   2.771   3.313 -0.1614  0.0241  0.2864
 1146TIP3    H124929   3.555   2.866   3.308  1.5540  0.2302 -0.0823
 1146TIP3    H224930   3.555   2.741   3.222  0.6327  0.0483  0.1750
 1147TIP3   OH224931   0.730   4.029  14.556  0.0784 -0.6084 -0.2943
 1147TIP3    H124932   0.636   4.014  14.543  0.1746 -1.0785 -0.4556
 1147TIP3    H224933   0.735   4.117  14.593 -0.6503 -1.7083  2.6792
 1148TIP3   OH224934   5.938   0.499  11.310 -0.0650 -0.2984  0.2810
 1148TIP3    H124935   5.939   0.481  11.216  2.0249  1.3752 -0.0932
 1148TIP3    H224936   6.025   0.474  11.340 -0.2722  0.3801  1.5086
 1149TIP3   OH224937   1.466   2.245   0.643  0.1617 -0.4716  0.3179
 1149TIP3    H124938   1.460   2.218   0.551  0.5418  0.3015  0.0532
 1149TIP3    H224939   1.509   2.330   0.639 -1.9110  0.6846  1.0078
 1150TIP3   OH224940   1.365   6.301  16.031 -0.4316  0.2828 -0.1420
 1150TIP3    H124941   1.386   6.327  15.942  1.1947  1.6234  0.5742
 1150TIP3    H224942   1.435   6.240  16.055  0.0398  1.1287  0.7085
 1151TIP3   OH224943   3.337   5.523   3.066 -0.1249 -0.1296  0.1817
 1151TIP3    H124944   3.392   5.575   3.008 -0.4386  1.0106  0.8784
 1151TIP3    H224945   3.398   5.466   3.113  0.7026  2.1588  2.0440
 1152TIP3   OH224946   5.139   3.320   0.658 -0.3535  0.5209 -0.1131
 1152TIP3    H124947   5.204   3.387   0.679 -1.2685  1.5869 -0.5718
 1152TIP3    H224948   5.096   3.302   0.742  1.8711 -1.7208  0.6278
 1153TIP3   OH224949   0.836   2.110   3.605  0.2324  0.1294 -0.3175
 1153TIP3    H124950   0.928   2.087   3.621 -0.4918 -2.4894  0.4202
 1153TIP3    H224951   0.796   2.112   3.691 -0.7669 -0.4222 -0.7556
 1154TIP3   OH224952   0.850   3.009   1.540 -0.1369 -0.1215 -0.4243
 1154TIP3    H124953   0.783   2.992   1.606  1.0647 -1.7548  0.4360
 1154TIP3    H224954   0.831   2.947   1.469 -0.2723  0.2843 -0.7481
 1155TIP3   OH224955   0.229   0.850  15.619  0.0399 -0.4004  0.8219
 1155TIP3    H124956   0.256   0.785  15.554 -0.2291  0.1997  0.0881
 1155TIP3    H224957   0.221   0.801  15.701 -0.0586 -1.2636  0.3073
 1156TIP3   OH224958   6.467   3.102   2.517 -0.2287 -0.0100  0.0011
 1156TIP3    H124959   6.529   3.054   2.571  0.3460  0.8423  0.1315
 1156TIP3    H224960   6.444   3.179   2.570 -0.6628  0.1659 -0.4347
 1157TIP3   OH224961   0.399   4.272   0.266  0.3027 -0.1643  0.0533
 1157TIP3    H124962   0.392   4.367   0.265 -1.5015 -0.2290  1.2248
 1157TIP3    H224963   0.348   4.245   0.342 -1.0794 -2.1548 -1.4697
 1158TIP3   OH224964   0.330   6.245  15.931  0.2909 -0.2154 -0.0173
 1158TIP3    H124965   0.355   6.297  15.854  1.5893  1.3239  1.3492
 1158TIP3    H224966   0.244   6.278  15.956 -0.2714 -0.9318 -0.9526
 1159TIP3   OH224967   3.202   0.902  11.416  0.4352  0.0662  0.2890
 1159TIP3    H124968   3.193   0.898  11.511 -1.1975 -0.9113  0.1262
 1159TIP3    H224969   3.285   0.948  11.402  0.2303  1.1177  2.1614
 1160TIP3   OH224970   0.665   4.986  16.241 -0.9160  0.1436  0.2388
 1160TIP3    H124971   0.615   5.000  16.322  0.9112  0.4162  1.3813
 1160TIP3    H224972   0.734   5.052  16.243  0.4132 -1.1407 -0.4814
 1161TIP3   OH224973   0.983   2.823  12.129  0.3263 -0.2474 -0.0266
 1161TIP3    H124974   0.939   2.908  12.132 -0.1827 -0.5351  1.4786
 1161TIP3    H224975   1.030   2.817  12.212  1.3405 -0.9426 -0.6171
 1162TIP3   OH224976   4.614   3.492  13.303 -0.1387  0.4548 -0.1371
 1162TIP3    H124977   4.672   3.556  13.263  1.3575 -1.0949 -0.5815
 1162TIP3    H224978   4.669   3.414  13.313 -2.6526 -1.8143 -2.4925
 1163TIP3   OH224979   2.530   4.461  13.277  0.0191 -0.4032  0.3134
 1163TIP3    H124980   2.583   4.439  13.201  0.3114  0.8545  0.1374
 1163TIP3    H224981   2.568   4.543  13.310 -2.2321  0.9229 -0.2312
 1164TIP3   OH224982   6.247   4.040  14.905 -0.9673  0.0520  0.3696
 1164TIP3    H124983   6.321   4.007  14.853 -0.9983  0.7038 -0.1107
 1164TIP3    H224984   6.243   3.982  14.981  1.1832  1.0568  1.3505
 1165TIP3   OH224985   4.411   3.402  17.242  0.9364  0.2724  0.2370
 1165TIP3    H124986   4.360   3.482  17.237 -0.9846 -0.9610 -1.1942
 1165TIP3    H224987   4.408   3.377  17.334 -1.3124  0.1011  0.1514
 1166TIP3   OH224988   4.320   4.215  11.141  0.0264 -0.2878 -0.2472
 1166TIP3    H124989   4.357   4.227  11.054 -1.3597 -0.9224 -0.9643
 1166TIP3    H224990   4.228   4.196  11.125 -0.0530 -1.4076  1.3039
 1167TIP3   OH224991   3.592   3.833  12.897 -0.0676  0.2011  0.1792
 1167TIP3    H124992   3.620   3.795  12.981  0.4992  0.5762  0.1603
 1167TIP3    H224993   3.646   3.910  12.886  0.4704 -0.3221 -0.9601
 1168TIP3   OH224994   4.091   4.584  11.053  0.3672 -0.3161 -0.0130
 1168TIP3    H124995   4.171   4.635  11.060 -0.6077  1.0475  1.9361
 1168TIP3    H224996   4.059   4.602  10.965  2.0882 -0.8090 -0.7992
 1169TIP3   OH224997   1.957   5.896   2.072  0.1020  0.2262 -0.8485
 1169TIP3    H124998   1.939   5.882   2.165  2.8880  1.0115 -0.1077
 1169TIP3    H224999   2.038   5.847   2.055 -0.1219  0.4388 -2.7709
 1170TIP3   OH225000   2.623   6.101   4.842  0.4605 -0.1473  0.0718
 1170TIP3    H125001   2.537   6.064   4.857 -1.3004  3.9927  1.8319
 1170TIP3    H225002   2.683   6.047   4.894 -1.4904 -1.5645  0.9535
 1171TIP3   OH225003   5.215   4.355  11.571 -0.5000 -0.3744 -0.4752
 1171TIP3    H125004   5.307   4.371  11.592 -0.9257  0.9212  0.5487
 1171TIP3    H225005   5.206   4.382  11.479  0.0024  0.0989 -0.3883
 1172TIP3   OH225006   4.784   5.668  13.266  0.7333 -0.1498  0.0344
 1172TIP3    H125007   4.743   5.751  13.242 -2.5536 -2.2756 -2.6731
 1172TIP3    H225008   4.870   5.671  13.225  0.7661  1.9725  0.1687
 1173TIP3   OH225009   4.227   4.916   5.316 -0.2221  0.2290 -0.4859
 1173TIP3    H125010   4.223   5.009   5.336 -0.1128  0.3462 -0.9963
 1173TIP3    H225011   4.170   4.875   5.381  0.8911  0.4905  0.6912
 1174TIP3   OH225012   3.418   0.074   1.770  0.5905  0.4352 -0.1674
 1174TIP3    H125013   3.510   0.048   1.776  0.1991 -0.9562  0.1994
 1174TIP3    H225014   3.391   0.047   1.682  0.6252  1.1781 -0.4088
 1175TIP3   OH225015   4.308   0.985  16.669 -0.0934  0.2210 -0.6960
 1175TIP3    H125016   4.380   1.007  16.610  1.1644  0.7035  0.9408
 1175TIP3    H225017   4.273   1.070  16.698  0.0377  0.0203  0.0874
 1176TIP3   OH225018   3.487   3.623  11.375 -0.5782  0.2344 -0.2899
 1176TIP3    H125019   3.468   3.693  11.437 -1.3085  1.6249 -1.9869
 1176TIP3    H225020   3.554   3.659  11.317  0.3305 -1.1497 -0.1507
 1177TIP3   OH225021   3.555   6.631  15.222 -0.1797  0.5410  0.4417
 1177TIP3    H125022   3.489   6.565  15.200 -0.9192  1.3172  0.2888
 1177TIP3    H225023   3.636   6.581  15.234 -0.9113 -0.5044  1.2230
 1178TIP3   OH225024   3.232   3.841  12.475 -0.3055 -0.6133 -0.1401
 1178TIP3    H125025   3.326   3.841  12.459 -0.0413 -1.0900  1.2968
 1178TIP3    H225026   3.210   3.934  12.490 -0.1068 -0.4801 -0.6692
 1179TIP3   OH225027   0.268   2.000  12.146 -0.4784 -0.0291 -0.1821
 1179TIP3    H125028   0.198   2.003  12.081 -0.2032  0.6129 -0.4584
 1179TIP3    H225029   0.323   1.926  12.118 -0.6580 -0.0963 -0.3609
 1180TIP3   OH225030   2.874   5.288  13.261 -0.5785  0.6125  0.1033
 1180TIP3    H125031   2.857   5.195  13.248 -0.3079  0.2263  2.0722
 1180TIP3    H225032   2.873   5.326  13.174 -0.1557 -1.3335 -0.7910
 1181TIP3   OH225033   4.438   3.398  14.718  0.1699  0.3206 -0.3094
 1181TIP3    H125034   4.509   3.416  14.655  0.8379 -0.1023  0.3001
 1181TIP3    H225035   4.418   3.484  14.756  0.0013  0.5233 -0.8400
 1182TIP3   OH225036   3.742   0.688  12.457 -0.2879  0.3534 -0.6466
 1182TIP3    H125037   3.647   0.697  12.471 -0.3251  0.5895 -1.0419
 1182TIP3    H225038   3.751   0.673  12.363  0.0260 -0.3019 -0.5152
 1183TIP3   OH225039   5.659   2.174  16.666  0.6050  0.3039 -0.0083
 1183TIP3    H125040   5.642   2.268  16.656  0.1731  0.2063 -0.1704
 1183TIP3    H225041   5.653   2.159  16.760 -1.1223  0.0927 -0.1370
 1184TIP3   OH225042   3.890   4.013  15.467 -0.0074 -0.3105 -0.3049
 1184TIP3    H125043   3.884   4.084  15.531  0.8430 -0.1467 -0.3922
 1184TIP3    H225044   3.848   4.047  15.388  1.4336  0.5673 -0.7356
 1185TIP3   OH225045   0.262   5.037   0.430  0.1059 -0.1566  0.1001
 1185TIP3    H125046   0.286   5.125   0.460 -0.4494 -0.9979  3.4085
 1185TIP3    H225047   0.189   5.012   0.486 -1.1500 -1.9873 -2.1832
 1186TIP3   OH225048   4.477   1.949   1.624  0.0384 -0.1347 -0.3331
 1186TIP3    H125049   4.550   1.887   1.626  0.1170 -0.0528 -0.5724
 1186TIP3    H225050   4.401   1.896   1.601  0.2027 -0.0553 -1.0891
 1187TIP3   OH225051   4.200   4.476  16.521  0.6259  0.1276  0.0872
 1187TIP3    H125052   4.233   4.468  16.431 -0.0721 -0.9213 -0.0969
 1187TIP3    H225053   4.185   4.385  16.548 -2.1696  0.5335  0.1394
 1188TIP3   OH225054   2.047   4.337  13.947 -0.0178 -0.1517  0.6908
 1188TIP3    H125055   2.093   4.255  13.928 -0.3739 -0.1038 -0.4369
 1188TIP3    H225056   1.995   4.354  13.869  1.0402  1.8426  0.3627
 1189TIP3   OH225057   2.515   0.413  12.296  0.4878  0.4353 -0.0108
 1189TIP3    H125058   2.576   0.435  12.366 -0.1061 -0.0020  0.6604
 1189TIP3    H225059   2.444   0.366  12.340  1.4886 -2.5065 -1.2492
 1190TIP3   OH225060   1.588   1.244  12.810  0.4635  0.4017  0.5967
 1190TIP3    H125061   1.566   1.256  12.902 -0.2994 -1.3908  0.6711
 1190TIP3    H225062   1.514   1.284  12.763  0.5900  0.8340  0.7582
 1191TIP3   OH225063   5.120   1.660  16.326 -0.5381 -0.1163 -0.7264
 1191TIP3    H125064   5.106   1.567  16.305  0.0451 -0.4742  0.3683
 1191TIP3    H225065   5.206   1.679  16.288  0.2620 -0.6076  0.7715
 1192TIP3   OH225066   0.858   6.020  11.399  0.2661 -0.1737  0.2127
 1192TIP3    H125067   0.810   6.101  11.381 -0.7349 -0.8632 -0.2680
 1192TIP3    H225068   0.931   6.021  11.337  2.3830  2.0416  2.4875
 1193TIP3   OH225069   1.250   5.032   5.279 -0.1230  0.1133  0.4300
 1193TIP3    H125070   1.345   5.022   5.291  0.0030 -1.9474 -1.5830
 1193TIP3    H225071   1.214   4.947   5.303 -1.1897  0.1647 -0.8609
 1194TIP3   OH225072   2.431   6.382   2.376 -0.1154  0.8339 -0.2350
 1194TIP3    H125073   2.372   6.375   2.451  0.8496 -1.6410  0.4000
 1194TIP3    H225074   2.425   6.473   2.349 -1.3280  1.5496  2.1745
 1195TIP3   OH225075   5.780   2.034   0.391 -0.1001  0.2623 -0.0778
 1195TIP3    H125076   5.813   2.122   0.411 -1.7216  1.3436 -1.8441
 1195TIP3    H225077   5.785   2.028   0.295 -0.5718 -1.3526 -0.0306
 1196TIP3   OH225078   0.493   2.437  16.327  0.1392  0.3410 -0.2149
 1196TIP3    H125079   0.459   2.526  16.315 -0.3251  0.2598  0.4393
 1196TIP3    H225080   0.551   2.443  16.402  1.2804  0.3879 -1.0742
 1197TIP3   OH225081   4.402   1.327  13.823  0.3113 -0.2022  0.2589
 1197TIP3    H125082   4.400   1.299  13.731  2.1915 -0.5679  0.2712
 1197TIP3    H225083   4.368   1.416  13.822  0.6686 -0.0596 -0.8731
 1198TIP3   OH225084   6.321   2.184   0.914  0.2265 -0.0104  0.9762
 1198TIP3    H125085   6.402   2.186   0.863 -0.1217  0.0812  0.4231
 1198TIP3    H225086   6.293   2.093   0.911 -1.0161  0.3889 -0.9574
 1199TIP3   OH225087   6.294   5.386  17.055 -0.6050 -0.2259 -0.0871
 1199TIP3    H125088   6.260   5.379  16.966  2.0556 -1.3872 -1.1266
 1199TIP3    H225089   6.346   5.306  17.067  0.2212  0.5513  2.0073
 1200TIP3   OH225090   0.507   4.915   3.459  0.2781  0.4197  0.7763
 1200TIP3    H125091   0.512   4.841   3.520  0.2793 -1.3573 -1.2772
 1200TIP3    H225092   0.589   4.912   3.410  0.7328  2.4682  1.3306
 1201TIP3   OH225093   3.395   0.728  11.042 -0.2121  0.0592  0.2393
 1201TIP3    H125094   3.485   0.707  11.016 -0.8756 -0.3799 -1.9071
 1201TIP3    H225095   3.370   0.802  10.987 -1.1543  0.2253  0.8613
 1202TIP3   OH225096   4.607   0.113   5.834  0.2226 -0.8754 -0.0365
 1202TIP3    H125097   4.648   0.116   5.748  1.0716 -1.0034  0.3534
 1202TIP3    H225098   4.665   0.058   5.887  0.0058 -0.3610  0.7643
 1203TIP3   OH225099   0.388   1.615   2.436 -0.3275 -0.5558  0.3720
 1203TIP3    H125100   0.463   1.654   2.480  1.5482 -1.3230 -1.8856
 1203TIP3    H225101   0.315   1.672   2.457  0.9629  0.4784  2.3376
 1204TIP3   OH225102   0.920   6.045   0.161 -0.5343  0.4719  0.5422
 1204TIP3    H125103   0.834   6.025   0.198 -0.9443  0.8029 -0.2100
 1204TIP3    H225104   0.981   5.997   0.216 -1.2934 -0.7791  0.3369
 1205TIP3   OH225105   4.351   5.056   6.606  0.0611  0.0435 -0.2398
 1205TIP3    H125106   4.414   5.044   6.536  0.1835  1.0788 -0.3294
 1205TIP3    H225107   4.267   5.067   6.561  0.0081 -0.1564 -0.1864
 1206TIP3   OH225108   6.359   3.030   2.874 -0.2115 -0.1767  0.0682
 1206TIP3    H125109   6.442   3.078   2.878 -0.7294  0.8924 -1.1606
 1206TIP3    H225110   6.372   2.955   2.932  1.9218 -0.5216 -0.7447
 1207TIP3   OH225111   1.473   2.722  11.496 -0.0390 -1.0214 -0.3299
 1207TIP3    H125112   1.568   2.710  11.500  0.3516  1.6461  0.4458
 1207TIP3    H225113   1.438   2.671  11.568  0.7628 -2.2027 -0.7609
 1208TIP3   OH225114   1.577   3.536   5.956 -0.4181 -0.1835  0.2664
 1208TIP3    H125115   1.658   3.527   5.906  0.2495 -2.2293  1.6067
 1208TIP3    H225116   1.511   3.561   5.890  1.0485  0.4707 -1.0218
 1209TIP3   OH225117   3.861   5.086  12.580 -0.2033 -0.5319 -0.2488
 1209TIP3    H125118   3.864   5.173  12.540  2.0231 -0.0255  0.8546
 1209TIP3    H225119   3.931   5.038  12.536 -0.2695 -1.1992  0.3613
 1210TIP3   OH225120   0.332   6.709   1.101 -0.3774  0.2290 -0.2993
 1210TIP3    H125121   0.391   6.779   1.132 -0.3425 -0.1801  0.5884
 1210TIP3    H225122   0.382   6.629   1.114  0.6117  0.1383 -3.6812
 1211TIP3   OH225123   4.291   6.385  15.324 -0.0353 -0.5718  0.0195
 1211TIP3    H125124   4.246   6.301  15.338 -1.1959 -0.0460 -0.4287
 1211TIP3    H225125   4.349   6.369  15.250  0.0556 -1.0865  0.1972
 1212TIP3   OH225126   4.181   5.983   5.336 -0.0583  0.2372 -0.0102
 1212TIP3    H125127   4.088   5.994   5.353  0.4212 -0.1199  3.7784
 1212TIP3    H225128   4.221   6.065   5.365  0.9050 -0.0623 -0.4369
 1213TIP3   OH225129   4.552   4.113   4.356  0.5082  0.2024  0.1145
 1213TIP3    H125130   4.550   4.202   4.322 -0.5592  0.4372  0.7190
 1213TIP3    H225131   4.469   4.075   4.328  0.9529 -0.6033 -0.1302
 1214TIP3   OH225132   2.852   3.626   4.324 -0.8077  0.2907 -0.1058
 1214TIP3    H125133   2.783   3.673   4.277 -1.1958  0.0375  0.1969
 1214TIP3    H225134   2.860   3.672   4.407  0.3094  1.1151 -0.6430
 1215TIP3   OH225135   4.300   1.728   0.729  0.3136 -0.2984 -0.0999
 1215TIP3    H125136   4.298   1.788   0.804 -2.3444 -0.7900  0.3532
 1215TIP3    H225137   4.209   1.696   0.722  1.2910 -3.1984 -1.1586
 1216TIP3   OH225138   2.034   2.354   3.318 -0.0983  0.0866  0.3695
 1216TIP3    H125139   2.032   2.337   3.412  1.9379 -1.0292  0.2701
 1216TIP3    H225140   1.942   2.361   3.293 -0.7662 -1.5102  2.1138
 1217TIP3   OH225141   2.771   0.892  15.617  0.1609 -0.8797  0.0872
 1217TIP3    H125142   2.812   0.933  15.694 -1.7425 -0.0874  0.7237
 1217TIP3    H225143   2.843   0.844  15.575  2.5598  3.0492 -0.7383
 1218TIP3   OH225144   1.392   4.507  11.376 -0.2768 -0.3279  0.3474
 1218TIP3    H125145   1.380   4.521  11.470  0.1912 -0.8251  0.4886
 1218TIP3    H225146   1.448   4.579  11.348  0.1508 -0.5663  0.5884
 1219TIP3   OH225147   3.018   0.294  12.687  0.0888 -0.0944  0.2966
 1219TIP3    H125148   2.962   0.272  12.613 -1.5783 -0.9143  1.7192
 1219TIP3    H225149   2.987   0.379  12.717  0.7299  0.2194  0.0834
 1220TIP3   OH225150   1.237   3.832  17.149  0.4200 -0.0369  0.1693
 1220TIP3    H125151   1.307   3.896  17.134  0.1095  0.6060  1.2636
 1220TIP3    H225152   1.280   3.760  17.195  0.9480 -1.0556 -1.8284
 1221TIP3   OH225153   0.868   1.218   5.799 -0.3001 -0.4853  0.0748
 1221TIP3    H125154   0.817   1.283   5.847 -1.6847 -2.0404  0.8129
 1221TIP3    H225155   0.957   1.225   5.834 -0.2284  1.4427 -0.3728
 1222TIP3   OH225156   3.457   4.208   1.460 -0.3382  0.5499  0.0931
 1222TIP3    H125157   3.420   4.266   1.527 -0.7225 -1.1077  1.3834
 1222TIP3    H225158   3.384   4.153   1.433  0.2887 -0.1464 -0.2077
 1223TIP3   OH225159   1.929   6.590  13.187 -0.3291 -0.4282  0.5647
 1223TIP3    H125160   2.009   6.572  13.235 -0.2818  0.6536  0.9328
 1223TIP3    H225161   1.948   6.670  13.137 -0.8617 -0.7000 -0.0977
 1224TIP3   OH225162   4.906   2.110  13.019 -0.0279 -0.1913 -0.3631
 1224TIP3    H125163   4.872   2.039  13.075 -1.2416 -0.0222 -0.8474
 1224TIP3    H225164   4.996   2.084  12.999  0.3978 -0.3089  1.5626
 1225TIP3   OH225165   5.771   2.103  10.899  0.9332  0.4301 -0.7571
 1225TIP3    H125166   5.706   2.033  10.907  1.7518 -0.1333  2.6053
 1225TIP3    H225167   5.719   2.183  10.909  0.5863 -0.0163  2.0791
 1226TIP3   OH225168   0.316   0.818   1.701  0.0852  0.5312  0.2677
 1226TIP3    H125169   0.357   0.836   1.786 -0.3520 -1.1499  0.8789
 1226TIP3    H225170   0.237   0.769   1.723  0.7970 -1.3758 -1.1758
 1227TIP3   OH225171   0.058   0.483  16.247  0.1467  0.2404  0.3797
 1227TIP3    H125172   0.119   0.542  16.292 -0.2301  1.2876 -0.4301
 1227TIP3    H225173   0.114   0.428  16.192  0.5589 -0.6416  1.6641
 1228TIP3   OH225174   1.969   4.092   6.198  0.0591  0.5539 -0.0199
 1228TIP3    H125175   2.015   4.016   6.235 -1.2257 -0.1329  0.2108
 1228TIP3    H225176   2.010   4.167   6.241  2.1748  0.1187 -1.1272
 1229TIP3   OH225177   1.730   4.951  12.987  0.0455 -0.1648  0.3897
 1229TIP3    H125178   1.800   4.904  12.942  0.6985  1.3352 -0.2338
 1229TIP3    H225179   1.651   4.932  12.937  0.3904 -0.1757 -0.1508
 1230TIP3   OH225180   2.664   0.943  15.900 -0.5638  0.4893 -0.1491
 1230TIP3    H125181   2.707   0.869  15.944 -0.7529  0.2009 -0.4427
 1230TIP3    H225182   2.735   1.005  15.882  0.2452 -1.1023 -2.9848
 1231TIP3   OH225183   1.781   0.898   1.152 -0.5571  0.7428 -0.4123
 1231TIP3    H125184   1.688   0.887   1.171 -0.6687  1.8279 -0.2695
 1231TIP3    H225185   1.818   0.935   1.233  0.0615  0.0111 -0.3546
 1232TIP3   OH225186   5.730   6.366   4.380 -0.7441 -0.1022 -0.2770
 1232TIP3    H125187   5.751   6.274   4.395 -3.6233 -0.5724  1.8896
 1232TIP3    H225188   5.751   6.409   4.463  2.6272  1.7734 -1.9295
 1233TIP3   OH225189   3.090   2.498   1.724 -0.0723  0.0813 -0.0802
 1233TIP3    H125190   2.998   2.488   1.702  0.0597 -1.2988 -0.1168
 1233TIP3    H225191   3.135   2.440   1.662  0.7261 -0.0418  0.6011
 1234TIP3   OH225192   6.262   0.772  13.980  0.5033  0.2304 -0.4165
 1234TIP3    H125193   6.224   0.715  14.046  0.7596 -0.0852 -0.5366
 1234TIP3    H225194   6.347   0.797  14.016  2.5591 -3.2223 -2.2745
 1235TIP3   OH225195   6.306   1.592   2.522 -0.0020 -0.0946 -0.1136
 1235TIP3    H125196   6.286   1.553   2.607  1.3798  0.7197  0.6153
 1235TIP3    H225197   6.399   1.574   2.508  0.3962  1.9108 -0.2838
 1236TIP3   OH225198   1.360   5.565  13.933 -0.5161 -0.4549  0.6305
 1236TIP3    H125199   1.363   5.581  13.838 -0.0597 -1.2334  0.5060
 1236TIP3    H225200   1.266   5.559  13.952 -0.7443  2.1129  0.6778
 1237TIP3   OH225201   0.831   6.533  12.716 -0.1771  0.0140  0.0409
 1237TIP3    H125202   0.774   6.553  12.790  0.7195  0.0691  0.7359
 1237TIP3    H225203   0.918   6.563  12.744  0.2232 -0.2076 -0.9287
 1238TIP3   OH225204   0.939   5.871  16.354 -0.2965 -0.3743 -0.2131
 1238TIP3    H125205   0.906   5.960  16.359  0.4541  0.0184 -1.5740
 1238TIP3    H225206   0.880   5.827  16.292 -0.8920 -0.9461  0.7418
 1239TIP3   OH225207   6.608   5.199  17.162  0.6496 -0.4642 -0.3363
 1239TIP3    H125208   6.582   5.138  17.231  2.0803  0.1249  0.7766
 1239TIP3    H225209   6.669   5.259  17.205 -0.8411  1.9077 -1.3192
 1240TIP3   OH225210   2.710   1.093  14.988 -0.3772  0.1153  0.0777
 1240TIP3    H125211   2.665   1.092  15.072 -0.1180  0.4810  0.2214
 1240TIP3    H225212   2.763   1.013  14.989  0.8859  0.9349  0.9567
 1241TIP3   OH225213   5.816   5.061  14.047 -0.1778  0.0058  0.0416
 1241TIP3    H125214   5.868   5.103  14.115 -0.1284 -0.1851  0.1219
 1241TIP3    H225215   5.772   4.989  14.092 -0.1147 -0.1446 -0.1358
 1242TIP3   OH225216   6.001   3.727   5.038  0.2036  0.5125 -0.3427
 1242TIP3    H125217   6.018   3.683   5.122  1.0678 -0.6275 -1.0865
 1242TIP3    H225218   5.938   3.669   4.994  0.0977  0.8706 -0.6644
 1243TIP3   OH225219   2.483   1.769   4.980 -0.4168 -0.2083 -0.0969
 1243TIP3    H125220   2.437   1.835   4.928  1.3573 -0.9813 -2.8644
 1243TIP3    H225221   2.455   1.685   4.943  1.1967 -0.7670 -0.1440
 1244TIP3   OH225222   5.896   4.990  14.497 -0.0914 -0.2358  0.2164
 1244TIP3    H125223   5.957   5.008  14.425  0.0132  0.2916  0.4334
 1244TIP3    H225224   5.828   5.057  14.488  0.1509  0.1073  0.8661
 1245TIP3   OH225225   4.583   1.585   3.537  0.4012 -0.0907  0.0330
 1245TIP3    H125226   4.538   1.558   3.617  1.8418 -0.4693  0.7548
 1245TIP3    H225227   4.529   1.656   3.502 -0.0984  0.3024  1.5078
 1246TIP3   OH225228   2.503   1.466  12.174  0.7395 -0.3804  0.3506
 1246TIP3    H125229   2.481   1.378  12.203  0.4292 -0.3908  0.0905
 1246TIP3    H225230   2.424   1.497  12.130  0.1699  0.7435  2.0780
 1247TIP3   OH225231   2.481   2.311  12.538  0.1886  0.1407 -0.3356
 1247TIP3    H125232   2.525   2.310  12.453 -0.6350 -0.1993 -0.7671
 1247TIP3    H225233   2.438   2.225  12.544 -0.6865  0.5881 -0.0748
 1248TIP3   OH225234   3.186   3.588  16.449 -0.1306 -0.8028  0.0177
 1248TIP3    H125235   3.156   3.560  16.363  1.5304 -0.2144 -0.7962
 1248TIP3    H225236   3.179   3.510  16.504 -0.7001 -1.3275 -0.7785
 1249TIP3   OH225237   4.342   1.921  12.688 -0.5044 -0.3909 -0.3337
 1249TIP3    H125238   4.356   1.850  12.624  1.7030  0.0603 -0.4396
 1249TIP3    H225239   4.342   2.001  12.635  2.5100  0.0922  0.2282
 1250TIP3   OH225240   3.498   3.405  16.392 -0.5147 -0.1808 -0.3348
 1250TIP3    H125241   3.482   3.497  16.414  2.1329  0.2335  0.2241
 1250TIP3    H225242   3.439   3.356  16.450 -0.9378  1.1434  0.3919
 1251TIP3   OH225243   3.551   6.255   2.365 -0.0684  0.2709 -0.2625
 1251TIP3    H125244   3.552   6.344   2.331  1.1896 -0.0154 -1.0212
 1251TIP3    H225245   3.501   6.261   2.447  0.6391  1.8127  0.0862
 1252TIP3   OH225246   6.478   1.187   3.770 -0.0386 -0.5776 -0.2504
 1252TIP3    H125247   6.557   1.139   3.793 -0.8102 -2.5592 -1.5211
 1252TIP3    H225248   6.431   1.130   3.709 -2.3256  0.6398  0.2272
 1253TIP3   OH225249   1.930   1.379   0.863  0.1279 -0.5150 -0.1988
 1253TIP3    H125250   1.918   1.452   0.924  0.6728  0.0944 -0.8164
 1253TIP3    H225251   2.004   1.331   0.898  1.3758  0.6552 -1.1471
 1254TIP3   OH225252   3.173   0.470   3.067 -0.6065 -0.9203 -0.1988
 1254TIP3    H125253   3.167   0.440   3.158  2.1474  1.9991  1.1267
 1254TIP3    H225254   3.122   0.551   3.066  0.9221  0.0621 -0.7082
 1255TIP3   OH225255   4.987   0.998  12.297  0.3004  0.0773  0.0189
 1255TIP3    H125256   4.921   1.000  12.227 -1.0324  1.2694  1.2302
 1255TIP3    H225257   5.061   1.046  12.262  1.0344 -2.1664 -1.7699
 1256TIP3   OH225258   2.030   6.704   1.589 -0.4922 -0.1731  0.1986
 1256TIP3    H125259   2.065   6.627   1.544  0.0273  0.3035 -0.2489
 1256TIP3    H225260   1.974   6.670   1.658  0.6456 -0.9724  0.7572
 1257TIP3   OH225261   2.809   3.011   0.611 -0.4840  0.8619 -0.6377
 1257TIP3    H125262   2.893   3.056   0.614 -1.1451  2.0965  0.5163
 1257TIP3    H225263   2.831   2.922   0.584  1.1737  1.1838 -0.4769
 1258TIP3   OH225264   2.807   3.424  14.280 -0.1860 -0.0170  0.2766
 1258TIP3    H125265   2.831   3.462  14.364  0.7364 -1.6637  0.8024
 1258TIP3    H225266   2.711   3.423  14.280 -0.2218  1.4439  0.5994
 1259TIP3   OH225267   3.766   1.551   3.825 -0.1903  0.0066 -0.0357
 1259TIP3    H125268   3.831   1.504   3.879  0.8228  1.0304 -0.3311
 1259TIP3    H225269   3.731   1.618   3.884 -1.2808 -0.7578  0.2318
 1260TIP3   OH225270   6.384   1.823  15.131  0.2686  0.2509 -0.5744
 1260TIP3    H125271   6.291   1.842  15.149 -0.7444 -2.3211 -2.5002
 1260TIP3    H225272   6.418   1.793  15.215 -1.9655 -3.1594 -0.6922
 1261TIP3   OH225273   5.760   0.189  14.330 -0.3259  0.3946 -0.8020
 1261TIP3    H125274   5.700   0.198  14.404  1.3375  0.3878  0.6414
 1261TIP3    H225275   5.704   0.187  14.253 -2.1012  1.2163  0.3919
 1262TIP3   OH225276   5.052   4.730   4.881 -0.1723  0.0708  0.3032
 1262TIP3    H125277   4.971   4.779   4.892 -1.3897 -1.9222  0.7438
 1262TIP3    H225278   5.087   4.760   4.797 -1.6993  0.5069 -0.2076
 1263TIP3   OH225279   2.583   0.122  11.789 -0.9204  0.1875  0.1091
 1263TIP3    H125280   2.582   0.142  11.695 -2.7492 -0.1923 -0.0067
 1263TIP3    H225281   2.578   0.026  11.793 -1.2914  0.2204  0.5809
 1264TIP3   OH225282   2.021   5.316  16.094  1.0799 -0.1781 -0.3215
 1264TIP3    H125283   2.070   5.263  16.157  0.2146 -0.6286 -0.0076
 1264TIP3    H225284   1.953   5.258  16.061 -0.3780  0.9165  0.5900
 1265TIP3   OH225285   4.489   1.997  16.251 -0.0462 -0.1198  0.2773
 1265TIP3    H125286   4.575   1.967  16.223 -0.1946  0.0053 -0.3381
 1265TIP3    H225287   4.506   2.081  16.294  0.0333  0.4453 -0.8225
 1266TIP3   OH225288   0.869   3.947   1.138 -0.3222 -0.8786  0.3723
 1266TIP3    H125289   0.909   3.864   1.115  2.8960  0.8578 -1.0477
 1266TIP3    H225290   0.924   3.983   1.207  1.3056  1.9096 -2.0921
 1267TIP3   OH225291   0.691   5.426   3.992 -1.1248 -0.2921 -0.8798
 1267TIP3    H125292   0.634   5.492   4.032  2.4052  1.2555  2.2852
 1267TIP3    H225293   0.696   5.356   4.057  0.8907 -0.1147 -0.7766
 1268TIP3   OH225294   5.604   6.612  12.140 -0.0602  0.4047 -0.2167
 1268TIP3    H125295   5.533   6.617  12.204 -0.0338 -1.9763  0.0835
 1268TIP3    H225296   5.684   6.623  12.192 -0.1233  0.8441 -0.2110
 1269TIP3   OH225297   5.278   1.870  15.602 -0.5545  0.0494  0.0172
 1269TIP3    H125298   5.279   1.926  15.524  0.4394 -0.6753 -0.5130
 1269TIP3    H225299   5.325   1.791  15.575 -1.2004 -0.6990  1.0046
 1270TIP3   OH225300   0.110   1.469   2.674 -0.0143  0.6284 -0.3928
 1270TIP3    H125301   0.160   1.548   2.692  2.6949 -0.9019 -0.5493
 1270TIP3    H225302   0.131   1.411   2.747  0.1453 -0.8080 -1.5314
 1271TIP3   OH225303   5.585   3.321  13.748 -0.4178 -0.1861 -0.0613
 1271TIP3    H125304   5.528   3.356  13.679  0.1399  1.3148  0.1942
 1271TIP3    H225305   5.659   3.382  13.750  1.2253 -2.0471 -0.3759
 1272TIP3   OH225306   5.207   3.472   3.342  0.4892  0.2372  0.3989
 1272TIP3    H125307   5.123   3.432   3.364 -0.4662  0.3609 -2.5918
 1272TIP3    H225308   5.185   3.560   3.313  1.3434 -0.3507 -2.2845
 1273TIP3   OH225309   1.748   4.613  12.711  0.0302  0.0143  0.0302
 1273TIP3    H125310   1.725   4.706  12.703  2.0721  0.4430 -1.5576
 1273TIP3    H225311   1.795   4.607  12.794  1.2837  0.7520 -0.6026
 1274TIP3   OH225312   2.887   2.036   2.935 -0.3514  0.6587 -0.3610
 1274TIP3    H125313   2.982   2.038   2.928 -0.3147 -0.6967 -0.6243
 1274TIP3    H225314   2.871   1.995   3.021 -0.6789  0.0841 -0.6901
 1275TIP3   OH225315   5.416   4.177   2.084  0.2078 -0.2634  0.1994
 1275TIP3    H125316   5.450   4.267   2.078  1.9227 -0.8415  0.7193
 1275TIP3    H225317   5.466   4.137   2.154 -0.2853 -1.7503 -0.2680
 1276TIP3   OH225318   0.326   0.801   4.784  0.3782 -0.4311  0.0650
 1276TIP3    H125319   0.242   0.795   4.739  0.6428 -1.8488 -0.3246
 1276TIP3    H225320   0.369   0.718   4.763  1.4354 -0.1748  1.1294
 1277TIP3   OH225321   0.966   4.525  13.897  0.2897  0.1482 -0.0085
 1277TIP3    H125322   1.000   4.611  13.923  1.7059 -0.6207  0.8110
 1277TIP3    H225323   1.045   4.471  13.883 -0.5546 -0.8332 -1.1794
 1278TIP3   OH225324   1.768   5.668   3.183 -0.2340  0.0043  0.4422
 1278TIP3    H125325   1.721   5.644   3.103 -0.8311 -1.6550  1.2368
 1278TIP3    H225326   1.720   5.743   3.217 -0.0611  0.6375 -0.6581
 1279TIP3   OH225327   2.241   5.340  15.014  0.6772 -0.1294  0.1911
 1279TIP3    H125328   2.270   5.363  15.102 -0.3067  2.3284 -0.0645
 1279TIP3    H225329   2.302   5.385  14.955  0.7531 -0.9740 -0.4006
 1280TIP3   OH225330   0.780   1.574  15.203  0.1278 -0.0222 -0.6570
 1280TIP3    H125331   0.800   1.494  15.252 -0.7253  0.0520 -0.1667
 1280TIP3    H225332   0.684   1.577  15.202  0.1515  1.3331 -0.0966
 1281TIP3   OH225333   5.280   0.603   1.464 -0.0981  0.5884  0.6395
 1281TIP3    H125334   5.189   0.595   1.436  0.4968  0.2834 -1.3966
 1281TIP3    H225335   5.316   0.515   1.453  0.4819  0.7411  1.2785
 1282TIP3   OH225336   2.509   5.897   5.807 -0.2232 -0.4133 -0.3068
 1282TIP3    H125337   2.490   5.990   5.823 -1.1050 -0.6925  0.3711
 1282TIP3    H225338   2.601   5.887   5.830  0.1663  0.4940 -1.3546
 1283TIP3   OH225339   4.110   3.171   1.648 -0.4321 -0.2169 -0.3379
 1283TIP3    H125340   4.191   3.154   1.599  0.7540 -2.0295  2.0477
 1283TIP3    H225341   4.093   3.264   1.635  1.0464 -0.1605 -2.3103
 1284TIP3   OH225342   3.005   3.786  11.641  0.3603  0.1062 -0.7909
 1284TIP3    H125343   2.979   3.812  11.553 -0.2511  1.4742 -0.2388
 1284TIP3    H225344   2.930   3.736  11.674  0.3595  0.0594 -0.8654
 1285TIP3   OH225345   4.920   6.380  14.339  0.3749  0.5289 -0.3850
 1285TIP3    H125346   4.921   6.475  14.345  1.5235  0.5883 -1.1704
 1285TIP3    H225347   4.877   6.361  14.256  0.2855  0.3673 -0.3031
 1286TIP3   OH225348   0.458   5.009  14.839  0.4767  0.0837  0.3178
 1286TIP3    H125349   0.474   5.055  14.757  0.1090 -1.4864 -0.6822
 1286TIP3    H225350   0.414   4.928  14.813 -0.3233 -0.1063  2.1433
 1287TIP3   OH225351   5.081   5.114  16.423  0.2939  0.3609 -0.4897
 1287TIP3    H125352   5.044   5.147  16.504  0.8292 -2.2546  0.9122
 1287TIP3    H225353   5.176   5.123  16.434  0.3518  0.8007 -1.2304
 1288TIP3   OH225354   4.808   3.226   2.835 -0.1731 -0.8604  0.5159
 1288TIP3    H125355   4.873   3.215   2.904  1.0467  2.5589  0.1075
 1288TIP3    H225356   4.747   3.291   2.871  0.8582  1.5167 -1.7200
 1289TIP3   OH225357   5.268   4.737  14.032 -0.2369 -0.2330  0.4086
 1289TIP3    H125358   5.173   4.731  14.040 -0.2887 -0.3252 -0.1785
 1289TIP3    H225359   5.285   4.829  14.010  0.0155  0.3581  2.8328
 1290TIP3   OH225360   3.295   0.955   3.730 -0.7975  0.9312  0.2773
 1290TIP3    H125361   3.277   0.869   3.767  0.8448 -0.2419 -1.4924
 1290TIP3    H225362   3.338   1.003   3.801 -1.3625  0.1714  1.1562
 1291TIP3   OH225363   2.262   1.254  12.833  0.4441  0.2351  0.1460
 1291TIP3    H125364   2.307   1.338  12.826 -0.4637  0.6618 -0.8388
 1291TIP3    H225365   2.262   1.234  12.927 -0.1552  1.7941  0.5048
 1292TIP3   OH225366   5.154   2.630  14.996  0.1380 -0.2077 -0.7315
 1292TIP3    H125367   5.162   2.657  15.088  0.0872 -1.9648 -0.1694
 1292TIP3    H225368   5.086   2.686  14.960 -1.0817 -0.6136  0.8028
 1293TIP3   OH225369   0.478   2.212  16.904  0.2280 -0.3970  0.2146
 1293TIP3    H125370   0.390   2.222  16.940  1.0551 -0.5717  2.4735
 1293TIP3    H225371   0.479   2.267  16.826 -1.7646 -0.1265  0.3380
 1294TIP3   OH225372   4.977   6.790   2.889 -0.3770  0.2034  0.5690
 1294TIP3    H125373   4.926   6.718   2.925  0.9605  0.4080  3.1084
 1294TIP3    H225374   5.053   6.748   2.848 -0.1033  0.1179  1.1609
 1295TIP3   OH225375   5.670   5.313   1.435  0.4615 -0.4605  0.0321
 1295TIP3    H125376   5.656   5.401   1.470 -1.3668 -0.9827  0.7258
 1295TIP3    H225377   5.584   5.271   1.440  0.5997 -1.3498 -3.0155
 1296TIP3   OH225378   5.537   4.769   4.314 -0.3235  0.0632  0.1231
 1296TIP3    H125379   5.517   4.754   4.222  1.4782  0.0153 -0.2977
 1296TIP3    H225380   5.465   4.824   4.346 -1.0732 -0.0834 -1.2367
 1297TIP3   OH225381   5.459   0.443   1.149 -0.5476 -0.3318 -0.3966
 1297TIP3    H125382   5.536   0.493   1.174 -1.5930  1.2534 -0.2476
 1297TIP3    H225383   5.430   0.483   1.067 -0.5381 -1.6921 -1.0918
 1298TIP3   OH225384   5.977   4.712  11.460  0.5762 -0.2767  0.5370
 1298TIP3    H125385   6.010   4.649  11.525 -0.6369 -2.0136 -0.4494
 1298TIP3    H225386   5.882   4.705  11.465  0.4394  0.5377 -0.4960
 1299TIP3   OH225387   0.239   3.812   0.358 -0.2825 -0.2660 -0.1352
 1299TIP3    H125388   0.178   3.870   0.403 -0.6301 -0.1668 -0.7245
 1299TIP3    H225389   0.185   3.765   0.294  0.5783  1.3977 -2.2120
 1300TIP3   OH225390   3.494   3.957  14.842 -0.2815  0.0645  0.0032
 1300TIP3    H125391   3.484   3.950  14.747 -0.8854 -1.4112  0.1530
 1300TIP3    H225392   3.417   3.914  14.878  0.0771  0.3542  1.1788
 1301TIP3   OH225393   0.520   2.298   6.115  0.2933 -0.7650 -0.4044
 1301TIP3    H125394   0.479   2.333   6.194  1.7204 -0.5456  0.2832
 1301TIP3    H225395   0.543   2.375   6.063  2.9484 -0.6044  0.8610
 1302TIP3   OH225396   0.885   4.588   5.391  0.3832  0.0333 -0.3727
 1302TIP3    H125397   0.859   4.643   5.465 -1.0424 -0.1370 -0.7133
 1302TIP3    H225398   0.848   4.502   5.410  1.5482 -0.4915 -0.4316
 1303TIP3   OH225399   4.632   1.443  16.893  0.4711  0.2972 -0.0087
 1303TIP3    H125400   4.572   1.371  16.871  1.5001  0.5870 -4.8808
 1303TIP3    H225401   4.716   1.415  16.858  2.0234  2.0936  2.0474
 1304TIP3   OH225402   4.171   1.195   0.667 -0.0483 -0.1827 -0.1493
 1304TIP3    H125403   4.106   1.125   0.677 -0.4761  0.3819  1.2930
 1304TIP3    H225404   4.254   1.156   0.694 -0.0633 -0.4793 -0.5317
 1305TIP3   OH225405   2.775   2.110   0.902  0.0246 -0.4195  0.0966
 1305TIP3    H125406   2.727   2.168   0.961  1.1138 -0.6084  1.1985
 1305TIP3    H225407   2.708   2.078   0.841 -1.0875 -0.0328  1.0709
 1306TIP3   OH225408   3.538   5.123  15.119  0.2355  0.6828  0.3768
 1306TIP3    H125409   3.498   5.094  15.201 -0.1212  0.7120  0.2156
 1306TIP3    H225410   3.631   5.136  15.141 -0.3669  3.8241  1.6428
 1307TIP3   OH225411   5.333   4.345   3.143  0.5301  0.0611  0.1243
 1307TIP3    H125412   5.402   4.359   3.078  1.2225  1.1995  1.0575
 1307TIP3    H225413   5.377   4.297   3.214 -0.5738 -2.5171 -0.8077
 1308TIP3   OH225414   6.539   2.911  12.419 -0.0858 -0.0106 -0.6849
 1308TIP3    H125415   6.473   2.969  12.381  0.4554  1.1505  0.1170
 1308TIP3    H225416   6.491   2.859  12.484 -0.1690  1.0373  0.1087
 1309TIP3   OH225417   4.838   0.723  13.984 -0.2787  0.4623  0.0550
 1309TIP3    H125418   4.915   0.778  13.996  0.0135  0.1668 -0.4090
 1309TIP3    H225419   4.823   0.682  14.069  0.9264 -0.5537 -0.1921
 1310TIP3   OH225420   6.383   1.248  16.929 -0.2132 -0.5777 -0.0666
 1310TIP3    H125421   6.394   1.281  16.839 -0.9255 -3.5869 -1.4070
 1310TIP3    H225422   6.456   1.285  16.977  0.5111  0.7252 -2.0271
 1311TIP3   OH225423   1.875   5.789   2.316 -0.0581  0.4114  0.1709
 1311TIP3    H125424   1.899   5.780   2.408  1.3759  0.3264 -0.1992
 1311TIP3    H225425   1.807   5.722   2.302 -0.1939  0.3387  1.1165
 1312TIP3   OH225426   3.077   6.214   1.771 -0.2130  0.4183 -0.6038
 1312TIP3    H125427   3.067   6.289   1.829 -1.3143 -0.2767  0.1341
 1312TIP3    H225428   3.130   6.247   1.698  0.2703  1.5931  0.2514
 1313TIP3   OH225429   3.942   3.071  12.034  0.0901 -0.3582 -0.8315
 1313TIP3    H125430   3.878   3.113  12.091 -0.0090 -1.7063  0.1024
 1313TIP3    H225431   4.021   3.064  12.088  1.2606  1.7460 -2.1285
 1314TIP3   OH225432   0.641   4.032   4.990 -0.0356 -0.4058 -0.4793
 1314TIP3    H125433   0.646   4.087   4.913 -2.3058 -0.0983 -0.4815
 1314TIP3    H225434   0.647   3.942   4.957  1.1808 -0.2414 -0.7396
 1315TIP3   OH225435   1.343   0.609  16.456 -0.0010 -0.7719 -0.0830
 1315TIP3    H125436   1.260   0.569  16.430 -0.5734 -0.0283  0.5406
 1315TIP3    H225437   1.385   0.543  16.512  0.1528 -1.4214 -0.9448
 1316TIP3   OH225438   2.777   5.001  13.672 -0.6945 -0.0881 -0.4194
 1316TIP3    H125439   2.729   5.066  13.723  0.0503  0.3366 -0.2456
 1316TIP3    H225440   2.848   5.050  13.631 -1.3095 -0.3962 -1.9402
 1317TIP3   OH225441   4.525   0.587   2.275  0.6786 -0.3371 -0.5802
 1317TIP3    H125442   4.538   0.682   2.273 -0.4590 -0.1486 -0.0931
 1317TIP3    H225443   4.445   0.576   2.326  0.3779 -1.5187 -1.2848
 1318TIP3   OH225444   2.923   2.562  15.360 -0.1706 -0.2870  0.1420
 1318TIP3    H125445   2.829   2.581  15.354 -0.7113 -2.5458  0.6424
 1318TIP3    H225446   2.963   2.647  15.377 -1.9810  0.9248 -1.2436
 1319TIP3   OH225447   3.645   5.180   1.021 -0.6433 -0.5335  0.0117
 1319TIP3    H125448   3.554   5.206   1.033 -0.3747  0.6344 -0.3330
 1319TIP3    H225449   3.645   5.127   0.941 -0.5522  2.4160 -2.1138
 1320TIP3   OH225450   0.764   6.558  13.581  0.4573  0.5683 -0.0112
 1320TIP3    H125451   0.750   6.637  13.529 -1.6117  0.3277  0.1248
 1320TIP3    H225452   0.689   6.502  13.562  1.9858 -1.5251 -0.2901
 1321TIP3   OH225453   2.245   4.827   0.755 -0.1951 -0.1380  0.0664
 1321TIP3    H125454   2.275   4.812   0.844  1.5519 -0.3789 -0.5233
 1321TIP3    H225455   2.284   4.756   0.704 -0.5224  0.4297 -1.0168
 1322TIP3   OH225456   6.581   2.904  14.521 -0.5088 -0.4957 -0.0967
 1322TIP3    H125457   6.655   2.961  14.501 -0.6824 -0.3469 -0.3260
 1322TIP3    H225458   6.582   2.895  14.616 -0.3356 -0.3068 -0.0806
 1323TIP3   OH225459   6.252   6.094  17.071 -0.4059  0.5330 -0.4254
 1323TIP3    H125460   6.304   6.047  17.006 -1.3378  0.7261 -1.3564
 1323TIP3    H225461   6.260   6.042  17.151  0.8603  0.3453 -0.6566
 1324TIP3   OH225462   4.895   6.662  14.392 -0.2617 -0.2406  0.2093
 1324TIP3    H125463   4.941   6.723  14.332 -1.1904  1.8260  1.4865
 1324TIP3    H225464   4.962   6.638  14.456 -0.0192 -0.1422 -0.0004
 1325TIP3   OH225465   0.627   0.529   1.224 -0.1760 -0.5691  0.5957
 1325TIP3    H125466   0.573   0.453   1.248  0.8449 -1.0350  1.5028
 1325TIP3    H225467   0.716   0.503   1.246  0.4728  0.1194 -1.0384
 1326TIP3   OH225468   6.445   0.354   1.111  0.2740 -0.4361  0.4363
 1326TIP3    H125469   6.385   0.405   1.166  0.3374  2.4628 -1.9219
 1326TIP3    H225470   6.392   0.328   1.035  1.4164  0.2827 -0.6454
 1327TIP3   OH225471   1.204   4.197  10.495  0.6204 -0.3719  0.1530
 1327TIP3    H125472   1.235   4.280  10.460  0.4173 -0.7801 -1.0300
 1327TIP3    H225473   1.284   4.148  10.516  0.7432  0.1986  1.1134
 1328TIP3   OH225474   2.695   4.396  16.158  0.1707 -0.6559  0.3082
 1328TIP3    H125475   2.698   4.301  16.148 -1.4733 -1.0287  2.4868
 1328TIP3    H225476   2.786   4.422  16.171  0.5819 -1.9996  0.2963
 1329TIP3   OH225477   3.889   4.111  11.502 -0.0419 -0.1759 -0.0254
 1329TIP3    H125478   3.908   4.028  11.460 -0.2685  0.4526 -1.4151
 1329TIP3    H225479   3.969   4.133  11.549  0.2320 -0.8694 -0.1571
 1330TIP3   OH225480   6.383   6.096   2.887  0.3610  0.3362 -0.0075
 1330TIP3    H125481   6.356   6.185   2.866 -1.3836 -0.4308 -1.2715
 1330TIP3    H225482   6.394   6.095   2.982  1.7685  2.2100 -0.0962
 1331TIP3   OH225483   1.390   4.456   0.081 -0.3243  0.6249 -0.2376
 1331TIP3    H125484   1.482   4.469   0.057  0.0300 -2.5233 -1.1609
 1331TIP3    H225485   1.345   4.533   0.047  2.0998  3.0237  1.6159
 1332TIP3   OH225486   6.775   4.745  13.199  0.6099  0.0307  0.1962
 1332TIP3    H125487   6.689   4.785  13.201 -0.4193 -2.0820  2.2377
 1332TIP3    H225488   6.836   4.818  13.210 -0.9270  1.4599 -0.4288
 1333TIP3   OH225489   5.911   3.667   6.305 -0.2643 -0.3180  0.0433
 1333TIP3    H125490   5.847   3.704   6.366  0.4534  0.8331  0.1259
 1333TIP3    H225491   5.983   3.639   6.361 -0.4137 -1.0229 -0.1095
 1334TIP3   OH225492   0.810   0.751   6.325 -0.1954  0.1923 -0.1711
 1334TIP3    H125493   0.821   0.760   6.419  1.3414 -2.2660 -0.0043
 1334TIP3    H225494   0.774   0.663   6.314 -2.0195  1.0796 -1.8312
 1335TIP3   OH225495   4.167   2.910  15.280  0.1988 -0.6559  0.3700
 1335TIP3    H125496   4.154   3.005  15.289  0.4726 -0.4446 -1.0797
 1335TIP3    H225497   4.179   2.878  15.369  0.0030  0.6569  0.8933
 1336TIP3   OH225498   1.159   4.095  12.229 -0.3982  0.9192 -0.1328
 1336TIP3    H125499   1.116   4.164  12.179 -0.4149 -0.0419 -1.5098
 1336TIP3    H225500   1.247   4.129  12.246 -0.4482  1.3326 -0.6860
 1337TIP3   OH225501   4.720   1.066  10.470  0.2920 -0.1153 -0.2685
 1337TIP3    H125502   4.702   0.983  10.515 -0.2163 -1.0653 -2.0834
 1337TIP3    H225503   4.645   1.121  10.489 -0.7981 -1.1623 -1.3418
 1338TIP3   OH225504   3.803   5.141   5.765  0.0041 -0.2163 -0.0738
 1338TIP3    H125505   3.817   5.077   5.695 -1.3955 -0.4074 -0.2058
 1338TIP3    H225506   3.735   5.101   5.820 -1.0034  1.2152 -0.2373
 1339TIP3   OH225507   1.082   2.219  16.053 -0.2461  0.4732  0.2504
 1339TIP3    H125508   0.987   2.229  16.060 -0.3263  0.2359 -0.4381
 1339TIP3    H225509   1.103   2.142  16.106 -0.5485  0.0040 -0.3124
 1340TIP3   OH225510   6.438   6.674  11.188  0.2128 -0.5563 -0.1373
 1340TIP3    H125511   6.478   6.755  11.155  0.2017 -0.6592 -0.4112
 1340TIP3    H225512   6.512   6.622  11.221  0.2716 -0.6088 -0.3462
 1341TIP3   OH225513   2.306   4.029   0.300 -0.3704 -0.3622  0.4234
 1341TIP3    H125514   2.245   4.069   0.238  0.2273 -1.1592 -0.6995
 1341TIP3    H225515   2.292   3.935   0.290  0.0842 -0.5098  1.1437
 1342TIP3   OH225516   3.284   6.416   2.836  0.3406 -0.1188  0.2511
 1342TIP3    H125517   3.256   6.333   2.798 -0.8025  1.1308 -1.8574
 1342TIP3    H225518   3.355   6.445   2.780 -0.5427  1.1922 -0.2351
 1343TIP3   OH225519   6.656   0.089  14.598  0.3307 -0.9264 -0.1703
 1343TIP3    H125520   6.681   0.039  14.675  1.9415 -0.2181 -0.1889
 1343TIP3    H225521   6.739   0.113  14.557 -0.4595 -0.2165 -1.4355
 1344TIP3   OH225522   5.400   4.354   1.781 -0.1413 -0.4782  0.5629
 1344TIP3    H125523   5.351   4.435   1.795 -1.0285 -0.9426  0.2181
 1344TIP3    H225524   5.489   4.374   1.811  0.0046  1.0394 -0.7945
 1345TIP3   OH225525   4.763   5.428  15.195 -0.1845  0.8351 -0.3823
 1345TIP3    H125526   4.836   5.366  15.191 -0.4048  0.6288 -1.3197
 1345TIP3    H225527   4.794   5.504  15.147 -0.2179  1.1517  0.0865
 1346TIP3   OH225528   4.521   3.670  12.838 -0.3548 -0.5335  0.6261
 1346TIP3    H125529   4.469   3.716  12.904 -1.1763  1.2619 -1.1602
 1346TIP3    H225530   4.561   3.597  12.885 -2.3315 -0.3860  2.6742
 1347TIP3   OH225531   4.074   2.446  14.243  0.6416  0.2097  0.0205
 1347TIP3    H125532   4.100   2.486  14.325 -2.1243 -0.5283  1.3839
 1347TIP3    H225533   4.148   2.390  14.218  2.5842  2.4233  0.5511
 1348TIP3   OH225534   4.640   4.187  11.947  0.3007 -0.1237 -0.4178
 1348TIP3    H125535   4.681   4.167  11.863 -1.0242  3.4081 -2.0733
 1348TIP3    H225536   4.714   4.201  12.006  1.2923 -1.1069 -1.3738
 1349TIP3   OH225537   5.875   2.888   4.030  0.4153 -0.2065  0.9603
 1349TIP3    H125538   5.809   2.828   4.063  0.9314 -0.6874  1.1376
 1349TIP3    H225539   5.947   2.831   4.001 -0.7086  0.0095 -2.7352
 1350TIP3   OH225540   4.053   5.878   4.271  0.4324 -0.1490 -0.2160
 1350TIP3    H125541   4.146   5.890   4.252  0.8358 -1.1955  0.9597
 1350TIP3    H225542   4.017   5.839   4.192  1.3907 -1.4308 -0.0500
 1351TIP3   OH225543   5.111   4.434   2.101  0.1312  0.6234  0.5101
 1351TIP3    H125544   5.028   4.442   2.148  0.3748  0.8094  0.9136
 1351TIP3    H225545   5.170   4.393   2.163 -0.0012 -0.6963 -0.2054
 1352TIP3   OH225546   4.664   6.766  12.336 -0.7156 -0.2674  0.0974
 1352TIP3    H125547   4.713   6.796  12.412  0.0262  1.3820 -0.9466
 1352TIP3    H225548   4.610   6.694  12.367  1.4401 -1.3197  1.5882
 1353TIP3   OH225549   2.913   2.994   5.678 -0.2553 -0.0871 -0.2052
 1353TIP3    H125550   2.996   2.975   5.635  0.4665  2.5845 -0.1606
 1353TIP3    H225551   2.886   3.078   5.642 -3.6788 -1.4396 -1.1941
 1354TIP3   OH225552   2.652   6.581   2.304  0.1302 -0.7324  0.2608
 1354TIP3    H125553   2.600   6.598   2.382  1.1737 -0.6119  0.9530
 1354TIP3    H225554   2.675   6.489   2.310 -0.8128 -1.0410 -0.5644
 1355TIP3   OH225555   1.239   3.419  17.171 -0.1888  0.3625 -0.1157
 1355TIP3    H125556   1.190   3.399  17.251  1.5320 -3.4660  0.2118
 1355TIP3    H225557   1.293   3.494  17.194 -2.4554  1.7708  0.9664
 1356TIP3   OH225558   5.183   3.395   1.787  0.2588 -0.3402  0.8909
 1356TIP3    H125559   5.254   3.371   1.727 -0.7378 -1.8810  0.2757
 1356TIP3    H225560   5.103   3.382   1.736 -0.5087  1.4030  1.5519
 1357TIP3   OH225561   2.198   2.623  12.017  0.3226 -0.6633 -0.9713
 1357TIP3    H125562   2.195   2.679  12.094 -1.1176 -1.8656 -0.0782
 1357TIP3    H225563   2.122   2.649  11.965 -0.3926 -1.7412 -0.5234
 1358TIP3   OH225564   3.933   4.982  15.058 -0.2599  0.2890 -0.0383
 1358TIP3    H125565   3.893   5.061  15.093 -1.4485 -0.9171  1.4514
 1358TIP3    H225566   3.863   4.938  15.010  0.5280  0.3534 -1.3064
 1359TIP3   OH225567   5.630   4.890   5.770 -0.0077 -0.0767 -0.5830
 1359TIP3    H125568   5.658   4.814   5.821  0.9780  0.4618 -0.2896
 1359TIP3    H225569   5.549   4.919   5.813  0.1655 -0.3505 -0.0599
 1360TIP3   OH225570   5.183   5.544  12.910 -0.0066  0.4894 -0.1931
 1360TIP3    H125571   5.214   5.558  12.821  2.4499  1.1929  0.6943
 1360TIP3    H225572   5.087   5.539  12.902 -0.0869  3.2208 -2.5429
 1361TIP3   OH225573   1.427   4.151  11.415 -0.9175 -0.2127  0.4737
 1361TIP3    H125574   1.446   4.078  11.474 -1.6934  0.0703  1.0877
 1361TIP3    H225575   1.381   4.215  11.470 -0.9098  0.4145 -0.2373
 1362TIP3   OH225576   2.757   2.492  15.012 -0.3844 -0.0433  0.4363
 1362TIP3    H125577   2.741   2.474  14.919  0.5603  2.0727 -0.2125
 1362TIP3    H225578   2.670   2.501  15.050 -0.7843 -0.3741 -0.3704
 1363TIP3   OH225579   2.489   5.448   2.420  0.2630  0.2975  0.1247
 1363TIP3    H125580   2.440   5.522   2.455 -1.2227  0.0857 -1.3761
 1363TIP3    H225581   2.447   5.371   2.458  0.4348  0.1531  0.0266
 1364TIP3   OH225582   1.288   0.855   1.546 -0.4554  0.2192 -0.1242
 1364TIP3    H125583   1.337   0.849   1.464 -1.7044  1.5744 -1.0204
 1364TIP3    H225584   1.351   0.827   1.613  1.8506  2.6505 -1.0900
 1365TIP3   OH225585   0.596   5.164   5.614  0.8242 -0.3912  0.3074
 1365TIP3    H125586   0.630   5.108   5.684  0.0132 -0.4398  0.6659
 1365TIP3    H225587   0.660   5.235   5.607  0.6881 -0.1511  1.4045
 1366TIP3   OH225588   5.565   3.846   2.114 -0.6279 -0.4450  0.0728
 1366TIP3    H125589   5.602   3.773   2.165 -0.3963 -0.7513 -0.5286
 1366TIP3    H225590   5.496   3.881   2.171 -2.6916 -2.9020 -0.7169
 1367TIP3   OH225591   0.196   3.860  12.674 -0.0134 -0.2228  0.5372
 1367TIP3    H125592   0.179   3.932  12.735  1.5251 -0.5867  1.4600
 1367TIP3    H225593   0.249   3.798  12.725  0.3721 -1.0702 -0.8400
 1368TIP3   OH225594   3.916   2.458  11.380 -0.1141  0.6422 -0.4001
 1368TIP3    H125595   3.865   2.419  11.309  0.2077  1.7287 -1.2448
 1368TIP3    H225596   3.851   2.480  11.447 -0.7799  2.0208 -1.4696
 1369TIP3   OH225597   1.107   3.979   6.696  0.4478  0.3607  0.4404
 1369TIP3    H125598   1.182   3.962   6.640 -0.1574 -2.3450  0.3201
 1369TIP3    H225599   1.127   3.934   6.778 -0.3025  1.0961  1.0470
 1370TIP3   OH225600   3.875   1.103   1.357 -1.1389  0.3619 -0.6914
 1370TIP3    H125601   3.917   1.133   1.277  0.0319  1.5813  0.3199
 1370TIP3    H225602   3.861   1.009   1.344 -0.6789  0.4849 -2.1819
 1371TIP3   OH225603   3.785   4.269   0.828  0.0528  0.6279 -0.2095
 1371TIP3    H125604   3.858   4.247   0.770  0.9535  0.3657  0.9931
 1371TIP3    H225605   3.778   4.194   0.887 -1.0190  0.7774 -0.1344
 1372TIP3   OH225606   6.302   1.744  16.331  0.2068  0.8313 -0.1318
 1372TIP3    H125607   6.345   1.779  16.409  1.1586 -0.7080  0.0805
 1372TIP3    H225608   6.233   1.687  16.365  1.5293 -0.9639 -0.3271
 1373TIP3   OH225609   5.508   3.767   2.781 -0.2193  0.3196 -0.2528
 1373TIP3    H125610   5.426   3.732   2.817 -0.3049  1.4845  0.7593
 1373TIP3    H225611   5.576   3.719   2.828 -0.3259  0.0276 -0.3949
 1374TIP3   OH225612   2.394   6.648  14.797  0.2359 -0.0401 -0.0589
 1374TIP3    H125613   2.465   6.712  14.786 -1.1622  1.7670  0.9146
 1374TIP3    H225614   2.351   6.645  14.712  0.8282 -0.3458 -0.3515
 1375TIP3   OH225615   4.419   2.402  15.970 -0.3943  0.2040  0.4294
 1375TIP3    H125616   4.346   2.452  16.007 -1.6496  0.5934 -2.3721
 1375TIP3    H225617   4.381   2.317  15.948  0.9276 -0.8968  2.1029
 1376TIP3   OH225618   6.697   3.557  16.054 -0.1073 -0.3269 -0.4158
 1376TIP3    H125619   6.699   3.541  15.960  2.9072 -2.3633 -0.1259
 1376TIP3    H225620   6.631   3.495  16.087  0.3082 -1.0838 -0.9797
 1377TIP3   OH225621   0.371   5.168  15.524 -0.1482  0.4403 -0.7857
 1377TIP3    H125622   0.307   5.113  15.569  0.7555  1.3316  1.7669
 1377TIP3    H225623   0.441   5.107  15.501 -0.0437  0.1426  0.2409
 1378TIP3   OH225624   5.235   0.743  16.374  0.5626  0.8932  0.7931
 1378TIP3    H125625   5.185   0.806  16.424  2.0917  2.3352  0.5806
 1378TIP3    H225626   5.169   0.691  16.327 -0.7178  2.8410  0.3541
 1379TIP3   OH225627   6.738   6.331  16.190  0.0121 -0.4202 -0.1099
 1379TIP3    H125628   6.667   6.392  16.171 -1.5146 -1.9415  0.4941
 1379TIP3    H225629   6.779   6.366  16.269  1.3423  1.5926 -1.5658
 1380TIP3   OH225630   3.569   1.481  16.913 -0.1857  0.4422  0.2241
 1380TIP3    H125631   3.548   1.552  16.853  0.5320  1.4893  1.1867
 1380TIP3    H225632   3.658   1.455  16.887 -0.6782 -0.5668 -0.5397
 1381TIP3   OH225633   3.068   0.190  17.104  0.6446 -0.2844 -0.5399
 1381TIP3    H125634   3.139   0.147  17.153  0.1321 -2.1164 -1.3034
 1381TIP3    H225635   3.032   0.254  17.165  2.9094  0.6911 -0.1153
 1382TIP3   OH225636   1.769   3.557   3.972 -0.1666 -0.4390 -0.6947
 1382TIP3    H125637   1.863   3.575   3.975 -0.5324  1.8543 -0.9216
 1382TIP3    H225638   1.730   3.639   3.943 -2.4107 -0.6603  1.3457
 1383TIP3   OH225639   3.884   1.822  11.984 -0.0991 -0.2781 -0.0246
 1383TIP3    H125640   3.826   1.874  12.039 -0.4623 -0.6612 -0.0431
 1383TIP3    H225641   3.916   1.753  12.042  0.6307  0.1374  0.0865
 1384TIP3   OH225642   5.199   6.067  15.545 -0.1193  0.3180 -0.1242
 1384TIP3    H125643   5.216   6.158  15.569  2.7170  0.3664 -1.9356
 1384TIP3    H225644   5.259   6.016  15.600  0.8164 -0.1444 -1.5318
 1385TIP3   OH225645   5.524   1.016  11.949 -0.0355  0.6153  0.3560
 1385TIP3    H125646   5.454   0.961  11.912 -1.2510  3.3113 -1.6537
 1385TIP3    H225647   5.546   0.973  12.032 -2.4854 -1.5845  0.0134
 1386TIP3   OH225648   0.668   0.319  11.186 -0.0413 -0.0528  0.0741
 1386TIP3    H125649   0.603   0.272  11.134 -0.3388 -0.2456  0.6163
 1386TIP3    H225650   0.622   0.344  11.266  0.5045 -0.0328  0.3857
 1387TIP3   OH225651   3.292   2.724   5.171 -0.1967  0.2187  0.1852
 1387TIP3    H125652   3.222   2.772   5.126 -2.1268 -0.4546  2.2553
 1387TIP3    H225653   3.286   2.635   5.135 -0.1016  0.2645  0.0539
 1388TIP3   OH225654   1.523   3.525   2.183  0.0487 -0.7376  0.3460
 1388TIP3    H125655   1.582   3.500   2.253  0.7228 -2.3573 -0.7469
 1388TIP3    H225656   1.435   3.515   2.220  0.1835 -5.2984  0.0004
 1389TIP3   OH225657   1.654   6.550  13.301  0.3910  0.5109 -0.2260
 1389TIP3    H125658   1.724   6.582  13.245  0.5548  0.0533 -0.2863
 1389TIP3    H225659   1.699   6.518  13.379  0.1503  1.3075  0.2500
 1390TIP3   OH225660   4.774   3.059   0.956  0.1388 -0.4188 -0.2648
 1390TIP3    H125661   4.702   3.112   0.921  1.2281 -0.0735 -2.0986
 1390TIP3    H225662   4.731   2.996   1.014 -1.9581 -1.5759 -2.8643
 1391TIP3   OH225663   3.182   6.485  16.017 -0.3937 -0.8081 -0.1395
 1391TIP3    H125664   3.157   6.419  15.953  0.0748  0.3607 -1.5858
 1391TIP3    H225665   3.145   6.567  15.983 -1.9056 -0.4462  2.1505
 1392TIP3   OH225666   4.425   3.051  13.857  0.2856  0.4067  0.7433
 1392TIP3    H125667   4.342   3.011  13.883  0.0940  1.0730  1.1820
 1392TIP3    H225668   4.491   2.984  13.876 -0.0922  0.0740  0.9005
 1393TIP3   OH225669   1.973   5.264   6.463  0.0789 -0.2745 -0.2672
 1393TIP3    H125670   2.014   5.178   6.477  0.9475  0.2065  0.2860
 1393TIP3    H225671   1.985   5.309   6.547 -0.7061  0.2500 -0.4332
 1394TIP3   OH225672   5.107   0.449   2.355  0.8234  0.0750 -0.4580
 1394TIP3    H125673   5.147   0.407   2.432  0.8647  0.0454 -0.4960
 1394TIP3    H225674   5.070   0.377   2.305 -0.7268  0.2343  0.4072
 1395TIP3   OH225675   4.574   1.297  12.761  0.1289  0.2970 -0.0129
 1395TIP3    H125676   4.524   1.378  12.752 -0.8255 -0.1512  0.9720
 1395TIP3    H225677   4.664   1.325  12.774  0.0682  1.1401 -1.2211
 1396TIP3   OH225678   4.294   6.649  13.361 -0.0044  0.2276 -0.0849
 1396TIP3    H125679   4.385   6.667  13.339 -0.7566  1.7557 -2.2738
 1396TIP3    H225680   4.271   6.570  13.312 -0.4322  1.1236 -1.3975
 1397TIP3   OH225681   5.035   3.568   4.773 -0.2957  0.0267  0.0365
 1397TIP3    H125682   5.022   3.663   4.780 -1.6942 -0.0031 -1.7311
 1397TIP3    H225683   5.107   3.550   4.834 -0.3643  2.1268  0.8237
 1398TIP3   OH225684   1.351   3.939   6.545  0.4224 -0.3109  0.1227
 1398TIP3    H125685   1.338   3.940   6.451 -0.6503  1.0421  0.2504
 1398TIP3    H225686   1.446   3.948   6.557  0.6495 -1.3850 -0.8179
 1399TIP3   OH225687   3.725   6.764  10.662  0.3690  0.5670  0.0039
 1399TIP3    H125688   3.710   6.856  10.684  0.0591  0.9214 -1.5179
 1399TIP3    H225689   3.820   6.755  10.663  0.4716  1.2559 -0.9944
 1400TIP3   OH225690   3.196   3.887  14.881  0.1901 -0.3742  0.5262
 1400TIP3    H125691   3.171   3.841  14.800  0.2036 -0.4768  0.5796
 1400TIP3    H225692   3.215   3.817  14.943 -2.9174 -0.4069  1.6262
 1401TIP3   OH225693   5.896   0.178   5.853 -0.7126  0.1860  0.4431
 1401TIP3    H125694   5.988   0.162   5.874 -0.2598  2.5227  0.5588
 1401TIP3    H225695   5.847   0.124   5.914  0.6046  1.0643  2.3634
 1402TIP3   OH225696   0.880   2.825   0.501  0.0899  0.3576 -0.3589
 1402TIP3    H125697   0.844   2.898   0.451  1.6892  2.7476  1.6867
 1402TIP3    H225698   0.821   2.815   0.575  0.6704  0.6345  0.1546
 1403TIP3   OH225699   2.580   6.554  16.355  0.1448  0.2360  0.6256
 1403TIP3    H125700   2.636   6.591  16.287 -0.7946  0.4453 -0.0368
 1403TIP3    H225701   2.610   6.463  16.363 -0.0479  0.0703 -0.4093
 1404TIP3   OH225702   2.562   6.203  13.034 -0.0552  0.1223 -0.0259
 1404TIP3    H125703   2.622   6.185  13.106 -1.8167 -1.4966  1.1315
 1404TIP3    H225704   2.501   6.268  13.069  1.4512  2.4889 -1.5010
 1405TIP3   OH225705   5.406   6.651  15.574 -0.2291 -0.9278 -0.2209
 1405TIP3    H125706   5.318   6.670  15.607  0.6603 -0.5677  2.1512
 1405TIP3    H225707   5.443   6.591  15.639  2.1666  0.9745  0.3371
 1406TIP3   OH225708   3.785   2.476   2.194  0.0827 -0.0002  0.4970
 1406TIP3    H125709   3.830   2.521   2.266  0.0492  0.3506  0.2979
 1406TIP3    H225710   3.851   2.468   2.125 -0.1601  0.5207  0.2030
 1407TIP3   OH225711   6.011   0.001   4.661  0.0840 -0.4079 -0.0310
 1407TIP3    H125712   6.028   0.091   4.689 -0.8361 -0.3418  0.3668
 1407TIP3    H225713   5.926  -0.020   4.701 -0.3731 -0.9663 -1.2685
 1408TIP3   OH225714   3.329   0.828  15.354  0.2391  0.0164 -0.0043
 1408TIP3    H125715   3.236   0.808  15.360  0.2898 -0.2765 -0.2081
 1408TIP3    H225716   3.332   0.917  15.317  0.0109  0.5504  1.2096
 1409TIP3   OH225717   2.989   0.293  14.772  0.2718  0.2404 -0.5025
 1409TIP3    H125718   2.967   0.207  14.735  0.3335  0.2454 -0.5497
 1409TIP3    H225719   3.040   0.273  14.850  0.7941  0.2457 -0.8377
 1410TIP3   OH225720   4.187   3.372  11.413 -0.0872 -0.2005  0.0227
 1410TIP3    H125721   4.103   3.325  11.413 -0.2204  0.0365  0.3089
 1410TIP3    H225722   4.178   3.437  11.343  0.1580 -0.7008 -0.4853
 1411TIP3   OH225723   5.582   3.210  11.938 -0.2944 -0.0724  0.1309
 1411TIP3    H125724   5.586   3.120  11.972 -2.8341 -0.8683 -1.3811
 1411TIP3    H225725   5.492   3.219  11.907 -0.0942  3.0354  0.2141
 1412TIP3   OH225726   3.702   4.046   5.451  0.7489 -0.1878 -0.3568
 1412TIP3    H125727   3.776   4.084   5.403  1.4939  1.1852  1.6850
 1412TIP3    H225728   3.719   4.071   5.542 -2.7973  1.1291  0.0930
 1413TIP3   OH225729   3.546   4.445   0.277 -0.3199 -0.7306 -0.0930
 1413TIP3    H125730   3.453   4.446   0.299 -0.7037  0.2483 -1.5749
 1413TIP3    H225731   3.551   4.489   0.192  1.8303  2.1961  1.3541
 1414TIP3   OH225732   5.521   6.752   3.556 -0.0302  0.6867 -0.2967
 1414TIP3    H125733   5.449   6.706   3.600 -0.4967  1.9303  0.2821
 1414TIP3    H225734   5.495   6.754   3.464  0.1013 -0.3713 -0.3732
 1415TIP3   OH225735   4.099   4.559  14.174  0.1530  0.0344 -0.0627
 1415TIP3    H125736   4.135   4.648  14.170  1.1807 -0.4217 -1.5132
 1415TIP3    H225737   4.064   4.543  14.087  0.5479 -1.2110 -0.0115
 1416TIP3   OH225738   4.720   5.300  13.750  0.0965 -0.2678  0.5386
 1416TIP3    H125739   4.717   5.223  13.694  1.5715  1.0719 -1.5183
 1416TIP3    H225740   4.773   5.274  13.825 -1.3785 -1.9054  1.0780
 1417TIP3   OH225741   3.243   6.539   1.798 -0.0140 -0.4358 -0.2289
 1417TIP3    H125742   3.185   6.512   1.870 -0.1537 -1.6591 -0.7813
 1417TIP3    H225743   3.244   6.635   1.803 -1.2513 -0.4382  0.4457
 1418TIP3   OH225744   6.803   0.371  13.682 -0.3944 -0.1492 -0.5328
 1418TIP3    H125745   6.724   0.361  13.629 -0.7819 -0.2994  0.0639
 1418TIP3    H225746   6.804   0.293  13.738 -1.6195  1.3987  1.7977
 1419TIP3   OH225747   2.890   1.932   5.154 -0.0398  0.6157 -0.2640
 1419TIP3    H125748   2.937   1.863   5.201 -0.7878 -0.5345 -1.1234
 1419TIP3    H225749   2.884   1.899   5.064 -1.6646  1.1317 -0.3776
 1420TIP3   OH225750   1.799   3.318  12.080  0.0444 -0.4121 -0.4056
 1420TIP3    H125751   1.725   3.298  12.023  1.0123 -0.7691 -1.5751
 1420TIP3    H225752   1.847   3.236  12.086  0.5209 -0.1027  0.0833
 1421TIP3   OH225753   4.661   3.547  11.214  0.0097  0.3881  0.2475
 1421TIP3    H125754   4.664   3.641  11.198 -0.3057  0.4132  0.3232
 1421TIP3    H225755   4.688   3.507  11.131  0.9497  0.5544  0.4615
 1422TIP3   OH225756   5.682   2.752  15.957 -0.2202 -0.1971  0.3235
 1422TIP3    H125757   5.599   2.773  15.915  0.2518  1.5825  0.1830
 1422TIP3    H225758   5.679   2.797  16.041  1.0942  1.0164 -0.2354
 1423TIP3   OH225759   1.493   0.851  16.539  0.0523  0.0549  0.2610
 1423TIP3    H125760   1.430   0.781  16.524 -0.0514 -0.2059  1.6925
 1423TIP3    H225761   1.572   0.806  16.570 -0.0118  0.5415  1.1793
 1424TIP3   OH225762   5.931   5.611  11.658  0.0196 -0.0062  0.1812
 1424TIP3    H125763   5.841   5.639  11.675  0.4918  1.9077 -0.2490
 1424TIP3    H225764   5.983   5.691  11.667  1.6866 -1.0636  0.3755
 1425TIP3   OH225765   0.510   5.435  15.320  0.3239 -0.4266 -0.1161
 1425TIP3    H125766   0.443   5.423  15.387 -0.1849  0.3637 -0.4593
 1425TIP3    H225767   0.493   5.365  15.256  1.8036 -2.1903  1.3047
 1426TIP3   OH225768   1.052   1.512  15.124 -0.4942 -0.6278 -0.0619
 1426TIP3    H125769   1.026   1.441  15.065 -0.9958 -0.0817 -0.4983
 1426TIP3    H225770   0.972   1.562  15.138  0.4067  1.5104 -1.9935
 1427TIP3   OH225771   3.882   4.360   5.794 -0.8173  0.2565 -0.2585
 1427TIP3    H125772   3.912   4.277   5.757  1.1970  0.8088  0.0402
 1427TIP3    H225773   3.809   4.336   5.851  0.4040 -1.4858  0.6678
 1428TIP3   OH225774   4.428   4.949   0.332  0.0198  0.1035  0.5271
 1428TIP3    H125775   4.466   4.969   0.418 -0.0302  0.4967  0.4568
 1428TIP3    H225776   4.500   4.909   0.284  0.3556  0.8527  0.3937
 1429TIP3   OH225777   6.518   5.052   1.953  0.0714  0.3014  0.1464
 1429TIP3    H125778   6.610   5.076   1.957  0.4865 -0.6158 -2.1626
 1429TIP3    H225779   6.511   4.997   1.875 -2.3962  0.1663  0.3791
 1430TIP3   OH225780   4.211   5.616   1.139  0.5171 -0.5458  0.0600
 1430TIP3    H125781   4.164   5.687   1.095  0.4189  0.1704  1.2936
 1430TIP3    H225782   4.257   5.658   1.211  0.6707 -1.6921  0.6522
 1431TIP3   OH225783   2.717   2.970  14.153  0.5590 -0.0768  1.1920
 1431TIP3    H125784   2.721   3.047  14.096 -2.8464 -1.6369 -1.4925
 1431TIP3    H225785   2.752   2.899  14.100  1.4195 -0.8734  2.7564
 1432TIP3   OH225786   5.516   1.199  16.801  0.0175 -0.1666  0.4650
 1432TIP3    H125787   5.582   1.266  16.817 -0.5542  0.3019  0.9142
 1432TIP3    H225788   5.517   1.145  16.880 -0.5277  0.1854  0.7187
 1433TIP3   OH225789   5.452   3.835   1.859  0.3354 -0.7523  0.0815
 1433TIP3    H125790   5.480   3.819   1.949 -0.2892  0.0306  0.4231
 1433TIP3    H225791   5.498   3.915   1.833  2.6234 -2.3843 -1.2571
 1434TIP3   OH225792   1.179   1.064  13.136  0.2333  0.0318 -0.0961
 1434TIP3    H125793   1.217   1.006  13.202 -0.1629 -0.5372 -0.3552
 1434TIP3    H225794   1.088   1.077  13.165  0.7136  1.7041  0.7367
 1435TIP3   OH225795   6.213   1.881  15.875  0.0320 -0.1527  0.1034
 1435TIP3    H125796   6.203   1.812  15.941  0.8319 -1.8909 -1.4897
 1435TIP3    H225797   6.123   1.907  15.854 -0.3255 -1.1844  0.2901
 1436TIP3   OH225798   0.019   3.876   5.350  0.7368  0.2790  0.1166
 1436TIP3    H125799  -0.060   3.922   5.377  0.8669  0.7554 -0.3072
 1436TIP3    H225800   0.070   3.940   5.301 -0.6401 -1.1453 -3.5379
 1437TIP3   OH225801   3.988   6.650  16.146 -0.2659 -0.2884  0.2068
 1437TIP3    H125802   4.003   6.612  16.060 -0.1839 -0.1562  0.1618
 1437TIP3    H225803   4.043   6.729  16.147 -1.1963  0.3827 -0.0875
 1438TIP3   OH225804   1.075   3.288   2.608  0.0301 -0.8043  0.1887
 1438TIP3    H125805   1.104   3.362   2.553 -0.3298 -0.7272  0.1016
 1438TIP3    H225806   1.129   3.294   2.686  0.6490 -0.9973 -0.2168
 1439TIP3   OH225807   4.854   2.386  14.382  0.3136  0.3002  0.0766
 1439TIP3    H125808   4.884   2.354  14.467 -0.4736 -0.8159 -0.0450
 1439TIP3    H225809   4.894   2.473  14.373  0.0417  0.6393  1.7898
 1440TIP3   OH225810   3.039   2.196   0.165 -0.7076 -0.5042  0.5222
 1440TIP3    H125811   3.048   2.193   0.260 -1.4272  0.7656  0.6620
 1440TIP3    H225812   3.025   2.289   0.146  0.8546 -0.5222 -0.9648
 1441TIP3   OH225813   2.859   0.377  15.101  0.3136 -0.7380 -0.4740
 1441TIP3    H125814   2.846   0.411  15.190  0.8764 -1.9730  0.1096
 1441TIP3    H225815   2.949   0.399  15.079  0.2758 -0.7123 -0.6010
 1442TIP3   OH225816   3.909   2.045   3.865 -0.1849  0.1048  0.6487
 1442TIP3    H125817   3.940   2.080   3.949 -0.8227  0.9560  0.5437
 1442TIP3    H225818   3.984   1.996   3.831  0.6135  1.0334  0.9996
 1443TIP3   OH225819   4.553   4.773  11.052 -0.1088  0.1727 -0.2567
 1443TIP3    H125820   4.556   4.743  10.961  0.3196 -1.5323  0.2915
 1443TIP3    H225821   4.643   4.800  11.070 -0.2918  0.9456 -0.4611
 1444TIP3   OH225822   3.429   5.254  10.879  0.6676 -0.8796  0.0988
 1444TIP3    H125823   3.523   5.264  10.865  0.4245 -0.4373 -1.3847
 1444TIP3    H225824   3.393   5.233  10.793 -0.6723 -0.3978  0.5054
 1445TIP3   OH225825   1.127   0.129   2.417  0.5637  0.2908  0.5667
 1445TIP3    H125826   1.079   0.129   2.500 -1.7759 -0.2471 -0.7027
 1445TIP3    H225827   1.152   0.220   2.403 -0.9329  0.7676  0.8531
 1446TIP3   OH225828   3.496   5.816   4.630  0.2037  0.2339  0.0419
 1446TIP3    H125829   3.530   5.836   4.717  0.9285  0.4550 -0.2891
 1446TIP3    H225830   3.510   5.722   4.619 -0.1018  0.1608  0.2491
 1447TIP3   OH225831   3.888   6.449  16.391  0.1871 -0.4881 -0.3368
 1447TIP3    H125832   3.903   6.437  16.485  2.6443  1.0356 -0.4393
 1447TIP3    H225833   3.833   6.527  16.385  1.4394  0.4364 -0.1579
 1448TIP3   OH225834   1.323   2.118   3.026 -0.2334 -0.7888 -0.8200
 1448TIP3    H125835   1.382   2.077   2.962  1.6260  0.8245 -0.2074
 1448TIP3    H225836   1.366   2.107   3.110 -0.7146  0.5660 -0.3688
 1449TIP3   OH225837   1.142   1.957   6.072 -0.3739  0.9456 -0.1831
 1449TIP3    H125838   1.151   2.001   6.157  0.2887 -0.8977  0.7565
 1449TIP3    H225839   1.187   1.873   6.083 -2.3190 -0.3794 -1.5926
 1450TIP3   OH225840   0.559   1.972   0.336  0.1954  0.0848  0.0590
 1450TIP3    H125841   0.524   1.971   0.247 -0.6745 -0.1806  0.3932
 1450TIP3    H225842   0.489   2.009   0.389  0.6053 -0.0054  0.6744
 1451TIP3   OH225843   4.469   3.608   5.496  0.0478  0.2354 -0.2477
 1451TIP3    H125844   4.470   3.703   5.502  2.9243  0.2559  0.3865
 1451TIP3    H225845   4.463   3.589   5.403  1.6867  1.1434 -0.5718
 1452TIP3   OH225846   0.429   4.294   3.278 -0.4872 -0.3402  0.0902
 1452TIP3    H125847   0.389   4.271   3.362 -0.5433  2.0894  0.8042
 1452TIP3    H225848   0.492   4.224   3.261 -3.2357 -3.0390  0.1000
 1453TIP3   OH225849   5.981   6.193  12.662  0.2999  0.3547 -0.1771
 1453TIP3    H125850   6.006   6.121  12.604  1.7700 -0.1955  1.0603
 1453TIP3    H225851   6.043   6.263  12.640  0.0404  0.5991 -0.1346
 1454TIP3   OH225852   3.417   3.769  14.010 -0.5524  0.0942 -0.1950
 1454TIP3    H125853   3.505   3.757  13.974 -0.3101 -2.1739  0.9063
 1454TIP3    H225854   3.412   3.862  14.032  1.4415  0.3474 -0.6083
 1455TIP3   OH225855   6.603   3.490  12.675  0.2094 -0.0337 -0.2341
 1455TIP3    H125856   6.684   3.443  12.697  1.3542  2.0456  0.1893
 1455TIP3    H225857   6.619   3.526  12.588 -0.2213  0.4455 -0.1191
 1456TIP3   OH225858   3.776   2.316   5.446 -0.4573  0.5997  0.1258
 1456TIP3    H125859   3.824   2.246   5.401  0.5634  0.4573  1.3800
 1456TIP3    H225860   3.779   2.390   5.386  0.6021  0.3241 -0.1787
 1457TIP3   OH225861   5.976   1.612   2.596  0.2922 -0.0635 -0.0729
 1457TIP3    H125862   6.029   1.588   2.671  1.4527  1.3481 -0.4074
 1457TIP3    H225863   6.018   1.690   2.560 -1.8781  0.9976 -0.4825
 1458TIP3   OH225864   2.685   5.661   4.694 -0.3463 -0.4106  0.0587
 1458TIP3    H125865   2.752   5.628   4.634 -2.6309 -1.8661 -1.8639
 1458TIP3    H225866   2.618   5.699   4.637 -2.2891 -1.1939  1.6907
 1459TIP3   OH225867   1.836   0.512  12.452  0.5091  0.0984 -0.0987
 1459TIP3    H125868   1.822   0.478  12.541 -2.8647  0.7094 -0.2538
 1459TIP3    H225869   1.910   0.572  12.461  0.2241  0.2157  2.3157
 1460TIP3   OH225870   2.860   0.778   1.724 -0.2626  0.4945 -0.3843
 1460TIP3    H125871   2.782   0.833   1.730 -1.8256 -1.3590 -2.2223
 1460TIP3    H225872   2.904   0.790   1.808 -2.2306  1.9924  0.5209
 1461TIP3   OH225873   1.497   0.588  15.860 -0.2505 -0.8036 -0.1901
 1461TIP3    H125874   1.413   0.625  15.890 -0.4193 -0.8039 -0.6578
 1461TIP3    H225875   1.547   0.663  15.829 -0.2361 -0.8542 -0.2895
 1462TIP3   OH225876   2.008   1.711  13.422 -0.0941 -0.2501 -0.7079
 1462TIP3    H125877   1.951   1.786  13.440  0.6891  0.3666 -0.7492
 1462TIP3    H225878   1.958   1.657  13.361 -1.5945 -0.9074  1.0086
 1463TIP3   OH225879   3.508   6.493   0.735  0.3811  0.4315  0.2664
 1463TIP3    H125880   3.553   6.559   0.682 -2.0575  1.0403 -1.2260
 1463TIP3    H225881   3.448   6.544   0.790 -0.0538 -0.4325  0.6176
 1464TIP3   OH225882   0.917   4.685  15.272 -0.3128 -0.5990 -0.5985
 1464TIP3    H125883   0.942   4.640  15.191  1.4120 -0.7056 -0.0369
 1464TIP3    H225884   0.902   4.616  15.335 -0.9300 -0.4840 -0.6096
 1465TIP3   OH225885   3.823   6.352  17.186  0.4135  0.2133 -0.0324
 1465TIP3    H125886   3.835   6.261  17.212 -0.9006  0.0675  0.1475
 1465TIP3    H225887   3.735   6.375  17.216  0.4410  1.3240 -0.6967
 1466TIP3   OH225888   2.462   4.425  17.108 -0.2931 -0.5733 -0.1037
 1466TIP3    H125889   2.489   4.510  17.075  2.5795 -1.6470 -0.7741
 1466TIP3    H225890   2.510   4.361  17.055  0.2181 -2.5127  2.4806
 1467TIP3   OH225891   2.602   0.809   3.657  0.2107  0.3924 -0.2013
 1467TIP3    H125892   2.560   0.810   3.571 -0.2212  1.4572  0.0072
 1467TIP3    H225893   2.555   0.875   3.707  1.4208  0.8348  0.3939
 1468TIP3   OH225894   2.945   1.013  15.810  0.0557 -0.1831 -0.2893
 1468TIP3    H125895   3.030   0.976  15.834 -0.3444 -0.9292 -0.0167
 1468TIP3    H225896   2.953   1.106  15.830 -0.6643 -0.8535  3.9959
 1469TIP3   OH225897   3.613   6.692  13.112  0.1210 -0.1644  0.5025
 1469TIP3    H125898   3.535   6.748  13.116 -0.3390 -0.8137  0.7694
 1469TIP3    H225899   3.682   6.745  13.152 -0.2159  0.3580  0.4070
 1470TIP3   OH225900   5.246   1.016  11.085  0.2102  0.2942 -0.6956
 1470TIP3    H125901   5.328   0.968  11.097 -0.0602 -0.2508 -0.9624
 1470TIP3    H225902   5.236   1.066  11.166  1.1808  0.9554 -0.9724
 1471TIP3   OH225903   6.242   1.171  12.385 -0.2188 -0.1818  0.1354
 1471TIP3    H125904   6.244   1.078  12.406  1.6837  0.5084  3.8237
 1471TIP3    H225905   6.325   1.187  12.341 -0.5942 -0.2054 -0.5981
 1472TIP3   OH225906   5.111   2.163  17.254 -0.4114 -0.4817 -0.5812
 1472TIP3    H125907   5.175   2.118  17.310 -0.7411  1.3123  1.3447
 1472TIP3    H225908   5.141   2.145  17.165  1.5135 -1.4820  0.2084
 1473TIP3   OH225909   6.552   3.901   3.192  0.4677  0.3212  0.5806
 1473TIP3    H125910   6.471   3.911   3.142  1.4075 -0.0492 -1.0850
 1473TIP3    H225911   6.546   3.967   3.261 -1.1652  0.4134  0.3889
 1474TIP3   OH225912   5.534   2.392   1.987 -0.6208  0.2505 -0.1951
 1474TIP3    H125913   5.536   2.422   2.078  1.6265  1.7382 -0.6579
 1474TIP3    H225914   5.611   2.432   1.947 -0.5362 -1.8375 -2.3202
 1475TIP3   OH225915   5.400   4.003  12.520 -0.0373 -0.3825  0.3268
 1475TIP3    H125916   5.406   3.914  12.554  1.9619 -0.5849 -0.3826
 1475TIP3    H225917   5.374   4.056  12.595  1.5569 -1.2048  1.5312
 1476TIP3   OH225918   6.740   4.795   0.544 -0.2224 -0.1916  0.3761
 1476TIP3    H125919   6.735   4.736   0.619  0.0935  0.7533  1.1663
 1476TIP3    H225920   6.652   4.795   0.508 -0.7692  0.4190  1.6247
 1477TIP3   OH225921   2.902   4.891  15.795 -0.2535 -0.3417  0.0087
 1477TIP3    H125922   2.887   4.972  15.845 -1.1293 -0.0445 -0.6923
 1477TIP3    H225923   2.826   4.886  15.736  1.2991 -0.0229 -2.1353
 1478TIP3   OH225924   6.172   5.905  14.087  0.1665  0.4866 -0.0928
 1478TIP3    H125925   6.186   5.850  14.010 -0.5862  1.4722 -0.9512
 1478TIP3    H225926   6.111   5.973  14.058 -2.3736 -0.6620  2.0882
 1479TIP3   OH225927   5.600   4.946  13.372 -0.0564 -0.0475  0.5003
 1479TIP3    H125928   5.658   4.875  13.345  1.4240  0.1761  2.7972
 1479TIP3    H225929   5.516   4.927  13.329  1.1369 -1.4679 -1.3499
 1480TIP3   OH225930   5.887   5.380   1.750  0.0271 -0.6182  0.0923
 1480TIP3    H125931   5.861   5.470   1.727  1.9700  0.0035  0.1717
 1480TIP3    H225932   5.808   5.328   1.733 -1.1749  1.0889  0.0895
 1481TIP3   OH225933   4.001   5.435  15.155 -0.0418 -0.1131 -0.8150
 1481TIP3    H125934   4.089   5.463  15.180 -0.0106 -1.3300  0.6018
 1481TIP3    H225935   3.985   5.357  15.208 -1.8938 -0.0571 -1.2222
 1482TIP3   OH225936   3.619   1.726  15.142  0.7685  0.0826 -0.3074
 1482TIP3    H125937   3.547   1.733  15.205  1.6265 -0.3221  0.7460
 1482TIP3    H225938   3.577   1.733  15.056 -0.4502  0.4397  0.3015
 1483TIP3   OH225939   4.115   3.519   2.283 -0.1584  0.4376 -0.2652
 1483TIP3    H125940   4.193   3.483   2.241  0.5506  1.4409  0.1532
 1483TIP3    H225941   4.054   3.534   2.211  1.2637  2.6946 -1.0976
 1484TIP3   OH225942   3.852   0.189   3.947 -0.0795 -0.1983  0.6915
 1484TIP3    H125943   3.912   0.122   3.913 -0.8997 -0.3745 -0.4892
 1484TIP3    H225944   3.877   0.269   3.900  0.7134  0.2889  1.8918
 1485TIP3   OH225945   3.303   0.410  12.927 -0.1201  0.1823 -0.3545
 1485TIP3    H125946   3.212   0.434  12.942 -0.5872 -0.7105 -1.6217
 1485TIP3    H225947   3.336   0.387  13.014 -1.4955 -0.7910 -0.0650
 1486TIP3   OH225948   4.246   4.179  11.411  0.3868 -0.3999 -0.2704
 1486TIP3    H125949   4.270   4.087  11.414  0.9153 -0.2654 -0.3007
 1486TIP3    H225950   4.280   4.210  11.328 -1.3633 -0.5955 -1.1140
 1487TIP3   OH225951   1.215   4.374   5.742 -0.1506  0.3115  0.8218
 1487TIP3    H125952   1.272   4.432   5.792 -1.0328  1.8172  0.1480
 1487TIP3    H225953   1.132   4.373   5.790 -0.6699  0.9613 -0.0111
 1488TIP3   OH225954   0.362   2.627  15.340  0.2963  0.4335 -0.2516
 1488TIP3    H125955   0.276   2.668  15.351  0.4683  0.2389  2.8558
 1488TIP3    H225956   0.344   2.541  15.302 -0.6906  1.0279 -1.1616
 1489TIP3   OH225957   0.523   1.811   0.603 -0.1502 -0.1871 -0.0002
 1489TIP3    H125958   0.568   1.853   0.530 -0.3003 -0.1876 -0.0937
 1489TIP3    H225959   0.430   1.833   0.590 -0.1041  0.3009  0.5177
 1490TIP3   OH225960   5.498   0.826  15.736 -0.2040 -0.0645 -0.7145
 1490TIP3    H125961   5.422   0.847  15.790 -0.2775  0.0537 -0.8647
 1490TIP3    H225962   5.506   0.731  15.741  1.8303  0.1131  2.3487
 1491TIP3   OH225963   2.500   5.395   3.965  0.9142 -0.9581 -0.2522
 1491TIP3    H125964   2.528   5.438   3.884 -0.0324 -0.6712 -0.4398
 1491TIP3    H225965   2.439   5.457   4.006  2.0913 -0.6857  1.1714
 1492TIP3   OH225966   3.344   3.149  16.456  0.2172 -0.2666  0.2637
 1492TIP3    H125967   3.250   3.132  16.457 -0.1601  1.6328 -0.4883
 1492TIP3    H225968   3.376   3.101  16.379 -0.0870 -0.9859  0.5720
 1493TIP3   OH225969   5.470   3.875  16.973  0.5812  0.0188  0.0030
 1493TIP3    H125970   5.512   3.884  16.887 -1.8631 -1.0708 -1.3936
 1493TIP3    H225971   5.412   3.951  16.979  0.7565  0.1054  0.7454
 1494TIP3   OH225972   6.274   5.889  13.791  0.1336  0.0365  0.1522
 1494TIP3    H125973   6.253   5.965  13.736 -0.8005 -0.7964 -0.6765
 1494TIP3    H225974   6.279   5.816  13.729  1.6624 -0.4848  0.8499
 1495TIP3   OH225975   0.258   4.474  13.137  0.2988 -0.3433  0.3181
 1495TIP3    H125976   0.252   4.537  13.065 -1.6377  0.0558  0.7859
 1495TIP3    H225977   0.207   4.398  13.108 -0.2329 -0.3066  1.1270
 1496TIP3   OH225978   4.081   1.101   0.025 -0.2539 -0.1028  0.2131
 1496TIP3    H125979   3.990   1.110  -0.004 -0.7511  0.0466  1.7192
 1496TIP3    H225980   4.079   1.128   0.118  0.7241 -3.1010  1.2066
 1497TIP3   OH225981   0.301   1.511   4.104  0.0672  0.4468 -0.4419
 1497TIP3    H125982   0.323   1.603   4.085  1.7649  0.8268  2.7639
 1497TIP3    H225983   0.382   1.463   4.088 -0.0087 -0.0336  0.5693
 1498TIP3   OH225984   1.105   3.477  10.889  0.4687 -0.1845  0.2637
 1498TIP3    H125985   1.063   3.451  10.970 -1.3730  0.6427 -0.3713
 1498TIP3    H225986   1.042   3.454  10.820  2.0491 -1.0339 -0.9829
 1499TIP3   OH225987   3.242   6.595   2.183 -0.4273  0.6073 -0.0065
 1499TIP3    H125988   3.185   6.560   2.115  0.0393  1.1136 -0.6777
 1499TIP3    H225989   3.184   6.613   2.257 -0.8120 -0.6757  0.0126
 1500TIP3   OH225990   1.431   3.861   0.648 -0.1992  0.2161 -0.0691
 1500TIP3    H125991   1.504   3.882   0.707 -0.0860 -1.5017  0.4774
 1500TIP3    H225992   1.355   3.852   0.707 -0.1477 -1.2137 -0.1818
 1501TIP3   OH225993   1.709   6.100   3.907  0.0432 -0.1890  0.0782
 1501TIP3    H125994   1.802   6.104   3.885  0.1130 -1.3381  0.1096
 1501TIP3    H225995   1.707   6.108   4.003  0.0009  1.1241 -0.0139
 1502TIP3   OH225996   4.867   0.143  15.312 -0.0505 -0.1544 -0.1168
 1502TIP3    H125997   4.816   0.069  15.345  1.3171 -0.3827  1.6613
 1502TIP3    H225998   4.953   0.105  15.293 -0.2688  0.3497 -2.4154
 1503TIP3   OH225999   3.729   3.808  15.539  0.0335  0.7087 -0.4690
 1503TIP3    H126000   3.785   3.884  15.552 -0.9315  1.5527 -1.1084
 1503TIP3    H226001   3.680   3.801  15.621  1.5712 -0.4852  0.3820
 1504TIP3   OH226002   1.909   4.720   0.972  0.1449 -0.3190  0.0377
 1504TIP3    H126003   1.885   4.653   1.037 -0.8161  2.4860  2.8090
 1504TIP3    H226004   1.995   4.751   1.000  0.0957  0.3585 -0.5405
 1505TIP3   OH226005   0.127   1.087  15.927  0.4810 -0.8050 -0.5705
 1505TIP3    H126006   0.120   1.170  15.879 -0.3413 -1.0222 -0.8341
 1505TIP3    H226007   0.082   1.023  15.872 -2.6212 -0.6224  1.4593
 1506TIP3   OH226008   4.463   4.985  16.277 -0.4495 -0.0039 -0.0742
 1506TIP3    H126009   4.403   5.028  16.215  0.0348  1.1475  0.2296
 1506TIP3    H226010   4.429   5.009  16.363  1.2878  1.9810  0.1331
 1507TIP3   OH226011   0.930   2.317  11.014 -0.4756 -0.3726 -0.7148
 1507TIP3    H126012   0.927   2.378  10.941 -1.0685 -1.6402 -1.7945
 1507TIP3    H226013   0.983   2.244  10.981 -1.5285 -1.3753 -0.2244
 1508TIP3   OH226014   5.317   3.224   0.047  0.3458 -0.2249 -0.1564
 1508TIP3    H126015   5.370   3.274   0.108  0.0616  0.3077 -0.3452
 1508TIP3    H226016   5.237   3.202   0.096  0.9402 -1.4810  0.3073
 1509TIP3   OH226017   2.734   0.215   2.527 -0.3443 -0.0755 -0.7006
 1509TIP3    H126018   2.821   0.208   2.568 -0.6932  2.9487  0.8376
 1509TIP3    H226019   2.673   0.190   2.597 -0.7619 -0.4227 -1.1890
 1510TIP3   OH226020   6.355   5.756  15.597 -0.3489  0.1098  0.4660
 1510TIP3    H126021   6.383   5.840  15.632 -0.2395  0.5074 -0.5492
 1510TIP3    H226022   6.261   5.766  15.583 -0.2662  0.2025 -0.0296
 1511TIP3   OH226023   6.819   2.260  16.766 -0.2347  0.1316 -0.3266
 1511TIP3    H126024   6.773   2.178  16.750  1.4963 -1.7127  3.0284
 1511TIP3    H226025   6.757   2.312  16.819 -0.2884 -0.2115 -0.0521
 1512TIP3   OH226026   6.413   0.188  16.020  0.2231 -0.3023  0.1777
 1512TIP3    H126027   6.369   0.185  16.105  0.8177 -0.3762  0.4935
 1512TIP3    H226028   6.345   0.169  15.956 -0.4926  0.9430  0.5376
 1513TIP3   OH226029   6.090   5.691   1.694 -0.2208 -0.7339  0.1310
 1513TIP3    H126030   6.129   5.637   1.625  0.3256  0.2387 -0.3326
 1513TIP3    H226031   6.117   5.780   1.674 -2.7073  0.0253 -0.2617
 1514TIP3   OH226032   4.613   0.924   1.082 -0.3674  0.0531  0.3975
 1514TIP3    H126033   4.591   1.013   1.109  1.2178  0.2059  1.3386
 1514TIP3    H226034   4.653   0.885   1.161 -1.1431 -1.5248  0.0366
 1515TIP3   OH226035   5.548   4.165  16.792  0.4287 -0.0773 -0.7547
 1515TIP3    H126036   5.564   4.173  16.886  0.1311  0.7722 -0.7691
 1515TIP3    H226037   5.583   4.079  16.769 -1.5641 -1.3140  0.5614
 1516TIP3   OH226038   0.977   2.662  14.016  0.2053 -0.0164  0.0790
 1516TIP3    H126039   1.025   2.597  13.964  2.5809  0.2852  1.7296
 1516TIP3    H226040   1.012   2.746  13.987 -0.0888  0.2823  0.5940
 1517TIP3   OH226041   2.264   3.597  13.451  0.4376 -0.1267 -0.3741
 1517TIP3    H126042   2.212   3.556  13.382  2.0421 -2.0959 -0.5095
 1517TIP3    H226043   2.322   3.657  13.405  0.7770 -0.6623 -0.6681
 1518TIP3   OH226044   4.977   1.440   6.133  0.4559 -0.3203  0.1197
 1518TIP3    H126045   4.947   1.454   6.043  0.9628 -1.3107 -0.2188
 1518TIP3    H226046   4.897   1.420   6.182  0.3835 -1.9641 -0.5804
 1519TIP3   OH226047   5.650   0.322  12.400 -0.1957  0.7690 -0.1963
 1519TIP3    H126048   5.694   0.380  12.462 -0.6178  0.7017  0.1692
 1519TIP3    H226049   5.683   0.350  12.314 -0.7496  1.8777 -0.0670
 1520TIP3   OH226050   1.211   0.947  14.224 -0.0368  0.0190 -0.5724
 1520TIP3    H126051   1.265   1.021  14.196 -1.4779  1.5345  0.4956
 1520TIP3    H226052   1.274   0.876  14.238  1.7048  1.7111  0.6404
 1521TIP3   OH226053   2.271   0.688  12.215 -0.2738 -0.1423 -0.7635
 1521TIP3    H126054   2.286   0.662  12.124  1.5913 -0.7416 -0.3346
 1521TIP3    H226055   2.272   0.784  12.213 -2.8870 -0.0719 -1.7235
 1522TIP3   OH226056   5.623   3.617   2.235 -0.0710 -0.0211  0.5051
 1522TIP3    H126057   5.692   3.583   2.179 -0.4631  0.3133 -0.1991
 1522TIP3    H226058   5.572   3.540   2.260 -1.8117  0.1152 -2.2378
 1523TIP3   OH226059   6.324   0.692   4.202 -1.1749  0.1525 -0.1873
 1523TIP3    H126060   6.401   0.720   4.152  0.7575 -2.5048  1.0725
 1523TIP3    H226061   6.345   0.715   4.293 -1.1497 -1.9248  0.3702
 1524TIP3   OH226062   1.933   5.322   0.931  0.3947  0.2957 -0.1672
 1524TIP3    H126063   1.842   5.337   0.907  1.1205  0.7189 -3.0501
 1524TIP3    H226064   1.968   5.410   0.950  0.1691  0.0978  1.3153
 1525TIP3   OH226065   0.963   2.450   5.154 -0.0910  0.1919  0.1993
 1525TIP3    H126066   1.013   2.530   5.169 -1.7571  1.0785  1.3020
 1525TIP3    H226067   1.018   2.380   5.190 -0.0643  1.2628  2.3692
 1526TIP3   OH226068   3.660   5.998   3.442 -0.6374 -0.6843  0.8051
 1526TIP3    H126069   3.699   6.066   3.497  0.5433 -0.5595 -0.1383
 1526TIP3    H226070   3.588   6.042   3.397  1.1533  0.5292 -1.1109
 1527TIP3   OH226071   4.699   5.872  14.303 -0.2799 -0.0031 -0.5991
 1527TIP3    H126072   4.771   5.916  14.348 -0.3947  0.6238 -1.0113
 1527TIP3    H226073   4.679   5.796  14.358  1.3075 -0.7186 -0.9534
 1528TIP3   OH226074   6.394   0.737  13.671  0.1766  0.0622  0.1834
 1528TIP3    H126075   6.477   0.779  13.648 -0.7230  2.4279  0.9906
 1528TIP3    H226076   6.343   0.805  13.714 -1.3551 -1.9423  1.7590
 1529TIP3   OH226077   1.629   5.646   6.503  0.0762  0.4351 -0.5885
 1529TIP3    H126078   1.633   5.716   6.439  0.4335  2.2632  1.3279
 1529TIP3    H226079   1.642   5.689   6.588 -2.9227 -1.4556  1.0251
 1530TIP3   OH226080   4.545   6.392  11.272 -0.1331  0.0627  0.0847
 1530TIP3    H126081   4.556   6.355  11.184 -0.0681 -0.1269  0.1735
 1530TIP3    H226082   4.473   6.341  11.310 -2.3383  2.1462 -0.9854
 1531TIP3   OH226083   5.856   2.552  15.356  0.5040 -0.0016  0.0559
 1531TIP3    H126084   5.782   2.537  15.297  0.3566  2.8829 -0.6636
 1531TIP3    H226085   5.934   2.536  15.302  0.4712 -2.2434  0.5860
 1532TIP3   OH226086   5.002   6.252  15.395  0.4340 -0.3305  0.4965
 1532TIP3    H126087   5.032   6.299  15.473 -0.0868  1.0284 -0.1006
 1532TIP3    H226088   5.079   6.204  15.365  1.1796  0.6725  0.7422
 1533TIP3   OH226089   5.797   0.425   1.761  0.1157 -0.0651 -0.1500
 1533TIP3    H126090   5.806   0.364   1.834 -0.2786  0.0472 -0.0019
 1533TIP3    H226091   5.799   0.371   1.683 -0.8543 -0.3477  0.0035
 1534TIP3   OH226092   5.053   6.444  16.838  0.4335 -0.6224  0.2789
 1534TIP3    H126093   5.132   6.451  16.891 -0.1626 -0.9911  1.2479
 1534TIP3    H226094   4.986   6.412  16.899 -1.2496  2.4819  0.2568
 1535TIP3   OH226095   1.912   2.503  14.585  0.0942  0.0143  0.6106
 1535TIP3    H126096   1.838   2.443  14.578 -1.0605  1.5454 -1.2712
 1535TIP3    H226097   1.976   2.471  14.521  0.3091 -0.2929  0.9761
 1536TIP3   OH226098   4.274   0.785  15.896 -0.0384  0.6882 -0.1496
 1536TIP3    H126099   4.220   0.853  15.935 -0.3420 -0.1157  0.8982
 1536TIP3    H226100   4.355   0.786  15.948  0.0774  0.4609 -0.3218
 1537TIP3   OH226101   4.354   0.332  16.199  0.4072  0.0129 -0.1623
 1537TIP3    H126102   4.314   0.294  16.120  3.7588 -0.1003 -2.0436
 1537TIP3    H226103   4.338   0.267  16.267 -3.1133  0.3754 -0.4623
 1538TIP3   OH226104   3.142   2.293   5.827  0.8233 -0.4013 -0.0840
 1538TIP3    H126105   3.198   2.360   5.788  1.3237 -0.3410  0.7130
 1538TIP3    H226106   3.089   2.340   5.891 -0.6338 -0.3409 -1.2726
 1539TIP3   OH226107   0.810   2.884  15.927  0.3178 -0.3663  0.2214
 1539TIP3    H126108   0.786   2.933  15.848 -0.7405 -2.3317 -0.7265
 1539TIP3    H226109   0.878   2.823  15.898 -1.4296 -2.4434  0.3290
 1540TIP3   OH226110   4.632   6.023   3.413  0.4991 -0.0052  0.5207
 1540TIP3    H126111   4.611   6.043   3.504 -0.3800 -0.0557  0.3411
 1540TIP3    H226112   4.659   5.932   3.414  3.2735  0.7175  1.1474
 1541TIP3   OH226113   2.115   1.542  11.077 -0.3808 -0.4265  0.2448
 1541TIP3    H126114   2.026   1.579  11.083 -0.1730  0.3190 -0.9813
 1541TIP3    H226115   2.171   1.607  11.119 -0.0713  0.5407 -1.5396
 1542TIP3   OH226116   2.941   6.749   5.594 -0.0252 -0.4447 -0.3390
 1542TIP3    H126117   2.945   6.822   5.656  0.5513 -0.3347 -0.4988
 1542TIP3    H226118   3.028   6.746   5.556  0.3970 -2.1136  0.6849
 1543TIP3   OH226119   4.429   6.414   3.589 -0.2597 -0.0574 -1.0451
 1543TIP3    H126120   4.503   6.379   3.639 -0.6530  0.2991 -0.1791
 1543TIP3    H226121   4.447   6.507   3.580 -0.8647  0.1469 -0.3123
 1544TIP3   OH226122   0.514   5.086  15.088  0.0373  0.6652 -0.0849
 1544TIP3    H126123   0.481   5.080  14.998 -0.4045 -0.4633  0.1321
 1544TIP3    H226124   0.462   5.022  15.137  0.1291  1.3988  1.0262
 1545TIP3   OH226125   4.107   1.267  16.992  0.5190  0.6572  0.2181
 1545TIP3    H126126   4.104   1.177  17.023  0.0663  0.6116  0.0440
 1545TIP3    H226127   4.111   1.260  16.897  0.8459  0.8172  0.2165
 1546TIP3   OH226128   1.461   3.679   4.993 -0.1410 -0.1136  0.0446
 1546TIP3    H126129   1.464   3.769   5.027  0.0908  0.3412 -1.1116
 1546TIP3    H226130   1.384   3.677   4.937 -0.7046 -0.9441  0.8336
 1547TIP3   OH226131   1.911   3.860   0.263 -0.1541  0.2751  0.7469
 1547TIP3    H126132   1.878   3.842   0.175  1.0370 -2.1358  0.7038
 1547TIP3    H226133   1.832   3.861   0.318 -0.8444  1.1359 -0.2125
 1548TIP3   OH226134   4.021   3.747  12.601 -0.0039  0.0016 -0.6488
 1548TIP3    H126135   3.988   3.763  12.689  2.1819  2.1342 -0.0748
 1548TIP3    H226136   4.020   3.652  12.591 -0.8784 -0.2597  1.4240
 1549TIP3   OH226137   5.415   3.219  14.710 -0.0577 -1.2826  0.0161
 1549TIP3    H126138   5.505   3.217  14.678 -0.0453 -1.4817  0.0642
 1549TIP3    H226139   5.361   3.208  14.632 -0.1171  1.2386 -0.3701
 1550TIP3   OH226140   4.451   5.914   1.066 -0.3142 -0.0417 -0.2414
 1550TIP3    H126141   4.536   5.942   1.035 -0.5774  0.3101 -0.6467
 1550TIP3    H226142   4.470   5.852   1.137  0.2689  1.5002  0.9959
 1551TIP3   OH226143   5.824   3.833   2.653  0.2968  0.0551 -0.4367
 1551TIP3    H126144   5.767   3.815   2.579 -0.4978  0.3165  0.1001
 1551TIP3    H226145   5.808   3.762   2.714  1.0006 -0.1964 -0.5309
 1552TIP3   OH226146   5.183   5.661   5.113 -0.0226  0.2383 -0.1787
 1552TIP3    H126147   5.222   5.731   5.164 -0.7894  0.6319 -0.1128
 1552TIP3    H226148   5.163   5.593   5.177 -2.6500  1.4516  0.4221
 1553TIP3   OH226149   3.465   4.402  11.483 -0.2437  0.1182 -0.4042
 1553TIP3    H126150   3.557   4.407  11.508 -0.6607  1.0348  1.0972
 1553TIP3    H226151   3.458   4.458  11.406  0.5125 -0.2953 -0.7895
 1554TIP3   OH226152   1.764   3.791  10.789 -0.3470  0.6470 -0.9846
 1554TIP3    H126153   1.684   3.843  10.775 -0.2762  1.0918  0.1691
 1554TIP3    H226154   1.755   3.757  10.878  0.7438  0.6756 -0.8561
 1555TIP3   OH226155   5.282   1.580  15.911 -0.0846 -0.5836  0.3924
 1555TIP3    H126156   5.219   1.519  15.951  0.5371 -0.7767  1.0974
 1555TIP3    H226157   5.315   1.533  15.834 -0.5098 -0.6411  0.2414
 1556TIP3   OH226158   0.916   0.465   1.816 -0.0164  0.3218  0.6063
 1556TIP3    H126159   0.899   0.468   1.910 -1.9514  0.0326  0.3147
 1556TIP3    H226160   0.913   0.556   1.788  1.2790  0.4737  0.9145
 1557TIP3   OH226161   1.750   4.646   6.045  0.1608 -0.0505 -0.2074
 1557TIP3    H126162   1.722   4.632   5.955  1.6168 -0.8367 -0.5734
 1557TIP3    H226163   1.787   4.734   6.046 -0.7488  0.3476 -0.1126
 1558TIP3   OH226164   2.054   3.897   4.639 -0.1217  0.2777 -0.2201
 1558TIP3    H126165   2.017   3.824   4.589  1.8574 -0.9414 -0.0319
 1558TIP3    H226166   2.149   3.887   4.629  0.3333  0.7678  2.6201
 1559TIP3   OH226167   6.462   6.420  13.501 -0.1405 -0.1124  0.2983
 1559TIP3    H126168   6.536   6.379  13.456 -0.4199 -3.0672  2.2618
 1559TIP3    H226169   6.500   6.453  13.583 -0.4046  1.4933 -0.1925
 1560TIP3   OH226170   0.423   0.062  14.901  0.0188  0.3690  0.4610
 1560TIP3    H126171   0.501   0.088  14.851  0.1377 -0.6588  0.0908
 1560TIP3    H226172   0.444   0.087  14.991  0.4333  0.8465  0.2458
 1561TIP3   OH226173   4.560   3.836   5.160  0.4946  0.0550 -0.4149
 1561TIP3    H126174   4.623   3.905   5.179  0.6452  0.3271 -1.8070
 1561TIP3    H226175   4.566   3.824   5.065 -0.0188 -1.4003 -0.2808
 1562TIP3   OH226176   0.835   0.182  13.949 -0.0224  0.0585 -0.0328
 1562TIP3    H126177   0.874   0.173  14.036  0.4896 -1.4812 -0.3870
 1562TIP3    H226178   0.741   0.190  13.965  0.1756  1.2426  0.7013
 1563TIP3   OH226179   4.638   2.573  16.889  0.7951 -0.4464 -0.4236
 1563TIP3    H126180   4.600   2.570  16.977  0.2072 -0.0815 -0.6591
 1563TIP3    H226181   4.654   2.481  16.867 -1.0178 -0.7113 -0.7705
 1564TIP3   OH226182   3.048   5.307  15.351 -0.5467 -0.1528 -0.1924
 1564TIP3    H126183   2.994   5.372  15.307 -1.2146  2.2164  3.6820
 1564TIP3    H226184   2.987   5.260  15.409  0.4101 -2.4178 -0.9172
 1565TIP3   OH226185   2.575   6.391  13.402 -0.3468  0.6292  0.0663
 1565TIP3    H126186   2.529   6.408  13.320  0.7062 -1.9931 -1.2099
 1565TIP3    H226187   2.522   6.324  13.446  0.0190  0.7244  0.6732
 1566TIP3   OH226188   4.039   0.955  14.861 -0.0705 -0.0439  0.1764
 1566TIP3    H126189   3.985   0.998  14.928 -0.0362 -1.4902  1.1833
 1566TIP3    H226190   4.125   0.945  14.902 -0.0560 -0.9799 -0.0563
 1567TIP3   OH226191   6.427   4.237  17.156 -0.0578 -0.1306 -0.1073
 1567TIP3    H126192   6.433   4.284  17.240 -0.9387  1.1329 -0.7321
 1567TIP3    H226193   6.476   4.291  17.095 -0.1773 -0.5968 -0.6223
 1568TIP3   OH226194   0.129   6.060   5.337 -0.2158 -0.1134 -0.3154
 1568TIP3    H126195   0.175   6.068   5.421  0.3253 -1.4794 -0.4604
 1568TIP3    H226196   0.070   6.136   5.335 -0.8250 -0.4631  1.6660
 1569TIP3   OH226197   2.001   0.852  16.709 -0.4428 -0.0181 -0.1551
 1569TIP3    H126198   1.999   0.919  16.777  0.1883 -0.0345 -0.1123
 1569TIP3    H226199   1.938   0.786  16.737 -1.8032  1.0129 -0.6846
 1570TIP3   OH226200   1.585   2.908   5.904 -0.7695  0.1998  0.0388
 1570TIP3    H126201   1.591   2.910   5.999 -1.4033  2.2869  0.0904
 1570TIP3    H226202   1.675   2.917   5.874 -0.6898  0.9935  0.4788
 1571TIP3   OH226203   3.143   2.730  12.087  0.2782  0.3145 -0.4692
 1571TIP3    H126204   3.110   2.661  12.144 -1.6625  0.7192 -1.0160
 1571TIP3    H226205   3.069   2.791  12.080  0.1196 -0.1234 -4.0320
 1572TIP3   OH226206   3.208   6.522  16.423  0.3989  0.2980  0.3055
 1572TIP3    H126207   3.301   6.517  16.444  0.4277 -0.5322  0.0135
 1572TIP3    H226208   3.179   6.431  16.421 -0.3171  0.5277 -0.0697
 1573TIP3   OH226209   5.132   5.644   0.563  0.2268 -0.6193  0.5717
 1573TIP3    H126210   5.194   5.635   0.492  0.2405  0.4007  0.4453
 1573TIP3    H226211   5.183   5.678   0.636 -0.4295  1.7118  0.0185
 1574TIP3   OH226212   4.465   1.787  14.644 -0.7056  0.3283  0.7965
 1574TIP3    H126213   4.395   1.817  14.702  0.1066 -0.1665  2.0756
 1574TIP3    H226214   4.496   1.706  14.684  0.1155  0.1493 -0.1607
 1575TIP3   OH226215   5.946   5.473  16.738 -0.1900  0.3418  0.2934
 1575TIP3    H126216   5.885   5.547  16.735 -0.4317  0.1255 -0.5624
 1575TIP3    H226217   5.916   5.420  16.812 -0.7855  0.4557  0.1382
 1576TIP3   OH226218   5.294   1.634  12.013  0.2085 -0.1477  0.8376
 1576TIP3    H126219   5.304   1.727  12.034  1.3037 -0.6572  2.8393
 1576TIP3    H226220   5.338   1.624  11.929 -0.9136  1.3127  0.0262
 1577TIP3   OH226221   4.864   3.775   0.195 -0.0028 -0.4552  0.3211
 1577TIP3    H126222   4.933   3.799   0.133 -0.8046 -1.7039 -1.1439
 1577TIP3    H226223   4.877   3.833   0.270  1.2042  0.9087 -0.8866
 1578TIP3   OH226224   2.874   0.779  17.077  0.6955  0.2381  0.2827
 1578TIP3    H126225   2.839   0.816  16.996  0.4188  0.2520  0.4079
 1578TIP3    H226226   2.797   0.753  17.128  0.8364  0.9058  0.8583
 1579TIP3   OH226227   4.635   4.866  16.045  0.2494  0.1909  0.4274
 1579TIP3    H126228   4.698   4.920  15.997  1.4009 -0.8817  0.6705
 1579TIP3    H226229   4.615   4.917  16.123 -0.7593  1.4344 -0.5912
 1580TIP3   OH226230   4.371   6.159   0.662  0.0732  0.4602 -0.8082
 1580TIP3    H126231   4.349   6.164   0.569 -0.9020 -0.4784 -0.6518
 1580TIP3    H226232   4.376   6.250   0.690  0.1603  0.7474 -1.7287
 1581TIP3   OH226233   5.267   1.395   6.112  0.8735  0.2690 -0.4981
 1581TIP3    H126234   5.177   1.424   6.127  0.7726  0.0121 -0.5894
 1581TIP3    H226235   5.321   1.462   6.152  0.6281  0.1585  0.0321
 1582TIP3   OH226236   0.897   3.466  12.061  0.2549 -0.3248  0.3614
 1582TIP3    H126237   0.949   3.405  12.112  0.0426 -0.4848  0.3882
 1582TIP3    H226238   0.959   3.532  12.031  0.4212 -0.3589  0.6304
 1583TIP3   OH226239   1.663   2.813  12.488 -0.8468  0.7046 -0.0847
 1583TIP3    H126240   1.723   2.804  12.562  0.0505 -1.9005 -1.0051
 1583TIP3    H226241   1.663   2.907  12.468  1.4350  1.0351  1.1586
 1584TIP3   OH226242   4.558   4.502   4.708  0.0527  0.1081  0.0909
 1584TIP3    H126243   4.490   4.472   4.648  0.2682 -0.2568  0.0288
 1584TIP3    H226244   4.637   4.457   4.680  0.8837  2.2716 -1.3397
 1585TIP3   OH226245   6.537   6.092   2.076  0.1853  0.1659  0.3720
 1585TIP3    H126246   6.460   6.043   2.106 -0.2856  0.2595 -0.6231
 1585TIP3    H226247   6.594   6.026   2.037  0.1111  0.2351  0.1418
 1586TIP3   OH226248   1.564   2.219   1.735 -0.5786 -0.1756 -0.5841
 1586TIP3    H126249   1.513   2.143   1.708  0.2702 -0.6095 -1.0116
 1586TIP3    H226250   1.581   2.205   1.828 -2.3702  0.6552 -0.0899
 1587TIP3   OH226251   2.804   2.060  13.165  0.0120 -0.6903  0.0181
 1587TIP3    H126252   2.854   1.985  13.195  0.7017 -0.1386  0.2668
 1587TIP3    H226253   2.867   2.114  13.118 -0.4135 -0.1343  0.0700
 1588TIP3   OH226254   0.096   0.212   5.279 -0.8212  0.3571  0.3242
 1588TIP3    H126255   0.051   0.196   5.196  1.1226  1.0635 -0.9242
 1588TIP3    H226256   0.097   0.307   5.288 -0.3798  0.3138  0.7885
 1589TIP3   OH226257   2.449   4.942   4.605 -0.0232  0.3150 -0.3178
 1589TIP3    H126258   2.514   4.951   4.535  1.2167  1.2862  0.9007
 1589TIP3    H226259   2.364   4.951   4.561  0.7221  0.7253 -1.7096
 1590TIP3   OH226260   1.673   4.349   3.141  0.0747 -0.5175  0.3895
 1590TIP3    H126261   1.753   4.392   3.113  0.1881 -0.6556  0.4994
 1590TIP3    H226262   1.652   4.289   3.070 -0.0590 -0.3132  0.2561
 1591TIP3   OH226263   2.892   4.691  14.021  0.1248  0.3084 -0.0403
 1591TIP3    H126264   2.879   4.659  14.110  0.2582 -0.6862 -0.3636
 1591TIP3    H226265   2.804   4.712  13.990 -0.1010 -0.8314 -0.2056
 1592TIP3   OH226266   1.700   5.871  10.942  0.3474  0.2912 -0.1642
 1592TIP3    H126267   1.674   5.939  10.880 -2.0886  0.9631  1.4558
 1592TIP3    H226268   1.645   5.886  11.019  1.6586 -1.8699  1.3106
 1593TIP3   OH226269   0.108   0.009   5.058  0.0604 -0.1972 -0.3406
 1593TIP3    H126270   0.146  -0.034   5.135  0.5475 -0.2851 -0.6263
 1593TIP3    H226271   0.023   0.040   5.088 -1.1801 -3.0130 -0.6119
 1594TIP3   OH226272   3.792   3.752  13.379  0.2613 -0.2774 -0.0245
 1594TIP3    H126273   3.731   3.714  13.316  0.6740  0.1734 -0.7042
 1594TIP3    H226274   3.820   3.834  13.339  0.1358  0.2795  0.9817
 1595TIP3   OH226275   5.573   5.769   3.901 -0.0155 -0.3773 -0.1438
 1595TIP3    H126276   5.649   5.799   3.952 -0.2159  0.0239 -0.0823
 1595TIP3    H226277   5.528   5.709   3.961  1.2431 -2.0955 -0.8108
 1596TIP3   OH226278   2.873   2.823   5.076  0.1540 -0.0776  0.2337
 1596TIP3    H126279   2.887   2.867   5.160  0.9236 -2.7653  1.6410
 1596TIP3    H226280   2.822   2.745   5.098  0.8331 -1.1452 -1.7006
 1597TIP3   OH226281   0.971   1.824   2.794  0.9606 -0.0825 -0.0354
 1597TIP3    H126282   1.005   1.739   2.764  0.4861  0.5768 -2.7109
 1597TIP3    H226283   0.980   1.881   2.718  0.9791  2.2151  1.6111
 1598TIP3   OH226284   1.830   6.115   6.103  0.1299 -0.1493  0.1974
 1598TIP3    H126285   1.742   6.105   6.137  0.7488  0.7896  2.1877
 1598TIP3    H226286   1.832   6.202   6.064 -0.3901 -0.9797 -1.8275
 1599TIP3   OH226287   6.477   2.952   5.727  0.0400  0.1154 -0.1583
 1599TIP3    H126288   6.514   3.011   5.661 -1.4860  0.3072 -0.8888
 1599TIP3    H226289   6.549   2.935   5.787  0.9158  1.5787 -0.7360
 1600TIP3   OH226290   6.760   2.515   3.107  0.2174 -0.0581 -0.2447
 1600TIP3    H126291   6.712   2.587   3.147 -1.0613 -0.7536 -0.4762
 1600TIP3    H226292   6.823   2.487   3.174  0.3942  0.9388  0.0186
 1601TIP3   OH226293   4.930   3.255  13.962  0.1186 -0.2861  0.1423
 1601TIP3    H126294   4.911   3.315  14.034  1.9498  0.1987  0.2665
 1601TIP3    H226295   4.964   3.310  13.892  0.8660 -1.0354 -0.1065
 1602TIP3   OH226296   5.176   6.643   0.158 -0.3561  0.3317 -0.2168
 1602TIP3    H126297   5.192   6.550   0.148 -1.0908  0.3021 -1.2741
 1602TIP3    H226298   5.249   6.685   0.111 -0.9265  0.2514 -1.2085
 1603TIP3   OH226299   2.713   5.314   2.059 -0.4417 -0.0813 -0.3139
 1603TIP3    H126300   2.735   5.260   2.135  1.3321  2.5471  1.2064
 1603TIP3    H226301   2.660   5.385   2.095 -1.4554  0.0322 -1.9633
 1604TIP3   OH226302   6.034   1.653  16.364 -0.5112 -0.2368  0.6566
 1604TIP3    H126303   5.985   1.732  16.343 -0.9388 -0.5901  0.2947
 1604TIP3    H226304   5.993   1.621  16.445  0.9043  0.9317  1.8873
 1605TIP3   OH226305   6.017   2.291  16.590 -0.1573  0.1080 -0.4403
 1605TIP3    H126306   6.005   2.226  16.659 -0.9989  0.3685 -0.3381
 1605TIP3    H226307   6.056   2.366  16.634  0.6552 -0.2536 -0.5239
 1606TIP3   OH226308   1.894   2.692  14.271 -0.4023  0.1746  0.1173
 1606TIP3    H126309   1.841   2.638  14.329  1.9991 -1.8896  0.5919
 1606TIP3    H226310   1.958   2.733  14.329  0.7771 -0.3240 -0.7828
 1607TIP3   OH226311   5.288   0.927  15.547 -0.3312 -0.3736 -0.2625
 1607TIP3    H126312   5.357   0.889  15.603  0.5021  0.5687 -0.6067
 1607TIP3    H226313   5.315   0.905  15.458  0.4160  1.3018 -0.5061
 1608TIP3   OH226314   6.682   0.409  10.647  0.2576 -0.1386 -0.4616
 1608TIP3    H126315   6.612   0.351  10.617  0.9233 -0.2588 -1.8426
 1608TIP3    H226316   6.691   0.474  10.577  0.2569  1.0056  0.5673
 1609TIP3   OH226317   4.637   2.797   0.104  0.1024  0.2231  0.2713
 1609TIP3    H126318   4.574   2.818   0.174 -2.3639 -0.4572 -1.5891
 1609TIP3    H226319   4.634   2.874   0.046  0.9883  0.1523  0.1200
 1610TIP3   OH226320   5.454   5.927  16.513 -0.0075 -0.3978  0.2851
 1610TIP3    H126321   5.443   5.948  16.606 -0.6216 -1.1728  0.3929
 1610TIP3    H226322   5.479   6.011  16.474 -0.6537  0.1563  0.9970
 1611TIP3   OH226323   0.384   5.788  15.304  0.1859  0.5943 -0.3017
 1611TIP3    H126324   0.409   5.764  15.214  1.4526 -0.4173  0.2915
 1611TIP3    H226325   0.467   5.804  15.348 -0.0687 -2.8942  1.7569
 1612TIP3   OH226326   2.986   5.943   2.796  0.2069  0.7225  0.1836
 1612TIP3    H126327   3.075   5.964   2.767  0.0892  1.0031  0.0169
 1612TIP3    H226328   2.997   5.914   2.887  0.6032 -0.3807 -0.1981
 1613TIP3   OH226329   1.790   5.236  15.877  0.5130 -0.0883  0.2500
 1613TIP3    H126330   1.880   5.207  15.867  0.6299  0.7881 -1.7426
 1613TIP3    H226331   1.752   5.176  15.941  1.2653 -3.3391 -2.1043
 1614TIP3   OH226332   1.094   3.082   5.215  0.4141  0.4678 -1.0004
 1614TIP3    H126333   1.186   3.059   5.197  0.8157  0.5137  0.8249
 1614TIP3    H226334   1.098   3.172   5.247 -0.5806  1.3653 -3.1730
 1615TIP3   OH226335   2.502   5.665  15.369  0.1315  0.5317  0.0753
 1615TIP3    H126336   2.500   5.757  15.393  0.6031  0.2519  1.2808
 1615TIP3    H226337   2.595   5.646  15.356  0.0801  0.1163  0.2901
 1616TIP3   OH226338   4.113   3.850   3.700  0.0636 -0.6758 -0.7193
 1616TIP3    H126339   4.093   3.772   3.648 -0.4552 -0.6422 -0.5746
 1616TIP3    H226340   4.081   3.923   3.648 -2.1030 -0.7557  0.4091
 1617TIP3   OH226341   3.422   5.464   0.379  0.1107 -0.3300  0.0584
 1617TIP3    H126342   3.475   5.521   0.323  1.0251 -0.0544  1.1680
 1617TIP3    H226343   3.472   5.383   0.384  0.0392 -0.3477  0.4872
 1618TIP3   OH226344   5.429   0.905   0.465  0.1532  0.4494 -0.3550
 1618TIP3    H126345   5.385   0.905   0.550 -0.0178  1.2258 -0.4308
 1618TIP3    H226346   5.499   0.840   0.474 -0.4943 -0.2098  0.0343
 1619TIP3   OH226347   4.294   4.630   2.947 -0.9222 -0.4658 -0.0103
 1619TIP3    H126348   4.353   4.557   2.926  0.6280  1.3259 -2.4783
 1619TIP3    H226349   4.216   4.614   2.894 -0.1707  0.1242 -1.3381
 1620TIP3   OH226350   6.456   1.373   2.239 -0.4687  0.3490  0.3968
 1620TIP3    H126351   6.395   1.446   2.227 -1.4723 -0.5248  0.0513
 1620TIP3    H226352   6.458   1.329   2.154  0.9534  0.5808  0.2877
 1621TIP3   OH226353   3.937   2.131   1.280  0.6688  0.7011  0.2979
 1621TIP3    H126354   3.960   2.087   1.198 -1.1131 -1.4639  0.8720
 1621TIP3    H226355   3.863   2.187   1.258 -0.9179 -1.1559  0.6769
 1622TIP3   OH226356   0.742   3.477  16.341 -0.0625 -0.0786  0.1799
 1622TIP3    H126357   0.709   3.432  16.263  0.8757 -0.9473  0.2456
 1622TIP3    H226358   0.710   3.566  16.333  0.4316 -0.0008 -1.4906
 1623TIP3   OH226359   6.124   3.060   3.809  0.0443  0.2922 -0.0691
 1623TIP3    H126360   6.099   3.146   3.845  2.6617  0.9474  0.3945
 1623TIP3    H226361   6.155   3.011   3.885  0.9891 -0.1232 -0.7088
 1624TIP3   OH226362   1.127   2.639   5.685 -0.0183 -0.1170 -0.1682
 1624TIP3    H126363   1.136   2.708   5.751 -1.1120  1.6347 -1.7459
 1624TIP3    H226364   1.059   2.582   5.719  0.3063  0.0370  0.7799
 1625TIP3   OH226365   2.987   0.837  12.210 -0.4330 -0.1490  0.5218
 1625TIP3    H126366   3.024   0.871  12.292 -1.8936  1.5913  0.5118
 1625TIP3    H226367   2.928   0.767  12.238 -0.0191 -0.3889  0.8260
 1626TIP3   OH226368   0.986   4.430   1.588  0.2670  0.1548  0.0326
 1626TIP3    H126369   1.004   4.398   1.676 -1.7924  1.2323  0.9154
 1626TIP3    H226370   0.918   4.371   1.555 -1.9355  2.0787  0.8197
 1627TIP3   OH226371   6.419   2.180  16.997 -0.0017  0.0564 -0.5804
 1627TIP3    H126372   6.389   2.260  16.955  1.5831  0.0642 -1.7794
 1627TIP3    H226373   6.384   2.110  16.941  0.2816 -0.0094 -0.6770
 1628TIP3   OH226374   2.370   2.241  14.157  0.2805 -0.1035  0.0186
 1628TIP3    H126375   2.412   2.323  14.185  0.3011 -0.4022  0.8866
 1628TIP3    H226376   2.308   2.220  14.226  0.5270 -1.0107 -0.0188
 1629TIP3   OH226377   1.441   6.644   5.175  0.2637 -0.4732 -0.1128
 1629TIP3    H126378   1.493   6.634   5.095  2.1419 -4.3256  1.3218
 1629TIP3    H226379   1.503   6.628   5.246 -2.1990 -2.1411  1.8487
 1630TIP3   OH226380   3.375   1.976  11.294 -0.4321  0.6116 -0.3363
 1630TIP3    H126381   3.410   2.041  11.233 -0.1377  0.0290 -0.7975
 1630TIP3    H226382   3.452   1.943  11.341 -0.7542  1.7822  1.1065
 1631TIP3   OH226383   2.342   1.827  11.946 -0.4129  0.0519 -0.2726
 1631TIP3    H126384   2.272   1.891  11.930 -0.2692  0.2278 -0.2148
 1631TIP3    H226385   2.419   1.866  11.905 -0.7596 -1.0512 -2.0480
 1632TIP3   OH226386   6.733   1.003  11.986  0.5525 -0.0529 -0.3041
 1632TIP3    H126387   6.678   1.074  11.953  1.3607  0.5048 -0.4827
 1632TIP3    H226388   6.752   0.949  11.909  1.3914  0.5393 -0.5302
 1633TIP3   OH226389   5.811   4.433  16.679 -0.5465  0.3668 -0.0409
 1633TIP3    H126390   5.797   4.340  16.696  0.9543 -0.0104 -0.6364
 1633TIP3    H226391   5.806   4.474  16.765  0.3398 -0.5154  0.4562
 1634TIP3   OH226392   3.572   4.526   0.013  0.0083 -0.7238  0.2184
 1634TIP3    H126393   3.608   4.610  -0.013  0.8461 -1.4898 -1.2155
 1634TIP3    H226394   3.486   4.523  -0.028 -1.0337  0.3519  2.1687
 1635TIP3   OH226395   1.310   0.100  14.663  0.0248 -0.5265  0.7857
 1635TIP3    H126396   1.360   0.066  14.736  2.2972 -0.8341 -0.8157
 1635TIP3    H226397   1.354   0.182  14.640  0.6472 -1.4080 -1.4407
 1636TIP3   OH226398   1.350   5.196   1.318  0.0179 -0.2290 -0.4408
 1636TIP3    H126399   1.260   5.165   1.325 -0.1744  0.0611 -1.5022
 1636TIP3    H226400   1.390   5.141   1.251  0.1799  0.6519 -1.0877
 1637TIP3   OH226401   5.558   6.679   3.840 -0.5136 -0.5604  0.4207
 1637TIP3    H126402   5.614   6.739   3.792 -0.1372 -0.8608  0.4862
 1637TIP3    H226403   5.503   6.736   3.894  0.0737 -0.2857  0.7359
 1638TIP3   OH226404   0.242   6.468  13.165 -0.2353  0.3406 -0.0904
 1638TIP3    H126405   0.180   6.499  13.231  0.2738  1.6311 -0.1989
 1638TIP3    H226406   0.186   6.423  13.100 -1.0736  1.4625 -0.1782
 1639TIP3   OH226407   3.775   2.611   6.044  0.2696  0.1160  0.0427
 1639TIP3    H126408   3.810   2.604   6.133 -0.2244  1.6776  0.3840
 1639TIP3    H226409   3.692   2.563   6.047 -0.6701  1.7344  0.9610
 1640TIP3   OH226410   4.146   0.777   6.022  0.6627 -0.4201  0.4698
 1640TIP3    H126411   4.083   0.712   5.989 -2.1026  1.0572  2.4740
 1640TIP3    H226412   4.128   0.855   5.970 -0.6769  0.5977  2.3281
 1641TIP3   OH226413   0.499   1.711  13.911 -0.3536  0.9223  0.0575
 1641TIP3    H126414   0.524   1.746  13.825 -0.5724  1.4894  0.2214
 1641TIP3    H226415   0.418   1.759  13.934 -1.5863 -0.8264 -0.4411
 1642TIP3   OH226416   0.880   0.469  11.280  0.0063 -0.2090  0.4769
 1642TIP3    H126417   0.932   0.484  11.201 -0.0974  0.2323  0.4910
 1642TIP3    H226418   0.803   0.420  11.250  0.8144 -1.6204  0.5788
 1643TIP3   OH226419   2.454   4.778  16.409 -0.2661  0.9547  0.3192
 1643TIP3    H126420   2.400   4.702  16.432  0.5785  0.5287  0.9336
 1643TIP3    H226421   2.508   4.794  16.486  2.1814 -0.1018 -1.0414
 1644TIP3   OH226422   4.170   4.325  15.288 -0.5337  0.7883  0.0764
 1644TIP3    H126423   4.257   4.358  15.268 -0.1111 -0.2365  0.1880
 1644TIP3    H226424   4.166   4.326  15.384  0.1528 -1.0977  0.1684
 1645TIP3   OH226425   4.592   4.059   3.379  0.2824  0.1476 -0.3202
 1645TIP3    H126426   4.515   4.016   3.414  1.0115 -2.4542 -1.6867
 1645TIP3    H226427   4.557   4.122   3.316 -0.7488  0.3980  0.4612
 1646TIP3   OH226428   0.884   3.829   4.003 -0.2301  0.2312  0.2644
 1646TIP3    H126429   0.790   3.846   4.015 -0.5194 -0.3479 -1.0295
 1646TIP3    H226430   0.925   3.914   4.012 -1.0168  0.6827 -0.3391
 1647TIP3   OH226431   2.304   0.854   2.932  0.5316  0.4092 -0.3232
 1647TIP3    H126432   2.301   0.932   2.876 -0.7043 -0.4567 -1.5422
 1647TIP3    H226433   2.308   0.888   3.021  0.8551  1.8441 -0.8579
 1648TIP3   OH226434   4.713   1.677   5.767  0.2246 -0.0239 -0.2383
 1648TIP3    H126435   4.781   1.610   5.781  1.4699  1.1002 -0.7538
 1648TIP3    H226436   4.631   1.627   5.761  1.2697 -1.6263 -1.9136
 1649TIP3   OH226437   2.910   0.267  16.403  0.1663 -0.1496  0.1056
 1649TIP3    H126438   2.826   0.312  16.396 -0.3842 -1.1126  0.3137
 1649TIP3    H226439   2.920   0.224  16.318 -0.0301 -0.8319  0.4204
 1650TIP3   OH226440   6.221   0.419   4.304  0.1046 -0.5718 -0.2174
 1650TIP3    H126441   6.316   0.426   4.317  0.0619 -1.5929  0.8689
 1650TIP3    H226442   6.194   0.507   4.276  1.0507  0.4056  1.7137
 1651TIP3   OH226443   3.832   1.396  13.865 -0.0317 -0.0084 -0.2811
 1651TIP3    H126444   3.921   1.401  13.898 -0.0654 -1.3496  0.0563
 1651TIP3    H226445   3.838   1.423  13.773  0.5971  0.5435 -0.0808
 1652TIP3   OH226446   1.109   1.878   5.207 -0.5753 -1.1170 -0.3869
 1652TIP3    H126447   1.172   1.858   5.138 -0.3056  0.1157 -0.5337
 1652TIP3    H226448   1.055   1.947   5.169 -0.3727 -0.3706  0.6460
 1653TIP3   OH226449   5.612   0.020   5.113 -0.7162  0.2126 -0.0412
 1653TIP3    H126450   5.704   0.001   5.096 -0.4015  1.7517 -0.1546
 1653TIP3    H226451   5.574  -0.065   5.136  1.4302  0.0225  3.4260
 1654TIP3   OH226452   0.929   5.829   5.853 -0.1648  0.4344 -0.2723
 1654TIP3    H126453   0.911   5.872   5.769  1.7977  2.6347  0.3423
 1654TIP3    H226454   1.009   5.779   5.837  0.3255  1.0191  0.3155
 1655TIP3   OH226455   2.213   3.229   4.941  0.4591  0.5644  0.6273
 1655TIP3    H126456   2.213   3.149   4.888  1.2486  1.1828 -0.3523
 1655TIP3    H226457   2.228   3.199   5.030 -1.3458 -0.5569  0.6007
 1656TIP3   OH226458   3.194   0.374   1.534  0.1881 -0.0836  0.1406
 1656TIP3    H126459   3.148   0.389   1.451 -0.2228 -1.2764  0.1317
 1656TIP3    H226460   3.282   0.350   1.508  0.5111  1.0384  0.1210
 1657TIP3   OH226461   4.558   2.540  13.781  0.1291 -0.1168 -0.1148
 1657TIP3    H126462   4.618   2.494  13.839 -1.7388 -0.0563  2.0042
 1657TIP3    H226463   4.510   2.471  13.736 -0.6701 -0.2427  0.8997
 1658TIP3   OH226464   3.155   5.016  13.858  0.3159  0.3772  0.2883
 1658TIP3    H126465   3.125   5.100  13.825 -0.0969  0.3042  0.4723
 1658TIP3    H226466   3.162   5.029  13.953 -0.0236  0.1192  0.3488
 1659TIP3   OH226467   1.735   6.156  12.210 -0.1914 -0.0818  0.0926
 1659TIP3    H126468   1.803   6.151  12.277  0.9710 -2.3117 -1.1462
 1659TIP3    H226469   1.753   6.238  12.164  0.8696 -0.0016  0.6122
 1660TIP3   OH226470   3.836   0.116   1.369 -0.0402 -0.0655 -0.3232
 1660TIP3    H126471   3.810   0.207   1.357  3.1092  0.9410 -0.1686
 1660TIP3    H226472   3.753   0.068   1.370 -1.7219  2.4110 -3.1233
 1661TIP3   OH226473   4.355   1.008   6.195 -0.0255 -0.2645  0.2526
 1661TIP3    H126474   4.354   1.090   6.145  1.3992 -0.4885 -0.1848
 1661TIP3    H226475   4.437   1.012   6.245 -0.1215 -1.2658  0.5046
 1662TIP3   OH226476   0.997   0.755  16.707  0.0734  0.6686 -0.0949
 1662TIP3    H126477   0.929   0.688  16.707  2.5779 -2.1419 -1.8606
 1662TIP3    H226478   0.962   0.826  16.654 -2.3195  0.4158  1.0319
 1663TIP3   OH226479   2.278   4.003   2.338  0.4394 -0.1318 -0.3681
 1663TIP3    H126480   2.283   4.080   2.282  0.0269 -0.0252 -0.2630
 1663TIP3    H226481   2.369   3.982   2.359  0.5765  0.0555 -0.7621
 1664TIP3   OH226482   0.809   4.154  12.281 -0.0196  0.4223  0.0125
 1664TIP3    H126483   0.814   4.200  12.365 -1.2026  2.3769 -0.9232
 1664TIP3    H226484   0.884   4.185  12.231 -0.9640  1.6104 -0.7177
 1665TIP3   OH226485   4.831   3.366   4.875 -0.2657 -0.6632  0.0429
 1665TIP3    H126486   4.824   3.348   4.969 -0.1412 -0.5365  0.0785
 1665TIP3    H226487   4.878   3.449   4.871 -0.4376 -0.5727 -0.1269
 1666TIP3   OH226488   0.597   0.872   2.710 -0.7062 -0.1167  0.0173
 1666TIP3    H126489   0.583   0.819   2.789 -0.9136  0.5414  0.4390
 1666TIP3    H226490   0.686   0.851   2.682 -1.1355 -1.4157 -0.3973
 1667TIP3   OH226491   4.554   1.589  16.571 -0.0144 -0.3284  0.3423
 1667TIP3    H126492   4.497   1.531  16.621 -0.1317 -0.2503  0.2990
 1667TIP3    H226493   4.621   1.617  16.634  0.5739 -1.2143  0.1400
 1668TIP3   OH226494   5.117   3.901  12.409  0.1081  0.5103 -0.1526
 1668TIP3    H126495   5.188   3.875  12.350  1.3639 -0.7266  1.7918
 1668TIP3    H226496   5.046   3.841  12.387  0.8048 -0.4147  0.0399
 1669TIP3   OH226497   2.614   3.896   6.022  0.6549 -0.5458  0.0125
 1669TIP3    H126498   2.600   3.898   6.117  1.8700 -1.7277  0.2492
 1669TIP3    H226499   2.587   3.983   5.992 -2.1697 -0.9572  1.0487
 1670TIP3   OH226500   2.160   0.035  13.981 -0.1881 -0.2786  0.7338
 1670TIP3    H126501   2.148  -0.051  14.020  0.9358  0.4016  2.7662
 1670TIP3    H226502   2.164   0.019  13.887  0.1616 -2.4651  1.0688
 1671TIP3   OH226503   0.250   3.129  14.649  0.0041  0.1853  0.2057
 1671TIP3    H126504   0.157   3.118  14.633  0.1607 -1.9764  0.4865
 1671TIP3    H226505   0.274   3.207  14.599 -2.0074  0.9954  0.4337
 1672TIP3   OH226506   3.814   4.438  14.974 -0.6140  0.1826 -0.5764
 1672TIP3    H126507   3.895   4.388  14.984  0.3466  1.8105  0.2007
 1672TIP3    H226508   3.753   4.377  14.934  0.3245 -1.7766  0.8052
 1673TIP3   OH226509   3.773   5.378   0.477  0.7263 -0.6388  0.3953
 1673TIP3    H126510   3.791   5.330   0.557 -0.3714 -0.7303  0.6112
 1673TIP3    H226511   3.693   5.427   0.496  0.5732 -0.4882 -0.5672
 1674TIP3   OH226512   0.225   1.974  11.130 -0.1792  0.5444  0.3401
 1674TIP3    H126513   0.215   2.013  11.216 -0.3437 -1.1884  1.1613
 1674TIP3    H226514   0.185   1.887  11.138  1.7611 -0.5390 -0.7991
 1675TIP3   OH226515   6.149   6.293   3.398  0.8019  0.2415 -0.4520
 1675TIP3    H126516   6.146   6.372   3.452  2.3457  0.2463 -0.3215
 1675TIP3    H226517   6.232   6.252   3.422  0.7107 -0.6389 -1.6079
 1676TIP3   OH226518   6.450   5.812  14.938 -0.3569 -0.2737 -0.2707
 1676TIP3    H126519   6.480   5.874  14.871 -0.8178 -0.0729 -0.2910
 1676TIP3    H226520   6.531   5.770  14.968 -0.1877 -0.8086 -1.3875
 1677TIP3   OH226521   1.555   1.818   0.211  0.2835  0.2018  0.0480
 1677TIP3    H126522   1.584   1.823   0.120  0.2064 -0.6525 -0.0380
 1677TIP3    H226523   1.636   1.803   0.261  0.2342 -0.1732  0.0220
 1678TIP3   OH226524   6.543   0.120   6.250 -0.4193  0.7217  0.6394
 1678TIP3    H126525   6.570   0.192   6.308 -0.9405  1.3448  0.1196
 1678TIP3    H226526   6.583   0.042   6.289  0.0944  1.2785  1.2535
 1679TIP3   OH226527   5.228   0.666   0.421  0.8449 -0.3389 -0.3967
 1679TIP3    H126528   5.309   0.619   0.400  1.1945  0.8650 -2.0073
 1679TIP3    H226529   5.249   0.758   0.403 -1.1048 -0.0792 -1.6630
 1680TIP3   OH226530   1.859   3.461   5.494 -0.0645  0.2000  0.1318
 1680TIP3    H126531   1.796   3.411   5.443 -1.2312  1.7728 -0.0565
 1680TIP3    H226532   1.942   3.450   5.448 -1.0614  1.4758 -2.0947
 1681TIP3   OH226533   4.455   4.257   4.009 -0.3052 -0.1125 -0.3685
 1681TIP3    H126534   4.452   4.299   4.095  0.0621 -0.5911 -0.1157
 1681TIP3    H226535   4.460   4.329   3.947  0.6626  0.2124  0.0751
 1682TIP3   OH226536   5.801   3.589   0.645 -0.0433  0.0049 -0.5838
 1682TIP3    H126537   5.870   3.524   0.632  0.7169  0.2491  1.6973
 1682TIP3    H226538   5.719   3.540   0.638  0.4792 -0.9861 -0.0198
 1683TIP3   OH226539   2.413   0.347  11.726  1.1770  0.0962 -0.9123
 1683TIP3    H126540   2.482   0.283  11.710  0.7583 -0.7342  0.4303
 1683TIP3    H226541   2.377   0.322  11.811 -0.8310  0.4807 -1.6163
 1684TIP3   OH226542   0.041   5.388  12.373 -0.5169  0.0862 -0.4121
 1684TIP3    H126543   0.106   5.329  12.409 -0.0399 -0.1719 -1.6521
 1684TIP3    H226544  -0.034   5.333  12.352 -1.6636  0.5552  2.1164
 1685TIP3   OH226545   0.257   6.033  14.460 -0.1559  0.8724 -0.1939
 1685TIP3    H126546   0.287   6.012  14.372 -2.2885  1.6434 -1.1649
 1685TIP3    H226547   0.242   5.948  14.501  0.5768  0.5068 -0.6630
 1686TIP3   OH226548   2.435   0.700  16.648 -0.5555 -0.1310  0.4785
 1686TIP3    H126549   2.350   0.657  16.639 -0.3274 -0.4902 -0.0446
 1686TIP3    H226550   2.423   0.762  16.719 -1.0862 -0.5982  0.8066
 1687TIP3   OH226551   6.218   1.442   1.102  0.1635  0.2589 -0.3184
 1687TIP3    H126552   6.123   1.445   1.109  0.1071 -1.8468  0.5692
 1687TIP3    H226553   6.246   1.531   1.124 -1.5387  0.5684  0.8227
 1688TIP3   OH226554   4.207   2.277  15.766  0.0186 -0.7706 -0.1308
 1688TIP3    H126555   4.257   2.234  15.697 -1.6697  0.4853 -2.2471
 1688TIP3    H226556   4.152   2.207  15.802  0.1490 -1.2280 -0.7927
 1689TIP3   OH226557   2.169   0.578  16.682 -0.2931  0.2467  0.4242
 1689TIP3    H126558   2.099   0.631  16.721 -1.3393 -1.1860  0.6066
 1689TIP3    H226559   2.179   0.504  16.742 -1.3269 -1.5670 -1.4861
 1690TIP3   OH226560   4.415   5.893   2.593 -0.3574  0.2656 -0.1539
 1690TIP3    H126561   4.372   5.898   2.507 -3.4416 -2.6113  0.9835
 1690TIP3    H226562   4.365   5.952   2.649  0.6173  0.9067  0.0650
 1691TIP3   OH226563   4.162   2.565  15.654 -0.1945  0.5070  0.2597
 1691TIP3    H126564   4.185   2.581  15.745  1.4505  0.1832 -0.0610
 1691TIP3    H226565   4.129   2.475  15.653  0.1309  0.3823  0.4838
 1692TIP3   OH226566   3.409   1.157   3.898  0.1401 -0.3287 -0.0638
 1692TIP3    H126567   3.442   1.147   3.987 -2.2307 -1.5159  0.7604
 1692TIP3    H226568   3.464   1.226   3.860  1.7179 -0.3312  2.0291
 1693TIP3   OH226569   4.086   3.818  15.640  0.2587 -0.4296  0.2970
 1693TIP3    H126570   4.101   3.909  15.667  0.5136 -0.4243  0.1403
 1693TIP3    H226571   4.171   3.787  15.611 -0.1807 -0.1139 -1.4470
 1694TIP3   OH226572   1.728   2.928  13.336  0.1775  0.2058 -0.9406
 1694TIP3    H126573   1.757   2.922  13.245  0.0860 -0.0623 -0.9537
 1694TIP3    H226574   1.713   2.837  13.362  1.5783  0.1627 -0.2148
 1695TIP3   OH226575   0.553   6.528  14.894  0.0815  0.3901  0.5407
 1695TIP3    H126576   0.557   6.434  14.877 -3.3081  0.2268 -0.0489
 1695TIP3    H226577   0.626   6.565  14.844  0.2790 -1.7351 -0.8555
 1696TIP3   OH226578   5.884   3.532  13.087  0.2278  0.2780  0.0837
 1696TIP3    H126579   5.808   3.479  13.113 -0.6360  2.8529  3.5196
 1696TIP3    H226580   5.958   3.492  13.134 -0.1799  1.2031  1.5828
 1697TIP3   OH226581   5.154   4.109  14.268 -0.0147 -0.0826 -0.2829
 1697TIP3    H126582   5.192   4.121  14.355  0.5391 -0.6669 -0.4390
 1697TIP3    H226583   5.218   4.145  14.207  0.2532 -0.9574 -0.5376
 1698TIP3   OH226584   1.730   1.983  16.682 -0.3584  0.8626  0.3380
 1698TIP3    H126585   1.687   2.068  16.674  0.6528  1.2943 -0.8014
 1698TIP3    H226586   1.740   1.953  16.591  0.3682  0.0777  0.6649
 1699TIP3   OH226587   0.725   0.430  15.165  0.2379  0.1914  0.1657
 1699TIP3    H126588   0.745   0.402  15.254 -0.7747  2.3665  1.1538
 1699TIP3    H226589   0.800   0.400  15.113  1.2251 -0.4537  1.8868
 1700TIP3   OH226590   0.817   1.691   0.441  0.2108  0.0689  0.4062
 1700TIP3    H126591   0.815   1.778   0.400  1.4256 -0.1329 -0.1210
 1700TIP3    H226592   0.899   1.652   0.412 -0.8375 -1.7418 -0.3229
 1701TIP3   OH226593   4.619   0.390   2.575  0.0406 -0.3560 -0.2892
 1701TIP3    H126594   4.565   0.323   2.617  0.7801 -0.1953  0.9685
 1701TIP3    H226595   4.568   0.470   2.581 -0.4505 -0.6051 -0.9730
 1702TIP3   OH226596   5.871   1.452  12.616 -0.4108 -0.0171 -0.0778
 1702TIP3    H126597   5.859   1.521  12.681  0.5291  0.6705 -0.6066
 1702TIP3    H226598   5.892   1.498  12.535  0.6509 -0.9245 -0.3526
 1703TIP3   OH226599   6.657   1.073   3.942 -0.6316  0.5336 -0.2941
 1703TIP3    H126600   6.644   1.011   4.014 -0.5940  1.1382  0.2396
 1703TIP3    H226601   6.751   1.094   3.946 -0.8768  1.5489  0.2961
 1704TIP3   OH226602   3.720   0.489  11.402  0.1185 -0.9673 -0.2970
 1704TIP3    H126603   3.667   0.440  11.464 -2.2793 -0.6034 -1.9041
 1704TIP3    H226604   3.690   0.580  11.412  1.3363 -0.5356 -0.4091
 1705TIP3   OH226605   0.470   6.569   2.669 -0.9171 -0.4181  0.4528
 1705TIP3    H126606   0.376   6.578   2.651 -1.0407  1.3734  1.7175
 1705TIP3    H226607   0.492   6.482   2.636 -2.8676 -0.6205 -0.4931
 1706TIP3   OH226608   4.442   4.721  12.648 -0.0987  0.2954 -0.0593
 1706TIP3    H126609   4.456   4.708  12.742 -1.2380  0.6297  0.1837
 1706TIP3    H226610   4.517   4.773  12.620  1.2056 -1.3573  0.2632
 1707TIP3   OH226611   2.987   4.830  16.228 -0.5729 -0.1342 -0.3913
 1707TIP3    H126612   3.056   4.861  16.170  0.7727 -0.7975  0.8013
 1707TIP3    H226613   2.949   4.909  16.266  0.4163  0.1959 -0.0752
 1708TIP3   OH226614   6.772   0.136   4.082  0.0283 -0.3402  0.3571
 1708TIP3    H126615   6.805   0.087   4.007  0.1262  1.2532 -0.6811
 1708TIP3    H226616   6.683   0.102   4.097  0.2268 -1.0657 -0.1008
 1709TIP3   OH226617   4.506   4.379   4.277  0.1023  0.2118  0.1065
 1709TIP3    H126618   4.433   4.341   4.325  0.0878  0.2129  0.0847
 1709TIP3    H226619   4.541   4.446   4.336  1.5199 -1.3249  1.0979
 1710TIP3   OH226620   1.630   5.273   3.940 -0.3140  0.5262 -0.2678
 1710TIP3    H126621   1.568   5.265   3.868  0.2811 -1.3428 -0.6287
 1710TIP3    H226622   1.582   5.243   4.017 -0.6236  1.5132 -0.0677
 1711TIP3   OH226623   2.434   2.255  11.845 -0.0801  0.0001  0.2619
 1711TIP3    H126624   2.463   2.212  11.764  0.3845 -0.6670  0.7606
 1711TIP3    H226625   2.516   2.281  11.888 -0.0756 -2.4532  1.9905
 1712TIP3   OH226626   4.200   2.395  11.388 -0.7828 -0.6259 -0.3209
 1712TIP3    H126627   4.203   2.371  11.480 -0.5858  2.3782  0.5399
 1712TIP3    H226628   4.108   2.414  11.371 -0.6072  0.2989 -0.2929
 1713TIP3   OH226629   6.813   3.286   3.617  0.2670 -0.6456 -0.2409
 1713TIP3    H126630   6.721   3.297   3.593  0.3010 -2.2499 -1.2435
 1713TIP3    H226631   6.816   3.202   3.664  0.9717  0.1894  1.2715
 1714TIP3   OH226632   6.613   1.891   6.728 -0.1319  0.6917 -0.2477
 1714TIP3    H126633   6.663   1.947   6.787 -1.0295  0.7619  0.4670
 1714TIP3    H226634   6.672   1.874   6.655  0.7795  1.1079  0.3789
 1715TIP3   OH226635   0.210   3.737   4.277 -0.8487 -0.3952  0.2929
 1715TIP3    H126636   0.282   3.691   4.321 -0.5210  1.1574  1.4782
 1715TIP3    H226637   0.243   3.754   4.189  0.5900  0.9330  1.0337
 1716TIP3   OH226638   0.575   1.088  14.475 -0.5303 -0.0069 -0.8341
 1716TIP3    H126639   0.652   1.144  14.469 -1.6069  2.0857  2.3666
 1716TIP3    H226640   0.594   1.027  14.546 -0.7918 -1.4071 -1.9139
 1717TIP3   OH226641   4.528   2.389  10.930 -0.2712  0.1349 -0.1729
 1717TIP3    H126642   4.437   2.373  10.955 -0.1868 -0.4582 -0.2223
 1717TIP3    H226643   4.533   2.484  10.918 -0.1158  0.5786  2.7823
 1718TIP3   OH226644   5.909   3.966   3.466 -0.0904 -0.4870  1.0101
 1718TIP3    H126645   5.831   3.989   3.517 -0.6635 -1.1941  0.4764
 1718TIP3    H226646   5.970   3.930   3.530 -1.0483 -1.9820  1.1409
 1719TIP3   OH226647   6.447   6.325   0.117  0.3297  0.3361 -0.2405
 1719TIP3    H126648   6.487   6.253   0.068 -0.3886  0.0508 -0.4281
 1719TIP3    H226649   6.440   6.293   0.206  0.0619  0.1948 -0.3122
 1720TIP3   OH226650   2.735   5.719   1.862  0.1881  0.5266  0.5380
 1720TIP3    H126651   2.825   5.727   1.831  0.3835  0.8620  1.1760
 1720TIP3    H226652   2.689   5.673   1.791  0.3652  2.2108 -0.7387
 1721TIP3   OH226653   2.939   5.716  14.536 -0.1076 -0.0252 -0.1327
 1721TIP3    H126654   2.882   5.694  14.610  0.7423  1.3172  0.9815
 1721TIP3    H226655   2.888   5.691  14.458 -1.4710 -0.4888  0.8601
 1722TIP3   OH226656   5.513   5.848  11.996  0.4886  0.4585 -0.2335
 1722TIP3    H126657   5.565   5.807  11.927  2.0877  0.8334  0.7027
 1722TIP3    H226658   5.546   5.938  12.000  0.2191  0.5205  0.8199
 1723TIP3   OH226659   5.484   0.253   4.946 -0.6095  0.1154 -0.1425
 1723TIP3    H126660   5.491   0.314   5.020 -0.1536 -0.9056  0.6729
 1723TIP3    H226661   5.567   0.206   4.946 -0.8685 -0.3590 -0.9041
 1724TIP3   OH226662   0.736   1.914  15.157 -0.4569 -0.5420 -0.1557
 1724TIP3    H126663   0.662   1.900  15.217 -1.3313  3.9076  0.1366
 1724TIP3    H226664   0.697   1.915  15.070 -0.8066  1.4783 -0.0251
 1725TIP3   OH226665   6.404   5.431   3.774  0.1088  0.0760  0.1578
 1725TIP3    H126666   6.442   5.373   3.708  0.3709 -0.7993  1.0625
 1725TIP3    H226667   6.436   5.397   3.857 -1.1547  0.4520  0.8158
 1726TIP3   OH226668   3.424   4.755   2.121 -0.9017 -0.2840 -0.1066
 1726TIP3    H126669   3.339   4.772   2.081 -0.4667 -1.0736 -1.4620
 1726TIP3    H226670   3.487   4.772   2.050  0.1057  0.6930  0.9870
 1727TIP3   OH226671   6.583   3.468  15.757  0.0818 -0.1373 -0.1148
 1727TIP3    H126672   6.506   3.512  15.794 -0.1288 -0.4071 -0.2324
 1727TIP3    H226673   6.547   3.395  15.706  0.4081 -0.1830 -0.2819
 1728TIP3   OH226674   3.713   0.915   0.814  0.3614 -0.6770 -0.4051
 1728TIP3    H126675   3.644   0.981   0.820  0.7986 -0.3282  1.4538
 1728TIP3    H226676   3.786   0.960   0.771  0.3262 -0.2462 -0.0175
 1729TIP3   OH226677   4.775   3.177  14.887  0.3029 -0.2539 -0.7038
 1729TIP3    H126678   4.808   3.163  14.975 -0.9821  0.1767 -0.1277
 1729TIP3    H226679   4.708   3.108  14.876 -1.8822  1.6359 -0.0586
 1730TIP3   OH226680   6.771   5.424  16.270 -0.2318  0.6382  0.1510
 1730TIP3    H126681   6.705   5.484  16.307 -0.4929  0.1912  0.4208
 1730TIP3    H226682   6.844   5.428  16.332  0.3717  1.7875 -0.5841
 1731TIP3   OH226683   0.461   0.307   3.220  0.0494  0.1212  0.4620
 1731TIP3    H126684   0.535   0.320   3.280  0.9727 -1.4802 -0.2779
 1731TIP3    H226685   0.457   0.388   3.169  2.5204 -0.4713 -0.7838
 1732TIP3   OH226686   2.922   3.637   6.655  0.4605  0.4812 -0.3423
 1732TIP3    H126687   2.996   3.585   6.624 -0.0126 -0.9824  0.8688
 1732TIP3    H226688   2.846   3.599   6.611  0.0984  0.0371  0.6329
 1733TIP3   OH226689   2.181   6.513  12.557  0.2804 -0.4654 -0.1319
 1733TIP3    H126690   2.176   6.429  12.512  2.2024  0.3287 -1.9889
 1733TIP3    H226691   2.274   6.532  12.563 -0.0940  2.3028 -1.3398
 1734TIP3   OH226692   1.098   3.420   1.180 -0.1658 -0.0356  0.0396
 1734TIP3    H126693   1.099   3.439   1.274  2.6579 -0.9352  0.2650
 1734TIP3    H226694   1.189   3.399   1.158 -0.7775 -0.0793 -2.8712
 1735TIP3   OH226695   0.675   3.672   4.576  0.3307 -0.0057  0.2144
 1735TIP3    H126696   0.754   3.657   4.523  1.2400  2.3062  0.8151
 1735TIP3    H226697   0.619   3.597   4.557  2.4804 -1.5070 -0.5836
 1736TIP3   OH226698   1.971   3.598   0.984  0.3160  0.4992  0.0945
 1736TIP3    H126699   1.948   3.532   0.918  1.4586  0.1718  0.0128
 1736TIP3    H226700   2.008   3.548   1.056 -0.0879  0.9439  0.6182
 1737TIP3   OH226701   6.366   1.481   6.350  0.0600 -0.6049 -0.5058
 1737TIP3    H126702   6.274   1.455   6.342  0.0817 -0.4069 -1.5218
 1737TIP3    H226703   6.372   1.563   6.301  0.9903 -1.1388 -1.3167
 1738TIP3   OH226704   1.677   2.954  15.441 -0.2955  0.3232 -0.4757
 1738TIP3    H126705   1.631   2.925  15.519 -1.7797 -1.9777 -2.0807
 1738TIP3    H226706   1.610   2.956  15.373  1.4579 -0.7054 -2.3514
 1739TIP3   OH226707   5.335   1.138   3.801 -0.4641  0.6806 -0.1568
 1739TIP3    H126708   5.313   1.072   3.735 -1.3842  2.1929 -1.4159
 1739TIP3    H226709   5.429   1.154   3.788  0.1725 -1.4114  1.1990
 1740TIP3   OH226710   3.806   4.382  17.216  0.0782 -0.1468 -0.2386
 1740TIP3    H126711   3.718   4.392  17.252  0.0008 -1.7138  0.1116
 1740TIP3    H226712   3.823   4.464  17.170 -1.0820  0.6573  0.7035
 1741TIP3   OH226713   4.743   1.901  11.568 -0.1994  0.2162  0.0701
 1741TIP3    H126714   4.725   1.944  11.652 -0.7582  0.2463 -0.0556
 1741TIP3    H226715   4.778   1.815  11.592  0.4952  0.5627  0.3249
 1742TIP3   OH226716   1.962   2.522   1.346 -0.5417  0.6320 -0.1467
 1742TIP3    H126717   2.039   2.545   1.397 -0.7030  2.2675 -0.5834
 1742TIP3    H226718   1.997   2.480   1.267 -0.2345 -0.6433  0.6438
 1743TIP3   OH226719   6.453   0.232  10.674 -0.2002 -0.3699 -0.6756
 1743TIP3    H126720   6.375   0.201  10.628 -1.1744 -1.3442  1.5056
 1743TIP3    H226721   6.434   0.324  10.693 -1.3813 -0.8845  0.8336
 1744TIP3   OH226722   4.142   5.116  14.969 -0.1789  0.5656  0.1863
 1744TIP3    H126723   4.062   5.068  14.988 -0.1185  0.2358 -0.3796
 1744TIP3    H226724   4.201   5.095  15.042 -0.0225 -0.5234 -0.2283
 1745TIP3   OH226725   2.383   4.879   1.996 -0.0793 -0.2569  0.3085
 1745TIP3    H126726   2.409   4.885   1.904  1.7697 -1.8707  0.6608
 1745TIP3    H226727   2.305   4.823   1.995  0.2837 -0.7730 -0.2517
 1746TIP3   OH226728   6.761   3.660  15.640  0.1674  0.1531 -1.0257
 1746TIP3    H126729   6.673   3.626  15.657 -0.6019  1.9330 -1.1875
 1746TIP3    H226730   6.802   3.664  15.727 -1.3185  2.8375 -0.3414
 1747TIP3   OH226731   1.379   4.846  13.106  0.5539 -0.0731  0.6431
 1747TIP3    H126732   1.362   4.775  13.045  0.4321  0.0315  0.5578
 1747TIP3    H226733   1.295   4.862  13.148  0.6289 -0.1217  0.8144
 1748TIP3   OH226734   0.661   4.330   0.650  0.2281  0.1795  0.2219
 1748TIP3    H126735   0.707   4.414   0.649 -1.1010  0.9473  1.2951
 1748TIP3    H226736   0.724   4.269   0.688  1.1015  0.7243 -0.2943
 1749TIP3   OH226737   2.616   2.575   3.677  0.1744 -0.6378 -0.5447
 1749TIP3    H126738   2.603   2.483   3.657 -0.2535 -0.7554  0.2227
 1749TIP3    H226739   2.711   2.587   3.672  0.2267 -1.0993 -0.7262
 1750TIP3   OH226740   2.245   0.947  13.211 -1.1209  0.1876 -0.1986
 1750TIP3    H126741   2.192   0.871  13.185 -2.7313  1.3034 -0.3500
 1750TIP3    H226742   2.314   0.951  13.145  1.0454 -2.9860  1.5644
 1751TIP3   OH226743   0.791   0.791   3.192 -0.0511 -0.1945  0.3999
 1751TIP3    H126744   0.790   0.879   3.155  0.6142  0.6613  2.2478
 1751TIP3    H226745   0.710   0.786   3.244  1.1839  0.4411  2.5308
 1752TIP3   OH226746   0.104   6.353  10.626  0.3871 -0.5636  0.1877
 1752TIP3    H126747   0.187   6.322  10.590  0.1197  1.2721 -2.2520
 1752TIP3    H226748   0.125   6.438  10.665 -0.2803 -0.1956 -0.2365
 1753TIP3   OH226749   0.999   2.144  16.926  0.2121  0.0344 -0.1545
 1753TIP3    H126750   0.955   2.109  16.849  0.8729  2.0622 -1.5205
 1753TIP3    H226751   0.929   2.161  16.989 -0.3411 -1.5312 -0.3235
 1754TIP3   OH226752   1.737   0.856  11.738 -0.2878 -0.1971  0.1129
 1754TIP3    H126753   1.823   0.861  11.778 -0.7124  0.7397  0.9357
 1754TIP3    H226754   1.677   0.885  11.806 -1.3575 -1.6549 -0.1536
 1755TIP3   OH226755   2.843   3.389  16.621 -0.1094 -0.4244  0.6449
 1755TIP3    H126756   2.770   3.405  16.561 -0.3235 -1.2908  0.6648
 1755TIP3    H226757   2.824   3.304  16.660  0.9732 -0.7295  0.5500
 1756TIP3   OH226758   4.882   4.232  17.095  0.0452  0.0853 -0.2333
 1756TIP3    H126759   4.854   4.306  17.149  1.4709  0.6578 -0.2314
 1756TIP3    H226760   4.893   4.269  17.008  2.3262  0.3172  0.0851
 1757TIP3   OH226761   4.788   0.174   4.993  0.1090  0.5546  0.1478
 1757TIP3    H126762   4.881   0.193   5.008  0.5110 -0.3599 -1.0214
 1757TIP3    H226763   4.788   0.103   4.929 -1.4085  0.6076  0.0480
 1758TIP3   OH226764   3.788   0.386   1.381 -0.2232 -0.0302 -0.1510
 1758TIP3    H126765   3.717   0.443   1.351  0.3026  0.8450  0.2185
 1758TIP3    H226766   3.831   0.435   1.451  0.7829 -0.5152 -0.3962
 1759TIP3   OH226767   4.033   5.836   0.225  0.2494  0.3781  0.1586
 1759TIP3    H126768   3.955   5.887   0.206  1.0994  1.7756  0.2462
 1759TIP3    H226769   4.034   5.828   0.321  0.7324  1.2581  0.2380
 1760TIP3   OH226770   4.617   5.658   5.300  0.4549 -0.4875  0.1505
 1760TIP3    H126771   4.551   5.709   5.253 -1.1768  0.1597  2.9268
 1760TIP3    H226772   4.607   5.569   5.267  0.3719  0.1607 -1.6891
 1761TIP3   OH226773   6.374   3.314   1.880  0.1276  0.1354  0.1079
 1761TIP3    H126774   6.320   3.242   1.848  0.1495 -0.3632  1.1502
 1761TIP3    H226775   6.462   3.278   1.888  0.2795  0.4708 -0.0023
 1762TIP3   OH226776   3.815   6.741   0.823  0.3187 -0.1624  0.0265
 1762TIP3    H126777   3.731   6.746   0.869  0.5954  1.5294  0.4312
 1762TIP3    H226778   3.824   6.649   0.798 -1.6671 -0.3737 -0.0524
 1763TIP3   OH226779   3.888   5.789  14.936  0.1918  0.4619  0.0040
 1763TIP3    H126780   3.800   5.754  14.924  0.4394 -0.8518  1.6623
 1763TIP3    H226781   3.896   5.856  14.868 -1.9420  0.3829 -0.4079
 1764TIP3   OH226782   4.928   5.230  15.180 -0.0731 -0.1259 -0.2797
 1764TIP3    H126783   4.960   5.168  15.114  2.2669  0.9032 -0.1992
 1764TIP3    H226784   4.886   5.175  15.246  2.5494 -1.7935  0.1630
 1765TIP3   OH226785   5.875   0.498   3.986  0.0117 -0.5573 -0.2970
 1765TIP3    H126786   5.897   0.415   4.027 -0.9371 -0.5702  0.2217
 1765TIP3    H226787   5.931   0.563   4.029  0.1870 -0.8099 -0.1462
 1766TIP3   OH226788   5.710   3.559   4.701 -0.2782 -0.0731 -0.5413
 1766TIP3    H126789   5.705   3.653   4.684 -0.1115 -0.4069 -2.6876
 1766TIP3    H226790   5.791   3.531   4.658 -0.0039 -1.1147  0.5979
 1767TIP3   OH226791   0.407   4.601  13.804  0.3895 -0.3421 -0.2606
 1767TIP3    H126792   0.492   4.561  13.823  0.3031 -1.4118 -1.8410
 1767TIP3    H226793   0.345   4.527  13.808 -0.2246  0.1478 -0.5642
 1768TIP3   OH226794   4.099   2.654  16.346 -0.9475  0.3385  0.2600
 1768TIP3    H126795   4.020   2.625  16.390 -1.0062  0.8559  0.5034
 1768TIP3    H226796   4.071   2.674  16.256 -0.9842  0.0321  0.2028
 1769TIP3   OH226797   4.461   0.193   5.363 -0.1053  0.2078  0.3403
 1769TIP3    H126798   4.370   0.207   5.335  0.6637 -0.0644 -2.5957
 1769TIP3    H226799   4.467   0.098   5.376 -0.3850  0.3049  1.3244
 1770TIP3   OH226800   4.789   4.365   4.174  0.8386 -0.2343 -0.3305
 1770TIP3    H126801   4.817   4.355   4.084 -0.5262 -0.8106 -0.7158
 1770TIP3    H226802   4.700   4.401   4.168 -0.5288 -3.1555  0.6481
 1771TIP3   OH226803   5.309   3.519   4.905 -0.1585  0.2061  0.4270
 1771TIP3    H126804   5.358   3.576   4.846  1.7130 -1.1618  0.5664
 1771TIP3    H226805   5.376   3.480   4.962 -1.7231  0.3169  2.4653
 1772TIP3   OH226806   2.828   4.704  10.518 -0.3821  0.5409  0.2514
 1772TIP3    H126807   2.899   4.769  10.520 -0.0604  0.3475 -1.8684
 1772TIP3    H226808   2.758   4.747  10.469 -1.3006  0.3051  1.3279
 1773TIP3   OH226809   4.181   4.933   0.249  0.3799 -0.0677  0.3024
 1773TIP3    H126810   4.166   4.975   0.164  1.4006  2.5143  1.2874
 1773TIP3    H226811   4.273   4.952   0.268  0.6049 -1.9702  1.3230
 1774TIP3   OH226812   2.411   5.548   0.167  0.0888 -0.3604 -0.1167
 1774TIP3    H126813   2.448   5.628   0.205 -0.8079 -1.2546  2.9032
 1774TIP3    H226814   2.340   5.579   0.111 -0.6582  0.9727  1.5001
 1775TIP3   OH226815   0.411   0.276   1.781 -0.0351 -0.1991  1.1455
 1775TIP3    H126816   0.491   0.327   1.768  0.2779 -0.9663 -0.1694
 1775TIP3    H226817   0.404   0.266   1.876  1.4629 -0.1620  1.2881
 1776TIP3   OH226818   2.455   3.607   5.011  0.2724 -0.7448 -0.2693
 1776TIP3    H126819   2.361   3.615   4.996  0.1909  0.4629  0.6592
 1776TIP3    H226820   2.494   3.674   4.955  0.7251 -2.0667 -1.6073
 1777TIP3   OH226821   2.140   6.180   5.220  0.4465 -0.2094 -0.1836
 1777TIP3    H126822   2.105   6.212   5.303  1.3354  2.5502 -0.7683
 1777TIP3    H226823   2.232   6.160   5.238  0.6216  0.3209 -0.4687
 1778TIP3   OH226824   4.280   5.151   5.860 -0.0175 -0.6792  0.2403
 1778TIP3    H126825   4.210   5.088   5.843 -1.4542  0.4801  1.6310
 1778TIP3    H226826   4.272   5.216   5.790 -1.3363  0.2599  1.2329
 1779TIP3   OH226827   5.484   2.227   1.506 -0.3686 -0.5287 -0.9558
 1779TIP3    H126828   5.481   2.255   1.598 -0.8598 -1.2101 -0.7551
 1779TIP3    H226829   5.421   2.283   1.462  0.7170  0.5997 -1.1146
 1780TIP3   OH226830   4.520   0.415   5.667 -0.1960 -0.3304  0.6627
 1780TIP3    H126831   4.452   0.380   5.725 -0.0754 -1.1841  0.3051
 1780TIP3    H226832   4.566   0.480   5.720 -0.1021 -1.0774  1.5181
 1781TIP3   OH226833   0.468   5.730   4.871  0.0109 -0.2383 -0.1537
 1781TIP3    H126834   0.470   5.790   4.796  2.2019 -0.0158  0.0081
 1781TIP3    H226835   0.465   5.787   4.948  1.7066 -0.2818 -0.0109
 1782TIP3   OH226836   3.851   6.078  12.616  0.0036  0.0945 -0.3720
 1782TIP3    H126837   3.773   6.083  12.672  0.0208 -2.8708  0.0835
 1782TIP3    H226838   3.820   6.102  12.529 -0.7674  1.5610  0.2719
 1783TIP3   OH226839   2.813   4.119  16.728  0.2670 -0.6915  0.1157
 1783TIP3    H126840   2.737   4.065  16.706 -1.8240  1.9920  0.2291
 1783TIP3    H226841   2.862   4.067  16.790 -2.0436 -2.1759  0.8190
 1784TIP3   OH226842   0.099   1.003   3.791  0.6092  0.0292 -0.1503
 1784TIP3    H126843   0.164   1.021   3.723 -0.0930  0.5985 -0.6971
 1784TIP3    H226844   0.150   0.974   3.867  1.4798  0.3206 -0.6095
 1785TIP3   OH226845   3.582   1.350  12.896  1.0829 -0.4621 -0.3927
 1785TIP3    H126846   3.490   1.342  12.920  1.1489 -0.6579 -0.1996
 1785TIP3    H226847   3.596   1.444  12.882  0.4959 -0.5718 -1.8653
 1786TIP3   OH226848   1.606   0.496  16.185 -0.4907 -0.8526 -0.0604
 1786TIP3    H126849   1.539   0.564  16.183  0.8663  0.7350  2.6883
 1786TIP3    H226850   1.674   0.527  16.125 -0.9341 -1.0411 -0.6687
 1787TIP3   OH226851   0.780   4.675  14.744 -0.3295  0.2259  0.2512
 1787TIP3    H126852   0.803   4.757  14.787  0.7543  0.8675 -1.4547
 1787TIP3    H226853   0.794   4.692  14.651  0.2017 -1.9826 -0.1302
 1788TIP3   OH226854   0.228   2.013   0.693 -0.0439 -0.5599  0.5097
 1788TIP3    H126855   0.240   1.919   0.678  0.8718 -0.0773 -2.3804
 1788TIP3    H226856   0.238   2.053   0.606  0.5260  2.3257  1.7882
 1789TIP3   OH226857   2.377   4.014   5.378 -0.3629  0.3745  0.5037
 1789TIP3    H126858   2.340   4.068   5.447 -0.0554 -0.3400  1.2566
 1789TIP3    H226859   2.434   3.952   5.424  1.0587  0.8487 -0.5158
 1790TIP3   OH226860   3.371   4.468  10.434 -0.5365 -0.3071 -0.2248
 1790TIP3    H126861   3.438   4.537  10.432 -0.2561 -0.4574  1.7055
 1790TIP3    H226862   3.290   4.515  10.453 -0.7728 -0.2703 -1.2741
 1791TIP3   OH226863   0.782   3.391   4.392 -0.5566 -0.0576  0.4732
 1791TIP3    H126864   0.869   3.428   4.410  0.3965 -1.1487 -1.4605
 1791TIP3    H226865   0.764   3.417   4.301 -2.8880  1.2257  1.2294
 1792TIP3   OH226866   1.916   1.865   5.693 -0.4482 -0.2791  0.0835
 1792TIP3    H126867   1.957   1.801   5.635 -1.0465 -0.3156 -0.3084
 1792TIP3    H226868   1.976   1.872   5.768 -0.6652 -1.7252  0.4146
 1793TIP3   OH226869   4.109   1.204   0.290  0.0847  0.1847 -0.6245
 1793TIP3    H126870   4.169   1.262   0.337 -1.4366  0.1930  1.4070
 1793TIP3    H226871   4.032   1.258   0.272 -0.1530 -0.3934 -1.3852
 1794TIP3   OH226872   1.086   3.391  11.376  0.4111 -0.2025 -0.1469
 1794TIP3    H126873   1.146   3.331  11.420 -0.2791 -1.7629 -1.2457
 1794TIP3    H226874   1.004   3.343  11.371  0.5652 -0.3492 -3.4696
 1795TIP3   OH226875   6.577   2.682   2.596  0.2353 -0.1720 -0.5004
 1795TIP3    H126876   6.598   2.593   2.568 -0.6523 -0.1134 -1.4449
 1795TIP3    H226877   6.600   2.737   2.520  1.1424  0.4572  0.2140
 1796TIP3   OH226878   6.219   1.040  14.025  0.3916  0.0687 -0.3746
 1796TIP3    H126879   6.228   0.946  14.040 -0.0318  0.1179  0.2402
 1796TIP3    H226880   6.160   1.070  14.095 -0.4030  0.5915 -1.2502
 1797TIP3   OH226881   1.735   6.397  10.418 -0.4269 -0.3243 -0.0234
 1797TIP3    H126882   1.658   6.454  10.425  1.4597  2.1739  2.8922
 1797TIP3    H226883   1.729   6.340  10.495  0.7217  0.1129  0.4130
 1798TIP3   OH226884   5.465   0.035  12.669  0.2899  0.0623  0.0014
 1798TIP3    H126885   5.383   0.050  12.622  0.8860 -1.6527 -1.7275
 1798TIP3    H226886   5.444   0.047  12.761 -1.4355  1.5273 -0.5367
 1799TIP3   OH226887   1.592   1.544  12.554 -0.4664 -0.1867 -0.6981
 1799TIP3    H126888   1.536   1.467  12.563 -1.2964  0.3538 -1.1187
 1799TIP3    H226889   1.571   1.579  12.467  2.1658 -1.2461 -1.8694
 1800TIP3   OH226890   5.656   4.570   3.802 -0.1563 -0.1865  0.2240
 1800TIP3    H126891   5.741   4.547   3.765 -1.1184 -1.4738 -1.3821
 1800TIP3    H226892   5.658   4.536   3.891  0.6322 -1.2383 -0.1698
 1801TIP3   OH226893   6.096   6.287  14.247 -0.1603  0.3472 -0.6197
 1801TIP3    H126894   6.052   6.285  14.162 -1.4172  0.7050  0.0051
 1801TIP3    H226895   6.070   6.370  14.286  1.1545  0.6165 -0.2511
 1802TIP3   OH226896   5.081   4.144  12.873  0.0145 -0.0466 -0.6168
 1802TIP3    H126897   5.089   4.115  12.782 -1.3421  0.7063 -1.0077
 1802TIP3    H226898   5.020   4.082  12.912  0.4978 -0.2930 -0.2417
 1803TIP3   OH226899   6.381   0.615   2.222 -0.3255 -0.0719 -0.1089
 1803TIP3    H126900   6.465   0.605   2.266 -0.4823 -0.9224  0.0055
 1803TIP3    H226901   6.327   0.663   2.285 -0.1046 -0.0255  0.0473
 1804TIP3   OH226902   5.662   0.770  13.026 -0.1010 -0.2288 -0.0023
 1804TIP3    H126903   5.746   0.814  13.015 -1.2425  1.8119 -1.1090
 1804TIP3    H226904   5.639   0.785  13.118 -0.7592  2.1585 -0.5014
 1805TIP3   OH226905   2.771   2.541  17.069 -0.0432 -0.5136  0.1877
 1805TIP3    H126906   2.778   2.446  17.080 -0.5793 -0.4858  0.8412
 1805TIP3    H226907   2.737   2.572  17.153 -1.8589  0.0211 -0.6997
 1806TIP3   OH226908   4.582   5.725  10.617  0.2541 -0.0804  0.1261
 1806TIP3    H126909   4.576   5.692  10.527 -1.3047 -0.6894  0.4068
 1806TIP3    H226910   4.565   5.819  10.609 -0.1339 -0.1719 -0.2038
 1807TIP3   OH226911   5.416   2.226  17.242  0.5216 -0.4799 -0.0584
 1807TIP3    H126912   5.452   2.311  17.270  3.1430 -1.6361  0.3951
 1807TIP3    H226913   5.354   2.203  17.311 -0.1026  0.9607 -0.1020
 1808TIP3   OH226914   0.248   0.340   2.599  0.0087 -0.0638  0.1939
 1808TIP3    H126915   0.250   0.435   2.589 -1.0061 -0.0852 -0.3691
 1808TIP3    H226916   0.178   0.324   2.663  0.3409 -0.4217  0.4747
 1809TIP3   OH226917   1.391   3.533  10.663  0.7278 -0.6173  0.6334
 1809TIP3    H126918   1.319   3.491  10.710  0.2064  0.8192  1.1673
 1809TIP3    H226919   1.455   3.463  10.651  0.0407 -1.4921  1.7917
 1810TIP3   OH226920   4.367   3.243  11.577  0.5483 -0.1505 -0.0860
 1810TIP3    H126921   4.288   3.258  11.628  0.6820  0.3877 -0.0316
 1810TIP3    H226922   4.368   3.313  11.512 -0.0196 -1.2726 -1.3542
 1811TIP3   OH226923   2.157   5.535   3.020  0.5728 -0.8794 -0.1123
 1811TIP3    H126924   2.222   5.489   2.967  0.5728  0.5369 -1.3911
 1811TIP3    H226925   2.075   5.524   2.971  0.3806 -0.3685  0.0972
 1812TIP3   OH226926   2.541   1.911  17.033 -0.5517 -0.1187  0.0197
 1812TIP3    H126927   2.606   1.897  17.102 -2.3099  2.2932  2.3842
 1812TIP3    H226928   2.549   1.834  16.977  3.8665 -0.2584  0.4544
 1813TIP3   OH226929   4.141   2.985   3.822 -0.1052 -0.1194 -0.4074
 1813TIP3    H126930   4.063   2.960   3.774  0.3118 -1.8644 -0.2317
 1813TIP3    H226931   4.132   2.943   3.907  1.8313 -1.9153 -1.0056
 1814TIP3   OH226932   0.034   6.623  15.911  0.7709 -0.3508 -0.4654
 1814TIP3    H126933  -0.040   6.676  15.942  0.3138 -1.0265 -0.3941
 1814TIP3    H226934   0.084   6.683  15.855 -0.1339 -0.0400 -0.9634
 1815TIP3   OH226935   3.588   2.999  12.587  0.4670 -0.4228  0.0634
 1815TIP3    H126936   3.639   2.955  12.519 -2.0842  0.6020 -2.7267
 1815TIP3    H226937   3.626   3.087  12.593  1.6598 -0.9701  1.1908
 1816TIP3   OH226938   0.110   2.388  15.975 -0.4891  0.1593 -0.3259
 1816TIP3    H126939   0.046   2.334  15.929 -0.2091  0.2516 -0.8357
 1816TIP3    H226940   0.117   2.467  15.921  0.6025 -0.1653 -0.6954
 1817TIP3   OH226941   4.152   5.094   4.536 -0.6577 -0.1810  0.0302
 1817TIP3    H126942   4.228   5.121   4.587 -0.4045  1.7529 -1.2785
 1817TIP3    H226943   4.077   5.124   4.587 -0.4059  1.7132 -0.6351
 1818TIP3   OH226944   0.716   5.640   2.256  0.1250  0.1967 -0.1857
 1818TIP3    H126945   0.666   5.560   2.241  1.8478 -0.9321 -0.0943
 1818TIP3    H226946   0.785   5.638   2.190 -0.2336  2.0130 -0.6806
 1819TIP3   OH226947   0.143   6.290   3.056 -0.0241 -0.2904 -0.0149
 1819TIP3    H126948   0.154   6.209   3.107 -1.3450 -0.8797 -0.6105
 1819TIP3    H226949   0.049   6.306   3.058  0.0729  0.4710 -1.0693
 1820TIP3   OH226950   6.448   2.544  16.689  0.0800  0.1368  0.0690
 1820TIP3    H126951   6.395   2.614  16.652  0.6522  1.4985  1.6980
 1820TIP3    H226952   6.389   2.469  16.693 -1.2421  1.1449  0.3014
 1821TIP3   OH226953   5.553   4.612  12.222 -0.0926  0.4265  0.3967
 1821TIP3    H126954   5.512   4.528  12.199 -3.7867  1.7048  1.5468
 1821TIP3    H226955   5.556   4.612  12.318 -1.8100  2.1942  0.5156
 1822TIP3   OH226956   4.326   0.388  12.802  0.9442 -0.2320 -0.4427
 1822TIP3    H126957   4.361   0.392  12.891  0.2327  2.2460 -0.2066
 1822TIP3    H226958   4.345   0.473  12.764 -3.1838  0.7595 -0.8397
 1823TIP3   OH226959   0.601   1.713  12.954 -0.3272 -0.0655  0.2875
 1823TIP3    H126960   0.573   1.769  12.883 -1.9760 -0.2301  0.7553
 1823TIP3    H226961   0.598   1.769  13.032 -1.0813 -0.5356  0.6106
 1824TIP3   OH226962   3.706   1.140  16.520  0.0005  0.5592  0.0250
 1824TIP3    H126963   3.663   1.159  16.603 -0.7831 -0.0164 -0.2369
 1824TIP3    H226964   3.698   1.221  16.469  0.1295  0.7815  0.3569
 1825TIP3   OH226965   6.521   0.735   3.820  0.0988 -0.0916  0.4829
 1825TIP3    H126966   6.490   0.687   3.744 -0.4060 -0.1594  0.7301
 1825TIP3    H226967   6.596   0.785   3.787  0.2525 -0.5747  0.0849
 1826TIP3   OH226968   2.883   6.140  16.229  0.2338 -0.1922  0.0461
 1826TIP3    H126969   2.877   6.184  16.144  1.5279  0.5530  0.3143
 1826TIP3    H226970   2.805   6.085  16.233  1.0459 -1.7473 -2.4633
 1827TIP3   OH226971   0.501   3.259   0.545 -0.2011  0.6019  1.3375
 1827TIP3    H126972   0.557   3.315   0.491 -1.2293  1.5618  1.2363
 1827TIP3    H226973   0.478   3.313   0.620 -0.3463 -0.0640  1.7806
 1828TIP3   OH226974   1.010   6.278   6.337 -0.0513  0.4173 -0.1569
 1828TIP3    H126975   0.918   6.279   6.366 -0.5176  0.2878 -1.5394
 1828TIP3    H226976   1.053   6.342   6.393 -0.9897  0.5044  0.5026
 1829TIP3   OH226977   2.578   1.620  10.868 -0.4073  0.1946  0.1661
 1829TIP3    H126978   2.501   1.676  10.858 -1.5197 -1.1618  0.7871
 1829TIP3    H226979   2.596   1.588  10.779 -0.3031  0.8553 -0.0500
 1830TIP3   OH226980   6.202   2.654  13.126 -0.3636  0.4327  0.4298
 1830TIP3    H126981   6.120   2.610  13.149 -0.4691  0.5832  0.3436
 1830TIP3    H226982   6.251   2.657  13.208  0.2342 -1.0748  0.1599
 1831TIP3   OH226983   1.032   2.811   5.470  0.2899  1.0968  0.5863
 1831TIP3    H126984   0.941   2.833   5.451 -0.0394  0.0321  0.8614
 1831TIP3    H226985   1.028   2.764   5.553  0.8705 -0.4594 -0.2333
 1832TIP3   OH226986   6.394   6.310   1.532 -0.1632 -0.3910 -0.3459
 1832TIP3    H126987   6.315   6.265   1.502 -0.8733  0.5377  0.0757
 1832TIP3    H226988   6.403   6.386   1.475 -0.7477  0.6248  0.8517
 1833TIP3   OH226989   6.775   4.750  15.793 -0.0281  0.4817 -0.3072
 1833TIP3    H126990   6.704   4.813  15.805 -0.4488 -0.3360  1.9445
 1833TIP3    H226991   6.734   4.679  15.742 -1.0680 -0.2400  1.4373
 1834TIP3   OH226992   0.349   3.398   3.438 -0.3320 -0.1409  0.0391
 1834TIP3    H126993   0.342   3.490   3.464  0.4344 -0.3930  1.2528
 1834TIP3    H226994   0.267   3.379   3.394 -0.8398  0.9159  0.4814
 1835TIP3   OH226995   5.960   1.128   5.762 -0.1595  0.0284  0.2662
 1835TIP3    H126996   5.910   1.121   5.681 -0.1767  1.1260  0.1625
 1835TIP3    H226997   6.051   1.138   5.734 -0.1831  0.5767  0.3652
 1836TIP3   OH226998   2.688   4.923  15.554  0.1758 -0.4058 -0.1855
 1836TIP3    H126999   2.695   4.828  15.567  1.0686 -0.0941  2.0697
 1836TIP3    H227000   2.743   4.940  15.477  1.3644 -1.5462  0.3576
 1837TIP3   OH227001   1.542   3.686   2.906  0.3020  0.3992 -0.4824
 1837TIP3    H127002   1.604   3.732   2.962 -1.0588  1.2410  0.3938
 1837TIP3    H227003   1.460   3.734   2.917 -1.3331 -2.4325  0.7831
 1838TIP3   OH227004   2.440   0.088   4.917  0.9478 -0.7711  0.1812
 1838TIP3    H127005   2.477   0.014   4.868  0.2813  0.5544 -2.5102
 1838TIP3    H227006   2.371   0.048   4.970  0.1307 -2.0557 -1.7137
 1839TIP3   OH227007   3.671   6.251  11.217 -0.2556  0.1540 -0.1500
 1839TIP3    H127008   3.739   6.268  11.283  0.1774 -2.2129  0.0962
 1839TIP3    H227009   3.711   6.189  11.156 -0.7307  2.0806 -2.6068
 1840TIP3   OH227010   6.411   0.985  17.101 -0.1696  0.9750  0.3245
 1840TIP3    H127011   6.496   0.972  17.143  0.4960  1.2169 -0.8753
 1840TIP3    H227012   6.416   1.074  17.065 -0.9381  0.9911  0.2476
 1841TIP3   OH227013   3.500   3.916  14.571 -0.2554 -0.2627 -0.2554
 1841TIP3    H127014   3.579   3.895  14.521 -0.0746  2.2616 -1.1614
 1841TIP3    H227015   3.430   3.913  14.506 -0.8788 -1.9571  0.4386
 1842TIP3   OH227016   1.049   5.605   2.535  0.2010  0.7088 -0.3475
 1842TIP3    H127017   1.045   5.521   2.580  2.4288  0.2777 -0.8626
 1842TIP3    H227018   1.026   5.585   2.444 -0.1348  0.8311 -0.2924
 1843TIP3   OH227019   1.031   1.556   0.333 -0.0786  0.5432  0.1202
 1843TIP3    H127020   1.114   1.559   0.286 -0.9604  0.7503 -1.4868
 1843TIP3    H227021   1.056   1.542   0.424  1.7229  0.8526 -0.2833
 1844TIP3   OH227022   3.941   2.684  14.477 -0.2484  0.1645 -0.4549
 1844TIP3    H127023   3.969   2.760  14.528  0.2551  0.7376 -1.5606
 1844TIP3    H227024   3.924   2.718  14.389  0.9524 -1.1452 -1.2515
 1845TIP3   OH227025   3.887   2.773  12.943 -0.5988 -0.1631 -0.4930
 1845TIP3    H127026   3.932   2.691  12.925 -1.5578 -0.9018  0.3467
 1845TIP3    H227027   3.794   2.753  12.931 -0.8724  0.7143  0.0190
 1846TIP3   OH227028   3.077   5.987   4.680  0.1898  0.0254  0.4770
 1846TIP3    H127029   2.984   5.989   4.703  0.2836 -1.6070  1.1538
 1846TIP3    H227030   3.108   6.076   4.697 -1.5138  1.0048 -1.0869
 1847TIP3   OH227031   6.280   6.295   1.008  0.4950  0.8111 -0.0048
 1847TIP3    H127032   6.348   6.230   1.023 -1.1455 -0.9970 -0.1081
 1847TIP3    H227033   6.325   6.366   0.961  2.4592  0.0727  0.6532
 1848TIP3   OH227034   6.180   3.673  15.468 -0.1338  0.4114  0.5493
 1848TIP3    H127035   6.105   3.625  15.434 -1.5637  2.3985  0.7152
 1848TIP3    H227036   6.144   3.730  15.535  1.7005  0.7499  1.3189
 1849TIP3   OH227037   5.414   0.523  16.364 -0.1453  0.5616  0.4403
 1849TIP3    H127038   5.386   0.490  16.449 -0.9558  1.8883  0.7215
 1849TIP3    H227039   5.336   0.564  16.327 -0.0515 -0.7816 -1.3717
 1850TIP3   OH227040   3.268   0.671  15.621  0.4594  0.6087  0.5763
 1850TIP3    H127041   3.296   0.732  15.689 -0.0596  0.2891  1.0872
 1850TIP3    H227042   3.253   0.588  15.668  2.3706 -0.3009 -0.2765
 1851TIP3   OH227043   5.166   1.443  14.704 -0.0676  0.2367 -0.2045
 1851TIP3    H127044   5.102   1.513  14.691  0.5683  1.1217  1.0694
 1851TIP3    H227045   5.162   1.425  14.798 -0.6805 -1.9471 -0.5931
 1852TIP3   OH227046   3.087   1.560   2.825 -0.3829  0.5759 -0.0767
 1852TIP3    H127047   3.156   1.501   2.794  0.0834  1.2024 -0.2611
 1852TIP3    H227048   3.050   1.597   2.744 -1.3560 -0.2086 -0.0104
 1853TIP3   OH227049   2.896   6.748   1.619  0.2563  0.2293 -0.9940
 1853TIP3    H127050   2.828   6.684   1.641  0.6257 -0.4171 -1.6863
 1853TIP3    H227051   2.949   6.705   1.553  1.1231  0.8715 -0.7389
 1854TIP3   OH227052   4.793   6.433  11.164 -0.0808  0.8740  0.3805
 1854TIP3    H127053   4.702   6.447  11.190  0.1865  1.0101  1.2638
 1854TIP3    H227054   4.788   6.362  11.099 -0.7252  0.1760  1.1605
 1855TIP3   OH227055   2.552   2.891   5.820  0.4196  0.5581 -0.1787
 1855TIP3    H127056   2.550   2.976   5.776  0.0725  0.1050 -1.0473
 1855TIP3    H227057   2.481   2.897   5.885 -1.0511  0.2009 -1.6693
 1856TIP3   OH227058   6.657   2.234   0.481  0.0685  0.6620 -0.3729
 1856TIP3    H127059   6.634   2.206   0.392 -0.8206 -1.0486  0.3377
 1856TIP3    H227060   6.738   2.283   0.471  0.8761 -0.8930 -1.9493
 1857TIP3   OH227061   1.279   1.730   6.155  0.3522 -0.3124  0.4859
 1857TIP3    H127062   1.337   1.752   6.082  0.2403  2.5439  1.1447
 1857TIP3    H227063   1.337   1.714   6.229  0.4395  2.2021  1.0569
 1858TIP3   OH227064   0.226   6.713   6.181 -0.3651  0.5042 -0.2675
 1858TIP3    H127065   0.278   6.762   6.245 -1.6408 -0.6234  1.7458
 1858TIP3    H227066   0.229   6.623   6.212 -0.4288 -0.2407 -2.2655
 1859TIP3   OH227067   2.713   4.410   1.570  0.2908 -0.7357  0.6257
 1859TIP3    H127068   2.712   4.506   1.569  1.3926 -0.7030  0.7329
 1859TIP3    H227069   2.759   4.386   1.490  2.0732 -1.0854  1.7030
 1860TIP3   OH227070   1.599   5.153   4.255 -0.7824  0.0118  0.1427
 1860TIP3    H127071   1.677   5.097   4.262  1.5479  2.9680 -0.1881
 1860TIP3    H227072   1.553   5.141   4.338  0.4587 -1.2128  0.6987
 1861TIP3   OH227073   5.845   6.472  14.105  0.3362 -0.5598 -0.6119
 1861TIP3    H127074   5.786   6.543  14.131  0.4281 -0.7867  0.2634
 1861TIP3    H227075   5.798   6.393  14.129  0.0898 -0.8287 -1.8876
 1862TIP3   OH227076   6.817   1.865  14.594 -0.0639  0.0107 -0.3522
 1862TIP3    H127077   6.883   1.807  14.632 -0.5987 -0.3805 -0.0071
 1862TIP3    H227078   6.861   1.904  14.518  0.9459  0.6411  0.5215
 1863TIP3   OH227079   0.612   6.744   0.139 -0.3078 -0.1778 -0.4117
 1863TIP3    H127080   0.689   6.691   0.161  0.2719  0.2463 -1.3506
 1863TIP3    H227081   0.580   6.706   0.057 -1.4445 -0.7013  0.2612
 1864TIP3   OH227082   2.229   1.937   0.391  0.6758 -0.3824 -0.1936
 1864TIP3    H127083   2.158   1.935   0.326 -1.2730 -0.9728  1.8326
 1864TIP3    H227084   2.243   1.844   0.412  0.8725 -0.1653  0.6412
 1865TIP3   OH227085   4.618   0.463  14.352 -0.1872 -0.3667  0.3088
 1865TIP3    H127086   4.540   0.467  14.407  0.4888 -1.4459  1.3786
 1865TIP3    H227087   4.687   0.430  14.409  0.6159 -1.2376 -1.0968
 1866TIP3   OH227088   4.103   3.079  13.009  0.4257  0.3957 -0.6440
 1866TIP3    H127089   4.131   3.079  12.918 -0.9099  1.7100 -1.0803
 1866TIP3    H227090   4.180   3.047  13.057  0.8735 -1.1371 -2.2722
 1867TIP3   OH227091   6.556   1.926  17.156 -0.3887  0.0370 -0.2666
 1867TIP3    H127092   6.620   1.988  17.123 -1.5538  1.2163 -0.4229
 1867TIP3    H227093   6.528   1.963  17.240 -0.4875 -0.7314  0.0483
 1868TIP3   OH227094   5.448   3.480   6.335 -0.0841 -0.0409 -0.1516
 1868TIP3    H127095   5.372   3.438   6.375  1.5775 -3.9016 -0.5826
 1868TIP3    H227096   5.474   3.549   6.396 -1.7535 -1.0945  1.8303
 1869TIP3   OH227097   4.578   3.740  10.978  0.0507  0.1900  0.3631
 1869TIP3    H127098   4.566   3.822  10.931  1.1411  0.0765 -0.1516
 1869TIP3    H227099   4.537   3.674  10.922  0.2548  0.2230  0.1739
 1870TIP3   OH227100   5.657   3.502  15.526 -0.5004  0.1927 -0.1252
 1870TIP3    H127101   5.671   3.444  15.600  0.6667  3.1099  2.1490
 1870TIP3    H227102   5.568   3.536  15.538 -2.1852 -2.7774 -2.8608
 1871TIP3   OH227103   6.155   1.513   2.783 -0.2559 -0.3504 -0.1249
 1871TIP3    H127104   6.104   1.439   2.815  1.1911 -1.2306  0.2529
 1871TIP3    H227105   6.187   1.556   2.862 -0.9052  0.5748 -0.3458
 1872TIP3   OH227106   4.291   0.182  17.246 -0.2683  0.0718 -0.1332
 1872TIP3    H127107   4.247   0.186  17.331  0.1358 -1.6570  0.1994
 1872TIP3    H227108   4.380   0.151  17.266  0.5885  1.8297 -0.9679
 1873TIP3   OH227109   4.001   3.961   4.194  0.1116 -0.1047  0.0137
 1873TIP3    H127110   4.014   3.955   4.099  2.8673 -1.8464  0.3955
 1873TIP3    H227111   4.038   4.046   4.218 -0.3583  0.2277 -0.4261
 1874TIP3   OH227112   5.565   1.845   2.430  0.3394 -0.2729 -0.7792
 1874TIP3    H127113   5.474   1.861   2.405 -0.2170 -1.1885  0.5428
 1874TIP3    H227114   5.590   1.922   2.481 -0.3064 -0.7875  0.3597
 1875TIP3   OH227115   4.650   0.079  12.799 -0.6342 -0.4640  0.2262
 1875TIP3    H127116   4.561   0.114  12.806  0.5455  2.8346  0.2610
 1875TIP3    H227117   4.692   0.101  12.882  0.8333  0.0160 -0.5986
 1876TIP3   OH227118   3.599   0.298  13.534  0.5564  0.0790 -0.2266
 1876TIP3    H127119   3.575   0.312  13.626 -1.1176 -0.9680 -0.4605
 1876TIP3    H227120   3.593   0.385  13.494 -0.6888  0.2287  0.2461
 1877TIP3   OH227121   3.072   3.151   6.454 -0.2841 -1.2506 -0.6262
 1877TIP3    H127122   3.113   3.206   6.521 -1.0768 -1.8551  0.3934
 1877TIP3    H227123   3.142   3.093   6.425 -0.0909 -1.4286  0.1712
 1878TIP3   OH227124   6.048   4.875  13.582 -0.4390 -0.3091  0.0458
 1878TIP3    H127125   5.998   4.935  13.638  1.0888  1.4712 -0.3817
 1878TIP3    H227126   6.031   4.907  13.493  0.6636 -0.2813 -0.1632
 1879TIP3   OH227127   0.203   4.429   0.470 -0.2411 -0.5573 -0.9884
 1879TIP3    H127128   0.203   4.483   0.549 -1.5011  0.2747 -1.5183
 1879TIP3    H227129   0.275   4.464   0.417  2.0174 -2.4737  0.5915
 1880TIP3   OH227130   6.298   5.112  15.890 -0.5647  0.0263  0.3797
 1880TIP3    H127131   6.357   5.149  15.825  0.3238  0.3229  1.3287
 1880TIP3    H227132   6.279   5.185  15.949 -0.1427 -0.5969  1.3061
 1881TIP3   OH227133   0.212   6.615  12.773  0.2003  0.4098  0.3446
 1881TIP3    H127134   0.258   6.589  12.693  0.2707 -0.5882  0.7008
 1881TIP3    H227135   0.276   6.604  12.843 -0.4000 -0.4861  0.7765
 1882TIP3   OH227136   2.697   4.905   4.424 -0.0754  0.7205 -0.1298
 1882TIP3    H127137   2.739   4.821   4.441 -1.6270 -0.2175 -0.7074
 1882TIP3    H227138   2.757   4.970   4.462  0.6294 -0.6904  1.3016
 1883TIP3   OH227139   2.349   2.230  10.891  0.2387 -0.0217  0.6982
 1883TIP3    H127140   2.340   2.278  10.808  1.0945 -0.6706  0.2149
 1883TIP3    H227141   2.311   2.144  10.873 -1.0048  0.3388  1.4700
 1884TIP3   OH227142   1.729   3.735   6.102  0.1664 -0.1336 -0.2169
 1884TIP3    H127143   1.658   3.690   6.056  1.3120 -0.6001 -1.5890
 1884TIP3    H227144   1.732   3.822   6.063 -0.0932  0.1360  0.3444
 1885TIP3   OH227145   1.985   3.762  12.091  0.5634  0.2395  0.7730
 1885TIP3    H127146   2.056   3.752  12.028  0.9404  0.2697  1.1837
 1885TIP3    H227147   1.936   3.839  12.060 -0.2844 -0.7586 -0.4345
 1886TIP3   OH227148   6.648   4.608   6.622  0.0516 -0.3553  0.6383
 1886TIP3    H127149   6.682   4.660   6.549  2.7561 -0.9845  1.3384
 1886TIP3    H227150   6.573   4.658   6.655  1.2062  1.9586 -0.0605
 1887TIP3   OH227151   2.922   1.383   1.048 -0.0283  0.3169  0.7396
 1887TIP3    H127152   2.980   1.454   1.077  1.5233 -0.6708  0.1647
 1887TIP3    H227153   2.934   1.315   1.114  0.2761 -0.2978  0.0589
 1888TIP3   OH227154   0.610   3.185   1.501 -0.4126 -0.0894  0.1191
 1888TIP3    H127155   0.615   3.095   1.535 -0.2382  0.3923  1.4222
 1888TIP3    H227156   0.546   3.228   1.558  0.0088  0.7985 -0.0692
 1889TIP3   OH227157   4.803   6.128  15.812  0.0102 -0.7149 -0.1370
 1889TIP3    H127158   4.862   6.119  15.886 -0.2694 -0.9762  0.0559
 1889TIP3    H227159   4.806   6.221  15.790 -0.5411 -0.4809  0.7294
 1890TIP3   OH227160   5.781   5.007  15.811  0.2618 -0.1678  0.0509
 1890TIP3    H127161   5.764   5.098  15.788  1.3782 -0.1619 -0.8674
 1890TIP3    H227162   5.697   4.973  15.841 -0.0729  1.2739  0.8189
 1891TIP3   OH227163   2.958   5.011   1.071  0.4776  0.0465  0.0145
 1891TIP3    H127164   2.902   4.934   1.062  3.1124 -1.7768 -3.2494
 1891TIP3    H227165   3.030   4.980   1.126 -1.3262  2.3148  4.0713
 1892TIP3   OH227166   2.663   4.239   1.795  0.3530  0.3158 -0.6388
 1892TIP3    H127167   2.635   4.160   1.748  2.2801 -1.1352  0.4835
 1892TIP3    H227168   2.724   4.282   1.735  0.4277  0.1535 -0.6793
 1893TIP3   OH227169   1.689   4.385  16.409  0.7904 -0.3306  0.2351
 1893TIP3    H127170   1.631   4.316  16.377  1.4086 -1.0961  0.7185
 1893TIP3    H227171   1.651   4.411  16.493  2.0099 -2.0147  1.3814
 1894TIP3   OH227172   6.772   1.081  14.019  0.7052 -0.5303  0.1379
 1894TIP3    H127173   6.853   1.037  14.045  0.1635 -0.9896  1.1462
 1894TIP3    H227174   6.786   1.108  13.929  1.0404 -2.9147 -0.6063
 1895TIP3   OH227175   6.283   1.910   2.959  0.5896  0.3456 -0.6019
 1895TIP3    H127176   6.328   1.848   3.016  1.1709 -0.1329 -1.5721
 1895TIP3    H227177   6.291   1.994   3.004  1.3067  0.0304 -0.1314
 1896TIP3   OH227178   6.546   3.051   3.690 -0.1281 -0.3872 -0.0303
 1896TIP3    H127179   6.633   3.029   3.656  0.9937  0.6051  1.9877
 1896TIP3    H227180   6.540   3.002   3.772 -2.1188 -1.5694 -0.8055
 1897TIP3   OH227181   4.274   6.511   0.986 -0.5489  0.0353 -0.3964
 1897TIP3    H127182   4.257   6.431   1.036 -1.2252  0.4163  0.0128
 1897TIP3    H227183   4.194   6.564   0.998  0.9214  1.9958  1.7328
 1898TIP3   OH227184   2.766   0.285   1.092 -0.2131  0.2702  0.1756
 1898TIP3    H127185   2.783   0.328   1.176 -1.1116 -1.4706  1.3411
 1898TIP3    H227186   2.809   0.199   1.101 -2.6905 -1.0906  0.0844
 1899TIP3   OH227187   1.615   1.690  15.768  0.5411 -0.1725  0.5263
 1899TIP3    H127188   1.616   1.682  15.863  0.9068  1.0294  0.6367
 1899TIP3    H227189   1.688   1.635  15.739  1.3627  0.6206  1.0490
 1900TIP3   OH227190   5.251   3.362  15.158 -0.4675  0.0672  0.1908
 1900TIP3    H127191   5.251   3.308  15.237  1.0218 -1.1340 -0.5586
 1900TIP3    H227192   5.176   3.420  15.168 -0.6385 -0.4312  2.2155
 1901TIP3   OH227193   0.750   5.134   4.070 -0.2179  0.3228 -0.4783
 1901TIP3    H127194   0.823   5.146   4.008  0.2755 -1.5318 -0.3292
 1901TIP3    H227195   0.709   5.052   4.042 -0.2738 -0.3188  1.3456
 1902TIP3   OH227196   2.917   0.697   5.455 -0.2877  0.0335  0.1014
 1902TIP3    H127197   2.895   0.638   5.383 -1.4659  0.7343 -0.1350
 1902TIP3    H227198   2.911   0.643   5.534  1.1645 -0.7804 -0.2978
 1903TIP3   OH227199   4.461   5.225  11.242 -0.1538  0.1773  0.8422
 1903TIP3    H127200   4.378   5.185  11.266  0.1950 -0.1935  1.4847
 1903TIP3    H227201   4.527   5.173  11.290  0.5903 -0.6150 -0.9481
 1904TIP3   OH227202   2.390   0.767   2.244 -0.3385  0.6880  0.7881
 1904TIP3    H127203   2.454   0.725   2.302  1.1321 -0.0394 -1.2296
 1904TIP3    H227204   2.425   0.753   2.156 -1.1047  3.9532 -0.1734
 1905TIP3   OH227205   5.208   4.605  11.020  0.2796  0.1362  0.8333
 1905TIP3    H127206   5.186   4.604  10.927  0.3821 -0.4444  0.8112
 1905TIP3    H227207   5.303   4.594  11.022  0.4157  1.1878  0.9793
 1906TIP3   OH227208   6.613   5.628   5.019  0.2225 -0.8688  0.1854
 1906TIP3    H127209   6.528   5.664   5.045  0.0325 -0.1151 -1.3996
 1906TIP3    H227210   6.642   5.579   5.096 -1.6157 -1.0949  0.7955
 1907TIP3   OH227211   1.214   4.684  14.452 -0.5951 -0.0661  0.2966
 1907TIP3    H127212   1.295   4.694  14.402 -1.4271  0.5899 -1.0016
 1907TIP3    H227213   1.178   4.600  14.423 -0.7895  0.0376  0.2339
 1908TIP3   OH227214   6.320   6.389   2.399  0.1919 -0.1711  0.3657
 1908TIP3    H127215   6.415   6.393   2.409  0.1105  0.2239  1.0209
 1908TIP3    H227216   6.303   6.432   2.315  0.4407  1.5083  1.1439
 1909TIP3   OH227217   5.269   2.483  11.537 -0.3957  0.1652 -0.4297
 1909TIP3    H127218   5.232   2.531  11.611 -1.2935  0.4745 -1.0747
 1909TIP3    H227219   5.196   2.435  11.499  0.3630 -1.2881 -0.1592
 1910TIP3   OH227220   2.251   3.591   4.558 -0.3296  0.4054 -0.0747
 1910TIP3    H127221   2.280   3.681   4.546  0.4078  0.3339  1.0599
 1910TIP3    H227222   2.158   3.592   4.532 -0.6917  1.7925  1.1979
 1911TIP3   OH227223   1.600   0.772  13.406  0.0220  0.8837  0.5520
 1911TIP3    H127224   1.660   0.701  13.428 -1.5846 -1.4747 -1.9341
 1911TIP3    H227225   1.531   0.767  13.472 -0.7378 -0.8189 -0.3137
 1912TIP3   OH227226   0.750   4.105  13.194 -0.1284 -0.5199 -0.0733
 1912TIP3    H127227   0.784   4.079  13.108  1.3594  0.5032  0.1729
 1912TIP3    H227228   0.750   4.025  13.246 -0.7945 -1.0957 -0.9357
 1913TIP3   OH227229   1.024   6.387  12.398  0.3350 -0.0748 -0.2878
 1913TIP3    H127230   0.995   6.479  12.401  0.3916 -0.0498 -0.4919
 1913TIP3    H227231   0.988   6.354  12.316  0.9804 -0.0124 -0.5974
 1914TIP3   OH227232   3.754   3.843   3.931  0.5002 -0.0121 -0.2642
 1914TIP3    H127233   3.799   3.775   3.882 -1.3394 -0.8505 -0.8567
 1914TIP3    H227234   3.768   3.923   3.879  1.2047 -0.2565 -0.4691
 1915TIP3   OH227235   2.259   5.345  13.890 -0.7118 -0.5326 -0.6010
 1915TIP3    H127236   2.272   5.439  13.884 -0.6444 -0.3734  1.3375
 1915TIP3    H227237   2.188   5.334  13.954  0.1674 -1.7962  0.2315
 1916TIP3   OH227238   5.260   5.114  15.741  0.0958  0.2917  0.5154
 1916TIP3    H127239   5.195   5.151  15.681  0.2975 -1.4005 -0.8183
 1916TIP3    H227240   5.213   5.104  15.824 -1.4473 -1.0465 -0.4576
 1917TIP3   OH227241   2.471   3.585   3.111  0.1123 -0.6368  0.0016
 1917TIP3    H127242   2.505   3.640   3.040 -0.5031  0.9580  0.9070
 1917TIP3    H227243   2.387   3.553   3.078 -0.6598  0.9454  0.3975
 1918TIP3   OH227244   0.585   3.761   3.117 -0.0165 -0.1551 -0.5099
 1918TIP3    H127245   0.504   3.747   3.166  0.0192 -1.1954 -0.7328
 1918TIP3    H227246   0.571   3.717   3.034  0.3559  0.6337 -1.0003
 1919TIP3   OH227247   3.101   4.332  11.026 -0.1672  0.3236  0.2011
 1919TIP3    H127248   3.066   4.398  11.085 -0.4445 -0.6650  1.1687
 1919TIP3    H227249   3.024   4.289  10.989 -0.0152 -0.7902  1.1231
 1920TIP3   OH227250   0.635   4.315   4.890 -0.5433 -0.3668 -0.0008
 1920TIP3    H127251   0.542   4.325   4.868 -0.3239  1.3093 -0.2782
 1920TIP3    H227252   0.660   4.399   4.927  1.3891  0.0036 -1.9422
 1921TIP3   OH227253   0.444   6.202  14.956  0.0090 -0.4439 -0.3876
 1921TIP3    H127254   0.452   6.139  14.884 -2.9774  0.3514 -1.5572
 1921TIP3    H227255   0.350   6.203  14.977  0.2201  2.2065  0.8655
 1922TIP3   OH227256   3.071   3.196   2.912  0.1229 -0.3599  0.1766
 1922TIP3    H127257   3.062   3.134   2.839 -0.6207 -0.2609  0.1797
 1922TIP3    H227258   3.045   3.146   2.989  1.2250 -0.5614  0.4303
 1923TIP3   OH227259   6.163   1.482  15.045 -0.0935 -0.4242  0.2772
 1923TIP3    H127260   6.258   1.467  15.051 -0.0408 -1.1177 -1.5886
 1923TIP3    H227261   6.153   1.531  14.963 -1.3200  0.0865  0.7182
 1924TIP3   OH227262   5.575   5.077   0.406  0.2673  0.6974 -0.0734
 1924TIP3    H127263   5.526   4.996   0.419  1.6339 -0.2998 -0.9488
 1924TIP3    H227264   5.580   5.115   0.494 -0.8392  0.1188  0.2670
 1925TIP3   OH227265   1.925   1.067  16.489  0.8415  0.0375  0.1306
 1925TIP3    H127266   1.924   1.001  16.558 -2.5548 -0.2587 -0.0072
 1925TIP3    H227267   1.952   1.148  16.533 -2.3504  0.1269  2.2761
 1926TIP3   OH227268   4.571   1.639  14.034  0.8978 -0.3247 -0.0520
 1926TIP3    H127269   4.564   1.544  14.024 -0.0763 -0.5839  2.5261
 1926TIP3    H227270   4.498   1.673  13.981  1.7208 -0.9095 -1.6307
 1927TIP3   OH227271   4.669   5.310   0.544 -0.4289  0.0304 -0.4409
 1927TIP3    H127272   4.666   5.370   0.470 -0.5563  0.0292 -0.4356
 1927TIP3    H227273   4.738   5.345   0.601 -0.9617  0.5477 -0.1084
 1928TIP3   OH227274   4.338   1.203   0.081  0.3642 -0.1926  0.5722
 1928TIP3    H127275   4.392   1.188   0.003  0.8369 -1.0928  1.0579
 1928TIP3    H227276   4.248   1.187   0.050  0.1544  2.7172 -0.5954
 1929TIP3   OH227277   6.163   3.108   1.140  0.6726 -0.6363  0.5415
 1929TIP3    H127278   6.078   3.068   1.126  0.3252  0.8023 -1.9343
 1929TIP3    H227279   6.150   3.164   1.216 -0.7031 -0.1814  0.0028
 1930TIP3   OH227280   5.209   6.747   5.313  0.0435  0.3613 -0.2152
 1930TIP3    H127281   5.293   6.788   5.291 -0.4772  0.1945 -2.8678
 1930TIP3    H227282   5.144   6.816   5.300 -0.3368  0.2213  0.8635
 1931TIP3   OH227283   0.610   1.087  12.468 -0.2819 -0.2710  0.6140
 1931TIP3    H127284   0.647   1.124  12.548 -1.1648  1.1191  0.4157
 1931TIP3    H227285   0.517   1.113  12.470 -0.1890  0.3275 -1.1343
 1932TIP3   OH227286   4.279   3.316   3.879  0.0615  0.1159  0.1411
 1932TIP3    H127287   4.336   3.390   3.860  0.2562 -0.4623 -1.6406
 1932TIP3    H227288   4.312   3.281   3.962  1.0714  0.9368  0.1009
 1933TIP3   OH227289   0.263   2.642  15.894  0.1205 -0.7933 -0.2965
 1933TIP3    H127290   0.316   2.628  15.815 -0.5220 -0.0244 -0.8745
 1933TIP3    H227291   0.314   2.704  15.946 -1.0437  1.4575 -1.7258
 1934TIP3   OH227292   1.488   0.703  13.907  0.0895 -0.4948  0.1784
 1934TIP3    H127293   1.450   0.743  13.829 -0.1149 -2.0228 -0.5516
 1934TIP3    H227294   1.542   0.772  13.946  2.4140 -0.4358 -2.8210
 1935TIP3   OH227295   6.442   5.476  11.981  1.1127  0.1509 -0.2283
 1935TIP3    H127296   6.367   5.416  11.974  0.9318  0.3669 -0.1650
 1935TIP3    H227297   6.498   5.453  11.907 -0.0549  1.3979 -1.5910
 1936TIP3   OH227298   6.186   6.262   1.780 -0.3502 -0.0216 -1.3116
 1936TIP3    H127299   6.112   6.302   1.735  0.1761  1.3218 -1.0390
 1936TIP3    H227300   6.148   6.221   1.858 -0.8087  0.6034 -1.2028
 1937TIP3   OH227301   4.142   1.048   5.033 -0.0368 -0.0432 -0.3640
 1937TIP3    H127302   4.205   1.120   5.026 -1.0376  0.9835  0.7398
 1937TIP3    H227303   4.126   1.021   4.943 -0.8129  2.1973 -0.9602
 1938TIP3   OH227304   5.957   2.244  15.599  0.5403  0.0794 -0.2259
 1938TIP3    H127305   5.970   2.336  15.622 -0.1300  0.1171  0.0323
 1938TIP3    H227306   5.955   2.243  15.503  1.8639  0.1364 -0.2715
 1939TIP3   OH227307   0.781   5.168  14.481 -0.0169  0.4998 -0.4938
 1939TIP3    H127308   0.840   5.172  14.405 -2.1606  5.2390 -2.3060
 1939TIP3    H227309   0.722   5.094  14.462  1.1008 -0.0323 -2.0861
 1940TIP3   OH227310   4.106   2.853  10.988  0.0063 -0.1187  0.0149
 1940TIP3    H127311   4.189   2.833  10.945  0.9459 -0.0163  1.6816
 1940TIP3    H227312   4.125   2.844  11.081 -1.1391  2.4304  0.5911
 1941TIP3   OH227313   2.990   1.003   6.049  0.1070 -0.5621 -0.8852
 1941TIP3    H127314   2.971   1.007   5.955  0.1561 -1.2198 -0.9261
 1941TIP3    H227315   2.930   0.937   6.083 -0.6252  0.4093 -0.2606
 1942TIP3   OH227316   4.928   6.269   5.617  0.0690 -0.0117 -0.3246
 1942TIP3    H127317   5.010   6.221   5.603  0.1584 -0.5688  1.7120
 1942TIP3    H227318   4.919   6.273   5.712 -1.8693  0.7671 -0.4939
 1943TIP3   OH227319   0.278   2.390   4.063  0.0506  0.1764 -0.2582
 1943TIP3    H127320   0.237   2.316   4.019  0.6378 -0.0237 -0.4764
 1943TIP3    H227321   0.364   2.358   4.091  0.1467  0.6490  0.0103
 1944TIP3   OH227322   6.027   2.553  14.802  0.6267 -0.7580 -1.2449
 1944TIP3    H127323   6.083   2.488  14.760 -0.7487 -2.1642 -0.9776
 1944TIP3    H227324   5.945   2.551  14.752  0.6229  0.9933 -1.4006
 1945TIP3   OH227325   3.488   4.504   6.239  0.0829  0.5422  0.3408
 1945TIP3    H127326   3.457   4.580   6.189 -0.4079  0.4218  0.4529
 1945TIP3    H227327   3.442   4.511   6.323 -1.5355 -0.9512 -0.3627
 1946TIP3   OH227328   2.281   6.643   2.549  0.2175 -1.0551  0.2100
 1946TIP3    H127329   2.359   6.666   2.598  0.8601 -1.0520 -0.7813
 1946TIP3    H227330   2.309   6.643   2.457 -1.3764  0.8771 -0.3743
 1947TIP3   OH227331   0.617   6.651   6.356 -0.2664 -0.0846  0.1779
 1947TIP3    H127332   0.685   6.610   6.303  0.2768  2.6160 -1.4272
 1947TIP3    H227333   0.643   6.634   6.446  1.3355 -0.9313 -0.4061
 1948TIP3   OH227334   1.858   4.800  13.679 -0.2750 -0.4793  0.1898
 1948TIP3    H127335   1.802   4.746  13.623  1.2333 -1.5058 -0.3845
 1948TIP3    H227336   1.917   4.737  13.721  1.6710  0.7238 -0.6298
 1949TIP3   OH227337   4.674   3.930  12.250 -0.4356  0.0174  0.0034
 1949TIP3    H127338   4.595   3.956  12.203 -1.2214 -1.0741  0.6634
 1949TIP3    H227339   4.698   4.007  12.301 -0.7810  0.5303 -0.5978
 1950TIP3   OH227340   3.656   5.875   0.919  0.4016 -0.2459  0.1305
 1950TIP3    H127341   3.707   5.837   0.847 -0.4961  1.4647 -1.5126
 1950TIP3    H227342   3.698   5.960   0.935  0.2542 -0.3806  1.2567
 1951TIP3   OH227343   1.961   6.243   2.206 -0.2175 -0.2247  0.4250
 1951TIP3    H127344   2.031   6.194   2.250  0.5830 -0.1362 -0.6993
 1951TIP3    H227345   1.943   6.192   2.127 -1.1090  0.0168  0.4591
 1952TIP3   OH227346   6.450   4.481  16.312  0.1292 -0.1434 -0.6428
 1952TIP3    H127347   6.441   4.523  16.226 -0.7732  0.8213 -0.1031
 1952TIP3    H227348   6.361   4.482  16.347  0.8259  1.5332  1.2355
 1953TIP3   OH227349   4.945   1.995  14.840  0.2739  0.1423 -0.0290
 1953TIP3    H127350   4.942   1.903  14.866 -1.8512  0.1323 -0.1321
 1953TIP3    H227351   4.940   2.044  14.922  0.0934  0.1506 -0.0447
 1954TIP3   OH227352   2.101   2.850  14.046  0.2905 -0.1236  0.4812
 1954TIP3    H127353   2.129   2.758  14.042  2.1639  0.4158  0.3593
 1954TIP3    H227354   2.145   2.885  14.123  1.4028  1.1967 -0.6902
 1955TIP3   OH227355   1.458   3.708  13.387 -0.2898  0.0411  0.1949
 1955TIP3    H127356   1.458   3.690  13.293 -1.3129 -0.8054  0.3318
 1955TIP3    H227357   1.484   3.625  13.428  2.2218  0.9528  0.6196
 1956TIP3   OH227358   1.629   5.616   2.943  0.2046  0.2127 -0.0498
 1956TIP3    H127359   1.591   5.666   2.871  1.4519 -0.4898 -1.2236
 1956TIP3    H227360   1.556   5.565   2.977 -1.3612  3.3193  1.7521
 1957TIP3   OH227361   1.518   5.777  10.685  0.2526  0.2504 -0.0608
 1957TIP3    H127362   1.444   5.798  10.629 -0.7712 -1.0583  0.7401
 1957TIP3    H227363   1.580   5.849  10.672 -1.3866  1.6468 -0.3409
 1958TIP3   OH227364   2.523   6.189   2.654 -0.5351 -0.3272  0.2395
 1958TIP3    H127365   2.615   6.213   2.664 -0.7993  1.3994 -1.0518
 1958TIP3    H227366   2.479   6.271   2.635 -2.3971 -1.0957  0.9877
 1959TIP3   OH227367   0.502   5.286   5.279  0.2017 -0.0067 -0.7776
 1959TIP3    H127368   0.536   5.334   5.354  0.1263 -0.1513 -0.6486
 1959TIP3    H227369   0.570   5.221   5.259 -0.5343 -1.1633  0.2970
 1960TIP3   OH227370   6.640   2.435  15.296 -0.2383  0.1278  0.5666
 1960TIP3    H127371   6.683   2.463  15.377  1.4500  3.6060 -1.2874
 1960TIP3    H227372   6.699   2.464  15.226 -2.0643 -1.8085 -1.9929
 1961TIP3   OH227373   2.475   5.559   3.087 -0.4258  0.2477  0.2233
 1961TIP3    H127374   2.518   5.617   3.150 -1.4097  1.8197 -0.4875
 1961TIP3    H227375   2.415   5.507   3.140  0.1998  0.1200  0.8269
 1962TIP3   OH227376   5.487   6.532  13.259 -0.0827  0.0260 -0.8149
 1962TIP3    H127377   5.447   6.468  13.319  0.9333 -0.3724 -0.5380
 1962TIP3    H227378   5.441   6.519  13.176 -2.2386  1.3024  0.1135
 1963TIP3   OH227379   1.670   5.877  11.246  0.0125  0.9221  0.5545
 1963TIP3    H127380   1.586   5.834  11.263  0.5485 -0.7522 -0.7383
 1963TIP3    H227381   1.726   5.848  11.318 -0.4873  2.0301  1.4113
 1964TIP3   OH227382   5.718   0.669   1.605 -0.0127  0.6266  0.0122
 1964TIP3    H127383   5.788   0.734   1.614  0.5046  0.3501 -1.7120
 1964TIP3    H227384   5.743   0.598   1.664  1.1601  0.5495 -0.5497
 1965TIP3   OH227385   6.804   6.488   0.488  0.5823 -0.1553  0.0389
 1965TIP3    H127386   6.775   6.402   0.516 -1.4353  0.1623 -0.9124
 1965TIP3    H227387   6.849   6.473   0.405 -0.2565 -0.2483 -0.4053
 1966TIP3   OH227388   1.270   0.967  11.716  0.2153  0.5474 -0.2155
 1966TIP3    H127389   1.238   0.883  11.748  0.0928  0.7562  0.2087
 1966TIP3    H227390   1.283   0.953  11.622  1.0477 -0.2132  0.0030
 1967TIP3   OH227391   6.144   1.316   0.179  0.3365  0.7316  0.2637
 1967TIP3    H127392   6.174   1.400   0.143 -1.5874  1.1597 -0.4801
 1967TIP3    H227393   6.062   1.338   0.224  0.1274 -0.6526  0.5896
 1968TIP3   OH227394   4.113   1.195  16.716  0.0126 -0.0230 -0.4722
 1968TIP3    H127395   4.126   1.284  16.683  1.3491  1.6434  3.8474
 1968TIP3    H227396   4.024   1.195  16.751  0.1313 -0.3090 -0.1676
 1969TIP3   OH227397   2.078   0.872   0.110  0.1088  0.2540  0.3632
 1969TIP3    H127398   2.081   0.782   0.143  0.2667 -0.3081 -1.1001
 1969TIP3    H227399   2.166   0.905   0.123  0.2416 -0.0571  0.2764
 1970TIP3   OH227400   6.102   5.131   1.712  0.1469 -0.2821 -0.2464
 1970TIP3    H127401   6.065   5.146   1.625 -1.8562  3.1407  1.0072
 1970TIP3    H227402   6.157   5.208   1.728  0.4613 -0.8296  1.4975
 1971TIP3   OH227403   2.893   1.456  12.144 -0.1528  0.5285 -0.4822
 1971TIP3    H127404   2.964   1.466  12.208 -1.7061  1.1134  1.2238
 1971TIP3    H227405   2.843   1.381  12.175 -1.5251  1.4508 -0.4014
 1972TIP3   OH227406   1.954   0.286   4.445  0.6098 -0.5450 -0.4823
 1972TIP3    H127407   2.038   0.270   4.487  0.2286 -2.0260 -0.2407
 1972TIP3    H227408   1.921   0.199   4.423 -2.1925 -0.2925  2.0534
 1973TIP3   OH227409   6.585   0.729   0.737  0.2581  0.4003  0.2010
 1973TIP3    H127410   6.637   0.657   0.770 -2.3181 -1.1593  1.1715
 1973TIP3    H227411   6.567   0.783   0.814  0.7529  1.1503 -0.1991
 1974TIP3   OH227412   6.611   3.982  14.440 -0.1550  0.1377 -0.4481
 1974TIP3    H127413   6.665   4.041  14.493  2.0634  0.0499 -2.4498
 1974TIP3    H227414   6.620   4.015  14.351 -1.5250 -1.3399 -1.1783
 1975TIP3   OH227415   2.800   4.635   4.451  0.1088  0.3078  0.4442
 1975TIP3    H127416   2.732   4.568   4.459  0.6481 -0.5210 -1.3724
 1975TIP3    H227417   2.867   4.609   4.514 -1.2510  1.1931  2.3322
 1976TIP3   OH227418   3.811   2.835  16.843 -0.3355 -0.4212  0.5817
 1976TIP3    H127419   3.716   2.837  16.840 -0.3502  2.4307 -0.0857
 1976TIP3    H227420   3.837   2.830  16.751  0.1383 -0.5143  0.7181
 1977TIP3   OH227421   2.812   2.466   1.107  0.5928  0.1936  0.0981
 1977TIP3    H127422   2.733   2.450   1.158  0.7831  0.2775  0.4237
 1977TIP3    H227423   2.882   2.471   1.173  1.3782 -2.9125 -0.2977
 1978TIP3   OH227424   5.463   2.062  12.451  0.0471 -0.4913  0.1163
 1978TIP3    H127425   5.555   2.062  12.425 -0.7266 -0.0541 -3.0612
 1978TIP3    H227426   5.457   2.131  12.518  1.4991  2.1108 -2.1966
 1979TIP3   OH227427   4.140   1.131   1.915 -0.1069 -0.4488  0.0674
 1979TIP3    H127428   4.182   1.215   1.934 -1.1617  0.1700 -0.2683
 1979TIP3    H227429   4.156   1.116   1.822  1.2520 -1.3078  0.4171
 1980TIP3   OH227430   1.952   5.168  11.387  0.0761 -0.3714 -0.1368
 1980TIP3    H127431   1.997   5.190  11.305 -1.7474 -0.9560 -1.3732
 1980TIP3    H227432   1.902   5.089  11.366 -0.6735 -0.3513  1.4604
 1981TIP3   OH227433   2.115   0.323  14.655  0.3217 -0.4231  0.2406
 1981TIP3    H127434   2.198   0.304  14.699  0.0965  1.1479  1.4357
 1981TIP3    H227435   2.049   0.308  14.723 -0.1293  1.0266  0.1579
 1982TIP3   OH227436   3.407   5.532   5.625  0.1653 -0.3795  0.2097
 1982TIP3    H127437   3.420   5.620   5.661  0.7315 -0.2698 -0.2407
 1982TIP3    H227438   3.323   5.503   5.661  0.0426  0.2874  0.4719
 1983TIP3   OH227439   4.834   5.974   0.518  0.3176  0.3331  0.3498
 1983TIP3    H127440   4.776   5.916   0.568 -0.6214  0.5465 -0.4690
 1983TIP3    H227441   4.890   5.915   0.469  0.2555  0.1197  0.5331
 1984TIP3   OH227442   1.246   3.030   1.228 -0.3857  0.2858  0.4381
 1984TIP3    H127443   1.204   3.096   1.173 -1.0935 -0.0667  0.5390
 1984TIP3    H227444   1.206   3.042   1.314 -0.5993 -0.3428  0.4284
 1985TIP3   OH227445   1.624   4.177   1.178 -0.2049  0.4514  0.7921
 1985TIP3    H127446   1.682   4.166   1.103  1.6753  0.9700  2.1075
 1985TIP3    H227447   1.537   4.151   1.145  0.9404 -1.5420 -0.9204
 1986TIP3   OH227448   3.423   4.398   4.191  0.1000  0.9043  0.4215
 1986TIP3    H127449   3.496   4.401   4.253 -0.2435 -0.7527  0.9612
 1986TIP3    H227450   3.346   4.418   4.244 -0.0310  0.8464  0.2531
 1987TIP3   OH227451   4.775   4.086   4.638 -0.0653  0.1972 -0.1348
 1987TIP3    H127452   4.845   4.144   4.608 -0.2631  0.7071  0.3616
 1987TIP3    H227453   4.799   4.064   4.728 -0.4202  0.1767 -0.0430
 1988TIP3   OH227454   2.935   5.662   3.424 -0.3072 -0.5428 -1.1838
 1988TIP3    H127455   2.921   5.583   3.477 -0.7531  0.8124  0.8169
 1988TIP3    H227456   3.019   5.697   3.455  0.4242 -0.7490 -2.8101
 1989TIP3   OH227457   0.229   6.079  12.273 -0.1634 -0.7053  0.0621
 1989TIP3    H127458   0.294   6.054  12.207 -1.1830 -0.0974 -1.2147
 1989TIP3    H227459   0.149   6.032  12.246 -0.9983  0.7194 -0.0282
 1990TIP3   OH227460   4.766   2.789   2.686  0.1030 -0.4878 -0.4669
 1990TIP3    H127461   4.784   2.748   2.601  0.0365 -1.2756 -0.1166
 1990TIP3    H227462   4.733   2.876   2.665  2.2035  0.1723 -1.1819
 1991TIP3   OH227463   4.632   2.227   5.771  0.5225 -0.2917  0.0144
 1991TIP3    H127464   4.695   2.282   5.725 -0.3567 -0.0708 -0.9504
 1991TIP3    H227465   4.546   2.264   5.749 -0.0168 -1.2794  0.3830
 1992TIP3   OH227466   3.745   2.816   3.939  0.4133  0.7525 -0.4165
 1992TIP3    H127467   3.727   2.755   3.867 -0.5691 -0.2036  0.6005
 1992TIP3    H227468   3.750   2.760   4.017  0.4448  1.8761  0.4091
 1993TIP3   OH227469   2.374   1.600  13.448 -0.3632 -0.1905 -0.4122
 1993TIP3    H127470   2.344   1.573  13.535 -0.8145  0.4966 -0.3491
 1993TIP3    H227471   2.440   1.535  13.424 -0.0851 -0.2699  0.5337
 1994TIP3   OH227472   0.188   1.516   1.581 -0.2807  0.2115 -0.4058
 1994TIP3    H127473   0.122   1.511   1.650  1.5129 -1.8583  1.3003
 1994TIP3    H227474   0.183   1.432   1.535 -0.0229  0.7400 -1.4508
 1995TIP3   OH227475   1.795   5.483   6.102  0.1547  0.2733  1.0208
 1995TIP3    H127476   1.786   5.412   6.165  0.1586  1.0166  1.8690
 1995TIP3    H227477   1.815   5.439   6.019 -1.7824 -0.8559  1.0892
 1996TIP3   OH227478   5.486   1.084   0.223  0.3113 -0.0956 -0.1297
 1996TIP3    H127479   5.552   1.014   0.220  0.3903 -0.1682  1.9118
 1996TIP3    H227480   5.417   1.049   0.280  0.7565  1.7946  1.6664
 1997TIP3   OH227481   1.251   1.713  11.034  0.3221  0.0047  1.1891
 1997TIP3    H127482   1.237   1.687  10.943 -0.4383  1.2612  0.9193
 1997TIP3    H227483   1.283   1.634  11.077 -3.8262 -2.0727  0.9281
 1998TIP3   OH227484   0.012   3.840   3.893 -0.6062  0.0706  0.3696
 1998TIP3    H127485   0.035   3.906   3.958  1.3683 -0.6798  0.4972
 1998TIP3    H227486   0.025   3.757   3.938 -2.0112 -0.4512 -0.1303
 1999TIP3   OH227487   3.701   1.183  12.717 -0.4812  0.2356  0.4584
 1999TIP3    H127488   3.642   1.243  12.763  0.3215  0.7258  0.8687
 1999TIP3    H227489   3.764   1.157  12.784  0.9952  1.3156 -0.4642
 2000TIP3   OH227490   1.806   0.614  15.234  0.7939  0.2448 -0.1164
 2000TIP3    H127491   1.868   0.646  15.169  1.1863 -0.5555 -0.1495
 2000TIP3    H227492   1.809   0.518  15.224  0.3952  0.1501  0.6507
 2001TIP3   OH227493   4.906   5.439  11.812  0.4452 -0.0228 -0.0233
 2001TIP3    H127494   4.863   5.522  11.833  0.7841 -0.5987  3.4790
 2001TIP3    H227495   4.998   5.454  11.835  0.8977 -0.8013 -1.2595
 2002TIP3   OH227496   5.183   2.370   2.754 -0.4346 -0.2985  0.3820
 2002TIP3    H127497   5.117   2.437   2.733 -1.4173 -1.2781  0.2570
 2002TIP3    H227498   5.266   2.414   2.737 -1.0762  0.3258 -1.5426
 2003TIP3   OH227499   4.280   2.402  14.640  0.3274  0.1178 -0.6038
 2003TIP3    H127500   4.189   2.372  14.632 -0.0655 -0.6664  4.0405
 2003TIP3    H227501   4.284   2.480  14.585 -2.8809 -0.3350 -1.7047
 2004TIP3   OH227502   2.580   5.669  12.221  0.2233  0.7132  0.3326
 2004TIP3    H127503   2.632   5.675  12.301  2.0760 -0.0247 -0.7228
 2004TIP3    H227504   2.504   5.615  12.245  2.0861 -1.8231  1.0350
 2005TIP3   OH227505   4.491   2.530  14.125 -0.1006 -0.3869 -0.3781
 2005TIP3    H127506   4.546   2.510  14.049  2.0225  1.2139  0.6530
 2005TIP3    H227507   4.542   2.499  14.200 -0.8703  0.6321  0.5892
 2006TIP3   OH227508   5.869   5.174   3.213 -0.2406  0.0682  0.0094
 2006TIP3    H127509   5.792   5.194   3.267 -0.8471  0.6619 -1.0623
 2006TIP3    H227510   5.884   5.080   3.229 -1.6675 -0.2543 -0.3686
 2007TIP3   OH227511   1.195   2.214  14.934  0.8407 -0.3381  0.1163
 2007TIP3    H127512   1.152   2.138  14.894 -2.2291 -0.5446  3.3242
 2007TIP3    H227513   1.222   2.184  15.020  1.1460  1.7788  0.8125
 2008TIP3   OH227514   5.764   1.325  16.325  0.2673 -0.0926 -0.0677
 2008TIP3    H127515   5.846   1.282  16.302 -0.0655 -0.1160 -1.2753
 2008TIP3    H227516   5.768   1.410  16.281 -0.4505 -0.1937 -0.3433
 2009TIP3   OH227517   5.979   5.619   5.601 -0.1734 -0.4211  0.2383
 2009TIP3    H127518   5.965   5.594   5.510 -0.0894 -1.4329  0.4853
 2009TIP3    H227519   6.065   5.659   5.603 -1.2904  2.2332 -0.6058
 2010TIP3   OH227520   6.452   6.036   0.302  0.3440 -0.4310  0.5141
 2010TIP3    H127521   6.382   6.099   0.318  1.8060  1.1217  1.1129
 2010TIP3    H227522   6.486   6.016   0.389  0.4019 -1.4851  0.2630
 2011TIP3   OH227523   6.391   2.889  14.334  0.6179 -0.2076  0.1563
 2011TIP3    H127524   6.457   2.891  14.404 -0.5469  0.3330  1.2758
 2011TIP3    H227525   6.315   2.934  14.371 -0.2874 -0.5382 -1.2187
 2012TIP3   OH227526   6.823   6.589  12.945  0.0661 -0.3331  0.1631
 2012TIP3    H127527   6.904   6.637  12.928 -1.3628  1.7020 -1.5299
 2012TIP3    H227528   6.851   6.498  12.954  2.4721  0.1706 -1.1316
 2013TIP3   OH227529   1.247   6.065   5.065  0.2274 -0.3502 -0.2081
 2013TIP3    H127530   1.263   6.156   5.043 -1.2588  0.0306  0.1654
 2013TIP3    H227531   1.201   6.068   5.149  0.7706 -1.4905  0.1647
 2014TIP3   OH227532   0.041   0.260   2.766 -0.1992  0.2191 -0.2600
 2014TIP3    H127533   0.039   0.170   2.734  0.0480 -0.1437  0.7113
 2014TIP3    H227534  -0.048   0.276   2.800 -0.1908  0.2759 -0.2636
 2015TIP3   OH227535   3.115   0.075  15.956 -0.1033  0.1716 -0.2782
 2015TIP3    H127536   3.155   0.140  16.014  1.4897 -0.0394 -1.0952
 2015TIP3    H227537   3.189   0.024  15.922 -1.2828 -2.5172  0.8072
 2016TIP3   OH227538   1.104   3.194  14.874 -0.4386 -0.4151  0.7563
 2016TIP3    H127539   1.143   3.228  14.955  0.3314 -0.4624  0.4091
 2016TIP3    H227540   1.110   3.267  14.813  0.6732 -0.9574  0.1885
 2017TIP3   OH227541   4.029   3.346   1.197  0.3677 -0.0346  0.7232
 2017TIP3    H127542   4.018   3.415   1.263  0.8414  0.9311 -0.1772
 2017TIP3    H227543   4.050   3.393   1.116  0.8018 -1.2479  0.1051
 2018TIP3   OH227544   3.648   4.898   4.605  0.4673 -0.1261  0.0347
 2018TIP3    H127545   3.639   4.920   4.697  0.5032 -0.5785  0.1450
 2018TIP3    H227546   3.742   4.884   4.592  0.5082  0.2888 -0.1532
 2019TIP3   OH227547   4.271   2.086  16.712 -0.2422  0.5979 -0.2888
 2019TIP3    H127548   4.277   2.101  16.617 -2.7085 -1.7840 -0.9571
 2019TIP3    H227549   4.321   2.006  16.727  0.4659  1.1831  0.5205
 2020TIP3   OH227550   4.219   1.729  16.099 -0.3243  0.0016 -0.0707
 2020TIP3    H127551   4.131   1.718  16.134 -0.4158  1.8532  0.4303
 2020TIP3    H227552   4.272   1.754  16.175  0.5377 -0.6172 -0.4492
 2021TIP3   OH227553   6.502   3.827  15.595 -0.6172 -0.0668 -0.2447
 2021TIP3    H127554   6.490   3.899  15.657 -1.1963  0.5921 -1.1025
 2021TIP3    H227555   6.587   3.790  15.617 -0.3648  0.8049  0.2863
 2022TIP3   OH227556   2.481   5.137  12.289  0.2236  0.1837 -0.3940
 2022TIP3    H127557   2.529   5.217  12.313  0.8116  0.3498 -1.9892
 2022TIP3    H227558   2.481   5.137  12.193 -2.8758  0.0914 -0.4933
 2023TIP3   OH227559   5.023   2.537  12.917 -0.1519  0.3964  0.1804
 2023TIP3    H127560   5.094   2.485  12.880 -1.1386 -0.6676 -0.2532
 2023TIP3    H227561   5.066   2.592  12.983  0.8354 -1.3804  1.0996
 2024TIP3   OH227562   4.848   1.807  13.646 -0.6859  1.2926  0.7342
 2024TIP3    H127563   4.937   1.829  13.675 -0.7671  1.7523  0.6411
 2024TIP3    H227564   4.816   1.745  13.712  0.8461 -1.4108 -0.9069
 2025TIP3   OH227565   5.512   6.436  15.719 -0.0776 -0.0066  0.1300
 2025TIP3    H127566   5.503   6.346  15.687 -0.0103 -0.7799  2.1250
 2025TIP3    H227567   5.596   6.436  15.765 -1.1404  0.3766  2.1634
 2026TIP3   OH227568   1.970   5.691  12.694  0.1270 -0.1295 -0.2479
 2026TIP3    H127569   1.957   5.749  12.618 -2.0377 -0.1814  0.0231
 2026TIP3    H227570   2.064   5.674  12.695  0.3081  0.4037 -2.5363
 2027TIP3   OH227571   6.603   0.492   0.456 -0.2920  0.0032 -0.1948
 2027TIP3    H127572   6.698   0.503   0.460 -0.1870 -0.7261 -0.5313
 2027TIP3    H227573   6.590   0.409   0.411 -1.0724 -0.4808  0.8768
 2028TIP3   OH227574   1.019   2.704   4.898 -0.2452  0.0571 -0.0437
 2028TIP3    H127575   0.972   2.627   4.932  1.6522 -0.3652  1.8423
 2028TIP3    H227576   0.975   2.778   4.940 -0.5797 -0.1799  0.0323
 2029TIP3   OH227577   0.683   2.014   4.163 -0.1777 -0.4702  0.3786
 2029TIP3    H127578   0.639   1.959   4.227 -1.0244 -0.0031  0.2142
 2029TIP3    H227579   0.760   2.047   4.210 -0.5916 -0.4177  1.0441
 2030TIP3   OH227580   5.501   3.478   5.083  0.2660  0.4493 -0.0081
 2030TIP3    H127581   5.535   3.390   5.100  0.5496  0.6894  0.7011
 2030TIP3    H227582   5.471   3.510   5.168  2.7485  2.1041  0.3802
 2031TIP3   OH227583   2.751   4.664  15.592  0.1502 -0.1852  0.2874
 2031TIP3    H127584   2.834   4.635  15.555  0.4790 -1.0768  1.6622
 2031TIP3    H227585   2.738   4.609  15.669 -1.2776  0.5500  0.6124
 2032TIP3   OH227586   2.784   0.553   2.737 -0.5109 -0.5572  0.4827
 2032TIP3    H127587   2.716   0.502   2.782  0.6104 -0.8407  1.9335
 2032TIP3    H227588   2.866   0.511   2.762  0.2503  0.1028 -0.8104
 2033TIP3   OH227589   5.711   3.533  13.964  0.2392 -0.5527  0.0970
 2033TIP3    H127590   5.740   3.583  13.889  0.1892 -1.5273 -0.5936
 2033TIP3    H227591   5.669   3.597  14.022 -0.1224  0.1331 -0.9040
 2034TIP3   OH227592   4.429   5.648   0.087 -0.6332  0.5126 -0.1644
 2034TIP3    H127593   4.360   5.658   0.153 -0.2984  3.0864 -0.0774
 2034TIP3    H227594   4.383   5.617   0.009 -1.2618 -1.2086  0.8307
 2035TIP3   OH227595   5.537   1.218   4.065 -0.0152 -0.1906 -0.2762
 2035TIP3    H127596   5.453   1.230   4.108  1.2282  1.9002  1.7672
 2035TIP3    H227597   5.530   1.268   3.984 -0.8620 -0.3980 -0.3422
 2036TIP3   OH227598   0.860   2.494  14.771  0.1614  0.5032  0.2834
 2036TIP3    H127599   0.884   2.429  14.836 -0.8912 -0.5022 -0.3026
 2036TIP3    H227600   0.941   2.509  14.721  0.0982 -1.4887 -0.5113
 2037TIP3   OH227601   6.183   5.780   4.875  0.5427  0.3296 -0.1853
 2037TIP3    H127602   6.147   5.815   4.957 -0.5243 -2.2045  0.5254
 2037TIP3    H227603   6.278   5.783   4.888  0.3968 -0.9608  1.6506
 2038TIP3   OH227604   0.138   2.174  14.232  0.1985 -0.0808  0.3695
 2038TIP3    H127605   0.046   2.197  14.242 -0.3855 -2.2229  0.4066
 2038TIP3    H227606   0.184   2.258  14.227 -1.5695  1.0413  1.9415
 2039TIP3   OH227607   2.898   1.929   1.412 -0.1072  0.2266  0.5670
 2039TIP3    H127608   2.838   1.918   1.486 -1.1944 -0.2261 -0.3504
 2039TIP3    H227609   2.874   2.013   1.374 -0.7732 -0.3448 -0.3180
 2040TIP3   OH227610   3.414   0.841  16.143 -0.0827  0.7526  0.7761
 2040TIP3    H127611   3.331   0.807  16.177  0.1300  0.0283  0.5948
 2040TIP3    H227612   3.478   0.818  16.211 -0.1419  1.9357  1.2416
 2041TIP3   OH227613   6.490   3.374  12.137 -0.0027  0.4929 -0.7317
 2041TIP3    H127614   6.575   3.330  12.128  0.7635  1.9135 -0.6912
 2041TIP3    H227615   6.512   3.461  12.168 -1.5604  0.6107  0.0899
 2042TIP3   OH227616   4.641   2.320  16.843 -0.3252  0.0797 -0.7909
 2042TIP3    H127617   4.693   2.242  16.862 -1.7343 -0.8279 -0.5109
 2042TIP3    H227618   4.563   2.310  16.897 -0.6056  1.6091 -0.8946
 2043TIP3   OH227619   1.230   2.009  13.840  0.6573  0.1646 -0.1141
 2043TIP3    H127620   1.312   1.967  13.865  1.0693  0.1136 -1.4824
 2043TIP3    H227621   1.214   2.073  13.910  0.5061 -1.5580  1.5071
 2044TIP3   OH227622   0.297   6.254   0.038 -0.0656  0.2533 -0.4695
 2044TIP3    H127623   0.303   6.336   0.087 -2.0949 -0.4499  1.0577
 2044TIP3    H227624   0.268   6.281  -0.050  1.6195  1.3290 -0.7457
 2045TIP3   OH227625   2.027   1.753  11.287  0.0247  0.1090  0.9982
 2045TIP3    H127626   2.090   1.820  11.261  1.2963 -0.7162  1.8384
 2045TIP3    H227627   1.965   1.748  11.214  1.2601  0.5557 -0.1148
 2046TIP3   OH227628   0.485   5.038  12.462 -0.1369 -0.2463 -0.0219
 2046TIP3    H127629   0.464   4.967  12.522 -1.4470 -0.1384 -0.3290
 2046TIP3    H227630   0.439   5.016  12.381  0.5640  0.2553 -0.5734
 2047TIP3   OH227631   3.402   2.991   0.652 -0.6393 -0.4453 -0.7603
 2047TIP3    H127632   3.357   2.981   0.568 -2.7246  0.7772  0.1461
 2047TIP3    H227633   3.374   2.916   0.703 -1.0712 -0.0682 -0.4406
 2048TIP3   OH227634   3.336   5.115   0.526  0.4260 -0.5142 -0.6606
 2048TIP3    H127635   3.393   5.171   0.578 -0.0398 -1.3483  0.8038
 2048TIP3    H227636   3.347   5.146   0.436  1.6018  0.6699 -0.1362
 2049TIP3   OH227637   1.600   4.750   2.549 -0.1922  0.1789  0.5970
 2049TIP3    H127638   1.571   4.838   2.571  0.3727  0.1557  1.4845
 2049TIP3    H227639   1.556   4.730   2.466  0.1034  1.4970  0.1096
 2050TIP3   OH227640   2.240   6.763  14.580  0.2180  0.2631 -0.5982
 2050TIP3    H127641   2.249   6.762  14.485  3.0613  0.7916 -0.4171
 2050TIP3    H227642   2.316   6.812  14.611 -1.0078  0.7153  1.9385
 2051TIP3   OH227643   0.825   3.693   3.238  0.0776  0.1958 -0.0475
 2051TIP3    H127644   0.781   3.644   3.308 -0.8553 -0.5949 -1.1397
 2051TIP3    H227645   0.756   3.707   3.173  1.6623 -2.3121 -2.5036
 2052TIP3   OH227646   4.348   5.966  11.938  0.1333 -0.3756 -0.0004
 2052TIP3    H127647   4.361   6.052  11.897 -1.1240  0.1238  0.5874
 2052TIP3    H227648   4.407   5.966  12.013 -0.5173  0.3624  0.5280
 2053TIP3   OH227649   3.613   5.949   1.642  0.1036  0.1633  0.1069
 2053TIP3    H127650   3.551   5.929   1.571 -0.4265  1.5456  0.1495
 2053TIP3    H227651   3.661   5.867   1.656 -1.9553 -1.0776  0.3237
 2054TIP3   OH227652   2.960   3.140   5.946 -0.1796 -0.2599  0.6402
 2054TIP3    H127653   2.890   3.086   5.982 -0.1105  0.1026  1.3373
 2054TIP3    H227654   2.919   3.225   5.929 -0.4355 -0.6731 -1.0036
 2055TIP3   OH227655   5.574   4.115  16.436 -0.2175  0.7808  0.6093
 2055TIP3    H127656   5.540   4.115  16.525 -3.6172  0.1015 -0.5385
 2055TIP3    H227657   5.589   4.023  16.416 -0.6154  0.8207  0.1053
 2056TIP3   OH227658   0.946   5.826  13.206  0.8180 -0.4221 -0.3120
 2056TIP3    H127659   0.962   5.732  13.216 -1.1257 -0.8068 -0.4172
 2056TIP3    H227660   1.031   5.862  13.179  1.6942 -2.0766  0.0948
 2057TIP3   OH227661   5.332   0.032   4.269 -0.9984 -0.1160  0.1832
 2057TIP3    H127662   5.366  -0.048   4.227 -0.0563  0.4825 -0.2243
 2057TIP3    H227663   5.399   0.098   4.251 -2.7047  1.2969 -1.2380
 2058TIP3   OH227664   4.491   0.735   3.397 -0.3913  0.0083 -0.5610
 2058TIP3    H127665   4.397   0.728   3.414 -0.5657  1.2504 -0.8830
 2058TIP3    H227666   4.505   0.828   3.381  1.4026  0.3742  2.3672
 2059TIP3   OH227667   2.265   3.403   1.424 -0.0243  0.0964 -0.1050
 2059TIP3    H127668   2.303   3.376   1.507  0.4194  1.6092  0.2146
 2059TIP3    H227669   2.339   3.436   1.373 -0.4019 -0.1495 -0.8214
 2060TIP3   OH227670   2.348   2.971  13.176  0.1057 -0.3061  0.3425
 2060TIP3    H127671   2.338   2.875  13.172 -0.7655 -0.1961 -0.7356
 2060TIP3    H227672   2.424   2.990  13.121 -0.7960 -0.2582 -0.9250
 2061TIP3   OH227673   2.057   2.380   1.136  0.2513  0.5082 -0.4122
 2061TIP3    H127674   2.008   2.370   1.054 -0.0890 -0.1207 -0.1379
 2061TIP3    H227675   2.090   2.292   1.155 -1.7468  0.0843  1.4135
 2062TIP3   OH227676   6.266   4.486  14.480 -0.0666 -0.0036 -0.3705
 2062TIP3    H127677   6.186   4.533  14.456  0.2705  0.8920  0.2294
 2062TIP3    H227678   6.234   4.402  14.513 -0.7622  0.3119 -0.2170
 2063TIP3   OH227679   3.530   3.990   2.157  0.3136  0.5620 -0.2388
 2063TIP3    H127680   3.471   4.058   2.190 -1.0233 -0.6927  0.0016
 2063TIP3    H227681   3.572   3.955   2.235 -2.1928 -1.7951  0.1632
 2064TIP3   OH227682   6.033   0.927   1.008 -0.4381  0.4034  0.3298
 2064TIP3    H127683   6.086   1.005   0.992 -0.7546  0.2021 -2.0625
 2064TIP3    H227684   5.943   0.960   1.015 -0.2415  0.5960  3.0802
 2065TIP3   OH227685   4.751   6.636  10.300  0.1641 -0.3065 -0.6602
 2065TIP3    H127686   4.664   6.666  10.273  0.3095  0.8349  0.0711
 2065TIP3    H227687   4.789   6.710  10.347  1.4940 -0.8255 -0.8557
 2066TIP3   OH227688   3.262   1.510   0.089 -0.4785  0.2097 -0.6389
 2066TIP3    H127689   3.316   1.570   0.038 -0.7854 -0.8451 -2.2732
 2066TIP3    H227690   3.178   1.555   0.097  0.1141  1.1567  0.5255
 2067TIP3   OH227691   1.194   0.617   4.163 -0.0345  0.1332 -0.3966
 2067TIP3    H127692   1.139   0.676   4.112 -0.2432 -1.2173 -1.8001
 2067TIP3    H227693   1.275   0.610   4.112  0.0094 -0.7208 -0.2264
 2068TIP3   OH227694   3.107   3.953  13.718 -0.6141  0.5464 -0.0913
 2068TIP3    H127695   3.130   4.026  13.775 -2.9264 -0.1379  1.8953
 2068TIP3    H227696   3.096   3.879  13.777  1.2472 -1.3804 -1.9886
 2069TIP3   OH227697   0.081   0.340   5.644 -0.1497  0.3941  0.0307
 2069TIP3    H127698   0.127   0.414   5.683 -0.6340  1.4555 -1.2994
 2069TIP3    H227699   0.061   0.282   5.717  1.1287  1.0876  0.9674
 2070TIP3   OH227700   5.052   1.900   4.702 -0.0112  0.0621  0.5961
 2070TIP3    H127701   5.091   1.857   4.779  1.2286 -1.6827 -0.9205
 2070TIP3    H227702   4.966   1.858   4.692  0.1162 -0.2118  0.6345
 2071TIP3   OH227703   3.666   4.739  17.123  0.3287  0.1681  0.3576
 2071TIP3    H127704   3.647   4.833  17.119 -2.8889 -0.3744 -0.3826
 2071TIP3    H227705   3.686   4.715  17.032  3.7362  0.4685  0.9177
 2072TIP3   OH227706   2.088   0.042   0.615 -0.2541  0.5007  0.3332
 2072TIP3    H127707   1.998   0.070   0.634 -0.1521  1.4950 -0.5725
 2072TIP3    H227708   2.086  -0.053   0.622 -1.1380  0.5725  1.3177
 2073TIP3   OH227709   4.321   3.497   0.763  0.6461  0.4857 -0.2929
 2073TIP3    H127710   4.317   3.445   0.682  1.3428  0.1973 -0.1522
 2073TIP3    H227711   4.321   3.588   0.732 -0.3143  0.4100 -0.5529
 2074TIP3   OH227712   6.113   1.610  14.791 -0.0947 -0.3133 -0.2215
 2074TIP3    H127713   6.139   1.573  14.707 -0.9877 -2.5543  0.4166
 2074TIP3    H227714   6.017   1.613  14.788 -0.0721  2.2302 -0.2940
 2075TIP3   OH227715   5.343   4.247  12.647  0.1693 -0.4210  0.2728
 2075TIP3    H127716   5.400   4.251  12.724  0.5658 -0.0814 -0.0276
 2075TIP3    H227717   5.307   4.335  12.639  0.9378 -0.1517 -0.5125
 2076TIP3   OH227718   5.554   5.924  12.492 -0.0969  0.2472 -0.4345
 2076TIP3    H127719   5.485   5.988  12.511  1.0711  1.7591 -1.0380
 2076TIP3    H227720   5.532   5.891  12.405  0.4265  1.4507 -1.0494
 2077TIP3   OH227721   5.919   1.526   0.204 -0.2042  0.1822  0.1146
 2077TIP3    H127722   5.922   1.447   0.257 -0.2685  0.1727  0.1046
 2077TIP3    H227723   6.004   1.568   0.217  0.2771 -0.4738 -0.7668
 2078TIP3   OH227724   4.528   1.550  15.109 -0.1066 -0.0169  0.1842
 2078TIP3    H127725   4.528   1.646  15.110 -2.1121  0.0227  0.3629
 2078TIP3    H227726   4.436   1.526  15.120  0.4016 -1.9783  0.5071
 2079TIP3   OH227727   0.085   0.824   3.431  0.5096  0.1468  0.1247
 2079TIP3    H127728   0.074   0.910   3.472  0.4926 -0.2081  0.8968
 2079TIP3    H227729   0.016   0.819   3.365  0.3107  0.5997  0.2956
 2080TIP3   OH227730   3.972   0.484  11.279  0.4378  0.3350 -0.3249
 2080TIP3    H127731   3.922   0.480  11.361  2.5630 -1.8271  1.0112
 2080TIP3    H227732   3.981   0.392  11.253  2.8366  0.6924 -0.9904
 2081TIP3   OH227733   6.121   6.173   5.163  0.1230  0.2247  0.0343
 2081TIP3    H127734   6.077   6.156   5.246  2.4014  0.2349  1.3164
 2081TIP3    H227735   6.088   6.259   5.137  1.0400  1.3002  2.1518
 2082TIP3   OH227736   2.632   0.239  14.482  0.3968 -0.2526  0.6713
 2082TIP3    H127737   2.537   0.244  14.475  0.2526 -0.7241  1.9684
 2082TIP3    H227738   2.656   0.311  14.540  0.4394 -1.9937  2.9795
 2083TIP3   OH227739   3.114   2.988  17.092 -0.6881 -0.1999 -0.5437
 2083TIP3    H127740   3.045   2.924  17.109 -0.5294 -0.2256  0.0178
 2083TIP3    H227741   3.069   3.063  17.054 -0.9605 -0.3970 -0.6104
 2084TIP3   OH227742   6.623   5.849   3.003 -0.2628  0.1375  0.1217
 2084TIP3    H127743   6.654   5.873   3.090  1.9274  0.3770 -0.6527
 2084TIP3    H227744   6.594   5.759   3.012  1.9717 -0.5942  0.6948
 2085TIP3   OH227745   5.455   6.741   5.667  0.0647  0.4780 -0.4560
 2085TIP3    H127746   5.462   6.806   5.737  1.5932  0.4021 -0.5088
 2085TIP3    H227747   5.417   6.664   5.710  0.5217  0.5984  0.1843
 2086TIP3   OH227748   4.286   1.743  13.560  0.7109  0.1787 -0.3986
 2086TIP3    H127749   4.211   1.742  13.501  0.2274 -0.0873  0.2098
 2086TIP3    H227750   4.277   1.825  13.609  1.0501  0.3469 -0.6160
 2087TIP3   OH227751   6.149   4.252  17.189  0.2895 -0.4933 -0.1490
 2087TIP3    H127752   6.099   4.288  17.115  0.0848  1.0082  0.6771
 2087TIP3    H227753   6.236   4.292  17.181  0.5478 -1.0386 -0.0941
 2088TIP3   OH227754   4.587   4.551  15.961  0.4075  0.6445 -0.3008
 2088TIP3    H127755   4.591   4.633  16.012 -0.9718  0.8904 -0.5303
 2088TIP3    H227756   4.678   4.531  15.941  0.8623  1.4733  0.7990
 2089TIP3   OH227757   6.344   6.306  12.992 -0.6495 -0.0043 -0.2069
 2089TIP3    H127758   6.395   6.382  12.966  1.4627 -1.5174 -0.7997
 2089TIP3    H227759   6.335   6.314  13.087 -0.9645  1.2615 -0.3365
 2090TIP3   OH227760   2.903   1.696  11.258  0.0046 -0.6755 -0.4800
 2090TIP3    H127761   2.912   1.790  11.243 -0.5407 -0.2927  1.2828
 2090TIP3    H227762   2.929   1.684  11.350 -0.4366 -2.1663 -0.5159
 2091TIP3   OH227763   1.832   4.009  13.274 -0.1614 -0.6391 -0.4996
 2091TIP3    H127764   1.920   3.984  13.247  0.6764  0.2333  1.2450
 2091TIP3    H227765   1.786   4.028  13.192  1.2090 -1.2467 -1.4498
 2092TIP3   OH227766   0.025   1.518  17.204 -0.1954  0.1207 -0.2273
 2092TIP3    H127767  -0.052   1.569  17.180 -0.0761  0.5855  0.3676
 2092TIP3    H227768   0.099   1.575  17.183  0.0451 -0.7207 -1.7767
 2093TIP3   OH227769   6.412   5.517  13.907 -0.0088  0.5975  0.1203
 2093TIP3    H127770   6.316   5.514  13.900 -0.1978  3.7182  0.0201
 2093TIP3    H227771   6.443   5.451  13.845 -2.1010  0.8176 -1.2593
 2094TIP3   OH227772   0.527   0.716  12.669 -0.2610  0.1383  0.5641
 2094TIP3    H127773   0.445   0.692  12.711 -1.7779  0.7546 -1.8484
 2094TIP3    H227774   0.502   0.776  12.599  2.0200 -0.9993 -1.3884
 2095TIP3   OH227775   1.174   5.746  12.665 -0.0821 -0.7312 -0.6557
 2095TIP3    H127776   1.151   5.839  12.668 -0.0307 -0.7454  0.5097
 2095TIP3    H227777   1.097   5.701  12.697  0.3085 -1.0090 -0.0965
 2096TIP3   OH227778   5.154   0.165   0.457 -0.0205  0.2938  0.0578
 2096TIP3    H127779   5.078   0.121   0.494  0.8064 -2.9689 -1.7263
 2096TIP3    H227780   5.120   0.247   0.421 -1.8355  0.8740  2.8490
 2097TIP3   OH227781   0.050   5.079  15.021 -0.2847 -0.1414  0.5064
 2097TIP3    H127782   0.070   5.163  15.061  0.7723  0.7082 -1.6514
 2097TIP3    H227783   0.103   5.015  15.070  0.9719  0.8507  0.4922
 2098TIP3   OH227784   4.495   1.967   2.493 -0.0596  0.3147  0.2243
 2098TIP3    H127785   4.586   1.969   2.465 -0.0817 -1.3611 -0.0634
 2098TIP3    H227786   4.492   2.026   2.569  0.9487  1.4156 -0.5499
 2099TIP3   OH227787   4.854   3.966   3.202 -0.7161 -0.2790  0.1971
 2099TIP3    H127788   4.852   3.975   3.107 -1.4735  2.1127  0.3814
 2099TIP3    H227789   4.776   3.915   3.224 -0.8484 -0.3386 -0.4094
 2100TIP3   OH227790   0.846   0.584  14.202 -0.0505 -0.1284  0.0035
 2100TIP3    H127791   0.874   0.667  14.241 -0.5613 -1.0452  2.5541
 2100TIP3    H227792   0.925   0.548  14.161  1.0275  0.1732  1.6946
 2101TIP3   OH227793   4.510   5.164   4.556  0.8140  0.3977 -0.1776
 2101TIP3    H127794   4.488   5.194   4.644  1.4294  0.6513 -0.1017
 2101TIP3    H227795   4.599   5.197   4.541  3.0742 -4.1816  1.2765
 2102TIP3   OH227796   4.029   5.984  16.855 -0.0836 -0.2706 -0.3921
 2102TIP3    H127797   3.937   5.976  16.882  0.1827 -1.9695  0.1469
 2102TIP3    H227798   4.026   6.002  16.762 -0.9948 -2.7417 -0.9077
 2103TIP3   OH227799   1.768   0.161   1.097 -0.2539 -0.2935 -0.2688
 2103TIP3    H127800   1.774   0.094   1.029  0.4168  0.9725 -1.5202
 2103TIP3    H227801   1.779   0.114   1.179  1.1255 -1.6016 -1.1529
 2104TIP3   OH227802   2.357   3.710  13.875  0.0355  0.0034  0.1043
 2104TIP3    H127803   2.306   3.638  13.913  1.2783 -0.8260  0.2487
 2104TIP3    H227804   2.304   3.739  13.800 -0.4653 -1.0968  0.0088
 2105TIP3   OH227805   5.674   6.503  16.724  0.4993 -0.3391  0.1917
 2105TIP3    H127806   5.644   6.493  16.633  0.1606 -0.2746  0.2975
 2105TIP3    H227807   5.636   6.429  16.770 -2.1085  1.3461  0.9986
 2106TIP3   OH227808   4.644   2.931  10.832  0.3038 -0.2001  0.2308
 2106TIP3    H127809   4.690   2.848  10.843 -2.6574 -1.8326  1.0521
 2106TIP3    H227810   4.666   2.981  10.911  0.7510 -0.8579  0.5310
 2107TIP3   OH227811   5.379   3.497   0.216 -0.2975  0.3491 -0.6411
 2107TIP3    H127812   5.286   3.518   0.202 -0.2908  0.8618  0.0364
 2107TIP3    H227813   5.424   3.579   0.201 -0.0392  0.3026 -0.1262
 2108TIP3   OH227814   2.838   0.458  15.367  0.0563  0.6916  0.3550
 2108TIP3    H127815   2.838   0.552  15.380  2.4786  0.6532  1.1431
 2108TIP3    H227816   2.755   0.428  15.405 -0.4094  2.4003  0.7493
 2109TIP3   OH227817   3.828   6.370  16.683  0.6429 -0.0411  0.2499
 2109TIP3    H127818   3.756   6.430  16.702  0.2102 -0.5958  0.3727
 2109TIP3    H227819   3.848   6.329  16.767  0.5480 -0.4978  0.0513
 2110TIP3   OH227820   4.287   2.044   3.581 -0.3305  0.1313  0.4376
 2110TIP3    H127821   4.310   1.970   3.637  3.2144 -0.6962 -1.7601
 2110TIP3    H227822   4.228   2.006   3.515  0.0160 -0.3057  0.3743
 2111TIP3   OH227823   1.140   5.816   2.003  0.1613  0.1216  0.0137
 2111TIP3    H127824   1.150   5.884   2.070  2.0308  0.0250 -0.1098
 2111TIP3    H227825   1.154   5.861   1.920  0.7790 -0.2890 -0.1124
 2112TIP3   OH227826   4.965   1.901  12.393 -0.4573  0.2523  0.0621
 2112TIP3    H127827   4.894   1.935  12.448 -0.4372  0.1380  0.1604
 2112TIP3    H227828   5.045   1.921  12.442 -0.4831 -0.5084  0.4348
 2113TIP3   OH227829   6.667   3.413   2.242  0.4111  0.4496 -0.4846
 2113TIP3    H127830   6.729   3.479   2.209  0.5411  0.1418 -0.8781
 2113TIP3    H227831   6.663   3.428   2.336 -2.8794  3.8851 -0.9385
 2114TIP3   OH227832   5.851   1.677  14.785  0.6651 -0.1638  0.3195
 2114TIP3    H127833   5.882   1.747  14.842  0.9756 -0.0912  0.0628
 2114TIP3    H227834   5.764   1.705  14.757  1.1952  0.6290 -0.6159
 2115TIP3   OH227835   3.334   4.678   1.358  0.1542 -0.7620  0.1293
 2115TIP3    H127836   3.261   4.664   1.297  0.5137 -0.2178 -0.4259
 2115TIP3    H227837   3.373   4.761   1.330  1.1362 -1.1698  0.2801
 2116TIP3   OH227838   0.264   0.975   1.206 -0.1997 -0.1816 -0.5723
 2116TIP3    H127839   0.193   0.934   1.256 -0.3918 -0.0079 -0.6977
 2116TIP3    H227840   0.221   1.046   1.158  0.0180 -0.2294 -0.8396
 2117TIP3   OH227841   0.905   5.426  17.035  0.1865  0.3239  0.6345
 2117TIP3    H127842   0.866   5.339  17.025  0.9400  0.0610 -0.1785
 2117TIP3    H227843   0.926   5.433  17.128  0.8679 -0.6979  0.5685
 2118TIP3   OH227844   4.094   1.171  13.652  0.6734 -0.3771 -0.2797
 2118TIP3    H127845   4.152   1.135  13.720  0.0944 -1.8630 -0.5450
 2118TIP3    H227846   4.094   1.105  13.583  0.7472  0.8310 -1.4698
 2119TIP3   OH227847   5.076   5.091  14.371  0.1573 -0.0792 -0.1589
 2119TIP3    H127848   4.998   5.037  14.360  0.2991 -0.2950 -0.1094
 2119TIP3    H227849   5.093   5.091  14.465  1.0956 -1.2918 -0.3042
 2120TIP3   OH227850   1.436   1.767  10.711 -0.0489  0.4309 -0.1415
 2120TIP3    H127851   1.386   1.686  10.722  1.7219 -0.8446 -1.0261
 2120TIP3    H227852   1.527   1.740  10.717  0.6282  2.7273  1.7450
 2121TIP3   OH227853   3.459   5.965  12.532  0.0334  0.0504  0.2613
 2121TIP3    H127854   3.438   5.956  12.625 -0.8219  2.0221  0.3135
 2121TIP3    H227855   3.524   5.898  12.516 -1.3689 -1.8058  1.7630
 2122TIP3   OH227856   6.773   3.956  13.485  0.0031 -0.1749  0.0260
 2122TIP3    H127857   6.793   4.027  13.546 -0.8954 -0.9903  1.3160
 2122TIP3    H227858   6.717   3.996  13.419 -0.4188  0.3495  0.6926
 2123TIP3   OH227859   1.912   3.292   5.128 -0.2563 -0.0179 -0.3747
 2123TIP3    H127860   1.994   3.246   5.149  0.4671  0.7676 -1.3669
 2123TIP3    H227861   1.872   3.240   5.059 -0.5980 -0.4063  0.1155
 2124TIP3   OH227862   6.170   6.388   4.599  0.0519  0.6206  0.0037
 2124TIP3    H127863   6.145   6.460   4.541 -0.5457  0.7641  0.4343
 2124TIP3    H227864   6.266   6.385   4.593  0.2998  2.8270  1.5797
 2125TIP3   OH227865   2.758   6.804  16.544  0.1343 -0.2959  0.4101
 2125TIP3    H127866   2.709   6.833  16.467 -0.4036  1.9818  1.5290
 2125TIP3    H227867   2.837   6.763  16.509  1.1702  2.9266 -1.4352
 2126TIP3   OH227868   4.475   2.990   3.545  0.2632 -0.0169  0.9373
 2126TIP3    H127869   4.399   3.042   3.571 -0.6075 -0.2233 -1.0474
 2126TIP3    H227870   4.489   3.012   3.453  1.0096 -1.9435  0.5492
 2127TIP3   OH227871   6.500   1.060  11.640  0.0730  0.3163  0.1070
 2127TIP3    H127872   6.501   0.964  11.633  0.0592  0.3876 -1.1407
 2127TIP3    H227873   6.407   1.082  11.646  0.1388  0.1726  2.0572
 2128TIP3   OH227874   1.290   2.883  16.724 -0.1552 -0.0705  0.3152
 2128TIP3    H127875   1.245   2.810  16.768  0.2348 -0.7305 -0.3728
 2128TIP3    H227876   1.350   2.917  16.790  0.2772 -0.9229  0.3725
 2129TIP3   OH227877   2.164   6.226  14.690 -0.3372  0.5401 -0.3712
 2129TIP3    H127878   2.219   6.277  14.631 -0.2172  1.6517  0.6606
 2129TIP3    H227879   2.226   6.176  14.743 -0.4673 -1.1407 -1.7314
 2130TIP3   OH227880   2.557   2.350  13.205 -0.8806 -0.1728  0.5337
 2130TIP3    H127881   2.536   2.303  13.125 -1.3089  0.0099  0.5395
 2130TIP3    H227882   2.538   2.287  13.275 -0.5736 -0.3072  0.5013
 2131TIP3   OH227883   6.272   0.103  13.153 -0.2369  0.1059 -0.0013
 2131TIP3    H127884   6.362   0.101  13.119 -0.2490  1.2796 -0.1190
 2131TIP3    H227885   6.280   0.068  13.242  0.1648 -0.7639 -0.3633
 2132TIP3   OH227886   0.849   4.871   5.635  0.0176 -0.5368 -0.0975
 2132TIP3    H127887   0.777   4.829   5.589  0.5111  0.3572 -1.7652
 2132TIP3    H227888   0.807   4.932   5.695 -0.6221 -0.9147 -0.1546
 2133TIP3   OH227889   3.139   3.317  17.045 -0.4631 -0.6482 -0.2730
 2133TIP3    H127890   3.209   3.270  16.999 -1.8530 -3.9542  0.6347
 2133TIP3    H227891   3.078   3.342  16.976 -0.1062 -1.0310 -0.7373
 2134TIP3   OH227892   3.896   5.806   5.694 -0.0825 -0.5815 -0.3446
 2134TIP3    H127893   3.923   5.780   5.783 -0.8214 -0.9351 -0.2163
 2134TIP3    H227894   3.821   5.750   5.675 -0.8749  0.5458 -0.6063
 2135TIP3   OH227895   5.910   1.321  17.208  0.4672  0.6112  0.2397
 2135TIP3    H127896   5.972   1.331  17.136  0.2699 -0.6110 -0.1095
 2135TIP3    H227897   5.930   1.394  17.267  2.1801  0.2754  0.1084
 2136TIP3   OH227898   5.603   0.474   3.923 -0.2961  0.3990 -0.7810
 2136TIP3    H127899   5.696   0.486   3.941  0.0776 -0.7387 -1.8183
 2136TIP3    H227900   5.596   0.385   3.889 -1.7421  0.5318 -0.9160
 2137TIP3   OH227901   2.563   2.409   1.246  0.6744  0.8357  0.6826
 2137TIP3    H127902   2.505   2.484   1.239  0.9367  1.0115  0.3654
 2137TIP3    H227903   2.524   2.355   1.315  1.2952  1.9740  1.9686
 2138TIP3   OH227904   0.009   0.962   4.735  0.1282  0.3441 -0.1089
 2138TIP3    H127905  -0.052   0.978   4.807 -0.5013 -0.4682 -0.4300
 2138TIP3    H227906   0.036   0.870   4.747  4.6746  1.7228  2.5123
 2139TIP3   OH227907   1.096   0.388   2.981 -0.0654 -0.2939  0.4016
 2139TIP3    H127908   1.065   0.470   3.021  1.7356 -0.0747  1.4490
 2139TIP3    H227909   1.070   0.396   2.889 -0.4384  1.1995  0.5959
 2140TIP3   OH227910   2.908   2.295  17.080 -0.0969 -0.9237 -0.1145
 2140TIP3    H127911   2.866   2.265  17.160 -0.2415 -0.3993  0.0095
 2140TIP3    H227912   3.002   2.295  17.101 -0.1887  0.0635  0.3588
 2141TIP3   OH227913   3.565   0.075   2.767  0.1174 -0.1697 -0.6216
 2141TIP3    H127914   3.479   0.100   2.732 -0.7848 -2.6405 -0.3737
 2141TIP3    H227915   3.613   0.157   2.773 -2.3607  1.3719 -0.3990
 2142TIP3   OH227916   5.310   4.278   0.924 -0.6882 -0.0556 -0.1418
 2142TIP3    H127917   5.340   4.361   0.888 -1.5712 -0.1936 -1.2272
 2142TIP3    H227918   5.325   4.214   0.854  1.7368 -1.2364  1.3023
 2143TIP3   OH227919   3.588   5.180   3.606 -0.3187  0.2461  0.2578
 2143TIP3    H127920   3.499   5.195   3.575 -0.7055  0.3479  1.3617
 2143TIP3    H227921   3.634   5.262   3.588 -0.2305 -0.0694 -1.0058
 2144TIP3   OH227922   2.119   1.521  15.714 -0.3640  0.3755  0.2046
 2144TIP3    H127923   2.111   1.431  15.745 -1.4894 -0.4415 -2.2141
 2144TIP3    H227924   2.029   1.555  15.715 -0.3495  0.5329 -1.3964
 2145TIP3   OH227925   6.426   3.161   1.040  0.2169  0.0437  0.6345
 2145TIP3    H127926   6.338   3.153   1.004  0.8156  0.5612 -1.0350
 2145TIP3    H227927   6.413   3.198   1.127 -1.1423  2.2358 -0.4118
 2146TIP3   OH227928   1.840   0.275  15.081 -0.1158 -0.5743  0.0900
 2146TIP3    H127929   1.924   0.229  15.074  0.3063  0.1054  0.6159
 2146TIP3    H227930   1.819   0.274  15.174 -0.2714 -0.0106  0.0681
 2147TIP3   OH227931   3.290   3.747   5.632 -0.0111 -0.6307  0.1768
 2147TIP3    H127932   3.294   3.814   5.564 -0.1790  1.3470  2.0295
 2147TIP3    H227933   3.382   3.726   5.650  0.0450 -0.8408 -0.3482
 2148TIP3   OH227934   2.906   0.473   5.948 -0.2072 -0.0556  0.1565
 2148TIP3    H127935   2.994   0.508   5.960 -0.3135  0.0394  0.6422
 2148TIP3    H227936   2.848   0.546   5.966 -0.4397 -0.5576  1.5016
 2149TIP3   OH227937   1.130   4.281  10.796 -0.6998 -0.5638 -0.1267
 2149TIP3    H127938   1.165   4.198  10.764 -1.4122 -0.5789 -0.9101
 2149TIP3    H227939   1.202   4.343  10.787 -0.3635 -0.9581 -0.1433
 2150TIP3   OH227940   3.812   3.028   0.833  0.8132  0.0283 -0.7012
 2150TIP3    H127941   3.815   3.115   0.872  0.1652  0.9828 -2.6402
 2150TIP3    H227942   3.859   3.037   0.750 -0.2782 -1.1597 -1.4835
 2151TIP3   OH227943   2.971   1.205   4.531 -0.0939  0.0891  0.5933
 2151TIP3    H127944   2.983   1.300   4.529 -0.1843  0.1039  0.7297
 2151TIP3    H227945   3.039   1.173   4.590 -0.2326  0.0965  0.7595
 2152TIP3   OH227946   3.749   1.103  13.922 -0.3541  0.2463  0.0637
 2152TIP3    H127947   3.657   1.116  13.945  0.5023  3.2592  2.5181
 2152TIP3    H227948   3.779   1.188  13.892  1.3454 -1.0512 -2.2702
 2153TIP3   OH227949   1.119   0.564   4.905 -0.2977 -0.1974  0.2160
 2153TIP3    H127950   1.141   0.644   4.857  1.5327 -0.7508  0.0157
 2153TIP3    H227951   1.102   0.499   4.836 -3.2638  0.2980  0.3570
 2154TIP3   OH227952   6.477   3.778  14.264 -0.2179 -0.5244  0.2722
 2154TIP3    H127953   6.530   3.856  14.253  0.9718 -1.3534 -0.1433
 2154TIP3    H227954   6.510   3.717  14.198  0.2364 -2.0606  1.8457
 2155TIP3   OH227955   2.423   0.343  16.967 -0.2802  0.9670  0.1312
 2155TIP3    H127956   2.368   0.276  17.008 -0.0590  0.9902  0.4710
 2155TIP3    H227957   2.400   0.424  17.014 -1.6868  1.4559 -1.2978
 2156TIP3   OH227958   3.322   3.970   1.336 -0.0741 -0.3421 -0.1857
 2156TIP3    H127959   3.397   3.920   1.302  0.0578 -0.2528 -0.0260
 2156TIP3    H227960   3.313   3.941   1.426  1.0222  1.0895  0.4207
 2157TIP3   OH227961   1.024   4.654  17.119  0.0141  0.3192 -0.2363
 2157TIP3    H127962   0.940   4.653  17.165 -0.6837 -0.3008 -1.4565
 2157TIP3    H227963   1.090   4.649  17.188 -0.9430  0.9177  0.7556
 2158TIP3   OH227964   4.059   5.041  11.769  0.0803 -0.6057  0.0631
 2158TIP3    H127965   4.063   5.102  11.843  1.9204  0.1429 -0.5941
 2158TIP3    H227966   4.058   5.097  11.692  2.4255 -1.3387 -0.5813
 2159TIP3   OH227967   3.075   0.241  14.314 -0.2855 -0.6606 -0.3006
 2159TIP3    H127968   2.980   0.242  14.308 -0.2353 -1.1218 -1.2866
 2159TIP3    H227969   3.095   0.158  14.358 -0.3692 -0.0825  0.8765
 2160TIP3   OH227970   3.233   6.383  11.468 -0.8154  0.1532 -0.0941
 2160TIP3    H127971   3.288   6.424  11.400  0.7888 -1.8651 -0.1141
 2160TIP3    H227972   3.173   6.452  11.495 -1.1109  1.2340 -3.1219
 2161TIP3   OH227973   6.320   3.281  10.905 -0.1866  0.1894  0.4128
 2161TIP3    H127974   6.309   3.339  10.830  1.5994  0.9820  0.7048
 2161TIP3    H227975   6.350   3.339  10.975  2.6561 -1.1391  0.4409
 2162TIP3   OH227976   5.776   4.247   1.894  0.2163  0.5106 -0.4254
 2162TIP3    H127977   5.780   4.245   1.990 -0.7245 -1.2792 -0.3779
 2162TIP3    H227978   5.851   4.195   1.865 -0.8951 -1.0900 -0.5508
 2163TIP3   OH227979   4.638   4.649  13.789 -0.0128  0.2667 -0.8428
 2163TIP3    H127980   4.556   4.687  13.820 -1.8349 -2.6945 -1.6372
 2163TIP3    H227981   4.706   4.694  13.839 -2.2477  1.2715  1.4800
 2164TIP3   OH227982   0.718   3.234  15.838  0.6077 -0.6051 -0.0058
 2164TIP3    H127983   0.803   3.194  15.855 -1.0599 -3.4245  2.5971
 2164TIP3    H227984   0.719   3.254  15.744  2.5486 -4.7020 -1.0541
 2165TIP3   OH227985   0.420   2.538  16.984 -0.2379 -0.4294 -0.6113
 2165TIP3    H127986   0.407   2.531  16.890 -1.3812  1.3794 -0.6346
 2165TIP3    H227987   0.337   2.511  17.022  0.0307 -0.6132 -0.1452
 2166TIP3   OH227988   5.682   2.593   3.891 -0.2007  0.3844 -0.2466
 2166TIP3    H127989   5.759   2.647   3.874 -1.2303  2.0476  0.1650
 2166TIP3    H227990   5.643   2.578   3.805 -1.2609  2.4704 -0.2124
 2167TIP3   OH227991   0.047   0.537   0.495  0.0908  0.2024  0.0607
 2167TIP3    H127992   0.096   0.588   0.559 -0.8464 -0.3885  1.2955
 2167TIP3    H227993   0.093   0.550   0.412  1.6945  0.4802  0.9743
 2168TIP3   OH227994   1.789   3.513   1.612  0.1669 -0.2831 -0.5688
 2168TIP3    H127995   1.855   3.543   1.549  1.0299 -1.1872 -0.1181
 2168TIP3    H227996   1.840   3.484   1.688 -0.7962 -0.3470  0.0655
 2169TIP3   OH227997   6.582   1.725  14.226 -0.0036  0.2919  0.0075
 2169TIP3    H127998   6.672   1.742  14.197 -0.3992  0.9862 -0.9112
 2169TIP3    H227999   6.529   1.752  14.151 -0.8198 -4.7265 -1.5454
 2170TIP3   OH228000   6.017   1.818  13.694 -0.0247 -0.0501 -0.1086
 2170TIP3    H128001   5.989   1.855  13.610  0.7642  0.0924 -0.3172
 2170TIP3    H228002   6.077   1.884  13.729 -0.0413 -0.2975  0.3815
 2171TIP3   OH228003   4.351   3.935  17.219 -0.0501  0.3847  0.0644
 2171TIP3    H128004   4.317   3.934  17.309  3.4197 -2.3850  1.5780
 2171TIP3    H228005   4.426   3.994  17.222  1.2775 -1.2079 -0.3975
 2172TIP3   OH228006   3.738   4.460   0.545 -0.2331 -0.0020  0.1432
 2172TIP3    H128007   3.649   4.472   0.511  0.9960  1.2054 -3.0002
 2172TIP3    H228008   3.733   4.489   0.636 -3.1194 -0.4618  0.2244
 2173TIP3   OH228009   1.955   3.376   2.924  0.3622  0.2521  0.4063
 2173TIP3    H128010   1.954   3.292   2.970  1.0035 -0.1886 -0.3453
 2173TIP3    H228011   2.048   3.389   2.901  0.1889  0.8944  0.0521
 2174TIP3   OH228012   3.681   5.679   6.057 -0.2144  0.2803 -0.1084
 2174TIP3    H128013   3.615   5.610   6.047  0.4262 -0.3393 -0.1362
 2174TIP3    H228014   3.678   5.702   6.150 -1.1833  0.9885 -0.2999
 2175TIP3   OH228015   2.053   0.728  17.067  0.2996 -0.3168  0.3439
 2175TIP3    H128016   1.985   0.782  17.108  0.6988 -0.3121  1.0213
 2175TIP3    H228017   2.135   0.770  17.093  0.5548 -0.0634 -0.8397
 2176TIP3   OH228018   3.993   6.739  14.734 -0.6798 -0.0298 -0.3977
 2176TIP3    H128019   3.989   6.685  14.813 -1.5396 -0.7000 -0.8873
 2176TIP3    H228020   3.930   6.809  14.749 -0.3470  0.2334 -0.2125
 2177TIP3   OH228021   2.529   2.297  11.093 -0.4393  0.3192 -0.2002
 2177TIP3    H128022   2.463   2.282  11.025 -0.1425  2.2439 -0.9842
 2177TIP3    H228023   2.607   2.251  11.063 -0.2292  1.3699 -1.3463
 2178TIP3   OH228024   2.694   2.058  15.181 -0.1604 -0.2089  0.0899
 2178TIP3    H128025   2.742   2.070  15.263  2.0733  0.3156 -1.2109
 2178TIP3    H228026   2.748   2.101  15.115 -1.6039 -1.1085 -1.7709
 2179TIP3   OH228027   1.791   4.228   4.543  0.2576  0.4176 -0.0239
 2179TIP3    H128028   1.759   4.141   4.520 -0.2031  0.5584  0.0832
 2179TIP3    H228029   1.763   4.284   4.471  1.4409  0.2973 -0.6113
 2180TIP3   OH228030   0.682   0.601   2.094  0.2208 -0.3943 -0.3848
 2180TIP3    H128031   0.629   0.659   2.148 -0.8172 -0.2494 -1.5179
 2180TIP3    H228032   0.772   0.628   2.111 -0.1035 -0.0963  0.9459
 2181TIP3   OH228033   6.458   4.069   2.826 -0.0689  0.2021  0.2582
 2181TIP3    H128034   6.412   4.119   2.759 -0.3707  0.5522  0.7152
 2181TIP3    H228035   6.496   3.995   2.780 -1.6147 -0.4426 -0.0544
 2182TIP3   OH228036   1.905   4.497  11.294 -0.5017 -0.0928  0.5643
 2182TIP3    H128037   1.869   4.576  11.336 -0.5213 -0.2408  0.8317
 2182TIP3    H228038   1.983   4.528  11.247  0.9028 -0.2800  2.6273
 2183TIP3   OH228039   0.803   1.704  11.476  0.2737  0.1420 -0.2128
 2183TIP3    H128040   0.885   1.708  11.525  0.3651 -0.7118 -0.2907
 2183TIP3    H228041   0.824   1.741  11.390  0.1990  1.3173  0.2475
 2184TIP3   OH228042   6.442   1.636   1.452 -0.7440  0.2417 -0.2610
 2184TIP3    H128043   6.500   1.701   1.412 -0.1140  0.0325  0.2826
 2184TIP3    H228044   6.354   1.666   1.431 -0.5340 -1.0412 -3.8003
 2185TIP3   OH228045   6.530   2.306   0.176 -0.4799 -0.3052 -0.1444
 2185TIP3    H128046   6.555   2.370   0.109  0.8768  0.9108  1.4550
 2185TIP3    H228047   6.513   2.358   0.254 -1.6234 -1.7315  0.6127
 2186TIP3   OH228048   2.073   3.807   4.253  0.1031  0.5016 -0.4176
 2186TIP3    H128049   2.042   3.759   4.329  1.1315  2.9596  1.6884
 2186TIP3    H228050   2.167   3.791   4.251 -0.1670 -1.4035 -2.6770
 2187TIP3   OH228051   4.055   4.131   4.834  0.1243  0.5077  0.0501
 2187TIP3    H128052   3.965   4.125   4.865 -0.2524  0.6358 -0.9704
 2187TIP3    H228053   4.098   4.192   4.894 -0.7440  1.2427 -0.0587
 2188TIP3   OH228054   5.642   3.083  17.255 -0.0478  0.0654 -0.3899
 2188TIP3    H128055   5.623   3.099  17.347  1.5543 -0.9830  0.1653
 2188TIP3    H228056   5.566   3.034  17.223  0.3755 -1.6036  1.0044
 2189TIP3   OH228057   0.195   1.995   5.822  0.4342 -0.1562 -0.2640
 2189TIP3    H128058   0.247   1.986   5.902 -0.2875  0.1103  0.2435
 2189TIP3    H228059   0.259   2.022   5.755  0.9128  0.3977  0.4047
 2190TIP3   OH228060   6.383   1.394  14.791 -0.1456  0.1939 -0.3697
 2190TIP3    H128061   6.307   1.406  14.733 -0.6042  3.2529  0.6905
 2190TIP3    H228062   6.445   1.462  14.764  1.2299 -0.7300  0.3548
 2191TIP3   OH228063   1.199   6.460  13.943 -0.3373  0.3211  0.0890
 2191TIP3    H128064   1.242   6.457  14.029  0.3591  1.7112 -0.1782
 2191TIP3    H228065   1.271   6.454  13.881 -0.9186 -1.8522 -0.4673
 2192TIP3   OH228066   4.437   1.302   1.414 -1.0622  0.2379 -0.5116
 2192TIP3    H128067   4.454   1.212   1.442 -1.6937  0.3276  0.2012
 2192TIP3    H228068   4.344   1.302   1.391 -1.1056  0.7438 -0.3442
 2193TIP3   OH228069   1.442   4.113  13.193 -0.3789  0.2505  0.6007
 2193TIP3    H128070   1.363   4.105  13.246 -1.3415  3.3650 -0.1409
 2193TIP3    H228071   1.482   4.196  13.221 -0.9017  2.0367 -3.3150
 2194TIP3   OH228072   1.344   6.745   4.294 -0.5619  0.0384  0.5011
 2194TIP3    H128073   1.434   6.749   4.262  0.0330  1.4581  2.2310
 2194TIP3    H228074   1.353   6.731   4.389 -2.2227 -2.1548  0.4217
 2195TIP3   OH228075   0.767   2.142   1.910  0.3725  0.6143 -0.1209
 2195TIP3    H128076   0.810   2.167   1.828 -0.0295 -1.1458 -0.9224
 2195TIP3    H228077   0.839   2.122   1.969  0.6673  0.5647 -0.4897
 2196TIP3   OH228078   2.995   2.158  15.393  0.3679  0.7251  0.2261
 2196TIP3    H128079   2.907   2.159  15.430 -0.0760  2.1975 -0.7762
 2196TIP3    H228080   2.996   2.083  15.334 -0.5693  1.2973 -0.5349
 2197TIP3   OH228081   3.703   6.721  14.487  0.4659 -0.5977  0.1234
 2197TIP3    H128082   3.736   6.803  14.448 -0.7749  0.6039  1.5072
 2197TIP3    H228083   3.614   6.742  14.514  1.5753 -0.8524  4.7863
 2198TIP3   OH228084   6.509   1.511   1.689  0.3044  0.2012 -0.1888
 2198TIP3    H128085   6.444   1.561   1.737 -0.5920 -0.1228 -1.0382
 2198TIP3    H228086   6.500   1.540   1.598  0.6935 -0.5224 -0.4729
 2199TIP3   OH228087   1.785   2.386   3.872 -0.3061 -0.1839  0.3349
 2199TIP3    H128088   1.823   2.470   3.848 -0.0847 -0.1046  0.9421
 2199TIP3    H228089   1.860   2.327   3.881 -0.3450 -0.1127  1.2027
 2200TIP3   OH228090   0.625   1.960  13.421 -0.1189 -0.1950 -0.5251
 2200TIP3    H128091   0.617   2.037  13.366  0.6707 -0.8746 -1.6252
 2200TIP3    H228092   0.617   1.886  13.361  1.8858 -0.9609  0.0683
 2201TIP3   OH228093   0.927   1.322  16.521 -0.0605  0.1570  0.0058
 2201TIP3    H128094   0.836   1.300  16.543  0.0250 -2.3006 -1.6446
 2201TIP3    H228095   0.978   1.292  16.595 -0.3748 -1.1183 -0.2772
 2202TIP3   OH228096   6.727   0.201   5.106  0.6484  0.3035  0.2881
 2202TIP3    H128097   6.735   0.292   5.078  0.9377 -0.0283 -0.7725
 2202TIP3    H228098   6.633   0.188   5.119  0.5073  0.5101 -0.4590
 2203TIP3   OH228099   1.300   2.072   4.822  0.1854 -0.1688 -0.4709
 2203TIP3    H128100   1.365   2.119   4.770  2.4335 -0.3792  1.9441
 2203TIP3    H228101   1.335   1.983   4.831 -0.6697 -0.4314  0.4980
 2204TIP3   OH228102   0.341   3.705   0.614 -0.2546  0.1746  0.3767
 2204TIP3    H128103   0.304   3.754   0.686 -0.1729 -1.0959  1.3222
 2204TIP3    H228104   0.338   3.765   0.539 -2.1689  0.8532  0.9423
 2205TIP3   OH228105   4.308   3.544   5.268 -0.0879  0.9458 -0.0031
 2205TIP3    H128106   4.345   3.460   5.238 -1.6150  0.3292 -0.2379
 2205TIP3    H228107   4.267   3.524   5.351  0.6446  1.7766  0.5807
 2206TIP3   OH228108   2.586   1.204  15.666  0.5404 -0.0019  0.2729
 2206TIP3    H128109   2.599   1.150  15.587 -1.7750  0.4344 -0.5001
 2206TIP3    H228110   2.526   1.152  15.719  0.0711  0.8104  0.5517
 2207TIP3   OH228111   0.144   3.875   2.113 -0.1667 -0.0819  0.3732
 2207TIP3    H128112   0.155   3.920   2.197 -0.7372 -1.7297  1.3707
 2207TIP3    H228113   0.067   3.916   2.074 -0.7689 -0.2706  1.3303
 2208TIP3   OH228114   4.925   2.730  13.332 -0.2417 -0.1283  0.3490
 2208TIP3    H128115   4.892   2.736  13.421  1.1155 -2.0640  1.0744
 2208TIP3    H228116   4.978   2.809  13.320 -1.1684  0.5883  0.9234
 2209TIP3   OH228117   5.749   6.235  14.250  0.0697  0.1332  0.1699
 2209TIP3    H128118   5.760   6.252  14.343 -0.7161 -0.8220  0.4544
 2209TIP3    H228119   5.772   6.143  14.239  0.2727  0.2674 -0.6060
 2210TIP3   OH228120   2.092   5.577   1.769 -0.0523 -0.3810  0.4050
 2210TIP3    H128121   2.138   5.497   1.741  0.2207 -0.8637  2.1085
 2210TIP3    H228122   2.162   5.636   1.796 -0.3336 -0.6749  1.8809
 2211TIP3   OH228123   0.685   6.813   3.409  0.6794  0.5180 -0.1997
 2211TIP3    H128124   0.703   6.741   3.470  0.9242 -0.2598 -1.1641
 2211TIP3    H228125   0.591   6.806   3.391  0.4881  1.1133  0.5281
 2212TIP3   OH228126   5.876   5.245   5.539 -0.4583  0.6195 -0.5105
 2212TIP3    H128127   5.859   5.299   5.616  0.5778 -1.3354  1.1926
 2212TIP3    H228128   5.789   5.220   5.509 -0.8835  0.8817  0.4461
 2213TIP3   OH228129   1.624   3.921   5.332 -0.0036  0.1822 -0.7397
 2213TIP3    H128130   1.588   4.008   5.353 -0.1361 -0.4317  2.0488
 2213TIP3    H228131   1.556   3.860   5.360  2.3373 -0.9629  3.3533
 2214TIP3   OH228132   3.127   2.552   5.362  0.5601  0.9006 -0.5571
 2214TIP3    H128133   3.200   2.596   5.318  1.6680 -0.9110 -0.6295
 2214TIP3    H228134   3.126   2.464   5.325 -0.6030  0.3634  0.6640
 2215TIP3   OH228135   4.055   0.981  16.530  0.8543  0.1646 -0.1573
 2215TIP3    H128136   4.010   1.048  16.581  1.6436  0.7686 -0.2436
 2215TIP3    H228137   4.144   0.980  16.565 -0.0068 -3.5209  2.5670
 2216TIP3   OH228138   2.359   6.181  14.883 -0.8489 -0.2404  0.3251
 2216TIP3    H128139   2.387   6.272  14.898 -0.6861 -0.4698  1.5472
 2216TIP3    H228140   2.395   6.133  14.958  0.2669 -1.5902 -1.0076
 2217TIP3   OH228141   6.356   3.069  12.283  0.2165 -0.0916 -0.2336
 2217TIP3    H128142   6.383   3.157  12.255 -0.5768  0.4366  0.6197
 2217TIP3    H228143   6.306   3.035  12.209 -0.5381  0.6798 -0.0926
 2218TIP3   OH228144   0.255   6.072   0.257 -0.1985 -0.7899 -0.8827
 2218TIP3    H128145   0.238   6.145   0.317  0.0467 -1.3049 -0.1718
 2218TIP3    H228146   0.279   6.114   0.174  0.8462 -0.0562 -0.2366
 2219TIP3   OH228147   4.104   6.310   1.057 -0.3521 -0.4647 -0.0671
 2219TIP3    H128148   4.097   6.252   0.981 -1.8818  1.7268 -1.7205
 2219TIP3    H228149   4.014   6.319   1.089  0.1175 -0.4440  1.3230
 2220TIP3   OH228150   2.424   1.753  15.693 -0.3555 -0.5376  0.2320
 2220TIP3    H128151   2.350   1.811  15.677 -0.3507  0.0391  2.0008
 2220TIP3    H228152   2.490   1.810  15.733  0.7893 -1.1822 -0.6643
 2221TIP3   OH228153   0.995   4.606   5.970  0.4527  0.4745  0.0015
 2221TIP3    H128154   1.010   4.639   6.059 -0.0223  0.4849  0.0839
 2221TIP3    H228155   0.900   4.588   5.968  0.6652 -0.7219 -0.0876
 2222TIP3   OH228156   4.027   2.357   3.454 -0.2416 -0.7073 -0.4252
 2222TIP3    H128157   4.053   2.382   3.542  1.8693 -1.9250 -0.6283
 2222TIP3    H228158   4.029   2.439   3.404 -1.3912 -0.0246  0.6025
 2223TIP3   OH228159   5.034   6.462  12.624 -0.4057 -0.1736 -0.1017
 2223TIP3    H128160   5.017   6.554  12.605  0.5235  0.5143  1.9961
 2223TIP3    H228161   5.093   6.433  12.555 -0.0786  1.0600 -0.3553
 2224TIP3   OH228162   5.778   6.154   3.777  0.6886 -0.1924 -0.3019
 2224TIP3    H128163   5.748   6.231   3.826 -0.7052 -1.8134  1.5049
 2224TIP3    H228164   5.710   6.141   3.710  0.3520 -0.4784  0.0916
 2225TIP3   OH228165   0.777   3.580  11.700  0.8521  0.2323 -0.7535
 2225TIP3    H128166   0.707   3.530  11.742  1.0049  0.8166  0.2230
 2225TIP3    H228167   0.778   3.549  11.609 -0.4535 -0.0144 -0.6965
 2226TIP3   OH228168   4.023   4.252   1.957  0.0164 -0.2093 -0.0211
 2226TIP3    H128169   3.941   4.204   1.960 -0.2408  0.0996 -1.4051
 2226TIP3    H228170   4.063   4.238   2.043 -1.5418 -0.2376  0.7276
 2227TIP3   OH228171   6.022   3.434   6.099  0.1035 -0.5903 -0.1600
 2227TIP3    H128172   6.098   3.477   6.139  0.6669 -0.7957 -0.9850
 2227TIP3    H228173   6.059   3.380   6.029 -0.8520 -0.2534 -0.9464
 2228TIP3   OH228174   3.921   4.888  13.507  0.5461  0.1572 -0.3936
 2228TIP3    H128175   4.008   4.858  13.483  0.8985 -1.0431  2.0859
 2228TIP3    H228176   3.861   4.828  13.462  1.0998 -0.9273  0.2891
 2229TIP3   OH228177   1.743   3.091   2.306 -0.6097  0.1870  0.4704
 2229TIP3    H128178   1.721   3.023   2.243 -1.4708 -0.5206  1.4943
 2229TIP3    H228179   1.696   3.168   2.277  0.0306  0.2325 -0.4658
 2230TIP3   OH228180   1.427   0.922   0.147  0.2396  0.4918 -0.3279
 2230TIP3    H128181   1.352   0.903   0.089  0.7311 -4.5837  0.2548
 2230TIP3    H228182   1.387   0.955   0.227 -1.0610  0.9390 -1.1263
 2231TIP3   OH228183   4.750   3.738   3.406 -0.1977 -0.4153 -0.3833
 2231TIP3    H128184   4.732   3.832   3.407 -1.5919 -0.5485 -3.1768
 2231TIP3    H228185   4.760   3.714   3.498 -1.6078  2.1392  0.5193
 2232TIP3   OH228186   5.642   5.362   1.922 -0.0705  0.1183 -0.2177
 2232TIP3    H128187   5.654   5.427   1.990  1.1340  1.4263 -1.6003
 2232TIP3    H228188   5.697   5.288   1.948  2.2690  1.5486 -0.8703
 2233TIP3   OH228189   4.454   5.428   3.135  0.0223 -0.1000  0.2627
 2233TIP3    H128190   4.427   5.339   3.158 -1.2560 -0.3202 -1.8527
 2233TIP3    H228191   4.457   5.429   3.039  1.7862  1.6528  0.2503
 2234TIP3   OH228192   3.038   5.020  17.002  0.3597 -0.0188 -0.1025
 2234TIP3    H128193   2.949   5.043  17.026  0.7458  0.2775  1.1088
 2234TIP3    H228194   3.044   4.926  17.016 -0.0198 -0.2073 -1.0980
 2235TIP3   OH228195   0.652   0.946   5.174  0.3337 -0.5568  0.0568
 2235TIP3    H128196   0.729   0.888   5.179  0.1729 -0.6880  1.1508
 2235TIP3    H228197   0.601   0.910   5.101  0.9094 -0.9728 -0.1515
 2236TIP3   OH228198   3.022   4.879  14.233  0.2502 -0.2491 -0.1125
 2236TIP3    H128199   3.110   4.890  14.270 -0.0630 -0.0945  0.6010
 2236TIP3    H228200   3.036   4.829  14.153  1.2682  2.0011 -1.4021
 2237TIP3   OH228201   0.656   6.713  16.106 -0.7202  0.2964  0.0774
 2237TIP3    H128202   0.577   6.702  16.159 -0.1388  1.9549  1.4023
 2237TIP3    H228203   0.635   6.785  16.047 -1.2351 -1.3080 -1.7964
 2238TIP3   OH228204   3.362   1.754   2.716 -0.1185  0.1206  0.4120
 2238TIP3    H128205   3.441   1.741   2.768 -0.5768 -1.4961  0.7562
 2238TIP3    H228206   3.305   1.806   2.772  0.4254  0.7148  0.4275
 2239TIP3   OH228207   3.097   0.635   2.043  0.2612 -0.4082 -0.1619
 2239TIP3    H128208   3.152   0.564   2.076  0.0882 -0.9114 -0.9329
 2239TIP3    H228209   3.139   0.663   1.961 -1.6521 -2.1514 -1.8420
 2240TIP3   OH228210   3.917   2.634  17.164  0.2224 -0.2568 -0.5107
 2240TIP3    H128211   3.860   2.561  17.188 -0.0681  0.2358  0.3229
 2240TIP3    H228212   3.931   2.623  17.070  0.4485 -1.5721 -0.3553
 2241TIP3   OH228213   2.622   5.191  13.860  0.0009 -0.0374  0.5620
 2241TIP3    H128214   2.571   5.192  13.940 -0.6712 -0.9658  0.1684
 2241TIP3    H228215   2.709   5.220  13.886 -0.9966  2.7919  1.0245
 2242TIP3   OH228216   3.388   5.075   2.120  0.2198 -0.5243 -0.2265
 2242TIP3    H128217   3.341   4.993   2.134 -0.4067  0.0508  1.2317
 2242TIP3    H228218   3.385   5.119   2.205  0.4212  1.0731 -1.0098
 2243TIP3   OH228219   5.845   5.274  15.710 -0.3913  0.0244  0.1041
 2243TIP3    H128220   5.912   5.327  15.754 -1.0706  0.4884  0.5953
 2243TIP3    H228221   5.797   5.337  15.656  0.1887 -0.4783 -1.0247
 2244TIP3   OH228222   6.371   5.626  16.780  0.1002  0.2107 -0.4633
 2244TIP3    H128223   6.440   5.590  16.835 -1.4668  0.7477  2.0154
 2244TIP3    H228224   6.335   5.550  16.734  0.5022 -0.5122  0.3830
 2245TIP3   OH228225   4.738   3.879  15.273  0.3968 -0.4443 -0.1985
 2245TIP3    H128226   4.743   3.797  15.321  0.0401  0.1425  0.8703
 2245TIP3    H228227   4.676   3.861  15.202 -0.0099 -0.9725  0.2821
 2246TIP3   OH228228   4.560   1.728  10.421  0.4399 -0.1686 -0.7819
 2246TIP3    H128229   4.621   1.782  10.371 -0.8529  1.3524 -0.8081
 2246TIP3    H228230   4.536   1.782  10.496  0.4964 -1.4597  0.2052
 2247TIP3   OH228231   1.578   0.164  11.622 -0.3684  0.5723  0.2095
 2247TIP3    H128232   1.497   0.215  11.622 -0.1419  1.0867 -2.3740
 2247TIP3    H228233   1.550   0.073  11.617 -0.8183  0.7451 -0.5903
 2248TIP3   OH228234   4.302   0.510   4.860 -0.2003  0.6470  0.4788
 2248TIP3    H128235   4.387   0.468   4.845  0.3286  1.2400  1.7294
 2248TIP3    H228236   4.258   0.505   4.775  0.9385  0.0118 -0.0942
 2249TIP3   OH228237   4.756   0.095   0.767  0.2354 -0.0685  0.9366
 2249TIP3    H128238   4.778   0.102   0.860 -0.2825 -1.1360  1.1614
 2249TIP3    H228239   4.717   0.179   0.744  1.3554  0.5923  1.4014
 2250TIP3   OH228240   1.479   4.767   5.698  0.0076  0.5465 -0.2518
 2250TIP3    H128241   1.451   4.770   5.790  0.8504  0.6400  0.0132
 2250TIP3    H228242   1.426   4.834   5.655  0.4587  1.3667  0.4230
 2251TIP3   OH228243   2.035   5.388   4.794 -0.3101  0.5711 -0.2980
 2251TIP3    H128244   1.951   5.343   4.788 -1.1056  2.0048 -0.3135
 2251TIP3    H228245   2.094   5.324   4.835 -1.0924 -0.8393 -1.2928
 2252TIP3   OH228246   0.157   1.988   1.930  0.0268 -0.7686 -0.5364
 2252TIP3    H128247   0.206   1.998   1.849  0.6917  1.8896  0.1018
 2252TIP3    H228248   0.066   1.987   1.903  0.1909  1.0561 -1.3056
 2253TIP3   OH228249   2.799   3.807  15.136  0.3665  0.0752  0.0869
 2253TIP3    H128250   2.715   3.836  15.172 -0.1450  0.5999 -1.4794
 2253TIP3    H228251   2.864   3.861  15.181 -0.3293  1.4139 -0.4693
 2254TIP3   OH228252   2.562   6.653   2.579  0.5662 -0.3569  0.0181
 2254TIP3    H128253   2.647   6.612   2.562  1.2626  0.9915  0.0653
 2254TIP3    H228254   2.579   6.711   2.654 -0.7911 -1.2174  1.0256
 2255TIP3   OH228255   6.486   2.543  14.384 -0.4399  0.4785 -0.1275
 2255TIP3    H128256   6.461   2.451  14.370  0.3620  0.3777 -1.0632
 2255TIP3    H228257   6.522   2.544  14.473 -0.4982 -0.1116 -0.0893
 2256TIP3   OH228258   3.167   5.733   3.563 -0.5699  0.0980  0.1762
 2256TIP3    H128259   3.210   5.682   3.631 -0.8002 -1.3030 -0.6858
 2256TIP3    H228260   3.220   5.717   3.484 -1.7540 -0.3982 -0.5461
 2257TIP3   OH228261   6.569   1.638   0.885  0.4563  0.1355  0.1166
 2257TIP3    H128262   6.610   1.591   0.958 -1.6272  0.7146  1.7341
 2257TIP3    H228263   6.619   1.720   0.880  0.5222  0.1680  1.0187
 2258TIP3   OH228264   3.008   5.456  11.319 -0.6130 -0.2835 -0.6231
 2258TIP3    H128265   3.093   5.500  11.314 -1.0201  0.3810 -1.7428
 2258TIP3    H228266   2.949   5.508  11.266 -2.2908  0.4588  1.7704
 2259TIP3   OH228267   5.425   2.944  17.148 -0.0335 -0.1910 -0.5055
 2259TIP3    H128268   5.364   3.012  17.122 -0.4802 -0.6051 -0.5595
 2259TIP3    H228269   5.372   2.881  17.196  0.5305 -0.0883  0.2789
 2260TIP3   OH228270   3.285   2.569  11.905  0.6154 -0.2519 -0.1195
 2260TIP3    H128271   3.250   2.485  11.934  0.8269  0.3554  2.0534
 2260TIP3    H228272   3.229   2.635  11.946  0.7425  0.7093 -1.4010
 2261TIP3   OH228273   3.323   2.637   2.484  0.4641 -0.5440  0.2834
 2261TIP3    H128274   3.306   2.548   2.514  0.6006 -0.2621  1.2100
 2261TIP3    H228275   3.418   2.643   2.480  0.5493  0.2573  2.4325
 2262TIP3   OH228276   5.757   3.189   1.893  0.2128  0.1736 -0.4500
 2262TIP3    H128277   5.804   3.189   1.976 -1.1224 -0.7461  0.3557
 2262TIP3    H228278   5.679   3.242   1.909  0.1986  0.4211 -1.2878
 2263TIP3   OH228279   5.425   6.570  12.754 -0.1056  0.1198 -0.2011
 2263TIP3    H128280   5.393   6.507  12.690  1.7064 -1.4362  0.3139
 2263TIP3    H228281   5.418   6.655  12.711  0.4528 -0.8169 -2.2361
 2264TIP3   OH228282   5.166   6.004  16.258 -0.2880 -0.4621 -0.4570
 2264TIP3    H128283   5.236   6.028  16.197  1.3064  1.2093  1.8492
 2264TIP3    H228284   5.190   5.916  16.288  0.7364 -0.0123  0.1101
 2265TIP3   OH228285   3.522   3.060   3.328 -0.4294  0.0773  0.2385
 2265TIP3    H128286   3.616   3.067   3.312 -0.3624 -1.2091 -0.0531
 2265TIP3    H228287   3.483   3.121   3.266  0.1855  0.2925  0.0504
 2266TIP3   OH228288   1.729   3.169   4.251 -0.1480 -0.3997  0.6987
 2266TIP3    H128289   1.670   3.094   4.254  1.5165 -2.0177 -2.1968
 2266TIP3    H228290   1.688   3.229   4.188  0.4674 -0.8340 -0.1458
 2267TIP3   OH228291   0.600   6.224   4.924 -0.2402 -0.5150  0.6701
 2267TIP3    H128292   0.600   6.192   5.014 -2.0619  0.1631  0.9469
 2267TIP3    H228293   0.653   6.304   4.927  0.7377 -1.1450  0.8478
 2268TIP3   OH228294   2.343   0.996  12.175 -0.0205  0.2236  0.5272
 2268TIP3    H128295   2.316   1.044  12.096 -2.0151  0.6716  1.4168
 2268TIP3    H228296   2.425   1.038  12.201 -0.5818  1.7205  0.0417
 2269TIP3   OH228297   0.522   6.114  13.946  0.4755 -0.0712  0.6254
 2269TIP3    H128298   0.559   6.035  13.985  0.6423 -0.2193  0.1695
 2269TIP3    H228299   0.584   6.184  13.969  1.2048 -0.3674 -0.3851
 2270TIP3   OH228300   3.803   5.037   3.689 -0.4787 -0.1976  0.4538
 2270TIP3    H128301   3.801   4.943   3.670  0.9756 -0.8360  2.9151
 2270TIP3    H228302   3.714   5.067   3.672 -0.8736 -1.9316 -0.7676
 2271TIP3   OH228303   0.607   3.815  12.185  0.0127 -0.0227 -0.1239
 2271TIP3    H128304   0.585   3.812  12.278 -0.5277 -0.9536 -0.2616
 2271TIP3    H228305   0.703   3.812  12.182  0.0131 -1.1576  0.3966
 2272TIP3   OH228306   6.406   1.365   2.685  0.2536  1.1396  0.1556
 2272TIP3    H128307   6.340   1.358   2.754  0.4880  0.7757  0.3472
 2272TIP3    H228308   6.489   1.367   2.732  0.3778  1.6850 -0.0803
 2273TIP3   OH228309   0.736   2.992   5.747  0.9584 -0.5032  0.0827
 2273TIP3    H128310   0.729   2.989   5.843 -1.7209  2.3506  0.1604
 2273TIP3    H228311   0.679   2.921   5.717 -0.4828  0.3302  0.7123
 2274TIP3   OH228312   0.719   5.917  13.832 -0.3136  0.2653  0.1512
 2274TIP3    H128313   0.702   5.832  13.871 -1.7508  1.1799  1.6128
 2274TIP3    H228314   0.717   5.900  13.737  3.0334 -1.9432  0.3156
 2275TIP3   OH228315   0.289   4.719  14.445  0.0144  0.2490 -0.3542
 2275TIP3    H128316   0.269   4.631  14.413  0.1426  0.2296 -0.3805
 2275TIP3    H228317   0.359   4.751  14.388 -1.1592  1.0232 -1.4150
 2276TIP3   OH228318   1.618   1.567   3.181 -0.2031 -0.7550  0.4585
 2276TIP3    H128319   1.614   1.538   3.273 -1.9359 -1.0998  0.3165
 2276TIP3    H228320   1.561   1.644   3.179 -0.4379 -0.9446 -0.3882
 2277TIP3   OH228321   0.167   4.746  11.582  0.3104 -0.0359 -0.1804
 2277TIP3    H128322   0.072   4.756  11.577  0.2902 -0.2065 -0.1171
 2277TIP3    H228323   0.182   4.697  11.662  0.4925  0.5889  0.1756
 2278TIP3   OH228324   3.154   4.610   1.158  0.0517  0.5345 -0.0547
 2278TIP3    H128325   3.091   4.572   1.097 -0.6946  1.3192  0.2167
 2278TIP3    H228326   3.189   4.686   1.112  2.2240 -0.9297 -0.9745
 2279TIP3   OH228327   6.328   4.669  14.799  0.2056  0.0106  0.1799
 2279TIP3    H128328   6.241   4.630  14.810 -0.7564  0.9681 -3.0162
 2279TIP3    H228329   6.373   4.611  14.738  1.2243  0.4113  0.5335
 2280TIP3   OH228330   1.272   4.562  10.804  0.2771  0.3387  0.1311
 2280TIP3    H128331   1.295   4.620  10.731  0.2498  1.0433  0.6723
 2280TIP3    H228332   1.196   4.604  10.845 -0.5117 -0.7191 -0.1986
 2281TIP3   OH228333   5.011   5.710   4.128 -0.1684 -0.2260 -0.5974
 2281TIP3    H128334   5.051   5.765   4.061 -0.3069 -1.6230 -1.8600
 2281TIP3    H228335   4.924   5.747   4.139 -0.2477 -0.1531 -1.3972
 2282TIP3   OH228336   4.633   4.848   3.090  0.0191 -0.5448 -0.0575
 2282TIP3    H128337   4.560   4.805   3.135  0.0787 -1.0230 -0.3971
 2282TIP3    H228338   4.711   4.809   3.129  0.0901 -0.1007  0.2415
 2283TIP3   OH228339   2.700   3.644  15.493 -0.0447  0.7156 -0.1584
 2283TIP3    H128340   2.698   3.654  15.589 -1.5312 -0.1822 -0.0563
 2283TIP3    H228341   2.783   3.684  15.466  1.6380 -1.1921  1.7638
 2284TIP3   OH228342   0.180   2.007   4.843  0.4742  0.1445  0.2123
 2284TIP3    H128343   0.184   2.045   4.931  1.0193 -0.5694  0.5111
 2284TIP3    H228344   0.087   2.005   4.822  0.2384 -0.6066  1.2035
 2285TIP3   OH228345   0.891   4.438  12.313  0.5691  0.1453  0.1669
 2285TIP3    H128346   0.814   4.487  12.341  0.9138  1.1227 -0.5622
 2285TIP3    H228347   0.953   4.446  12.386  0.4857  0.4721  0.2012
 2286TIP3   OH228348   4.371   0.495   4.057 -0.1760  0.2872 -0.2215
 2286TIP3    H128349   4.416   0.488   4.141 -0.3679 -0.2395 -0.1591
 2286TIP3    H228350   4.441   0.513   3.994  0.1486 -0.6407 -0.1415
 2287TIP3   OH228351   6.142   0.370  11.735 -0.6149  0.3130  0.1298
 2287TIP3    H128352   6.187   0.453  11.748  0.5472 -0.1670 -0.6132
 2287TIP3    H228353   6.212   0.307  11.719 -1.4650 -0.8357  0.7595
 2288TIP3   OH228354   2.040   0.236   4.131  0.7275 -0.1896  0.0085
 2288TIP3    H128355   1.973   0.218   4.196 -0.3346  1.1355 -0.6719
 2288TIP3    H228356   2.013   0.187   4.054 -0.5936  1.8233 -0.9002
 2289TIP3   OH228357   5.938   0.997  14.941  0.1458 -0.0196  0.0647
 2289TIP3    H128358   5.977   1.075  14.901  0.1274 -0.1559 -0.2241
 2289TIP3    H228359   6.012   0.950  14.979  0.4365 -0.8142 -1.3914
 2290TIP3   OH228360   5.368   1.652  16.167 -0.1109 -0.6503 -0.1201
 2290TIP3    H128361   5.355   1.685  16.079 -0.6073  0.4013  0.3268
 2290TIP3    H228362   5.395   1.561  16.156 -2.8486 -1.4168 -1.2638
 2291TIP3   OH228363   2.748   4.070  12.970  0.1875 -0.4838  0.8590
 2291TIP3    H128364   2.794   4.131  13.027 -0.1935  1.0566 -0.4092
 2291TIP3    H228365   2.813   4.043  12.906  0.2244 -1.0225  1.1225
 2292TIP3   OH228366   0.973   5.100  14.292 -0.3041  0.0616  0.3743
 2292TIP3    H128367   1.019   5.016  14.278 -0.4332  0.1152 -0.4151
 2292TIP3    H228368   1.037   5.154  14.338 -0.4809 -0.7143  1.5882
 2293TIP3   OH228369   1.425   5.086   4.617  0.6139  0.2831  0.0769
 2293TIP3    H128370   1.458   5.047   4.536  2.1010  0.6074  0.5014
 2293TIP3    H228371   1.340   5.123   4.592  0.7912 -0.1091 -1.1934
 2294TIP3   OH228372   1.794   4.716   5.748  0.1016  0.0950  0.2155
 2294TIP3    H128373   1.722   4.680   5.696 -0.9158 -0.3854  1.9077
 2294TIP3    H228374   1.798   4.808   5.722  0.6225 -0.4443 -1.7957
 2295TIP3   OH228375   3.188   3.989  16.244  0.2167  0.1869  0.2852
 2295TIP3    H128376   3.196   3.982  16.339 -1.5788  0.0206  0.4566
 2295TIP3    H228377   3.099   3.960  16.225  0.7367 -0.3681 -1.5240
 2296TIP3   OH228378   2.917   0.196  16.697  0.0230  0.2021  0.3521
 2296TIP3    H128379   2.909   0.198  16.602  0.5426  0.8457  0.3192
 2296TIP3    H228380   2.923   0.103  16.718  2.5856  0.1132 -0.4891
 2297TIP3   OH228381   3.582   0.928  15.410 -0.3760 -0.1520 -0.0659
 2297TIP3    H128382   3.591   0.968  15.496 -0.1616 -0.0750 -0.1250
 2297TIP3    H228383   3.531   0.849  15.426  0.4772 -0.6405  0.2756
 2298TIP3   OH228384   3.888   2.343  15.701  0.3418 -1.0472 -0.0371
 2298TIP3    H128385   3.922   2.413  15.757  0.5535 -1.2734  0.1195
 2298TIP3    H228386   3.932   2.264  15.732  1.2459 -1.0253 -1.1924
 2299TIP3   OH228387   1.330   4.588  13.852  0.3431 -0.0657  0.5576
 2299TIP3    H128388   1.408   4.568  13.800  0.3939 -0.2837  0.7151
 2299TIP3    H228389   1.278   4.508  13.850 -1.2078  0.8775 -1.7934
 2300TIP3   OH228390   2.480   2.854   2.553 -0.3218  0.3155  0.8905
 2300TIP3    H128391   2.544   2.913   2.592  0.8967 -0.5442  0.2530
 2300TIP3    H228392   2.519   2.767   2.562 -0.8961 -0.1126 -0.4725
 2301TIP3   OH228393   0.200   4.045  12.228  0.0781  0.3519  0.0072
 2301TIP3    H128394   0.265   4.000  12.174  0.2516 -1.2829  1.4785
 2301TIP3    H228395   0.250   4.110  12.277  0.6775 -0.9065  1.1418
 2302TIP3   OH228396   1.159   4.527  13.583 -0.2249  0.4885  0.2196
 2302TIP3    H128397   1.187   4.618  13.575 -0.3796  0.4404 -1.1653
 2302TIP3    H228398   1.161   4.494  13.493 -1.4539 -0.4855  0.5303
 2303TIP3   OH228399   1.305   1.541   2.160 -0.5475  0.6085 -0.1054
 2303TIP3    H128400   1.322   1.456   2.200 -1.2655  0.8440  0.7319
 2303TIP3    H228401   1.384   1.592   2.178  0.2615 -0.1464 -1.3987
 2304TIP3   OH228402   5.124   5.774  17.019 -0.0441  0.2442 -0.4193
 2304TIP3    H128403   5.099   5.798  16.930  0.6216  0.0479 -0.6585
 2304TIP3    H228404   5.120   5.678  17.020  0.1517  0.2371 -0.2948
 2305TIP3   OH228405   4.853   1.198   3.866 -0.6962  0.4632  0.3262
 2305TIP3    H128406   4.871   1.104   3.860  1.1862  0.7592  0.4357
 2305TIP3    H228407   4.854   1.229   3.776  0.5721  0.6315  0.3662
 2306TIP3   OH228408   3.916   0.828   3.091 -0.3620 -0.1054 -0.3859
 2306TIP3    H128409   3.910   0.910   3.139  0.5442  0.0857 -0.5910
 2306TIP3    H228410   3.980   0.844   3.022 -0.0804 -1.0185 -0.3563
 2307TIP3   OH228411   6.128   1.252  14.467  0.1743  0.6786  0.4454
 2307TIP3    H128412   6.097   1.209  14.387  1.2858  0.2756  0.2102
 2307TIP3    H228413   6.215   1.214  14.482  0.1688  1.0915  1.5883
 2308TIP3   OH228414   2.681   6.386  17.094 -0.3620  0.3316  0.1092
 2308TIP3    H128415   2.742   6.425  17.031  0.6291  0.0772  0.8800
 2308TIP3    H228416   2.625   6.459  17.121  0.8100  1.0333  0.7595
 2309TIP3   OH228417   3.351   2.915  15.689  0.2831 -0.3150 -0.1150
 2309TIP3    H128418   3.392   2.900  15.774  3.6757  3.3716 -0.8050
 2309TIP3    H228419   3.410   2.873  15.626  0.8578  1.5994 -0.9122
 2310TIP3   OH228420   3.742   1.478  11.943 -0.0866 -0.4649  0.0811
 2310TIP3    H128421   3.740   1.445  12.033 -0.6215  1.0126  0.6477
 2310TIP3    H228422   3.667   1.538  11.939  1.0623  0.9619 -0.7557
 2311TIP3   OH228423   2.857   1.773   4.875 -0.0073  0.1254  0.4331
 2311TIP3    H128424   2.816   1.763   4.789  2.1657 -0.4835 -0.6112
 2311TIP3    H228425   2.829   1.696   4.925 -1.1461  0.3962  0.2220
 2312TIP3   OH228426   3.698   6.656   2.649 -0.2251  0.0821 -0.3673
 2312TIP3    H128427   3.664   6.738   2.684  2.1000  0.4118  1.3271
 2312TIP3    H228428   3.697   6.595   2.723  0.5667 -0.6076 -0.8979
 2313TIP3   OH228429   2.209   4.622   5.476  0.1818  0.8171  0.3586
 2313TIP3    H128430   2.204   4.610   5.571 -2.7627  0.6762  0.2895
 2313TIP3    H228431   2.230   4.534   5.443  0.3173  0.6624  0.8409
 2314TIP3   OH228432   2.304   0.453   2.788  0.5552 -0.1978 -0.3153
 2314TIP3    H128433   2.258   0.461   2.704  1.4727 -0.0692 -0.8127
 2314TIP3    H228434   2.235   0.466   2.853  0.2243  2.4801 -1.0407
 2315TIP3   OH228435   2.412   1.267  13.656  0.2443 -0.0461 -0.5922
 2315TIP3    H128436   2.485   1.244  13.713 -1.4815 -1.3942  1.2572
 2315TIP3    H228437   2.383   1.353  13.689 -2.1873 -1.7921  2.4000
 2316TIP3   OH228438   2.354   3.722  16.206 -0.2194 -0.5515  0.6057
 2316TIP3    H128439   2.295   3.794  16.182  1.4062  1.3672  2.0302
 2316TIP3    H228440   2.440   3.751  16.176  0.1738 -2.9994 -0.8428
 2317TIP3   OH228441   2.017   5.026  15.241  0.0206  0.2244  0.2814
 2317TIP3    H128442   2.093   4.969  15.249 -0.5577 -0.7273 -0.5873
 2317TIP3    H228443   2.024   5.062  15.152 -0.5124  0.1541  0.2075
 2318TIP3   OH228444   2.895   1.651   6.457 -0.1971  0.0666  0.2210
 2318TIP3    H128445   2.910   1.667   6.550 -0.3068 -0.0089  0.2523
 2318TIP3    H228446   2.799   1.646   6.449 -0.1502 -1.3592  0.3485
 2319TIP3   OH228447   2.172   1.606   4.855  0.9330  0.0525  0.0053
 2319TIP3    H128448   2.155   1.700   4.861 -0.4436 -0.0959 -1.0125
 2319TIP3    H228449   2.094   1.570   4.814  0.3694 -1.9119  2.5524
 2320TIP3   OH228450   2.892   1.866  13.327  0.2151  0.3153  0.3505
 2320TIP3    H128451   2.956   1.823  13.384  0.7951  0.2000 -0.3786
 2320TIP3    H228452   2.840   1.795  13.291  1.5227  0.1364 -1.2806
 2321TIP3   OH228453   0.852   5.366   5.091  0.0727 -0.1246  0.6074
 2321TIP3    H128454   0.799   5.439   5.060 -1.4458 -1.8061 -1.0166
 2321TIP3    H228455   0.901   5.401   5.165 -1.2820  2.2629  0.4630
 2322TIP3   OH228456   0.870   4.288  15.033  0.7444  0.3600 -0.1031
 2322TIP3    H128457   0.870   4.346  14.956  0.0204 -1.5429 -1.6212
 2322TIP3    H228458   0.917   4.210  15.004 -0.7483 -0.9728  0.9016
 2323TIP3   OH228459   2.231   4.193   2.152 -0.2560 -0.0283 -0.4349
 2323TIP3    H128460   2.137   4.207   2.169 -0.3885  0.5899 -1.5696
 2323TIP3    H228461   2.234   4.159   2.063  0.6516  0.8586 -0.7567
 2324TIP3   OH228462   6.816   3.327   1.797 -0.4793 -0.5957  0.1143
 2324TIP3    H128463   6.890   3.315   1.738 -0.4810 -0.8118  0.1521
 2324TIP3    H228464   6.782   3.414   1.777  0.2609 -0.1727  0.6394
 2325TIP3   OH228465   5.550   1.761   3.113 -0.2308  0.1533  0.9231
 2325TIP3    H128466   5.568   1.783   3.205  0.8074  1.3149  0.4706
 2325TIP3    H228467   5.635   1.771   3.069 -0.2795 -2.2306  0.1478
 2326TIP3   OH228468   1.912   1.222  11.621 -0.1473  0.3006  0.1392
 2326TIP3    H128469   1.945   1.231  11.710 -0.5793  3.2393  0.1034
 2326TIP3    H228470   1.951   1.294  11.573 -0.6694 -0.6562 -1.8468
 2327TIP3   OH228471   4.366   0.100  13.788  0.1273  0.0795  0.3348
 2327TIP3    H128472   4.389   0.190  13.811 -0.4700  0.0471  1.1173
 2327TIP3    H228473   4.384   0.049  13.867  0.5234 -0.4995 -0.1250
 2328TIP3   OH228474   1.083   2.116   5.566 -0.6720 -0.3381  0.1769
 2328TIP3    H128475   1.122   2.197   5.534 -2.7830  0.6127 -0.1340
 2328TIP3    H228476   1.059   2.135   5.657 -0.9826 -0.6927  0.1722
 2329TIP3   OH228477   3.571   2.134  11.145 -0.6105  0.0313  0.3110
 2329TIP3    H128478   3.605   2.146  11.234 -0.6936  0.4939  0.2861
 2329TIP3    H228479   3.649   2.130  11.090 -0.2881 -4.1532  0.7552
 2330TIP3   OH228480   1.303   2.603  12.148  0.2167  0.4450  0.6230
 2330TIP3    H128481   1.366   2.664  12.187 -0.9051  1.2702  1.2353
 2330TIP3    H228482   1.259   2.564  12.224 -0.3551  0.2663  0.2008
 2331TIP3   OH228483   1.495   5.915  16.844 -0.4256 -0.0368  0.3807
 2331TIP3    H128484   1.567   5.977  16.840  1.4300 -1.9911  1.2305
 2331TIP3    H228485   1.470   5.914  16.936  0.7465 -1.7183  0.7290
 2332TIP3   OH228486   2.231   1.846  10.572 -0.1258  0.3178  0.1867
 2332TIP3    H128487   2.221   1.941  10.570 -0.7276  0.2515 -0.1871
 2332TIP3    H228488   2.294   1.827  10.502 -0.7472  0.3603 -0.3906
 2333TIP3   OH228489   6.211   4.305   1.817  0.1094 -0.5611 -0.0239
 2333TIP3    H128490   6.172   4.238   1.874  1.6931 -0.7000  0.9433
 2333TIP3    H228491   6.157   4.382   1.831 -0.7442 -1.1621  0.1140
 2334TIP3   OH228492   5.960   3.403  13.931  0.5194 -0.3766 -0.3981
 2334TIP3    H128493   5.976   3.476  13.872 -0.3910 -0.7424 -1.1114
 2334TIP3    H228494   5.865   3.396  13.937  0.5647 -0.1591  1.3597
 2335TIP3   OH228495   6.049   6.025  13.552  0.6733 -0.1014  0.5270
 2335TIP3    H128496   6.035   5.954  13.615  0.9124 -0.1400  0.5360
 2335TIP3    H228497   6.122   6.076  13.589 -0.9137  1.4513  1.6978
 2336TIP3   OH228498   0.541   4.961  15.494  0.4175  0.7462  0.6092
 2336TIP3    H128499   0.546   4.935  15.587  0.4758  0.9835  0.6721
 2336TIP3    H228500   0.600   4.900  15.450 -1.2954 -0.8449  0.3929
 2337TIP3   OH228501   6.691   1.630  11.674 -0.1319  0.0417 -0.6911
 2337TIP3    H128502   6.717   1.572  11.603  3.0163 -3.2804  2.7381
 2337TIP3    H228503   6.746   1.707  11.664  2.4492 -1.6292 -0.4793
 2338TIP3   OH228504   1.501   4.635   3.748 -0.8335 -0.5377  0.2024
 2338TIP3    H128505   1.426   4.692   3.766  0.8824  2.1885 -0.6472
 2338TIP3    H228506   1.533   4.610   3.835 -1.8404 -0.5337  0.5921
 2339TIP3   OH228507   2.203   4.043   4.165  0.4402 -0.0081  0.2789
 2339TIP3    H128508   2.168   4.086   4.243  1.3167 -1.5959  1.6073
 2339TIP3    H228509   2.149   3.965   4.154  0.1523  0.3394 -0.8959
 2340TIP3   OH228510   4.039   0.712   4.883  0.2541 -0.1175 -0.1586
 2340TIP3    H128511   3.979   0.684   4.952  0.6996 -2.0353 -0.4860
 2340TIP3    H228512   4.032   0.644   4.816  0.8078  1.0188 -1.4080
 2341TIP3   OH228513   2.053   4.936   3.273 -0.2548  0.0176 -0.1290
 2341TIP3    H128514   2.053   5.026   3.240  1.8274 -0.3332 -1.2599
 2341TIP3    H228515   2.145   4.916   3.287 -0.7246 -1.7607  0.6437
 2342TIP3   OH228516   4.843   1.305   4.457 -0.2560  0.2575  0.3839
 2342TIP3    H128517   4.755   1.314   4.422 -0.2888 -2.1720 -0.3215
 2342TIP3    H228518   4.900   1.328   4.384 -0.2098  2.3158  0.9785
 2343TIP3   OH228519   2.922   1.895   6.736  0.4434 -0.2217  0.1703
 2343TIP3    H128520   2.914   1.956   6.662  0.5783 -0.2352  0.1440
 2343TIP3    H228521   3.013   1.864   6.731 -0.4679 -2.9668 -1.8046
 2344TIP3   OH228522   5.290   5.575   2.091 -0.5996  0.3436  0.1578
 2344TIP3    H128523   5.272   5.502   2.151  2.3842 -0.1652  0.6019
 2344TIP3    H228524   5.272   5.653   2.142  0.1506 -0.1042  1.1485
 2345TIP3   OH228525   3.369   1.509   6.744 -0.1931 -0.1969  0.1552
 2345TIP3    H128526   3.444   1.455   6.769 -0.5356  0.5841  3.2165
 2345TIP3    H228527   3.398   1.599   6.757 -1.0852  0.1882 -0.3959
 2346TIP3   OH228528   6.724   5.049  16.380 -0.6586  0.0390 -0.0321
 2346TIP3    H128529   6.755   5.135  16.351  3.6737 -0.6269  1.9120
 2346TIP3    H228530   6.704   5.002  16.299  1.2386  1.4589 -1.3992
 2347TIP3   OH228531   6.252   1.829   0.456  0.1250  0.2482  0.0888
 2347TIP3    H128532   6.308   1.844   0.532  0.6812  2.0067 -0.6254
 2347TIP3    H228533   6.168   1.868   0.481  0.4165  1.1543 -0.3177
 2348TIP3   OH228534   2.024   5.073   2.212 -0.1893 -0.5472 -0.2044
 2348TIP3    H128535   1.976   5.000   2.250  0.7206 -1.2658 -0.3945
 2348TIP3    H228536   2.110   5.037   2.191  0.5553  0.7740  0.4222
 2349TIP3   OH228537   3.660   6.668   2.021  0.8737 -0.8225 -0.1108
 2349TIP3    H128538   3.723   6.741   2.022 -0.4225  0.3487 -0.6748
 2349TIP3    H228539   3.657   6.640   1.930  0.4533 -0.7423 -0.1233
 2350TIP3   OH228540   4.397   2.498  15.536 -0.5441  0.3487  0.4771
 2350TIP3    H128541   4.338   2.526  15.606  0.0496 -0.2449  1.2304
 2350TIP3    H228542   4.469   2.454  15.581 -0.3289 -0.3598 -0.5263
 2351TIP3   OH228543   4.418   0.624   6.192 -0.0730  0.2244 -0.1320
 2351TIP3    H128544   4.324   0.627   6.175 -0.0806 -1.4110 -0.5590
 2351TIP3    H228545   4.442   0.532   6.180  1.6459  0.6576 -0.3381
 2352TIP3   OH228546   3.996   1.063   4.544 -0.2101  0.0294  0.0435
 2352TIP3    H128547   4.062   1.057   4.474  0.3813  0.1507  0.5861
 2352TIP3    H228548   3.948   1.143   4.523 -0.4730 -0.2900 -0.6018
 2353TIP3   OH228549   6.628   5.861   0.936  0.6206  0.0421 -0.0961
 2353TIP3    H128550   6.661   5.875   0.848  0.2050 -0.3360 -0.3122
 2353TIP3    H228551   6.702   5.884   0.993  1.3070 -0.9428 -0.5757
 2354TIP3   OH228552   5.548   2.123   2.519  0.2596 -0.5257 -0.3382
 2354TIP3    H128553   5.554   2.180   2.442 -0.5097  2.3164  1.5301
 2354TIP3    H228554   5.459   2.089   2.516 -0.0231  0.1911 -0.3403
 2355TIP3   OH228555   5.216   3.169   4.219  0.2409 -0.4727 -0.9897
 2355TIP3    H128556   5.129   3.154   4.257  0.8548  0.2618  0.7976
 2355TIP3    H228557   5.261   3.085   4.231  0.5469 -0.1503  0.3132
 2356TIP3   OH228558   5.897   3.805  13.041  0.7682  0.3396  0.7769
 2356TIP3    H128559   5.870   3.864  13.111  0.2030  0.9548  0.0605
 2356TIP3    H228560   5.876   3.718  13.074  1.4763  0.5448  1.7878
 2357TIP3   OH228561   4.285   3.918  13.529 -0.1037 -0.8588  0.2540
 2357TIP3    H128562   4.221   3.961  13.473  0.8828  1.5613  0.8390
 2357TIP3    H228563   4.234   3.883  13.602 -0.9988 -1.0350 -0.4451
 2358TIP3   OH228564   3.252   3.784   3.328  0.2255  0.1765 -0.4253
 2358TIP3    H128565   3.196   3.861   3.332 -0.3859 -0.2350 -0.8237
 2358TIP3    H228566   3.341   3.819   3.319 -0.0806  0.8317 -1.0038
 2359TIP3   OH228567   5.706   1.751  15.073 -0.9096  0.0104 -0.4813
 2359TIP3    H128568   5.766   1.756  15.147 -1.8326 -1.4580  0.4188
 2359TIP3    H228569   5.633   1.698  15.105 -0.7069 -1.8861 -2.8649
 2360TIP3   OH228570   1.537   4.113   2.241 -0.2907  0.2450  0.5130
 2360TIP3    H128571   1.603   4.119   2.309  1.9899  0.0140 -1.5649
 2360TIP3    H228572   1.483   4.038   2.266 -1.4463  1.9293  3.5563
 2361TIP3   OH228573   0.006   1.960   5.167 -0.3960 -0.4741  0.7003
 2361TIP3    H128574  -0.039   2.003   5.095 -0.3447  2.7650  2.4053
 2361TIP3    H228575  -0.064   1.920   5.218 -0.4669 -2.4216 -0.8135
 2362TIP3   OH228576   3.451   2.327   0.347 -0.0661 -0.1182 -0.1331
 2362TIP3    H128577   3.471   2.325   0.441  1.2486 -0.0578 -0.3827
 2362TIP3    H228578   3.363   2.364   0.342 -0.9848 -1.9347  1.1720
 2363TIP3   OH228579   4.002   5.778  13.137 -0.3267  0.1489  0.1470
 2363TIP3    H128580   4.049   5.717  13.079 -0.3511  0.3474 -0.0854
 2363TIP3    H228581   3.918   5.793  13.093  0.3979  1.8159 -0.7833
 2364TIP3   OH228582   2.879   2.974  14.605 -0.5376  0.6400  0.0241
 2364TIP3    H128583   2.876   3.013  14.518 -0.8455 -0.4612 -0.4789
 2364TIP3    H228584   2.958   3.010  14.645 -0.6138  1.4763 -0.5486
 2365TIP3   OH228585   4.401   5.028  14.609  0.4762 -0.4814  0.0809
 2365TIP3    H128586   4.445   5.099  14.656 -0.4352 -0.8148  1.4885
 2365TIP3    H228587   4.418   4.950  14.663 -0.8398 -0.8232  0.0277
 2366TIP3   OH228588   3.762   2.123  16.719  0.0429 -0.5106 -0.0794
 2366TIP3    H128589   3.818   2.194  16.751 -0.6286  1.2142 -2.4282
 2366TIP3    H228590   3.720   2.089  16.798 -0.7204  2.7379  1.0878
 2367TIP3   OH228591   0.084   1.251  12.537  0.3263  0.4822  0.3327
 2367TIP3    H128592   0.113   1.222  12.450 -0.5172 -0.5613  0.3835
 2367TIP3    H228593   0.162   1.291  12.576  0.8420  0.5211 -0.7150
 2368TIP3   OH228594   2.025   3.422   4.847  0.0851 -0.8168  0.5536
 2368TIP3    H128595   2.097   3.381   4.895  0.1185 -0.5825  0.7052
 2368TIP3    H228596   1.961   3.352   4.836  0.1017 -0.8883  0.8896
 2369TIP3   OH228597   0.175   1.633  12.866  0.2653  0.6317  0.0576
 2369TIP3    H128598   0.189   1.560  12.805 -2.4217  0.2102 -0.1684
 2369TIP3    H228599   0.203   1.711  12.818  1.1439 -0.0243 -0.5126
 2370TIP3   OH228600   1.278   6.648   2.514  0.5129 -0.3350 -0.3726
 2370TIP3    H128601   1.266   6.620   2.423 -0.0285  0.3204 -0.5084
 2370TIP3    H228602   1.194   6.630   2.556  0.9364 -1.1473  0.1471
 2371TIP3   OH228603   1.024   4.167   1.079 -0.0631  0.4078 -0.5798
 2371TIP3    H128604   1.075   4.113   1.018  1.3599  1.6029 -0.5094
 2371TIP3    H228605   0.945   4.116   1.096  1.3454 -1.7843 -0.2734
 2372TIP3   OH228606   4.588   5.228  16.450 -0.1781 -0.1668  0.5750
 2372TIP3    H128607   4.538   5.295  16.495  1.2134  1.8295 -0.6800
 2372TIP3    H228608   4.638   5.184  16.518  0.5980  1.6231  1.1854
 2373TIP3   OH228609   0.697   6.230  11.398  0.1506  0.6093  0.6998
 2373TIP3    H128610   0.695   6.320  11.432  2.1203  0.3949  1.5352
 2373TIP3    H228611   0.605   6.205  11.393 -0.3909  1.8788  2.6631
 2374TIP3   OH228612   4.977   2.819  14.887 -0.6555 -0.3436 -0.1439
 2374TIP3    H128613   4.970   2.825  14.792 -1.2268  1.1791 -0.0253
 2374TIP3    H228614   5.022   2.899  14.913 -1.1728 -0.3827  0.9243
 2375TIP3   OH228615   1.928   5.866   5.995  0.2984 -0.1842 -0.3160
 2375TIP3    H128616   1.900   5.955   6.017 -0.7269 -0.5721 -0.0066
 2375TIP3    H228617   1.921   5.818   6.078  1.4691 -0.4152 -0.3259
 2376TIP3   OH228618   2.339   0.937   0.123  0.9699  0.1425  0.9907
 2376TIP3    H128619   2.389   1.018   0.112  0.0146  0.4935 -1.4438
 2376TIP3    H228620   2.405   0.869   0.135  2.1747  0.5803 -2.2040
 2377TIP3   OH228621   5.003   4.835   2.115 -0.1857  0.3074  0.5743
 2377TIP3    H128622   4.997   4.845   2.020 -1.2273  0.1913  0.6169
 2377TIP3    H228623   5.077   4.775   2.129 -0.2963 -0.0120 -0.1860
 2378TIP3   OH228624   2.163   5.924   6.324  0.6655 -0.2010 -0.6424
 2378TIP3    H128625   2.077   5.882   6.318  1.0737 -1.5601  1.7080
 2378TIP3    H228626   2.224   5.856   6.294  1.1883 -0.7413  1.4971
 2379TIP3   OH228627   0.503   0.946   1.369  0.3817 -0.2362 -0.4750
 2379TIP3    H128628   0.449   1.024   1.355  0.3552 -0.3236 -0.9032
 2379TIP3    H228629   0.592   0.979   1.378  0.2738 -0.1011  0.0987
 2380TIP3   OH228630   0.613   0.746   3.396  0.0563 -0.0954 -0.3040
 2380TIP3    H128631   0.682   0.805   3.427 -0.2381 -0.2174  0.6233
 2380TIP3    H228632   0.581   0.704   3.475 -0.7926 -0.3577 -0.7779
 2381TIP3   OH228633   2.296   2.303   5.637  0.3365 -0.1247  0.3006
 2381TIP3    H128634   2.363   2.338   5.695 -0.1735  0.5648  0.4770
 2381TIP3    H228635   2.229   2.371   5.633  0.3017 -0.2000 -1.0024
 2382TIP3   OH228636   6.799   5.425   3.405  0.0504 -0.0343  0.0296
 2382TIP3    H128637   6.707   5.430   3.429 -0.3715  0.6833 -1.5609
 2382TIP3    H228638   6.803   5.352   3.342  0.5696 -0.0641  0.0931
 2383TIP3   OH228639   4.875   4.490   2.807 -0.6085  0.3450 -0.3745
 2383TIP3    H128640   4.970   4.485   2.819 -0.6995 -0.6105  0.0393
 2383TIP3    H228641   4.843   4.531   2.887 -0.7133 -1.1447  0.3790
 2384TIP3   OH228642   4.861   5.770  11.136  0.3500  0.4405 -0.2862
 2384TIP3    H128643   4.906   5.819  11.205  1.1882  0.4585 -0.8273
 2384TIP3    H228644   4.928   5.757  11.069 -0.4422  0.3899 -1.0801
 2385TIP3   OH228645   0.098   6.674  17.164  0.3375  0.8162 -0.4954
 2385TIP3    H128646   0.035   6.607  17.139  0.4354  0.0179  1.3142
 2385TIP3    H228647   0.047   6.738  17.214  1.1174 -0.5667  2.2573
 2386TIP3   OH228648   5.625   0.950  12.549  0.5638  0.2580 -0.2085
 2386TIP3    H128649   5.702   0.986  12.503 -0.1602  1.4833 -0.5082
 2386TIP3    H228650   5.625   0.994  12.633  0.1618  0.2832 -0.2236
 2387TIP3   OH228651   0.634   4.627  13.126 -0.1568 -0.0744 -0.2852
 2387TIP3    H128652   0.716   4.666  13.157 -0.1727 -0.4545  0.2465
 2387TIP3    H228653   0.635   4.538  13.161  0.5735 -1.1023 -2.6700
 2388TIP3   OH228654   0.016   1.984  11.901  0.0001  0.1892 -0.7284
 2388TIP3    H128655  -0.068   1.948  11.931  0.9356 -1.2973  0.2632
 2388TIP3    H228656   0.018   1.966  11.807  0.5151 -2.7335 -0.2519
 2389TIP3   OH228657   4.273   3.975   1.886 -0.4894  0.5189 -0.1658
 2389TIP3    H128658   4.342   3.930   1.839 -1.3704  0.4969 -1.4857
 2389TIP3    H228659   4.257   3.921   1.963  1.4065  0.8829  0.5360
 2390TIP3   OH228660   1.049   5.766  15.533  0.8830  0.8486 -0.8242
 2390TIP3    H128661   1.029   5.776  15.440 -1.0411 -1.5729 -0.7332
 2390TIP3    H228662   0.969   5.792  15.579  0.0608 -2.4718 -0.1364
 2391TIP3   OH228663   1.143   6.530  13.157 -0.0929  0.3987 -0.0027
 2391TIP3    H128664   1.234   6.513  13.180  0.1758  0.7702 -0.7752
 2391TIP3    H228665   1.093   6.465  13.206  0.4452  1.1864  1.6848
 2392TIP3   OH228666   5.076   5.635  10.962 -1.1927 -0.0323 -0.3618
 2392TIP3    H128667   5.100   5.558  10.910  0.7718 -0.2889  0.8190
 2392TIP3    H228668   5.119   5.708  10.917  1.7113 -0.4326  1.5035
 2393TIP3   OH228669   3.445   3.844   4.280 -0.0843  0.4759 -0.8407
 2393TIP3    H128670   3.357   3.882   4.281  0.9441  3.0615 -0.0785
 2393TIP3    H228671   3.467   3.836   4.187 -0.1362  2.3970 -1.0440
 2394TIP3   OH228672   5.830   2.601   6.780  0.0483 -0.2524 -0.2329
 2394TIP3    H128673   5.857   2.547   6.855  1.8582 -0.9725 -1.3365
 2394TIP3    H228674   5.773   2.543   6.729 -1.0150  0.1693  0.4295
 2395TIP3   OH228675   0.187   5.303  12.846  0.2378  0.0363 -0.1407
 2395TIP3    H128676   0.123   5.362  12.805  0.1973 -0.0002 -0.1290
 2395TIP3    H228677   0.268   5.319  12.797  0.5390  0.9713  0.6171
 2396TIP3   OH228678   5.169   6.639  11.689  0.1446  0.6991  0.3124
 2396TIP3    H128679   5.137   6.553  11.716 -0.4577  1.1831  1.1921
 2396TIP3    H228680   5.236   6.661  11.754 -0.1059  1.1349  0.4314
 2397TIP3   OH228681   0.853   4.763   3.531  0.0918 -0.5954 -0.4301
 2397TIP3    H128682   0.827   4.846   3.490  1.6724  0.1071 -0.0917
 2397TIP3    H228683   0.781   4.743   3.592  1.7745  3.3482  3.4531
 2398TIP3   OH228684   0.862   6.668   4.566 -0.7242 -0.2969  0.3384
 2398TIP3    H128685   0.890   6.758   4.584 -1.6212  0.2660 -0.9915
 2398TIP3    H228686   0.800   6.675   4.494 -1.8140 -1.8563  1.0674
 2399TIP3   OH228687   5.589   3.564  16.443  0.0544 -0.4283  0.0271
 2399TIP3    H128688   5.605   3.530  16.356 -1.1553 -0.5198 -0.1732
 2399TIP3    H228689   5.554   3.490  16.493  0.3439 -0.2702  0.4794
 2400TIP3   OH228690   1.521   4.055  14.076  0.4343 -0.7518 -0.0644
 2400TIP3    H128691   1.485   3.966  14.073  1.2202 -1.1249  0.8714
 2400TIP3    H228692   1.582   4.053  14.149  1.5745  0.1534 -0.9562
 2401TIP3   OH228693   4.338   0.179  12.437 -0.5576  0.3949  0.1718
 2401TIP3    H128694   4.349   0.086  12.418  0.2911  0.4142  0.5360
 2401TIP3    H228695   4.403   0.223  12.382 -0.1231  0.6755  0.9050
 2402TIP3   OH228696   0.952   6.510  15.442 -0.2040 -0.2277  0.0316
 2402TIP3    H128697   0.919   6.426  15.411  2.2857 -1.0056 -0.7720
 2402TIP3    H228698   0.975   6.494  15.534 -1.5824  0.1854  0.4616
 2403TIP3   OH228699   5.783   1.713   4.368 -0.4780 -0.1236  0.2079
 2403TIP3    H128700   5.731   1.790   4.344  1.4497  1.8635  2.0170
 2403TIP3    H228701   5.731   1.670   4.436 -1.9679 -1.0284 -1.3992
 2404TIP3   OH228702   1.495   1.533  12.883 -0.0086 -0.0186  0.0884
 2404TIP3    H128703   1.556   1.603  12.858  0.3974 -0.1454  0.7069
 2404TIP3    H228704   1.411   1.559  12.844  0.1580  0.7751  0.2492
 2405TIP3   OH228705   1.330   2.750   1.287  0.2258 -0.1331  0.1158
 2405TIP3    H128706   1.339   2.723   1.378  1.8805 -0.3369 -0.0713
 2405TIP3    H228707   1.362   2.841   1.286  0.5990 -0.2643 -0.3163
 2406TIP3   OH228708   4.554   3.008   3.833 -0.2700 -0.5510 -0.1270
 2406TIP3    H128709   4.468   3.025   3.870 -1.1619 -2.3053 -1.2746
 2406TIP3    H228710   4.537   2.981   3.743  1.4194 -1.4640 -0.2187
 2407TIP3   OH228711   0.194   6.187   6.155  0.1302  0.0545  0.0268
 2407TIP3    H128712   0.134   6.201   6.229  1.1388 -1.3792  1.1902
 2407TIP3    H228713   0.232   6.273   6.139  1.2306  0.1015  2.4378
 2408TIP3   OH228714   5.689   2.334  10.539 -0.0153 -0.5914  0.4830
 2408TIP3    H128715   5.752   2.405  10.550 -0.1083 -0.3604 -0.4796
 2408TIP3    H228716   5.738   2.266  10.492 -0.4885 -0.3966 -0.2967
 2409TIP3   OH228717   3.321   2.950   0.391 -0.1862  0.5396  0.2861
 2409TIP3    H128718   3.367   2.972   0.310  0.7698 -0.2044  0.6092
 2409TIP3    H228719   3.336   2.857   0.403 -1.1563  0.4355  0.8091
 2410TIP3   OH228720   2.134   6.344   2.518 -0.1534  0.2843 -0.0752
 2410TIP3    H128721   2.067   6.365   2.583  1.1102  0.4009  1.2283
 2410TIP3    H228722   2.100   6.268   2.472 -1.4813  0.7489  0.0923
 2411TIP3   OH228723   1.658   3.640  12.964 -0.3833 -0.1818  0.5849
 2411TIP3    H128724   1.712   3.561  12.968 -0.3192 -0.1061  1.2423
 2411TIP3    H228725   1.688   3.685  12.884  1.3186  0.4125  1.4889
 2412TIP3   OH228726   1.128   6.078  14.464 -0.1143  0.2092  0.1845
 2412TIP3    H128727   1.146   6.099  14.555 -0.2981 -1.0360  0.5277
 2412TIP3    H228728   1.065   6.006  14.468 -0.9918  0.8720 -0.9382
 2413TIP3   OH228729   0.850   4.150   6.022  0.1852 -0.4962 -0.2055
 2413TIP3    H128730   0.787   4.168   6.092  0.9603  0.4950  0.2606
 2413TIP3    H228731   0.835   4.058   6.000 -0.8354 -0.5169  0.4804
 2414TIP3   OH228732   4.365   1.229   5.765 -0.1285  1.0324 -0.5234
 2414TIP3    H128733   4.288   1.261   5.811  0.5646  3.0677 -0.6975
 2414TIP3    H228734   4.356   1.133   5.767 -1.4912  1.1472  1.4036
 2415TIP3   OH228735   0.048   5.867   1.081  0.0076  0.3862 -0.0839
 2415TIP3    H128736   0.009   5.780   1.076  0.5874  0.1168  0.0122
 2415TIP3    H228737   0.100   5.865   1.162  1.5615  0.1750 -1.0537
 2416TIP3   OH228738   6.673   3.852  16.094  0.1746  0.0903  0.6896
 2416TIP3    H128739   6.685   3.764  16.059  1.1511  0.3000  0.4940
 2416TIP3    H228740   6.699   3.911  16.024 -0.2314  0.5420  0.9071
 2417TIP3   OH228741   2.468   3.603   2.051  0.2999 -0.3190  0.4139
 2417TIP3    H128742   2.510   3.533   2.100 -0.4727 -0.0556  1.5073
 2417TIP3    H228743   2.537   3.669   2.039  2.0162 -2.5155 -3.5076
 2418TIP3   OH228744   1.079   6.359   2.896 -0.2061 -0.2041  0.2135
 2418TIP3    H128745   1.005   6.420   2.898 -1.2988 -1.4733  2.0949
 2418TIP3    H228746   1.041   6.277   2.865  1.0486 -0.2074 -1.4083
 2419TIP3   OH228747   2.280   0.617   5.968  0.2783 -0.1434  0.4446
 2419TIP3    H128748   2.224   0.568   5.908 -2.0657 -0.4828  2.7335
 2419TIP3    H228749   2.297   0.699   5.922 -1.4320 -0.3791 -0.7207
 2420TIP3   OH228750   1.685   6.106  16.812 -0.0721 -0.0965 -0.0184
 2420TIP3    H128751   1.626   6.166  16.767  1.5599 -0.3724 -2.8075
 2420TIP3    H228752   1.741   6.163  16.865  0.2756  0.6983 -1.1916
 2421TIP3   OH228753   3.971   3.842  13.177 -0.6498  0.1168  0.4194
 2421TIP3    H128754   4.026   3.897  13.122  1.1957 -0.6975  1.3766
 2421TIP3    H228755   4.031   3.782  13.221 -2.3328 -1.0446  1.2861
 2422TIP3   OH228756   6.013   3.355  15.586 -0.2966  0.0125 -0.0480
 2422TIP3    H128757   6.006   3.286  15.520  0.4215 -0.6060  0.5157
 2422TIP3    H228758   5.972   3.432  15.545 -0.8580 -0.6687 -0.7799
 2423TIP3   OH228759   2.232   6.575   2.856  0.1538  0.3692 -0.2141
 2423TIP3    H128760   2.185   6.493   2.869  0.1692  0.0127 -2.0939
 2423TIP3    H228761   2.166   6.636   2.823  0.5100  0.5935 -0.5155
 2424TIP3   OH228762   0.035   0.830  16.512 -0.4443  0.6249 -0.3309
 2424TIP3    H128763  -0.051   0.850  16.549 -0.7993  0.8883 -1.2812
 2424TIP3    H228764   0.097   0.854  16.581 -1.1807 -0.9057  0.9162
 2425TIP3   OH228765   5.066   4.049  12.000 -0.1464 -0.1222 -0.2700
 2425TIP3    H128766   5.009   4.066  12.075 -2.3626 -1.5365 -1.4931
 2425TIP3    H228767   5.154   4.065  12.032 -1.0823  0.3064  2.3209
 2426TIP3   OH228768   4.839   4.864   6.809  0.3963 -0.2315  0.0386
 2426TIP3    H128769   4.892   4.928   6.762 -0.4780  1.1417  0.8205
 2426TIP3    H228770   4.757   4.911   6.827 -0.0696 -1.4025  1.1002
 2427TIP3   OH228771   1.881   1.306  13.492 -0.2910  0.5105 -0.0027
 2427TIP3    H128772   1.940   1.330  13.420  0.4488 -1.2103 -0.0024
 2427TIP3    H228773   1.887   1.211  13.498 -1.9425  0.4328  0.9962
 2428TIP3   OH228774   3.716   4.243  15.896 -0.1895 -0.0745 -0.2048
 2428TIP3    H128775   3.653   4.310  15.925 -0.0944 -0.2417  0.4037
 2428TIP3    H228776   3.681   4.161  15.929 -1.0808 -0.5605 -2.1886
 2429TIP3   OH228777   5.521   1.173  13.170 -0.4661 -0.3901 -0.3614
 2429TIP3    H128778   5.553   1.173  13.080  0.1412 -1.1439 -0.1556
 2429TIP3    H228779   5.426   1.164  13.163 -0.6814  1.7041 -0.9891
 2430TIP3   OH228780   3.102   2.855  15.582 -0.4158 -0.2028 -0.0145
 2430TIP3    H128781   3.166   2.908  15.629 -0.2507 -2.4099  2.5053
 2430TIP3    H228782   3.135   2.765  15.589 -3.1854 -1.2854  0.3862
 2431TIP3   OH228783   3.583   2.836  16.483 -0.4629 -0.0703  0.5016
 2431TIP3    H128784   3.611   2.904  16.545 -1.0310 -0.0178  0.7082
 2431TIP3    H228785   3.534   2.883  16.416 -2.9568 -0.5016  1.8965
 2432TIP3   OH228786   1.048   6.075  15.919 -0.1109 -0.4715 -0.2915
 2432TIP3    H128787   0.967   6.027  15.905 -0.7149  1.2537 -3.6953
 2432TIP3    H228788   1.022   6.156  15.962  0.1767 -0.8756  0.6754
 2433TIP3   OH228789   2.933   3.928   1.008 -0.5610  0.5944 -0.2800
 2433TIP3    H128790   2.894   4.012   0.982  0.4080  1.2533  0.3096
 2433TIP3    H228791   2.999   3.952   1.073 -0.4562 -0.6675  0.0972
 2434TIP3   OH228792   1.778   0.445   4.607 -0.3252 -0.2073 -0.1440
 2434TIP3    H128793   1.838   0.517   4.624 -0.9303 -0.0790  1.6386
 2434TIP3    H228794   1.828   0.384   4.552  0.5182  1.0898 -0.8562
 2435TIP3   OH228795   5.266   2.447   3.944 -0.6536  0.0094 -0.2084
 2435TIP3    H128796   5.171   2.442   3.955 -0.6026 -1.0053 -0.1280
 2435TIP3    H228797   5.283   2.395   3.865 -0.1677  0.1953 -0.2242
 2436TIP3   OH228798   1.012   0.736  11.874  0.5838 -0.2114 -0.1500
 2436TIP3    H128799   1.018   0.801  11.944 -0.9849 -0.4219  0.2217
 2436TIP3    H228800   1.101   0.731  11.838  0.9190  1.5169  0.3481
 2437TIP3   OH228801   1.803   1.805   3.557 -0.4809  0.0023 -0.0957
 2437TIP3    H128802   1.744   1.757   3.499 -0.8205  0.9071 -0.5109
 2437TIP3    H228803   1.767   1.894   3.560  1.1620  0.7232 -0.8064
 2438TIP3   OH228804   0.446   4.112  11.537  0.5560  0.0591 -0.1129
 2438TIP3    H128805   0.362   4.158  11.546  0.2574 -0.6045  0.5149
 2438TIP3    H228806   0.429   4.043  11.473  1.3678  1.6410 -2.1452
 2439TIP3   OH228807   5.238   1.395   1.484  0.0786  0.2284  0.1426
 2439TIP3    H128808   5.305   1.334   1.514  0.7073  0.7813 -0.1218
 2439TIP3    H228809   5.279   1.443   1.412 -0.0360  1.6491  0.9798
 2440TIP3   OH228810   3.875   4.799   2.670 -0.1933  0.2440 -0.2287
 2440TIP3    H128811   3.856   4.867   2.734 -0.9879  0.1722 -0.3707
 2440TIP3    H228812   3.918   4.844   2.598 -0.1646  0.4891 -0.0582
 2441TIP3   OH228813   2.028   5.026  16.854  0.0883  0.2431  0.1375
 2441TIP3    H128814   1.936   5.020  16.880 -0.1683 -1.9146 -1.0188
 2441TIP3    H228815   2.033   4.981  16.770  2.6187 -2.1754  1.3935
 2442TIP3   OH228816   4.709   3.051   2.620 -0.1879 -0.1769  0.1256
 2442TIP3    H128817   4.749   3.100   2.692 -1.5438  1.4043 -0.1324
 2442TIP3    H228818   4.762   3.074   2.543 -0.4694  0.4526  0.1135
 2443TIP3   OH228819   1.025   3.499   4.017  0.3399  0.2605  0.0467
 2443TIP3    H128820   0.931   3.484   4.023  0.1216  1.6151  0.2230
 2443TIP3    H228821   1.061   3.416   3.985 -0.9708 -0.0864 -0.5585
 2444TIP3   OH228822   3.401   6.639   4.261  0.2718 -0.1055 -0.0373
 2444TIP3    H128823   3.441   6.683   4.186  1.7031 -0.5013  0.4627
 2444TIP3    H228824   3.306   6.650   4.248  0.5244  0.6688 -1.3758
 2445TIP3   OH228825   6.815   5.769   0.158 -0.0430 -0.3325  0.2326
 2445TIP3    H128826   6.805   5.702   0.091 -0.5702 -1.0105  0.9691
 2445TIP3    H228827   6.772   5.732   0.235  0.8901  0.2553  1.0603
 2446TIP3   OH228828   5.231   0.691  12.127  0.0422  0.0191 -0.5468
 2446TIP3    H128829   5.212   0.601  12.101  1.9040 -0.2781 -1.0236
 2446TIP3    H228830   5.204   0.697  12.218  1.0313 -1.4171 -0.1252
 2447TIP3   OH228831   3.814   0.854   4.710  0.2101  0.2425  0.6037
 2447TIP3    H128832   3.774   0.918   4.770 -1.2261  1.4622 -1.5089
 2447TIP3    H228833   3.833   0.905   4.631 -2.5442 -2.1888 -1.8353
 2448TIP3   OH228834   0.008   2.924  15.013 -0.2912 -0.1405 -0.0397
 2448TIP3    H128835   0.062   2.846  15.027 -0.6312 -0.2241  0.8381
 2448TIP3    H228836   0.062   2.997  15.042  0.1054 -0.0071 -1.0494
 2449TIP3   OH228837   0.215   1.010  15.245 -0.3892  0.3182 -0.1903
 2449TIP3    H128838   0.196   1.074  15.177  1.1080  1.1052  0.0898
 2449TIP3    H228839   0.227   1.062  15.324 -0.6399 -0.4564  0.3741
 2450TIP3   OH228840   6.517   0.462  15.083  0.0068  0.1399 -0.0939
 2450TIP3    H128841   6.497   0.480  14.992  1.0186 -0.9321 -0.5606
 2450TIP3    H228842   6.613   0.459  15.087 -0.0345 -1.3999  0.6401
 2451TIP3   OH228843   3.964   4.517   6.002  0.4277 -0.3073  0.7490
 2451TIP3    H128844   3.939   4.449   5.939  1.4238 -2.2740  2.3675
 2451TIP3    H228845   3.881   4.548   6.038 -0.2333  1.4387 -1.9947
 2452TIP3   OH228846   1.149   0.866   4.363 -0.3951  0.0488 -0.0714
 2452TIP3    H128847   1.215   0.858   4.295 -1.3320 -1.0801 -0.8724
 2452TIP3    H228848   1.149   0.782   4.408  0.3047  0.8152  1.4480
 2453TIP3   OH228849   2.168   3.775  13.683  0.0175  0.3416 -0.0194
 2453TIP3    H128850   2.156   3.725  13.602  1.6612 -3.1337  1.6370
 2453TIP3    H228851   2.082   3.775  13.724 -0.0394 -1.2614 -0.0758
 2454TIP3   OH228852   1.558   5.488  17.157  0.8576  0.1853 -0.0110
 2454TIP3    H128853   1.530   5.435  17.082 -0.6076 -1.0882  1.3641
 2454TIP3    H228854   1.482   5.491  17.215  1.9851  0.9730  1.5096
 2455TIP3   OH228855   6.488   3.155   4.648  0.7010  0.2794 -0.0818
 2455TIP3    H128856   6.477   3.071   4.602  2.2081 -0.2161  0.4063
 2455TIP3    H228857   6.517   3.216   4.580 -1.9096  0.8626 -0.7725
 2456TIP3   OH228858   0.608   6.798   2.581 -0.1556 -0.1035  0.2886
 2456TIP3    H128859   0.542   6.864   2.602  0.2001 -0.4275  2.7450
 2456TIP3    H228860   0.580   6.720   2.629  1.5602 -0.4840  0.7504
 2457TIP3   OH228861   3.603   4.997   4.353  0.1313  0.6463 -0.5284
 2457TIP3    H128862   3.619   4.980   4.446 -2.6252  0.9774  0.1222
 2457TIP3    H228863   3.627   4.916   4.309  1.7593  0.5797  0.3952
 2458TIP3   OH228864   1.573   5.606  11.318  0.1006 -0.1992  0.5015
 2458TIP3    H128865   1.535   5.644  11.239 -1.1878 -0.2922  1.0535
 2458TIP3    H228866   1.662   5.583  11.293  0.6919  2.4258 -0.0840
 2459TIP3   OH228867   6.011   0.173  12.784 -0.0540  0.2198 -0.3837
 2459TIP3    H128868   5.937   0.206  12.734 -0.0009 -0.2168 -0.7573
 2459TIP3    H228869   6.073   0.143  12.718 -1.0243 -2.7379 -0.1214
 2460TIP3   OH228870   5.934   0.176  11.584  0.2641 -0.4362  0.2216
 2460TIP3    H128871   5.988   0.235  11.637 -1.2111  0.5219  0.7141
 2460TIP3    H228872   5.959   0.195  11.494  0.3487  0.3893  0.4165
 2461TIP3   OH228873   1.726   3.928  11.614 -0.0434  0.0186 -0.5189
 2461TIP3    H128874   1.696   4.013  11.583  0.5572 -0.4558 -2.5069
 2461TIP3    H228875   1.814   3.919  11.578  0.4073 -0.9061  0.7454
 2462TIP3   OH228876   6.362   2.555   2.728  0.3307  0.2851  0.3424
 2462TIP3    H128877   6.429   2.597   2.674  1.5700 -0.6202  1.1089
 2462TIP3    H228878   6.374   2.594   2.815  1.4952 -1.5388  1.0676
 2463TIP3   OH228879   5.322   1.931   1.033  0.4972  0.1725  0.0684
 2463TIP3    H128880   5.335   2.025   1.037 -0.8381  0.3105  2.4058
 2463TIP3    H228881   5.259   1.919   0.962  1.2145  0.9272 -0.7284
 2464TIP3   OH228882   1.108   0.045  15.259  0.6893  0.0283  0.1980
 2464TIP3    H128883   1.084  -0.016  15.190  0.8584 -0.9481  0.9851
 2464TIP3    H228884   1.026   0.083  15.288  0.5277 -0.2486  0.1008
 2465TIP3   OH228885   1.384   3.872  12.238  0.3675 -0.5297  0.1112
 2465TIP3    H128886   1.385   3.790  12.190 -1.6566 -0.8474  0.4939
 2465TIP3    H228887   1.372   3.939  12.170 -0.8129 -0.8271  0.0059
 2466TIP3   OH228888   5.806   3.135  11.288 -0.2242 -0.4276 -0.3684
 2466TIP3    H128889   5.844   3.188  11.218  1.1075 -0.6548  0.1429
 2466TIP3    H228890   5.726   3.181  11.312 -0.2496  0.1337 -1.4281
 2467TIP3   OH228891   0.199   0.960  11.406  0.4527  0.1150  0.1488
 2467TIP3    H128892   0.215   0.908  11.485  1.8717  0.9775  0.4618
 2467TIP3    H228893   0.106   0.980  11.409  0.7029  1.2673  2.3507
 2468TIP3   OH228894   2.837   3.971   5.645 -0.1649 -0.1746  0.1039
 2468TIP3    H128895   2.886   4.047   5.676 -0.1193 -0.1003 -0.1435
 2468TIP3    H228896   2.840   3.909   5.717 -1.6006  0.6875  0.9522
 2469TIP3   OH228897   0.493   3.605   1.513 -0.3775 -0.1271  0.0691
 2469TIP3    H128898   0.421   3.652   1.471 -0.3893 -0.2307 -0.0245
 2469TIP3    H228899   0.534   3.671   1.570 -0.8956 -0.2216  0.5607
 2470TIP3   OH228900   0.722   2.487  15.115  0.0970 -0.8695 -0.1498
 2470TIP3    H128901   0.761   2.496  15.029  0.4894  0.1427  0.1196
 2470TIP3    H228902   0.628   2.488  15.099  0.1511  0.6950 -0.4516
 2471TIP3   OH228903   1.619   3.017   2.574  0.2267  0.3818 -0.1843
 2471TIP3    H128904   1.697   3.022   2.519  1.4071  2.0494  1.5266
 2471TIP3    H228905   1.557   3.078   2.533  0.3207  0.1005 -0.7568
 2472TIP3   OH228906   6.385   5.715   5.282 -0.0925  0.2635  0.0274
 2472TIP3    H128907   6.291   5.726   5.300  0.0987  0.4683  0.9147
 2472TIP3    H228908   6.410   5.799   5.242 -0.4243 -0.0435 -0.8645
 2473TIP3   OH228909   1.632   3.260  14.733  0.2425  0.2189  0.4364
 2473TIP3    H128910   1.538   3.252  14.723  0.5229 -2.3544 -1.4363
 2473TIP3    H228911   1.648   3.253  14.827 -1.3482 -1.7584  0.6268
 2474TIP3   OH228912   2.512   0.329   1.871  0.3589 -0.1515  0.5424
 2474TIP3    H128913   2.567   0.271   1.923 -0.4179  0.3282  1.9388
 2474TIP3    H228914   2.436   0.275   1.848  1.7488 -1.1267 -2.2128
 2475TIP3   OH228915   5.324   4.726   2.637  0.0918 -0.3673  0.4164
 2475TIP3    H128916   5.411   4.688   2.627  0.4370  0.7287 -1.2060
 2475TIP3    H228917   5.273   4.688   2.566  0.6873  2.6768 -1.8267
 2476TIP3   OH228918   6.200   2.746  16.603  0.4847  0.3847 -0.1283
 2476TIP3    H128919   6.205   2.710  16.514 -0.1685 -0.4487  0.1638
 2476TIP3    H228920   6.285   2.788  16.616  1.1783 -0.8266 -0.5749
 2477TIP3   OH228921   2.712   4.478  15.830 -0.2101  0.3150 -0.9218
 2477TIP3    H128922   2.689   4.393  15.792  0.1532 -0.3236  0.2382
 2477TIP3    H228923   2.639   4.500  15.887  0.3888  0.0265 -0.0280
 2478TIP3   OH228924   5.219   1.328   2.716  0.7329  0.7030  0.3369
 2478TIP3    H128925   5.144   1.288   2.761  0.4270  0.8398 -0.0444
 2478TIP3    H228926   5.284   1.258   2.712  0.4540  0.4426  0.2669
 2479TIP3   OH228927   3.003   0.261   4.859 -0.2168 -0.4267 -0.0053
 2479TIP3    H128928   3.079   0.269   4.801  1.8074 -0.8534  2.3809
 2479TIP3    H228929   3.007   0.170   4.890 -0.5944  0.0756  1.5742
 2480TIP3   OH228930   4.378   3.697   2.017 -0.0718  0.0380 -0.3227
 2480TIP3    H128931   4.330   3.649   1.949 -1.0320 -0.2606  0.5389
 2480TIP3    H228932   4.433   3.631   2.058  0.3175  0.1658 -0.6313
 2481TIP3   OH228933   4.651   5.253   3.970  0.3355  0.5187  0.8027
 2481TIP3    H128934   4.643   5.215   4.057 -0.8793 -1.4798 -0.1018
 2481TIP3    H228935   4.697   5.186   3.919 -0.4052  0.9255 -0.4619
 2482TIP3   OH228936   1.795   4.916   3.170  0.1744 -0.1032 -0.1103
 2482TIP3    H128937   1.879   4.922   3.214 -0.0628 -0.3229  0.3845
 2482TIP3    H228938   1.782   4.822   3.155 -0.5244 -0.1869  0.9073
 2483TIP3   OH228939   6.066   2.305  11.906  0.4356  0.0980 -0.0322
 2483TIP3    H128940   6.019   2.359  11.842 -1.6832 -1.6213 -0.0592
 2483TIP3    H228941   6.089   2.225  11.858 -0.2537 -0.7760  1.0365
 2484TIP3   OH228942   6.215   2.436   4.168  0.5673  0.5726 -0.0590
 2484TIP3    H128943   6.304   2.401   4.157  0.9841  0.9725  1.7824
 2484TIP3    H228944   6.161   2.380   4.111  1.8680 -0.1663 -0.6266
 2485TIP3   OH228945   0.453   6.613   1.530  0.2863  0.1218  0.0555
 2485TIP3    H128946   0.366   6.619   1.491 -0.1636 -0.3863  0.9561
 2485TIP3    H228947   0.457   6.686   1.592  0.1542 -0.3965  0.6805
 2486TIP3   OH228948   4.628   0.581  10.425 -0.0489  0.7625  0.7587
 2486TIP3    H128949   4.582   0.542  10.351 -1.3962  3.7744 -0.1642
 2486TIP3    H228950   4.720   0.557  10.412 -0.2949  0.9513 -1.7343
 2487TIP3   OH228951   4.935   3.051   0.065 -0.0952 -0.2426  0.2214
 2487TIP3    H128952   4.937   2.990   0.139  1.2141 -0.9010 -0.3153
 2487TIP3    H228953   4.987   3.125   0.094  0.1176 -0.3420  0.0964
 2488TIP3   OH228954   6.414   2.408   5.544 -0.1240 -0.6419 -0.9374
 2488TIP3    H128955   6.326   2.375   5.530 -0.1768 -0.5020 -0.9377
 2488TIP3    H228956   6.403   2.502   5.559 -0.1492 -0.9226  0.9900
 2489TIP3   OH228957   1.549   0.062  15.222  0.1043  0.3600 -0.6308
 2489TIP3    H128958   1.499   0.122  15.277 -4.4262 -2.3284 -1.3438
 2489TIP3    H228959   1.557   0.107  15.138 -2.6355  0.3775 -0.9608
 2490TIP3   OH228960   5.965   6.048  12.201  0.2153 -0.6462 -0.6142
 2490TIP3    H128961   5.937   6.060  12.110 -0.1951  0.1925 -0.3806
 2490TIP3    H228962   5.965   6.136  12.238  1.5326 -0.8261 -0.1241
 2491TIP3   OH228963   5.430   5.451  12.212  0.1942  0.0441  0.2183
 2491TIP3    H128964   5.408   5.415  12.126 -1.9399  0.5016  0.5111
 2491TIP3    H228965   5.476   5.380  12.256  0.7444 -0.4252 -1.0644
 2492TIP3   OH228966   5.034   3.167   4.767 -0.7016 -0.8687  0.7295
 2492TIP3    H128967   4.966   3.229   4.793 -0.0173  0.0580  0.3867
 2492TIP3    H228968   5.113   3.197   4.812  0.1665 -0.1046 -1.1718
 2493TIP3   OH228969   6.094   3.811  12.517 -0.1168  0.5623  0.2400
 2493TIP3    H128970   6.127   3.799  12.428 -1.0412 -1.1305  0.0820
 2493TIP3    H228971   6.003   3.840  12.505  0.3771  2.4429  0.6693
 2494TIP3   OH228972   3.377   6.546   3.215 -0.0980  0.8002  0.0848
 2494TIP3    H128973   3.345   6.636   3.223  0.5432  1.2359 -1.7923
 2494TIP3    H228974   3.472   6.554   3.218 -0.0176  0.2861 -0.9250
 2495TIP3   OH228975   1.318   3.987  11.204  0.2318 -0.3273  0.1390
 2495TIP3    H128976   1.345   4.008  11.293  4.6564  0.7839 -1.2295
 2495TIP3    H228977   1.339   3.894  11.194  2.7016  0.2283 -0.5122
 2496TIP3   OH228978   2.195   5.251  16.821 -0.2742 -0.2099  0.2829
 2496TIP3    H128979   2.181   5.296  16.737 -0.0959 -1.5622 -0.4897
 2496TIP3    H228980   2.121   5.191  16.828 -0.1107 -0.3361  0.9570
 2497TIP3   OH228981   3.207   0.858  16.931  0.1249 -0.3551  0.0324
 2497TIP3    H128982   3.148   0.876  17.004 -1.2610 -2.7718 -0.4075
 2497TIP3    H228983   3.294   0.855  16.971 -0.1551  1.6990  0.9560
 2498TIP3   OH228984   4.074   0.551   2.875 -0.0288 -0.3087 -0.1423
 2498TIP3    H128985   3.991   0.535   2.920 -0.5548 -0.3983 -1.1185
 2498TIP3    H228986   4.050   0.557   2.782  0.9110  0.6584 -0.3478
 2499TIP3   OH228987   2.017   2.916  12.536 -0.0788 -0.6453 -1.0885
 2499TIP3    H128988   2.087   2.980  12.523 -0.2551 -0.1949  0.0406
 2499TIP3    H228989   1.992   2.889  12.448 -0.3591  1.2569 -1.6415
 2500TIP3   OH228990   3.676   0.211  16.707 -0.0898  0.7494 -0.4244
 2500TIP3    H128991   3.750   0.225  16.767 -0.4939  1.1259 -0.0012
 2500TIP3    H228992   3.643   0.300  16.689  0.0223  0.6409 -1.2026
 2501TIP3   OH228993   5.658   3.019  12.172 -0.0676 -0.6916 -0.1133
 2501TIP3    H128994   5.582   2.968  12.145 -1.0429  1.3096 -1.4433
 2501TIP3    H228995   5.648   3.031  12.266  0.2344 -2.9329  0.2417
 2502TIP3   OH228996   0.115   1.197   5.701 -0.2704  0.7358  0.4124
 2502TIP3    H128997   0.112   1.178   5.795 -1.2507 -0.9693  0.0709
 2502TIP3    H228998   0.209   1.204   5.681 -0.0368  0.6199  1.4343
 2503TIP3   OH228999   3.060   3.256   1.324 -0.2338  0.5561  0.0164
 2503TIP3    H129000   3.060   3.196   1.249 -1.5845 -0.6907  0.9469
 2503TIP3    H229001   3.052   3.198   1.400 -1.6293  1.9120  0.9649
 2504TIP3   OH229002   6.112   5.878  11.232  0.2773  0.1914 -0.4319
 2504TIP3    H129003   6.111   5.783  11.244 -0.0819  0.0356 -1.5831
 2504TIP3    H229004   6.038   5.910  11.282  0.7075 -0.0710  0.3873
 2505TIP3   OH229005   5.588   1.745  12.390  0.9106 -0.0309 -0.0192
 2505TIP3    H129006   5.665   1.703  12.353  1.8363  1.2322  0.3868
 2505TIP3    H229007   5.593   1.835  12.359  1.1133  0.7811  2.2074
 2506TIP3   OH229008   3.467   1.468  14.106  0.0545  0.2808  0.2333
 2506TIP3    H129009   3.554   1.504  14.086 -0.1118  0.6362  0.1454
 2506TIP3    H229010   3.475   1.436  14.196  0.3620  0.0528  0.1258
 2507TIP3   OH229011   0.348   6.268  11.848  0.4834 -0.2907  0.3398
 2507TIP3    H129012   0.310   6.183  11.826  1.2881 -0.0770 -2.0696
 2507TIP3    H229013   0.441   6.258  11.830  0.7240  0.8454  0.8917
 2508TIP3   OH229014   3.037   0.493   3.984  0.1864 -0.5871 -0.2678
 2508TIP3    H129015   3.036   0.575   3.934 -2.3726 -1.0018 -1.0256
 2508TIP3    H229016   2.963   0.501   4.044  1.5678 -1.2599  1.6155
 2509TIP3   OH229017   1.287   4.433   4.195  0.4827  0.2106 -0.0131
 2509TIP3    H129018   1.270   4.369   4.126  2.1564 -0.5269  0.2211
 2509TIP3    H229019   1.288   4.517   4.151  2.0123 -0.2972 -0.9862
 2510TIP3   OH229020   0.786   0.008   3.867  0.4341 -0.3946 -0.5787
 2510TIP3    H129021   0.836  -0.065   3.832  2.0003 -0.1015  0.9446
 2510TIP3    H229022   0.705   0.009   3.814  1.2368 -1.9635 -1.9254
 2511TIP3   OH229023   0.668   2.550  12.717 -0.2800  0.0649 -0.9217
 2511TIP3    H129024   0.588   2.561  12.665 -2.1894  1.4375  2.0316
 2511TIP3    H229025   0.637   2.519  12.802  2.5818 -1.2903 -0.2535
 2512TIP3   OH229026   1.554   4.399   2.262 -0.0803  0.5935 -0.2068
 2512TIP3    H129027   1.529   4.396   2.355 -0.0893 -1.3621 -0.2314
 2512TIP3    H229028   1.524   4.316   2.227 -0.4190  1.4587 -2.0874
 2513TIP3   OH229029   2.429   4.423   2.165 -0.3302  0.0123  0.1601
 2513TIP3    H129030   2.519   4.403   2.140  0.0108  2.1702 -0.5193
 2513TIP3    H229031   2.375   4.369   2.106  0.5036 -0.4354 -0.2038
 2514TIP3   OH229032   4.290   3.365   2.113 -0.0176  0.4408 -0.5578
 2514TIP3    H129033   4.309   3.314   2.192  1.3596  0.5086 -0.8078
 2514TIP3    H229034   4.372   3.362   2.063 -0.1229  2.2808 -0.9178
 2515TIP3   OH229035   4.499   6.634   5.065 -0.2656  0.0595  0.2025
 2515TIP3    H129036   4.518   6.728   5.067 -1.8143  0.4307 -0.9500
 2515TIP3    H229037   4.582   6.594   5.039  0.6619  1.0032  1.5830
 2516TIP3   OH229038   1.853   1.428   4.996 -0.0844  0.2227  0.5830
 2516TIP3    H129039   1.854   1.517   5.033  0.1443  1.8170 -2.8133
 2516TIP3    H229040   1.760   1.408   4.984 -0.1160  0.6375  0.0845
 2517TIP3   OH229041   0.807   5.877  15.154  0.1341  0.2129 -0.3709
 2517TIP3    H129042   0.731   5.819  15.147  0.7714 -0.7314  0.3317
 2517TIP3    H229043   0.817   5.913  15.066 -0.8989  0.0604 -0.5629
 2518TIP3   OH229044   1.787   5.267   6.258 -0.2023  0.5673 -0.7330
 2518TIP3    H129045   1.776   5.174   6.238 -0.4662  0.5746 -0.6308
 2518TIP3    H229046   1.857   5.269   6.323 -1.4363  0.2660  0.6556
 2519TIP3   OH229047   1.890   2.055  14.957 -0.2008  0.2771 -0.1625
 2519TIP3    H129048   1.982   2.080  14.949 -0.6283  2.0400 -0.0026
 2519TIP3    H229049   1.852   2.121  15.014 -1.6181 -0.3076 -0.3874
 2520TIP3   OH229050   2.724   1.671   0.141 -0.0836  0.1129  0.6789
 2520TIP3    H129051   2.754   1.653   0.051 -0.2112  2.4722  0.1038
 2520TIP3    H229052   2.629   1.678   0.133 -0.0132  1.3780  0.7539
 2521TIP3   OH229053   5.533   1.169  14.051 -0.0688 -0.4319  0.4637
 2521TIP3    H129054   5.517   1.195  13.961 -1.1000  0.7673  0.9638
 2521TIP3    H229055   5.554   1.076  14.046  0.7125 -0.1989 -1.0847
 2522TIP3   OH229056   2.794   2.226   2.164 -0.8777  0.0671  0.2658
 2522TIP3    H129057   2.818   2.256   2.076 -0.4898  0.6076  0.5492
 2522TIP3    H229058   2.699   2.238   2.168 -0.7881  0.8884  0.2197
 2523TIP3   OH229059   6.311   1.486   0.029  0.0166 -0.0844  0.6798
 2523TIP3    H129060   6.362   1.566   0.039  0.8875 -0.5131 -0.2106
 2523TIP3    H229061   6.364   1.418   0.069 -1.1793 -0.0845  2.3573
 2524TIP3   OH229062   3.935   5.052   0.361 -0.4944  0.0447  0.2550
 2524TIP3    H129063   3.989   4.982   0.326 -1.2678 -1.1657  1.3967
 2524TIP3    H229064   3.989   5.090   0.431  0.1323  0.9680 -0.6972
 2525TIP3   OH229065   2.649   3.057   2.613  0.3067 -0.4369 -0.2795
 2525TIP3    H129066   2.740   3.085   2.613  0.5513 -1.2194 -0.4079
 2525TIP3    H229067   2.621   3.066   2.704  0.2033  0.7390 -0.4039
 2526TIP3   OH229068   3.873   6.606  15.401 -0.9111  0.1900 -0.1576
 2526TIP3    H129069   3.920   6.598  15.318 -1.3629 -1.7140 -0.2731
 2526TIP3    H229070   3.872   6.517  15.436 -1.4018  0.8278  1.5218
 2527TIP3   OH229071   4.253   5.369   2.493 -0.7779  0.4190  0.4906
 2527TIP3    H129072   4.340   5.373   2.453 -0.4533 -0.7504  1.0513
 2527TIP3    H229073   4.247   5.448   2.547 -0.6599  1.2707 -0.7103
 2528TIP3   OH229074   4.132   6.103   6.169  0.5412  0.5474 -0.0462
 2528TIP3    H129075   4.119   6.107   6.075 -0.0141 -0.7421 -0.0486
 2528TIP3    H229076   4.222   6.070   6.179  0.8764  1.4136 -0.1016
 2529TIP3   OH229077   5.227   0.138  11.287  0.0887  0.1933  0.3756
 2529TIP3    H129078   5.234   0.043  11.284  2.7493  0.2989  0.9736
 2529TIP3    H229079   5.199   0.157  11.376 -0.2198 -0.0133  0.3254
 2530TIP3   OH229080   5.295   1.082  13.825 -0.5342 -0.3734  0.0459
 2530TIP3    H129081   5.271   0.995  13.858 -2.1210 -0.0809 -0.2635
 2530TIP3    H229082   5.354   1.064  13.752 -0.6918 -1.1982  0.1063
 2531TIP3   OH229083   5.884   5.597  12.897  0.3480  0.4843 -0.6934
 2531TIP3    H129084   5.968   5.559  12.873 -0.0384 -0.7180 -0.2274
 2531TIP3    H229085   5.888   5.687  12.866  1.5491  0.2489 -1.2591
 2532TIP3   OH229086   3.048   4.158   4.779 -0.0292  0.1051 -0.3148
 2532TIP3    H129087   2.975   4.212   4.809  0.2659  0.8991 -1.0192
 2532TIP3    H229088   3.123   4.187   4.833 -0.1167 -0.3816  0.0781
 2533TIP3   OH229089   0.998   4.653   2.223 -0.1375 -0.1036 -0.5312
 2533TIP3    H129090   1.017   4.563   2.248 -0.8757 -0.2144 -0.3271
 2533TIP3    H229091   1.083   4.692   2.204  0.6163  0.1457  2.7520
 2534TIP3   OH229092   4.425   2.847  16.537  0.0621  0.1167 -0.3849
 2534TIP3    H129093   4.376   2.903  16.476 -0.0191 -0.4592 -0.8575
 2534TIP3    H229094   4.392   2.870  16.623 -0.4479  0.3238 -0.6327
 2535TIP3   OH229095   1.628   5.587  10.866 -0.6595 -0.2410 -0.0601
 2535TIP3    H129096   1.585   5.618  10.945 -0.9577 -1.9450  0.4777
 2535TIP3    H229097   1.617   5.659  10.803 -1.7247  0.5281  0.9669
 2536TIP3   OH229098   1.049   6.237   4.812  0.2683 -0.0519  0.4222
 2536TIP3    H129099   1.044   6.305   4.879  1.1818  0.9376 -0.4721
 2536TIP3    H229100   0.958   6.219   4.789  0.0123  1.6966 -0.1189
 2537TIP3   OH229101   3.063   5.229  11.519 -0.3312 -0.2148 -0.2818
 2537TIP3    H129102   3.019   5.158  11.472 -1.2271 -1.4747  2.2940
 2537TIP3    H229103   3.039   5.308  11.470 -1.9631 -1.3263 -1.3925
 2538TIP3   OH229104   3.487   1.621  11.845 -0.3577  0.8468 -0.4145
 2538TIP3    H129105   3.525   1.704  11.873  1.2890  0.2625 -0.7867
 2538TIP3    H229106   3.498   1.619  11.750 -0.5364  0.2814 -0.4310
 2539TIP3   OH229107   0.358   0.365   0.220  0.2427  0.0389 -0.1682
 2539TIP3    H129108   0.278   0.412   0.245  0.0168  0.9855 -2.4244
 2539TIP3    H229109   0.352   0.282   0.267 -1.9234  0.1983 -0.0265
 2540TIP3   OH229110   0.842   4.352  16.609 -0.3519 -0.4375 -1.2360
 2540TIP3    H129111   0.808   4.295  16.540 -0.3872 -0.1125 -1.4857
 2540TIP3    H229112   0.926   4.383  16.576 -0.6875  0.2766 -1.4364
 2541TIP3   OH229113   3.305   4.582  14.033 -0.3292 -0.1934 -0.5552
 2541TIP3    H129114   3.210   4.570  14.034 -0.5375  1.2712 -0.0648
 2541TIP3    H229115   3.339   4.499  14.001 -1.9010 -0.0882 -2.7808
 2542TIP3   OH229116   3.456   5.403  14.010  0.2522  0.2388 -0.0428
 2542TIP3    H129117   3.497   5.475  13.962  1.5819  0.0432  0.7529
 2542TIP3    H229118   3.491   5.324  13.969  0.0571  0.0607  0.1362
 2543TIP3   OH229119   6.444   0.960  14.640  0.5987 -0.4087  0.1909
 2543TIP3    H129120   6.386   0.885  14.656 -0.3812  0.6634  1.8953
 2543TIP3    H229121   6.528   0.933  14.677 -0.4119  0.2212  3.1990
 2544TIP3   OH229122   0.060   0.009  11.963  0.3299 -0.5617  0.6831
 2544TIP3    H129123   0.035  -0.083  11.960 -1.0139 -0.1848 -0.0070
 2544TIP3    H229124   0.140   0.014  11.911  0.7795 -1.4302  1.2630
 2545TIP3   OH229125   1.537   3.245   4.998  0.2193 -0.1378 -0.1204
 2545TIP3    H129126   1.451   3.207   4.980 -0.2806  1.5466 -1.5367
 2545TIP3    H229127   1.518   3.329   5.041  1.0613  0.8743 -1.6248
 2546TIP3   OH229128   1.037   0.113  16.363  0.2170  0.4535 -0.1707
 2546TIP3    H129129   1.001   0.085  16.447  2.1197 -1.1288  0.1999
 2546TIP3    H229130   1.106   0.176  16.386 -0.6966  1.6850 -0.7109
 2547TIP3   OH229131   4.129   6.760  12.676 -0.7177 -0.3731  0.6014
 2547TIP3    H129132   4.098   6.848  12.695 -0.7090 -0.3997  0.7378
 2547TIP3    H229133   4.191   6.740  12.746  0.7572  0.2480 -0.4736
 2548TIP3   OH229134   1.853   2.038   0.813  0.3814  0.1152  0.2016
 2548TIP3    H129135   1.875   2.013   0.723 -1.0183  1.8087 -0.6913
 2548TIP3    H229136   1.758   2.049   0.812  0.3309  0.0916  1.9194
 2549TIP3   OH229137   1.570   0.406  12.431 -0.3424  0.7085 -0.3674
 2549TIP3    H129138   1.654   0.453  12.425  0.9037 -1.3154  0.3067
 2549TIP3    H229139   1.575   0.339  12.363 -0.4079 -0.9091  1.1775
 2550TIP3   OH229140   1.392   4.228  12.279 -0.3011  0.3170 -0.4684
 2550TIP3    H129141   1.483   4.248  12.301  0.4202 -1.7024 -1.4674
 2550TIP3    H229142   1.341   4.266  12.352  1.3514  1.0447  0.3535
 2551TIP3   OH229143   3.005   3.225  11.637 -0.0579 -0.0991  0.3242
 2551TIP3    H129144   3.022   3.289  11.567 -0.9878 -0.6372 -0.4056
 2551TIP3    H229145   2.993   3.279  11.715  0.8562  0.5212  0.0622
 2552TIP3   OH229146   5.998   4.158  12.703 -0.3459  0.5256 -0.1820
 2552TIP3    H129147   5.978   4.243  12.662 -0.9065  0.3891 -0.1972
 2552TIP3    H229148   6.075   4.127  12.655 -0.7231  0.5775 -0.8403
 2553TIP3   OH229149   3.128   1.644   4.722  0.3462 -0.5297 -0.5483
 2553TIP3    H129150   3.147   1.625   4.814  3.0314 -2.4351 -1.3745
 2553TIP3    H229151   3.131   1.740   4.716  1.3018 -0.4216  1.1398
 2554TIP3   OH229152   5.520   6.790   2.599  0.2956  0.0232 -0.1136
 2554TIP3    H129153   5.466   6.778   2.677 -0.8681  0.0472 -0.9057
 2554TIP3    H229154   5.514   6.707   2.552 -1.9616  1.1270 -1.9757
 2555TIP3   OH229155   5.919   4.580  13.661  1.0479 -0.3676  0.2676
 2555TIP3    H129156   5.977   4.565  13.735  0.1242  2.8757  1.8477
 2555TIP3    H229157   5.969   4.636  13.602  0.0016  1.6062  1.1601
 2556TIP3   OH229158   3.200   3.632  11.729 -0.4942  0.1913 -0.1391
 2556TIP3    H129159   3.253   3.676  11.795 -0.6316  0.8581 -0.4678
 2556TIP3    H229160   3.145   3.701  11.691 -2.1861 -0.6045  0.7379
 2557TIP3   OH229161   1.675   2.587   1.205  0.0067  0.2404 -0.1182
 2557TIP3    H129162   1.614   2.660   1.195  1.3136  1.3825 -0.1106
 2557TIP3    H229163   1.760   2.625   1.183  0.9654 -0.8437  1.5818
 2558TIP3   OH229164   5.324   4.045  15.655 -0.1404  0.4243 -0.7677
 2558TIP3    H129165   5.391   4.062  15.590  1.0167 -0.5727  0.1163
 2558TIP3    H229166   5.336   4.114  15.721  0.0843  0.1924 -0.5638
 2559TIP3   OH229167   4.775   6.539   3.908  0.1587  0.1990 -0.2885
 2559TIP3    H129168   4.865   6.573   3.911 -0.2204  1.2150 -0.0084
 2559TIP3    H229169   4.758   6.509   3.997 -0.0498  0.7627 -0.1315
 2560TIP3   OH229170   1.843   1.051  11.187 -0.7472 -0.2953 -0.9292
 2560TIP3    H129171   1.868   1.055  11.095  0.7866 -1.8066 -0.6248
 2560TIP3    H229172   1.888   1.124  11.228  2.1640 -2.0895 -0.6748
 2561TIP3   OH229173   5.419   1.795  14.079  0.0739  0.0773 -0.0991
 2561TIP3    H129174   5.340   1.813  14.130  0.5248 -0.4361  0.7969
 2561TIP3    H229175   5.475   1.746  14.138  0.5141 -0.7528 -1.1767
 2562TIP3   OH229176   2.280   6.368  11.181 -0.1517  0.6720  0.2508
 2562TIP3    H129177   2.284   6.401  11.091  0.8938  1.7936  0.6748
 2562TIP3    H229178   2.347   6.301  11.185  0.1305  0.9546  0.3115
 2563TIP3   OH229179   5.589   6.003   6.311 -0.6014 -0.5319  0.5211
 2563TIP3    H129180   5.509   5.956   6.334 -0.0484 -1.2812  0.9850
 2563TIP3    H229181   5.593   6.075   6.373 -1.2302 -0.1226  0.0957
 2564TIP3   OH229182   4.120   6.055   1.646 -0.0029 -0.3591  0.2612
 2564TIP3    H129183   4.092   5.985   1.706  0.3750  0.0079  0.8870
 2564TIP3    H229184   4.045   6.069   1.588 -0.8324  0.0473  1.3752
 2565TIP3   OH229185   4.437   3.948   6.031 -0.7444  0.0982  0.0559
 2565TIP3    H129186   4.449   4.041   6.016 -0.5956  0.7808  3.5303
 2565TIP3    H229187   4.524   3.916   6.053 -1.0165 -0.5960  0.1502
 2566TIP3   OH229188   5.232   4.253   5.571  0.1637  0.1297  0.0498
 2566TIP3    H129189   5.286   4.293   5.640 -1.8360  0.5850  1.4202
 2566TIP3    H229190   5.224   4.321   5.505  1.8799 -0.2194 -0.5828
 2567TIP3   OH229191   4.077   5.932  11.905 -0.0526  0.4033 -0.3058
 2567TIP3    H129192   4.108   5.946  11.816  0.4634  1.3877  0.0172
 2567TIP3    H229193   4.157   5.930  11.958 -0.3614 -0.0348  0.1596
 2568TIP3   OH229194   1.190   4.686   2.567  0.0571  0.3222  0.2761
 2568TIP3    H129195   1.226   4.728   2.645  1.1488  0.1150 -0.1060
 2568TIP3    H229196   1.169   4.597   2.595  1.4822 -0.1017  0.0730
 2569TIP3   OH229197   2.647   1.795  15.218 -0.1914 -0.3954 -0.2066
 2569TIP3    H129198   2.659   1.888  15.201 -1.9348 -0.2040 -0.6068
 2569TIP3    H229199   2.726   1.753  15.183  0.5400  0.8983 -0.1518
 2570TIP3   OH229200   2.107   3.868   1.923  0.0488  0.1858  0.5645
 2570TIP3    H129201   2.055   3.793   1.954  0.1276 -0.5211 -0.8848
 2570TIP3    H229202   2.065   3.892   1.840  1.6035  0.0320 -0.3076
 2571TIP3   OH229203   6.290   4.613   4.462  0.7315 -0.6484 -0.0009
 2571TIP3    H129204   6.327   4.577   4.543  0.2945  1.4493  1.1875
 2571TIP3    H229205   6.197   4.623   4.481  0.6076 -0.2361 -0.8173
 2572TIP3   OH229206   1.590   4.635  13.122 -0.3990 -0.2550 -0.0299
 2572TIP3    H129207   1.518   4.630  13.059 -1.0041 -0.7348  0.6922
 2572TIP3    H229208   1.667   4.605  13.073 -0.2215  2.1879 -1.4475
 2573TIP3   OH229209   5.971   0.604  12.421 -0.3516 -0.5031 -0.0014
 2573TIP3    H129210   5.897   0.598  12.481 -1.1009  2.0380 -0.5387
 2573TIP3    H229211   6.043   0.558  12.465 -1.2046  0.2306  2.2710
 2574TIP3   OH229212   6.200   2.781  14.840 -0.4533 -0.4221  1.0258
 2574TIP3    H129213   6.141   2.706  14.834  0.8942 -1.6880  2.8562
 2574TIP3    H229214   6.146   2.855  14.811 -2.7999 -1.5892  2.1550
 2575TIP3   OH229215   3.356   2.373   4.313  0.3303  0.0887  0.2632
 2575TIP3    H129216   3.363   2.460   4.273  0.0370  1.1667  2.4045
 2575TIP3    H229217   3.353   2.391   4.407  0.0396 -2.2517  0.7427
 2576TIP3   OH229218   4.301   1.988   4.062 -0.5091 -0.3148 -0.0838
 2576TIP3    H129219   4.247   1.908   4.064 -1.0183  0.0402  1.0052
 2576TIP3    H229220   4.358   1.980   4.138 -0.9972  0.6530  0.3972
 2577TIP3   OH229221   4.532   1.261   1.976  0.6590 -0.0821  0.5502
 2577TIP3    H129222   4.481   1.255   1.895  1.2863  1.2594  0.0276
 2577TIP3    H229223   4.528   1.353   2.001  0.1105 -0.5405  2.3213
 2578TIP3   OH229224   2.053   6.216   3.719 -0.1071 -0.3715 -0.2505
 2578TIP3    H129225   2.053   6.300   3.672 -0.0430 -0.4856 -0.4598
 2578TIP3    H229226   2.056   6.239   3.811 -2.8654 -0.0717 -0.1615
 2579TIP3   OH229227   0.444   3.204   2.102 -0.6194 -0.0002  0.3528
 2579TIP3    H129228   0.481   3.135   2.158  0.8396  0.7807  0.4023
 2579TIP3    H229229   0.412   3.157   2.025  0.7060 -0.7213  0.2105
 2580TIP3   OH229230   1.382   4.032   4.857  0.1619 -0.9119  0.3730
 2580TIP3    H129231   1.464   4.082   4.859 -0.2679 -0.0747 -1.1417
 2580TIP3    H229232   1.406   3.950   4.814  0.1316 -0.4909 -0.4645
 2581TIP3   OH229233   6.397   5.090   2.246  0.6735  0.6444  0.6708
 2581TIP3    H129234   6.310   5.119   2.274 -0.4927  0.1403 -2.0637
 2581TIP3    H229235   6.420   5.149   2.174  0.6859 -1.6744 -1.3605
 2582TIP3   OH229236   4.272   5.942  15.165  0.0428 -0.6560  0.4078
 2582TIP3    H129237   4.180   5.916  15.170 -0.7267  1.3359 -1.5732
 2582TIP3    H229238   4.317   5.884  15.226 -2.3391 -2.4847  0.5635
 2583TIP3   OH229239   0.340   5.478   3.200  1.0176 -0.4924  0.5141
 2583TIP3    H129240   0.387   5.425   3.136  0.2012 -0.3547 -0.2147
 2583TIP3    H229241   0.300   5.414   3.259  1.3594 -0.6334  0.5980
 2584TIP3   OH229242   5.478   2.121  11.733  0.4600 -0.7182  0.3495
 2584TIP3    H129243   5.498   2.031  11.707  1.2884 -0.5598  0.4275
 2584TIP3    H229244   5.559   2.154  11.773  0.7134  0.6089 -1.1672
 2585TIP3   OH229245   2.305   1.782   2.726  0.1228 -0.5693 -0.0221
 2585TIP3    H129246   2.354   1.718   2.778  2.1782 -0.0464 -1.1981
 2585TIP3    H229247   2.285   1.736   2.645  0.4138 -0.1610 -0.3285
 2586TIP3   OH229248   0.997   3.212  15.172 -0.1936 -0.0326  0.2893
 2586TIP3    H129249   1.028   3.151  15.239 -1.5138  0.1912  1.1517
 2586TIP3    H229250   0.991   3.297  15.217  0.3671  0.4555 -0.5383
 2587TIP3   OH229251   5.313   4.641   0.299 -0.0254  0.6062 -0.2538
 2587TIP3    H129252   5.270   4.555   0.293  0.1239  0.6168 -1.6808
 2587TIP3    H229253   5.396   4.629   0.254  0.4626  1.2258  0.4646
 2588TIP3   OH229254   5.866   0.283   1.992  0.5800  0.3691  0.0197
 2588TIP3    H129255   5.859   0.289   2.088 -0.5608  0.1472 -0.0356
 2588TIP3    H229256   5.868   0.189   1.975  0.8712  0.4106 -0.1786
 2589TIP3   OH229257   3.042   0.566   4.859 -0.2655 -0.2122  0.3988
 2589TIP3    H129258   3.093   0.609   4.928 -1.9823 -0.6254  2.0230
 2589TIP3    H229259   3.051   0.473   4.878 -0.3463 -0.3582 -0.2607
 2590TIP3   OH229260   6.530   0.825  16.463  0.6708 -0.0050 -0.1576
 2590TIP3    H129261   6.588   0.763  16.418 -0.4411 -2.4115  1.5166
 2590TIP3    H229262   6.571   0.910  16.449  1.6100 -0.8610 -3.6461
 2591TIP3   OH229263   0.747   6.020   1.703 -0.1861 -0.0915  0.3555
 2591TIP3    H129264   0.797   6.095   1.735 -0.4015  0.8561 -1.4095
 2591TIP3    H229265   0.655   6.045   1.717 -0.2483 -0.1900  0.1346
 2592TIP3   OH229266   1.813   6.331   5.133  0.0549  0.1929  0.0132
 2592TIP3    H129267   1.876   6.401   5.149 -0.6522  1.2689 -1.5682
 2592TIP3    H229268   1.789   6.299   5.220  2.2169  0.2279  0.6752
 2593TIP3   OH229269   3.314   2.649  16.264  0.1890 -0.3178  0.2986
 2593TIP3    H129270   3.243   2.585  16.264 -0.4353  0.3492 -1.1711
 2593TIP3    H229271   3.388   2.603  16.224 -0.5010  0.0956 -1.5308
 2594TIP3   OH229272   6.450   1.441   3.833  0.1067  0.1619  0.1633
 2594TIP3    H129273   6.493   1.445   3.918  0.1099  1.2128  0.1267
 2594TIP3    H229274   6.447   1.348   3.811  0.4197 -0.0844  1.1494
 2595TIP3   OH229275   5.564   0.620  12.169  0.0497 -0.6876 -0.4143
 2595TIP3    H129276   5.585   0.559  12.098 -0.6519 -1.2758 -0.1286
 2595TIP3    H229277   5.506   0.685  12.129  0.3254 -0.5353 -0.5736
 2596TIP3   OH229278   3.452   1.472  16.644  1.1765  0.7562  0.1866
 2596TIP3    H129279   3.547   1.479  16.638  1.0376  1.8261 -1.4253
 2596TIP3    H229280   3.425   1.550  16.692  1.1372  0.0996  1.2642
 2597TIP3   OH229281   6.570   5.282  12.474  0.2099 -0.6115  1.1712
 2597TIP3    H129282   6.542   5.305  12.385  1.4659 -2.6888  0.1473
 2597TIP3    H229283   6.489   5.257  12.518 -0.3022 -0.7999  0.1644
 2598TIP3   OH229284   1.807   5.771   3.914 -0.0869 -0.2786 -0.9204
 2598TIP3    H129285   1.758   5.715   3.974  0.8349 -1.1073 -0.9224
 2598TIP3    H229286   1.853   5.832   3.971  1.3515 -1.5186 -0.7088
 2599TIP3   OH229287   3.945   0.090  13.734  0.1740  1.0449 -0.3503
 2599TIP3    H129288   3.894   0.094  13.654 -0.8537 -0.8195  0.1382
 2599TIP3    H229289   4.012   0.024  13.717 -0.7010 -0.1506  0.6074
 2600TIP3   OH229290   0.987   2.412  16.766  0.3596 -0.4044  0.0985
 2600TIP3    H129291   0.995   2.317  16.775  0.1462 -0.3458  1.0564
 2600TIP3    H229292   1.055   2.435  16.703  1.3154 -1.0474  0.8456
 2601TIP3   OH229293   1.023   0.519  10.672 -0.1683 -0.2471 -0.0359
 2601TIP3    H129294   1.065   0.604  10.680  0.5567 -0.7569  2.0813
 2601TIP3    H229295   0.941   0.527  10.721 -0.9611 -0.2835 -1.2938
 2602TIP3   OH229296   6.785   3.260   4.303 -0.1996  0.5168  1.0241
 2602TIP3    H129297   6.786   3.200   4.378 -1.0953  0.1180  0.7305
 2602TIP3    H229298   6.750   3.207   4.231  1.5936  0.5792  0.0375
 2603TIP3   OH229299   1.009   4.927   2.180  0.1908 -0.4164  0.8041
 2603TIP3    H129300   0.987   4.836   2.200 -1.3688 -0.6083 -1.3611
 2603TIP3    H229301   0.925   4.973   2.185  0.7182  0.6072  0.4680
 2604TIP3   OH229302   1.144   1.857   3.183  0.0784  0.7232  0.2928
 2604TIP3    H129303   1.211   1.919   3.212 -0.2930  0.0530  2.8455
 2604TIP3    H229304   1.079   1.857   3.254  0.1375 -2.6340  0.4767
 2605TIP3   OH229305   4.546   1.268  11.902  0.3392 -0.0327  0.4606
 2605TIP3    H129306   4.506   1.288  11.817  2.8012 -0.8668 -1.0063
 2605TIP3    H229307   4.588   1.183  11.889  1.6725  0.3081  2.1683
 2606TIP3   OH229308   0.534   3.283  11.160 -0.4091  0.7417 -0.1759
 2606TIP3    H129309   0.531   3.377  11.144  3.0776  1.1743  0.8648
 2606TIP3    H229310   0.583   3.247  11.086 -1.6134 -0.2965 -0.5142
 2607TIP3   OH229311   5.096   5.115  15.971 -0.6190  0.0588  0.6350
 2607TIP3    H129312   5.074   5.115  16.064 -1.0757  0.2889  0.5330
 2607TIP3    H229313   5.041   5.046  15.933  1.4994 -1.8967  0.9481
 2608TIP3   OH229314   1.121   2.585  11.773 -0.5778  0.2946  0.4443
 2608TIP3    H129315   1.045   2.606  11.827 -0.6180  0.1342  0.4500
 2608TIP3    H229316   1.091   2.595  11.683 -0.4739  0.6927  0.4511
 2609TIP3   OH229317   2.288   1.094   2.775  0.0666  0.0779  0.0027
 2609TIP3    H129318   2.309   1.109   2.683  0.9667  0.1433  0.2054
 2609TIP3    H229319   2.281   1.182   2.813 -0.7660  0.0605 -0.0932
 2610TIP3   OH229320   3.391   4.811   4.217 -0.3626 -0.4150 -0.2940
 2610TIP3    H129321   3.300   4.790   4.235 -0.1210 -2.9639 -1.6071
 2610TIP3    H229322   3.432   4.818   4.303 -1.9415  1.9932  0.3703
 2611TIP3   OH229323   5.559   4.235   6.458 -0.4467 -0.1498 -0.2242
 2611TIP3    H129324   5.519   4.263   6.375  2.2441  1.3877 -1.1009
 2611TIP3    H229325   5.566   4.140   6.450 -2.8033 -0.3628 -0.4806
 2612TIP3   OH229326   1.086   5.436  16.230  0.1365 -0.1168  0.5877
 2612TIP3    H129327   1.112   5.365  16.289 -4.0107 -1.0001  1.7075
 2612TIP3    H229328   1.068   5.393  16.147  4.4166  0.8967 -1.0832
 2613TIP3   OH229329   2.479   4.897   3.532 -0.3160  0.4364 -0.1599
 2613TIP3    H129330   2.556   4.841   3.535 -1.9134 -1.9002  0.7852
 2613TIP3    H229331   2.495   4.965   3.597  0.0273 -1.3612  1.7259
 2614TIP3   OH229332   3.196   6.349   5.053 -0.6502  0.4145  0.3890
 2614TIP3    H129333   3.106   6.377   5.069 -0.3726  2.5843 -1.4424
 2614TIP3    H229334   3.191   6.299   4.971 -0.1629  0.7189  0.1696
 2615TIP3   OH229335   3.615   4.307   5.904  0.4648  0.5257  0.5505
 2615TIP3    H129336   3.556   4.332   5.833 -0.1043 -0.6216  0.5969
 2615TIP3    H229337   3.593   4.215   5.923  2.3820  0.0010  0.4576
 2616TIP3   OH229338   6.703   5.159   5.398  0.0124  1.1009 -0.9483
 2616TIP3    H129339   6.772   5.219   5.425  0.5806 -0.3535  1.1634
 2616TIP3    H229340   6.683   5.110   5.478  0.8606 -2.7262 -2.8509
 2617TIP3   OH229341   0.764   6.480   1.004  0.1970 -0.2470  0.0970
 2617TIP3    H129342   0.845   6.500   0.957  1.0233 -0.8738  1.2029
 2617TIP3    H229343   0.770   6.387   1.025 -0.3411 -0.0808  1.0604
 2618TIP3   OH229344   5.585   0.601  12.835  0.5091  0.3415 -0.4049
 2618TIP3    H129345   5.615   0.637  12.752  0.5519 -0.1185 -0.5924
 2618TIP3    H229346   5.599   0.671  12.898  2.3613  0.0176 -0.4022
 2619TIP3   OH229347   0.859   2.916  12.668  0.6398 -0.5165  0.4970
 2619TIP3    H129348   0.780   2.952  12.628  1.9340  1.4927 -0.4091
 2619TIP3    H229349   0.859   2.824  12.641 -1.1725 -0.4797  0.2235
 2620TIP3   OH229350   3.502   0.009  16.831  0.2637  0.3981 -0.0698
 2620TIP3    H129351   3.474   0.055  16.911 -1.1507 -1.0758  0.3272
 2620TIP3    H229352   3.588   0.047  16.811  0.7111  0.7508  2.2008
 2621TIP3   OH229353   2.738   6.676  15.868  0.5011 -0.4465 -0.0993
 2621TIP3    H129354   2.697   6.748  15.821  2.1573  1.5219  1.2773
 2621TIP3    H229355   2.682   6.662  15.944 -0.7668 -1.8706 -1.2396
 2622TIP3   OH229356   6.243   0.361   3.108  0.0411 -0.5729 -0.1675
 2622TIP3    H129357   6.203   0.288   3.155  0.5580 -1.2782 -0.7969
 2622TIP3    H229358   6.261   0.326   3.021  1.1068  0.0192 -0.2036
 2623TIP3   OH229359   1.667   4.855   2.161 -0.4635  0.3684  0.0923
 2623TIP3    H129360   1.648   4.910   2.085 -2.9690  0.3830  0.6335
 2623TIP3    H229361   1.617   4.775   2.146  0.2005 -0.2555  1.0514
 2624TIP3   OH229362   5.874   6.121  15.770 -0.4870 -0.4010 -0.1989
 2624TIP3    H129363   5.814   6.049  15.747  0.1672 -0.7790 -0.7692
 2624TIP3    H229364   5.903   6.100  15.858 -2.0358  0.3773  0.5392
 2625TIP3   OH229365   6.375   2.041   6.149  0.3412  0.5044 -0.0560
 2625TIP3    H129366   6.365   1.999   6.235 -1.1625  0.8727 -0.0188
 2625TIP3    H229367   6.394   2.133   6.169  3.2262  0.0103 -0.1411
 2626TIP3   OH229368   5.137   4.096  16.772 -0.5295  0.2641  0.2376
 2626TIP3    H129369   5.147   4.057  16.859  0.5327  2.1032  0.9935
 2626TIP3    H229370   5.208   4.058  16.720 -1.9995 -1.9079 -0.3039
 2627TIP3   OH229371   2.140   2.029   5.350  0.0463 -0.0714 -0.1232
 2627TIP3    H129372   2.071   2.096   5.348 -0.8000 -0.8804  0.6945
 2627TIP3    H229373   2.221   2.079   5.361 -0.6837  0.8112  1.8952
 2628TIP3   OH229374   1.760   5.232  13.009  0.2298  0.2916  0.1672
 2628TIP3    H129375   1.846   5.238  12.969 -0.1643 -1.4226 -1.0242
 2628TIP3    H229376   1.734   5.141  12.998 -2.1081  0.9357 -0.2977
 2629TIP3   OH229377   0.168   1.304  15.227  0.1801  0.8649  0.4721
 2629TIP3    H129378   0.080   1.328  15.197 -0.0736  0.0886  0.5802
 2629TIP3    H229379   0.177   1.348  15.312 -0.3618  0.4323  0.7627
 2630TIP3   OH229380   1.835   0.187   2.687 -0.1704 -0.2854 -0.9817
 2630TIP3    H129381   1.808   0.107   2.642  1.0076 -0.9240 -0.5906
 2630TIP3    H229382   1.771   0.198   2.758 -1.7829  0.4890 -2.4692
 2631TIP3   OH229383   3.856   0.286  11.673  0.2465 -0.2537 -0.0898
 2631TIP3    H129384   3.900   0.217  11.622  0.1977 -0.8797  0.7055
 2631TIP3    H229385   3.835   0.245  11.756 -0.7815  0.4086 -0.0130
 2632TIP3   OH229386   1.690   5.615   0.309  0.2422 -0.2691 -0.0255
 2632TIP3    H129387   1.605   5.579   0.282 -0.2778  0.6497  0.3649
 2632TIP3    H229388   1.697   5.593   0.402 -0.4668  1.3615  0.4295
 2633TIP3   OH229389   0.964   2.297  14.500  0.1631 -0.7016  0.3588
 2633TIP3    H129390   1.021   2.353  14.552 -1.0809 -0.2469  1.2895
 2633TIP3    H229391   0.943   2.350  14.422  1.9470 -1.3461 -0.6131
 2634TIP3   OH229392   5.993   6.627  11.225 -0.6787 -0.0751  0.2671
 2634TIP3    H129393   5.999   6.621  11.321 -0.1901  0.7598  0.2897
 2634TIP3    H229394   5.915   6.574  11.204 -1.2982  0.4245  1.1979
 2635TIP3   OH229395   0.999   0.768  14.331  0.6887 -0.1572 -0.8335
 2635TIP3    H129396   1.062   0.827  14.290 -1.2681  1.5112 -1.6236
 2635TIP3    H229397   1.031   0.758  14.421  1.4976  1.4973 -0.8968
 2636TIP3   OH229398   3.167   4.298   0.592  0.3272 -0.3473 -0.0388
 2636TIP3    H129399   3.166   4.203   0.583 -0.7429 -0.5041  1.4557
 2636TIP3    H229400   3.080   4.321   0.625  0.6239  1.1390 -0.1932
 2637TIP3   OH229401   4.658   1.033  12.685 -0.3936  0.2062  0.5260
 2637TIP3    H129402   4.745   1.062  12.714  0.9207 -2.0056 -0.8999
 2637TIP3    H229403   4.605   1.113  12.685  2.9798  2.8412 -3.3451
 2638TIP3   OH229404   0.240   0.902   3.994 -0.3070  0.0540  0.1781
 2638TIP3    H129405   0.185   0.882   4.069 -1.0204 -0.3332 -0.4378
 2638TIP3    H229406   0.325   0.865   4.016 -0.5730 -0.2529  0.6990
 2639TIP3   OH229407   4.859   3.617   3.165  0.8151  0.0772 -0.2334
 2639TIP3    H129408   4.829   3.661   3.244 -0.6420  1.0524 -1.2719
 2639TIP3    H229409   4.857   3.685   3.097 -0.6067 -1.3044 -1.6935
 2640TIP3   OH229410   0.929   2.260   0.792  0.3725  0.1100 -0.0847
 2640TIP3    H129411   0.955   2.326   0.727  0.9381  1.5433  1.5332
 2640TIP3    H229412   0.876   2.307   0.855  0.1887 -1.1563  0.7493
 2641TIP3   OH229413   1.111   1.224   1.814 -0.1504  0.0032 -0.3460
 2641TIP3    H129414   1.126   1.219   1.720 -1.4767  2.0956 -0.7482
 2641TIP3    H229415   1.156   1.305   1.841  1.4088 -1.2749  1.1325
 2642TIP3   OH229416   5.598   2.260  15.741  0.1906  0.1781  0.0055
 2642TIP3    H129417   5.589   2.210  15.660  1.1302 -0.0097  0.0021
 2642TIP3    H229418   5.666   2.325  15.722  1.5447 -0.8525  1.0881
 2643TIP3   OH229419   6.565   3.007  14.184  0.3494  0.1206  0.2078
 2643TIP3    H129420   6.628   2.940  14.210 -0.9419 -0.8513  0.9319
 2643TIP3    H229421   6.484   2.983  14.229 -0.2479  1.9775  0.1944
 2644TIP3   OH229422   5.621   5.284  16.711 -0.0402 -0.0686 -0.0107
 2644TIP3    H129423   5.624   5.369  16.756 -1.3235  0.1529 -0.2875
 2644TIP3    H229424   5.609   5.220  16.781 -0.5457  0.1322  0.0906
 2645TIP3   OH229425   1.850   0.045  15.430  0.2012 -0.0722 -0.3335
 2645TIP3    H129426   1.817   0.122  15.384  1.2041  0.9570  0.6128
 2645TIP3    H229427   1.912   0.080  15.494  1.0476 -1.7015 -0.2111
 2646TIP3   OH229428   0.319   6.317  17.030  0.2401 -0.1575 -0.7554
 2646TIP3    H129429   0.286   6.390  16.978 -3.4887 -0.2499  1.1138
 2646TIP3    H229430   0.298   6.239  16.979 -3.3257 -0.2431  0.5201
 2647TIP3   OH229431   5.632   4.150  13.011 -0.2778  0.4286 -0.0467
 2647TIP3    H129432   5.592   4.198  12.938 -0.6546  1.6656  0.9446
 2647TIP3    H229433   5.725   4.149  12.990 -0.5199 -0.4274 -1.2049
 2648TIP3   OH229434   4.811   2.856   3.319  0.2389  0.1947 -0.3916
 2648TIP3    H129435   4.861   2.915   3.263  1.6020 -2.0330 -1.6693
 2648TIP3    H229436   4.824   2.890   3.407  1.3899  1.4794 -1.0228
 2649TIP3   OH229437   0.698   2.286   5.867  0.5291  1.1778 -0.0240
 2649TIP3    H129438   0.641   2.359   5.889  1.1685  1.9976 -1.0119
 2649TIP3    H229439   0.741   2.263   5.949 -1.3271  0.4043  0.7910
 2650TIP3   OH229440   1.447   3.468  13.520  0.4681 -1.0562  0.1471
 2650TIP3    H129441   1.498   3.391  13.547  0.6452 -1.5298 -1.4349
 2650TIP3    H229442   1.386   3.435  13.455  1.2432  0.2883 -1.3530
 2651TIP3   OH229443   3.138   1.469  12.310  0.2186  0.5781 -0.3911
 2651TIP3    H129444   3.166   1.547  12.261  0.4869  0.2686 -0.7312
 2651TIP3    H229445   3.215   1.413  12.313 -0.0773  0.1590 -0.4720
 2652TIP3   OH229446   0.327   2.997  15.205  0.1101  0.0696 -0.0993
 2652TIP3    H129447   0.395   3.035  15.149 -0.7491  0.9750 -0.5640
 2652TIP3    H229448   0.368   2.988  15.291  1.2114 -0.6224 -0.6745
 2653TIP3   OH229449   3.965   5.076   3.055 -0.2307  0.4061  0.0530
 2653TIP3    H129450   4.036   5.124   3.098  0.0237 -0.4609  0.6221
 2653TIP3    H229451   3.919   5.032   3.127  0.6059 -1.6292 -0.6039
 2654TIP3   OH229452   4.569   4.509  14.516 -0.1781  0.8236  0.1039
 2654TIP3    H129453   4.561   4.414  14.507  0.4589  0.5463  2.0954
 2654TIP3    H229454   4.661   4.526  14.496 -0.0571  0.8885  0.7131
 2655TIP3   OH229455   6.058   5.024   5.190 -0.1430 -0.5054  0.7413
 2655TIP3    H129456   6.045   5.003   5.098 -2.4866  1.9186  0.3998
 2655TIP3    H229457   6.143   5.067   5.193 -0.2498 -0.1958 -0.3705
 2656TIP3   OH229458   0.765   0.144   0.221  0.4956  0.5462  0.0623
 2656TIP3    H129459   0.729   0.196   0.148 -0.7687 -0.5976 -0.1614
 2656TIP3    H229460   0.691   0.092   0.252  0.7705  1.6208  2.7663
 2657TIP3   OH229461   2.460   6.541  12.521 -0.0414 -0.4664 -0.1992
 2657TIP3    H129462   2.521   6.502  12.584 -1.0281 -1.7327  0.0108
 2657TIP3    H229463   2.473   6.490  12.441 -1.9275 -1.8993  0.3169
 2658TIP3   OH229464   6.230   3.910  15.318  0.6130  0.2884  0.3330
 2658TIP3    H129465   6.215   3.833  15.373  2.2048 -0.6797 -0.4998
 2658TIP3    H229466   6.325   3.911  15.304  1.0656  3.8166  2.2816
 2659TIP3   OH229467   1.741   5.801   5.809  0.0738 -0.3249 -0.2930
 2659TIP3    H129468   1.819   5.783   5.862 -0.6627 -2.3662  0.2280
 2659TIP3    H229469   1.676   5.831   5.873 -0.3153 -1.1634 -0.2790
 2660TIP3   OH229470   4.596   2.447  16.614 -0.2395  0.6675 -0.0114
 2660TIP3    H129471   4.637   2.534  16.617  0.0785  0.5352 -0.3113
 2660TIP3    H229472   4.593   2.419  16.705  0.6190  0.5621  0.0017
 2661TIP3   OH229473   0.385   4.783   5.355 -0.0898 -0.1451  0.8996
 2661TIP3    H129474   0.457   4.846   5.366  1.0080 -0.6739 -2.2566
 2661TIP3    H229475   0.312   4.835   5.323 -0.1894 -0.0355  1.3007
 2662TIP3   OH229476   4.273   1.119  15.461 -0.7413 -0.0050 -0.3578
 2662TIP3    H129477   4.346   1.140  15.403 -0.4536 -1.4458 -0.5607
 2662TIP3    H229478   4.231   1.203  15.480  0.0693  0.6551 -1.4397
 2663TIP3   OH229479   1.752   5.771  12.342 -0.2309 -0.1470  0.3979
 2663TIP3    H129480   1.686   5.841  12.339  1.6109  1.6776 -0.0593
 2663TIP3    H229481   1.748   5.731  12.255  1.0851  1.8487 -0.6821
 2664TIP3   OH229482   1.279   1.601  13.411  0.0107  0.3621 -0.0510
 2664TIP3    H129483   1.189   1.632  13.400 -0.3445 -0.7986 -0.5138
 2664TIP3    H229484   1.288   1.531  13.347  0.4717 -1.1461  1.5970
 2665TIP3   OH229485   1.669   1.420   5.913  0.2966  0.5751 -0.2350
 2665TIP3    H129486   1.617   1.476   5.854  1.5164  2.3530  0.2858
 2665TIP3    H229487   1.617   1.416   5.993  0.2585  1.1015 -0.2276
 2666TIP3   OH229488   5.900   0.869   5.203  0.4347  0.1807  0.1663
 2666TIP3    H129489   5.911   0.779   5.173  0.0536  0.0317  0.4551
 2666TIP3    H229490   5.979   0.915   5.174  0.4124 -0.1337 -0.3931
 2667TIP3   OH229491   0.502   0.047   4.529  0.6719  0.8021  0.2578
 2667TIP3    H129492   0.462  -0.014   4.467  2.2513  0.5924 -0.6289
 2667TIP3    H229493   0.513  -0.004   4.609  0.9842  0.2437 -0.1322
 2668TIP3   OH229494   4.427   4.264  11.751 -0.3814 -0.0577 -0.0927
 2668TIP3    H129495   4.471   4.215  11.682 -0.0559  1.6448 -1.1663
 2668TIP3    H229496   4.458   4.224  11.832  0.8781 -0.7600 -0.8834
 2669TIP3   OH229497   5.900   4.032  12.041  0.7522  0.2743 -0.3860
 2669TIP3    H129498   5.898   3.989  12.127  0.5680 -2.1956 -1.5364
 2669TIP3    H229499   5.992   4.029  12.015  0.6478  0.0346 -0.7268
 2670TIP3   OH229500   3.497   1.722   4.902  0.1350  0.4958  0.5658
 2670TIP3    H129501   3.529   1.680   4.822 -2.3086 -2.7877  1.0507
 2670TIP3    H229502   3.432   1.786   4.871  0.4591  0.4993 -0.1232
 2671TIP3   OH229503   1.463   0.761   2.251  0.4123 -0.3349  0.1641
 2671TIP3    H129504   1.424   0.713   2.178 -0.3928 -2.2356  1.7676
 2671TIP3    H229505   1.555   0.771   2.227  0.3035 -1.5341 -0.8062
 2672TIP3   OH229506   2.576   2.141  11.650 -0.3487 -0.4787  0.2032
 2672TIP3    H129507   2.653   2.101  11.610 -0.3173 -0.4338  0.2196
 2672TIP3    H229508   2.530   2.182  11.576  0.2949  0.5869  0.3715
 2673TIP3   OH229509   0.890   1.141   5.087  0.7650  0.3878  0.5802
 2673TIP3    H129510   0.936   1.224   5.098  0.4759  0.6167  0.0988
 2673TIP3    H229511   0.938   1.080   5.142  1.2781  0.7580  0.5555
 2674TIP3   OH229512   3.493   1.915   3.196  0.5222 -0.1678 -0.2680
 2674TIP3    H129513   3.414   1.893   3.244  0.2138 -2.8032 -1.7668
 2674TIP3    H229514   3.502   2.010   3.205 -1.8264 -0.0288  1.3587
 2675TIP3   OH229515   3.991   2.391   3.743 -0.0100  0.2719 -0.7967
 2675TIP3    H129516   4.047   2.340   3.801 -0.1705 -2.1052 -2.5699
 2675TIP3    H229517   3.923   2.426   3.800  0.6138 -0.7813  0.6688
 2676TIP3   OH229518   1.543   2.331  15.078 -0.6236 -0.4300  0.2691
 2676TIP3    H129519   1.497   2.344  15.161 -1.5374 -0.6859 -0.1930
 2676TIP3    H229520   1.533   2.238  15.058 -1.6302 -0.1090 -0.8288
 2677TIP3   OH229521   6.518   2.356   4.180 -0.3012  0.1081 -0.4273
 2677TIP3    H129522   6.576   2.328   4.251  1.4469  0.1853 -1.7840
 2677TIP3    H229523   6.500   2.276   4.131  0.7041  0.4871 -1.4467
 2678TIP3   OH229524   0.412   0.779   4.192  0.4300  0.2405  0.2264
 2678TIP3    H129525   0.378   0.798   4.279  0.2376 -1.4241  0.5548
 2678TIP3    H229526   0.427   0.685   4.193 -0.5430  0.0025 -1.8588
 2679TIP3   OH229527   3.822   3.820   4.696  0.1864  0.1841  0.1831
 2679TIP3    H129528   3.829   3.812   4.601  0.0840  1.6748  0.0294
 2679TIP3    H229529   3.732   3.848   4.712  0.4052  0.6342  0.6701
 2680TIP3   OH229530   0.674   5.185  15.680 -0.4140 -0.4426 -0.1180
 2680TIP3    H129531   0.580   5.165  15.683 -0.0759 -2.0785  0.7144
 2680TIP3    H229532   0.713   5.128  15.747  1.1356  0.4908 -0.1682
 2681TIP3   OH229533   0.815   0.136   1.427  0.5728  0.6403  0.1616
 2681TIP3    H129534   0.769   0.209   1.469  0.7109  0.9152 -0.1621
 2681TIP3    H229535   0.855   0.088   1.500  0.8421  1.1353  0.3425
 2682TIP3   OH229536   2.692   5.591  13.342 -0.0868  0.0057 -0.6875
 2682TIP3    H129537   2.780   5.616  13.316  0.4621 -1.0995  0.0617
 2682TIP3    H229538   2.636   5.661  13.307  1.0462  0.5880 -1.3770
 2683TIP3   OH229539   1.000   2.078   1.378 -0.2820  0.2558 -0.2327
 2683TIP3    H129540   1.015   1.987   1.403  0.3827  0.5450  0.4667
 2683TIP3    H229541   0.924   2.075   1.319 -0.9538 -0.6305  0.6480
 2684TIP3   OH229542   0.528   5.511  12.650 -0.3593  0.4711  0.0243
 2684TIP3    H129543   0.511   5.462  12.570  0.8094 -0.1721  0.1394
 2684TIP3    H229544   0.449   5.562  12.665 -1.2247 -0.6339 -0.6516
 2685TIP3   OH229545   5.591   6.178  15.617  0.4131 -0.0272  0.4035
 2685TIP3    H129546   5.686   6.188  15.609  0.5003  0.7034  2.0239
 2685TIP3    H229547   5.580   6.111  15.684 -0.2500 -1.1771 -0.7966
 2686TIP3   OH229548   3.442   0.463  14.666 -0.1370 -0.3959 -0.5364
 2686TIP3    H129549   3.486   0.545  14.687 -1.4889  0.2845 -0.2629
 2686TIP3    H229550   3.426   0.468  14.572 -2.2457  0.7350 -0.1777
 2687TIP3   OH229551   6.410   6.781  15.352  0.0356 -0.8176 -0.5663
 2687TIP3    H129552   6.435   6.698  15.311  1.6586 -0.1470 -1.0318
 2687TIP3    H229553   6.436   6.848  15.287 -0.0591  0.1121  0.3308
 2688TIP3   OH229554   2.553   2.940   4.807 -0.0292  0.2321 -0.7569
 2688TIP3    H129555   2.470   2.987   4.800 -0.4688 -0.6054 -1.3955
 2688TIP3    H229556   2.604   2.969   4.731  1.3745  2.7694  1.0285
 2689TIP3   OH229557   1.830   6.113  13.610 -0.8336  0.1449  0.8444
 2689TIP3    H129558   1.750   6.122  13.661 -1.1073  0.4799  0.3725
 2689TIP3    H229559   1.817   6.033  13.559 -2.2196  1.7407 -1.5059
 2690TIP3   OH229560   5.999   6.398  13.896 -0.4754 -0.5592 -0.6219
 2690TIP3    H129561   5.939   6.391  13.822 -1.9184 -0.1615  0.4364
 2690TIP3    H229562   5.945   6.435  13.966  1.3921  1.1708 -0.0008
 2691TIP3   OH229563   3.414   5.126  11.635  0.3463  0.1397  0.3814
 2691TIP3    H129564   3.387   5.212  11.667  1.0081 -0.1018  1.6624
 2691TIP3    H229565   3.338   5.069  11.649 -0.2995  0.6227 -1.0189
 2692TIP3   OH229566   0.248   3.020   1.951 -0.1112 -0.0139  0.2508
 2692TIP3    H129567   0.165   3.067   1.944 -0.3980 -0.6353 -0.6633
 2692TIP3    H229568   0.233   2.954   2.019 -0.7225 -0.8165 -0.6377
 2693TIP3   OH229569   5.062   0.603  11.104  0.3701  0.3431 -0.4349
 2693TIP3    H129570   5.014   0.646  11.175 -0.5688  0.6934 -1.2667
 2693TIP3    H229571   5.103   0.527  11.146 -2.6064 -1.2277 -0.0580
 2694TIP3   OH229572   1.482   5.170  12.751  0.4862  0.4611 -0.1835
 2694TIP3    H129573   1.462   5.088  12.706  0.6296  0.7549 -0.7996
 2694TIP3    H229574   1.403   5.190  12.801  1.5682 -1.7237  2.6164
 2695TIP3   OH229575   2.019   1.630   3.477  0.2560  0.3004  0.4645
 2695TIP3    H129576   1.935   1.675   3.486 -0.4591 -0.8291 -0.2532
 2695TIP3    H229577   2.069   1.684   3.416 -0.0063  0.9061  0.7862
 2696TIP3   OH229578   6.307   2.962  13.132 -0.1360  0.1775  0.3919
 2696TIP3    H129579   6.227   2.914  13.113  0.5069 -1.2433  1.0825
 2696TIP3    H229580   6.291   3.050  13.100 -2.1599  0.0664  0.9867
 2697TIP3   OH229581   4.389   4.712  11.545  0.2106 -0.6059  0.1304
 2697TIP3    H129582   4.477   4.714  11.508 -0.0478  0.3448 -0.4767
 2697TIP3    H229583   4.333   4.685  11.472  0.0422 -1.6644  0.6318
 2698TIP3   OH229584   5.646   5.205   3.350  0.0140 -0.0276 -0.1401
 2698TIP3    H129585   5.565   5.178   3.308 -0.4541  1.5541 -0.3284
 2698TIP3    H229586   5.618   5.256   3.426  0.7971  0.9987 -0.5122
 2699TIP3   OH229587   5.038   6.577  10.689 -0.3028  0.1303  0.0053
 2699TIP3    H129588   5.092   6.643  10.647  0.6283 -0.0261  0.9265
 2699TIP3    H229589   5.002   6.525  10.616  2.8454 -1.3986 -0.6261
 2700TIP3   OH229590   1.004   4.532   0.379  0.2440 -0.3710  0.0636
 2700TIP3    H129591   0.920   4.522   0.333 -0.7206  0.4583  1.5732
 2700TIP3    H229592   0.991   4.484   0.461  0.5062  1.4462  1.2007
 2701TIP3   OH229593   2.217   4.439  12.141 -0.1341  0.0467 -0.0410
 2701TIP3    H129594   2.158   4.444  12.216  0.1353  0.7584  0.1238
 2701TIP3    H229595   2.300   4.410  12.177 -0.1659 -0.1931 -0.1580
 2702TIP3   OH229596   2.150   4.670  11.823 -0.4126  0.6072 -0.2053
 2702TIP3    H129597   2.158   4.735  11.753 -2.8633  0.3279 -0.8403
 2702TIP3    H229598   2.128   4.589  11.778  0.0837 -0.0769  0.7620
 2703TIP3   OH229599   0.610   1.791   3.263 -0.2105 -0.3742 -0.2451
 2703TIP3    H129600   0.647   1.846   3.332 -1.4342  0.4750 -0.2263
 2703TIP3    H229601   0.653   1.819   3.183 -0.0885 -0.0888 -0.0815
 2704TIP3   OH229602   1.256   6.198   0.574  0.1301  0.0835 -0.0748
 2704TIP3    H129603   1.176   6.145   0.574  2.0552 -3.0845 -0.7984
 2704TIP3    H229604   1.282   6.203   0.483  2.4656 -1.9044  0.3949
 2705TIP3   OH229605   4.596   2.241   1.508  0.2238  0.8049 -0.2804
 2705TIP3    H129606   4.632   2.250   1.597 -1.1835  1.7505  0.2382
 2705TIP3    H229607   4.619   2.152   1.482 -1.5076 -0.4474  2.0833
 2706TIP3   OH229608   5.663   5.329   2.548  0.3144 -0.1388  0.3520
 2706TIP3    H129609   5.638   5.269   2.618  2.0437 -0.3717  0.8177
 2706TIP3    H229610   5.758   5.338   2.557  0.3065  1.4276 -0.7004
 2707TIP3   OH229611   4.836   6.275   0.099  0.1605  0.9183 -0.8822
 2707TIP3    H129612   4.820   6.231   0.182  0.2316  0.8679 -0.8945
 2707TIP3    H229613   4.842   6.368   0.121  1.9128  0.7767 -0.5508
 2708TIP3   OH229614   2.824   2.809  11.570  0.0326 -0.4205 -0.8438
 2708TIP3    H129615   2.818   2.901  11.543  0.0763 -0.2652 -0.3350
 2708TIP3    H229616   2.833   2.813  11.665 -1.2494 -0.9973 -0.6801
 2709TIP3   OH229617   1.969   2.768  11.846 -0.5199  0.0614 -0.5931
 2709TIP3    H129618   1.972   2.805  11.758 -0.2907  0.8030 -0.2755
 2709TIP3    H229619   1.876   2.747  11.860 -0.1365 -4.1125 -2.6516
 2710TIP3   OH229620   5.895   5.595   0.850 -0.0244  0.4201 -0.0353
 2710TIP3    H129621   5.975   5.648   0.853  0.5767 -0.5231  2.3564
 2710TIP3    H229622   5.894   5.548   0.933 -2.3836 -0.6406 -0.5914
 2711TIP3   OH229623   6.623   4.613   1.053 -0.4427 -0.0193  0.1591
 2711TIP3    H129624   6.563   4.677   1.091 -0.1724  0.5158 -0.2962
 2711TIP3    H229625   6.669   4.575   1.127 -0.8466  0.0701  0.4570
 2712TIP3   OH229626   1.487   4.168  16.015 -0.3244 -0.7635 -0.3878
 2712TIP3    H129627   1.528   4.200  15.935 -0.1892 -1.3683 -0.5637
 2712TIP3    H229628   1.494   4.073  16.009 -0.3018 -0.8104  0.3501
 2713TIP3   OH229629   0.255   4.809  16.528  0.2122 -0.0722  0.5510
 2713TIP3    H129630   0.279   4.722  16.495 -0.8127  0.0858 -0.6493
 2713TIP3    H229631   0.160   4.808  16.531  0.2162  0.6769  1.5120
 2714TIP3   OH229632   0.063   0.159   6.502  0.6541  0.3075 -0.5679
 2714TIP3    H129633   0.147   0.199   6.481  0.8662 -0.0997 -0.5128
 2714TIP3    H229634   0.004   0.233   6.517  0.6691  0.6137 -1.8738
 2715TIP3   OH229635   2.045   5.946   3.558  0.0163 -0.7193 -0.4692
 2715TIP3    H129636   2.027   6.031   3.598  0.7031 -0.2282 -1.1669
 2715TIP3    H229637   2.001   5.950   3.473 -0.9314 -1.5222 -0.0433
 2716TIP3   OH229638   0.368   3.368  12.810 -0.7270  0.0795 -0.1205
 2716TIP3    H129639   0.299   3.302  12.822  0.3583 -1.3943 -1.6217
 2716TIP3    H229640   0.449   3.323  12.832 -0.0778  1.3710  0.2527
 2717TIP3   OH229641   2.641   6.265   6.371 -0.1307 -0.2322  0.3102
 2717TIP3    H129642   2.618   6.356   6.353 -0.9539 -0.8433 -2.1094
 2717TIP3    H229643   2.557   6.221   6.386  0.2586 -0.6501  1.4327
 2718TIP3   OH229644   6.128   0.058  12.048  0.4272  0.3752 -0.2423
 2718TIP3    H129645   6.144   0.003  12.125  0.5727  1.4748  0.5316
 2718TIP3    H229646   6.095  -0.003  11.982  0.2018 -0.5719  0.7151
 2719TIP3   OH229647   1.620   3.512   4.820  0.1851 -0.4049 -0.4962
 2719TIP3    H129648   1.637   3.431   4.870  0.6867  1.0337  1.8233
 2719TIP3    H229649   1.549   3.555   4.868  0.5168  0.9426 -1.1715
 2720TIP3   OH229650   1.100   6.019  11.237 -0.6541 -0.1034  0.6382
 2720TIP3    H129651   1.074   6.039  11.147 -1.8678  0.1302  1.0163
 2720TIP3    H229652   1.168   6.083  11.257  0.0912 -0.5809 -0.3222
 2721TIP3   OH229653   4.208   3.759   5.101 -0.0421 -0.2814 -0.7426
 2721TIP3    H129654   4.169   3.695   5.041  2.4958 -1.2959 -1.4259
 2721TIP3    H229655   4.244   3.707   5.173  1.0859  0.4553 -0.7442
 2722TIP3   OH229656   4.591   2.724  16.241  0.1533 -0.1421  0.1513
 2722TIP3    H129657   4.632   2.728  16.327  0.4236 -0.8264  0.0681
 2722TIP3    H229658   4.510   2.676  16.255  0.1950 -0.2505  0.0346
 2723TIP3   OH229659   6.472   0.789   2.983 -0.3115  0.3530 -0.0145
 2723TIP3    H129660   6.401   0.822   3.038 -0.7994  0.5059 -0.7207
 2723TIP3    H229661   6.433   0.714   2.936  0.1888  0.0278  0.0840
 2724TIP3   OH229662   0.091   1.641   2.293  0.3855 -0.2481  0.2169
 2724TIP3    H129663   0.147   1.685   2.229  2.4542 -3.0373 -0.0597
 2724TIP3    H229664   0.125   1.671   2.378  1.4368 -0.8703  0.0345
 2725TIP3   OH229665   3.860   6.375   1.158 -0.8842 -0.7510  0.4980
 2725TIP3    H129666   3.791   6.320   1.194 -1.3824  0.1636  0.9840
 2725TIP3    H229667   3.884   6.434   1.230 -0.2563 -0.4311  0.0428
 2726TIP3   OH229668   3.260   5.818   4.220  0.1531 -0.3100 -0.3852
 2726TIP3    H129669   3.234   5.812   4.312 -0.9812 -1.8171 -0.7673
 2726TIP3    H229670   3.356   5.819   4.222  0.1530  0.6462  0.8323
 2727TIP3   OH229671   4.936   3.800  16.376 -0.0471 -0.2343 -0.0592
 2727TIP3    H129672   4.982   3.882  16.356  1.0567 -1.1329 -1.3188
 2727TIP3    H229673   4.848   3.829  16.402  0.9314  1.4714  1.6386
 2728TIP3   OH229674   2.373   6.181  13.419  0.2395  0.4623 -0.2655
 2728TIP3    H129675   2.353   6.095  13.456 -0.3676  0.5820 -0.3039
 2728TIP3    H229676   2.338   6.178  13.330 -2.4934  1.7124  0.6361
 2729TIP3   OH229677   5.267   1.827   3.378  0.6022 -0.4353  0.1755
 2729TIP3    H129678   5.207   1.844   3.451 -0.8069 -0.8166 -0.8508
 2729TIP3    H229679   5.309   1.912   3.362 -0.1208 -0.0037  0.5222
 2730TIP3   OH229680   1.349   6.397   1.207 -0.5610  0.0994 -0.2277
 2730TIP3    H129681   1.389   6.328   1.154  1.8643  1.3342 -0.1415
 2730TIP3    H229682   1.330   6.467   1.145 -1.1883  0.1286 -0.0114
 2731TIP3   OH229683   5.932   1.178  13.939 -0.1132  0.0125  0.0750
 2731TIP3    H129684   5.915   1.155  13.848  1.6430  0.5163 -0.4298
 2731TIP3    H229685   6.009   1.235  13.935  1.0008 -1.2549  2.0024
 2732TIP3   OH229686   3.790   6.032   0.614 -0.2654  0.5208  0.0236
 2732TIP3    H129687   3.716   6.055   0.558 -0.4598  0.8334  0.4066
 2732TIP3    H229688   3.858   6.095   0.592 -0.3014  0.5700  0.0527
 2733TIP3   OH229689   3.797   6.444   1.891  0.0272  0.4010  0.3407
 2733TIP3    H129690   3.706   6.415   1.891 -0.0690  0.6997  0.5083
 2733TIP3    H229691   3.848   6.363   1.894 -0.2435  0.2510  1.9353
 2734TIP3   OH229692   2.015   6.771   2.934 -0.3655 -0.2716  0.4764
 2734TIP3    H129693   2.067   6.763   3.014 -0.9979 -0.1001  0.9127
 2734TIP3    H229694   1.934   6.722   2.954 -0.6082 -0.0598  0.0194
 2735TIP3   OH229695   5.295   3.826  15.413 -0.1573 -0.3428  0.4125
 2735TIP3    H129696   5.346   3.901  15.443 -1.3529 -0.2618  2.4242
 2735TIP3    H229697   5.350   3.750  15.432  0.3386 -0.0940 -0.0134
 2736TIP3   OH229698   5.789   6.075  13.841 -0.1525 -0.4377 -0.0233
 2736TIP3    H129699   5.789   6.083  13.746  0.0247 -1.4041 -0.1158
 2736TIP3    H229700   5.748   5.990  13.858 -1.4676  0.3218  0.8293
 2737TIP3   OH229701   3.352   3.981   3.680 -0.4494  0.3392 -0.1412
 2737TIP3    H129702   3.312   3.943   3.758 -0.8370  0.0936 -0.4560
 2737TIP3    H229703   3.305   4.064   3.667 -0.1707  0.5302  0.0675
 2738TIP3   OH229704   2.646   5.421   0.156  0.1272  0.9950  0.2462
 2738TIP3    H129705   2.613   5.332   0.148  1.0492  0.6982 -0.2885
 2738TIP3    H229706   2.567   5.475   0.165 -0.4086  0.0784  1.1493
 2739TIP3   OH229707   3.910   6.037  14.780 -0.4384 -0.0849 -0.2512
 2739TIP3    H129708   3.987   6.091  14.765 -0.8489  0.3483 -0.8211
 2739TIP3    H229709   3.844   6.071  14.719 -0.5168 -1.6060 -1.0716
 2740TIP3   OH229710   2.633   5.649  13.748 -0.1885  0.1421  0.1278
 2740TIP3    H129711   2.677   5.565  13.737 -0.2664  0.0927  0.1959
 2740TIP3    H229712   2.702   5.714  13.737 -0.1555  0.0741 -0.0777
 2741TIP3   OH229713   2.883   5.350  14.290 -0.1094 -0.1166 -0.0984
 2741TIP3    H129714   2.876   5.285  14.359  1.8597 -0.2750  0.0230
 2741TIP3    H229715   2.977   5.353  14.269 -0.4192  1.1860 -1.5388
 2742TIP3   OH229716   1.416   4.830   0.189 -0.6119 -0.3233  0.2312
 2742TIP3    H129717   1.410   4.736   0.177 -0.2590 -0.5769  1.8690
 2742TIP3    H229718   1.414   4.843   0.284 -0.7576  1.3205  0.0333
 2743TIP3   OH229719   5.299   0.675   4.700  0.0074 -0.7465  0.5564
 2743TIP3    H129720   5.211   0.697   4.669 -1.2438 -0.4503  3.9550
 2743TIP3    H229721   5.325   0.750   4.753  1.2075 -1.9369  1.7114
 2744TIP3   OH229722   6.289   2.205  12.498  0.3020  0.1235 -0.3193
 2744TIP3    H129723   6.206   2.185  12.543  0.9763  2.3440  2.1146
 2744TIP3    H229724   6.262   2.235  12.411 -1.2172 -1.9039 -0.6217
 2745TIP3   OH229725   0.668   3.097   3.195 -0.1833  0.3446  0.1892
 2745TIP3    H129726   0.674   3.094   3.099  0.0481  1.7778  0.1421
 2745TIP3    H229727   0.683   3.006   3.222  1.3735  0.1733 -1.0570
 2746TIP3   OH229728   2.368   5.263  15.676  0.3905  0.5348  0.3261
 2746TIP3    H129729   2.369   5.174  15.641 -1.0864  0.2409  0.9390
 2746TIP3    H229730   2.312   5.258  15.754  1.5714  1.6780  1.3002
 2747TIP3   OH229731   0.492   3.670  10.883  0.4787  0.1954  0.2283
 2747TIP3    H129732   0.398   3.681  10.871  0.2121 -2.5000 -0.7233
 2747TIP3    H229733   0.529   3.754  10.853 -1.5566  1.1968  0.3122
 2748TIP3   OH229734   3.272   3.991  11.459  0.1198  0.6226 -0.0040
 2748TIP3    H129735   3.341   4.029  11.404  1.6047 -2.3086 -0.3624
 2748TIP3    H229736   3.194   4.045  11.441  1.6968  2.5780 -1.4041
 2749TIP3   OH229737   4.507   5.920  11.277  0.3710 -0.1087 -0.3319
 2749TIP3    H129738   4.543   5.838  11.244 -0.7740 -0.7539 -0.0079
 2749TIP3    H229739   4.450   5.952  11.208 -0.3119 -0.3361  0.1159
 2750TIP3   OH229740   4.082   3.402   6.507 -0.0267 -0.1368  0.6721
 2750TIP3    H129741   4.171   3.378   6.481 -0.5264 -0.2643 -1.0948
 2750TIP3    H229742   4.049   3.454   6.434 -1.1480  0.5762  1.6465
 2751TIP3   OH229743   1.617   0.277   0.547  0.6280  0.2560 -0.2243
 2751TIP3    H129744   1.657   0.195   0.519 -0.5313 -0.0592 -1.0019
 2751TIP3    H229745   1.592   0.321   0.465  1.4537  1.5050  0.1681
 2752TIP3   OH229746   1.639   5.701   1.007  0.0414  0.0998 -0.0520
 2752TIP3    H129747   1.625   5.759   0.932 -1.2722 -0.6599 -0.4375
 2752TIP3    H229748   1.733   5.701   1.020  0.2712  0.4938 -1.5135
 2753TIP3   OH229749   5.116   4.991   0.467 -0.1454 -0.4429  0.0406
 2753TIP3    H129750   5.116   5.008   0.372 -1.6340  0.1678  0.1206
 2753TIP3    H229751   5.024   4.998   0.492  0.3737  0.8197  1.7704
 2754TIP3   OH229752   6.706   0.159   1.720 -0.4261 -0.1192 -0.1079
 2754TIP3    H129753   6.783   0.137   1.771  0.6660 -3.0509 -2.7281
 2754TIP3    H229754   6.741   0.201   1.641 -1.4522 -1.4784 -1.3328
 2755TIP3   OH229755   2.803   4.169   0.876 -0.2503 -1.0893 -0.4321
 2755TIP3    H129756   2.729   4.123   0.837 -0.6993  0.3278 -1.3385
 2755TIP3    H229757   2.854   4.200   0.802  0.0221 -0.1342  0.1290
 2756TIP3   OH229758   2.728   3.354  11.966  0.2988  0.0314 -0.2555
 2756TIP3    H129759   2.693   3.267  11.989  0.7684  0.2119  1.1952
 2756TIP3    H229760   2.822   3.347  11.982  0.4654  0.5708 -0.9558
 2757TIP3   OH229761   6.374   0.653  15.287  0.4155  0.3947  0.4042
 2757TIP3    H129762   6.428   0.586  15.246 -1.5217 -0.8721 -0.2185
 2757TIP3    H229763   6.409   0.736  15.254  0.9199 -0.4632 -1.2970
 2758TIP3   OH229764   6.667   0.956  14.414  0.3560 -0.0522  0.3324
 2758TIP3    H129765   6.694   1.024  14.475  0.1948 -0.4448  0.8565
 2758TIP3    H229766   6.745   0.937  14.362 -0.0908  1.8164 -1.0869
 2759TIP3   OH229767   2.289   4.956   2.240 -0.1516 -0.1716 -0.2122
 2759TIP3    H129768   2.246   4.873   2.257 -0.1576  0.0034  0.6301
 2759TIP3    H229769   2.328   4.945   2.153  1.8654 -1.9148  0.8092
 2760TIP3   OH229770   5.485   3.524  15.203 -0.3118  0.4174  0.1493
 2760TIP3    H129771   5.521   3.512  15.115 -0.5378  0.5664  0.0364
 2760TIP3    H229772   5.406   3.470  15.205  1.2281 -1.9607  1.2314
 2761TIP3   OH229773   2.675   6.182  15.456  0.0484  0.3379  0.2969
 2761TIP3    H129774   2.644   6.214  15.541  1.8663 -0.3337  1.2495
 2761TIP3    H229775   2.707   6.261  15.412 -0.1178  0.5715  0.5872
 2762TIP3   OH229776   2.141   1.496  13.022 -0.1379  0.2255  0.2212
 2762TIP3    H129777   2.066   1.471  13.076 -1.2272  1.8464 -0.4689
 2762TIP3    H229778   2.146   1.427  12.956 -0.5167 -0.3286  0.7567
 2763TIP3   OH229779   0.640   5.436   1.682 -0.3076 -0.0195 -0.6794
 2763TIP3    H129780   0.671   5.443   1.772 -1.9119  1.0752 -0.1593
 2763TIP3    H229781   0.603   5.347   1.677  0.8345 -0.5122 -0.6417
 2764TIP3   OH229782   4.065   6.030   5.916  0.0247 -0.9629 -0.5595
 2764TIP3    H129783   4.031   5.941   5.925 -0.3953 -0.6401  1.4923
 2764TIP3    H229784   3.987   6.085   5.911  0.1606 -0.4306  1.8422
 2765TIP3   OH229785   0.765   5.610  12.546 -0.2222  0.6051  0.0301
 2765TIP3    H129786   0.788   5.701  12.567 -0.6122  0.8764 -0.6989
 2765TIP3    H229787   0.671   5.605  12.562 -0.4502  0.6998 -1.1667
 2766TIP3   OH229788   3.840   4.981  15.989 -0.3482  0.0812 -0.0354
 2766TIP3    H129789   3.875   4.896  15.960  2.2871  0.9643  0.2949
 2766TIP3    H229790   3.775   4.958  16.056  0.1149 -1.6732 -0.1275
 2767TIP3   OH229791   0.566   1.165  15.891  0.1977 -0.0208 -0.4209
 2767TIP3    H129792   0.516   1.121  15.960  0.0602 -0.6097 -0.8844
 2767TIP3    H229793   0.503   1.177  15.821  0.3106  0.6738 -0.4044
 2768TIP3   OH229794   5.191   0.989   5.908 -0.0532 -0.6466 -1.1465
 2768TIP3    H129795   5.253   0.968   5.837  0.5143  0.0521 -0.8706
 2768TIP3    H229796   5.135   1.057   5.870 -0.5467 -1.1588 -1.3387
 2769TIP3   OH229797   3.285   3.263   6.175 -0.4002 -0.0533  0.1898
 2769TIP3    H129798   3.270   3.195   6.240 -2.0524  1.1929  1.1729
 2769TIP3    H229799   3.342   3.326   6.218  0.1620 -0.2037 -0.3105
 2770TIP3   OH229800   1.176   4.165   3.441  0.3238 -0.4287  0.3107
 2770TIP3    H129801   1.188   4.234   3.506 -0.3956  0.4081 -0.4271
 2770TIP3    H229802   1.258   4.164   3.392 -0.1934  0.9354 -0.6305
 2771TIP3   OH229803   6.625   6.791   5.712 -0.0667  0.0784 -0.2171
 2771TIP3    H129804   6.665   6.705   5.694 -1.7705 -0.5194 -1.3165
 2771TIP3    H229805   6.550   6.771   5.767 -0.9099  0.7709 -1.0978
 2772TIP3   OH229806   2.165   5.312  12.503 -0.4191 -0.0654  0.2835
 2772TIP3    H129807   2.217   5.311  12.422  0.5771  0.9751  0.8801
 2772TIP3    H229808   2.212   5.372  12.561 -1.0365 -0.9028  1.7024
 2773TIP3   OH229809   3.441   0.282   3.449 -0.5066  0.5480  0.2463
 2773TIP3    H129810   3.512   0.339   3.477 -1.5851  2.4391 -0.6970
 2773TIP3    H229811   3.362   0.335   3.460 -1.5488 -0.7561 -0.7209
 2774TIP3   OH229812   0.355   1.105   4.140  0.2306 -0.1275  0.5498
 2774TIP3    H129813   0.287   1.160   4.179 -0.9877 -0.1113 -1.4778
 2774TIP3    H229814   0.307   1.040   4.088  1.7465 -0.2746 -0.7408
 2775TIP3   OH229815   6.625   0.308   6.496 -0.0922  0.0134  0.2220
 2775TIP3    H129816   6.650   0.385   6.446 -1.5076 -0.5941 -1.5533
 2775TIP3    H229817   6.529   0.308   6.495 -0.1367 -1.2153  1.0798
 2776TIP3   OH229818   4.453   5.875   5.506  0.2650 -0.0945  0.1862
 2776TIP3    H129819   4.386   5.829   5.456  0.9587 -0.9279  0.0094
 2776TIP3    H229820   4.408   5.901   5.587 -0.3028 -0.5136  0.0141
 2777TIP3   OH229821   3.254   5.731  15.510  0.1731  0.2155 -0.2337
 2777TIP3    H129822   3.307   5.790  15.563  1.4979 -0.2396 -1.0193
 2777TIP3    H229823   3.164   5.762  15.524  0.5908  0.8204  1.3421
 2778TIP3   OH229824   0.687   6.247  15.140 -0.7395  0.6109 -0.2162
 2778TIP3    H129825   0.632   6.213  15.069  0.8558  1.3356 -1.8847
 2778TIP3    H229826   0.722   6.330  15.106  2.6308 -0.5494  0.0355
 2779TIP3   OH229827   5.083   3.598  14.494 -0.4865  0.4535  0.5841
 2779TIP3    H129828   5.152   3.631  14.552  0.6913 -0.4759 -0.2425
 2779TIP3    H229829   5.029   3.674  14.475 -0.0885  1.0661  1.7810
 2780TIP3   OH229830   3.748   1.540   0.796  0.5371  0.4729  0.0730
 2780TIP3    H129831   3.781   1.471   0.854 -2.7958 -1.0141  0.4474
 2780TIP3    H229832   3.734   1.615   0.853 -0.3072 -0.1472  0.7000
 2781TIP3   OH229833   3.948   6.654   3.554 -0.0645 -0.8349 -0.5280
 2781TIP3    H129834   3.920   6.647   3.645  2.3958  0.8458  0.4744
 2781TIP3    H229835   3.998   6.574   3.538 -1.4857 -1.6954 -0.8501
 2782TIP3   OH229836   1.817   2.659  15.051 -0.5046  0.3977 -0.2572
 2782TIP3    H129837   1.855   2.745  15.033 -1.4033  0.9128  0.2303
 2782TIP3    H229838   1.765   2.671  15.131 -1.3638 -0.3687 -0.6727
 2783TIP3   OH229839   0.388   0.908  11.229  0.7113 -0.3247  0.0274
 2783TIP3    H129840   0.456   0.873  11.286  1.1082 -1.4244 -1.0716
 2783TIP3    H229841   0.310   0.912  11.284  0.7635 -2.5663  0.3593
 2784TIP3   OH229842   0.238   1.720  14.690  0.1906  0.0342 -0.1399
 2784TIP3    H129843   0.306   1.754  14.631 -0.0376  0.8840  0.0623
 2784TIP3    H229844   0.249   1.771  14.770  1.3731 -2.0372  1.0971
 2785TIP3   OH229845   0.109   5.552  14.742 -0.2586 -0.7460  0.2661
 2785TIP3    H129846   0.205   5.547  14.740 -0.2730 -0.9538  0.0800
 2785TIP3    H229847   0.082   5.532  14.652 -0.2912  3.4317 -0.8978
 2786TIP3   OH229848   1.929   0.691   4.686 -0.4329  0.3586  0.4480
 2786TIP3    H129849   1.994   0.743   4.638 -1.5195 -0.3684 -1.9808
 2786TIP3    H229850   1.851   0.746   4.688 -0.7960 -0.1432  0.2044
 2787TIP3   OH229851   2.280   1.641   4.479  0.3669  0.2890  0.1518
 2787TIP3    H129852   2.283   1.591   4.398  0.6877  0.3732  0.1102
 2787TIP3    H229853   2.357   1.614   4.527  0.8995  1.1955 -0.1504
 2788TIP3   OH229854   4.597   0.784  12.595 -0.3447  0.2811  0.2772
 2788TIP3    H129855   4.659   0.744  12.534 -1.5619  0.7643 -1.3672
 2788TIP3    H229856   4.641   0.864  12.625  0.6535 -0.4480  0.8022
 2789TIP3   OH229857   3.285   4.734   3.691  0.1740 -0.3544  0.6414
 2789TIP3    H129858   3.364   4.772   3.730  1.5502 -1.4577 -0.9547
 2789TIP3    H229859   3.214   4.792   3.721  1.4517  0.2847  2.6643
 2790TIP3   OH229860   6.139   5.687   0.183 -0.2993  0.4541 -0.2054
 2790TIP3    H129861   6.074   5.621   0.205 -1.0181  1.7155  1.6600
 2790TIP3    H229862   6.201   5.641   0.125 -0.1323 -2.1597  1.8579
 2791TIP3   OH229863   3.378   6.103   6.150 -0.4426 -0.5040  0.6790
 2791TIP3    H129864   3.427   6.185   6.140 -1.2382  0.4384  3.4599
 2791TIP3    H229865   3.291   6.123   6.114 -0.3925 -0.4006  0.6144
 2792TIP3   OH229866   4.866   6.302   4.303 -0.5720 -0.1552  0.2371
 2792TIP3    H129867   4.946   6.350   4.327 -1.3955  1.2727  0.2311
 2792TIP3    H229868   4.834   6.267   4.386 -0.5724  0.2718  0.4183
 2793TIP3   OH229869   6.506   0.747  11.838  0.0200  0.2821 -0.3543
 2793TIP3    H129870   6.508   0.798  11.757  1.2533  0.3699 -0.2942
 2793TIP3    H229871   6.425   0.773  11.881  0.0773  1.3604 -0.8554
 2794TIP3   OH229872   0.857   2.207   2.979  0.0568 -0.7603 -0.2805
 2794TIP3    H129873   0.889   2.201   3.069 -0.6457 -0.4335 -0.0101
 2794TIP3    H229874   0.933   2.183   2.925  0.4812 -0.9416  0.3937
 2795TIP3   OH229875   2.422   5.426  14.835  0.8601  0.2938  0.5463
 2795TIP3    H129876   2.452   5.445  14.746 -0.3233  0.7997  0.2331
 2795TIP3    H229877   2.395   5.511  14.869 -0.4143 -0.1711  0.7225
 2796TIP3   OH229878   0.324   2.960   3.670 -0.1225 -0.0790 -0.4554
 2796TIP3    H129879   0.341   3.030   3.733  3.0855 -0.9317 -0.1948
 2796TIP3    H229880   0.374   2.986   3.592 -1.2368 -0.7278 -1.4148
 2797TIP3   OH229881   4.175   5.737  13.485 -0.7077 -0.3397  0.2744
 2797TIP3    H129882   4.227   5.700  13.414 -0.9738  1.4031 -0.9157
 2797TIP3    H229883   4.225   5.814  13.513 -1.7432  0.3301  0.3350
 2798TIP3   OH229884   4.961   0.510   1.744 -0.0308 -0.1696  0.3553
 2798TIP3    H129885   4.953   0.518   1.839 -0.8190 -0.1616  0.2985
 2798TIP3    H229886   4.933   0.421   1.725 -0.0777 -0.1039  0.1131
 2799TIP3   OH229887   0.013   1.044  14.616  0.1961 -0.0464  0.5058
 2799TIP3    H129888   0.079   1.084  14.673  0.6581 -1.5772  1.0865
 2799TIP3    H229889   0.061   0.977  14.568 -0.3877  0.6085 -1.0383
 2800TIP3   OH229890   2.009   5.724   0.447  0.1823 -0.0606  0.1262
 2800TIP3    H129891   1.963   5.640   0.445 -0.6129  0.3657 -2.0545
 2800TIP3    H229892   2.102   5.700   0.450 -0.0680 -0.9865  0.7043
 2801TIP3   OH229893   5.372   0.279  13.593 -0.1683 -0.0424  0.5151
 2801TIP3    H129894   5.308   0.254  13.527  0.5585  0.7639 -0.5250
 2801TIP3    H229895   5.450   0.305  13.544  0.8178 -0.5565  1.7358
 2802TIP3   OH229896   2.080   4.960   6.264  0.4936  0.6986  0.1565
 2802TIP3    H129897   2.080   4.939   6.357  1.2767  0.9558  0.2198
 2802TIP3    H229898   2.172   4.971   6.241  0.3006  0.8115 -0.6097
 2803TIP3   OH229899   0.520   4.551   2.878 -0.0396  0.0199  0.2739
 2803TIP3    H129900   0.566   4.471   2.901 -0.8238 -0.2081  1.1167
 2803TIP3    H229901   0.478   4.579   2.959 -1.3056  0.2668 -0.4284
 2804TIP3   OH229902   4.450   1.181   1.028  0.3488 -0.0326  0.0111
 2804TIP3    H129903   4.532   1.220   0.997 -0.1090  0.5776 -0.4663
 2804TIP3    H229904   4.393   1.256   1.046 -0.3245 -0.4609 -0.3012
 2805TIP3   OH229905   1.802   4.070   3.481 -0.0081 -0.6079  0.5671
 2805TIP3    H129906   1.716   4.110   3.465  0.6846  0.3001 -1.1508
 2805TIP3    H229907   1.826   4.101   3.568 -1.0550 -0.2050  0.7346
 2806TIP3   OH229908   6.517   2.143   4.019  0.4106  0.7163  0.6592
 2806TIP3    H129909   6.450   2.130   3.952 -0.7486 -1.2693  2.0953
 2806TIP3    H229910   6.578   2.071   4.006  1.2199  1.4086  0.5713
 2807TIP3   OH229911   2.806   5.040  14.064 -0.5246 -0.3952  0.3357
 2807TIP3    H129912   2.777   4.953  14.036 -1.1855 -0.6025  1.6372
 2807TIP3    H229913   2.813   5.034  14.159 -0.6051  0.9890  0.4427
 2808TIP3   OH229914   1.932   1.713  13.719 -0.3031  0.4903 -0.0379
 2808TIP3    H129915   1.860   1.669  13.763 -0.9781 -0.4438 -1.9952
 2808TIP3    H229916   1.897   1.739  13.634  1.5027  0.4986 -0.8279
 2809TIP3   OH229917   3.074   3.108  16.596  0.2808 -0.4974  0.3833
 2809TIP3    H129918   3.110   3.020  16.607 -0.2302 -0.6130  1.1702
 2809TIP3    H229919   2.987   3.104  16.637  0.0525  0.2383 -0.0086
 2810TIP3   OH229920   6.637   3.736   2.178  0.5042  0.6482  0.5629
 2810TIP3    H129921   6.642   3.831   2.178  0.9180  0.6487 -1.1526
 2810TIP3    H229922   6.729   3.707   2.172  0.2888  0.1997 -1.1102
 2811TIP3   OH229923   1.256   2.708  16.223  0.0485 -0.5697 -0.3713
 2811TIP3    H129924   1.214   2.766  16.287  0.8942 -0.8091  0.4220
 2811TIP3    H229925   1.184   2.677  16.168 -0.3195  1.8839 -1.3771
 2812TIP3   OH229926   4.387   1.696  15.688  0.0483  0.5551  0.5411
 2812TIP3    H129927   4.417   1.785  15.709  0.6988  0.2757  0.8174
 2812TIP3    H229928   4.298   1.708  15.654  0.6438  1.4677 -0.8054
 2813TIP3   OH229929   1.539   4.766   6.183 -0.4419 -0.0755 -0.0304
 2813TIP3    H129930   1.592   4.705   6.132 -0.9858  0.1758 -0.9241
 2813TIP3    H229931   1.450   4.733   6.175 -0.3772 -0.9926  2.1686
 2814TIP3   OH229932   0.245   4.066  16.171  0.2535 -0.3241  0.0099
 2814TIP3    H129933   0.212   4.128  16.106  0.7983 -0.3937 -0.3346
 2814TIP3    H229934   0.276   3.992  16.120  0.8182 -0.3194  0.3343
 2815TIP3   OH229935   5.279   3.986   3.571 -0.0056 -0.0001  0.1613
 2815TIP3    H129936   5.269   3.981   3.666 -0.7470  0.2265  0.1006
 2815TIP3    H229937   5.285   4.080   3.552  0.7824 -0.0680  0.0405
 2816TIP3   OH229938   3.441   3.652   2.525  0.2509 -0.4208  0.5586
 2816TIP3    H129939   3.464   3.673   2.435 -0.1824 -0.4045  0.4475
 2816TIP3    H229940   3.479   3.565   2.540 -0.5251 -0.8723  0.0220
 2817TIP3   OH229941   2.677   4.242   0.003 -0.1882  0.4076  0.3936
 2817TIP3    H129942   2.617   4.269   0.073 -0.1987  1.3590  0.0183
 2817TIP3    H229943   2.623   4.190  -0.056 -0.2672 -0.0795  0.8737
 2818TIP3   OH229944   3.946   3.986   3.452  1.0428  0.5068  0.0102
 2818TIP3    H129945   3.964   3.971   3.359 -0.1365 -1.3197  0.0169
 2818TIP3    H229946   3.953   4.080   3.463  1.6022  0.7266 -1.8411
 2819TIP3   OH229947   6.544   4.750   0.358  0.0071  0.1019 -0.4043
 2819TIP3    H129948   6.508   4.830   0.397 -0.7660 -0.6973  0.6059
 2819TIP3    H229949   6.469   4.691   0.351  0.5412 -0.5015 -1.2387
 2820TIP3   OH229950   5.532   6.147   1.509  0.2482 -0.2234  0.1708
 2820TIP3    H129951   5.518   6.211   1.579  1.3461  1.8308 -1.3868
 2820TIP3    H229952   5.625   6.155   1.487  0.0315 -1.1165 -1.2201
 2821TIP3   OH229953   1.588   2.498   2.025 -0.3464  0.2185 -0.0057
 2821TIP3    H129954   1.550   2.418   1.990 -1.4012  1.3366 -1.5341
 2821TIP3    H229955   1.561   2.567   1.964  1.6678  1.5441  0.4984
 2822TIP3   OH229956   5.821   0.115   3.992 -0.3930  0.9252  0.1131
 2822TIP3    H129957   5.860   0.192   4.034  3.3098 -1.2271  1.0490
 2822TIP3    H229958   5.784   0.065   4.065 -1.6894  1.1971 -0.3407
 2823TIP3   OH229959   3.151   0.924   4.469 -0.0732 -0.3429  0.0739
 2823TIP3    H129960   3.120   0.839   4.501  3.3968 -2.5959 -1.9700
 2823TIP3    H229961   3.232   0.939   4.517 -0.5833  1.8732  0.3319
 2824TIP3   OH229962   3.502   0.294  11.448 -0.2869 -0.4303  0.2975
 2824TIP3    H129963   3.549   0.212  11.465 -1.6852 -1.1260  0.9887
 2824TIP3    H229964   3.471   0.285  11.358  0.5840 -0.1082 -0.0490
 2825TIP3   OH229965   3.541   4.692  15.136  0.6621  0.3952 -0.4336
 2825TIP3    H129966   3.567   4.603  15.161 -0.1519  0.6884  1.6931
 2825TIP3    H229967   3.541   4.691  15.041  0.6194 -1.9028 -0.4736
 2826TIP3   OH229968   5.680   1.533  11.652  0.6806  0.3274 -0.1071
 2826TIP3    H129969   5.711   1.471  11.718  1.8518  1.4712  0.4432
 2826TIP3    H229970   5.616   1.482  11.600 -3.2225  0.3283  4.0645
 2827TIP3   OH229971   3.873   2.934   1.420 -0.0852 -0.7078  0.5798
 2827TIP3    H129972   3.798   2.922   1.478  0.2607 -0.1220  1.1601
 2827TIP3    H229973   3.842   2.904   1.334 -1.4522  0.8242  0.4805
 2828TIP3   OH229974   0.455   6.282  16.191 -0.6523 -0.7576 -0.2311
 2828TIP3    H129975   0.495   6.202  16.226 -2.8240 -1.8994 -0.1677
 2828TIP3    H229976   0.408   6.253  16.112 -0.3591  0.7469 -1.0079
 2829TIP3   OH229977   3.683   0.366   0.082  0.2052  0.0514  0.5974
 2829TIP3    H129978   3.725   0.279   0.084  1.4297  0.5650 -0.8648
 2829TIP3    H229979   3.590   0.347   0.093  0.3362 -1.5737 -0.5522
 2830TIP3   OH229980   3.777   3.075   2.535  0.0112 -0.4053 -0.1691
 2830TIP3    H129981   3.692   3.105   2.566  0.2888  1.8588 -1.3820
 2830TIP3    H229982   3.840   3.127   2.584  0.6978 -1.6991  0.3553
 2831TIP3   OH229983   2.596   4.554  10.562 -0.2588 -0.1705  0.0145
 2831TIP3    H129984   2.690   4.563  10.545 -0.5834  1.2338 -1.1783
 2831TIP3    H229985   2.565   4.643  10.578 -1.4530 -0.5719  0.0556
 2832TIP3   OH229986   6.787   1.724  10.873  0.8739 -0.6651  0.3582
 2832TIP3    H129987   6.716   1.758  10.819 -0.3880 -0.9233  1.8058
 2832TIP3    H229988   6.746   1.659  10.930  2.6123 -2.1830 -0.0053
 2833TIP3   OH229989   1.243   0.920  15.226 -0.6597 -0.1077  0.3800
 2833TIP3    H129990   1.203   0.998  15.264 -0.7404 -0.5423  1.2134
 2833TIP3    H229991   1.249   0.939  15.132 -0.7633  0.8570  0.5561
 2834TIP3   OH229992   1.801   1.644   1.994 -0.6153 -0.0732  0.0964
 2834TIP3    H129993   1.865   1.712   2.016  0.7075 -1.0777 -0.4934
 2834TIP3    H229994   1.756   1.627   2.077  1.0288 -0.4886  0.9603
 2835TIP3   OH229995   5.142   1.991   5.142 -0.2884  0.3873 -0.6851
 2835TIP3    H129996   5.193   2.071   5.130  0.3526  0.4823  1.9759
 2835TIP3    H229997   5.057   2.009   5.101  0.3531  1.8293 -1.4350
 2836TIP3   OH229998   6.650   0.754  12.096  0.1203  0.2350  0.5945
 2836TIP3    H129999   6.661   0.848  12.089 -1.5932  0.5418  1.4351
 2836TIP3    H230000   6.597   0.730  12.020  2.0272 -0.3755 -0.6033
 2837TIP3   OH230001   0.142   0.279   1.744  0.4383  0.1333 -0.6025
 2837TIP3    H130002   0.094   0.343   1.797 -0.2092 -1.4506  0.8045
 2837TIP3    H230003   0.234   0.308   1.749  0.7229 -0.9460  3.0350
 2838TIP3   OH230004   5.396   4.440   2.761 -0.5357  1.2237 -0.0754
 2838TIP3    H130005   5.469   4.498   2.740 -0.4102  1.9172  2.0176
 2838TIP3    H230006   5.419   4.404   2.847 -2.3242  0.9041  0.2988
 2839TIP3   OH230007   1.095   3.870  12.043  0.5469  0.0627  0.3574
 2839TIP3    H130008   1.135   3.913  12.118  3.5350 -1.9607  0.0927
 2839TIP3    H230009   1.100   3.934  11.973  0.7631  0.8257  1.0532
 2840TIP3   OH230010   1.484   1.175  13.328  0.3231  0.3692  0.7380
 2840TIP3    H130011   1.475   1.090  13.284  0.8084  0.6019  0.1792
 2840TIP3    H230012   1.417   1.173  13.397  1.3692 -1.0936  1.7677
 2841TIP3   OH230013   0.991   6.798   0.320  0.3357  0.1802 -0.1523
 2841TIP3    H130014   0.965   6.881   0.278  4.1631  0.3788 -2.5681
 2841TIP3    H230015   0.949   6.730   0.268 -0.8826  0.4966  0.3728
 2842TIP3   OH230016   3.305   4.039   6.276  0.1203 -0.2578 -0.1334
 2842TIP3    H130017   3.340   3.953   6.254  1.2998 -0.4536  2.2207
 2842TIP3    H230018   3.292   4.036   6.370 -0.8369  1.8130 -0.1486
 2843TIP3   OH230019   0.260   4.555   3.043 -0.5142 -0.8389  0.6467
 2843TIP3    H130020   0.181   4.544   2.989  1.3142  1.7828 -2.9733
 2843TIP3    H230021   0.310   4.475   3.030 -0.6135 -0.6960 -0.7210
 2844TIP3   OH230022   0.718   6.715   5.644 -0.4268 -0.0146  0.0249
 2844TIP3    H130023   0.806   6.686   5.667 -0.1181  1.4139  0.6873
 2844TIP3    H230024   0.696   6.664   5.566 -0.1789 -2.4896  1.4741
 2845TIP3   OH230025   6.762   2.073  15.684  0.3440  0.3259  0.1432
 2845TIP3    H130026   6.697   2.091  15.752 -0.0096 -1.5867  0.3703
 2845TIP3    H230027   6.761   1.978  15.674  0.4919  0.5303 -2.4796
 2846TIP3   OH230028   6.045   3.040  14.270 -0.0232 -0.0851 -0.4057
 2846TIP3    H130029   5.952   3.059  14.281 -0.5280 -1.5040 -1.8072
 2846TIP3    H230030   6.089   3.098  14.332 -1.8873 -0.1632  1.0731
 2847TIP3   OH230031   3.183   3.506   1.018  0.2280 -0.2541 -0.1036
 2847TIP3    H130032   3.257   3.565   1.004  0.7855 -1.0226 -0.5283
 2847TIP3    H230033   3.126   3.521   0.943  1.3478 -1.6484 -1.2865
 2848TIP3   OH230034   1.778   2.408   3.328 -0.3553 -0.2042 -0.1585
 2848TIP3    H130035   1.787   2.452   3.413  0.1037 -0.4525 -0.0752
 2848TIP3    H230036   1.718   2.464   3.279  0.2106  0.5124 -0.0531
 2849TIP3   OH230037   2.760   5.874   6.286 -0.2566 -0.4228 -0.8573
 2849TIP3    H130038   2.846   5.856   6.246  1.4495 -0.6951  2.5280
 2849TIP3    H230039   2.772   5.958   6.331 -3.0728  1.4696 -3.2850
 2850TIP3   OH230040   4.825   3.937   0.422  0.1467 -0.6542 -0.0577
 2850TIP3    H130041   4.762   3.866   0.427 -0.2829 -0.3396 -0.7988
 2850TIP3    H230042   4.780   4.012   0.461 -0.3625 -0.1515 -1.5581
 2851TIP3   OH230043   4.321   4.209  14.310 -0.1953  0.0296 -0.0672
 2851TIP3    H130044   4.294   4.173  14.226 -0.6965 -0.7244  0.4023
 2851TIP3    H230045   4.275   4.292  14.317 -0.0133  0.1797 -0.6090
 2852TIP3   OH230046   5.200   0.786   4.198  0.3289  0.0062  0.4122
 2852TIP3    H130047   5.266   0.717   4.208 -0.0177 -0.0390  3.3296
 2852TIP3    H230048   5.118   0.743   4.222 -0.5999  0.4355 -1.7721
 2853TIP3   OH230049   1.180   3.655   5.467  0.4029  0.4601 -0.3197
 2853TIP3    H130050   1.146   3.568   5.446  0.3693  0.8658 -2.1639
 2853TIP3    H230051   1.111   3.696   5.520  1.4635 -1.4325  2.7349
 2854TIP3   OH230052   1.781   3.198  15.399  0.1677 -0.0431  0.1173
 2854TIP3    H130053   1.764   3.118  15.448  0.6270  0.1915  0.6749
 2854TIP3    H230054   1.844   3.172  15.332  0.9124 -0.0062  0.7776
 2855TIP3   OH230055   2.446   6.639   0.775  0.2771  0.0719 -0.2338
 2855TIP3    H130056   2.438   6.735   0.778 -0.6434  0.0072  2.8100
 2855TIP3    H230057   2.468   6.614   0.865 -1.8674 -2.7175 -0.3421
 2856TIP3   OH230058   6.487   3.776  15.011 -0.0680  0.3704  0.1659
 2856TIP3    H130059   6.509   3.684  15.027 -0.8591  0.4217  1.7207
 2856TIP3    H230060   6.555   3.825  15.057 -0.6082  0.5531  0.7740
 2857TIP3   OH230061   0.634   3.732  14.685 -0.2044 -0.1175 -0.1286
 2857TIP3    H130062   0.612   3.822  14.710 -2.1458 -0.0402 -1.8488
 2857TIP3    H230063   0.622   3.681  14.765  1.6055  1.1757  1.0740
 2858TIP3   OH230064   5.917   5.304  11.550  0.1726  0.5939  0.0597
 2858TIP3    H130065   5.942   5.392  11.578 -1.5752  1.4566 -0.9571
 2858TIP3    H230066   5.852   5.276  11.615 -0.8035  0.9199 -0.7523
 2859TIP3   OH230067   6.048   3.124  13.799 -0.1522  0.5314 -0.7954
 2859TIP3    H130068   6.099   3.079  13.867  2.8217 -0.2581 -3.2988
 2859TIP3    H230069   5.960   3.089  13.808  0.3011 -0.1652  2.0507
 2860TIP3   OH230070   1.183   3.637   4.658  0.1020 -0.3429 -0.6112
 2860TIP3    H130071   1.246   3.576   4.621 -0.0375 -1.1415  0.4201
 2860TIP3    H230072   1.204   3.639   4.752 -0.6648  0.2723 -0.4430
 2861TIP3   OH230073   3.361   0.553  13.530 -0.3530 -0.7579 -0.1936
 2861TIP3    H130074   3.454   0.547  13.512  0.4762  1.4319  2.6721
 2861TIP3    H230075   3.328   0.619  13.469  0.3577 -0.2718 -0.0592
 2862TIP3   OH230076   6.701   1.519  11.027  0.1633 -0.1192  0.2122
 2862TIP3    H130077   6.789   1.538  11.059  0.0927 -0.9595  0.9528
 2862TIP3    H230078   6.697   1.423  11.023 -0.4764 -0.0725 -0.5238
 2863TIP3   OH230079   0.334   0.001   5.778  0.4326  0.2955 -0.0972
 2863TIP3    H130080   0.352   0.030   5.689 -1.0527  2.1384  0.1463
 2863TIP3    H230081   0.241   0.017   5.791  0.4132 -0.8402  1.4824
 2864TIP3   OH230082   5.826   3.888  12.790 -0.3289 -0.0272  0.2781
 2864TIP3    H130083   5.845   3.856  12.879 -0.4185 -0.9951 -0.0337
 2864TIP3    H230084   5.827   3.983  12.798  0.5876 -0.0866  1.1280
 2865TIP3   OH230085   6.823   6.067  13.166  0.0990  0.4750  0.1386
 2865TIP3    H130086   6.765   6.007  13.119  0.1916 -1.2086  2.0195
 2865TIP3    H230087   6.911   6.037  13.142  0.1758  1.1213 -0.4076
 2866TIP3   OH230088   1.749   1.570  17.016  0.1701 -0.2191 -0.3990
 2866TIP3    H130089   1.660   1.538  17.004  0.0939  0.4351 -1.7621
 2866TIP3    H230090   1.755   1.647  16.960  1.2641  0.3973  0.5266
 2867TIP3   OH230091   4.453   5.458  16.563 -0.7470 -0.4093  0.3977
 2867TIP3    H130092   4.367   5.491  16.537 -1.0681 -1.7660 -0.3219
 2867TIP3    H230093   4.438   5.415  16.647 -0.4540  0.6674  1.0195
 2868TIP3   OH230094   2.843   4.103  14.445  0.4459  0.1663 -0.3597
 2868TIP3    H130095   2.911   4.152  14.399 -0.0520  0.0287 -1.2650
 2868TIP3    H230096   2.831   4.149  14.528  2.1778 -0.2539  0.1612
 2869TIP3   OH230097   5.672   0.079  13.728 -0.4225 -0.2813  0.3795
 2869TIP3    H130098   5.597   0.078  13.668 -0.0223  0.4827 -0.1425
 2869TIP3    H230099   5.724   0.003  13.703 -0.8711 -0.6502  0.5562
 2870TIP3   OH230100   2.751   3.084  12.223  0.4580  0.4083  0.6099
 2870TIP3    H130101   2.692   3.014  12.194  1.3919  0.3304 -1.1856
 2870TIP3    H230102   2.701   3.130  12.290 -1.6942  0.3812 -0.8799
 2871TIP3   OH230103   4.896   3.010  13.067 -0.0949  0.1462  0.0126
 2871TIP3    H130104   4.948   2.957  13.008 -1.0151  0.3406 -0.9935
 2871TIP3    H230105   4.937   2.997  13.153  0.7683 -0.7620 -0.5162
 2872TIP3   OH230106   2.608   5.617  17.037 -0.0307 -0.1894  0.6005
 2872TIP3    H130107   2.552   5.694  17.038  0.8625  0.5223 -1.2086
 2872TIP3    H230108   2.555   5.549  17.078 -1.5785  0.8640  0.4318
 2873TIP3   OH230109   0.710   3.292  12.109  0.4285 -0.5413 -0.5630
 2873TIP3    H130110   0.768   3.353  12.063  1.1202 -1.2353 -0.6413
 2873TIP3    H230111   0.627   3.297  12.062 -0.0406  1.4778  0.3576
 2874TIP3   OH230112   4.127   6.134   3.953  0.1078  0.5536  0.1340
 2874TIP3    H130113   4.108   6.223   3.923 -0.4602  0.7922  1.1668
 2874TIP3    H230114   4.069   6.079   3.900 -2.8444  1.1873  2.4520
 2875TIP3   OH230115   0.169   2.682  13.403 -0.5888  0.2674  0.6464
 2875TIP3    H130116   0.112   2.650  13.473 -2.3732  0.5028 -0.6354
 2875TIP3    H230117   0.111   2.698  13.329  1.3252 -0.7485 -1.2006
 2876TIP3   OH230118   2.545   5.493   2.159  0.5612 -0.0245 -0.4272
 2876TIP3    H130119   2.523   5.470   2.249  1.0462 -1.5986 -0.6719
 2876TIP3    H230120   2.466   5.536   2.125 -0.7315 -1.9912 -0.0979
 2877TIP3   OH230121   2.900   2.145  12.175 -0.5098 -0.0165  0.3292
 2877TIP3    H130122   2.911   2.056  12.209  2.6828  0.3710  0.6207
 2877TIP3    H230123   2.879   2.133  12.082  1.1247 -1.1041  0.0667
 2878TIP3   OH230124   5.454   0.301  13.337  0.0249  0.0037  0.1572
 2878TIP3    H130125   5.425   0.371  13.278  0.7883 -0.0504 -0.2955
 2878TIP3    H230126   5.549   0.310  13.340  0.4618 -2.6966 -2.1118
 2879TIP3   OH230127   1.982   5.960  14.004  0.0162  0.3674  0.1012
 2879TIP3    H130128   1.975   6.053  13.981  1.4235  0.8357  1.3954
 2879TIP3    H230129   2.012   5.960  14.094 -0.1911 -1.3693  0.1994
 2880TIP3   OH230130   3.588   4.686  14.865 -0.1788 -0.3903  0.5304
 2880TIP3    H130131   3.617   4.638  14.787  0.6809 -0.3393  0.8072
 2880TIP3    H230132   3.620   4.775  14.851 -0.6713 -0.2020  0.6016
 2881TIP3   OH230133   0.123   2.233  11.958 -0.1174 -0.7458 -0.4075
 2881TIP3    H130134   0.190   2.261  11.896  0.8044 -0.1373  0.8248
 2881TIP3    H230135   0.093   2.148  11.925  0.1477 -0.3132 -1.8114
 2882TIP3   OH230136   0.493   3.158  16.092  0.0121  0.2220 -0.5547
 2882TIP3    H130137   0.440   3.093  16.046 -1.6074 -0.0578  1.5581
 2882TIP3    H230138   0.468   3.242  16.053  0.8990 -0.2345 -2.1754
 2883TIP3   OH230139   2.518   3.131   5.668  0.6682  0.2141  0.0426
 2883TIP3    H130140   2.574   3.134   5.591  2.4751  1.6688  1.3069
 2883TIP3    H230141   2.443   3.186   5.645  0.6478 -0.2454 -1.0358
 2884TIP3   OH230142   6.639   3.768   2.576  0.0938 -0.4387  0.5670
 2884TIP3    H130143   6.649   3.852   2.533  0.3130 -1.1693 -0.8673
 2884TIP3    H230144   6.594   3.788   2.659 -1.9968  0.8219 -0.7734
 2885TIP3   OH230145   1.532   0.958   0.476  0.0953  0.2593  0.2570
 2885TIP3    H130146   1.472   1.031   0.495 -0.9001  0.0420 -1.8130
 2885TIP3    H230147   1.475   0.881   0.474  0.7514 -0.2264  0.0305
 2886TIP3   OH230148   1.749   5.002  14.517  0.1714 -0.2502 -0.0468
 2886TIP3    H130149   1.677   5.058  14.489 -1.6217 -2.8316 -0.9590
 2886TIP3    H230150   1.724   4.973  14.605  0.7566 -0.1379  0.1601
 2887TIP3   OH230151   6.749   6.702  15.143  0.1952 -0.0920  0.1935
 2887TIP3    H130152   6.666   6.668  15.176 -0.0576  1.7807  1.7149
 2887TIP3    H230153   6.737   6.797  15.143  1.6990  0.1513 -1.3900
 2888TIP3   OH230154   1.257   1.417  12.368  0.5476 -0.1048  0.2093
 2888TIP3    H130155   1.185   1.419  12.430  0.5832 -2.6848  0.4331
 2888TIP3    H230156   1.334   1.391  12.419  1.6207  2.1592 -0.1105
 2889TIP3   OH230157   2.390   4.660  12.893  0.0996  0.4832 -0.0512
 2889TIP3    H130158   2.449   4.692  12.961  1.0035 -0.0132 -0.5874
 2889TIP3    H230159   2.427   4.694  12.811 -0.7315  0.7170 -0.3395
 2890TIP3   OH230160   2.094   6.512   3.984 -0.1279 -0.2267  0.2875
 2890TIP3    H130161   2.034   6.516   3.910 -1.0817  0.0148  1.0490
 2890TIP3    H230162   2.106   6.604   4.010 -0.2599 -0.3386  0.7693
 2891TIP3   OH230163   1.993   4.775  12.106  0.2640 -0.2816 -0.0761
 2891TIP3    H130164   1.937   4.708  12.065  0.4501  0.7652 -2.1974
 2891TIP3    H230165   1.933   4.846  12.128  0.4340 -0.0657 -0.3022
 2892TIP3   OH230166   2.967   1.558  11.799  0.2000 -0.3575 -0.1720
 2892TIP3    H130167   3.029   1.489  11.780 -0.2610 -0.8302  0.0195
 2892TIP3    H230168   2.999   1.598  11.880  0.1764 -0.6950  0.0047
 2893TIP3   OH230169   2.448   5.946  12.356  0.0385 -0.0457 -0.5271
 2893TIP3    H130170   2.410   5.870  12.312 -0.3178  0.7213 -1.5885
 2893TIP3    H230171   2.406   5.948  12.442 -0.7161 -0.4540 -0.8753
 2894TIP3   OH230172   0.539   6.741  13.431  0.0524  0.0438 -0.1498
 2894TIP3    H130173   0.601   6.781  13.370  1.5257 -0.4813  0.9441
 2894TIP3    H230174   0.504   6.814  13.483  0.1047  0.2864 -0.4575
 2895TIP3   OH230175   3.688   4.347   1.454  0.6450 -0.7678 -0.4513
 2895TIP3    H130176   3.599   4.312   1.444 -0.2306  1.2684 -0.2204
 2895TIP3    H230177   3.718   4.363   1.364  0.0601  0.1840 -0.4914
 2896TIP3   OH230178   1.221   0.914   0.714 -0.3828  0.4692 -0.4690
 2896TIP3    H130179   1.263   0.859   0.781  0.6559 -0.4672 -1.8203
 2896TIP3    H230180   1.208   0.855   0.640 -1.7332  1.4215 -1.0280
 2897TIP3   OH230181   1.150   3.257   3.893  0.1527 -0.0936  0.0202
 2897TIP3    H130182   1.206   3.258   3.815  1.0112 -1.3810  0.5798
 2897TIP3    H230183   1.086   3.187   3.874 -0.6136  0.6460 -0.1673
 2898TIP3   OH230184   2.609   3.222   4.080  0.6088 -0.1553  0.1338
 2898TIP3    H130185   2.524   3.232   4.038  0.1205  0.1834  1.1646
 2898TIP3    H230186   2.632   3.130   4.067  1.1275  0.2259 -2.0358
 2899TIP3   OH230187   5.318   6.791  15.839  0.0302  0.2719 -0.2157
 2899TIP3    H130188   5.289   6.709  15.877 -1.1493  0.5760 -0.4381
 2899TIP3    H230189   5.274   6.796  15.754  0.9097  0.6418 -0.6707
 2900TIP3   OH230190   6.773   0.774  11.448  0.3361  0.1056 -0.2670
 2900TIP3    H130191   6.759   0.864  11.418 -1.1220 -0.2750 -0.8268
 2900TIP3    H230192   6.808   0.728  11.372  1.5115  0.2712  0.1479
 2901TIP3   OH230193   1.206   3.577  14.371  0.6117  0.7039 -0.3633
 2901TIP3    H130194   1.125   3.585  14.422  0.6312 -0.2201 -0.1722
 2901TIP3    H230195   1.190   3.503  14.313  2.3310 -1.3608  1.6254
 2902TIP3   OH230196   0.438   6.278   6.427 -0.1830 -0.7792  0.1852
 2902TIP3    H130197   0.358   6.228   6.443 -0.1331 -0.0733  3.2330
 2902TIP3    H230198   0.485   6.276   6.510  2.1406  0.3492 -0.9808
 2903TIP3   OH230199   0.334   0.427   4.317 -0.2569  0.1086  0.2636
 2903TIP3    H130200   0.281   0.354   4.286 -0.5888  0.4389  0.0537
 2903TIP3    H230201   0.402   0.385   4.370 -0.8244 -0.3004  0.6816
 2904TIP3   OH230202   4.509   3.263  13.513 -0.2446  0.3523 -0.2344
 2904TIP3    H130203   4.556   3.186  13.482 -1.9962  0.0568 -2.4147
 2904TIP3    H230204   4.541   3.334  13.457 -1.0204  0.5198 -0.4715
 2905TIP3   OH230205   3.848   3.249   4.516 -0.0923 -0.1727 -0.1369
 2905TIP3    H130206   3.816   3.260   4.426  0.3494 -0.1670 -0.2930
 2905TIP3    H230207   3.799   3.313   4.567  0.2736  0.4181 -0.5214
 2906TIP3   OH230208   3.594   2.781  17.098 -0.0780 -0.3111  0.0378
 2906TIP3    H130209   3.629   2.792  17.186  1.4006  2.7739 -0.7919
 2906TIP3    H230210   3.553   2.865  17.078  0.1012 -0.7366 -2.3882
 2907TIP3   OH230211   5.728   5.475  15.537 -0.3690 -0.1188  0.1530
 2907TIP3    H130212   5.773   5.408  15.485 -1.3745 -0.4394 -0.3318
 2907TIP3    H230213   5.747   5.557  15.492 -3.0132 -0.6067 -2.1236
 2908TIP3   OH230214   4.874   2.233   5.305 -0.0298  0.4740  0.1646
 2908TIP3    H130215   4.912   2.266   5.223 -2.2898  1.0075 -0.7437
 2908TIP3    H230216   4.786   2.205   5.281 -0.8856  0.9428  2.4991
 2909TIP3   OH230217   0.152   3.166   4.934 -0.0886 -0.0947  1.0576
 2909TIP3    H130218   0.075   3.136   4.982 -0.0662 -1.1171  0.4813
 2909TIP3    H230219   0.119   3.191   4.848  0.2019 -0.4035  0.8553
 2910TIP3   OH230220   1.821   3.599   2.991 -0.6133  0.0997  0.4352
 2910TIP3    H130221   1.738   3.552   3.000 -1.6667  1.1362 -2.4962
 2910TIP3    H230222   1.881   3.535   2.952 -1.2120  0.3357 -0.9378
 2911TIP3   OH230223   6.594   4.868  12.351 -0.6569  0.1261  0.1977
 2911TIP3    H130224   6.643   4.829  12.424 -0.1739 -0.3210 -0.3620
 2911TIP3    H230225   6.660   4.916  12.301 -0.2383 -2.4430 -1.9378
 2912TIP3   OH230226   5.710   4.181  13.991 -0.2900 -0.2376  0.0715
 2912TIP3    H130227   5.720   4.167  14.085 -0.9682  1.3072  0.4101
 2912TIP3    H230228   5.774   4.249  13.970 -1.7373  1.1242 -0.0864
 2913TIP3   OH230229   6.740   4.441  11.926  0.5983  0.1914 -0.3898
 2913TIP3    H130230   6.650   4.429  11.957  0.4087  0.4778 -0.8228
 2913TIP3    H230231   6.751   4.536  11.923  1.8221  0.2392  2.2611
 2914TIP3   OH230232   4.518   1.459   5.804 -0.0491  0.3273 -0.0746
 2914TIP3    H130233   4.450   1.494   5.861  0.5104 -1.1556  1.6049
 2914TIP3    H230234   4.481   1.378   5.769 -0.3164  1.1245 -1.7697
 2915TIP3   OH230235   3.131   3.262  13.551 -0.2648 -0.0349  0.6472
 2915TIP3    H130236   3.087   3.301  13.476 -1.3407 -1.8974  0.2191
 2915TIP3    H230237   3.215   3.231  13.517  0.0822  0.8401  0.7018
 2916TIP3   OH230238   5.826   4.626   0.187  0.8826 -0.2645  0.2728
 2916TIP3    H130239   5.909   4.600   0.227  0.7297  1.1685  1.6020
 2916TIP3    H230240   5.785   4.682   0.252 -0.2228  0.6594 -1.1775
 2917TIP3   OH230241   2.015   4.245   5.217  0.7040  0.6014  0.0472
 2917TIP3    H130242   1.994   4.220   5.307  0.3382 -2.4677 -0.7985
 2917TIP3    H230243   2.069   4.174   5.184  0.4377  1.4323 -2.3391
 2918TIP3   OH230244   5.703   4.132   0.756  0.0848 -0.1585 -0.2983
 2918TIP3    H130245   5.761   4.063   0.725 -1.4738 -0.9359 -1.6196
 2918TIP3    H230246   5.643   4.087   0.816  0.2876  0.4693  0.3948
 2919TIP3   OH230247   0.451   5.290   4.965  0.2601 -0.2816  0.1580
 2919TIP3    H130248   0.451   5.195   4.977  1.0619 -0.3349 -0.2032
 2919TIP3    H230249   0.490   5.325   5.045  0.0901 -0.2665  0.2343
 2920TIP3   OH230250   4.769   3.255   4.607 -0.0093 -0.0416 -0.2280
 2920TIP3    H130251   4.811   3.310   4.674  0.1181  0.9951 -1.1220
 2920TIP3    H230252   4.678   3.287   4.604 -0.3993 -1.0486  0.4274
 2921TIP3   OH230253   5.939   5.119   2.432  0.3033  0.0324  0.1159
 2921TIP3    H130254   5.854   5.086   2.459  1.7858 -0.4889  5.2624
 2921TIP3    H230255   5.948   5.203   2.477  3.2358 -0.9900  1.7630
 2922TIP3   OH230256   3.073   0.911  12.450  0.5997  0.4010  0.1463
 2922TIP3    H130257   3.040   0.843  12.508  3.4066 -1.4083 -0.1677
 2922TIP3    H230258   3.028   0.991  12.477 -4.4097 -1.7742 -0.7533
 2923TIP3   OH230259   2.718   0.992   2.178 -0.2280 -0.3734 -0.7800
 2923TIP3    H130260   2.711   1.042   2.097  0.3816 -1.4982 -1.5617
 2923TIP3    H230261   2.735   0.902   2.149  0.9036 -0.6462  0.5927
 2924TIP3   OH230262   5.816   2.413   4.072  0.7567 -0.0493 -0.2698
 2924TIP3    H130263   5.762   2.466   4.013  0.5372  0.6001  0.5123
 2924TIP3    H230264   5.857   2.348   4.014 -0.1911 -0.0168 -1.0025
 2925TIP3   OH230265   0.245   5.875   1.275  0.2025 -0.0978  0.3201
 2925TIP3    H130266   0.318   5.848   1.219  0.7147  1.4000  0.2193
 2925TIP3    H230267   0.225   5.964   1.247 -2.3229 -0.7716 -0.3101
 2926TIP3   OH230268   2.682   3.800   4.179  0.2201  0.1455 -0.0259
 2926TIP3    H130269   2.617   3.869   4.190  0.2670  0.6234 -2.2455
 2926TIP3    H230270   2.724   3.820   4.095  1.4499 -1.5982  0.1199
 2927TIP3   OH230271   5.593   1.375   4.320  0.0454  0.1372  0.3623
 2927TIP3    H130272   5.499   1.387   4.337 -0.0262 -0.4118  0.3687
 2927TIP3    H230273   5.601   1.284   4.295  0.6101  0.1351  0.5432
 2928TIP3   OH230274   4.021   5.633  17.243  0.1714 -0.0601 -0.0049
 2928TIP3    H130275   4.020   5.626  17.338 -0.4200  0.1691  0.0087
 2928TIP3    H230276   4.042   5.545  17.213 -3.2807 -1.1428  0.2576
 2929TIP3   OH230277   0.740   1.541  13.117  0.2043 -0.0920 -0.0088
 2929TIP3    H130278   0.816   1.586  13.152 -0.8457  0.7195  1.3452
 2929TIP3    H230279   0.703   1.601  13.053  1.7299 -1.2901 -2.1595
 2930TIP3   OH230280   3.939   2.873   4.788 -0.8929 -0.4412 -0.0922
 2930TIP3    H130281   3.888   2.953   4.783 -1.8205 -0.9277  1.1930
 2930TIP3    H230282   3.943   2.841   4.697 -2.6076 -0.2339 -0.2605
 2931TIP3   OH230283   6.208   0.893   3.070  0.4794 -0.1704 -0.4786
 2931TIP3    H130284   6.262   0.966   3.042 -1.5609  0.6387 -2.6061
 2931TIP3    H230285   6.180   0.916   3.159  0.7887  1.0735 -0.6915
 2932TIP3   OH230286   2.246   3.902  15.721 -0.5975 -0.0486 -0.5618
 2932TIP3    H130287   2.215   3.969  15.782  1.5459  1.2288 -0.7776
 2932TIP3    H230288   2.188   3.909  15.646 -1.8541 -0.0822  0.3766
 2933TIP3   OH230289   1.547   0.661   4.932 -0.5228  0.3992 -0.3790
 2933TIP3    H130290   1.544   0.722   5.005 -0.3543  0.0464 -0.0724
 2933TIP3    H230291   1.640   0.637   4.924 -0.5207  0.5230 -0.7838
 2934TIP3   OH230292   6.775   2.679  11.032  1.0470  0.2870 -0.2698
 2934TIP3    H130293   6.792   2.756  10.978  1.8031  0.7726  0.6437
 2934TIP3    H230294   6.859   2.634  11.039  1.0423  0.4202  0.7858
 2935TIP3   OH230295   4.879   1.421  16.820  0.7821 -0.1574 -0.4008
 2935TIP3    H130296   4.890   1.327  16.811  1.0159 -0.4301  2.0865
 2935TIP3    H230297   4.968   1.456  16.823  0.7153  0.0148 -0.3595
 2936TIP3   OH230298   0.549   5.133  11.727 -0.4087 -0.3331 -0.0849
 2936TIP3    H130299   0.528   5.222  11.699 -1.3378 -0.4951  0.0688
 2936TIP3    H230300   0.612   5.145  11.799  1.3666  0.1037 -1.6345
 2937TIP3   OH230301   5.355   2.901  14.851 -0.6450  0.5252 -0.0509
 2937TIP3    H130302   5.421   2.971  14.847  0.3199 -0.1622  2.3140
 2937TIP3    H230303   5.272   2.948  14.861 -0.1070  1.3829  0.5850
 2938TIP3   OH230304   2.344   6.410   2.652  0.5794  0.1012  0.3552
 2938TIP3    H130305   2.365   6.496   2.688  0.9139  1.2083 -2.2308
 2938TIP3    H230306   2.263   6.424   2.603  1.7041 -0.4463 -1.8008
 2939TIP3   OH230307   1.736   2.902   0.492 -0.4133  0.0615  0.0775
 2939TIP3    H130308   1.823   2.897   0.531 -0.3447 -1.1598 -0.2028
 2939TIP3    H230309   1.676   2.891   0.566 -0.3508  1.0070  0.2864
 2940TIP3   OH230310   1.144   4.453  16.705  0.0208 -0.1888  0.1445
 2940TIP3    H130311   1.145   4.478  16.613 -0.8158  0.2745  0.2608
 2940TIP3    H230312   1.063   4.489  16.740 -0.3050 -1.4620  0.7624
 2941TIP3   OH230313   2.667   6.613   2.051 -0.0413  0.3256  0.6317
 2941TIP3    H130314   2.641   6.619   2.143  0.3336 -0.0713  0.7711
 2941TIP3    H230315   2.589   6.582   2.006 -0.3101  0.7989  0.7739
 2942TIP3   OH230316   0.100   0.027   1.340  0.6539  0.1202 -0.0191
 2942TIP3    H130317   0.084  -0.016   1.256  1.0365 -0.5590  0.2450
 2942TIP3    H230318   0.183   0.071   1.329  1.9542 -1.9776  0.7330
 2943TIP3   OH230319   3.353   4.789   4.754 -0.0564  0.2060 -0.0842
 2943TIP3    H130320   3.304   4.857   4.708 -0.0368  0.0724 -0.3037
 2943TIP3    H230321   3.390   4.734   4.685 -1.0519 -0.7235  0.0829
 2944TIP3   OH230322   6.674   5.304  14.406 -0.0957 -0.7354  0.3734
 2944TIP3    H130323   6.600   5.313  14.467 -2.1820  0.5853 -2.1259
 2944TIP3    H230324   6.671   5.213  14.377 -0.3444 -0.8532  0.7594
 2945TIP3   OH230325   3.788   6.519  13.710 -0.7244  0.0271  0.5337
 2945TIP3    H130326   3.778   6.436  13.756 -0.0734  0.4203  1.4279
 2945TIP3    H230327   3.843   6.499  13.635 -2.0334 -0.6826 -0.2676
 2946TIP3   OH230328   6.180   4.046   1.939  0.7796  1.1432 -0.3612
 2946TIP3    H130329   6.242   4.028   1.869 -0.1271  0.4980 -1.0269
 2946TIP3    H230330   6.233   4.055   2.018  1.7798  1.4683 -1.0634
 2947TIP3   OH230331   6.693   4.920   4.711  0.0610  0.7874 -0.5719
 2947TIP3    H130332   6.684   5.009   4.676  0.2208  0.5867 -1.1398
 2947TIP3    H230333   6.613   4.905   4.760 -0.1585  1.0906 -0.8337
 2948TIP3   OH230334   5.408   2.229   4.345 -0.1986 -0.5226 -0.0303
 2948TIP3    H130335   5.330   2.252   4.294 -0.0170  1.5775  0.5139
 2948TIP3    H230336   5.379   2.232   4.436  0.5426  0.5327  0.1915
 2949TIP3   OH230337   0.920   4.359  11.651 -0.0282  0.4180 -0.0626
 2949TIP3    H130338   0.873   4.413  11.588 -2.5689 -1.5120  0.0353
 2949TIP3    H230339   0.862   4.285  11.667  2.5606 -1.5232  1.0311
 2950TIP3   OH230340   6.632   2.307   2.438 -0.3371 -0.3747  0.0998
 2950TIP3    H130341   6.550   2.287   2.482 -0.7199 -2.8460 -1.5507
 2950TIP3    H230342   6.697   2.312   2.508 -1.3908 -1.3990  1.1880
 2951TIP3   OH230343   3.177   6.372  13.636  0.0599  0.5567 -0.0301
 2951TIP3    H130344   3.103   6.314  13.618  1.3005 -1.0168 -0.3115
 2951TIP3    H230345   3.232   6.367  13.558  0.4174  1.8021  0.1146
 2952TIP3   OH230346   1.336   1.191   0.707 -0.0241 -0.2964  0.0704
 2952TIP3    H130347   1.343   1.234   0.622  3.6364  1.3472  1.0104
 2952TIP3    H230348   1.301   1.104   0.687  0.4405  0.1300 -3.0656
 2953TIP3   OH230349   3.737   4.714  11.602 -0.8185 -0.6704  0.0813
 2953TIP3    H130350   3.717   4.746  11.514 -2.1738  0.2374  0.6803
 2953TIP3    H230351   3.749   4.793  11.654 -0.9230 -1.1753  0.8957
 2954TIP3   OH230352   4.792   4.680   2.626  0.1898 -0.1401  0.4282
 2954TIP3    H130353   4.773   4.759   2.678  2.6340  0.8192  0.0173
 2954TIP3    H230354   4.833   4.620   2.688  1.4837  0.3021  0.0189
 2955TIP3   OH230355   5.652   0.298   4.373 -0.1332  0.0584  0.7888
 2955TIP3    H130356   5.659   0.387   4.407 -0.1282 -0.5144  2.4228
 2955TIP3    H230357   5.570   0.297   4.323 -0.0708  1.0079  0.6586
 2956TIP3   OH230358   0.008   2.578  15.171 -0.3344  0.2384 -0.0656
 2956TIP3    H130359   0.068   2.614  15.106 -1.0399  0.7117 -0.4769
 2956TIP3    H230360  -0.073   2.628  15.159 -0.1811  1.0289  1.8378
 2957TIP3   OH230361   0.686   2.574  17.024  0.1903 -0.8962  0.1671
 2957TIP3    H130362   0.635   2.578  16.943 -1.0460 -3.8779  0.6346
 2957TIP3    H230363   0.621   2.579  17.094  1.2217  1.4621  1.0552
 2958TIP3   OH230364   5.535   2.135  12.928 -0.2682  0.7311 -0.4427
 2958TIP3    H130365   5.575   2.054  12.899 -0.3931  1.1501 -1.8661
 2958TIP3    H230366   5.601   2.176  12.985 -0.1731 -0.3023  0.2061
 2959TIP3   OH230367   5.910   0.585  10.579  0.0511 -0.1348 -0.1848
 2959TIP3    H130368   5.828   0.593  10.530 -0.7836 -0.9362  1.0388
 2959TIP3    H230369   5.906   0.499  10.620  0.5423  0.6509  1.5985
 2960TIP3   OH230370   4.873   1.644   3.840 -0.0516  0.0314 -0.2055
 2960TIP3    H130371   4.940   1.594   3.795 -0.1019 -0.0444 -0.1952
 2960TIP3    H230372   4.858   1.720   3.784 -0.4627 -0.3091 -0.5542
 2961TIP3   OH230373   1.181   1.305  14.042 -0.1142  0.0734  0.4904
 2961TIP3    H130374   1.086   1.299  14.041 -0.1098 -0.9041  2.4419
 2961TIP3    H230375   1.199   1.398  14.055 -0.7464  0.4061 -0.7963
 2962TIP3   OH230376   2.786   5.065   1.906  0.2553  0.3807 -0.6078
 2962TIP3    H130377   2.775   5.157   1.929  0.7126  0.7376 -1.7357
 2962TIP3    H230378   2.697   5.033   1.893  0.1048  0.7369 -0.4871
 2963TIP3   OH230379   2.061   3.504  16.387  0.1613  0.2419  0.4752
 2963TIP3    H130380   2.092   3.434  16.444 -2.2095 -0.6150  0.8453
 2963TIP3    H230381   2.042   3.461  16.304 -0.3099  0.6410  0.3665
 2964TIP3   OH230382   0.415   5.863   0.361  0.3815  0.1314 -0.0666
 2964TIP3    H130383   0.403   5.771   0.339 -0.3130  0.5327 -1.4586
 2964TIP3    H230384   0.349   5.909   0.309  0.8190  1.4262  0.4906
 2965TIP3   OH230385   3.726   1.838  11.078 -0.1570 -0.2238  0.5691
 2965TIP3    H130386   3.727   1.911  11.016  0.9836 -0.7845 -0.1107
 2965TIP3    H230387   3.724   1.760  11.022  2.1837 -0.7773  1.1590
 2966TIP3   OH230388   6.439   1.667   4.273 -0.2350 -0.6035 -0.7052
 2966TIP3    H130389   6.529   1.699   4.265 -0.9652  1.4669 -1.3800
 2966TIP3    H230390   6.434   1.633   4.363  1.3003 -1.0656 -0.7685
 2967TIP3   OH230391   1.840   0.434  17.153 -0.1640  0.0266  0.1942
 2967TIP3    H130392   1.802   0.505  17.101  0.5358  0.3592  0.1175
 2967TIP3    H230393   1.921   0.411  17.106 -1.1057 -1.8341 -0.5955
 2968TIP3   OH230394   2.470   1.943  14.633 -0.0920  0.3471  0.0226
 2968TIP3    H130395   2.466   2.033  14.601 -1.5631  0.8570  1.4798
 2968TIP3    H230396   2.386   1.930  14.676  0.1300 -1.7254 -0.1133
 2969TIP3   OH230397   2.607   1.142  15.241  0.4039  0.3081 -0.2639
 2969TIP3    H130398   2.675   1.166  15.304 -0.4756  0.9104  0.4809
 2969TIP3    H230399   2.563   1.225  15.222 -0.3563 -0.1353 -0.4581
 2970TIP3   OH230400   5.423   4.380  12.140  0.5036 -0.2861 -0.4350
 2970TIP3    H130401   5.360   4.359  12.070  1.5629  0.2938 -1.6035
 2970TIP3    H230402   5.404   4.316  12.209 -0.1066 -1.3501 -1.5457
 2971TIP3   OH230403   5.237   6.321  15.629  0.2092  0.1300  0.1360
 2971TIP3    H130404   5.188   6.403  15.641 -0.8778 -0.4054 -0.4438
 2971TIP3    H230405   5.275   6.302  15.715  1.1024  1.6152  0.1037
 2972TIP3   OH230406   4.769   2.344   2.059  0.0426  0.1989 -0.1460
 2972TIP3    H130407   4.717   2.411   2.015  2.8129  3.5128  1.2174
 2972TIP3    H230408   4.742   2.349   2.150  0.5201 -0.3343  0.0330
 2973TIP3   OH230409   1.219   1.194  15.928 -0.2739 -0.3197  0.5345
 2973TIP3    H130410   1.151   1.152  15.980  0.5308 -0.8792  1.1553
 2973TIP3    H230411   1.268   1.121  15.890  0.4573  0.0626  0.7315
 2974TIP3   OH230412   4.905   5.737   0.396 -0.1597 -0.2832 -0.2734
 2974TIP3    H130413   4.987   5.717   0.441 -0.3448  1.5975  1.0194
 2974TIP3    H230414   4.849   5.662   0.415  0.8446 -1.0055 -0.0895
 2975TIP3   OH230415   5.032   6.630   3.218  0.2074  0.0871 -0.5601
 2975TIP3    H130416   5.101   6.573   3.183  1.4115  0.0457  1.7313
 2975TIP3    H230417   4.964   6.569   3.246  0.3980 -0.0574 -0.4070
 2976TIP3   OH230418   0.064   2.297   5.872 -0.3287  0.2442  0.1893
 2976TIP3    H130419   0.012   2.217   5.863 -1.3032  0.7861  0.8164
 2976TIP3    H230420   0.093   2.296   5.963 -0.2739  0.5621  0.1748
 2977TIP3   OH230421   2.399   6.109   1.774  0.6535 -0.2477  0.6608
 2977TIP3    H130422   2.482   6.115   1.726 -0.3721 -1.1214 -1.3558
 2977TIP3    H230423   2.332   6.115   1.706 -0.9708  0.7036  2.2670
 2978TIP3   OH230424   3.545   3.690   4.503 -0.3244  0.2474  0.0114
 2978TIP3    H130425   3.508   3.700   4.591 -1.6068 -0.6310 -0.3975
 2978TIP3    H230426   3.490   3.746   4.447  0.2635  0.5286 -0.2978
 2979TIP3   OH230427   1.744   0.260  16.638  0.4888  0.0519 -0.0587
 2979TIP3    H130428   1.819   0.211  16.604  0.0339 -0.7551  0.0742
 2979TIP3    H230429   1.733   0.333  16.578 -0.4166 -1.4279 -1.7899
 2980TIP3   OH230430   6.766   5.620  13.789  0.5778 -0.3715  0.5868
 2980TIP3    H130431   6.771   5.692  13.852  0.7701 -1.3877  1.7806
 2980TIP3    H230432   6.836   5.560  13.817  0.6761 -0.8394 -0.6193
 2981TIP3   OH230433   1.244   3.675  12.424 -0.7168 -0.4080  0.7556
 2981TIP3    H130434   1.179   3.746  12.422 -0.0519  0.2164  0.8103
 2981TIP3    H230435   1.325   3.717  12.395 -0.7265 -1.6014 -1.1703
 2982TIP3   OH230436   5.124   6.256   4.883  0.0949  0.2559 -0.2125
 2982TIP3    H130437   5.060   6.211   4.829  0.3404  1.3064 -1.4144
 2982TIP3    H230438   5.206   6.250   4.834  1.0656 -1.4467  1.5006
 2983TIP3   OH230439   2.446   0.138   2.525 -0.7932 -0.2049 -0.1848
 2983TIP3    H130440   2.507   0.170   2.459 -0.0711 -1.8578 -0.3680
 2983TIP3    H230441   2.381   0.087   2.476 -0.5741 -0.9732  0.2952
 2984TIP3   OH230442   3.202   1.484  15.156  0.5096  0.6565  0.1120
 2984TIP3    H130443   3.166   1.561  15.201 -0.1700  0.5429 -0.2216
 2984TIP3    H230444   3.258   1.443  15.221 -2.7311 -1.2120  2.0215
 2985TIP3   OH230445   2.344   1.120  15.748 -0.4441  0.1270 -0.0444
 2985TIP3    H130446   2.272   1.113  15.685 -2.0394  1.2570  1.5537
 2985TIP3    H230447   2.333   1.044  15.805 -1.8346  1.4677  1.5736
 2986TIP3   OH230448   3.768   2.777   0.420 -0.3542  0.3798 -0.4809
 2986TIP3    H130449   3.728   2.843   0.477 -1.2830 -0.7463  0.2122
 2986TIP3    H230450   3.822   2.828   0.359 -0.2282  1.6992  0.6740
 2987TIP3   OH230451   6.796   0.265  11.024  0.4192 -0.2497  0.0155
 2987TIP3    H130452   6.735   0.192  11.036  0.1230 -0.0645 -0.3647
 2987TIP3    H230453   6.754   0.339  11.067  1.8527 -0.8379  2.7108
 2988TIP3   OH230454   1.008   0.376   2.715  0.2498  0.4500  0.1716
 2988TIP3    H130455   0.939   0.319   2.750 -0.7016  1.5147  0.0779
 2988TIP3    H230456   0.963   0.436   2.656  1.1802  1.5027  0.4881
 2989TIP3   OH230457   1.592   6.124  13.192 -0.1873  0.1329  0.3792
 2989TIP3    H130458   1.530   6.167  13.250 -0.0620 -0.3863  0.9101
 2989TIP3    H230459   1.644   6.068  13.249  0.8276  0.6114 -0.0399
 2990TIP3   OH230460   3.459   0.126   6.338 -0.6478  0.1760  0.1020
 2990TIP3    H130461   3.472   0.220   6.327  1.0217  0.1535  1.4900
 2990TIP3    H230462   3.461   0.113   6.433 -0.1669 -1.3378 -0.0905
 2991TIP3   OH230463   5.243   4.128  13.088 -0.5599 -0.8240  0.1143
 2991TIP3    H130464   5.192   4.155  13.011 -0.1883  1.4663  0.5898
 2991TIP3    H230465   5.179   4.121  13.158 -0.3543  2.3949  0.7955
 2992TIP3   OH230466   2.414   0.234   5.695 -0.0022  0.1033 -0.3099
 2992TIP3    H130467   2.401   0.184   5.614 -0.0164 -2.1390  0.9998
 2992TIP3    H230468   2.486   0.189   5.739 -0.3870  0.9095  1.2032
 2993TIP3   OH230469   2.201   4.859   3.913  0.1703 -0.2328  0.0597
 2993TIP3    H130470   2.148   4.924   3.867 -2.6765 -1.9710  0.6228
 2993TIP3    H230471   2.201   4.888   4.004  2.4801  1.1144 -0.3015
 2994TIP3   OH230472   0.056   4.136  10.656  0.2496  0.2570 -0.1994
 2994TIP3    H130473   0.094   4.188  10.728  0.0960  0.8209 -0.5161
 2994TIP3    H230474   0.130   4.119  10.598  0.2516  0.3284 -0.2181
 2995TIP3   OH230475   4.566   4.115  11.587  0.1915 -0.0636  0.0699
 2995TIP3    H130476   4.640   4.062  11.618  1.5635  0.9868 -1.2826
 2995TIP3    H230477   4.536   4.070  11.509 -1.1583 -0.9125  1.0328
 2996TIP3   OH230478   5.518   1.624  15.285 -0.2890  0.1987  0.2858
 2996TIP3    H130479   5.476   1.601  15.368 -0.1948 -0.5417  0.1342
 2996TIP3    H230480   5.556   1.542  15.254  1.4270  0.8745  0.4916
 2997TIP3   OH230481   2.677   5.634   1.055 -0.8739 -0.4767 -0.0318
 2997TIP3    H130482   2.597   5.674   1.021 -1.7515 -0.2059  2.1577
 2997TIP3    H230483   2.748   5.682   1.012 -1.9023  1.0152 -0.1321
 2998TIP3   OH230484   4.315   3.373   2.715 -0.1101  0.1777  0.6090
 2998TIP3    H130485   4.373   3.449   2.701 -0.0126  0.1337  0.7777
 2998TIP3    H230486   4.275   3.389   2.800  0.2341 -0.1687  0.8423
 2999TIP3   OH230487   2.952   1.726  14.260  0.3488 -0.2749  0.5431
 2999TIP3    H130488   2.950   1.774  14.177  0.5009  0.8223  1.1704
 2999TIP3    H230489   2.860   1.723  14.289  0.2067 -1.1850  0.0607
 3000TIP3   OH230490   4.227   3.219   4.738  0.2675 -0.2395  0.7860
 3000TIP3    H130491   4.171   3.240   4.813  0.0245 -0.0139  0.5442
 3000TIP3    H230492   4.310   3.263   4.758  0.0343  0.2506  0.6827
 3001TIP3   OH230493   4.875   4.595   6.769 -0.2302  0.9386  0.0875
 3001TIP3    H130494   4.815   4.555   6.706  0.8505  1.2491 -1.1851
 3001TIP3    H230495   4.848   4.687   6.773  0.3226  1.1496 -0.7244
 3002TIP3   OH230496   1.057   6.208   5.662 -0.2040 -0.1943  0.4658
 3002TIP3    H130497   1.046   6.299   5.688 -1.4752  0.1593 -1.1243
 3002TIP3    H230498   1.140   6.205   5.615 -1.5618  0.9028 -2.2156
 3003TIP3   OH230499   1.398   3.865  11.450  0.3664  0.5789  0.1764
 3003TIP3    H130500   1.472   3.808  11.430 -1.7650 -1.9514 -1.1423
 3003TIP3    H230501   1.390   3.861  11.546  1.9103  0.9109  0.3375
 3004TIP3   OH230502   4.684   2.910   4.332  0.2924  0.5404 -0.4540
 3004TIP3    H130503   4.695   2.864   4.249 -0.5687 -1.2668  0.3622
 3004TIP3    H230504   4.758   2.882   4.386 -0.2786  0.0179  0.0790
 3005TIP3   OH230505   0.792   0.929   3.482  0.0818 -0.0065 -0.1295
 3005TIP3    H130506   0.825   1.002   3.534  0.1463  0.1456 -0.3839
 3005TIP3    H230507   0.862   0.863   3.485 -1.2626 -1.4812  2.8938
 3006TIP3   OH230508   2.259   1.029  13.606  0.0482 -0.0008  0.4941
 3006TIP3    H130509   2.327   1.093  13.628  0.0101 -0.1993  1.2217
 3006TIP3    H230510   2.177   1.069  13.638 -0.4301  0.9432 -1.7613
 3007TIP3   OH230511   2.894   0.371  13.499  0.4465 -0.7844 -0.0101
 3007TIP3    H130512   2.861   0.438  13.439  0.9966 -0.1693  0.3616
 3007TIP3    H230513   2.989   0.378  13.492  0.5289 -0.4473  1.2117
 3008TIP3   OH230514   2.669   4.546   1.254 -0.2876 -0.1038 -0.0986
 3008TIP3    H130515   2.621   4.604   1.313  1.4495  0.9634  0.3249
 3008TIP3    H230516   2.605   4.522   1.187 -1.5877  0.7131  0.8028
 3009TIP3   OH230517   3.348   2.570   4.124  0.1288 -0.1785  0.3661
 3009TIP3    H130518   3.393   2.497   4.080 -0.1925 -0.6142  0.7465
 3009TIP3    H230519   3.378   2.648   4.078 -0.2659 -0.6249 -0.6920
 3010TIP3   OH230520   3.601   5.612  16.735  0.6013 -0.3823  0.0598
 3010TIP3    H130521   3.506   5.622  16.736  0.6994  0.7552 -0.1251
 3010TIP3    H230522   3.625   5.622  16.643  0.8191 -1.7147 -0.0472
 3011TIP3   OH230523   1.588   1.439  13.411 -0.4416 -0.2847 -0.0106
 3011TIP3    H130524   1.646   1.414  13.483 -0.4780 -1.5901 -0.3959
 3011TIP3    H230525   1.549   1.356  13.383  0.4748 -0.0160 -2.3123
 3012TIP3   OH230526   4.366   2.936   4.046  0.1767  0.4701 -0.1002
 3012TIP3    H130527   4.353   2.868   3.979 -0.0201  0.2673  0.1392
 3012TIP3    H230528   4.370   2.887   4.129 -0.0397  0.7571  0.0818
 3013TIP3   OH230529   6.197   0.767  16.278 -0.4366 -0.1192 -0.8436
 3013TIP3    H130530   6.144   0.737  16.204 -0.9443  0.0435 -0.5580
 3013TIP3    H230531   6.286   0.740  16.257 -1.0727 -3.6318  0.2779
 3014TIP3   OH230532   5.015   3.085  11.658 -0.3002  0.3501 -0.2977
 3014TIP3    H130533   4.982   3.007  11.703 -2.4975  1.6000  0.4244
 3014TIP3    H230534   5.099   3.104  11.701 -1.8793  0.9887  2.8280
 3015TIP3   OH230535   5.681   3.780  15.992 -0.3909 -0.0542  0.5010
 3015TIP3    H130536   5.645   3.704  16.039 -0.2160 -0.6376 -0.2828
 3015TIP3    H230537   5.636   3.779  15.908  0.4276  0.0478  0.0557
 3016TIP3   OH230538   5.978   3.809   1.658 -0.3763 -0.1732 -0.2781
 3016TIP3    H130539   5.989   3.879   1.723  0.0094  1.1914 -1.7389
 3016TIP3    H230540   6.050   3.823   1.596 -1.2127 -0.9011 -1.4528
 3017TIP3   OH230541   6.816   5.940  14.236  0.3966  0.5028 -0.5081
 3017TIP3    H130542   6.757   5.927  14.162  0.8088  1.4808 -1.0235
 3017TIP3    H230543   6.800   5.864  14.292  0.5521 -0.6080 -1.9021
 3018TIP3   OH230544   4.591   0.662   5.016 -0.0107 -0.3108 -0.0492
 3018TIP3    H130545   4.618   0.710   5.095  0.4754  1.0474 -1.0089
 3018TIP3    H230546   4.610   0.570   5.036  0.1167  0.0069  1.3995
 3019TIP3   OH230547   3.018   0.644  11.849  0.1375 -0.0723  0.1057
 3019TIP3    H130548   2.967   0.664  11.928  0.2943  1.8329 -0.2184
 3019TIP3    H230549   2.955   0.605  11.789 -0.5935  0.8069  0.2820
 3020TIP3   OH230550   5.298   4.824  12.038  0.3133 -0.0156 -0.0920
 3020TIP3    H130551   5.370   4.844  11.978 -1.8331 -0.2500 -3.0063
 3020TIP3    H230552   5.235   4.896  12.025 -0.7830 -0.7360  0.9773
 3021TIP3   OH230553   4.855   2.972  16.497 -0.5529 -0.4401 -0.2384
 3021TIP3    H130554   4.786   3.036  16.507  0.9792  1.5485 -1.6941
 3021TIP3    H230555   4.897   2.968  16.584  0.5402  2.0878 -0.5532
 3022TIP3   OH230556   5.343   4.876  13.307 -0.0706  0.7133 -0.5421
 3022TIP3    H130557   5.334   4.931  13.385 -1.9943 -1.3939  0.8641
 3022TIP3    H230558   5.356   4.787  13.342  2.8581  0.1458 -2.7097
 3023TIP3   OH230559   4.799   3.238   1.848 -0.5566  0.3895 -0.5056
 3023TIP3    H130560   4.785   3.286   1.767  2.3201  1.1681 -0.6288
 3023TIP3    H230561   4.841   3.156   1.821 -1.2538 -0.1779  0.0773
 3024TIP3   OH230562   1.711   4.742   6.783  0.7787 -0.1206 -0.2687
 3024TIP3    H130563   1.659   4.810   6.826  2.3640  0.9009  0.1220
 3024TIP3    H230564   1.790   4.787   6.753  1.5017 -1.6278 -0.7521
 3025TIP3   OH230565   2.023   6.503  11.616  0.0808  0.0955 -0.6763
 3025TIP3    H130566   2.091   6.500  11.549  0.8502  1.2348  0.0035
 3025TIP3    H230567   2.022   6.594  11.645  0.9332 -0.6142  1.9705
 3026TIP3   OH230568   1.101   4.949  15.576  0.9470  1.1067  0.5607
 3026TIP3    H130569   1.176   4.897  15.547  0.7996  0.7274  0.8582
 3026TIP3    H230570   1.044   4.886  15.620  0.1704  1.2701 -0.1839
 3027TIP3   OH230571   0.423   0.391   1.505 -0.1809  0.1742  0.3011
 3027TIP3    H130572   0.339   0.416   1.467 -0.9268  2.6903  3.2501
 3027TIP3    H230573   0.400   0.350   1.589  1.4825  0.7067  1.0606
 3028TIP3   OH230574   3.377   6.758  13.398 -0.2848  0.4626  0.1173
 3028TIP3    H130575   3.411   6.679  13.439 -1.7545 -0.1915  0.1334
 3028TIP3    H230576   3.287   6.765  13.429 -0.3283  1.9099 -0.2318
 3029TIP3   OH230577   2.977   6.682  16.435 -0.0345  0.3121 -0.4899
 3029TIP3    H130578   3.021   6.602  16.462  0.4781  0.2047 -1.6290
 3029TIP3    H230579   3.017   6.706  16.352  0.2483  2.0779  0.0924
 3030TIP3   OH230580   3.163   3.328  13.843  0.2639  0.2044 -0.4058
 3030TIP3    H130581   3.105   3.357  13.913  1.4160 -0.6217  0.9519
 3030TIP3    H230582   3.104   3.301  13.772 -1.1379 -2.4876  1.6370
 3031TIP3   OH230583   0.673   4.408  10.896  0.1215 -0.0493  0.4052
 3031TIP3    H130584   0.607   4.366  10.951 -0.1943  0.5876  0.5263
 3031TIP3    H230585   0.638   4.402  10.807  0.8637 -1.5206  0.1889
 3032TIP3   OH230586   1.407   3.550  16.516  0.4508 -0.5261  0.0709
 3032TIP3    H130587   1.485   3.605  16.522  0.3450 -0.4982  1.6326
 3032TIP3    H230588   1.423   3.479  16.579  0.0011 -1.5378 -0.9310
 3033TIP3   OH230589   4.414   0.765   4.807  0.2391  0.0092 -0.1647
 3033TIP3    H130590   4.367   0.684   4.827 -0.3018  0.8119  2.0008
 3033TIP3    H230591   4.496   0.758   4.857  0.0100  0.9531  0.3601
 3034TIP3   OH230592   3.123   1.818   2.128  0.1817 -0.3973  0.2486
 3034TIP3    H130593   3.176   1.775   2.061  0.4539 -1.0252  0.8511
 3034TIP3    H230594   3.112   1.907   2.096 -0.2010 -0.8461 -0.9181
 3035TIP3   OH230595   0.123   4.034   4.336  0.0147  0.0038 -0.4996
 3035TIP3    H130596   0.215   4.049   4.312  0.1283 -0.0392 -0.0911
 3035TIP3    H230597   0.115   3.938   4.337 -0.5084 -0.0207 -2.3247
 3036TIP3   OH230598   0.355   0.067   1.614 -0.2158 -0.3707 -0.0687
 3036TIP3    H130599   0.341   0.105   1.527 -0.5529 -1.6225 -0.5878
 3036TIP3    H230600   0.384   0.140   1.668 -1.1521  0.6815 -0.9415
 3037TIP3   OH230601   0.718   1.463  12.524  0.5943  0.4874 -0.0531
 3037TIP3    H130602   0.656   1.480  12.454  0.0713  2.7437  0.8484
 3037TIP3    H230603   0.784   1.406  12.485 -1.1647 -0.6832 -1.4950
 3038TIP3   OH230604   2.098   0.344   4.988 -0.0628 -0.3789  0.3889
 3038TIP3    H130605   2.192   0.334   5.001  0.4767  1.5841 -1.3629
 3038TIP3    H230606   2.085   0.438   4.979 -2.0476 -0.6682 -0.3441
 3039TIP3   OH230607   1.900   2.451  15.302 -0.3323 -0.2420 -0.9169
 3039TIP3    H130608   1.837   2.415  15.365  1.3006  2.2182  2.4260
 3039TIP3    H230609   1.869   2.539  15.285  1.8678  0.9272  0.5848
 3040TIP3   OH230610   2.802   2.044  11.530 -0.0441  0.4078  0.0506
 3040TIP3    H130611   2.870   1.983  11.556  0.6457  1.0432 -0.2023
 3040TIP3    H230612   2.793   2.032  11.435 -0.9527 -0.3266  0.2204
 3041TIP3   OH230613   3.566   5.663  10.861  0.3524  0.1247  0.3503
 3041TIP3    H130614   3.533   5.750  10.841 -1.7161 -0.6620  0.1288
 3041TIP3    H230615   3.532   5.608  10.791 -0.3256 -1.2726  1.7251
 3042TIP3   OH230616   0.927   1.312   0.992  0.5817 -0.3393  0.4722
 3042TIP3    H130617   0.987   1.346   0.926  0.1079 -1.5898 -0.6592
 3042TIP3    H230618   0.960   1.224   1.011 -1.0792 -1.2015 -0.4600
 3043TIP3   OH230619   1.914   4.770   2.833  0.1572 -0.0656  0.1122
 3043TIP3    H130620   1.858   4.702   2.795  0.7702 -1.2035  1.1960
 3043TIP3    H230621   1.918   4.837   2.765  0.4026 -1.5869 -1.4602
 3044TIP3   OH230622   0.049   3.607   2.136 -1.0449  0.6644 -0.5709
 3044TIP3    H130623   0.117   3.549   2.102 -1.2747 -0.9191  1.4494
 3044TIP3    H230624   0.096   3.688   2.159  0.6261 -0.9225  2.2142
 3045TIP3   OH230625   2.513   2.204   4.500 -0.1369 -0.0633 -0.2424
 3045TIP3    H130626   2.581   2.140   4.523  1.5446  1.1695 -1.5368
 3045TIP3    H230627   2.455   2.206   4.576  0.7190 -1.8678  0.5164
 3046TIP3   OH230628   4.481   4.006  16.228  0.3910  0.0481 -0.6974
 3046TIP3    H130629   4.449   3.937  16.170 -1.6794  1.9264 -1.9644
 3046TIP3    H230630   4.408   4.023  16.288  1.4354  0.1361  0.6064
 3047TIP3   OH230631   3.662   0.322   5.451  0.5321  0.1121  0.1383
 3047TIP3    H130632   3.649   0.377   5.528  3.7568 -0.5547  1.3077
 3047TIP3    H230633   3.614   0.241   5.470 -0.2784  0.6804  0.5506
 3048TIP3   OH230634   3.976   2.485   4.188 -0.1572  0.6496 -0.9662
 3048TIP3    H130635   4.060   2.467   4.229 -0.6002  0.8241  0.0488
 3048TIP3    H230636   3.935   2.400   4.178 -1.8535  0.7748  2.9634
 3049TIP3   OH230637   0.394   2.046  15.140  0.9048  0.5179 -0.0307
 3049TIP3    H130638   0.448   2.118  15.174  1.7875 -0.3369  0.4499
 3049TIP3    H230639   0.382   1.988  15.215 -2.3366  1.5758  0.4108
 3050TIP3   OH230640   0.482   3.727   4.261 -0.5239  0.2829 -0.1662
 3050TIP3    H130641   0.491   3.641   4.301  2.5761  0.8343  0.6274
 3050TIP3    H230642   0.535   3.723   4.182  1.9370  2.0794  1.2347
 3051TIP3   OH230643   2.861   5.615   1.510  0.1495  0.5765 -0.5874
 3051TIP3    H130644   2.778   5.591   1.550  0.3556  0.0205 -0.4791
 3051TIP3    H230645   2.849   5.706   1.481 -0.1482  0.8506  0.3474
 3052TIP3   OH230646   0.129   1.164  15.520  0.4535  0.3893 -0.2775
 3052TIP3    H130647   0.157   1.253  15.498 -0.1966  0.6354 -0.1452
 3052TIP3    H230648   0.053   1.177  15.578  0.8865 -0.2507  0.4457
 3053TIP3   OH230649   0.600   4.363  13.222 -0.2681 -0.1117 -0.2201
 3053TIP3    H130650   0.533   4.357  13.290 -2.1263 -1.5021 -2.0520
 3053TIP3    H230651   0.649   4.281  13.229 -0.5170 -0.2947 -0.6040
 3054TIP3   OH230652   3.084   1.477  14.899  0.2143 -0.3489 -0.1441
 3054TIP3    H130653   2.989   1.465  14.906  0.0227  1.4192  0.8136
 3054TIP3    H230654   3.112   1.494  14.989  1.0681  1.5097 -0.7379
 3055TIP3   OH230655   3.466   2.140   0.157  0.0200 -0.2041  0.6207
 3055TIP3    H130656   3.461   2.217   0.212  1.6115  0.4407 -0.0706
 3055TIP3    H230657   3.516   2.076   0.208 -0.3701 -0.3859  0.7740
 3056TIP3   OH230658   3.678   2.595  13.866  0.3536 -0.5118 -0.0105
 3056TIP3    H130659   3.725   2.577  13.948  0.7200 -1.6724 -0.4574
 3056TIP3    H230660   3.731   2.663  13.824  1.2496 -1.2663 -0.1512
 3057TIP3   OH230661   3.401   6.437  14.357  0.3480 -0.3788 -0.3767
 3057TIP3    H130662   3.351   6.356  14.355 -0.9078  0.2867  1.2522
 3057TIP3    H230663   3.415   6.453  14.451 -0.9204  2.1265 -0.5310
 3058TIP3   OH230664   4.908   6.637   0.932  0.0335  0.0785 -0.0853
 3058TIP3    H130665   4.967   6.573   0.890  0.5070 -0.2995  1.1147
 3058TIP3    H230666   4.823   6.620   0.893 -0.2637 -2.5659  1.4505
 3059TIP3   OH230667   0.166   0.871   2.065  0.7365 -0.5254  0.2238
 3059TIP3    H130668   0.076   0.904   2.058  1.0689  1.8023  4.2525
 3059TIP3    H230669   0.157   0.776   2.061 -1.8297 -0.3468  0.2045
 3060TIP3   OH230670   4.174   5.512  16.431 -0.1685  0.1468  0.5960
 3060TIP3    H130671   4.249   5.474  16.384 -0.1836  1.1602 -0.2790
 3060TIP3    H230672   4.099   5.460  16.402  0.0440 -0.2041  0.6683
 3061TIP3   OH230673   0.470   2.799   5.611 -0.3845  0.0132  0.0069
 3061TIP3    H130674   0.529   2.723   5.607  0.2988  0.4592  1.1161
 3061TIP3    H230675   0.433   2.805   5.523 -0.6185 -1.7293 -0.0403
 3062TIP3   OH230676   0.940   3.070   2.027 -0.2111  0.4425 -0.3042
 3062TIP3    H130677   1.001   3.132   1.987 -0.1128 -0.0475 -0.9238
 3062TIP3    H230678   0.864   3.069   1.969  0.3085 -0.9641 -1.0103
 3063TIP3   OH230679   4.608   6.723  14.959 -0.4819 -0.6715  1.0629
 3063TIP3    H130680   4.652   6.710  15.043 -0.4973  0.4036  1.2524
 3063TIP3    H230681   4.515   6.708  14.979 -0.2829 -2.4569  0.7695
 3064TIP3   OH230682   4.725   6.400  16.709 -0.0073  0.1283 -0.4901
 3064TIP3    H130683   4.704   6.454  16.785  0.4865  0.6289 -0.7027
 3064TIP3    H230684   4.788   6.452  16.660 -1.1672  0.3197 -1.8472
 3065TIP3   OH230685   5.532   2.556   3.630  0.1895 -0.5817 -0.4671
 3065TIP3    H130686   5.436   2.551   3.628  0.1725 -0.8353  0.5406
 3065TIP3    H230687   5.561   2.472   3.595  0.0177 -1.2077  0.8360
 3066TIP3   OH230688   6.175   0.308   4.039  0.4452  0.2896  0.3027
 3066TIP3    H130689   6.154   0.215   4.049  0.7680  0.2359  0.5027
 3066TIP3    H230690   6.182   0.341   4.129  0.6545  0.4334  0.2352
 3067TIP3   OH230691   6.105   5.904   5.842  0.1532 -0.0177 -0.1999
 3067TIP3    H130692   6.012   5.888   5.827  0.5503 -2.2670 -0.5311
 3067TIP3    H230693   6.107   5.983   5.897 -2.2036 -2.1977  3.4137
 3068TIP3   OH230694   5.210   5.979   0.603 -0.2634 -0.5294 -0.0221
 3068TIP3    H130695   5.230   5.913   0.669 -0.8328 -0.2770  0.4041
 3068TIP3    H230696   5.265   5.955   0.528 -0.6818 -1.6672  0.0178
 3069TIP3   OH230697   3.537   1.238  16.337 -0.0419 -0.4625  0.0450
 3069TIP3    H130698   3.528   1.159  16.390 -0.0472 -2.0828 -2.2203
 3069TIP3    H230699   3.466   1.232  16.273  1.4292  0.0911 -1.7097
 3070TIP3   OH230700   3.353   6.796  15.895 -0.0871  0.4150  0.0010
 3070TIP3    H130701   3.397   6.715  15.922  1.4811  1.6533  1.3665
 3070TIP3    H230702   3.421   6.846  15.850 -0.9369  1.1489 -0.4986
 3071TIP3   OH230703   0.080   5.504   5.817 -0.0246  0.3265 -0.6979
 3071TIP3    H130704   0.040   5.425   5.853  1.0693  0.0617 -0.0311
 3071TIP3    H230705   0.051   5.506   5.726 -0.0686 -0.8430 -0.7230
 3072TIP3   OH230706   5.641   4.882   0.766 -0.5357 -0.2778  0.4810
 3072TIP3    H130707   5.610   4.910   0.852 -1.8903  1.3068 -0.4402
 3072TIP3    H230708   5.566   4.896   0.708  0.8077  0.2016 -1.2337
 3073TIP3   OH230709   4.751   4.255  15.033 -0.0433  0.6674  0.5736
 3073TIP3    H130710   4.805   4.220  15.104  1.8384  0.7843 -0.7070
 3073TIP3    H230711   4.791   4.220  14.953 -1.4539  1.3597 -0.4773
 3074TIP3   OH230712   0.131   1.999   1.472 -0.0103 -0.5205 -0.8478
 3074TIP3    H130713   0.132   2.072   1.410  0.8310  0.5277  0.3607
 3074TIP3    H230714   0.045   2.003   1.512  0.2333  0.1592 -0.3879
 3075TIP3   OH230715   1.699   2.225   6.002  0.6450 -0.2803  0.0464
 3075TIP3    H130716   1.737   2.276   6.075  0.3779 -1.8972  1.3737
 3075TIP3    H230717   1.739   2.263   5.924  2.4087  0.3018  1.1546
 3076TIP3   OH230718   1.214   2.358   5.635  0.0230 -0.6628 -0.6720
 3076TIP3    H130719   1.201   2.449   5.661  0.5601 -0.7936  0.0816
 3076TIP3    H230720   1.308   2.344   5.644 -0.0158 -1.2123 -1.0697
 3077TIP3   OH230721   4.704   5.956   5.561 -0.1898 -0.0219  0.3369
 3077TIP3    H130722   4.669   6.031   5.610  0.2346  1.0801 -0.9948
 3077TIP3    H230723   4.628   5.917   5.519 -0.3515 -0.0699  0.6711
 3078TIP3   OH230724   6.391   5.937   5.879 -0.1560  0.3627 -0.2282
 3078TIP3    H130725   6.466   5.880   5.862 -0.2539  0.7143 -2.0105
 3078TIP3    H230726   6.319   5.876   5.894 -0.0308 -0.0110 -1.0417
 3079TIP3   OH230727   0.800   5.708   0.334 -0.7362 -1.0787 -0.2382
 3079TIP3    H130728   0.744   5.662   0.397  0.2396 -0.8079  0.8698
 3079TIP3    H230729   0.767   5.797   0.332  1.6452  0.0906  3.1172
 3080TIP3   OH230730   6.106   5.085  15.144  0.1837  0.3500 -0.4075
 3080TIP3    H130731   6.157   5.164  15.158 -0.4142  0.7559 -0.4921
 3080TIP3    H230732   6.017   5.116  15.129 -0.1463 -0.3624  0.0188
 3081TIP3   OH230733   3.550   3.478   4.899  0.6129 -0.6150  0.6063
 3081TIP3    H130734   3.472   3.504   4.948 -0.8846 -0.1629 -1.8028
 3081TIP3    H230735   3.580   3.398   4.942 -0.8910 -0.5165  1.9270
 3082TIP3   OH230736   0.757   0.902  14.353  0.3828 -0.0960  0.9104
 3082TIP3    H130737   0.846   0.869  14.345  0.7790  1.1500 -0.1998
 3082TIP3    H230738   0.706   0.827  14.381  1.6432 -1.0319  0.7795
 3083TIP3   OH230739   5.497   6.114   3.661 -0.1527  0.8159  0.5551
 3083TIP3    H130740   5.524   6.161   3.582  0.3235 -1.1418 -0.5005
 3083TIP3    H230741   5.412   6.152   3.684 -0.0174  1.8306 -0.5352
 3084TIP3   OH230742   2.108   3.807   5.280 -0.0369 -0.6032  0.4496
 3084TIP3    H130743   2.016   3.819   5.255 -1.1098 -1.6102  3.4576
 3084TIP3    H230744   2.126   3.715   5.260  0.6271 -0.2141 -0.8597
 3085TIP3   OH230745   2.534   0.921  11.954 -0.6034  0.4525 -0.1754
 3085TIP3    H130746   2.527   1.014  11.975 -0.8576  0.6023 -0.9126
 3085TIP3    H230747   2.601   0.917  11.886 -0.8691  0.1393 -0.4215
 3086TIP3   OH230748   6.151   1.684   0.262 -0.0451 -0.0661 -0.3217
 3086TIP3    H130749   6.146   1.732   0.345  1.0117 -1.4821  0.6164
 3086TIP3    H230750   6.240   1.698   0.231 -0.4256  0.4385 -1.2441
 3087TIP3   OH230751   2.147   4.527   5.127 -0.5502  0.3003  0.0313
 3087TIP3    H130752   2.148   4.513   5.222  0.1062 -0.3118 -0.0556
 3087TIP3    H230753   2.111   4.446   5.090 -2.1393  1.0692 -0.1840
 3088TIP3   OH230754   2.402   1.628   5.379 -0.3390  0.6956  0.2653
 3088TIP3    H130755   2.394   1.656   5.470  0.4151 -0.2638  0.6586
 3088TIP3    H230756   2.444   1.701   5.335 -0.6969  1.1659  0.6916
 3089TIP3   OH230757   1.349   1.975   3.292  0.1263  0.1313  0.0493
 3089TIP3    H130758   1.403   1.914   3.342 -1.6144 -1.8029 -0.2804
 3089TIP3    H230759   1.319   2.039   3.356  1.0253 -0.0447  0.6631
 3090TIP3   OH230760   3.340   4.289   3.773  0.0693  0.6698 -0.2349
 3090TIP3    H130761   3.352   4.234   3.850  1.1346  0.0558 -0.8129
 3090TIP3    H230762   3.426   4.291   3.731 -0.6310  0.4715 -1.7555
 3091TIP3   OH230763   0.654   2.342  14.366 -0.7419  0.0537 -0.1032
 3091TIP3    H130764   0.682   2.431  14.345 -0.6277 -0.2977 -1.6078
 3091TIP3    H230765   0.677   2.330  14.458  0.1619  1.2278 -0.1496
 3092TIP3   OH230766   5.076   5.325   5.244 -0.1429 -0.3741 -0.3203
 3092TIP3    H130767   5.075   5.332   5.340  0.4753 -3.1815 -0.0390
 3092TIP3    H230768   5.009   5.387   5.216 -0.4953  0.3859  1.9387
 3093TIP3   OH230769   5.187   4.519  13.164 -0.3597 -0.7979 -0.4045
 3093TIP3    H130770   5.143   4.462  13.100  2.5963 -2.2131 -1.3539
 3093TIP3    H230771   5.264   4.469  13.191  0.1534  1.0994  1.9526
 3094TIP3   OH230772   2.932   1.158   3.631 -0.8912 -0.4194  0.8333
 3094TIP3    H130773   2.953   1.183   3.721 -3.1732 -1.8072  1.8292
 3094TIP3    H230774   3.015   1.124   3.597  0.3770  1.4441  1.8816
 3095TIP3   OH230775   3.322   3.008  11.847 -0.1532  0.2903  0.1366
 3095TIP3    H130776   3.272   2.994  11.927  1.1098 -2.0488  0.6076
 3095TIP3    H230777   3.255   3.009  11.778 -1.1443  0.9811  1.0676
 3096TIP3   OH230778   6.431   6.655   4.100 -0.3936 -0.4939  0.3423
 3096TIP3    H130779   6.525   6.636   4.103 -0.4234 -0.8265 -0.5042
 3096TIP3    H230780   6.389   6.571   4.120 -0.5207 -0.1186  1.7439
 3097TIP3   OH230781   5.254   4.247   2.586 -0.1024 -0.1076  0.3242
 3097TIP3    H130782   5.194   4.212   2.652 -0.4870  0.0427  0.0542
 3097TIP3    H230783   5.318   4.297   2.637 -1.5152  1.6589  0.4428
 3098TIP3   OH230784   5.811   3.850  12.486 -0.6064 -0.1247  0.0057
 3098TIP3    H130785   5.774   3.816  12.568 -0.2310  1.0951  0.6943
 3098TIP3    H230786   5.766   3.933  12.472  1.3684  1.0691  0.5076
 3099TIP3   OH230787   1.254   1.345   4.902 -0.1260 -0.1096 -0.3217
 3099TIP3    H130788   1.228   1.406   4.833  1.9677  1.1711 -0.0828
 3099TIP3    H230789   1.301   1.400   4.966  0.5809 -1.7376  0.6192
 3100TIP3   OH230790   2.781   5.933  12.743 -0.0491 -0.0703  0.2734
 3100TIP3    H130791   2.846   5.868  12.768 -1.9928 -2.0507  0.4955
 3100TIP3    H230792   2.787   5.937  12.647 -0.0948 -0.7717  0.2412
 3101TIP3   OH230793   4.076   6.339   5.389 -0.0210  0.0022 -0.2903
 3101TIP3    H130794   4.103   6.430   5.393  0.1874 -0.1084  1.7022
 3101TIP3    H230795   4.112   6.307   5.306  1.1870  1.3467 -0.3230
 3102TIP3   OH230796   5.957   2.050  15.826 -0.0615 -0.1278 -0.1538
 3102TIP3    H130797   5.902   1.972  15.816 -1.1727  0.6006  0.0399
 3102TIP3    H230798   5.922   2.112  15.762  0.3879  0.4440  0.1462
 3103TIP3   OH230799   0.974   0.893  15.898 -0.3285  0.4575 -0.1881
 3103TIP3    H130800   0.942   0.955  15.963 -1.1082  0.6605 -0.7445
 3103TIP3    H230801   0.956   0.807  15.936 -1.1170  0.5729 -0.2817
 3104TIP3   OH230802   3.618   5.109   2.515 -0.5304 -0.3068 -0.1480
 3104TIP3    H130803   3.710   5.099   2.537 -0.7376  1.0907  1.4749
 3104TIP3    H230804   3.610   5.071   2.427  1.7042  0.1289 -0.5835
 3105TIP3   OH230805   6.200   3.226   4.999 -0.1639  0.1915  0.7842
 3105TIP3    H130806   6.243   3.251   5.080  1.9921  0.8758 -0.4930
 3105TIP3    H230807   6.221   3.296   4.938 -0.3787 -1.0792 -0.8182
 3106TIP3   OH230808   4.689   1.329   4.029 -0.2056 -0.1809 -0.1668
 3106TIP3    H130809   4.739   1.407   4.053 -0.5398 -0.0827  0.2091
 3106TIP3    H230810   4.739   1.290   3.957  0.1970  0.1370 -0.0612
 3107TIP3   OH230811   4.308   2.239  12.388 -0.6218  0.3458 -0.3881
 3107TIP3    H130812   4.235   2.271  12.333 -1.3248  3.0554  1.8672
 3107TIP3    H230813   4.357   2.318  12.410  1.2482 -1.0337  0.6323
 3108TIP3   OH230814   4.507   3.716  15.276  0.4058  0.2922 -0.1178
 3108TIP3    H130815   4.466   3.802  15.281  0.4751  0.3437 -0.4537
 3108TIP3    H230816   4.466   3.666  15.347  0.2927  0.5691  0.0121
 3109TIP3   OH230817   4.986   1.017   1.942 -0.2129 -0.6022 -0.7267
 3109TIP3    H130818   4.963   0.926   1.958  0.7325 -1.1212 -2.1773
 3109TIP3    H230819   4.913   1.067   1.980 -0.6575 -1.9288  0.2447
 3110TIP3   OH230820   3.480   2.305   1.962 -0.4916 -0.4448  0.0431
 3110TIP3    H130821   3.392   2.337   1.943 -0.8809 -1.1042  0.7092
 3110TIP3    H230822   3.499   2.335   2.051  1.3357  2.6297 -1.2145
 3111TIP3   OH230823   3.952   0.013  11.165  0.2042  0.6949 -0.6783
 3111TIP3    H130824   3.932  -0.066  11.214  0.0178  1.1951  0.0610
 3111TIP3    H230825   3.876   0.026  11.108  0.1564  0.4506 -0.6723
 3112TIP3   OH230826   3.810   0.860   2.227  0.0617  0.4539 -0.7578
 3112TIP3    H130827   3.857   0.936   2.194  1.0897 -1.2476 -3.5617
 3112TIP3    H230828   3.814   0.797   2.156 -1.1770 -2.0719  1.2543
 3113TIP3   OH230829   5.582   1.083  16.105  0.1315 -0.6584  0.0114
 3113TIP3    H130830   5.583   1.135  16.025  0.7775 -0.5315  0.0941
 3113TIP3    H230831   5.501   1.109  16.149  0.8776  1.0120  0.5051
 3114TIP3   OH230832   3.938   4.955  11.062  0.0753  0.2507 -0.0334
 3114TIP3    H130833   3.866   4.964  11.125  0.2923 -0.0512  0.2573
 3114TIP3    H230834   4.014   4.933  11.115  0.8429  2.4617 -0.0867
 3115TIP3   OH230835   0.292   1.436  12.696  0.3413 -0.2357 -0.4252
 3115TIP3    H130836   0.339   1.450  12.614  1.0643 -1.8202 -0.3170
 3115TIP3    H230837   0.361   1.436  12.763  0.0636 -1.3987 -0.1224
 3116TIP3   OH230838   2.129   3.208   2.128 -0.6106  0.5530  0.3828
 3116TIP3    H130839   2.075   3.285   2.149  0.3471  1.1065  0.8482
 3116TIP3    H230840   2.201   3.243   2.076  0.1345  0.0585  1.0675
 3117TIP3   OH230841   4.404   4.767   4.690  0.7214  0.2160 -0.2581
 3117TIP3    H130842   4.479   4.723   4.650  0.5412  0.0099 -0.3770
 3117TIP3    H230843   4.428   4.859   4.692  1.5312  0.0048  0.9195
 3118TIP3   OH230844   2.549   2.884  12.212  0.0829  0.2636  0.3750
 3118TIP3    H130845   2.589   2.831  12.281  1.6506  1.0248  0.0902
 3118TIP3    H230846   2.562   2.833  12.132  1.2008  0.8516  0.1671
 3119TIP3   OH230847   3.851   2.119   1.699  0.6104 -0.3102  0.4699
 3119TIP3    H130848   3.911   2.123   1.773  1.4132 -0.0779 -0.1762
 3119TIP3    H230849   3.874   2.039   1.653  1.0377  0.2317 -0.2822
 3120TIP3   OH230850   3.857   0.785  13.539  0.0608  0.0853  0.0650
 3120TIP3    H130851   3.925   0.844  13.572  0.1196 -1.4707  2.9866
 3120TIP3    H230852   3.774   0.830  13.559  0.1449  0.1059  0.3709
 3121TIP3   OH230853   1.962   1.834  17.060 -0.3885 -0.4174  0.2610
 3121TIP3    H130854   1.872   1.802  17.065 -0.9383  1.1352  0.8077
 3121TIP3    H230855   1.954   1.922  17.023  0.9083 -0.2457  0.3523
 3122TIP3   OH230856   1.634   1.777  16.383  0.4524 -0.6341  0.4947
 3122TIP3    H130857   1.613   1.742  16.469 -0.4043  2.2394  1.5825
 3122TIP3    H230858   1.550   1.808  16.348  1.0805  0.1202 -0.4302
 3123TIP3   OH230859   2.239   2.906  12.901 -0.1738 -0.9475  0.0130
 3123TIP3    H130860   2.176   2.978  12.895  0.2780 -0.4634  0.9449
 3123TIP3    H230861   2.208   2.853  12.974  0.2383 -0.9601  0.1819
 3124TIP3   OH230862   6.156   5.420   1.318 -0.7111  0.6145 -0.3127
 3124TIP3    H130863   6.188   5.478   1.387  1.4513  1.4649 -1.9164
 3124TIP3    H230864   6.159   5.333   1.357 -2.3136  1.3100  1.5615
 3125TIP3   OH230865   2.345   3.865  11.605 -0.0631  0.1386  0.0120
 3125TIP3    H130866   2.335   3.959  11.621  0.2675 -0.1163  2.0680
 3125TIP3    H230867   2.255   3.833  11.597 -0.1691  0.8489 -2.6864
 3126TIP3   OH230868   4.553   6.389  10.749  0.6466 -0.5047 -0.4362
 3126TIP3    H130869   4.602   6.344  10.680  1.3615  0.3384 -0.4979
 3126TIP3    H230870   4.521   6.469  10.707  0.3254 -0.4178 -0.0305
 3127TIP3   OH230871   6.484   5.911  12.061  0.1970 -0.0490  0.2357
 3127TIP3    H130872   6.420   5.951  12.119  0.7351 -0.3250  1.0421
 3127TIP3    H230873   6.505   5.827  12.102 -1.9215 -1.8894 -2.1033
 3128TIP3   OH230874   2.693   0.009   0.907 -0.1128 -0.3435  0.4423
 3128TIP3    H130875   2.608  -0.002   0.950 -0.2657  1.0612  0.5472
 3128TIP3    H230876   2.700   0.104   0.892  1.1657 -0.5105 -0.1168
 3129TIP3   OH230877   3.859   5.739   2.707  0.1647 -0.0384 -0.6012
 3129TIP3    H130878   3.869   5.776   2.794  0.1937 -0.0305 -0.6080
 3129TIP3    H230879   3.835   5.648   2.722 -1.5963  0.3926 -0.5548
 3130TIP3   OH230880   1.148   2.117  11.418 -0.0988  0.0816  0.6215
 3130TIP3    H130881   1.055   2.096  11.420 -0.0180 -0.3333  0.3715
 3130TIP3    H230882   1.158   2.193  11.474 -0.1916 -1.4597  2.8308
 3131TIP3   OH230883   0.845   3.285   5.148  0.5802 -0.2219 -0.7028
 3131TIP3    H130884   0.906   3.351   5.115  1.1980 -0.3467  0.1311
 3131TIP3    H230885   0.899   3.207   5.158  0.6807  0.0544  1.4515
 3132TIP3   OH230886   1.982   1.789  16.121 -0.1742 -0.1591 -0.2030
 3132TIP3    H130887   1.904   1.804  16.068  0.5571 -1.4669 -1.7563
 3132TIP3    H230888   1.968   1.702  16.159  0.0722  0.0516  0.3836
 3133TIP3   OH230889   0.235   6.304  12.649  0.1998  0.2604 -0.4067
 3133TIP3    H130890   0.283   6.246  12.589  1.1842  0.4117  0.2054
 3133TIP3    H230891   0.259   6.274  12.736 -1.0834  0.1599 -0.0700
 3134TIP3   OH230892   4.075   4.052   1.136 -0.5706 -0.3919  0.0588
 3134TIP3    H130893   4.019   4.100   1.075  0.4955  0.1265 -0.5594
 3134TIP3    H230894   4.109   3.978   1.084  1.0088  0.5224 -0.2915
 3135TIP3   OH230895   4.973   4.422  11.722  0.2883 -0.0581  0.0252
 3135TIP3    H130896   5.061   4.417  11.685  0.6339 -0.2608  0.8488
 3135TIP3    H230897   4.955   4.333  11.752 -1.0264 -0.5266 -1.9384
 3136TIP3   OH230898   5.439   2.826   4.777 -0.7236  0.2888 -0.4631
 3136TIP3    H130899   5.446   2.900   4.837 -1.9598  0.0868 -0.0517
 3136TIP3    H230900   5.428   2.865   4.690  1.7117  0.5926 -0.7068
 3137TIP3   OH230901   1.795   0.089   2.113 -0.4229  0.5841 -0.7265
 3137TIP3    H130902   1.714   0.071   2.161 -0.5720  0.9301 -0.8421
 3137TIP3    H230903   1.848   0.141   2.175 -0.6109  1.0214 -0.9282
 3138TIP3   OH230904   1.463   5.641   1.204  0.4700 -0.3529  0.1308
 3138TIP3    H130905   1.502   5.687   1.129 -1.1624 -0.0324 -0.5715
 3138TIP3    H230906   1.529   5.647   1.272  2.0132 -0.6246 -1.2652
 3139TIP3   OH230907   1.980   0.368   0.438  0.0974 -0.4872  0.2700
 3139TIP3    H130908   1.950   0.415   0.361  0.3880  1.0580  1.0692
 3139TIP3    H230909   1.959   0.276   0.420 -1.4450  0.0546 -0.8749
 3140TIP3   OH230910   5.961   6.391  13.433 -0.1030 -0.1629  0.3357
 3140TIP3    H130911   5.987   6.344  13.353  0.2475  2.4286 -1.1639
 3140TIP3    H230912   5.874   6.425  13.413 -0.0476  0.4412  1.1134
 3141TIP3   OH230913   0.881   0.922  13.872  0.5568 -1.0825 -0.5784
 3141TIP3    H130914   0.908   1.010  13.847  0.0297 -0.4631  0.8767
 3141TIP3    H230915   0.846   0.932  13.961  2.9504 -3.1813  0.7534
 3142TIP3   OH230916   0.920   2.512   0.977  0.0978 -0.1205  0.2358
 3142TIP3    H130917   0.905   2.605   0.957  2.0591 -0.0921 -1.4392
 3142TIP3    H230918   0.966   2.513   1.061 -0.0135  0.4072  0.2962
 3143TIP3   OH230919   2.055   3.000  16.217  0.0470  0.1972  0.3849
 3143TIP3    H130920   2.109   3.024  16.142 -1.7064 -0.1303 -1.0624
 3143TIP3    H230921   1.982   3.063  16.216 -0.9222 -0.8700  0.7319
 3144TIP3   OH230922   2.980   2.651  14.103 -0.3933 -0.4100 -0.4284
 3144TIP3    H130923   2.910   2.588  14.121 -0.4264 -0.1118  0.5500
 3144TIP3    H230924   2.950   2.699  14.026 -2.1339  0.8848  0.9491
 3145TIP3   OH230925   1.322   2.419  15.270 -0.1827  0.2091 -0.7637
 3145TIP3    H130926   1.232   2.393  15.253 -0.3346 -0.3081  0.6705
 3145TIP3    H230927   1.318   2.514  15.283 -0.6916  0.0670  0.2055
 3146TIP3   OH230928   1.235   5.484  11.136 -0.0192 -0.0454  0.2289
 3146TIP3    H130929   1.220   5.461  11.228  1.1792 -0.3315  0.3702
 3146TIP3    H230930   1.223   5.401  11.089  0.0975 -0.0566  0.2185
 3147TIP3   OH230931   1.023   3.037   0.645 -0.3436 -0.2402 -0.1956
 3147TIP3    H130932   0.969   3.115   0.632  1.0520  0.5417 -1.6520
 3147TIP3    H230933   0.980   2.970   0.591  0.0629  0.3663 -1.3155
 3148TIP3   OH230934   0.832   3.451  15.253  0.8366  0.0758  0.1752
 3148TIP3    H130935   0.838   3.545  15.232  0.0469  0.0938 -0.0083
 3148TIP3    H230936   0.767   3.417  15.191  1.9634 -0.8455 -0.5435
 3149TIP3   OH230937   5.754   6.406   3.225 -0.1776  0.4667  0.2878
 3149TIP3    H130938   5.750   6.311   3.229  1.2663  0.2345 -1.8662
 3149TIP3    H230939   5.675   6.436   3.270 -1.5005 -1.7996 -0.3892
 3150TIP3   OH230940   6.618   1.933   0.886 -0.5649  0.3750 -0.1621
 3150TIP3    H130941   6.600   2.020   0.851 -2.1344  1.1736  2.3039
 3150TIP3    H230942   6.602   1.942   0.980 -2.8096 -3.0371 -0.0427
 3151TIP3   OH230943   3.395   0.350  14.046 -0.1369 -0.5194  0.0992
 3151TIP3    H130944   3.454   0.340  14.120 -2.3124 -4.1032  1.6433
 3151TIP3    H230945   3.317   0.392  14.083 -1.0214 -1.8199 -0.2344
 3152TIP3   OH230946   0.673   6.754  12.334 -0.4309 -0.0905  0.4553
 3152TIP3    H130947   0.704   6.845  12.332 -1.8679  0.4510  1.3703
 3152TIP3    H230948   0.741   6.707  12.381  0.7534  0.3171 -0.7838
 3153TIP3   OH230949   6.222   6.016   4.444 -0.0438  0.6612  0.4543
 3153TIP3    H130950   6.136   6.005   4.483 -0.6470 -1.4871 -1.2870
 3153TIP3    H230951   6.284   5.992   4.513 -1.0252 -2.0517  0.5145
 3154TIP3   OH230952   2.297   6.395   4.914 -0.2647  0.1900  0.3566
 3154TIP3    H130953   2.264   6.431   4.832 -4.2715  2.2664  2.5576
 3154TIP3    H230954   2.247   6.314   4.925  1.7983 -1.2170 -0.1137
 3155TIP3   OH230955   3.892   6.084  17.226  0.2438  0.3834  0.5327
 3155TIP3    H130956   3.851   6.022  17.165  0.3288  0.8157  0.0316
 3155TIP3    H230957   3.986   6.074  17.210  0.2473  0.7840  0.3175
 3156TIP3   OH230958   4.265   1.512   5.931  0.2310 -0.5866 -0.3228
 3156TIP3    H130959   4.203   1.449   5.895  1.3283 -1.7902 -0.1602
 3156TIP3    H230960   4.221   1.597   5.921 -1.5478 -1.4135  0.0406
 3157TIP3   OH230961   2.847   6.397  14.486 -0.3559 -0.1689 -0.4696
 3157TIP3    H130962   2.815   6.426  14.400 -0.2783  1.6278  0.0699
 3157TIP3    H230963   2.941   6.383  14.472 -0.5540 -1.0826 -0.9615
 3158TIP3   OH230964   3.145   2.653   2.064 -0.0910  1.0425 -0.2061
 3158TIP3    H130965   3.052   2.629   2.071  0.3030 -1.5344 -2.1950
 3158TIP3    H230966   3.144   2.745   2.039 -2.1864  0.8599 -0.9928
 3159TIP3   OH230967   5.824   5.670  15.943  0.1586 -0.0803 -0.0762
 3159TIP3    H130968   5.814   5.733  16.015 -1.9017 -0.0711 -0.3212
 3159TIP3    H230969   5.757   5.603  15.960 -0.3136 -0.1275 -1.9227
 3160TIP3   OH230970   5.770   3.441   2.487 -0.2290  0.2908 -0.4101
 3160TIP3    H130971   5.677   3.460   2.487 -0.8877 -2.4765 -0.8390
 3160TIP3    H230972   5.792   3.427   2.579 -0.1451  1.2276 -0.2802
 3161TIP3   OH230973   0.043   5.920  12.904 -0.0137 -0.3810  0.4411
 3161TIP3    H130974   0.097   5.958  12.834 -0.8725  0.1412  0.0502
 3161TIP3    H230975   0.103   5.864  12.952  0.9511  0.3839  0.1649
 3162TIP3   OH230976   2.411   2.285   2.789  0.0763  0.1141  0.5751
 3162TIP3    H130977   2.477   2.270   2.720 -0.3293 -3.0166  0.7433
 3162TIP3    H230978   2.357   2.206   2.788 -0.5956  0.4136  3.7928
 3163TIP3   OH230979   0.824   1.406  17.101 -0.0087  0.4720  0.3271
 3163TIP3    H130980   0.907   1.358  17.093  0.1592  0.9981 -1.4913
 3163TIP3    H230981   0.844   1.476  17.163  1.1185  0.9715 -0.5588
 3164TIP3   OH230982   5.855   1.985  13.102 -0.1318  0.6410  0.5897
 3164TIP3    H130983   5.947   2.001  13.118 -0.0306  0.4210  0.2405
 3164TIP3    H230984   5.819   2.071  13.080  0.3187  0.4914 -0.8413
 3165TIP3   OH230985   1.707   1.792   6.673  0.1364  0.6673  0.2238
 3165TIP3    H130986   1.621   1.801   6.631  1.6636  1.1818 -3.1384
 3165TIP3    H230987   1.711   1.700   6.699 -1.1356  0.4330 -0.3132
 3166TIP3   OH230988   2.319   6.275   2.903 -0.0323  0.1494 -1.0629
 3166TIP3    H130989   2.408   6.271   2.940 -0.6084 -2.7529  0.3235
 3166TIP3    H230990   2.333   6.274   2.808  1.4704 -1.0959 -0.8760
 3167TIP3   OH230991   0.482   2.281   0.250  0.3469  0.1950 -0.1023
 3167TIP3    H130992   0.554   2.295   0.189 -0.6992  1.5355 -1.0944
 3167TIP3    H230993   0.405   2.315   0.205 -0.9296 -1.1764  0.9330
 3168TIP3   OH230994   3.289   2.493  14.527  0.0969  0.4447 -0.0113
 3168TIP3    H130995   3.310   2.438  14.603 -0.6749  0.0399 -0.0834
 3168TIP3    H230996   3.215   2.546  14.556 -1.8449 -1.4457 -1.2493
 3169TIP3   OH230997   1.217   3.816  14.240 -0.3505 -0.1230  0.1805
 3169TIP3    H130998   1.248   3.726  14.254 -0.3895 -0.5308 -1.9562
 3169TIP3    H230999   1.139   3.823  14.294 -0.6442 -1.5757 -0.0111
 3170TIP3   OH231000   6.585   2.450  11.245  0.8267 -0.3976  0.0196
 3170TIP3    H131001   6.636   2.425  11.168  0.3982 -0.0885 -0.3760
 3170TIP3    H231002   6.517   2.382  11.251  0.3439  0.0331 -0.3905
 3171TIP3   OH231003   0.290   6.075  13.469 -0.5057  0.2933  0.0701
 3171TIP3    H131004   0.347   6.139  13.510  0.9208 -1.1287  0.4370
 3171TIP3    H231005   0.297   5.998  13.525 -2.7066  0.0132  0.0362
 3172TIP3   OH231006   6.050   1.694   1.779  0.0324 -0.6816  0.4102
 3172TIP3    H131007   5.965   1.661   1.805 -0.5638  1.4507  1.3777
 3172TIP3    H231008   6.035   1.786   1.757  1.4706 -1.0507 -2.6672
 3173TIP3   OH231009   1.605   1.497   3.442 -0.3214 -0.2336  0.0290
 3173TIP3    H131010   1.614   1.469   3.533  0.7545 -1.5480 -0.4685
 3173TIP3    H231011   1.516   1.534   3.438  0.0245  0.9207  1.8693
 3174TIP3   OH231012   1.850   2.171  15.862 -0.3008  0.4933  0.5277
 3174TIP3    H131013   1.772   2.165  15.917 -2.1756  0.5777 -1.9052
 3174TIP3    H231014   1.854   2.087  15.816  1.0851  0.4821  0.6202
 3175TIP3   OH231015   4.381   2.988  11.752 -0.0958  0.5081 -0.2316
 3175TIP3    H131016   4.390   3.079  11.723 -0.3142  0.3888 -0.6853
 3175TIP3    H231017   4.300   2.987  11.804  0.3779  0.7545  0.5191
 3176TIP3   OH231018   1.337   6.587   1.039 -0.3292 -0.2594 -0.2737
 3176TIP3    H131019   1.358   6.658   1.100 -0.3870  0.2820 -0.8645
 3176TIP3    H231020   1.254   6.614   1.000  0.4964  0.2160 -1.7669
 3177TIP3   OH231021   6.817   0.379  15.402  0.1289  0.4310 -0.4323
 3177TIP3    H131022   6.901   0.335  15.391 -0.3228 -0.3746 -0.8026
 3177TIP3    H231023   6.807   0.433  15.323  0.8364  1.4862  0.1797
 3178TIP3   OH231024   1.342   0.435   3.434  0.2875 -0.4797  0.0825
 3178TIP3    H131025   1.289   0.513   3.417  1.3743  0.2182 -0.2091
 3178TIP3    H231026   1.392   0.422   3.353  1.3950 -0.4447  0.7451
 3179TIP3   OH231027   0.395   4.764  13.111  0.5547 -0.3745  0.1191
 3179TIP3    H131028   0.364   4.707  13.181 -0.4465 -0.5539 -0.4480
 3179TIP3    H231029   0.481   4.728  13.087  1.1675  0.0236  1.5962
 3180TIP3   OH231030   3.984   5.925  13.574  0.0271  0.2614 -0.3138
 3180TIP3    H131031   4.053   5.877  13.528  0.9860 -1.3279  2.5418
 3180TIP3    H231032   3.927   5.856  13.610 -0.4193  1.3683  1.1963
 3181TIP3   OH231033   6.242   4.185  11.483 -0.1501 -0.4503 -0.6272
 3181TIP3    H131034   6.267   4.099  11.515 -1.8487 -0.2008  1.5818
 3181TIP3    H231035   6.154   4.173  11.447 -2.0344  0.9115  3.0576
 3182TIP3   OH231036   1.505   4.687  15.794 -0.2657  0.5969  0.3951
 3182TIP3    H131037   1.599   4.666  15.795 -0.4681 -0.3746  1.7809
 3182TIP3    H231038   1.495   4.754  15.862 -0.6744  0.1501  0.7835
 3183TIP3   OH231039   6.351   2.166  16.413  0.3610  0.1166 -0.1257
 3183TIP3    H131040   6.303   2.098  16.364  0.0621 -0.5635  1.0598
 3183TIP3    H231041   6.284   2.230  16.436  0.4789  0.3757 -0.4980
 3184TIP3   OH231042   5.000   3.797   4.901  0.4802  0.1912  0.7456
 3184TIP3    H131043   4.905   3.798   4.891  0.1644  0.5229  3.1390
 3184TIP3    H231044   5.025   3.890   4.903  0.8415  0.1070  0.1967
 3185TIP3   OH231045   3.670   3.222   5.811  0.3548  0.0738  0.1800
 3185TIP3    H131046   3.605   3.154   5.795 -1.5904  2.1323 -1.4640
 3185TIP3    H231047   3.753   3.185   5.782 -0.2508 -2.1993  1.1476
 3186TIP3   OH231048   3.718   6.029   6.184 -0.4339  0.4148 -0.2267
 3186TIP3    H131049   3.672   5.975   6.120  0.5892  0.4245 -0.9951
 3186TIP3    H231050   3.737   6.110   6.137 -0.3888  0.7449  0.3573
 3187TIP3   OH231051   0.937   4.594  15.852 -0.1691 -0.1769  0.3250
 3187TIP3    H131052   0.957   4.546  15.771  1.6993 -2.9719  2.2679
 3187TIP3    H231053   0.884   4.533  15.903 -0.3064  1.0605  1.7125
 3188TIP3   OH231054   3.732   5.299  10.974  0.3568  0.1441 -0.5455
 3188TIP3    H131055   3.775   5.302  11.060 -1.7435 -3.5420  0.8866
 3188TIP3    H231056   3.772   5.224  10.930 -0.6401  0.1369 -1.4922
 3189TIP3   OH231057   1.333   3.849   2.963  0.6551 -0.5495 -0.1560
 3189TIP3    H131058   1.294   3.906   3.029 -1.1901 -2.2319  0.3071
 3189TIP3    H231059   1.258   3.818   2.911  1.8217 -1.0131 -1.6182
 3190TIP3   OH231060   3.782   5.567  10.446  0.1617  0.6671 -0.5191
 3190TIP3    H131061   3.871   5.540  10.426 -0.0690 -0.5034 -0.0573
 3190TIP3    H231062   3.727   5.506  10.396 -0.3960  1.8898 -1.4576
 3191TIP3   OH231063   1.083   1.860   1.218 -0.3036  0.0214 -0.0449
 3191TIP3    H131064   1.087   1.828   1.128  1.5811  1.8738 -0.7091
 3191TIP3    H231065   1.057   1.952   1.210  2.3942  0.9743  0.9992
 3192TIP3   OH231066   0.907   1.177   3.935  0.0742  0.0423  0.6513
 3192TIP3    H131067   0.946   1.223   4.009  0.7451  0.1068  0.2668
 3192TIP3    H231068   0.812   1.186   3.947  0.1858  0.2389  1.3784
 3193TIP3   OH231069   0.201   6.470  11.715 -0.4564  0.4301 -0.6097
 3193TIP3    H131070   0.260   6.422  11.774 -1.7234 -1.5110 -0.8412
 3193TIP3    H231071   0.247   6.473  11.632 -0.3300 -0.3631 -0.5748
 3194TIP3   OH231072   5.914   1.858  15.329 -0.7681  0.3112 -0.0602
 3194TIP3    H131073   5.955   1.863  15.415  1.9795  1.7716 -1.3373
 3194TIP3    H231074   5.959   1.786  15.285 -1.8240 -0.1195 -0.4637
 3195TIP3   OH231075   4.355   6.353  11.893  0.0387 -0.1898 -0.3506
 3195TIP3    H131076   4.340   6.404  11.814 -1.0887 -2.5174 -1.7549
 3195TIP3    H231077   4.413   6.282  11.865 -1.2329 -1.6756  0.5825
 3196TIP3   OH231078   3.344   0.371  15.482  0.5011 -0.0522  0.4154
 3196TIP3    H131079   3.266   0.379  15.427  0.3671 -0.9262  0.4626
 3196TIP3    H231080   3.319   0.409  15.566 -0.5670 -2.1260  1.0989
 3197TIP3   OH231081   3.571   5.007   5.295 -0.2737  0.1840  0.4345
 3197TIP3    H131082   3.593   5.048   5.211  0.1956 -1.4011 -0.2462
 3197TIP3    H231083   3.484   4.969   5.281 -1.3216  1.9975  1.4932
 3198TIP3   OH231084   3.202   4.890   2.000  0.2663  0.1150  0.2151
 3198TIP3    H131085   3.187   4.984   2.009  0.4475  0.2809 -1.0767
 3198TIP3    H231086   3.213   4.876   1.906  1.7970 -0.9706  0.5197
 3199TIP3   OH231087   5.023   2.442  16.948  0.0338  0.2249 -0.0620
 3199TIP3    H131088   5.012   2.413  16.858 -0.3417  0.9749 -0.2637
 3199TIP3    H231089   5.077   2.374  16.989  0.8416  0.2503 -1.0476
 3200TIP3   OH231090   3.304   5.117  15.304  0.0150  0.5993 -0.1034
 3200TIP3    H131091   3.303   5.093  15.396  0.7647 -1.0344 -0.4779
 3200TIP3    H231092   3.283   5.210  15.303 -1.3156  0.3697  1.6021
 3201TIP3   OH231093   1.135   2.211   2.816  0.0536  0.6692 -0.1951
 3201TIP3    H131094   1.181   2.254   2.744 -1.0336  2.3885  0.0772
 3201TIP3    H231095   1.198   2.148   2.850  1.6004  1.7808 -0.8694
 3202TIP3   OH231096   1.624   3.129   1.141 -0.4421 -0.4647  0.5887
 3202TIP3    H131097   1.550   3.164   1.191  0.0150  0.5140  0.6080
 3202TIP3    H231098   1.608   3.159   1.052  0.4357  0.6555  0.7747
 3203TIP3   OH231099   2.235   2.090  12.737  0.5560 -0.1539  0.2558
 3203TIP3    H131100   2.257   1.998  12.744  0.8984  0.0470  2.7577
 3203TIP3    H231101   2.306   2.128  12.686  1.6412 -0.9063  1.1743
 3204TIP3   OH231102   0.709   4.002  10.420  0.6608  0.4374  0.2217
 3204TIP3    H131103   0.768   3.932  10.391 -0.6783 -1.0690  0.9748
 3204TIP3    H231104   0.763   4.057  10.476  2.0173  0.6370 -1.2027
 3205TIP3   OH231105   4.527   0.683  15.704  0.8143  0.2189  0.0554
 3205TIP3    H131106   4.614   0.713  15.677  1.5943 -0.3475  1.7604
 3205TIP3    H231107   4.498   0.748  15.768  0.0608  0.2790 -0.3369
 3206TIP3   OH231108   3.807   0.782   0.410 -0.3908 -0.6234 -0.2467
 3206TIP3    H131109   3.803   0.744   0.322 -0.0635  1.3110 -1.1590
 3206TIP3    H231110   3.790   0.875   0.396  0.2333 -0.1790  1.6812
 3207TIP3   OH231111   2.705   1.441   5.997  0.2386  0.3428  0.3222
 3207TIP3    H131112   2.781   1.420   6.050  0.2946 -0.7626 -0.1720
 3207TIP3    H231113   2.735   1.434   5.906 -0.4201 -0.0318  0.1216
 3208TIP3   OH231114   2.478   2.740  11.996  0.3269  0.3996 -1.4009
 3208TIP3    H131115   2.407   2.685  12.029  0.5833  0.3457 -0.9236
 3208TIP3    H231116   2.491   2.711  11.906  0.6997 -0.5760 -1.0481
 3209TIP3   OH231117   2.879   6.696   3.323 -0.0906  1.0906 -0.0042
 3209TIP3    H131118   2.816   6.735   3.383 -0.4858 -0.2709  0.5104
 3209TIP3    H231119   2.847   6.607   3.309  1.9243  0.2195  0.5772
 3210TIP3   OH231120   6.765   2.635   0.381 -0.2119 -0.2975 -0.5569
 3210TIP3    H131121   6.673   2.616   0.402  0.0346  0.6459  1.6325
 3210TIP3    H231122   6.814   2.570   0.431  0.3436  0.1475 -0.5190
 3211TIP3   OH231123   5.556   3.364   4.229 -0.1155  0.1269  0.6083
 3211TIP3    H131124   5.546   3.282   4.183 -0.5465  0.5463 -0.0591
 3211TIP3    H231125   5.474   3.374   4.279 -0.9858  1.1363 -0.9391
 3212TIP3   OH231126   2.386   2.211   1.430 -0.3392  0.1236 -0.1723
 3212TIP3    H131127   2.411   2.119   1.442  1.1468  0.4527 -0.5413
 3212TIP3    H231128   2.290   2.211   1.435 -0.2988 -1.2547  1.0617
 3213TIP3   OH231129   3.983   1.556  11.804 -0.2161 -0.7829 -0.2123
 3213TIP3    H131130   3.949   1.594  11.723 -0.7372 -0.1952  0.2739
 3213TIP3    H231131   3.906   1.529  11.853  0.0636 -0.4995  0.3959
 3214TIP3   OH231132   2.112   2.221  16.687 -0.5198 -0.6064 -0.3227
 3214TIP3    H131133   2.095   2.150  16.625 -1.6577 -0.5716 -0.0723
 3214TIP3    H231134   2.025   2.255  16.708 -0.0619  0.1231  0.4283
 3215TIP3   OH231135   0.912   2.934  14.539 -0.2850 -0.6816 -0.5015
 3215TIP3    H131136   0.866   2.864  14.585 -0.3379 -0.4232 -0.1641
 3215TIP3    H231137   0.949   2.891  14.462 -0.6592 -0.9972 -0.5090
 3216TIP3   OH231138   1.567   5.403   5.518 -0.5192 -0.6115  0.4384
 3216TIP3    H131139   1.541   5.493   5.500 -0.1697 -0.6440 -0.2583
 3216TIP3    H231140   1.545   5.355   5.438  0.0329 -0.9791  0.4996
 3217TIP3   OH231141   5.520   2.099  14.304 -0.1919 -0.5132 -0.2300
 3217TIP3    H131142   5.611   2.069  14.309  0.5005  0.9456 -2.5894
 3217TIP3    H231143   5.521   2.185  14.345 -0.0305  0.3616 -1.9958
 3218TIP3   OH231144   5.588   2.852  13.180 -0.1537  0.2940 -0.4811
 3218TIP3    H131145   5.582   2.850  13.084  0.2426  0.0266 -0.5027
 3218TIP3    H231146   5.666   2.800  13.200 -0.3802  0.1320 -0.0007
 3219TIP3   OH231147   2.480   0.261   6.404 -0.0300  0.4050  0.2118
 3219TIP3    H131148   2.432   0.229   6.328 -0.1063  1.4613 -0.2055
 3219TIP3    H231149   2.427   0.236   6.479 -1.5114  1.9540 -0.2690
 3220TIP3   OH231150   6.247   0.103  10.980 -0.4776  0.6264  0.1531
 3220TIP3    H131151   6.159   0.140  10.991 -1.0812 -0.9128  0.7279
 3220TIP3    H231152   6.251   0.076  10.888 -0.9920 -0.2045  0.3645
 3221TIP3   OH231153   6.777   6.624   0.731 -0.6184 -0.5240 -0.0294
 3221TIP3    H131154   6.799   6.616   0.639  0.4026  0.4773  0.1111
 3221TIP3    H231155   6.786   6.535   0.766  1.7614 -0.4675 -0.3302
 3222TIP3   OH231156   3.564   0.399  11.731 -0.2724 -0.6205 -0.3536
 3222TIP3    H131157   3.611   0.316  11.726 -0.0228 -0.5544  0.6999
 3222TIP3    H231158   3.611   0.450  11.797 -0.7979  0.1170 -0.5302
 3223TIP3   OH231159   2.062   5.002   6.536 -0.4196  0.3143  0.3536
 3223TIP3    H131160   1.974   5.012   6.571 -0.7001  1.8347 -0.6621
 3223TIP3    H231161   2.082   4.909   6.546 -2.4557 -0.2210 -0.1207
 3224TIP3   OH231162   4.597   4.909   4.445 -0.1339  0.3723  0.1442
 3224TIP3    H131163   4.538   4.982   4.465 -0.5936 -0.2723  1.2125
 3224TIP3    H231164   4.664   4.913   4.514 -1.5186 -1.6433  1.7399
 3225TIP3   OH231165   2.267   5.383  11.347 -0.8925 -0.3102  0.3761
 3225TIP3    H131166   2.244   5.438  11.422 -1.7601  0.7373 -0.6139
 3225TIP3    H231167   2.310   5.306  11.385  2.1181  1.8441  1.7076
 3226TIP3   OH231168   3.111   3.554   6.464  0.0994 -0.4623 -0.6306
 3226TIP3    H131169   3.064   3.523   6.386 -2.7891 -1.4316  1.3194
 3226TIP3    H231170   3.183   3.492   6.475 -0.8558 -1.7262 -1.2327
 3227TIP3   OH231171   2.832   5.617   2.117 -0.6408 -0.2709  0.6721
 3227TIP3    H131172   2.791   5.649   2.037 -0.2560  0.1368  0.6357
 3227TIP3    H231173   2.761   5.574   2.165 -0.4199 -2.5867 -0.9183
 3228TIP3   OH231174   2.949   4.980   4.962  0.2012 -0.5140 -0.2254
 3228TIP3    H131175   2.914   5.058   4.918 -0.3192 -0.8209 -0.3675
 3228TIP3    H231176   2.967   5.009   5.052 -0.3168 -0.3194 -0.1819
 3229TIP3   OH231177   4.604   2.931   2.284 -0.6469 -0.0454  0.3892
 3229TIP3    H131178   4.650   3.009   2.255 -0.5504  0.2363  1.2595
 3229TIP3    H231179   4.667   2.884   2.339 -0.4549 -1.1202 -0.7198
 3230TIP3   OH231180   1.293   0.873   5.251 -1.0709 -0.3364  0.2269
 3230TIP3    H131181   1.369   0.915   5.291 -0.7431  0.8360 -1.5456
 3230TIP3    H231182   1.329   0.802   5.199 -0.9613  1.1557 -1.8470
 3231TIP3   OH231183   3.318   4.548  15.274  0.0669  0.4438 -0.3623
 3231TIP3    H131184   3.387   4.544  15.208  0.9409  1.7835  0.4240
 3231TIP3    H231185   3.256   4.613  15.240  0.9305  1.7530  0.4482
 3232TIP3   OH231186   0.681   1.011   5.718 -0.1216  0.0916 -0.0422
 3232TIP3    H131187   0.658   1.026   5.626 -0.4820  0.5276  0.1139
 3232TIP3    H231188   0.757   1.067   5.733  1.2076 -1.5014 -0.6125
 3233TIP3   OH231189   5.391   5.977   3.016  0.0085 -0.0524  0.1341
 3233TIP3    H131190   5.329   6.037   3.056  0.6078  0.4883  0.2607
 3233TIP3    H231191   5.337   5.921   2.960 -0.3399  2.0148 -1.7526
 3234TIP3   OH231192   5.499   1.367  11.525 -0.5514  0.3895  0.0407
 3234TIP3    H131193   5.507   1.331  11.614  0.0687  0.5588  0.0548
 3234TIP3    H231194   5.462   1.295  11.474 -0.4104  0.1129  0.3221
 3235TIP3   OH231195   1.649   5.152  11.194 -0.2399 -0.5363 -0.2358
 3235TIP3    H131196   1.571   5.199  11.166  0.6329  1.8061  1.0498
 3235TIP3    H231197   1.720   5.216  11.188  0.6373 -0.8530  3.7477
 3236TIP3   OH231198   6.592   1.231   4.274  0.3252  0.7079 -0.5096
 3236TIP3    H131199   6.621   1.141   4.261  0.9666  0.6373  1.1826
 3236TIP3    H231200   6.530   1.247   4.203  0.4874 -0.9344 -1.0500
 3237TIP3   OH231201   1.447   3.625  16.924 -0.1707 -0.7571 -0.0058
 3237TIP3    H131202   1.405   3.638  17.009 -0.6484  1.9285 -0.5549
 3237TIP3    H231203   1.539   3.609  16.945 -0.5035 -1.3856  1.0512
 3238TIP3   OH231204   2.655   1.576  16.067 -0.6258  0.0001  0.5520
 3238TIP3    H131205   2.583   1.583  16.004 -0.0654  0.7756 -0.0345
 3238TIP3    H231206   2.620   1.612  16.148 -0.8182  0.6202  0.1994
 3239TIP3   OH231207   5.716   5.560   4.500  0.2426  0.4236 -0.0200
 3239TIP3    H131208   5.768   5.537   4.423 -0.4261  0.5815 -0.5361
 3239TIP3    H231209   5.730   5.488   4.561  0.3523  0.0228 -0.5099
 3240TIP3   OH231210   3.941   6.704   4.557  0.0416 -0.0238 -0.0551
 3240TIP3    H131211   3.998   6.664   4.623 -0.1585  1.6285  1.1999
 3240TIP3    H231212   3.979   6.791   4.543 -1.8355  0.9398  0.4571
 3241TIP3   OH231213   5.760   0.894  14.267 -0.1840 -0.2509 -0.2294
 3241TIP3    H131214   5.682   0.912  14.214  0.3252  0.9267 -0.6218
 3241TIP3    H231215   5.811   0.833  14.215 -1.0783 -1.4513  0.2697
 3242TIP3   OH231216   3.571   5.643  11.978 -0.1459  0.1866 -0.0702
 3242TIP3    H131217   3.522   5.606  11.905 -0.0644  1.6833 -0.9348
 3242TIP3    H231218   3.506   5.656  12.047 -0.7412  0.9896 -0.7618
 3243TIP3   OH231219   4.246   2.641  11.684  0.7258 -0.5510  0.4376
 3243TIP3    H131220   4.271   2.585  11.758  2.6077  0.5734  0.7412
 3243TIP3    H231221   4.263   2.730  11.716 -0.4783  0.0841 -0.6369
 3244TIP3   OH231222   6.759   5.572  13.526 -0.5414  0.0103 -0.3289
 3244TIP3    H131223   6.742   5.587  13.618 -0.6260  0.2694 -0.3851
 3244TIP3    H231224   6.854   5.584  13.517 -0.6187  0.5984 -0.3858
 3245TIP3   OH231225   4.016   4.581  11.577 -0.0549 -0.0958 -0.0628
 3245TIP3    H131226   4.019   4.675  11.590  1.6760  0.2578 -2.4088
 3245TIP3    H231227   3.950   4.568  11.509  1.4170 -0.2429 -1.5370
 3246TIP3   OH231228   4.711   4.024   1.790  0.3994  0.0965  0.1514
 3246TIP3    H131229   4.696   4.116   1.772  1.2958  0.1335 -0.4491
 3246TIP3    H231230   4.782   3.999   1.731 -0.5656 -1.2590 -0.4935
 3247TIP3   OH231231   4.612   2.987  13.439 -0.3349 -0.3820 -0.2688
 3247TIP3    H131232   4.572   2.914  13.486  0.8466 -1.0639 -0.3033
 3247TIP3    H231233   4.703   2.987  13.467 -0.0816  0.4308 -1.0596
 3248TIP3   OH231234   3.186   4.867   2.737  0.3832 -0.2337 -0.1073
 3248TIP3    H131235   3.167   4.902   2.650 -0.5046 -0.3103  0.0427
 3248TIP3    H231236   3.279   4.844   2.735  0.7569  1.2663 -0.4988
 3249TIP3   OH231237   5.453   0.003  14.231  0.1904  0.1982 -0.3238
 3249TIP3    H131238   5.485  -0.050  14.304 -1.8271 -1.9791 -0.9108
 3249TIP3    H231239   5.521   0.070  14.220  3.0467 -2.3149  0.3843
 3250TIP3   OH231240   6.630   4.910  14.783  0.5203 -1.0084 -0.4961
 3250TIP3    H131241   6.723   4.930  14.794 -0.0808  1.1917  1.2818
 3250TIP3    H231242   6.618   4.903  14.688  1.8519  2.5559 -1.0711
 3251TIP3   OH231243   5.319   4.009   0.394  0.6925  0.3867 -0.1819
 3251TIP3    H131244   5.232   4.016   0.434 -0.2975  1.7299 -2.3551
 3251TIP3    H231245   5.377   3.982   0.465 -0.7004  3.5708  2.4316
 3252TIP3   OH231246   3.996   2.429  14.563 -0.3516  0.0674 -0.1901
 3252TIP3    H131247   3.948   2.423  14.646 -0.4435 -2.0483 -0.3332
 3252TIP3    H231248   3.997   2.522  14.543  1.2114  0.9064  3.0570
 3253TIP3   OH231249   6.205   0.937  10.780  0.5238 -0.0582 -0.2722
 3253TIP3    H131250   6.300   0.930  10.785  0.5095 -0.2345 -0.2442
 3253TIP3    H231251   6.176   0.852  10.746  0.3784  0.0039 -0.3066
 3254TIP3   OH231252   5.894   4.120   3.235  0.1803  0.0172 -0.2925
 3254TIP3    H131253   5.847   4.045   3.198 -0.1729  0.1733 -0.1588
 3254TIP3    H231254   5.875   4.117   3.329  0.5680 -0.0124 -0.2129
 3255TIP3   OH231255   1.999   2.995   4.563 -0.2230 -0.1345 -0.9407
 3255TIP3    H131256   1.986   3.090   4.556  0.1132 -0.1567 -1.9966
 3255TIP3    H231257   1.932   2.967   4.626  0.3778  0.9434  0.2407
 3256TIP3   OH231258   1.674   3.558  14.969  0.0048  0.1802 -0.2906
 3256TIP3    H131259   1.644   3.467  14.965 -1.3361  0.6136 -0.9673
 3256TIP3    H231260   1.610   3.606  14.916  0.2834  1.6195  0.6261
 3257TIP3   OH231261   4.369   4.632  11.795 -0.7113 -0.0895 -0.0567
 3257TIP3    H131262   4.311   4.558  11.811  0.9428 -1.3612  0.3146
 3257TIP3    H231263   4.365   4.647  11.701 -0.5959 -1.0436 -0.2157
 3258TIP3   OH231264   6.133   2.892  15.274 -0.6749  0.4821  0.0977
 3258TIP3    H131265   6.174   2.972  15.306 -0.2571 -0.3059  1.6230
 3258TIP3    H231266   6.185   2.866  15.198 -0.5745  1.4258 -0.1627
 3259TIP3   OH231267   2.539   0.362   5.204  0.4871 -0.1180 -0.2988
 3259TIP3    H131268   2.479   0.419   5.253 -0.6625 -0.8678 -0.7930
 3259TIP3    H231269   2.561   0.292   5.266  2.1242  0.9642  0.4036
 3260TIP3   OH231270   0.255   4.688  10.591 -0.1087  0.2274 -0.4729
 3260TIP3    H131271   0.272   4.627  10.664 -1.5047 -2.0722 -1.9566
 3260TIP3    H231272   0.342   4.707  10.556  0.3105 -2.1663 -0.8848
 3261TIP3   OH231273   2.587   3.458  17.062 -0.1181 -0.7451 -0.1837
 3261TIP3    H131274   2.585   3.490  16.972  1.0804  0.0297  0.0394
 3261TIP3    H231275   2.618   3.368  17.055 -0.7443 -0.9418 -0.5878
 3262TIP3   OH231276   3.326   6.488   0.343 -0.4105  0.8828 -0.3181
 3262TIP3    H131277   3.308   6.399   0.376 -1.3210  1.3326  0.4347
 3262TIP3    H231278   3.299   6.546   0.414 -1.6456  1.8574 -1.5161
 3263TIP3   OH231279   4.288   2.953  13.411  0.3545  0.2783 -0.0532
 3263TIP3    H131280   4.268   3.033  13.460 -2.4981  0.4801 -1.3215
 3263TIP3    H231281   4.364   2.977  13.357  0.6414  1.5394  0.8504
 3264TIP3   OH231282   5.129   4.443   5.416 -1.2666 -0.2209  0.5142
 3264TIP3    H131283   5.110   4.407   5.330 -0.4692  1.4305 -0.4028
 3264TIP3    H231284   5.050   4.492   5.439 -1.2053 -0.0689  0.3989
 3265TIP3   OH231285   3.217   5.306   5.595 -0.1226  0.1316  0.2699
 3265TIP3    H131286   3.275   5.353   5.535  0.5261 -0.6602  0.2570
 3265TIP3    H231287   3.138   5.288   5.543 -0.6022  1.6403  0.4341
 3266TIP3   OH231288   2.926   2.903  11.012 -0.2195  0.5076 -0.2640
 3266TIP3    H131289   3.017   2.877  11.029  0.0349  0.5310 -1.4739
 3266TIP3    H231290   2.874   2.827  11.036  0.2099  0.1493 -0.4523
 3267TIP3   OH231291   1.718   0.768   1.424 -0.7378  0.1172 -0.2535
 3267TIP3    H131292   1.722   0.672   1.432 -0.1380 -0.0762 -2.3219
 3267TIP3    H231293   1.629   0.785   1.393 -1.2065  0.3597  1.1501
 3268TIP3   OH231294   5.424   3.387  15.942  0.1720 -0.5130 -0.4326
 3268TIP3    H131295   5.439   3.331  16.018 -0.3966  0.8924  0.7542
 3268TIP3    H231296   5.329   3.390  15.933  0.1695  0.7059 -0.1261
 3269TIP3   OH231297   2.578   5.606  15.665 -0.1194 -0.2500  0.5415
 3269TIP3    H131298   2.539   5.680  15.619  1.0921 -1.5564 -2.8823
 3269TIP3    H231299   2.673   5.621  15.659  0.1510 -1.9887 -0.2237
 3270TIP3   OH231300   0.342   5.271   5.740 -0.3232 -0.2576 -0.6290
 3270TIP3    H131301   0.415   5.296   5.683 -0.5204  1.7725 -0.0730
 3270TIP3    H231302   0.381   5.265   5.828 -0.5554 -0.6002 -0.5483
 3271TIP3   OH231303   6.554   6.132  15.665  0.5732  0.4050  0.0665
 3271TIP3    H131304   6.600   6.116  15.583  0.3304  0.7248 -0.1345
 3271TIP3    H231305   6.610   6.193  15.713  0.0752  1.2753 -0.4389
 3272TIP3   OH231306   1.822   5.671  11.125  0.4302  0.5749  0.0493
 3272TIP3    H131307   1.785   5.749  11.085  0.3263 -0.6893 -2.5187
 3272TIP3    H231308   1.866   5.625  11.054 -0.0508 -2.0277  1.2843
 3273TIP3   OH231309   1.167   3.275   5.885 -1.2403  0.0015 -0.0644
 3273TIP3    H131310   1.162   3.333   5.961 -3.2751  0.2934 -0.3746
 3273TIP3    H231311   1.127   3.193   5.915 -0.6579 -0.4040 -0.3800
 3274TIP3   OH231312   1.166   2.224   1.864  0.3049  0.6513 -0.6275
 3274TIP3    H131313   1.253   2.186   1.853 -1.0840 -3.1606  0.1749
 3274TIP3    H231314   1.153   2.278   1.786  3.0692  0.7638 -1.1075
 3275TIP3   OH231315   1.956   3.210   5.581  0.0467  0.2518  0.2223
 3275TIP3    H131316   1.894   3.281   5.562 -1.1487 -0.9699 -0.6773
 3275TIP3    H231317   1.901   3.132   5.585  1.8506 -1.7412 -5.2134
 3276TIP3   OH231318   2.717   2.386  16.570 -0.2716 -0.3015  0.1054
 3276TIP3    H131319   2.791   2.369  16.512 -0.0736 -1.0022  0.5410
 3276TIP3    H231320   2.651   2.426  16.514  1.7001  3.9244  0.3810
 3277TIP3   OH231321   1.251   2.792  13.321  0.4802  0.6523  0.0801
 3277TIP3    H131322   1.283   2.836  13.242 -2.7690  0.9251 -1.2447
 3277TIP3    H231323   1.216   2.709  13.290 -1.7595  1.1771  0.9947
 3278TIP3   OH231324   5.434   4.314  13.187  0.0021  0.1231 -0.2136
 3278TIP3    H131325   5.370   4.249  13.157 -0.4978  0.6596 -0.3264
 3278TIP3    H231326   5.517   4.267  13.186 -0.3545 -0.5258 -0.2676
 3279TIP3   OH231327   5.395   4.895   5.933  0.2765 -0.1484 -0.2596
 3279TIP3    H131328   5.398   4.840   6.012 -0.3527  1.0687  0.6414
 3279TIP3    H231329   5.305   4.925   5.928  0.3882  0.0518 -1.2834
 3280TIP3   OH231330   5.347   2.140   0.754 -0.4421  0.5424 -0.1367
 3280TIP3    H131331   5.420   2.091   0.792  0.8742  2.9011  0.6126
 3280TIP3    H231332   5.361   2.135   0.660  1.4349  1.8786  0.0027
 3281TIP3   OH231333   6.685   2.086   1.586 -0.8087  0.3614 -0.0703
 3281TIP3    H131334   6.607   2.047   1.547 -1.9304 -0.0579  2.4229
 3281TIP3    H231335   6.665   2.094   1.679  2.2703 -0.1729  0.7729
 3282TIP3   OH231336   0.049   2.453  14.001  0.0006  0.6069  0.4388
 3282TIP3    H131337   0.127   2.416  14.042 -0.4351  0.0874  0.8115
 3282TIP3    H231338   0.059   2.548  14.011  1.3618  0.6613 -0.9520
 3283TIP3   OH231339   5.846   3.404   4.171  0.0487 -0.5306 -0.0484
 3283TIP3    H131340   5.752   3.410   4.191  0.0151  0.1337 -0.3647
 3283TIP3    H231341   5.869   3.314   4.192 -0.3704 -0.3550  1.3084
 3284TIP3   OH231342   4.481   3.301   1.457  0.8565 -0.1623 -0.1859
 3284TIP3    H131343   4.436   3.367   1.405  0.9004 -1.3375 -1.8058
 3284TIP3    H231344   4.416   3.231   1.468  1.4183 -0.7094 -0.2522
 3285TIP3   OH231345   4.344   3.419   6.183 -0.3717  0.4462  0.0770
 3285TIP3    H131346   4.317   3.381   6.267  0.2771  0.8485  0.4692
 3285TIP3    H231347   4.417   3.477   6.204  0.0484  0.2653 -0.8209
 3286TIP3   OH231348   3.758   3.848   0.353  0.6115 -0.2641 -0.2672
 3286TIP3    H131349   3.773   3.867   0.260  0.2743 -2.1462 -0.7447
 3286TIP3    H231350   3.663   3.844   0.361  0.6251  0.4433  0.2926
 3287TIP3   OH231351   5.473   1.226   1.589 -0.0750 -0.0975  0.2785
 3287TIP3    H131352   5.533   1.288   1.631  0.4162 -0.7929  0.6209
 3287TIP3    H231353   5.461   1.157   1.654 -0.0335 -0.7324 -0.3794
 3288TIP3   OH231354   0.201   1.803   2.501 -0.1170  0.0777 -0.0494
 3288TIP3    H131355   0.258   1.869   2.461 -1.2139 -0.1579 -2.0952
 3288TIP3    H231356   0.124   1.852   2.529  0.7828  0.3172  2.3353
 3289TIP3   OH231357   6.078   5.074  14.843  0.2157  0.3308  0.1900
 3289TIP3    H131358   6.046   5.051  14.930 -1.0754 -1.7287 -0.7316
 3289TIP3    H231359   6.043   5.162  14.827 -2.3222 -0.5066  0.5638
 3290TIP3   OH231360   5.168   4.676  11.777 -0.3434  0.1909  0.0529
 3290TIP3    H131361   5.117   4.720  11.845  3.5073  0.6127  3.0528
 3290TIP3    H231362   5.196   4.746  11.718 -1.1627  0.3167 -0.2038
 3291TIP3   OH231363   1.446   2.437  13.233  0.3756 -0.3282 -0.3543
 3291TIP3    H131364   1.481   2.425  13.144  0.2540  0.4026 -0.5109
 3291TIP3    H231365   1.363   2.484  13.219  0.9707  0.9490  0.2058
 3292TIP3   OH231366   4.186   2.781   1.339  0.0804 -0.2381 -0.2281
 3292TIP3    H131367   4.167   2.724   1.265 -2.1807 -0.5531  0.4890
 3292TIP3    H231368   4.159   2.868   1.310  0.3199 -0.1430 -0.1690
 3293TIP3   OH231369   6.788   2.281   0.859 -0.3958 -0.0452  0.2462
 3293TIP3    H131370   6.882   2.268   0.873  0.2400 -0.6449 -3.4138
 3293TIP3    H231371   6.767   2.360   0.907  3.1549  2.7690 -2.2666
 3294TIP3   OH231372   5.710   0.397  12.937  0.2643  0.2227  0.8062
 3294TIP3    H131373   5.630   0.345  12.929 -0.4998  1.6530 -1.7195
 3294TIP3    H231374   5.682   0.488  12.930  1.8455  0.9305  2.7116
 3295TIP3   OH231375   4.796   5.491  11.118  0.0640  0.0823  0.0875
 3295TIP3    H131376   4.774   5.483  11.025 -1.5900  0.2789  0.4297
 3295TIP3    H231377   4.820   5.583  11.128  1.0624 -0.1281 -0.2935
 3296TIP3   OH231378   6.451   4.749  13.593 -0.1710 -0.2120 -0.4598
 3296TIP3    H131379   6.428   4.806  13.520  0.9802 -0.1101 -0.7631
 3296TIP3    H231380   6.374   4.751  13.650  0.2781  2.7849  0.2642
 3297TIP3   OH231381   3.905   1.997  13.910 -0.0799  0.6871  0.7099
 3297TIP3    H131382   3.903   2.092  13.899  1.1574  0.7725  1.0960
 3297TIP3    H231383   3.834   1.978  13.971 -1.5089  1.1414 -0.7388
 3298TIP3   OH231384   5.525   3.630   4.210  0.0563  0.0082  0.5779
 3298TIP3    H131385   5.598   3.634   4.272  0.4413 -0.6578  0.1756
 3298TIP3    H231386   5.511   3.537   4.196  0.7499  0.1335 -1.2377
 3299TIP3   OH231387   4.473   5.521  14.911 -0.3405 -0.4109  0.4304
 3299TIP3    H131388   4.526   5.473  14.974  0.5478 -0.4354 -0.3254
 3299TIP3    H231389   4.479   5.612  14.939  0.3607 -0.3725  0.1783
 3300TIP3   OH231390   4.439   3.977  10.972 -0.2051 -0.2032  0.2578
 3300TIP3    H131391   4.371   3.997  10.908 -0.6534  0.9629  1.0535
 3300TIP3    H231392   4.491   4.058  10.977 -0.2110 -0.2444  1.3803
 3301TIP3   OH231393   2.298   5.422  13.419 -0.7643 -0.2342  0.2724
 3301TIP3    H131394   2.392   5.425  13.406 -0.7714  2.3041  0.1803
 3301TIP3    H231395   2.280   5.492  13.482 -2.7341  0.5802 -1.0623
 3302TIP3   OH231396   5.611   4.430   5.491 -0.2377 -0.3239  0.2191
 3302TIP3    H131397   5.637   4.519   5.513  0.1229 -1.0499  3.1276
 3302TIP3    H231398   5.554   4.440   5.414  1.5137  2.1375 -0.8816
 3303TIP3   OH231399   1.149   3.963   1.936 -0.1724  0.7713  0.1625
 3303TIP3    H131400   1.148   3.867   1.941 -0.3017  0.7965  0.8197
 3303TIP3    H231401   1.061   3.986   1.906 -0.0753  0.6770 -0.1958
 3304TIP3   OH231402   1.777   1.144  13.276 -0.2028  0.6117  0.1575
 3304TIP3    H131403   1.689   1.151  13.313 -0.3706  0.7568 -0.2634
 3304TIP3    H231404   1.770   1.074  13.211 -0.1871  1.1198 -0.3916
 3305TIP3   OH231405   1.035   4.346   5.296 -0.2402 -0.0206  0.4828
 3305TIP3    H131406   1.087   4.270   5.268 -0.0307 -0.0311  0.8936
 3305TIP3    H231407   1.024   4.398   5.216 -0.9409 -0.8019  0.0520
 3306TIP3   OH231408   5.109   1.386  12.593 -0.1268 -0.5214 -0.0646
 3306TIP3    H131409   5.134   1.458  12.535  0.4562 -0.7979 -0.1551
 3306TIP3    H231410   5.191   1.341  12.613 -0.6239 -1.8254 -0.8797
 3307TIP3   OH231411   3.848   2.421  16.995 -0.3737 -0.4774  0.3462
 3307TIP3    H131412   3.851   2.395  17.087 -1.1803  0.3809  0.6205
 3307TIP3    H231413   3.768   2.472  16.986  1.2884  2.2941 -0.0638
 3308TIP3   OH231414   3.486   1.718  16.345 -0.3480 -0.4257  0.6210
 3308TIP3    H131415   3.433   1.781  16.395 -2.0497  0.3198 -1.9486
 3308TIP3    H231416   3.444   1.633  16.363 -0.4449 -0.2875  1.0757
 3309TIP3   OH231417   6.519   6.582   5.893  0.3655  0.6652  0.3716
 3309TIP3    H131418   6.597   6.622   5.930 -0.6205  1.1481  2.0560
 3309TIP3    H231419   6.488   6.522   5.961  0.4299 -1.1586 -1.1105
 3310TIP3   OH231420   5.784   3.092   0.534 -0.2937 -0.3328 -0.8239
 3310TIP3    H131421   5.716   3.063   0.595  0.7484 -1.2098 -0.0456
 3310TIP3    H231422   5.865   3.089   0.584  0.5516 -0.7321 -2.1348
 3311TIP3   OH231423   4.056   0.399   4.874 -0.1067 -0.4436  0.5543
 3311TIP3    H131424   4.151   0.408   4.869 -0.0976 -0.5507  0.5381
 3311TIP3    H231425   4.034   0.335   4.807 -0.4400  1.3133 -1.0903
 3312TIP3   OH231426   6.068   4.498  16.612  0.1994 -0.2092  0.2019
 3312TIP3    H131427   6.025   4.412  16.616  2.3494 -1.5562 -2.3921
 3312TIP3    H231428   6.159   4.480  16.634  0.0666  2.2233  3.5722
 3313TIP3   OH231429   1.650   0.085  11.114  0.5461 -0.1745 -0.6894
 3313TIP3    H131430   1.743   0.107  11.127  0.3573  0.3554 -0.2163
 3313TIP3    H231431   1.627   0.127  11.031  1.1323 -1.6146 -1.6226
 3314TIP3   OH231432   2.000   2.147   4.784 -0.1464 -0.1803 -0.2042
 3314TIP3    H131433   2.024   2.230   4.827  1.2574  0.5430 -2.2334
 3314TIP3    H231434   1.962   2.174   4.700 -1.8821 -1.5661  0.1016
 3315TIP3   OH231435   5.216   0.775  13.869  1.1760  0.1754 -0.1394
 3315TIP3    H131436   5.254   0.690  13.892  3.7839  1.8291  2.3067
 3315TIP3    H231437   5.214   0.774  13.773  0.6660 -2.7762 -0.1954
 3316TIP3   OH231438   0.090   4.677   0.982  0.6388  0.6906  0.3393
 3316TIP3    H131439   0.133   4.592   0.973  0.1642  0.5553 -0.8389
 3316TIP3    H231440   0.031   4.666   1.057  1.2198  0.2653  0.7459
 3317TIP3   OH231441   0.147   5.866  15.984  0.0109 -0.1483  0.1570
 3317TIP3    H131442   0.068   5.812  15.991 -0.6850  0.7024 -0.7382
 3317TIP3    H231443   0.129   5.941  16.040  0.0678  0.1741 -0.2556
 3318TIP3   OH231444   2.637   0.019  10.826  0.4082 -0.5777 -0.3204
 3318TIP3    H131445   2.729  -0.000  10.844  0.2394 -1.2688 -0.1872
 3318TIP3    H231446   2.589  -0.058  10.856 -0.3390  0.2405  0.6876
 3319TIP3   OH231447   3.395   0.314   3.022 -0.4914 -0.4927  0.1263
 3319TIP3    H131448   3.390   0.287   2.930  0.9122  0.2773 -0.1934
 3319TIP3    H231449   3.324   0.377   3.032  0.2882  0.5806 -0.8542
 3320TIP3   OH231450   2.513   1.224   3.576 -0.1065 -0.5606  0.2743
 3320TIP3    H131451   2.574   1.168   3.528 -1.0113 -0.8824 -0.5455
 3320TIP3    H231452   2.532   1.207   3.668 -0.3179 -2.1928  0.0475
 3321TIP3   OH231453   4.864   5.555  13.823 -0.6029  0.1216  0.2618
 3321TIP3    H131454   4.837   5.513  13.741 -0.5314  0.1079  0.2452
 3321TIP3    H231455   4.857   5.485  13.889  0.3469 -0.1589  0.0789
 3322TIP3   OH231456   1.246   0.346   5.050  0.1077 -0.6581  0.1790
 3322TIP3    H131457   1.166   0.395   5.030  0.9066  0.3928 -0.6022
 3322TIP3    H231458   1.260   0.360   5.143 -0.3298 -0.3876  0.2066
 3323TIP3   OH231459   3.805   0.117   0.639 -0.0521  0.0534  0.4670
 3323TIP3    H131460   3.878   0.178   0.639 -0.8767  1.0880  0.0199
 3323TIP3    H231461   3.817   0.064   0.718  0.7292  0.7459  0.8274
 3324TIP3   OH231462   4.477   3.503   3.467 -0.0464  0.0152  0.0905
 3324TIP3    H131463   4.548   3.455   3.510  0.6087 -0.0994 -1.0779
 3324TIP3    H231464   4.461   3.578   3.524 -0.5794 -1.1679  1.5601
 3325TIP3   OH231465   5.929   3.129  12.061 -0.4788  0.3436 -0.5429
 3325TIP3    H131466   5.908   3.206  12.009 -1.5741  0.7052  0.3851
 3325TIP3    H231467   5.846   3.104  12.101 -0.1513 -1.3412 -0.8400
 3326TIP3   OH231468   5.091   2.659   6.806  0.1048 -0.3061 -0.2988
 3326TIP3    H131469   5.055   2.579   6.846  0.4723 -0.4355 -0.2165
 3326TIP3    H231470   5.027   2.727   6.826  0.3962 -0.3127  0.7541
 3327TIP3   OH231471   1.688   2.651  13.179 -0.0423 -0.5883 -0.1450
 3327TIP3    H131472   1.747   2.597  13.232 -1.3623 -0.7971  1.1973
 3327TIP3    H231473   1.655   2.592  13.112  1.3256 -0.4381 -0.9924
 3328TIP3   OH231474   2.976   5.691   5.427  0.3070 -0.0075  0.4367
 3328TIP3    H131475   2.990   5.769   5.480 -0.8571  0.0511  0.6858
 3328TIP3    H231476   2.883   5.691   5.408  0.1040 -1.7739  1.1694
 3329TIP3   OH231477   1.041   6.805   3.471  0.0630 -0.2639  0.3195
 3329TIP3    H131478   1.093   6.882   3.447  1.5593 -2.0960 -2.8544
 3329TIP3    H231479   0.968   6.806   3.409  0.7999 -2.0149 -0.6427
 3330TIP3   OH231480   0.314   2.917  14.252  0.4753 -0.1092  0.0359
 3330TIP3    H131481   0.355   3.003  14.242 -0.1521  0.0977 -0.9554
 3330TIP3    H231482   0.221   2.933  14.235  0.4035 -1.0319 -0.4966
 3331TIP3   OH231483   4.972   2.998   3.869  0.1280  0.5100  0.0247
 3331TIP3    H131484   4.956   3.068   3.931  0.6191  0.2114  0.4993
 3331TIP3    H231485   5.049   3.027   3.820 -0.3909  0.8478 -0.6098
 3332TIP3   OH231486   5.386   2.940   4.281 -0.4198 -0.1762 -0.3292
 3332TIP3    H131487   5.342   2.891   4.351 -0.3369 -0.8954 -0.7776
 3332TIP3    H231488   5.475   2.952   4.313 -0.4251 -0.3597 -0.2446
 3333TIP3   OH231489   1.399   3.326   3.478 -0.3149 -0.0609  0.0135
 3333TIP3    H131490   1.401   3.422   3.480  0.5783 -0.0624 -0.1342
 3333TIP3    H231491   1.362   3.304   3.393  1.8985  0.1955 -1.1042
 3334TIP3   OH231492   4.234   0.455  16.949  0.5563 -0.1103 -0.3122
 3334TIP3    H131493   4.196   0.500  16.873 -0.8031 -0.4909  0.1241
 3334TIP3    H231494   4.322   0.430  16.920  1.2560  2.4814 -0.6904
 3335TIP3   OH231495   5.942   2.730  15.867  0.0460  0.0851  0.3801
 3335TIP3    H131496   5.850   2.751  15.886  0.4333  1.8056  0.5380
 3335TIP3    H231497   5.941   2.637  15.845 -1.6595 -0.0523  0.8595
 3336TIP3   OH231498   1.408   2.084  13.556 -0.3983 -0.2913  0.4255
 3336TIP3    H131499   1.319   2.118  13.544  0.0225  1.5221  2.0022
 3336TIP3    H231500   1.402   2.032  13.637 -0.4559 -2.0310 -0.6280
 3337TIP3   OH231501   6.221   1.503  14.569  0.6489 -0.4015  0.4321
 3337TIP3    H131502   6.189   1.419  14.537 -0.8556  0.0554  0.6864
 3337TIP3    H231503   6.287   1.529  14.505 -1.0965 -0.2906 -1.4039
 3338TIP3   OH231504   5.739   6.064   4.128 -0.6710  0.3567 -0.0406
 3338TIP3    H131505   5.788   6.053   4.210 -0.3476  2.8121  0.1618
 3338TIP3    H231506   5.792   6.125   4.076 -0.4578 -1.7568 -2.4994
 3339TIP3   OH231507   3.722   4.820  15.660  0.7616 -0.1541 -0.4102
 3339TIP3    H131508   3.639   4.854  15.693  1.1120  0.2412  0.0838
 3339TIP3    H231509   3.698   4.761  15.589  0.0782  0.2450 -0.5148
 3340TIP3   OH231510   1.568   4.397   2.555 -0.8727  0.3440  0.0502
 3340TIP3    H131511   1.543   4.461   2.621 -0.1506  0.3974  0.2845
 3340TIP3    H231512   1.520   4.318   2.579 -2.0389  0.8854 -0.4439
 3341TIP3   OH231513   0.568   5.611  11.781 -0.0869  0.1850 -0.4531
 3341TIP3    H131514   0.514   5.670  11.833  0.6129  0.5200 -0.0932
 3341TIP3    H231515   0.639   5.585  11.840 -0.4647 -1.1464 -0.5466
 3342TIP3   OH231516   0.465   5.561   0.012 -0.1373  0.2406 -0.1195
 3342TIP3    H131517   0.490   5.618  -0.061  1.2423 -0.8105 -0.4977
 3342TIP3    H231518   0.503   5.476  -0.009 -1.1615 -0.5302  1.0141
 3343TIP3   OH231519   2.326   3.868   2.117 -0.8623  0.3288 -0.1198
 3343TIP3    H131520   2.253   3.828   2.070 -0.5969 -0.0928 -0.1818
 3343TIP3    H231521   2.285   3.921   2.185 -1.2248 -0.6400  0.4431
 3344TIP3   OH231522   0.020   4.253  12.599 -0.2054  0.6755  0.0579
 3344TIP3    H131523   0.024   4.219  12.688 -2.2409  1.6390  0.5822
 3344TIP3    H231524  -0.019   4.182  12.547 -1.3590  0.9693  0.4820
 3345TIP3   OH231525   6.604   5.918  14.734  0.3799  0.1967 -0.2672
 3345TIP3    H131526   6.699   5.917  14.723  0.4060 -0.9219 -0.0574
 3345TIP3    H231527   6.570   5.918  14.645  0.5880 -0.9892 -0.3596
 3346TIP3   OH231528   4.985   1.030  10.970 -0.5884 -0.2806  0.5337
 3346TIP3    H131529   5.059   0.985  11.010  0.3384  0.0049 -0.8342
 3346TIP3    H231530   4.916   0.963  10.965  0.0617 -0.9469  0.4463
 3347TIP3   OH231531   2.195   2.482   1.497  0.3439  0.5493 -0.2083
 3347TIP3    H131532   2.220   2.493   1.405  0.6966  1.0924 -0.0507
 3347TIP3    H231533   2.155   2.395   1.500  1.2238  0.1121 -0.6845
 3348TIP3   OH231534   0.392   1.464  12.155 -0.3482 -0.0697  0.4370
 3348TIP3    H131535   0.348   1.384  12.183  3.7836 -3.1485 -0.9032
 3348TIP3    H231536   0.360   1.479  12.065  2.0828 -3.2070 -1.1457
 3349TIP3   OH231537   3.218   3.684  15.047  0.2989 -0.2860 -0.3368
 3349TIP3    H131538   3.137   3.638  15.069 -1.0748  0.9700 -2.3822
 3349TIP3    H231539   3.246   3.723  15.130 -3.1236  2.0851 -0.0727
 3350TIP3   OH231540   0.152   0.148   3.497 -0.2447  0.9152 -0.2805
 3350TIP3    H131541   0.170   0.139   3.404  1.4757  1.4039 -0.0219
 3350TIP3    H231542   0.066   0.191   3.501  0.1324  1.8433 -1.6581
 3351TIP3   OH231543   3.172   4.949   0.672  0.7167 -0.0480  0.8431
 3351TIP3    H131544   3.135   4.868   0.638 -0.2366  0.0262  1.6576
 3351TIP3    H231545   3.228   4.982   0.602  0.6234 -1.0895  0.2750
 3352TIP3   OH231546   2.747   2.524   1.879 -0.4675  0.0086  0.3731
 3352TIP3    H131547   2.693   2.561   1.810  1.4509  0.5326 -0.9473
 3352TIP3    H231548   2.775   2.439   1.845  0.6792  0.3666  0.3858
 3353TIP3   OH231549   0.770   2.927  16.554 -0.2200  0.0761 -0.0239
 3353TIP3    H131550   0.737   2.967  16.635  1.1260  1.3736 -0.0598
 3353TIP3    H231551   0.831   2.860  16.584 -0.5270 -0.1761  0.0373
 3354TIP3   OH231552   4.311   3.125   1.369 -0.5154 -0.0642 -0.4996
 3354TIP3    H131553   4.222   3.097   1.348 -0.3524 -1.0409 -0.0079
 3354TIP3    H231554   4.356   3.127   1.285 -1.0103  0.4918 -0.7589
 3355TIP3   OH231555   0.369   0.562  13.648 -0.0331  0.2257  0.1933
 3355TIP3    H131556   0.303   0.611  13.599 -0.4920 -1.7964 -1.3542
 3355TIP3    H231557   0.326   0.542  13.732 -0.5494  0.7965  0.0754
 3356TIP3   OH231558   5.417   5.277  12.499 -0.3069  0.1716 -0.2372
 3356TIP3    H131559   5.354   5.343  12.469 -0.9515  0.5773  1.8350
 3356TIP3    H231560   5.407   5.205  12.437 -0.8777  1.2979 -1.5081
 3357TIP3   OH231561   3.470   5.914  14.231  0.3665 -0.4487 -0.1780
 3357TIP3    H131562   3.558   5.948  14.250  0.4920  0.7824 -2.5083
 3357TIP3    H231563   3.413   5.991  14.233 -1.0853 -1.4508  2.9406
 3358TIP3   OH231564   1.005   0.876   3.811  0.2652 -0.3439  0.4209
 3358TIP3    H131565   1.040   0.874   3.900  2.4684  1.7720 -0.2966
 3358TIP3    H231566   0.965   0.963   3.803  0.7242 -0.2335 -0.8471
 3359TIP3   OH231567   3.119   2.984  15.189  0.2588  0.3661 -0.6917
 3359TIP3    H131568   3.113   2.902  15.239 -1.4529  1.3340  0.8350
 3359TIP3    H231569   3.056   2.973  15.118  0.4740  0.1405 -0.8503
 3360TIP3   OH231570   6.135   0.598  13.682 -0.0599 -0.8299  0.6435
 3360TIP3    H131571   6.104   0.688  13.687 -0.9727 -0.9240 -1.9637
 3360TIP3    H231572   6.227   0.606  13.657 -0.4450 -0.6130 -0.7400
 3361TIP3   OH231573   1.865   4.165  16.483 -0.3891 -0.4846  0.4031
 3361TIP3    H131574   1.958   4.186  16.469 -0.5581  0.5705  0.7867
 3361TIP3    H231575   1.818   4.238  16.443 -0.9625  1.0591  3.6137
 3362TIP3   OH231576   2.243   1.644  15.488  0.4869  0.4500  0.3464
 3362TIP3    H131577   2.337   1.657  15.503  0.5881  0.7226 -0.4901
 3362TIP3    H231578   2.212   1.599  15.567  1.8795 -2.3119 -0.5641
 3363TIP3   OH231579   5.720   5.761  15.458  0.1536 -0.2295 -0.4361
 3363TIP3    H131580   5.670   5.715  15.390  1.3709 -0.0239 -1.5119
 3363TIP3    H231581   5.736   5.848  15.421  0.0694  0.1944  0.5088
 3364TIP3   OH231582   6.501   1.048  15.113  0.4010 -0.1990 -0.0177
 3364TIP3    H131583   6.445   1.033  15.189  0.7894 -0.2119  0.2652
 3364TIP3    H231584   6.516   0.960  15.077  1.6289 -0.3814  0.8973
 3365TIP3   OH231585   3.598   6.104   3.028  0.0113 -0.0268  0.0199
 3365TIP3    H131586   3.639   6.188   3.006 -0.0077  0.0168  0.1449
 3365TIP3    H231587   3.595   6.104   3.124  0.1994 -0.2636  0.0251
 3366TIP3   OH231588   5.988   4.269  11.355 -0.7288  0.5154 -0.3022
 3366TIP3    H131589   5.915   4.316  11.316 -1.7786 -0.3554  0.5277
 3366TIP3    H231590   6.039   4.237  11.281 -1.6391  0.4643 -0.9195
 3367TIP3   OH231591   5.701   0.663   5.045  0.1360 -0.0110 -0.1495
 3367TIP3    H131592   5.723   0.748   5.006 -0.5272  1.0336  1.6061
 3367TIP3    H231593   5.659   0.614   4.975 -3.3965  2.7230 -0.2394
 3368TIP3   OH231594   4.011   3.124   0.333  0.5146 -0.4702 -0.0754
 3368TIP3    H131595   4.089   3.077   0.303 -0.2665 -1.0125 -1.3464
 3368TIP3    H231596   3.999   3.194   0.269  1.3813  1.2536  1.5246
 3369TIP3   OH231597   1.796   1.715   0.946  0.2059 -0.0622 -0.2377
 3369TIP3    H131598   1.754   1.663   0.878  1.0544 -2.8957  1.2223
 3369TIP3    H231599   1.730   1.779   0.972 -1.0884 -0.6905 -1.8338
 3370TIP3   OH231600   5.606   5.520  16.019 -0.1206  0.6947 -0.3121
 3370TIP3    H131601   5.530   5.540  16.073  0.7180  1.4598  0.6236
 3370TIP3    H231602   5.574   5.456  15.955 -1.1611 -0.2013  1.0503
 3371TIP3   OH231603   3.087   4.338   2.588  0.6338  0.5044  0.2570
 3371TIP3    H131604   3.174   4.348   2.627  0.2570 -0.6917  1.5058
 3371TIP3    H231605   3.102   4.292   2.506  1.2850  1.5126 -0.2134
 3372TIP3   OH231606   2.791   2.151  12.604 -0.3548  0.5322  0.3055
 3372TIP3    H131607   2.703   2.129  12.572 -0.8437  0.8285  1.4052
 3372TIP3    H231608   2.793   2.247  12.604  0.3636  0.5370 -0.7243
 3373TIP3   OH231609   4.006   2.780  15.067 -0.0999 -0.1555 -0.4383
 3373TIP3    H131610   4.063   2.840  15.114  0.1585 -2.0583  1.8367
 3373TIP3    H231611   3.940   2.837  15.027  0.7060  1.7091  0.7482
 3374TIP3   OH231612   0.686   4.603  10.364 -0.3346 -0.0137 -0.0997
 3374TIP3    H131613   0.755   4.548  10.403  0.9766  1.0297 -0.8689
 3374TIP3    H231614   0.613   4.543  10.350  0.2158 -1.0500  1.2230
 3375TIP3   OH231615   6.819   4.839  16.576 -0.1578  0.1500  0.2954
 3375TIP3    H131616   6.774   4.754  16.575  0.4025 -0.1605  1.1391
 3375TIP3    H231617   6.803   4.874  16.488 -0.0087 -1.0239 -0.2260
 3376TIP3   OH231618   0.351   1.233   6.472 -0.4279  0.1710  0.2043
 3376TIP3    H131619   0.310   1.170   6.413 -0.0533  0.6252 -0.5478
 3376TIP3    H231620   0.407   1.179   6.529  0.1528 -0.1512 -0.6538
 3377TIP3   OH231621   4.309   5.467   4.483  0.4420 -0.2927  0.1857
 3377TIP3    H131622   4.301   5.403   4.412 -2.6403 -1.1684  1.1729
 3377TIP3    H231623   4.258   5.543   4.453  0.5870  0.0298  0.7378
 3378TIP3   OH231624   3.219   0.680  14.318 -0.3271 -0.0250 -0.4148
 3378TIP3    H131625   3.160   0.669  14.392  1.1716 -0.1664  0.8168
 3378TIP3    H231626   3.290   0.736  14.352  1.1512 -1.3103 -1.2600
 3379TIP3   OH231627   5.120   0.323  16.132 -0.5660 -0.4674  0.2688
 3379TIP3    H131628   5.179   0.291  16.064 -1.9321 -0.6661 -0.8805
 3379TIP3    H231629   5.136   0.417  16.136  0.9917 -0.7451  1.1765
 3380TIP3   OH231630   2.935   1.125   4.855 -0.2528 -0.1240 -0.2072
 3380TIP3    H131631   3.012   1.068   4.850  0.8683  1.4153 -2.1092
 3380TIP3    H231632   2.862   1.069   4.828  0.4984 -1.1509 -0.1829
 3381TIP3   OH231633   3.302   6.570  14.592 -0.7786 -0.3109 -0.8269
 3381TIP3    H131634   3.265   6.616  14.667 -0.5917 -1.4018 -0.0419
 3381TIP3    H231635   3.341   6.639  14.538  0.0282  0.4000  0.6149
 3382TIP3   OH231636   6.809   3.939   4.923  0.1125 -0.2291 -0.2043
 3382TIP3    H131637   6.886   3.885   4.911  0.0709 -0.6148  1.0438
 3382TIP3    H231638   6.825   3.985   5.006 -0.7533  0.0879 -0.2005
 3383TIP3   OH231639   5.583   4.870   2.183 -0.7644  0.0027 -0.8521
 3383TIP3    H131640   5.557   4.779   2.174 -1.2357  0.0979 -0.5255
 3383TIP3    H231641   5.665   4.877   2.135 -1.5792 -0.2088 -2.3302
 3384TIP3   OH231642   3.096   2.974  11.682 -0.3211  0.0794 -0.1994
 3384TIP3    H131643   3.030   2.930  11.736  0.1679  1.1193  1.2846
 3384TIP3    H231644   3.057   3.058  11.659  0.2596  0.4663  0.2093
 3385TIP3   OH231645   5.386   4.055   1.252 -0.4015 -0.1998  0.1476
 3385TIP3    H131646   5.397   4.047   1.347 -1.1899  0.4554  0.3079
 3385TIP3    H231647   5.456   4.114   1.224 -1.7255  1.7762  0.7476
 3386TIP3   OH231648   4.856   0.311   4.651 -0.1635 -0.6816 -0.2489
 3386TIP3    H131649   4.892   0.251   4.585 -0.8228  0.1689 -1.4392
 3386TIP3    H231650   4.769   0.277   4.670 -1.7363  1.3001 -3.0586
 3387TIP3   OH231651   5.917   3.132  16.265  0.1492  0.2293  0.1432
 3387TIP3    H131652   5.923   3.158  16.356 -0.3317  0.8344  0.0080
 3387TIP3    H231653   5.956   3.045  16.262 -0.0326  0.1140  0.9656
 3388TIP3   OH231654   1.659   0.695  14.711 -0.5418 -0.6506  0.0376
 3388TIP3    H131655   1.647   0.614  14.662 -1.9852 -0.8285  0.6429
 3388TIP3    H231656   1.600   0.757  14.669  1.2737  0.4404 -1.0657
 3389TIP3   OH231657   2.094   2.536   0.065 -0.1378  0.0730 -0.0270
 3389TIP3    H131658   2.022   2.484   0.100 -1.7105  1.5470 -0.9173
 3389TIP3    H231659   2.119   2.595   0.136 -0.5975  0.3333 -0.0795
 3390TIP3   OH231660   3.887   5.443  13.543 -0.8281 -0.7178 -0.4946
 3390TIP3    H131661   3.894   5.495  13.463 -0.6633 -2.0828 -1.4037
 3390TIP3    H231662   3.865   5.355  13.512 -0.4474 -1.3424  0.9478
 3391TIP3   OH231663   3.390   2.407  16.013 -0.0152 -0.0660 -0.5829
 3391TIP3    H131664   3.478   2.424  15.980 -0.0784 -0.9096 -1.2237
 3391TIP3    H231665   3.334   2.410  15.935 -0.6227  0.8248 -0.1366
 3392TIP3   OH231666   6.058   5.096   4.199 -0.5417  0.2021  0.0470
 3392TIP3    H131667   5.995   5.143   4.254 -1.5534  0.0613 -0.9536
 3392TIP3    H231668   6.016   5.092   4.113  0.8119  0.0348 -0.6310
 3393TIP3   OH231669   3.840   2.664  15.664 -0.1516  0.2130  0.1408
 3393TIP3    H131670   3.795   2.706  15.591  1.5077  0.5714 -0.7262
 3393TIP3    H231671   3.896   2.599  15.623 -0.0908 -0.4272  1.2125
 3394TIP3   OH231672   4.196   5.123   4.071 -0.7368 -0.0755 -0.2537
 3394TIP3    H131673   4.240   5.200   4.037  0.8106 -0.4098  0.8806
 3394TIP3    H231674   4.115   5.116   4.019 -1.0804  2.4487 -0.1657
 3395TIP3   OH231675   4.161   5.867   1.014  0.1700 -0.1862  0.0906
 3395TIP3    H131676   4.254   5.890   1.018 -0.1860  1.4903 -0.2715
 3395TIP3    H231677   4.119   5.927   1.075 -0.9164  0.5986 -1.3467
 3396TIP3   OH231678   4.986   5.465  14.874  0.1143 -0.3611  0.0512
 3396TIP3    H131679   4.955   5.532  14.934 -0.5856  0.8002 -1.5273
 3396TIP3    H231680   5.068   5.434  14.912  1.2977  2.5190  0.0745
 3397TIP3   OH231681   3.607   0.019   5.769  0.5834 -0.2207 -0.4672
 3397TIP3    H131682   3.587   0.078   5.842  1.2183 -0.5855  0.0220
 3397TIP3    H231683   3.648  -0.056   5.811  2.1617  0.1291 -1.3047
 3398TIP3   OH231684   2.768   6.175   4.335  0.1976 -0.1239  0.7186
 3398TIP3    H131685   2.756   6.108   4.268  1.0967 -1.1107  1.5124
 3398TIP3    H231686   2.689   6.170   4.389  0.7221 -1.2859  1.3984
 3399TIP3   OH231687   4.636   5.904  14.575  0.8313  0.4192  0.0918
 3399TIP3    H131688   4.662   5.832  14.519 -0.3907 -0.0979  0.1439
 3399TIP3    H231689   4.561   5.870  14.624 -0.8707  2.2285 -1.1011
 3400TIP3   OH231690   1.449   6.508   5.760  0.4193 -0.3674  0.9367
 3400TIP3    H131691   1.499   6.587   5.742 -4.2384  2.6279 -0.4906
 3400TIP3    H231692   1.393   6.531   5.834 -3.5464 -0.7807 -1.6475
 3401TIP3   OH231693   6.505   3.428  15.174  0.0854  0.2360 -0.5756
 3401TIP3    H131694   6.569   3.375  15.127  1.4354  2.4175 -1.3398
 3401TIP3    H231695   6.545   3.444  15.260 -0.6656 -0.5943 -0.0552
 3402TIP3   OH231696   4.945   0.712   0.311 -0.3302 -0.1745  1.0148
 3402TIP3    H131697   4.861   0.747   0.339  0.1503  1.6349  0.3517
 3402TIP3    H231698   4.990   0.689   0.392 -1.0396 -0.1342  1.4231
 3403TIP3   OH231699   5.197   2.115  14.987 -0.1014 -0.5170  0.4237
 3403TIP3    H131700   5.189   2.111  15.082 -0.2914  0.6126  0.4650
 3403TIP3    H231701   5.176   2.026  14.958 -0.6061 -0.7333  1.3962
 3404TIP3   OH231702   1.681   5.093   3.365  0.1887 -0.2763  0.0126
 3404TIP3    H131703   1.721   5.069   3.281 -0.6841  1.7063 -1.0470
 3404TIP3    H231704   1.700   5.186   3.375 -1.4106 -0.0138  1.0363
 3405TIP3   OH231705   2.851   2.082   5.969  0.2834 -0.8292  0.1874
 3405TIP3    H131706   2.828   2.174   5.962  1.6148 -0.3851  1.0499
 3405TIP3    H231707   2.768   2.036   5.977 -0.6087 -0.0965 -3.4526
 3406TIP3   OH231708   2.165   0.920  10.469 -0.2459  0.1649  0.4972
 3406TIP3    H131709   2.249   0.879  10.493  0.6843  0.4873 -1.9111
 3406TIP3    H231710   2.110   0.907  10.545  1.5321 -1.3780  1.6206
 3407TIP3   OH231711   3.770   6.480  10.529 -0.2755 -0.1718 -0.2562
 3407TIP3    H131712   3.756   6.572  10.552 -1.0652 -0.0944 -0.9673
 3407TIP3    H231713   3.831   6.483  10.455  0.7709 -0.3076  0.5885
 3408TIP3   OH231714   6.099   4.044  13.255  0.1806 -0.0907 -0.0108
 3408TIP3    H131715   6.184   4.004  13.273  0.7308  1.4952  1.1953
 3408TIP3    H231716   6.116   4.104  13.183  0.0629  0.1218  0.1369
 3409TIP3   OH231717   0.971   5.395   1.964  0.0714 -0.6898  0.3778
 3409TIP3    H131718   1.042   5.359   2.018  0.2490 -0.1405  0.5218
 3409TIP3    H231719   1.008   5.475   1.926 -0.5907 -0.1841  0.7669
 3410TIP3   OH231720   0.967   5.147  15.127 -0.1026 -0.5112  0.4947
 3410TIP3    H131721   0.979   5.064  15.173 -0.8786 -1.6714 -1.3037
 3410TIP3    H231722   1.039   5.202  15.158  0.3918 -1.8205  1.7690
 3411TIP3   OH231723   3.706   4.235  14.022 -0.2560  0.3129  0.0286
 3411TIP3    H131724   3.717   4.152  14.069 -1.8854  0.1365  0.1679
 3411TIP3    H231725   3.714   4.211  13.930  1.0102  0.3174  0.1287
 3412TIP3   OH231726   5.001   0.644   4.738  0.7543 -0.1421  0.2802
 3412TIP3    H131727   5.015   0.728   4.693  0.9134 -0.1921  0.2339
 3412TIP3    H231728   4.924   0.606   4.696  0.0926  0.4272  0.9529
 3413TIP3   OH231729   1.412   5.046  11.497 -0.0150 -0.3326 -0.1751
 3413TIP3    H131730   1.337   5.090  11.538 -0.1909 -1.1511  0.4072
 3413TIP3    H231731   1.487   5.101  11.518 -0.0560 -0.8531  1.4975
 3414TIP3   OH231732   5.687   5.027  11.551 -0.0287  0.1919 -0.0364
 3414TIP3    H131733   5.697   4.946  11.502  0.4334  1.1784 -1.6624
 3414TIP3    H231734   5.767   5.033  11.604  0.1128 -0.2182 -0.2009
 3415TIP3   OH231735   4.932   6.587  16.642 -0.0067 -0.0139 -0.0325
 3415TIP3    H131736   4.984   6.552  16.714 -1.6498 -0.7962  0.8245
 3415TIP3    H231737   4.894   6.667  16.677  1.4752  1.1954 -1.0460
 3416TIP3   OH231738   4.252   3.301  14.917 -0.4076  0.1016  0.3558
 3416TIP3    H131739   4.295   3.331  14.837  0.7053 -1.3412  0.3870
 3416TIP3    H231740   4.276   3.367  14.983 -1.1441  1.1718 -0.4003
 3417TIP3   OH231741   5.544   1.026  11.178  0.1617 -0.1934 -0.4717
 3417TIP3    H131742   5.599   1.092  11.136 -0.4949  1.2424  0.8309
 3417TIP3    H231743   5.549   1.047  11.271 -1.3156 -1.0099 -0.1846
 3418TIP3   OH231744   0.733   0.039   4.776  0.7064 -0.4704 -0.5804
 3418TIP3    H131745   0.807   0.031   4.835  2.2470 -0.8766 -2.4416
 3418TIP3    H231746   0.660   0.066   4.831  2.8694  2.9242  0.9183
 3419TIP3   OH231747   4.954   4.769  10.334  0.0781 -0.0658 -0.3138
 3419TIP3    H131748   4.879   4.723  10.297  2.5219 -1.5844 -3.8927
 3419TIP3    H231749   4.960   4.736  10.424 -3.0980 -0.2827 -0.0547
 3420TIP3   OH231750   2.095   2.223  13.539  0.0055 -0.0385 -0.0532
 3420TIP3    H131751   2.113   2.234  13.446  1.0843  0.6117  0.2170
 3420TIP3    H231752   2.002   2.200  13.543 -0.5682  1.9294 -1.1662
 3421TIP3   OH231753   5.467   5.221   1.758  0.6090  0.3610  0.1512
 3421TIP3    H131754   5.515   5.234   1.676  0.6926 -0.1714  0.1125
 3421TIP3    H231755   5.506   5.283   1.819 -0.1519  1.5075 -0.4888
 3422TIP3   OH231756   2.234   1.203  13.117  0.0944 -0.3260 -0.6598
 3422TIP3    H131757   2.230   1.136  13.186  0.0122 -0.0099 -0.3572
 3422TIP3    H231758   2.291   1.271  13.152  1.2852 -0.8471 -1.5071
 3423TIP3   OH231759   5.719   0.471   1.399  0.7380  0.3368  0.4949
 3423TIP3    H131760   5.751   0.515   1.320  2.5482 -0.1201  0.9264
 3423TIP3    H231761   5.745   0.528   1.471  0.2172  0.1395  0.8479
 3424TIP3   OH231762   6.699   6.389   3.092  0.1253 -0.2530  0.2135
 3424TIP3    H131763   6.658   6.352   3.170  0.3493 -0.1054  0.4028
 3424TIP3    H231764   6.769   6.444   3.126  1.8587 -2.0932 -0.1313
 3425TIP3   OH231765   5.104   2.519  11.758 -0.0220 -0.3008 -0.0997
 3425TIP3    H131766   5.165   2.466  11.808 -0.8273  0.8744  2.2819
 3425TIP3    H231767   5.020   2.474  11.766 -1.2331  2.1111  3.7998
 3426TIP3   OH231768   0.979   4.594   5.119  0.1615  0.2543  0.0274
 3426TIP3    H131769   0.957   4.604   5.211  1.1826  2.1859  0.1149
 3426TIP3    H231770   0.942   4.671   5.076 -2.2480 -1.6862 -1.6365
 3427TIP3   OH231771   4.336   4.872  12.414  0.0853 -0.1123 -0.4974
 3427TIP3    H131772   4.403   4.934  12.388 -0.9744  0.6385 -1.5704
 3427TIP3    H231773   4.379   4.814  12.476  1.3330  1.1813 -0.1040
 3428TIP3   OH231774   6.759   6.604   5.220  0.2578 -0.2401  0.4129
 3428TIP3    H131775   6.714   6.585   5.303  1.6273  1.0283  1.5033
 3428TIP3    H231776   6.842   6.644   5.247  0.4753  0.7642 -1.5982
 3429TIP3   OH231777   0.147   3.358  11.925 -0.0760 -0.2714  0.0661
 3429TIP3    H131778   0.077   3.334  11.864  1.6744 -0.4254 -2.0035
 3429TIP3    H231779   0.141   3.453  11.932  0.1301 -0.1677 -0.9515
 3430TIP3   OH231780   2.566   3.744   4.531  0.4521  0.0408 -0.0018
 3430TIP3    H131781   2.661   3.741   4.520  0.3968  1.9487 -1.5330
 3430TIP3    H231782   2.542   3.655   4.557  2.6898 -0.3580  0.9492
 3431TIP3   OH231783   4.254   3.720  10.738 -0.0576  0.8164 -0.3431
 3431TIP3    H131784   4.343   3.690  10.751  0.3456  2.1157  0.0731
 3431TIP3    H231785   4.216   3.659  10.676  0.6507 -0.6109  0.5875
 3432TIP3   OH231786   0.512   1.850  15.334  0.1374 -0.3510 -0.2839
 3432TIP3    H131787   0.465   1.784  15.281 -0.2786 -1.4270  1.3563
 3432TIP3    H231788   0.467   1.850  15.418  1.2613  0.7570  0.3503
 3433TIP3   OH231789   6.523   4.052  15.753 -0.2877 -0.0941  0.5390
 3433TIP3    H131790   6.468   4.091  15.821 -2.0963  0.2436 -1.0372
 3433TIP3    H231791   6.537   4.123  15.690 -0.7469 -1.0392 -0.6675
 3434TIP3   OH231792   0.295   3.962  16.664  0.2873  0.3118  0.2854
 3434TIP3    H131793   0.281   3.874  16.629  1.9040  1.0376 -2.5250
 3434TIP3    H231794   0.267   4.020  16.593  4.5514  1.9074 -0.3607
 3435TIP3   OH231795   5.427   3.510  14.450 -0.1207  0.2704 -0.1074
 3435TIP3    H131796   5.358   3.528  14.513 -0.2013  1.7087 -0.5778
 3435TIP3    H231797   5.461   3.596  14.425  3.5710 -0.3820  1.9246
 3436TIP3   OH231798   0.145   6.252  14.730 -0.0091  0.1457  0.2456
 3436TIP3    H131799   0.096   6.182  14.686 -0.1234 -0.2662  1.0096
 3436TIP3    H231800   0.153   6.222  14.821  1.3523  0.3565  0.2250
 3437TIP3   OH231801   3.674   2.458   2.831  0.5002  0.4151  0.1245
 3437TIP3    H131802   3.611   2.483   2.763  0.0728  0.1785  0.4300
 3437TIP3    H231803   3.724   2.387   2.792  1.0151  1.0278 -0.3594
 3438TIP3   OH231804   2.735   6.549  12.902  0.1503 -0.8372  0.5396
 3438TIP3    H131805   2.830   6.553  12.908  0.1545 -0.9516  0.5371
 3438TIP3    H231806   2.704   6.565  12.991  0.1259  1.0399  0.2335
 3439TIP3   OH231807   6.729   2.428   4.624  0.4436 -0.1096 -0.1017
 3439TIP3    H131808   6.655   2.483   4.596  0.5441  0.2282  0.2883
 3439TIP3    H231809   6.689   2.360   4.678 -0.0009 -1.8413 -2.4468
 3440TIP3   OH231810   4.353   5.890  13.629 -0.5041 -0.0311  0.4551
 3440TIP3    H131811   4.332   5.900  13.721  0.1953  0.3693  0.5736
 3440TIP3    H231812   4.392   5.974  13.603 -1.2492  0.0862 -0.3596
 3441TIP3   OH231813   0.755   3.698   0.496  0.1029  0.3017  0.0355
 3441TIP3    H131814   0.841   3.681   0.534  0.7839  0.4057 -1.3812
 3441TIP3    H231815   0.762   3.786   0.458 -0.2657 -0.0970 -0.9961
 3442TIP3   OH231816   5.855   0.988   3.752  0.6007  0.4778  0.1346
 3442TIP3    H131817   5.839   0.895   3.766 -0.1489  0.4274 -0.9192
 3442TIP3    H231818   5.879   1.022   3.838 -1.0751 -0.2930  0.9571
 3443TIP3   OH231819   1.036   1.626   5.477 -0.5041  0.3651 -0.2962
 3443TIP3    H131820   1.038   1.531   5.482 -1.5168  0.3599  0.3561
 3443TIP3    H231821   1.123   1.651   5.447 -0.4772 -0.7998 -1.2240
 3444TIP3   OH231822   5.973   0.355  14.315 -0.1171  0.3945  0.2286
 3444TIP3    H131823   5.902   0.296  14.341 -0.4917  1.0633  0.7407
 3444TIP3    H231824   6.048   0.297  14.300 -0.2210 -0.1256  1.6363
 3445TIP3   OH231825   5.973   1.911   1.643  0.0372 -0.7751 -0.2363
 3445TIP3    H131826   5.882   1.884   1.658  0.1454 -1.3344 -0.5662
 3445TIP3    H231827   5.985   1.986   1.701 -0.9425 -0.0687 -0.9111
 3446TIP3   OH231828   4.440   4.128   4.625  0.1644 -0.0161  0.0034
 3446TIP3    H131829   4.533   4.123   4.603 -0.1296  0.1253 -1.4175
 3446TIP3    H231830   4.396   4.098   4.545 -1.0029 -0.5615  0.8346
 3447TIP3   OH231831   0.040   5.527   0.705  0.1949 -0.2342  0.2649
 3447TIP3    H131832   0.007   5.450   0.752 -0.8397 -0.8529 -1.3693
 3447TIP3    H231833  -0.028   5.547   0.641  1.8604  0.0664 -1.5145
 3448TIP3   OH231834   1.423   3.721   5.366 -0.1387  0.1394  0.2396
 3448TIP3    H131835   1.344   3.729   5.419 -0.7208 -1.6890 -0.2904
 3448TIP3    H231836   1.398   3.753   5.279 -0.2451 -0.2671  0.1198
 3449TIP3   OH231837   3.860   1.442  11.053 -0.2692 -0.2642 -0.6469
 3449TIP3    H131838   3.831   1.517  11.001 -0.8785 -0.4943 -0.6390
 3449TIP3    H231839   3.877   1.373  10.989 -1.0614 -0.5614 -0.5405
 3450TIP3   OH231840   0.433   1.599   1.484  0.3597 -0.3747 -0.8208
 3450TIP3    H131841   0.410   1.681   1.440  1.5674  0.6901  0.4172
 3450TIP3    H231842   0.351   1.569   1.524 -0.2549 -0.1804 -1.9125
 3451TIP3   OH231843   4.157   1.328  15.605 -0.7613 -0.4366 -0.0715
 3451TIP3    H131844   4.141   1.420  15.627 -1.5989 -0.2681 -1.2974
 3451TIP3    H231845   4.213   1.296  15.676 -2.1071  0.4630  1.4531
 3452TIP3   OH231846   4.637   2.898  11.684  0.1315  0.2300  0.2889
 3452TIP3    H131847   4.659   2.962  11.616 -0.0652  0.7841  0.7424
 3452TIP3    H231848   4.564   2.938  11.732  0.6172  0.0881  1.1667
 3453TIP3   OH231849   3.124   4.033   1.668 -0.4893  0.3322  0.6513
 3453TIP3    H131850   3.170   3.960   1.626 -0.6360  0.2770  0.5845
 3453TIP3    H231851   3.040   3.996   1.696 -1.2802  0.8786 -0.8877
 3454TIP3   OH231852   4.775   5.929  16.227 -0.4397  0.4541  0.5642
 3454TIP3    H131853   4.789   5.931  16.321 -0.1076 -2.3982  0.6593
 3454TIP3    H231854   4.680   5.927  16.217 -0.4711 -0.4387  0.9337
 3455TIP3   OH231855   5.022   6.411   0.820 -0.0476  0.4475 -0.2782
 3455TIP3    H131856   5.016   6.316   0.834 -0.5913  0.0462 -2.7682
 3455TIP3    H231857   4.980   6.425   0.735  2.2477  2.5920 -1.1618
 3456TIP3   OH231858   1.445   1.440  17.007  0.5570 -0.3291 -0.4790
 3456TIP3    H131859   1.488   1.376  17.063  0.5800 -1.1346 -1.3934
 3456TIP3    H231860   1.437   1.396  16.922 -0.7973  0.3212 -0.7083
 3457TIP3   OH231861   4.778   2.567   2.240 -0.3276  0.1438  0.1607
 3457TIP3    H131862   4.689   2.570   2.275  0.1871  1.1702  1.4464
 3457TIP3    H231863   4.784   2.644   2.183  0.1643  0.9468  1.2457
 3458TIP3   OH231864   4.343   5.076  13.965 -0.4514  0.7506 -0.3926
 3458TIP3    H131865   4.248   5.085  13.969 -0.6652 -1.3374  0.7273
 3458TIP3    H231866   4.367   5.109  13.879 -2.5878 -1.3156 -1.9069
 3459TIP3   OH231867   1.029   2.195  12.465 -0.1671  0.3342  0.4067
 3459TIP3    H131868   1.113   2.211  12.421 -0.4310  0.1586 -0.1672
 3459TIP3    H231869   0.964   2.233  12.406 -0.5940 -0.6671  0.2101
 3460TIP3   OH231870   2.138   2.323  12.559  0.7100 -0.2614 -0.3080
 3460TIP3    H131871   2.103   2.245  12.516  2.3461 -1.3037  0.1515
 3460TIP3    H231872   2.230   2.325  12.533  1.7197 -0.7611  2.7736
 3461TIP3   OH231873   4.199   6.772  13.055 -0.4732 -0.0585  0.1467
 3461TIP3    H131874   4.110   6.752  13.027 -0.2778  0.2573 -0.7410
 3461TIP3    H231875   4.255   6.726  12.992 -0.0239  1.5989 -0.7145
 3462TIP3   OH231876   0.046   2.300   0.278  0.1386  0.1045 -0.6883
 3462TIP3    H131877   0.123   2.298   0.221  1.3373  0.9002  0.8192
 3462TIP3    H231878  -0.011   2.366   0.239 -0.1498 -1.0098 -2.2314
 3463TIP3   OH231879   0.374   4.412  13.367 -0.2215 -0.1208 -0.0140
 3463TIP3    H131880   0.320   4.339  13.397  1.4229 -1.3436  0.1171
 3463TIP3    H231881   0.341   4.432  13.280 -1.3103 -0.3845  0.3298
 3464TIP3   OH231882   3.622   3.033   4.470 -0.2976 -0.5064  0.1411
 3464TIP3    H131883   3.609   3.048   4.563  1.8650 -1.9633  0.7448
 3464TIP3    H231884   3.538   2.998   4.439 -1.3426  0.8555  1.2840
 3465TIP3   OH231885   5.767   0.208   4.891  0.0692  0.2530 -0.2936
 3465TIP3    H131886   5.807   0.255   4.817  0.6523 -0.4573 -0.4471
 3465TIP3    H231887   5.763   0.117   4.862  0.4630 -0.0642  0.6079
 3466TIP3   OH231888   1.286   4.345   0.338 -0.1451  0.1606  0.0510
 3466TIP3    H131889   1.308   4.413   0.274 -3.3222  1.3504  0.0258
 3466TIP3    H231890   1.233   4.282   0.289 -1.1816  0.1830  1.0907
 3467TIP3   OH231891   3.080   5.522  16.847 -0.2700 -0.3020 -0.1178
 3467TIP3    H131892   2.987   5.498  16.847 -0.7952  1.5886 -0.9261
 3467TIP3    H231893   3.104   5.522  16.939 -1.6981  1.3471  0.3101
 3468TIP3   OH231894   1.091   1.820  16.703 -0.1372  0.3822 -0.3588
 3468TIP3    H131895   1.144   1.867  16.639 -0.7845 -0.5962 -1.6563
 3468TIP3    H231896   1.101   1.727  16.681 -0.6914  0.0384  0.7118
 3469TIP3   OH231897   4.427   4.442  11.281 -0.6432 -0.0814  0.1792
 3469TIP3    H131898   4.518   4.416  11.266 -0.0384  2.1809 -0.5129
 3469TIP3    H231899   4.375   4.369  11.248  0.8988 -0.5205 -1.4065
 3470TIP3   OH231900   1.631   4.960  10.930  0.3696 -0.1902  0.7104
 3470TIP3    H131901   1.625   5.055  10.929  0.6686 -0.1724 -0.2713
 3470TIP3    H231902   1.578   4.931  10.856 -2.5621 -1.0150  2.9259
 3471TIP3   OH231903   5.007   2.004   6.298 -0.2119 -0.0756  0.2097
 3471TIP3    H131904   5.046   2.006   6.385  0.1070  2.5169  0.0951
 3471TIP3    H231905   4.967   1.917   6.291  1.9299 -1.3156  1.9213
 3472TIP3   OH231906   0.470   0.424  12.677  0.2072  0.1545 -0.1129
 3472TIP3    H131907   0.395   0.413  12.618  1.5244  2.1719 -2.3521
 3472TIP3    H231908   0.495   0.516  12.667  0.5830  0.6141  3.6466
 3473TIP3   OH231909   0.002   4.312  13.505  0.2656  0.9141  0.9033
 3473TIP3    H131910  -0.085   4.290  13.538 -1.3150 -2.1050 -4.1500
 3473TIP3    H231911  -0.013   4.380  13.440  2.1355  2.0405  1.5714
 3474TIP3   OH231912   4.346   0.120   3.853 -0.5189  0.1886  0.0866
 3474TIP3    H131913   4.361   0.026   3.864 -1.3017  0.1559  1.0881
 3474TIP3    H231914   4.347   0.155   3.943 -0.9646  1.0106 -0.2176
 3475TIP3   OH231915   1.379   6.296   2.268 -0.3536 -0.2843  0.4276
 3475TIP3    H131916   1.344   6.313   2.181 -0.7170 -0.1910  0.5904
 3475TIP3    H231917   1.303   6.296   2.326 -0.1376 -0.5191  0.7214
 3476TIP3   OH231918   5.115   2.387  14.864 -0.2540 -0.2512 -0.4607
 3476TIP3    H131919   5.135   2.331  14.939 -4.0367  1.8877  2.5045
 3476TIP3    H231920   5.131   2.476  14.894 -0.7607  0.6556 -2.6467
 3477TIP3   OH231921   6.530   0.732   1.097 -0.0719 -0.2501 -0.5146
 3477TIP3    H131922   6.625   0.744   1.096 -0.0831 -0.0511  0.4193
 3477TIP3    H231923   6.517   0.652   1.149 -0.4036 -0.4781 -0.9371
 3478TIP3   OH231924   0.225   3.587   2.402 -0.1737  0.3748  0.2296
 3478TIP3    H131925   0.265   3.505   2.373 -1.5727 -0.1975 -0.1790
 3478TIP3    H231926   0.271   3.655   2.353 -0.2121 -0.3126 -0.7758
 3479TIP3   OH231927   0.110   2.500   3.682 -0.3474  0.3243  0.1353
 3479TIP3    H131928   0.107   2.523   3.775 -0.4686 -0.7516  0.4130
 3479TIP3    H231929   0.140   2.409   3.681 -1.7637 -0.1560 -0.7967
 3480TIP3   OH231930   4.143   0.622  16.746 -0.1892  0.6178  0.6909
 3480TIP3    H131931   4.235   0.640  16.727 -0.0730  0.0346  0.6745
 3480TIP3    H231932   4.110   0.583  16.666 -0.0104 -0.7281  1.2481
 3481TIP3   OH231933   2.441   2.941  12.611 -0.4311  0.1515  0.2458
 3481TIP3    H131934   2.473   3.025  12.644  0.5486  0.4143 -1.2897
 3481TIP3    H231935   2.506   2.878  12.642 -1.8174 -0.2992  2.4775
 3482TIP3   OH231936   4.444   5.011   6.329  0.4952 -0.2861 -0.2997
 3482TIP3    H131937   4.439   4.918   6.307 -2.2139 -0.4885  0.7808
 3482TIP3    H231938   4.374   5.052   6.278 -1.3603  0.3359  2.5197
 3483TIP3   OH231939   2.474   4.217  13.015  0.1324 -0.0951  0.1560
 3483TIP3    H131940   2.483   4.125  12.992  1.3778  0.0132  0.1542
 3483TIP3    H231941   2.539   4.263  12.962 -2.6741  1.3081 -2.4477
 3484TIP3   OH231942   3.302   1.241  12.400  0.1481 -0.1280  0.3877
 3484TIP3    H131943   3.310   1.154  12.438 -0.0671 -1.1377 -1.7474
 3484TIP3    H231944   3.392   1.273  12.394  0.3153 -0.6175  0.2669
 3485TIP3   OH231945   2.680   3.558   4.041 -0.2846 -0.2563  0.1742
 3485TIP3    H131946   2.645   3.518   4.120 -1.1026  0.3222  0.1058
 3485TIP3    H231947   2.689   3.650   4.062  0.2218 -0.2236 -0.1573
 3486TIP3   OH231948   0.863   0.466   5.591 -0.7224  0.4557 -0.4811
 3486TIP3    H131949   0.817   0.449   5.508 -2.2165  0.0464  0.3851
 3486TIP3    H231950   0.880   0.379   5.627  1.7761  0.5345 -1.2531
 3487TIP3   OH231951   1.793   2.389   5.748 -0.2105 -0.3601 -0.3093
 3487TIP3    H131952   1.797   2.483   5.767  2.5099 -0.3824 -0.3613
 3487TIP3    H231953   1.874   2.371   5.701 -1.8538 -2.3002 -2.6739
 3488TIP3   OH231954   0.604   1.073   4.320  0.4844  0.3914  0.3469
 3488TIP3    H131955   0.528   1.066   4.262  1.6712 -0.7961 -1.1709
 3488TIP3    H231956   0.572   1.120   4.397 -1.9149 -0.5519  0.0178
 3489TIP3   OH231957   6.080   5.790  15.553  0.3101  0.0832  0.2451
 3489TIP3    H131958   6.047   5.716  15.604  0.5766 -1.3003 -1.4948
 3489TIP3    H231959   6.020   5.796  15.478  0.8313  1.0542 -0.1140
 3490TIP3   OH231960   2.231   2.915   3.859 -0.0560  0.1313  0.2936
 3490TIP3    H131961   2.289   2.848   3.823  0.1550 -0.3750  1.5217
 3490TIP3    H231962   2.181   2.946   3.784  1.9032  0.6992 -0.8518
 3491TIP3   OH231963   1.383   0.886  13.678 -0.1067 -0.5122 -0.3087
 3491TIP3    H131964   1.315   0.882  13.746  1.6340 -1.3408  1.4721
 3491TIP3    H231965   1.361   0.964  13.627 -1.9988 -0.3704  0.6319
 3492TIP3   OH231966   1.849   2.104   5.579  0.3550 -0.2578 -0.9767
 3492TIP3    H131967   1.891   2.026   5.615 -1.0908 -0.3242  0.7029
 3492TIP3    H231968   1.760   2.076   5.557  0.4653  0.4021 -2.4270
 3493TIP3   OH231969   2.971   3.549  16.002  0.2236  0.5187  0.5244
 3493TIP3    H131970   2.949   3.512  16.088  0.0949  0.9691  0.6934
 3493TIP3    H231971   3.030   3.485  15.962  0.4736  0.4144  1.0509
 3494TIP3   OH231972   6.127   5.409  12.181 -0.3713  0.4463 -0.4503
 3494TIP3    H131973   6.060   5.446  12.124 -1.0054 -0.1609 -0.1209
 3494TIP3    H231974   6.150   5.480  12.241  0.3379  1.1023 -1.4726
 3495TIP3   OH231975   0.080   3.736   3.635  0.4611  0.0811  0.2111
 3495TIP3    H131976   0.058   3.793   3.709 -1.7067 -0.0233 -0.2829
 3495TIP3    H231977   0.006   3.744   3.575  0.6785 -2.2349 -0.4887
 3496TIP3   OH231978   6.382   6.217   3.533  0.1735  0.2497 -0.1945
 3496TIP3    H131979   6.371   6.126   3.560 -0.6344 -0.0916 -1.5659
 3496TIP3    H231980   6.459   6.248   3.581  2.9781 -2.3376 -2.5907
 3497TIP3   OH231981   1.598   6.614  11.848 -0.3535  0.6186 -0.1306
 3497TIP3    H131982   1.536   6.668  11.897 -0.3612 -0.9564  1.7277
 3497TIP3    H231983   1.640   6.560  11.915  2.2328  0.8319 -1.4742
 3498TIP3   OH231984   3.616   5.726  12.489 -0.7047 -0.0755  0.4615
 3498TIP3    H131985   3.633   5.698  12.399 -2.1712  0.1244  0.1097
 3498TIP3    H231986   3.648   5.654  12.543  0.4242 -0.0908 -0.1829
 3499TIP3   OH231987   5.214   0.447   4.136 -0.1590 -0.3529 -0.0645
 3499TIP3    H131988   5.245   0.499   4.210  0.8605  0.1985 -0.8422
 3499TIP3    H231989   5.139   0.399   4.169  0.2104 -0.0251  1.2884
 3500TIP3   OH231990   2.745   6.147  10.397  0.3025  0.3593  0.3819
 3500TIP3    H131991   2.771   6.169  10.486 -0.2672  1.3270  0.3185
 3500TIP3    H231992   2.743   6.231  10.351  2.2007 -0.2868 -0.9913
 3501TIP3   OH231993   3.853   4.974   3.286 -0.6820 -0.2845  0.1055
 3501TIP3    H131994   3.819   5.059   3.255 -1.3624 -0.5734  0.0430
 3501TIP3    H231995   3.779   4.933   3.330 -0.3517 -0.8489  0.1481
 3502TIP3   OH231996   0.244   1.419  15.497  0.5380 -0.3241  0.1900
 3502TIP3    H131997   0.181   1.482  15.531  1.3288  0.3077  0.5263
 3502TIP3    H231998   0.328   1.445  15.537  1.1180 -0.8001 -0.6804
 3503TIP3   OH231999   5.354   6.376  12.578  0.3137 -0.2275 -0.9628
 3503TIP3    H132000   5.302   6.319  12.523 -0.3859 -0.2204 -0.3258
 3503TIP3    H232001   5.409   6.316  12.629 -0.7678 -0.3924  0.0592
 3504TIP3   OH232002   2.322   0.075  11.875 -0.3023 -0.2706  0.0072
 3504TIP3    H132003   2.367   0.116  11.949  1.2312 -0.4919 -0.7683
 3504TIP3    H232004   2.276   0.000  11.914  0.8741 -0.6660  0.6825
 3505TIP3   OH232005   0.421   5.398   4.234 -0.3106  0.1640 -0.1484
 3505TIP3    H132006   0.470   5.323   4.199 -1.4453 -1.7275  2.0435
 3505TIP3    H232007   0.482   5.442   4.292 -0.6220 -1.1576  1.2311
 3506TIP3   OH232008   6.159   6.079   0.457  0.2276  0.0355 -0.3854
 3506TIP3    H132009   6.072   6.111   0.480 -0.4824 -1.8871 -0.2681
 3506TIP3    H232010   6.153   5.984   0.463  2.1852 -0.1772 -0.9418
 3507TIP3   OH232011   4.749   3.559  16.756 -0.2197  0.2865  0.2732
 3507TIP3    H132012   4.743   3.522  16.668 -1.3231  0.4179  0.2766
 3507TIP3    H232013   4.786   3.646  16.743  0.5468 -0.0681  0.0514
 3508TIP3   OH232014   1.091   1.315   2.761 -0.4709  0.2855  0.2398
 3508TIP3    H132015   1.155   1.318   2.832 -1.3099  0.4442  1.0142
 3508TIP3    H232016   1.052   1.228   2.768  1.1423 -0.6707 -1.6165
 3509TIP3   OH232017   3.798   3.799   3.559 -0.0660 -0.3337 -0.2584
 3509TIP3    H132018   3.810   3.720   3.505 -0.2951  0.2401 -1.1667
 3509TIP3    H232019   3.857   3.864   3.520  0.7225 -0.2879  0.9863
 3510TIP3   OH232020   2.351   1.005  11.683  0.1843 -0.2272  0.2017
 3510TIP3    H132021   2.362   1.096  11.654  1.0183  0.0447  1.3000
 3510TIP3    H232022   2.426   0.959  11.646 -0.5014 -0.5871 -0.7630
 3511TIP3   OH232023   5.541   4.118  14.593 -0.0909  0.5476  0.0315
 3511TIP3    H132024   5.456   4.161  14.602  0.4667  1.4954  1.0195
 3511TIP3    H232025   5.554   4.109  14.499 -0.7483  1.4861 -0.1640
 3512TIP3   OH232026   0.174   3.711  16.964  0.1387  0.0977  0.1896
 3512TIP3    H132027   0.257   3.703  17.011  1.3824 -1.1176 -2.0571
 3512TIP3    H232028   0.166   3.804  16.946  2.2891  0.0358 -1.5660
 3513TIP3   OH232029   5.277   5.773   0.187  0.9143 -0.7878  0.3381
 3513TIP3    H132030   5.305   5.836   0.254 -0.3610  1.4228 -1.0690
 3513TIP3    H232031   5.292   5.687   0.226 -1.7123  0.3281  4.3685
 3514TIP3   OH232032   2.568   3.920  13.522 -0.5965 -0.0156  0.5101
 3514TIP3    H132033   2.657   3.900  13.552 -1.5085 -3.4331  1.3962
 3514TIP3    H232034   2.578   3.937  13.428  0.9140 -1.6402  0.3079
 3515TIP3   OH232035   2.965   3.953  12.313  0.0338 -0.4070  0.1233
 3515TIP3    H132036   2.893   3.973  12.373 -0.9901  1.1800 -1.5128
 3515TIP3    H232037   3.005   4.038  12.295  0.0231 -0.7565 -1.7430
 3516TIP3   OH232038   1.536   6.625   2.538 -0.1188 -0.4695  0.8162
 3516TIP3    H132039   1.442   6.631   2.522 -0.3215 -2.1647  1.1894
 3516TIP3    H232040   1.567   6.716   2.535 -2.0035  0.2868  2.1796
 3517TIP3   OH232041   1.013   6.608  15.207 -0.3277  0.3534  0.0238
 3517TIP3    H132042   0.922   6.600  15.178 -0.1059  0.9696 -0.8830
 3517TIP3    H232043   1.011   6.584  15.300 -0.9365 -2.5419 -0.6234
 3518TIP3   OH232044   1.839   1.721   3.117  0.0568  0.2657 -0.1770
 3518TIP3    H132045   1.775   1.658   3.149 -0.2401  0.5019 -0.2974
 3518TIP3    H232046   1.825   1.799   3.171 -0.0525  0.4649 -0.4892
 3519TIP3   OH232047   3.457   1.780   0.539  0.2981 -0.9722  0.5725
 3519TIP3    H132048   3.442   1.771   0.633 -0.1677 -0.2748  0.5685
 3519TIP3    H232049   3.414   1.862   0.515  0.3336 -1.1884 -0.2671
 3520TIP3   OH232050   3.917   4.386  15.238  0.0496 -0.0554  0.1233
 3520TIP3    H132051   3.932   4.480  15.226 -2.2275  0.2689 -0.8244
 3520TIP3    H232052   4.003   4.346  15.231  0.9163  1.8375 -0.7385
 3521TIP3   OH232053   5.019   2.444   5.825  0.0381  0.1030 -0.0407
 3521TIP3    H132054   4.978   2.364   5.793 -0.2865  0.2047  0.1267
 3521TIP3    H232055   4.947   2.505   5.841  0.3305  0.6925 -0.8774
 3522TIP3   OH232056   4.964   0.352   1.297 -0.3206  0.0979  0.6026
 3522TIP3    H132057   5.051   0.334   1.261  0.1418  0.0361  1.7323
 3522TIP3    H232058   4.927   0.265   1.313 -1.3063  0.0660 -1.4636
 3523TIP3   OH232059   2.421   1.720  10.401  0.1774 -0.2194 -0.0495
 3523TIP3    H132060   2.403   1.647  10.460  1.0403  0.1942  0.7535
 3523TIP3    H232061   2.443   1.679  10.318 -0.3612 -0.8362  0.1048
 3524TIP3   OH232062   3.696   4.314   2.615 -0.0153  0.2290  0.1783
 3524TIP3    H132063   3.755   4.313   2.539 -0.6096  1.0544 -0.3211
 3524TIP3    H232064   3.701   4.404   2.648 -1.8059  0.6438 -0.5651
 3525TIP3   OH232065   2.155   6.082   0.717 -0.1031  0.0521 -0.2597
 3525TIP3    H132066   2.132   6.173   0.702  0.7395  0.0066 -2.1514
 3525TIP3    H232067   2.240   6.071   0.673 -1.4327 -2.2832 -2.5117
 3526TIP3   OH232068   1.689   2.911  11.719 -0.1536  0.0050 -0.3605
 3526TIP3    H132069   1.624   2.931  11.786 -0.3848 -2.7604  0.3763
 3526TIP3    H232070   1.758   2.975  11.732 -0.7209  0.2593  1.8064
 3527TIP3   OH232071   5.397   4.615  16.669  0.1213 -0.1222  0.0004
 3527TIP3    H132072   5.477   4.589  16.622  0.2897  0.0379  0.1975
 3527TIP3    H232073   5.384   4.547  16.734 -0.9747 -1.1811 -1.2669
 3528TIP3   OH232074   3.375   5.560   2.435 -0.2387 -0.4764  0.2476
 3528TIP3    H132075   3.394   5.644   2.477  0.2679  0.8076 -2.3575
 3528TIP3    H232076   3.453   5.507   2.452 -0.0249  0.0221  0.8670
 3529TIP3   OH232077   2.785   2.715  13.235 -0.2051 -0.3732 -0.1507
 3529TIP3    H132078   2.703   2.671  13.211 -0.6661  0.5325 -0.2747
 3529TIP3    H232079   2.811   2.673  13.317 -2.4085  1.3300  1.5261
 3530TIP3   OH232080   4.167   3.287  17.185 -0.3595  0.0933  0.3547
 3530TIP3    H132081   4.151   3.276  17.091  0.0613 -2.3043  0.5142
 3530TIP3    H232082   4.251   3.332  17.190  0.1723 -0.7769 -0.4448
 3531TIP3   OH232083   3.502   1.855   6.402  0.6511 -0.0704  0.2844
 3531TIP3    H132084   3.594   1.881   6.402  1.0139 -1.1456 -2.1231
 3531TIP3    H232085   3.461   1.913   6.338  0.2105 -1.2682 -0.5477
 3532TIP3   OH232086   2.156   2.510   3.528 -0.3508 -0.3307 -0.0657
 3532TIP3    H132087   2.185   2.423   3.557  1.1770  0.4826  1.0125
 3532TIP3    H232088   2.203   2.525   3.446  0.8934  0.2117  0.7148
 3533TIP3   OH232089   1.504   1.674  12.327 -0.5107  0.6133 -0.3413
 3533TIP3    H132090   1.523   1.614  12.255 -0.4402 -0.0332  0.2171
 3533TIP3    H232091   1.469   1.752  12.283 -1.6321 -0.2259 -0.9871
 3534TIP3   OH232092   6.208   3.420  12.911 -0.4453 -0.1002 -0.1695
 3534TIP3    H132093   6.271   3.366  12.861  0.0682  0.3140  0.0185
 3534TIP3    H232094   6.143   3.358  12.942  0.7707 -0.8164  1.0312
 3535TIP3   OH232095   1.985   4.369   5.559 -0.5971  0.1033  0.0404
 3535TIP3    H132096   1.985   4.332   5.471  0.5434  0.0166  0.0580
 3535TIP3    H232097   1.916   4.321   5.606  0.1044 -1.2339 -0.2542
 3536TIP3   OH232098   2.788   1.720  12.071 -0.8899  0.7353  0.3687
 3536TIP3    H132099   2.880   1.700  12.054 -1.1385  0.6029 -0.9128
 3536TIP3    H232100   2.766   1.789  12.009 -1.1532  2.1950  1.9915
 3537TIP3   OH232101   2.249   3.865   3.311 -0.0537  0.2532  0.0840
 3537TIP3    H132102   2.197   3.944   3.321 -1.3307 -0.6003  0.5250
 3537TIP3    H232103   2.304   3.881   3.235  0.0324  1.7150  0.4227
 3538TIP3   OH232104   4.090   2.766   2.464  0.2766 -0.6052  0.2320
 3538TIP3    H132105   4.084   2.850   2.419 -1.5198 -0.7987  0.0389
 3538TIP3    H232106   4.146   2.784   2.539 -1.9801  1.4607  1.5921
 3539TIP3   OH232107   2.931   5.316  17.101  0.5081  0.2610 -0.2390
 3539TIP3    H132108   2.922   5.289  17.192 -2.1457 -0.2781 -0.5695
 3539TIP3    H232109   3.009   5.372  17.099  1.8882 -1.4179  1.9054
 3540TIP3   OH232110   2.647   6.095   0.463  0.6093 -0.3766 -0.3282
 3540TIP3    H132111   2.715   6.057   0.407  0.4297 -0.1502 -0.7046
 3540TIP3    H232112   2.690   6.169   0.505  0.3865  0.2502 -1.1693
 3541TIP3   OH232113   3.904   2.061   0.015 -1.0676 -0.0238 -0.2327
 3541TIP3    H132114   3.986   2.094  -0.021 -2.2947  0.8935 -2.3163
 3541TIP3    H232115   3.889   1.978  -0.031 -1.8178  0.3266 -0.6303
 3542TIP3   OH232116   0.575   2.143  11.653  0.1931  0.4811  0.3261
 3542TIP3    H132117   0.620   2.077  11.601  2.4225  0.3165  2.2620
 3542TIP3    H232118   0.514   2.185  11.592  0.5760 -1.5886 -1.6034
 3543TIP3   OH232119   0.599   6.276   1.249  0.1688  0.6976  0.3070
 3543TIP3    H132120   0.691   6.284   1.277  0.3392  0.6466 -0.2283
 3543TIP3    H232121   0.562   6.209   1.306  0.5153  0.5885  0.4044
 3544TIP3   OH232122   1.894   0.532  16.096 -0.0061 -0.0137  0.0333
 3544TIP3    H132123   1.955   0.474  16.141  0.2390 -0.7492 -1.2196
 3544TIP3    H232124   1.903   0.616  16.141  1.7941 -0.1517 -0.0076
 3545TIP3   OH232125   2.826   0.925  16.868 -0.4102 -0.4377 -0.4528
 3545TIP3    H132126   2.883   0.936  16.792  0.5000 -3.6022 -0.3783
 3545TIP3    H232127   2.740   0.908  16.831  0.1178 -2.4274 -0.8689
 3546TIP3   OH232128   4.411   3.778   1.000  0.2709  0.3062  0.2018
 3546TIP3    H132129   4.436   3.706   1.058  0.3085  0.2771  0.1496
 3546TIP3    H232130   4.478   3.777   0.932  2.7041  2.9341  2.2999
 3547TIP3   OH232131   5.461   3.211  13.022  0.1635  0.0917  0.4992
 3547TIP3    H132132   5.512   3.187  13.099 -0.6057  0.6661  1.2135
 3547TIP3    H232133   5.412   3.132  13.000  1.6333 -0.5844 -0.4365
 3548TIP3   OH232134   6.757   5.086   3.999 -0.4394  0.1172 -0.1847
 3548TIP3    H132135   6.729   5.029   3.927 -0.9555  0.6170 -0.3958
 3548TIP3    H232136   6.852   5.078   4.000 -0.5539 -1.3868  0.3461
 3549TIP3   OH232137   6.725   2.169   3.426 -0.2973  0.3471 -0.2003
 3549TIP3    H132138   6.721   2.076   3.404 -0.6683  0.5332 -0.9441
 3549TIP3    H232139   6.682   2.176   3.511  0.1935 -0.2335  0.0976
 3550TIP3   OH232140   0.473   6.291  13.428 -0.1129  0.7993 -0.4436
 3550TIP3    H132141   0.509   6.303  13.516  2.0753 -1.0491 -0.9944
 3550TIP3    H232142   0.400   6.353  13.424 -1.6619 -0.4391  3.3755
 3551TIP3   OH232143   4.199   2.295  12.781  0.3334 -0.0715  0.1211
 3551TIP3    H132144   4.238   2.382  12.787  1.1409 -0.4145  0.0232
 3551TIP3    H232145   4.274   2.236  12.768  0.3334 -1.2499  4.1321
 3552TIP3   OH232146   6.065   1.977  16.570 -0.2190  0.4396  0.2851
 3552TIP3    H132147   6.061   1.971  16.475 -0.8003  0.5301  0.3005
 3552TIP3    H232148   5.977   1.953  16.600  0.5382 -1.8103  0.9314
 3553TIP3   OH232149   4.117   2.612   1.132  0.4171  0.0708 -0.0738
 3553TIP3    H132150   4.037   2.615   1.080  0.4765  0.2666 -0.1539
 3553TIP3    H232151   4.186   2.586   1.070  0.4621  0.1603 -0.0613
 3554TIP3   OH232152   3.088   3.285  15.175 -0.1414  0.4557  0.4056
 3554TIP3    H132153   3.061   3.317  15.089  0.5483  2.1495  0.7899
 3554TIP3    H232154   3.096   3.190  15.163 -0.7481  0.5680 -1.1903
 3555TIP3   OH232155   1.738   6.307   6.347  0.2897  0.1576  0.2151
 3555TIP3    H132156   1.715   6.225   6.391 -0.8187  0.1576 -0.3268
 3555TIP3    H232157   1.738   6.285   6.254 -0.4750  0.8661  0.0374
 3556TIP3   OH232158   0.834   2.059  14.415 -0.0088 -0.4605  0.4173
 3556TIP3    H132159   0.791   2.091  14.335  0.5480 -0.0963  0.2517
 3556TIP3    H232160   0.892   2.131  14.441  0.1706 -0.7663  0.8808
 3557TIP3   OH232161   4.891   4.798  11.904  0.0595 -0.1207  0.4178
 3557TIP3    H132162   4.842   4.728  11.861  0.5330  1.3474 -2.7454
 3557TIP3    H232163   4.861   4.794  11.996 -4.0701 -0.9424 -0.7375
 3558TIP3   OH232164   4.251   3.568   4.830  0.1485  0.0893 -0.2692
 3558TIP3    H132165   4.218   3.514   4.902 -0.5447  0.9497  0.0790
 3558TIP3    H232166   4.176   3.577   4.771  0.8220 -0.9261 -1.3063
 3559TIP3   OH232167   0.698   1.533   2.026  0.0744  0.0020 -0.3341
 3559TIP3    H132168   0.662   1.617   1.998  1.3178  0.5127 -0.4864
 3559TIP3    H232169   0.627   1.490   2.073 -1.2501  0.2502 -2.0068
 3560TIP3   OH232170   1.527   4.700  16.821  0.1098 -0.3223  0.6252
 3560TIP3    H132171   1.475   4.709  16.741  1.6080 -0.0062 -0.3534
 3560TIP3    H232172   1.525   4.606  16.840 -1.1074 -0.2775  0.8429
 3561TIP3   OH232173   2.622   2.742  12.437 -0.0168 -0.2409  0.0843
 3561TIP3    H132174   2.646   2.798  12.511  1.9217  0.4585 -1.0015
 3561TIP3    H232175   2.552   2.686  12.471 -0.3249  1.1742  1.9326
 3562TIP3   OH232176   6.434   1.268  16.258  0.5719  0.5369  0.4589
 3562TIP3    H132177   6.390   1.187  16.284  0.7025  0.1927 -0.3517
 3562TIP3    H232178   6.389   1.337  16.307 -1.8306  0.3718 -1.3339
 3563TIP3   OH232179   4.824   3.917   1.040  0.0507  0.2063 -1.0102
 3563TIP3    H132180   4.782   3.970   1.108  0.4322  0.3852 -0.9145
 3563TIP3    H232181   4.898   3.875   1.083 -1.3576 -1.9990 -0.5567
 3564TIP3   OH232182   4.484   4.391  12.700  0.4573 -0.1506  0.6092
 3564TIP3    H132183   4.445   4.479  12.695  0.3771 -0.2217 -0.4388
 3564TIP3    H232184   4.511   4.373  12.610  2.3403 -0.3784  1.1799
 3565TIP3   OH232185   6.313   0.742  14.727  0.3066 -0.2902 -0.1284
 3565TIP3    H132186   6.227   0.701  14.738  0.6332 -1.3361 -1.2245
 3565TIP3    H232187   6.353   0.738  14.814 -0.5435 -0.2835  0.2707
 3566TIP3   OH232188   2.753   1.157   1.936 -0.6714  0.4258 -0.0746
 3566TIP3    H132189   2.841   1.144   1.901 -0.4447  0.7561  0.3516
 3566TIP3    H232190   2.733   1.249   1.919 -1.4458  0.0616 -1.2777
 3567TIP3   OH232191   4.901   5.408   1.435 -0.0467  0.3956 -0.7655
 3567TIP3    H132192   4.870   5.367   1.516  0.8468 -0.1228 -0.6701
 3567TIP3    H232193   4.934   5.493   1.462  0.8958 -0.0562 -0.4574
 3568TIP3   OH232194   3.283   0.380  11.937  0.0286  0.3344  0.5627
 3568TIP3    H132195   3.208   0.324  11.920  0.9343 -1.3428  1.7118
 3568TIP3    H232196   3.284   0.442  11.865 -0.9774 -1.2183 -0.8700
 3569TIP3   OH232197   0.999   4.583  15.015  0.0283  0.1655 -0.7330
 3569TIP3    H132198   0.962   4.521  14.952  0.0043 -0.7901  0.1869
 3569TIP3    H232199   1.093   4.577  15.002 -0.0017  0.3763 -1.0481
 3570TIP3   OH232200   2.738   4.369  11.218 -0.8000  0.6257 -0.1625
 3570TIP3    H132201   2.720   4.457  11.184 -1.3018  0.0735 -1.3854
 3570TIP3    H232202   2.695   4.310  11.157  0.9819 -0.5601 -0.3639
 3571TIP3   OH232203   0.270   1.982  13.555  0.1682 -0.0920  0.0649
 3571TIP3    H132204   0.295   2.040  13.482 -0.0051 -1.0086 -0.7387
 3571TIP3    H232205   0.175   1.993  13.562  0.1446 -0.2297 -0.0421
 3572TIP3   OH232206   1.363   2.992   5.159 -0.2524 -0.1737  0.0314
 3572TIP3    H132207   1.421   2.937   5.107  0.0923 -0.2667  0.5038
 3572TIP3    H232208   1.414   3.014   5.237 -0.0168  1.6594 -0.5966
 3573TIP3   OH232209   0.413   1.275  15.142  0.2714 -0.4213 -1.0406
 3573TIP3    H132210   0.394   1.306  15.053  0.7479 -0.3701 -1.1267
 3573TIP3    H232211   0.327   1.274  15.186  0.4804  3.7082 -0.1472
 3574TIP3   OH232212   3.929   6.571  14.500 -1.2339 -0.1783  0.4316
 3574TIP3    H132213   3.964   6.640  14.556 -2.3511  0.2617  0.6043
 3574TIP3    H232214   3.845   6.604  14.469 -1.2836 -0.9989 -0.3837
 3575TIP3   OH232215   5.271   0.431  12.817  0.1092 -0.4464 -0.1242
 3575TIP3    H132216   5.332   0.503  12.829 -1.1304  0.6087  0.0044
 3575TIP3    H232217   5.228   0.449  12.734  1.7326 -2.5590 -1.5461
 3576TIP3   OH232218   1.014   5.890   6.118  0.3502  0.4149 -0.5215
 3576TIP3    H132219   0.967   5.862   6.039 -1.5592  1.3834  0.1971
 3576TIP3    H232220   1.053   5.973   6.094 -0.8943  1.1027 -0.2585
 3577TIP3   OH232221   4.505   4.720  16.483  0.1126  0.2613  0.1224
 3577TIP3    H132222   4.489   4.670  16.564  0.3497 -1.2527 -0.7299
 3577TIP3    H232223   4.431   4.698  16.427  1.8412 -1.8364 -1.5089
 3578TIP3   OH232224   1.811   5.843  13.587  0.1340  0.2123 -0.2169
 3578TIP3    H132225   1.771   5.873  13.669 -1.7065  1.2575 -1.4284
 3578TIP3    H232226   1.798   5.748  13.588 -0.6474  0.3139  0.3203
 3579TIP3   OH232227   3.354   6.264   3.682  0.7787  0.3603  0.4837
 3579TIP3    H132228   3.399   6.327   3.626 -0.4696  0.3470 -0.5657
 3579TIP3    H232229   3.271   6.248   3.639  0.5527 -1.0734  1.3803
 3580TIP3   OH232230   6.800   3.899   0.879 -0.2769  0.2324  0.3076
 3580TIP3    H132231   6.751   3.819   0.902 -0.8599  0.5743  0.2632
 3580TIP3    H232232   6.763   3.927   0.796  1.1562 -0.4387 -0.5860
 3581TIP3   OH232233   0.472   2.509   4.264 -0.1254  0.0085  0.4590
 3581TIP3    H132234   0.450   2.429   4.312 -0.9303  0.2165  0.4443
 3581TIP3    H232235   0.539   2.481   4.202 -0.6055 -0.7290  0.2551
 3582TIP3   OH232236   4.190   5.626  12.300 -0.0401 -0.1507  0.0284
 3582TIP3    H132237   4.114   5.569  12.309 -0.8392  0.9080  0.1736
 3582TIP3    H232238   4.187   5.681  12.378 -0.4285  1.4185 -1.0565
 3583TIP3   OH232239   2.712   0.133  15.779  0.8078  0.2570 -0.4995
 3583TIP3    H132240   2.676   0.188  15.849 -0.5378  2.3741 -2.6779
 3583TIP3    H232241   2.802   0.162  15.770  1.0748 -0.2193  0.4919
 3584TIP3   OH232242   3.610   1.672   6.595 -0.3033  0.1923  0.1431
 3584TIP3    H132243   3.591   1.730   6.521 -0.7486 -0.3458 -0.1771
 3584TIP3    H232244   3.627   1.587   6.554 -0.5929 -0.1162  0.6593
 3585TIP3   OH232245   6.619   2.254  11.572  0.1613  0.4613 -0.4477
 3585TIP3    H132246   6.683   2.322  11.592 -1.0992  1.8482 -0.9139
 3585TIP3    H232247   6.651   2.213  11.492 -0.7217  2.8292 -2.1214
 3586TIP3   OH232248   2.334   5.057   5.413 -0.0566 -0.3887 -0.1547
 3586TIP3    H132249   2.389   4.998   5.361  0.1735 -1.5846  1.3691
 3586TIP3    H232250   2.267   5.087   5.352  1.7477  0.3997 -1.8243
 3587TIP3   OH232251   5.876   6.775   5.067  0.0795 -0.1162 -0.3497
 3587TIP3    H132252   5.945   6.787   5.132  0.6199 -1.0266 -0.7347
 3587TIP3    H232253   5.841   6.687   5.084 -1.1779  0.4284  0.0041
 3588TIP3   OH232254   4.391   5.719   5.148  0.3766  0.0057  0.4615
 3588TIP3    H132255   4.402   5.673   5.064  1.9215 -0.3981  0.8493
 3588TIP3    H232256   4.324   5.785   5.130 -1.6266 -2.0650 -0.2537
 3589TIP3   OH232257   5.543   2.752   2.506  0.2959 -0.3788 -0.0781
 3589TIP3    H132258   5.564   2.842   2.483  1.0168 -0.5022  0.0910
 3589TIP3    H232259   5.620   2.702   2.480 -0.7328 -1.2030 -1.6789
 3590TIP3   OH232260   2.253   3.754  14.352  0.6243 -0.1120  0.5474
 3590TIP3    H132261   2.278   3.687  14.415 -0.2405 -0.5978  0.3885
 3590TIP3    H232262   2.176   3.795  14.390  0.7527  0.3412  0.3249
 3591TIP3   OH232263   1.478   5.802  16.295  0.1284  0.5090 -0.2024
 3591TIP3    H132264   1.564   5.810  16.253  1.3515 -2.0505  1.5419
 3591TIP3    H232265   1.496   5.808  16.389 -1.7484  0.7135  0.1911
 3592TIP3   OH232266   4.135   0.463  10.930 -0.1182 -0.1452  0.1706
 3592TIP3    H132267   4.120   0.461  10.835 -1.1568  2.9797  0.1617
 3592TIP3    H232268   4.060   0.417  10.967 -0.6976  0.2596 -0.4780
 3593TIP3   OH232269   4.126   5.091  16.298  0.3062 -0.3946 -0.2734
 3593TIP3    H132270   4.134   5.015  16.241 -2.9548 -1.2875  0.2971
 3593TIP3    H232271   4.081   5.157  16.245  1.0388  0.3213 -0.0316
 3594TIP3   OH232272   1.321   0.138  15.901 -0.2741  0.2256 -0.3934
 3594TIP3    H132273   1.297   0.197  15.973  1.1095 -1.4528  1.5749
 3594TIP3    H232274   1.416   0.142  15.897 -0.2899 -0.1724 -1.7677
 3595TIP3   OH232275   6.258   0.877  12.765  0.4287  0.2344  0.5190
 3595TIP3    H132276   6.334   0.820  12.751 -1.1574 -1.9619  0.3720
 3595TIP3    H232277   6.289   0.964  12.742  2.1892 -0.9617 -2.1072
 3596TIP3   OH232278   3.930   5.963  10.868  0.1578 -0.4025  0.1605
 3596TIP3    H132279   3.874   5.949  10.792  0.2100 -1.7067  0.3396
 3596TIP3    H232280   3.949   5.875  10.901  0.1572  0.1285  1.6772
 3597TIP3   OH232281   1.890   1.224   2.787  0.2267 -0.2999 -0.1233
 3597TIP3    H132282   1.897   1.143   2.737 -0.8379  0.4771 -1.6164
 3597TIP3    H232283   1.942   1.208   2.866  1.4275 -1.8173 -1.1522
 3598TIP3   OH232284   5.914   4.228  11.807  0.1545  0.2953  0.0251
 3598TIP3    H132285   5.823   4.235  11.781 -0.2217 -1.9493  0.5878
 3598TIP3    H232286   5.911   4.213  11.902  1.0609 -0.7280 -0.0950
 3599TIP3   OH232287   0.384   3.667   3.490  0.6364  0.3617  0.1410
 3599TIP3    H132288   0.326   3.710   3.427 -0.4878 -2.3343 -0.7745
 3599TIP3    H232289   0.345   3.688   3.575 -1.0069 -0.3861 -0.3923
 3600TIP3   OH232290   4.222   0.760   3.467 -0.3405 -0.0447  0.3905
 3600TIP3    H132291   4.154   0.713   3.418 -0.9384  1.7279 -0.5815
 3600TIP3    H232292   4.210   0.852   3.442  1.2226  0.5521  1.6665
 3601TIP3   OH232293   3.515   1.511   3.017 -0.2735  0.0469  0.3778
 3601TIP3    H132294   3.496   1.598   2.982 -1.1717 -0.7383 -1.1816
 3601TIP3    H232295   3.596   1.522   3.066 -0.7555  1.9066  0.8271
 3602TIP3   OH232296   5.011   5.147   2.730  0.8543 -0.4283 -0.0917
 3602TIP3    H132297   5.043   5.113   2.813 -0.3668 -1.1609  0.0995
 3602TIP3    H232298   5.005   5.070   2.673  2.1166  0.1251 -1.0312
 3603TIP3   OH232299   5.313   6.304  15.039  0.8039  0.4228  0.2508
 3603TIP3    H132300   5.367   6.227  15.054  0.0797 -0.0517  0.5003
 3603TIP3    H232301   5.349   6.371  15.096  2.3710  0.7406 -1.0539
 3604TIP3   OH232302   2.072   0.450  15.308  0.1257 -0.2246 -0.3116
 3604TIP3    H132303   2.151   0.480  15.352 -0.4144  0.2563  0.3593
 3604TIP3    H232304   2.026   0.397  15.373 -1.0992  1.1841  0.0444
 3605TIP3   OH232305   1.715   5.128  10.645  0.2211 -0.0713  0.1071
 3605TIP3    H132306   1.775   5.073  10.595 -0.1605 -0.6349  0.2593
 3605TIP3    H232307   1.634   5.129  10.593  0.5458  1.2093 -0.4252
 3606TIP3   OH232308   2.507   5.027   5.620  0.3421  0.6304  0.3331
 3606TIP3    H132309   2.429   5.059   5.574 -1.0735 -1.9153  0.7812
 3606TIP3    H232310   2.504   4.932   5.609  3.0142  0.3928  1.0201
 3607TIP3   OH232311   0.619   1.971   5.001 -0.0652  0.0528  0.4799
 3607TIP3    H132312   0.566   1.893   4.990 -0.8662  0.7579 -1.0434
 3607TIP3    H232313   0.566   2.029   5.056 -1.1134  0.8679 -1.2650
 3608TIP3   OH232314   1.640   5.338  15.674  0.1678  0.3593 -0.3877
 3608TIP3    H132315   1.667   5.286  15.749 -2.1058 -0.4436 -0.0507
 3608TIP3    H232316   1.584   5.406  15.711  0.0678  0.7480 -1.2347
 3609TIP3   OH232317   4.837   1.602   4.933 -0.3111  0.5923  0.2436
 3609TIP3    H132318   4.896   1.538   4.893 -0.1657  0.3717  0.7994
 3609TIP3    H232319   4.832   1.674   4.869  0.2736  0.4487  0.0330
 3610TIP3   OH232320   5.470   0.566  15.752 -0.2522 -0.0327  0.2509
 3610TIP3    H132321   5.423   0.541  15.831 -2.9652  0.0095 -1.2514
 3610TIP3    H232322   5.520   0.488  15.729 -0.5747 -0.5360  1.2006
 3611TIP3   OH232323   4.593   3.131  11.301  0.3403 -0.1840  0.1008
 3611TIP3    H132324   4.498   3.124  11.317  0.1509 -1.9367 -1.3757
 3611TIP3    H232325   4.630   3.152  11.387 -1.4656  1.9370  0.4571
 3612TIP3   OH232326   5.103   3.203   0.222 -0.1171  0.1410 -0.4264
 3612TIP3    H132327   5.105   3.135   0.289  0.9564 -0.4031 -0.9775
 3612TIP3    H232328   5.062   3.278   0.265  0.3895 -0.2504  0.7907
 3613TIP3   OH232329   3.501   6.725   5.288  0.1749 -0.1557 -0.2782
 3613TIP3    H132330   3.494   6.630   5.278  1.8093 -0.2325 -1.0176
 3613TIP3    H232331   3.583   6.738   5.335 -0.6675  0.8547  0.9709
 3614TIP3   OH232332   5.837   0.592  15.928  0.1002 -0.1458 -0.1700
 3614TIP3    H132333   5.812   0.507  15.964  0.8982 -0.2286  0.2045
 3614TIP3    H232334   5.763   0.649  15.949  0.5722 -0.1710  1.7050
 3615TIP3   OH232335   2.053   2.563  13.128 -0.2973 -0.0109  0.2182
 3615TIP3    H132336   1.983   2.552  13.193 -1.1094  0.0737 -0.6233
 3615TIP3    H232337   2.053   2.481  13.078  0.7071 -0.3060  0.6644
 3616TIP3   OH232338   2.810   6.626   2.700 -0.2064 -0.1199  0.4052
 3616TIP3    H132339   2.814   6.705   2.755 -0.6888 -1.0439  1.8272
 3616TIP3    H232340   2.899   6.589   2.705 -0.1187  0.0586  0.1629
 3617TIP3   OH232341   4.426   3.011   1.609 -0.4024  0.5181 -0.8442
 3617TIP3    H132342   4.439   3.037   1.518  1.7913  0.2270 -0.6661
 3617TIP3    H232343   4.504   3.044   1.655  0.7674 -3.0564  0.0863
 3618TIP3   OH232344   4.211   0.653  10.722  0.0322 -0.2281  0.1345
 3618TIP3    H132345   4.159   0.672  10.644 -1.2105 -2.6654  0.2885
 3618TIP3    H232346   4.158   0.684  10.795  0.5065  0.6455  0.1259
 3619TIP3   OH232347   0.871   2.163   1.655  0.0748 -0.2365 -0.1300
 3619TIP3    H132348   0.855   2.069   1.647  1.1018 -0.5094  0.7489
 3619TIP3    H232349   0.962   2.175   1.630 -0.2484  0.6427 -0.9345
 3620TIP3   OH232350   2.013   2.244   2.499 -0.2090  0.2545 -0.2979
 3620TIP3    H132351   2.030   2.228   2.592 -0.8152 -1.0941 -0.3885
 3620TIP3    H232352   1.945   2.312   2.499  0.6669  1.1603  0.1957
 3621TIP3   OH232353   6.021   0.824   0.040 -0.0101 -0.1503  0.0958
 3621TIP3    H132354   6.030   0.917   0.058 -1.9133  0.6477 -2.5686
 3621TIP3    H232355   6.081   0.807  -0.032 -2.3574 -0.0173 -2.0143
 3622TIP3   OH232356   4.685   5.138   1.011  1.1548  0.0291 -0.4781
 3622TIP3    H132357   4.730   5.204   1.064 -0.1434  0.1714  0.5209
 3622TIP3    H232358   4.596   5.172   1.001  0.2369 -1.8479  0.6418
 3623TIP3   OH232359   5.742   2.944   5.298  0.1245  0.5229  0.3667
 3623TIP3    H132360   5.774   2.861   5.332 -0.3762  0.6420  1.1485
 3623TIP3    H232361   5.819   2.985   5.257  0.7083  0.3123  1.2402
 3624TIP3   OH232362   6.715   4.825   0.077 -0.3685 -0.0812  0.1918
 3624TIP3    H132363   6.808   4.841   0.092  0.1959 -1.6182 -1.3722
 3624TIP3    H232364   6.684   4.788   0.160  0.7223 -0.7632  0.3153
 3625TIP3   OH232365   4.925   6.113   3.664  0.6578  0.3466  0.1014
 3625TIP3    H132366   4.846   6.065   3.638  1.6623 -2.1840  1.3013
 3625TIP3    H232367   4.975   6.122   3.583  0.7702 -1.4278 -0.0748
 3626TIP3   OH232368   1.733   5.333  13.650 -0.3246 -0.1922  0.4935
 3626TIP3    H132369   1.681   5.266  13.606 -0.6796  0.4849 -0.1248
 3626TIP3    H232370   1.765   5.289  13.730  0.7386 -1.5981 -0.6417
 3627TIP3   OH232371   5.512   3.375   2.303  0.3521 -0.0831 -0.5543
 3627TIP3    H132372   5.460   3.355   2.380  0.3861  0.4341 -0.3968
 3627TIP3    H232373   5.448   3.403   2.237  0.4171  0.4340 -0.3995
 3628TIP3   OH232374   6.073   6.355  14.633 -0.3639 -0.0937  0.7771
 3628TIP3    H132375   6.084   6.450  14.631 -1.0419 -0.0037  1.1216
 3628TIP3    H232376   5.993   6.339  14.583  0.2963 -0.5758 -0.1426
 3629TIP3   OH232377   3.988   2.310   1.549 -0.5170 -0.8235 -0.3818
 3629TIP3    H132378   3.988   2.304   1.453 -4.0424  0.6721 -0.6563
 3629TIP3    H232379   3.924   2.244   1.577  0.2864 -1.0728  0.9343
 3630TIP3   OH232380   2.273   3.443  15.982 -0.2976 -0.3276 -0.1584
 3630TIP3    H132381   2.331   3.494  16.039  1.0275 -1.3682 -0.5294
 3630TIP3    H232382   2.264   3.495  15.903  1.0151 -0.6401 -0.5218
 3631TIP3   OH232383   2.770   5.412  13.689  0.1949  0.0415 -0.0006
 3631TIP3    H132384   2.807   5.358  13.759  0.7144 -0.4751 -0.6607
 3631TIP3    H232385   2.846   5.442  13.639 -0.0603  1.6080  0.4839
 3632TIP3   OH232386   1.816   4.464   4.076  0.3850  0.1761  0.7403
 3632TIP3    H132387   1.841   4.556   4.061  1.8909 -0.0435  1.6656
 3632TIP3    H232388   1.866   4.415   4.010 -1.1151  0.0606 -0.3578
 3633TIP3   OH232389   6.345   5.561  15.403 -0.1954 -0.4766  0.7963
 3633TIP3    H132390   6.288   5.506  15.456  0.0604  0.3363  1.9573
 3633TIP3    H232391   6.338   5.648  15.442 -0.2518  0.2403 -0.7249
 3634TIP3   OH232392   5.142   0.567  12.538  0.0536 -0.1892  0.4179
 3634TIP3    H132393   5.107   0.610  12.460  0.9538 -0.0291  0.0926
 3634TIP3    H232394   5.065   0.537  12.586 -0.4960 -0.5966 -0.7006
 3635TIP3   OH232395   3.114   3.055   1.626 -0.5345 -0.0215 -0.0581
 3635TIP3    H132396   3.064   2.975   1.619  0.7298 -1.3987  3.9457
 3635TIP3    H232397   3.197   3.036   1.581 -0.1088 -1.1574  1.1556
 3636TIP3   OH232398   2.080   4.940  14.402 -0.4222 -0.4134  0.1602
 3636TIP3    H132399   2.021   4.906  14.469  0.6432 -1.9976  0.3600
 3636TIP3    H232400   2.024   4.991  14.343 -1.7459 -0.8320  1.0290
 3637TIP3   OH232401   4.238   6.504   2.758 -0.2430  1.0645 -0.2617
 3637TIP3    H132402   4.273   6.462   2.837 -0.4553 -0.8969 -1.1403
 3637TIP3    H232403   4.143   6.504   2.771 -0.6134 -2.3786 -1.8067
 3638TIP3   OH232404   1.262   0.808  12.540 -0.1428  0.4943 -0.8677
 3638TIP3    H132405   1.298   0.859  12.613 -0.5272 -0.5525  0.0846
 3638TIP3    H232406   1.168   0.819  12.547 -0.2525 -0.5740 -0.4539
 3639TIP3   OH232407   4.550   1.225  15.058 -0.3858  0.4407 -0.3305
 3639TIP3    H132408   4.567   1.296  14.995 -0.9960  0.6079 -0.3191
 3639TIP3    H232409   4.463   1.245  15.093  0.0094  0.4358  0.6865
 3640TIP3   OH232410   6.391   0.408  13.340  0.0516 -0.0661 -0.5105
 3640TIP3    H132411   6.365   0.422  13.249 -1.1641  0.0196 -0.1674
 3640TIP3    H232412   6.309   0.408  13.389  0.6376 -0.6692  0.5195
 3641TIP3   OH232413   4.127   2.087   6.123  0.1543 -0.6496  0.0977
 3641TIP3    H132414   4.109   2.013   6.181  0.4102 -0.8716 -0.1040
 3641TIP3    H232415   4.213   2.119   6.150 -0.9099  1.0352  1.7189
 3642TIP3   OH232416   3.654   6.715  12.168 -0.4475 -0.2083 -0.1715
 3642TIP3    H132417   3.584   6.781  12.167  0.0519  0.4437  2.2307
 3642TIP3    H232418   3.698   6.728  12.252  0.4517 -2.8070 -0.1578
 3643TIP3   OH232419   3.696   1.415   4.955  0.1687 -0.1705  0.0683
 3643TIP3    H132420   3.770   1.357   4.976 -0.5260 -0.5489  1.6752
 3643TIP3    H232421   3.624   1.380   5.007 -0.7370  1.1141 -0.2885
 3644TIP3   OH232422   4.809   4.124  14.527  0.1607 -0.4176 -0.2935
 3644TIP3    H132423   4.723   4.156  14.555 -0.2028 -0.9708 -0.7432
 3644TIP3    H232424   4.812   4.142  14.433  1.0806  0.7880 -0.0488
 3645TIP3   OH232425   4.606   1.625  13.126  0.0348  0.0343 -0.5129
 3645TIP3    H132426   4.664   1.582  13.189  1.7165  1.4768 -1.0001
 3645TIP3    H232427   4.570   1.699  13.174 -1.0197 -0.5380 -0.3871
 3646TIP3   OH232428   1.915   4.075  16.736 -0.7552  0.3801  0.6763
 3646TIP3    H132429   2.007   4.102  16.741  0.2507 -2.7483  1.0010
 3646TIP3    H232430   1.892   4.087  16.644  0.6886 -0.7808  0.1243
 3647TIP3   OH232431   1.633   5.317  12.581  0.1866  0.0906  0.0060
 3647TIP3    H132432   1.691   5.370  12.636  0.9774 -1.2148  0.4614
 3647TIP3    H232433   1.574   5.274  12.643 -1.0378  1.0719 -0.4243
 3648TIP3   OH232434   4.682   0.353   1.349 -0.6023 -0.0925 -0.0502
 3648TIP3    H132435   4.633   0.393   1.278  0.6909  0.0921 -0.8718
 3648TIP3    H232436   4.770   0.341   1.313  0.0606 -0.0552  1.4992
 3649TIP3   OH232437   3.105   3.632   5.925 -0.2242  0.2976  0.2416
 3649TIP3    H132438   3.195   3.638   5.955  0.2665 -0.2951 -1.0313
 3649TIP3    H232439   3.060   3.704   5.969  0.8581  0.5814  0.9180
 3650TIP3   OH232440   5.725   4.966  16.356  0.7010  0.3641  0.1096
 3650TIP3    H132441   5.745   5.037  16.416  1.1006  0.7827 -0.5054
 3650TIP3    H232442   5.742   5.002  16.269  1.8152 -0.7523 -0.1706
 3651TIP3   OH232443   0.567   3.531  12.335  0.0496  0.0413 -0.4927
 3651TIP3    H132444   0.588   3.444  12.366  0.4223  0.6210  0.9304
 3651TIP3    H232445   0.651   3.576  12.329 -0.1027  0.2309 -1.5188
 3652TIP3   OH232446   2.850   4.392   6.161 -0.5097  0.2520 -0.3857
 3652TIP3    H132447   2.920   4.442   6.119 -1.3199 -0.7517 -3.1566
 3652TIP3    H232448   2.798   4.458   6.207  0.7864  1.3563 -0.4275
 3653TIP3   OH232449   3.843   6.292  11.437  0.0249  0.1216  0.2665
 3653TIP3    H132450   3.860   6.377  11.478  1.2846  0.3182 -0.6152
 3653TIP3    H232451   3.841   6.230  11.511  1.1049  0.6272  0.7389
 3654TIP3   OH232452   3.099   1.086   2.149  0.1502  0.4735 -0.4165
 3654TIP3    H132453   3.071   1.003   2.188  0.7874  0.1366 -0.6518
 3654TIP3    H232454   3.173   1.062   2.094  1.8175  1.5283  1.2558
 3655TIP3   OH232455   3.162   5.325  14.318  0.4251  0.1248  0.1078
 3655TIP3    H132456   3.241   5.372  14.293  0.2414  0.8950  0.8882
 3655TIP3    H232457   3.174   5.307  14.412 -0.2217  0.0680  0.1844
 3656TIP3   OH232458   5.879   2.202  15.314  0.0935  0.3622  0.1049
 3656TIP3    H132459   5.840   2.237  15.234 -0.0717  0.1529  0.0954
 3656TIP3    H232460   5.973   2.219  15.304 -0.1682  2.6965  1.0224
 3657TIP3   OH232461   0.179   1.962  15.323 -0.5576  0.7144  0.5376
 3657TIP3    H132462   0.121   1.904  15.274 -1.4355  0.7929  1.4546
 3657TIP3    H232463   0.228   1.904  15.381 -1.8695  0.9143  1.8893
 3658TIP3   OH232464   4.327   5.353   3.488 -0.4975  0.2345 -0.2143
 3658TIP3    H132465   4.360   5.273   3.446  0.5712  0.6738 -0.2515
 3658TIP3    H232466   4.384   5.366   3.563 -1.7450  0.0419  0.7887
 3659TIP3   OH232467   0.566   3.361   3.119  0.5025 -0.0424 -0.1179
 3659TIP3    H132468   0.630   3.292   3.104 -0.2568 -0.4527 -1.7251
 3659TIP3    H232469   0.550   3.360   3.213  0.3353 -2.2380 -0.1354
 3660TIP3   OH232470   2.493   4.636   0.030  0.8254  0.4004  0.5015
 3660TIP3    H132471   2.408   4.679   0.034  1.0129  1.7168 -3.8651
 3660TIP3    H232472   2.472   4.543   0.022 -0.1710  0.6083  0.5322
 3661TIP3   OH232473   1.609   6.200  11.828  0.0437  0.1897  0.0377
 3661TIP3    H132474   1.622   6.231  11.738 -0.4202  1.8519  0.5170
 3661TIP3    H232475   1.573   6.112  11.817  1.5410 -0.2886 -1.3734
 3662TIP3   OH232476   2.039   5.385  14.845  0.3717 -0.0936  0.0852
 3662TIP3    H132477   2.041   5.343  14.759 -0.6899 -1.5472  0.7158
 3662TIP3    H232478   2.128   5.375  14.879  0.1197 -2.0711  0.2780
 3663TIP3   OH232479   2.040   5.175  15.679  0.1038 -0.0878  0.0489
 3663TIP3    H132480   2.019   5.104  15.618  1.0582 -1.5255  1.3169
 3663TIP3    H232481   1.961   5.185  15.731  0.0249 -0.3573 -0.0135
 3664TIP3   OH232482   0.714   4.175  12.566  0.5589 -0.2662 -0.4727
 3664TIP3    H132483   0.643   4.114  12.583 -1.3315  2.0190  0.4768
 3664TIP3    H232484   0.791   4.135  12.608 -0.5668 -1.9546  0.0733
 3665TIP3   OH232485   3.621   5.420  12.268 -0.0310 -0.2780 -0.4707
 3665TIP3    H132486   3.649   5.397  12.357 -1.0029  1.1263  0.2315
 3665TIP3    H232487   3.674   5.496  12.245 -1.1204  0.5372 -0.3246
 3666TIP3   OH232488   0.519   1.820   1.165  0.8002  0.5473 -0.7805
 3666TIP3    H132489   0.449   1.856   1.219 -0.1466 -1.2060 -0.7688
 3666TIP3    H232490   0.571   1.767   1.225  0.9434  0.2170 -1.1939
 3667TIP3   OH232491   3.786   6.332   6.134  0.6269  0.2329 -0.0596
 3667TIP3    H132492   3.844   6.337   6.058  0.6425  0.7243 -0.0136
 3667TIP3    H232493   3.814   6.402   6.192 -0.9172  1.4207 -0.6704
 3668TIP3   OH232494   1.858   4.301  16.175 -0.1931 -0.1724 -0.9222
 3668TIP3    H132495   1.850   4.396  16.167 -1.7047 -0.1282  0.5119
 3668TIP3    H232496   1.931   4.288  16.236  0.5886  0.0075 -1.7919
 3669TIP3   OH232497   0.780   5.368  11.401 -0.2766 -0.1494  0.7255
 3669TIP3    H132498   0.835   5.311  11.455 -0.5480 -0.5916  0.5418
 3669TIP3    H232499   0.802   5.344  11.311 -1.2981 -0.8459  0.6502
 3670TIP3   OH232500   5.118   0.812   0.872  0.0728 -0.1282 -0.2444
 3670TIP3    H132501   5.144   0.728   0.908 -1.1047 -0.5665 -0.3621
 3670TIP3    H232502   5.032   0.829   0.910  0.0382  0.7427 -0.6776
 3671TIP3   OH232503   6.054   5.510   4.368  0.4187 -0.2228 -0.0871
 3671TIP3    H132504   6.132   5.528   4.421 -0.2105  1.2511  0.3840
 3671TIP3    H232505   6.012   5.435   4.411  0.6488  0.0945  0.6939
 3672TIP3   OH232506   3.139   3.096  11.158  0.3532  0.1840 -0.5590
 3672TIP3    H132507   3.136   3.041  11.080 -0.3679  0.3527 -0.6523
 3672TIP3    H232508   3.134   3.186  11.126 -1.6770  0.2352 -0.2728
 3673TIP3   OH232509   3.691   5.630   5.638  0.6539 -0.3774  0.1217
 3673TIP3    H132510   3.659   5.684   5.566 -0.2094 -0.9809  0.0370
 3673TIP3    H232511   3.629   5.557   5.643  0.8534 -0.4932  1.2929
 3674TIP3   OH232512   6.192   3.759   2.134 -0.0858  0.2848 -0.0652
 3674TIP3    H132513   6.242   3.717   2.064  0.6866  1.3861 -0.1960
 3674TIP3    H232514   6.248   3.754   2.211 -2.1030 -3.6307  1.4042
 3675TIP3   OH232515   2.704   0.484  16.896 -0.2204 -0.5977  0.2597
 3675TIP3    H132516   2.790   0.471  16.937  0.5765  2.4844 -0.1425
 3675TIP3    H232517   2.642   0.484  16.968  0.1242 -2.4411  0.6027
 3676TIP3   OH232518   5.742   4.792   1.365 -0.4637  0.5806  0.3678
 3676TIP3    H132519   5.794   4.767   1.442 -0.3786 -0.6270 -0.0597
 3676TIP3    H232520   5.655   4.810   1.401  0.3735  3.5685  1.2332
 3677TIP3   OH232521   5.608   1.852   5.133 -0.3658 -0.3533 -0.2243
 3677TIP3    H132522   5.652   1.936   5.120 -1.2530  0.2722  0.7268
 3677TIP3    H232523   5.650   1.815   5.211  0.3063 -1.0106 -0.8719
 3678TIP3   OH232524   5.359   6.231   4.370  0.3220 -0.2633 -0.1990
 3678TIP3    H132525   5.309   6.183   4.303  1.0109 -4.2737  1.8376
 3678TIP3    H232526   5.446   6.242   4.331  0.2555 -1.0399 -0.5821
 3679TIP3   OH232527   6.056   5.339  16.499  0.9153 -0.2065  0.1009
 3679TIP3    H132528   5.987   5.274  16.508  1.3077 -0.5857  0.4697
 3679TIP3    H232529   6.048   5.394  16.577  0.0207  0.7567 -0.6448
 3680TIP3   OH232530   0.760   0.444   0.303  0.1179  0.3067  0.0749
 3680TIP3    H132531   0.746   0.358   0.342  1.7752 -0.4415 -0.8470
 3680TIP3    H232532   0.836   0.479   0.350  0.3497  0.6238 -0.5243
 3681TIP3   OH232533   5.646   2.518   2.211 -0.0965  0.2513 -0.0857
 3681TIP3    H132534   5.593   2.583   2.165 -1.4134 -1.4031 -1.0272
 3681TIP3    H232535   5.689   2.567   2.280 -0.4953  2.2446 -1.1773
 3682TIP3   OH232536   4.895   3.012   1.462  0.6192  0.8485 -0.2884
 3682TIP3    H132537   4.803   3.006   1.439  0.9399 -2.1971 -1.2223
 3682TIP3    H232538   4.942   3.005   1.378  1.7016  0.2218  0.3431
 3683TIP3   OH232539   5.813   4.339   2.961  0.4712 -0.0820  0.0381
 3683TIP3    H132540   5.840   4.253   2.993 -1.8959 -0.8093  0.3211
 3683TIP3    H232541   5.838   4.400   3.030  2.0986 -0.5239 -0.1260
 3684TIP3   OH232542   2.532   4.885   5.277 -0.9702  0.3470  0.2882
 3684TIP3    H132543   2.545   4.854   5.188 -0.2871  1.2180  0.0739
 3684TIP3    H232544   2.564   4.814   5.333  1.1678  0.8646 -0.1903
 3685TIP3   OH232545   2.050   2.852   0.325  0.1481  0.2318 -0.1394
 3685TIP3    H132546   2.080   2.890   0.408 -2.3067 -1.1966  1.5178
 3685TIP3    H232547   2.095   2.768   0.320 -1.2859 -0.6414  0.9053
 3686TIP3   OH232548   4.598   1.938  13.595 -0.8888  0.3472  0.1079
 3686TIP3    H132549   4.675   1.882  13.594 -1.3843 -0.3676  0.7739
 3686TIP3    H232550   4.632   2.026  13.605  0.0443  0.4509 -2.9197
 3687TIP3   OH232551   5.058   5.768   1.832 -0.1526  0.4054  0.2215
 3687TIP3    H132552   5.154   5.775   1.831 -0.0390  0.5080 -3.8669
 3687TIP3    H232553   5.027   5.858   1.831 -0.2409  0.3711 -0.1164
 3688TIP3   OH232554   5.136   3.469  14.208  0.3158 -0.3560  0.1778
 3688TIP3    H132555   5.115   3.544  14.264 -0.4631  0.7834 -1.5464
 3688TIP3    H232556   5.059   3.413  14.215  1.3179 -1.5971  2.2844
 3689TIP3   OH232557   2.759   6.459   3.321 -0.8473 -0.0000 -0.0643
 3689TIP3    H132558   2.810   6.411   3.255 -0.3352 -0.7031  0.8153
 3689TIP3    H232559   2.723   6.390   3.377  0.3892  0.6410  1.5766
 3690TIP3   OH232560   4.413   2.356   0.068  0.0977  0.3810 -0.1692
 3690TIP3    H132561   4.395   2.417   0.139  1.8762  0.6766  0.0728
 3690TIP3    H232562   4.505   2.332   0.079  0.4714  0.5364 -2.4430
 3691TIP3   OH232563   2.074   5.569   5.507 -0.1305 -0.2748 -0.5400
 3691TIP3    H132564   2.068   5.474   5.502  0.3746 -0.2476 -2.2124
 3691TIP3    H232565   1.990   5.596   5.545 -0.4631 -1.3503 -0.4639
 3692TIP3   OH232566   5.361   6.267   5.166 -0.0481  0.4347  0.1251
 3692TIP3    H132567   5.386   6.305   5.082  1.0534  0.3618  0.3987
 3692TIP3    H232568   5.382   6.174   5.158 -1.7109  0.0433 -0.1573
 3693TIP3   OH232569   0.546   4.847   1.675 -0.3323 -0.0477  0.1293
 3693TIP3    H132570   0.509   4.894   1.750 -0.0198  0.6813 -0.1537
 3693TIP3    H232571   0.638   4.875   1.673 -0.4555  0.3251 -0.8106
 3694TIP3   OH232572   1.377   0.139   1.920 -0.6681 -0.0855 -0.3757
 3694TIP3    H132573   1.348   0.118   2.009 -1.4927 -0.1436 -0.6498
 3694TIP3    H232574   1.320   0.087   1.864  0.8822 -1.2947 -0.9174
 3695TIP3   OH232575   4.626   5.356  15.829 -0.9826 -0.5262 -0.3454
 3695TIP3    H132576   4.717   5.369  15.855 -1.2385  0.5802  0.1024
 3695TIP3    H232577   4.589   5.300  15.898 -1.7489  2.6756  2.1496
 3696TIP3   OH232578   4.980   6.680  12.469 -0.0819 -0.2886  1.0318
 3696TIP3    H132579   4.897   6.720  12.494 -0.2211  0.8116 -0.9388
 3696TIP3    H232580   4.997   6.714  12.380  1.9109 -1.3573  0.9435
 3697TIP3   OH232581   6.391   2.089   1.360 -0.2439  0.3801 -0.1236
 3697TIP3    H132582   6.299   2.066   1.353 -0.3253  1.0922 -1.7147
 3697TIP3    H232583   6.401   2.119   1.451 -1.5187  0.1208  0.1242
 3698TIP3   OH232584   5.133   4.546   2.751  0.0035 -0.8858 -0.1163
 3698TIP3    H132585   5.090   4.551   2.666  0.8545  0.9196 -0.4779
 3698TIP3    H232586   5.221   4.511   2.732  0.8288  1.1522 -0.2823
 3699TIP3   OH232587   5.552   1.665   4.495  0.3223  0.2548  0.4519
 3699TIP3    H132588   5.493   1.596   4.465  0.8558  0.6785 -1.7637
 3699TIP3    H232589   5.600   1.626   4.568  1.8588 -2.4316 -1.7834
 3700TIP3   OH232590   4.942   0.129  14.605  0.3410  0.3873  0.1284
 3700TIP3    H132591   4.965   0.221  14.620  0.5306  0.2614  0.6261
 3700TIP3    H232592   4.846   0.127  14.614  0.4040  0.4087  0.8514
 3701TIP3   OH232593   3.712   3.128  14.022 -0.2023 -0.1701 -0.1386
 3701TIP3    H132594   3.699   3.107  14.114 -0.0986 -0.1775 -0.1244
 3701TIP3    H232595   3.800   3.094  14.002  0.0168  0.3440 -0.0820
 3702TIP3   OH232596   5.956   4.515   4.146 -0.5375  0.0685  0.3073
 3702TIP3    H132597   5.947   4.608   4.168 -0.3563  0.3819 -0.8532
 3702TIP3    H232598   6.009   4.515   4.067 -0.1682 -1.0610  0.5454
 3703TIP3   OH232599   0.631   3.033  14.577 -0.1776 -0.4715  0.1116
 3703TIP3    H132600   0.724   3.055  14.570 -0.4258  0.2743 -1.1698
 3703TIP3    H232601   0.621   2.955  14.522 -0.3424 -0.4606  0.1246
 3704TIP3   OH232602   5.542   0.616   5.796  0.2927 -0.1290 -0.3060
 3704TIP3    H132603   5.523   0.689   5.737 -3.4664  0.4310  1.2627
 3704TIP3    H232604   5.547   0.539   5.739 -0.0065  0.8040 -1.6193
 3705TIP3   OH232605   2.113   5.356  10.901 -0.1368  0.2885 -0.3320
 3705TIP3    H132606   2.183   5.416  10.929  0.2888  1.0955 -2.8478
 3705TIP3    H232607   2.034   5.410  10.900 -0.0495  0.4036 -1.1415
 3706TIP3   OH232608   6.245   3.175  15.076 -0.0781 -0.2538  0.3661
 3706TIP3    H132609   6.153   3.184  15.055  0.4569  1.4297 -1.4564
 3706TIP3    H232610   6.251   3.196  15.170 -1.3638  0.8118  0.2207
 3707TIP3   OH232611   6.167   1.566   5.021  0.3665  0.5612  0.4097
 3707TIP3    H132612   6.240   1.515   4.987 -1.4743 -1.0877 -1.3711
 3707TIP3    H232613   6.168   1.549   5.115  1.6796 -0.1924  0.2867
 3708TIP3   OH232614   1.112   1.168   1.556 -0.2660  0.2548 -0.0015
 3708TIP3    H132615   1.073   1.127   1.479 -0.4418  1.1624 -0.4022
 3708TIP3    H232616   1.206   1.157   1.544 -0.2172  1.5293 -1.0210
 3709TIP3   OH232617   6.139   1.310   5.272  0.1397 -0.2090  0.0723
 3709TIP3    H132618   6.055   1.285   5.233  0.7691 -1.0781 -0.7684
 3709TIP3    H232619   6.204   1.284   5.207  1.0983  0.0343  0.9169
 3710TIP3   OH232620   2.037   1.079   6.684 -0.1673 -0.2704  0.0414
 3710TIP3    H132621   2.100   1.095   6.614  0.2387  1.9283  0.8183
 3710TIP3    H232622   2.042   0.985   6.701  1.5052 -0.4419 -1.2109
 3711TIP3   OH232623   2.191   2.744  13.291 -0.6047 -0.1484  0.7896
 3711TIP3    H132624   2.219   2.682  13.358 -0.6200 -1.5974 -0.5046
 3711TIP3    H232625   2.123   2.699  13.243  1.3757 -0.3535 -2.0552
 3712TIP3   OH232626   3.170   5.945   5.979 -0.2382 -0.0580 -0.0546
 3712TIP3    H132627   3.107   5.873   5.970  1.4220 -1.7000  0.8035
 3712TIP3    H232628   3.255   5.903   5.966  0.6849  2.2780 -2.3365
 3713TIP3   OH232629   1.321   5.089  11.241  0.0735 -0.1463  0.8071
 3713TIP3    H132630   1.345   5.056  11.327  2.1293  1.3166  0.8710
 3713TIP3    H232631   1.354   5.179  11.240 -0.5114  0.0910 -1.2635
 3714TIP3   OH232632   3.284   1.545  10.795  0.1144  0.1616  0.2660
 3714TIP3    H132633   3.219   1.609  10.767 -1.0701 -0.4814  1.3965
 3714TIP3    H232634   3.366   1.594  10.797 -0.7025  1.5897  0.8224
 3715TIP3   OH232635   2.821   5.390  16.865  0.8786 -0.4406 -0.2006
 3715TIP3    H132636   2.759   5.453  16.904  0.3746 -1.0266 -0.0356
 3715TIP3    H232637   2.867   5.353  16.941  0.4255 -1.0395 -0.2170
 3716TIP3   OH232638   2.965   6.761  15.741  0.1622 -0.7249  0.2135
 3716TIP3    H132639   2.894   6.731  15.798 -0.1782  0.3415  0.3716
 3716TIP3    H232640   3.023   6.810  15.798  0.5765 -0.8618 -0.0861
 3717TIP3   OH232641   1.231   3.221   5.591  0.8963 -0.9052  0.2475
 3717TIP3    H132642   1.235   3.262   5.677  1.7264  0.1872 -0.2858
 3717TIP3    H232643   1.270   3.134   5.603  1.3915 -0.6000  0.8918
 3718TIP3   OH232644   5.610   2.387   5.085 -0.6543 -0.6713 -0.0865
 3718TIP3    H132645   5.684   2.431   5.126 -0.2158  0.2167 -1.7092
 3718TIP3    H232646   5.534   2.435   5.115 -0.3580 -0.1078 -0.2283
 3719TIP3   OH232647   0.682   1.241  16.585  0.1893 -0.1424  0.7321
 3719TIP3    H132648   0.616   1.262  16.519  1.0099 -0.7296 -0.3211
 3719TIP3    H232649   0.656   1.291  16.662 -1.3572 -0.2105  0.2814
 3720TIP3   OH232650   5.704   5.766  13.405  0.3943  0.2152 -0.1674
 3720TIP3    H132651   5.621   5.747  13.360 -0.1983  1.2485  0.4450
 3720TIP3    H232652   5.695   5.723  13.490  0.3604  0.5446  0.0002
 3721TIP3   OH232653   5.178   0.209  11.911  0.0457  0.0048 -0.2778
 3721TIP3    H132654   5.241   0.202  11.983 -1.1499  0.4699  0.8404
 3721TIP3    H232655   5.096   0.179  11.948 -0.6745  0.5901 -1.3579
 3722TIP3   OH232656   2.719   5.237   5.499  0.3003 -0.0887  0.2823
 3722TIP3    H132657   2.701   5.148   5.529  0.3171  0.2478  1.3212
 3722TIP3    H232658   2.693   5.236   5.407  1.8922 -1.6365 -0.2168
 3723TIP3   OH232659   4.504   2.633  10.831  0.8827 -0.3598 -0.4920
 3723TIP3    H132660   4.489   2.713  10.881 -1.6871 -1.7356  1.1368
 3723TIP3    H232661   4.442   2.637  10.758  0.8220 -0.8318 -0.4709
 3724TIP3   OH232662   5.465   6.521  13.642  0.0030  0.2961 -0.2082
 3724TIP3    H132663   5.405   6.569  13.585 -0.3433  0.2540  0.1157
 3724TIP3    H232664   5.548   6.567  13.633 -0.6821  1.9635  1.2841
 3725TIP3   OH232665   3.437   3.044  14.769  0.8449  0.5932 -0.0619
 3725TIP3    H132666   3.435   2.958  14.728 -1.9820 -0.9008  2.6960
 3725TIP3    H232667   3.399   3.103  14.703  0.0425 -0.8768 -0.9642
 3726TIP3   OH232668   4.825   0.086   3.721 -0.2710 -0.5383 -0.2594
 3726TIP3    H132669   4.784   0.033   3.652  1.8045 -3.0857  0.2762
 3726TIP3    H232670   4.919   0.074   3.707  0.2405  1.1117  1.4185
 3727TIP3   OH232671   6.809   2.459   0.593 -0.3961 -0.0458 -0.0249
 3727TIP3    H132672   6.766   2.388   0.641 -0.6991 -0.8841 -1.4504
 3727TIP3    H232673   6.832   2.523   0.660 -1.1368 -0.9722  1.1693
 3728TIP3   OH232674   5.486   1.631   0.048 -0.1542  0.0001 -0.3120
 3728TIP3    H132675   5.469   1.591   0.133  0.3616  0.5622  0.0640
 3728TIP3    H232676   5.581   1.638   0.044 -0.1713 -0.1226 -0.9824
 3729TIP3   OH232677   2.508   1.094   1.259 -0.3143 -0.2326  0.1383
 3729TIP3    H132678   2.531   1.030   1.191  0.6992 -0.2673  0.5035
 3729TIP3    H232679   2.492   1.175   1.212  4.1475  0.8116  0.0581
 3730TIP3   OH232680   6.408   2.288   5.813 -0.2062  0.2281 -0.2141
 3730TIP3    H132681   6.445   2.335   5.738  0.9366  0.3042  0.3838
 3730TIP3    H232682   6.478   2.287   5.879 -1.3268  0.5196  1.0182
 3731TIP3   OH232683   0.030   4.682  16.344  0.2001  0.7668 -0.3627
 3731TIP3    H132684   0.115   4.640  16.357  0.5385  1.8650  1.2777
 3731TIP3    H232685   0.050   4.763  16.298 -0.3551 -0.3377 -2.7009
 3732TIP3   OH232686   1.098   0.324   1.335  0.4560 -0.4647 -0.0806
 3732TIP3    H132687   1.055   0.358   1.414 -1.1506 -0.7518 -0.7957
 3732TIP3    H232688   1.105   0.230   1.351 -3.1593 -1.1547 -1.6433
 3733TIP3   OH232689   2.576   5.142   4.383  0.0780 -0.4928 -0.3636
 3733TIP3    H132690   2.622   5.224   4.364 -0.8879  0.4693  1.2175
 3733TIP3    H232691   2.631   5.074   4.343  1.5346  0.8065 -0.6915
 3734TIP3   OH232692   1.025   0.770   1.531 -1.0454 -0.2400  0.7255
 3734TIP3    H132693   1.097   0.828   1.552 -0.3364 -0.0700 -1.8248
 3734TIP3    H232694   0.985   0.749   1.616  1.7940 -0.1339  2.1898
 3735TIP3   OH232695   4.596   6.309   5.541  0.2836 -0.5483 -0.2289
 3735TIP3    H132696   4.589   6.265   5.457 -0.2182 -1.0127  0.0554
 3735TIP3    H232697   4.670   6.267   5.585 -0.2805 -1.1990  0.0979
 3736TIP3   OH232698   3.685   1.078   4.773  0.3071 -0.5607 -0.2350
 3736TIP3    H132699   3.596   1.110   4.758  0.9721  1.8372  0.5253
 3736TIP3    H232700   3.692   1.073   4.869  1.3087  0.3360 -0.2443
 3737TIP3   OH232701   3.884   5.376  11.221 -0.2346 -0.0120 -0.3192
 3737TIP3    H132702   3.886   5.470  11.241  1.5449 -0.2048  0.6117
 3737TIP3    H232703   3.862   5.334  11.304 -0.5823 -0.4525 -0.6287
 3738TIP3   OH232704   3.140   2.316  16.777 -0.2039  0.3085  0.2493
 3738TIP3    H132705   3.045   2.311  16.785 -0.1390  0.0038  0.8307
 3738TIP3    H232706   3.156   2.314  16.682 -0.7580  0.0727  0.1593
 3739TIP3   OH232707   4.164   4.254   1.517  0.1457  0.6248  0.5701
 3739TIP3    H132708   4.209   4.325   1.471  3.5029 -1.5692  0.0786
 3739TIP3    H232709   4.213   4.176   1.493 -2.0299 -1.5876  2.7620
 3740TIP3   OH232710   2.022   2.581   5.091 -0.1288  0.2395 -0.9564
 3740TIP3    H132711   2.082   2.588   5.165  2.3137 -0.6179 -2.7174
 3740TIP3    H232712   1.965   2.508   5.114  0.7089 -0.1365  0.0099
 3741TIP3   OH232713   2.884   4.531   2.840  0.5055  0.6660 -0.3488
 3741TIP3    H132714   2.915   4.532   2.749 -1.7899  0.4401 -1.1776
 3741TIP3    H232715   2.902   4.443   2.871  4.2174  1.5534  0.5895
 3742TIP3   OH232716   3.556   2.695  10.437  0.1495 -0.5765 -0.4402
 3742TIP3    H132717   3.503   2.775  10.439  0.4577 -0.3378 -1.4717
 3742TIP3    H232718   3.645   2.726  10.453 -0.1023 -1.1244  2.7726
 3743TIP3   OH232719   0.627   5.675  13.945 -0.4856  0.1751 -0.0366
 3743TIP3    H132720   0.550   5.701  13.996  0.4086  3.0276  0.0632
 3743TIP3    H232721   0.684   5.630  14.007  0.1219  2.6548  1.3382
 3744TIP3   OH232722   4.339   6.549   4.868 -0.1825  0.1044 -0.3553
 3744TIP3    H132723   4.380   6.573   4.951 -0.2707 -2.6267  0.5678
 3744TIP3    H232724   4.408   6.507   4.817 -0.4469  0.6070 -1.1473
 3745TIP3   OH232725   1.509   4.354  15.150 -0.2827  0.0475  0.1659
 3745TIP3    H132726   1.470   4.311  15.074  0.1369  0.3129 -0.2102
 3745TIP3    H232727   1.467   4.440  15.152  0.1759  0.2860 -0.1647
 3746TIP3   OH232728   3.427   3.159  13.169 -0.0508  0.6046  0.0379
 3746TIP3    H132729   3.515   3.159  13.207  0.1344 -0.9581 -0.2914
 3746TIP3    H232730   3.435   3.104  13.091 -1.6067 -0.7826  0.7754
 3747TIP3   OH232731   4.846   5.975  12.179 -0.7509 -0.3309 -0.0418
 3747TIP3    H132732   4.899   6.030  12.121 -0.8991 -0.6967 -0.5263
 3747TIP3    H232733   4.887   5.889  12.174 -1.0633 -0.4834  0.0123
 3748TIP3   OH232734   4.846   6.086   3.267 -0.2367  0.3111  0.0809
 3748TIP3    H132735   4.836   6.042   3.183  0.7038  0.7003 -0.2471
 3748TIP3    H232736   4.763   6.071   3.312 -1.1732  1.0096 -1.3434
 3749TIP3   OH232737   3.592   1.777   2.504  0.2190 -0.2344 -0.3653
 3749TIP3    H132738   3.567   1.689   2.474 -1.8894  0.3367 -0.4710
 3749TIP3    H232739   3.519   1.804   2.560  2.4902  0.0320  2.7705
 3750TIP3   OH232740   5.360   0.190  13.847  0.0156 -0.5622 -0.4936
 3750TIP3    H132741   5.390   0.103  13.818 -2.9610 -1.7705 -0.2544
 3750TIP3    H232742   5.376   0.247  13.771 -0.0274 -1.8309 -1.5040
 3751TIP3   OH232743   4.088   4.890   3.419  0.2441 -0.5044  0.3256
 3751TIP3    H132744   4.023   4.920   3.355 -0.8356 -0.8402  1.2417
 3751TIP3    H232745   4.044   4.820   3.467  0.0541  1.4345  3.1800
 3752TIP3   OH232746   6.279   1.884  11.652 -0.0044 -0.1694  0.1661
 3752TIP3    H132747   6.358   1.910  11.605  0.4012 -0.3013  0.7688
 3752TIP3    H232748   6.246   1.966  11.689  0.5106 -0.2887  0.9066
 3753TIP3   OH232749   2.522   5.849  14.151  0.2326 -0.3011 -0.2484
 3753TIP3    H132750   2.547   5.762  14.120  0.0394 -0.8206  1.0185
 3753TIP3    H232751   2.595   5.877  14.206 -0.3176 -0.2601  0.4750
 3754TIP3   OH232752   2.382   0.362   3.862 -0.0807  0.6533  0.2576
 3754TIP3    H132753   2.320   0.421   3.905 -0.0621  1.5372 -0.8878
 3754TIP3    H232754   2.469   0.393   3.890 -0.1151 -0.1540  1.3116
 3755TIP3   OH232755   4.381   1.763  16.336  0.8179 -0.0144  0.2947
 3755TIP3    H132756   4.398   1.852  16.306 -0.7795  0.3104  0.2421
 3755TIP3    H232757   4.466   1.732  16.368  1.4882  1.3826 -0.0176
 3756TIP3   OH232758   2.208   1.576   1.068 -0.1191 -0.6638 -0.4478
 3756TIP3    H132759   2.192   1.482   1.060 -0.6945 -0.5850 -0.2445
 3756TIP3    H232760   2.124   1.612   1.094 -0.2841  0.0875 -1.9319
 3757TIP3   OH232761   1.662   6.384   4.451 -0.4699  0.4608 -0.9171
 3757TIP3    H132762   1.741   6.429   4.481 -0.7960  0.0434  0.6785
 3757TIP3    H232763   1.601   6.392   4.524 -0.1363 -3.5929  0.0582
 3758TIP3   OH232764   5.915   4.788   4.245  0.2163 -0.3926 -0.0649
 3758TIP3    H132765   5.869   4.824   4.321 -0.3234 -0.2081 -0.4718
 3758TIP3    H232766   5.991   4.845   4.234 -1.5517  1.8651 -1.7951
 3759TIP3   OH232767   1.053   1.064   0.910  0.0252 -0.2653 -0.2269
 3759TIP3    H132768   1.108   1.023   0.843 -1.3729  0.3490 -1.8150
 3759TIP3    H232769   1.011   0.990   0.954 -2.3371 -0.7031 -2.9494
 3760TIP3   OH232770   1.428   6.525   0.746 -0.0754  0.3593 -0.4423
 3760TIP3    H132771   1.351   6.521   0.689  0.0852  1.0814 -0.7115
 3760TIP3    H232772   1.392   6.544   0.833 -0.2166  0.4567 -0.5218
 3761TIP3   OH232773   4.972   2.098   1.456  0.9259 -0.0659 -0.0207
 3761TIP3    H132774   5.024   2.131   1.529  0.6120 -0.7439  0.5219
 3761TIP3    H232775   5.026   2.028   1.418  0.6493 -0.4003  0.1999
 3762TIP3   OH232776   2.825   1.233  11.657 -0.0850 -0.3912  0.0998
 3762TIP3    H132777   2.852   1.175  11.586 -0.9271 -1.3793  0.5589
 3762TIP3    H232778   2.889   1.304  11.656 -0.3589 -0.1204 -1.9662
 3763TIP3   OH232779   0.298   0.010  15.709 -0.3240  0.5972 -0.7474
 3763TIP3    H132780   0.294   0.016  15.804  0.5381 -0.8692 -0.5993
 3763TIP3    H232781   0.392   0.007  15.689 -0.4665  1.8385 -1.7281
 3764TIP3   OH232782   6.296   0.224   0.585 -0.2669 -0.2180 -0.1132
 3764TIP3    H132783   6.277   0.318   0.592 -0.2462 -0.3202  1.9690
 3764TIP3    H232784   6.278   0.203   0.493 -1.9260  1.4553 -0.2315
 3765TIP3   OH232785   3.216   6.743   4.473  0.0173 -0.7254  0.0690
 3765TIP3    H132786   3.170   6.756   4.390  0.4080 -0.2194 -0.0730
 3765TIP3    H232787   3.285   6.810   4.473 -1.3236  0.7788  1.7813
 3766TIP3   OH232788   3.625   2.851   2.818 -0.0488  0.0282  0.2142
 3766TIP3    H132789   3.699   2.822   2.765  0.0188 -3.4616  1.9462
 3766TIP3    H232790   3.553   2.862   2.755  0.7144 -1.2936 -0.9478
 3767TIP3   OH232791   0.090   0.379   1.156 -0.2929  0.4611  0.0561
 3767TIP3    H132792   0.027   0.308   1.148 -0.3136  0.4928 -0.0665
 3767TIP3    H232793   0.108   0.385   1.250 -0.1408  0.1658  0.0447
 3768TIP3   OH232794   5.574   1.286  14.499 -0.1492  0.1001 -0.1278
 3768TIP3    H132795   5.602   1.361  14.550  3.5801 -2.0706  1.4417
 3768TIP3    H232796   5.593   1.310  14.408 -0.1880  1.4646  0.2114
 3769TIP3   OH232797   1.714   5.870   1.278  0.1562 -0.3499  0.0786
 3769TIP3    H132798   1.802   5.905   1.266 -0.1762  0.8206  0.8866
 3769TIP3    H232799   1.707   5.853   1.371 -0.3784 -0.7092 -0.0239
 3770TIP3   OH232800   1.600   2.869  17.021 -0.3212 -0.0819 -0.2742
 3770TIP3    H132801   1.538   2.808  17.061 -1.6590  0.4689 -1.4034
 3770TIP3    H232802   1.544   2.930  16.971  1.0787  1.0316 -0.5406
 3771TIP3   OH232803   5.505   2.763  12.155  0.4796 -0.2884 -0.0888
 3771TIP3    H132804   5.452   2.839  12.134  0.7301  0.2052  1.0048
 3771TIP3    H232805   5.458   2.689  12.115 -0.1538  0.3402 -0.5207
 3772TIP3   OH232806   2.455   3.347  12.237  0.1448 -0.2611 -0.3967
 3772TIP3    H132807   2.527   3.401  12.270 -1.4343  1.8263 -0.1588
 3772TIP3    H232808   2.460   3.354  12.142  0.1591  0.0532 -0.3741
 3773TIP3   OH232809   6.283   1.937  13.407  0.3085  0.3498  0.2027
 3773TIP3    H132810   6.330   1.876  13.350 -1.0659 -1.3445  0.7918
 3773TIP3    H232811   6.324   1.926  13.493 -0.0181  0.1320  0.3356
 3774TIP3   OH232812   5.039   6.492  12.901 -0.5309  0.2824 -0.2814
 3774TIP3    H132813   5.009   6.403  12.918  1.6950 -0.5896 -0.5541
 3774TIP3    H232814   5.038   6.500  12.806  0.2701  0.1349 -0.3142
 3775TIP3   OH232815   6.516   2.502   2.255  0.7225  0.5026 -0.6755
 3775TIP3    H132816   6.453   2.565   2.291  0.0163 -0.1665 -0.7295
 3775TIP3    H232817   6.574   2.483   2.329 -0.4274 -0.4912  0.0101
 3776TIP3   OH232818   2.025   0.901  15.999  0.0643 -0.4425 -0.4335
 3776TIP3    H132819   1.961   0.971  16.011  2.4796  1.9826 -0.8646
 3776TIP3    H232820   2.002   0.836  16.066 -1.8132  1.0940  0.5049
 3777TIP3   OH232821   4.252   5.636   2.581 -0.0345 -0.0273 -0.2239
 3777TIP3    H132822   4.322   5.662   2.641 -1.4553  1.7971  0.7443
 3777TIP3    H232823   4.253   5.702   2.512 -0.4748 -0.2821 -0.4834
 3778TIP3   OH232824   3.154   2.108   2.517 -0.1877  0.1217  0.0157
 3778TIP3    H132825   3.191   2.090   2.430 -1.8253 -1.2282 -0.4439
 3778TIP3    H232826   3.062   2.125   2.501 -0.3091  0.9011  1.4041
 3779TIP3   OH232827   1.395   0.837   0.936 -0.0182  0.7665  0.2039
 3779TIP3    H132828   1.453   0.912   0.923  0.4026  0.5335  0.7375
 3779TIP3    H232829   1.416   0.804   1.023 -0.9232  0.6514  0.3906
 3780TIP3   OH232830   6.284   3.430  15.479  0.1025 -0.1543 -0.4759
 3780TIP3    H132831   6.339   3.418  15.557 -0.8579  0.3094  0.3059
 3780TIP3    H232832   6.245   3.517  15.491 -1.4700 -0.8117 -0.5514
 3781TIP3   OH232833   0.412   4.674   4.473  0.4732  0.1366  0.3627
 3781TIP3    H132834   0.345   4.606   4.479  0.9940 -0.2712  2.1683
 3781TIP3    H232835   0.400   4.727   4.553  1.4532  0.8588  0.0550
 3782TIP3   OH232836   5.991   0.408  14.583 -0.5603  0.3635 -0.1724
 3782TIP3    H132837   6.028   0.441  14.500 -2.3544  1.0824 -0.7316
 3782TIP3    H232838   6.049   0.336  14.607  0.3039  0.4489 -1.8034
 3783TIP3   OH232839   4.454   3.798  12.601  0.5153 -0.0862  0.2393
 3783TIP3    H132840   4.465   3.785  12.696  0.7868 -0.2386  0.1880
 3783TIP3    H232841   4.465   3.711  12.564 -0.7767 -0.2364  0.1686
 3784TIP3   OH232842   3.957   0.694  11.118  0.0888 -0.0912 -0.8820
 3784TIP3    H132843   3.976   0.635  11.191  2.6866  0.2245 -1.2000
 3784TIP3    H232844   3.872   0.665  11.085 -0.8728 -0.6636  1.8183
 3785TIP3   OH232845   4.994   0.366  11.511 -0.3404  0.2127 -0.2883
 3785TIP3    H132846   4.948   0.446  11.537 -0.0486  0.5028 -0.6463
 3785TIP3    H232847   5.084   0.394  11.499  0.1781 -0.5733  1.4600
 3786TIP3   OH232848   6.367   0.539   0.707 -0.1434 -0.0395 -0.4051
 3786TIP3    H132849   6.438   0.603   0.701 -0.3685  0.1478 -1.2570
 3786TIP3    H232850   6.321   0.562   0.787  2.2012 -1.7181  1.5928
 3787TIP3   OH232851   1.922   4.373   1.947  0.2280 -0.2634  0.0174
 3787TIP3    H132852   1.988   4.325   1.898  0.0552  0.0105 -0.4856
 3787TIP3    H232853   1.846   4.314   1.948  0.3654 -0.4379  0.3087
 3788TIP3   OH232854   3.623   6.187   4.525  0.6017  0.5488  0.1645
 3788TIP3    H132855   3.560   6.167   4.595 -1.3611 -0.4298 -1.7834
 3788TIP3    H232856   3.691   6.120   4.535  0.4612  0.5314  1.2117
 3789TIP3   OH232857   0.401   0.603   3.866  0.4811  0.6053 -0.2350
 3789TIP3    H132858   0.422   0.561   3.949  1.8819 -0.2788 -0.9754
 3789TIP3    H232859   0.324   0.656   3.884 -0.4452 -1.0931  1.1492
 3790TIP3   OH232860   5.493   1.459  12.777 -0.2176  0.6217 -0.6773
 3790TIP3    H132861   5.460   1.407  12.851 -1.2644  0.5014 -1.2117
 3790TIP3    H232862   5.469   1.408  12.699 -0.5244  1.4858 -1.1694
 3791TIP3   OH232863   0.933   4.288   5.818 -0.1995 -0.2128  0.1889
 3791TIP3    H132864   0.996   4.234   5.770  0.4617  0.4687  0.2809
 3791TIP3    H232865   0.885   4.225   5.872 -0.4568 -0.8893 -0.8095
 3792TIP3   OH232866   2.971   3.820   3.920 -0.5017  0.0009  0.2875
 3792TIP3    H132867   2.959   3.915   3.930  0.0449  0.3767 -1.8933
 3792TIP3    H232868   3.064   3.810   3.899 -0.9974 -0.7161 -1.7968
 3793TIP3   OH232869   3.402   4.777  16.578 -0.8083 -0.2617 -0.7848
 3793TIP3    H132870   3.395   4.869  16.606 -0.3321 -0.5335  0.2845
 3793TIP3    H232871   3.312   4.748  16.567 -1.1151 -0.4610  1.6627
 3794TIP3   OH232872   4.768   3.657  12.321  0.6760  0.2686 -0.3704
 3794TIP3    H132873   4.710   3.732  12.337 -0.2143 -0.5771  0.5246
 3794TIP3    H232874   4.813   3.643  12.405 -0.0770 -0.9393 -0.1400
 3795TIP3   OH232875   3.769   2.830  12.387  0.0209  0.6909  0.7956
 3795TIP3    H132876   3.853   2.786  12.398 -0.0555  0.2050 -0.4055
 3795TIP3    H232877   3.706   2.772  12.430  0.1295  0.3618  0.5244
 3796TIP3   OH232878   2.852   4.180   6.323 -0.0449  0.0758  0.0690
 3796TIP3    H132879   2.762   4.149   6.335 -0.3071  1.0709  0.8788
 3796TIP3    H232880   2.843   4.262   6.276  0.3590  0.5911  0.8606
 3797TIP3   OH232881   5.481   2.225   5.769 -0.0750  0.1115 -0.7144
 3797TIP3    H132882   5.518   2.152   5.817  0.2731  1.8601  1.8565
 3797TIP3    H232883   5.386   2.212   5.775 -0.0138 -0.3668 -0.7214
 3798TIP3   OH232884   6.157   5.445  15.895 -0.3638 -0.7423  0.0660
 3798TIP3    H132885   6.227   5.506  15.918  0.0121 -1.2089  0.1612
 3798TIP3    H232886   6.141   5.396  15.976 -3.0881  1.5587  1.1102
 3799TIP3   OH232887   3.359   1.487   1.325 -0.5205 -0.7800 -0.0800
 3799TIP3    H132888   3.376   1.581   1.335 -1.7834 -0.5989  0.5837
 3799TIP3    H232889   3.291   1.482   1.258 -1.7003 -1.0801  1.1035
 3800TIP3   OH232890   6.142   6.659  16.072  0.5217  0.3619 -0.2717
 3800TIP3    H132891   6.146   6.595  16.001  0.5617  0.9780 -0.8354
 3800TIP3    H232892   6.049   6.676  16.084  0.3072 -1.5920  1.5485
 3801TIP3   OH232893   1.678   6.447   1.740  0.5039  0.3424 -0.4808
 3801TIP3    H132894   1.613   6.488   1.798  1.2676 -0.0914  0.7270
 3801TIP3    H232895   1.688   6.359   1.774 -0.5048 -0.6337 -2.5575
 3802TIP3   OH232896   5.273   3.555   2.352 -0.2785  0.7776 -0.3628
 3802TIP3    H132897   5.239   3.495   2.418  0.3095  1.5270  0.6540
 3802TIP3    H232898   5.279   3.503   2.273  2.5078 -1.2774  1.0150
 3803TIP3   OH232899   4.473   4.541   5.999  0.0895  0.6615  0.3271
 3803TIP3    H132900   4.528   4.556   6.076 -0.7127  2.9300  0.5246
 3803TIP3    H232901   4.514   4.593   5.930 -0.0707 -0.1309 -0.3799
 3804TIP3   OH232902   2.032   6.578  13.825  0.2867 -0.1169 -0.0992
 3804TIP3    H132903   2.125   6.598  13.836  0.7757 -2.6894  1.0144
 3804TIP3    H232904   1.990   6.664  13.816  2.5391  1.1987  1.1723
 3805TIP3   OH232905   1.489   4.012   3.549 -0.0721 -0.5178  0.6897
 3805TIP3    H132906   1.402   3.978   3.568  0.4402 -1.0639  2.2057
 3805TIP3    H232907   1.488   4.102   3.582 -0.4715 -0.0151 -0.5917
 3806TIP3   OH232908   0.788   4.764   1.296  0.8573  0.3100 -0.0816
 3806TIP3    H132909   0.713   4.752   1.237 -0.2165 -0.6279  1.3935
 3806TIP3    H232910   0.823   4.676   1.309  1.4676  0.5871  0.1859
 3807TIP3   OH232911   0.219   1.781   5.448 -0.4434  0.0902 -0.8259
 3807TIP3    H132912   0.272   1.823   5.379 -1.7879 -0.8614 -2.5160
 3807TIP3    H232913   0.256   1.693   5.455  0.0543  0.3641  0.1159
 3808TIP3   OH232914   1.773   4.562  16.241 -0.7808 -0.2178  0.5677
 3808TIP3    H132915   1.717   4.637  16.221 -1.5883 -0.9451 -0.0039
 3808TIP3    H232916   1.722   4.511  16.303 -0.3025 -0.3761  0.8342
 3809TIP3   OH232917   3.634   1.267  11.782 -0.5373  0.0954  0.6422
 3809TIP3    H132918   3.703   1.331  11.800  0.2237 -0.0645 -1.4137
 3809TIP3    H232919   3.617   1.226  11.867  2.4227 -0.3419  1.1604
 3810TIP3   OH232920   3.166   2.716  15.215  0.0718  0.2372 -0.1416
 3810TIP3    H132921   3.251   2.692  15.253  0.7034  0.2356 -1.4760
 3810TIP3    H232922   3.146   2.644  15.155 -0.8947  0.2279  0.1801
 3811TIP3   OH232923   3.956   0.496  11.574  0.1691 -0.4817  0.0927
 3811TIP3    H132924   3.924   0.419  11.621 -0.1820 -1.3090 -1.4121
 3811TIP3    H232925   3.877   0.548  11.557 -0.2151 -1.6337 -2.0453
 3812TIP3   OH232926   3.206   0.980   3.252  0.0530  0.0099  0.1079
 3812TIP3    H132927   3.130   0.982   3.194 -0.0788 -0.8922  0.2276
 3812TIP3    H232928   3.201   1.061   3.302  0.0138  0.6702 -0.9432
 3813TIP3   OH232929   0.166   4.968   5.267 -0.2239 -0.6504 -0.1659
 3813TIP3    H132930   0.167   5.064   5.268  1.1962 -0.6241 -0.9697
 3813TIP3    H232931   0.103   4.945   5.199  0.6980 -0.2151 -1.2115
 3814TIP3   OH232932   0.380   5.743   0.628  0.5822 -0.5675  0.1865
 3814TIP3    H132933   0.359   5.660   0.672  0.0984 -0.1586  0.7585
 3814TIP3    H232934   0.446   5.784   0.684 -0.9993  0.5675  1.3187
 3815TIP3   OH232935   2.847   5.437   3.200 -0.5828  0.2517 -0.1691
 3815TIP3    H132936   2.929   5.488   3.193  0.2680 -1.2249 -1.5097
 3815TIP3    H232937   2.810   5.441   3.112 -1.2490 -0.2538  0.0904
 3816TIP3   OH232938   0.795   6.051   4.777  0.3663  0.5951 -0.4962
 3816TIP3    H132939   0.712   6.068   4.820  0.2805  0.1573 -0.4826
 3816TIP3    H232940   0.856   6.031   4.848  0.7252  1.8442 -0.4315
 3817TIP3   OH232941   6.119   6.063   1.208  0.3801 -0.0910  0.2096
 3817TIP3    H132942   6.165   6.108   1.136  0.4798 -1.1750 -0.4286
 3817TIP3    H232943   6.027   6.066   1.183  0.5323 -1.6810 -0.7136
 3818TIP3   OH232944   0.668   4.509   2.608  0.0553  0.1219 -0.0444
 3818TIP3    H132945   0.748   4.551   2.640 -0.4510  1.8775 -0.9198
 3818TIP3    H232946   0.604   4.522   2.678 -0.1377  1.0203 -0.3629
 3819TIP3   OH232947   2.497   3.541   4.253 -0.2569  0.0886  0.5429
 3819TIP3    H132948   2.492   3.634   4.277  0.6660  0.4071 -0.4097
 3819TIP3    H232949   2.432   3.531   4.184 -0.7606 -0.1223  1.0363
 3820TIP3   OH232950   1.030   3.612  12.623 -0.1167 -0.3197 -0.0648
 3820TIP3    H132951   1.029   3.573  12.535 -1.3879  1.4342 -0.8814
 3820TIP3    H232952   0.960   3.676  12.622  1.5074  1.5979  1.3821
 3821TIP3   OH232953   2.904   2.513   6.327 -0.1287  0.3031 -0.0735
 3821TIP3    H132954   2.838   2.558   6.274  0.2270  1.7896  0.6925
 3821TIP3    H232955   2.856   2.483   6.405 -0.6695 -1.9528 -1.1911
 3822TIP3   OH232956   0.276   1.941   2.742  0.7719  0.0411  0.7883
 3822TIP3    H132957   0.275   1.861   2.689 -0.5320  0.9659 -0.6560
 3822TIP3    H232958   0.339   1.923   2.811  0.9282 -2.0257  0.1682
 3823TIP3   OH232959   0.006   1.620  13.370  0.3013 -0.0649  0.0852
 3823TIP3    H132960  -0.016   1.542  13.320  0.7169 -0.4582  0.5121
 3823TIP3    H232961  -0.075   1.671  13.373 -0.5744 -1.4806  1.6452
 3824TIP3   OH232962   3.204   2.453  13.929 -0.1206 -0.4065  0.4717
 3824TIP3    H132963   3.139   2.501  13.878  0.0251 -0.8403 -0.1281
 3824TIP3    H232964   3.287   2.472  13.885  0.3064  0.9012  1.7745
 3825TIP3   OH232965   3.041   1.379  12.547  0.0352  0.1412  0.5714
 3825TIP3    H132966   3.061   1.403  12.456  1.7912 -1.9183  0.3354
 3825TIP3    H232967   2.976   1.444  12.575  0.8343  1.9851 -1.5286
 3826TIP3   OH232968   4.940   3.431  12.255 -0.0461 -0.3299 -0.3464
 3826TIP3    H132969   4.907   3.347  12.288 -0.7965 -0.4809 -1.4309
 3826TIP3    H232970   4.912   3.434  12.164  1.3544  0.4045 -0.7827
 3827TIP3   OH232971   4.348   0.635   0.151 -0.1405  0.3033  0.1339
 3827TIP3    H132972   4.425   0.689   0.164  0.1833 -0.4030  1.3050
 3827TIP3    H232973   4.319   0.655   0.062  3.0289 -1.4696 -1.4868
 3828TIP3   OH232974   3.357   1.640   6.258  0.3396  0.1328 -1.0177
 3828TIP3    H132975   3.450   1.620   6.245  0.0454 -1.5736 -0.6873
 3828TIP3    H232976   3.356   1.701   6.332  1.0639 -2.4426  1.2839
 3829TIP3   OH232977   0.378   5.952  12.023  0.4510  0.4067  0.2318
 3829TIP3    H132978   0.318   5.892  11.978 -0.4808  0.6593  1.1083
 3829TIP3    H232979   0.452   5.962  11.963  0.2306 -0.9545 -0.2953
 3830TIP3   OH232980   1.341   4.987   2.166 -0.3704  0.0611  0.1589
 3830TIP3    H132981   1.322   4.982   2.260 -0.3382  1.0461  0.2260
 3830TIP3    H232982   1.417   5.045   2.161  1.1584 -1.8465 -0.2965
 3831TIP3   OH232983   4.139   5.075  14.683  0.1429 -0.3064 -0.1494
 3831TIP3    H132984   4.218   5.055  14.634  0.3965  0.1608  0.0743
 3831TIP3    H232985   4.169   5.102  14.769 -0.3088 -1.2958  0.3338
 3832TIP3   OH232986   3.629   6.252   1.249  0.2718  0.2984  0.0261
 3832TIP3    H132987   3.611   6.159   1.231 -1.7526  0.7608 -0.5651
 3832TIP3    H232988   3.557   6.280   1.305  0.9236  1.4916  0.2947
 3833TIP3   OH232989   3.819   0.420  14.776 -0.3686 -0.1572  0.1163
 3833TIP3    H132990   3.759   0.428  14.850 -1.2452 -0.4537 -0.5394
 3833TIP3    H232991   3.888   0.484  14.793 -2.2143  2.0740 -0.3765
 3834TIP3   OH232992   3.050   0.652   2.544  0.3149  0.2367  0.4218
 3834TIP3    H132993   3.009   0.692   2.620 -2.0308 -3.3305  1.2493
 3834TIP3    H232994   3.103   0.581   2.580 -0.3776 -1.1620 -1.1768
 3835TIP3   OH232995   2.510   2.942  14.402  0.0604 -0.8188  0.5774
 3835TIP3    H132996   2.565   2.932  14.324  0.4278  0.0738  0.7094
 3835TIP3    H232997   2.479   3.033  14.398 -1.4516 -1.3022  0.4888
 3836TIP3   OH232998   0.609   5.448   6.533  0.1454  0.2222  0.4745
 3836TIP3    H132999   0.615   5.537   6.499  0.8440  0.3219  0.8481
 3836TIP3    H233000   0.674   5.399   6.483 -0.1569 -0.0511  0.3499
 3837TIP3   OH233001   2.187   2.738   1.640 -0.3784  0.2892 -0.5239
 3837TIP3    H133002   2.204   2.701   1.727 -1.6621 -0.0182 -0.3771
 3837TIP3    H233003   2.208   2.667   1.579  0.4709  0.4870 -0.4646
 3838TIP3   OH233004   3.378   6.755  11.791 -0.1517 -0.4086 -0.2013
 3838TIP3    H133005   3.434   6.679  11.809 -2.6006 -2.6434 -1.3842
 3838TIP3    H233006   3.372   6.758  11.695 -0.6340  0.8794 -0.1415
 3839TIP3   OH233007   2.243   3.188   1.153  0.3526  0.0643  0.4562
 3839TIP3    H133008   2.277   3.258   1.209  0.9168 -0.4475  0.7534
 3839TIP3    H233009   2.240   3.228   1.066 -0.7057  0.9193  0.8646
 3840TIP3   OH233010   3.157   1.889   3.957  0.1121  0.4947 -0.0102
 3840TIP3    H133011   3.180   1.807   4.002  0.3875  0.4725 -0.1922
 3840TIP3    H233012   3.082   1.923   4.007  1.5259  1.4041  1.6107
 3841TIP3   OH233013   3.257   0.490   2.665 -0.3299  0.5181  0.2538
 3841TIP3    H133014   3.274   0.397   2.652 -1.5031 -0.2078  3.0867
 3841TIP3    H233015   3.327   0.535   2.617  0.4624 -1.8009 -0.8989
 3842TIP3   OH233016   6.548   2.742   3.324 -0.1491  0.2277  0.5245
 3842TIP3    H133017   6.516   2.808   3.386  1.8770  0.3606  1.4881
 3842TIP3    H233018   6.589   2.675   3.378  1.4103  0.1916 -0.6257
 3843TIP3   OH233019   1.025   6.361   3.989  0.1708  0.1738  0.1582
 3843TIP3    H133020   1.104   6.413   3.978 -0.5905  1.6041  1.2076
 3843TIP3    H233021   1.054   6.284   4.039  0.8578  0.8170  0.7766
 3844TIP3   OH233022   2.777   3.786  12.032  0.1383 -0.6387  0.5824
 3844TIP3    H133023   2.748   3.853  12.094  2.2825 -0.8580  1.9097
 3844TIP3    H233024   2.810   3.836  11.957 -2.3610 -0.3717 -0.4487
 3845TIP3   OH233025   1.321   3.189  15.611 -0.4031 -0.5404 -0.4224
 3845TIP3    H133026   1.361   3.125  15.669  0.1393 -0.2879 -0.5119
 3845TIP3    H233027   1.263   3.138  15.554 -0.1649 -0.9180 -0.3276
 3846TIP3   OH233028   5.118   3.598   3.931  0.7615 -0.0138  0.2433
 3846TIP3    H133029   5.120   3.502   3.927 -0.1204 -0.0138 -0.6394
 3846TIP3    H233030   5.025   3.620   3.938  0.9406  0.7786  0.2262
 3847TIP3   OH233031   0.594   6.322  13.669  0.0467 -0.4128 -0.0632
 3847TIP3    H133032   0.512   6.341  13.713  0.3283 -1.4714  0.9808
 3847TIP3    H233033   0.659   6.314  13.739  1.5848  2.5653 -0.9547
 3848TIP3   OH233034   1.177   5.298  12.580 -0.3581  0.0165  0.4157
 3848TIP3    H133035   1.218   5.373  12.623 -0.5801  1.3812 -1.6047
 3848TIP3    H233036   1.196   5.310  12.487 -2.9662 -0.7986 -0.3066
 3849TIP3   OH233037   5.867   1.765  14.177  0.0334 -0.3521 -0.8186
 3849TIP3    H133038   5.947   1.719  14.201  0.9943  1.2169 -0.8758
 3849TIP3    H233039   5.869   1.768  14.081  0.1075  0.0439 -0.8043
 3850TIP3   OH233040   1.837   4.888   2.384 -0.4282 -0.4172  0.0271
 3850TIP3    H133041   1.858   4.810   2.434  0.9716 -0.8414 -1.1531
 3850TIP3    H233042   1.769   4.860   2.323 -0.5908 -0.4702  0.2330
 3851TIP3   OH233043   4.665   4.178   0.393 -0.6210  0.3532 -0.0398
 3851TIP3    H133044   4.623   4.254   0.353 -1.6067  0.4810  1.1913
 3851TIP3    H233045   4.665   4.197   0.487 -1.6595 -1.5429  0.3897
 3852TIP3   OH233046   4.168   5.962  16.269 -0.1250 -0.1279 -0.2781
 3852TIP3    H133047   4.200   6.036  16.217 -0.3767 -1.4577 -2.4351
 3852TIP3    H233048   4.074   5.960  16.253 -0.3084 -0.2298  0.7332
 3853TIP3   OH233049   0.522   5.898  17.054  0.2213  0.8682  0.4693
 3853TIP3    H133050   0.439   5.938  17.081 -0.6017 -0.2044 -0.3813
 3853TIP3    H233051   0.498   5.837  16.983  1.7744  0.7550 -0.0054
 3854TIP3   OH233052   0.128   1.183   1.054 -0.3281  0.0546  0.0840
 3854TIP3    H133053   0.174   1.236   0.989  1.6397  0.0484  1.3569
 3854TIP3    H233054   0.082   1.246   1.109 -0.1386  0.2519  0.0182
 3855TIP3   OH233055   4.238   4.376   5.804 -0.2357  0.2533 -0.0793
 3855TIP3    H133056   4.150   4.374   5.766 -0.1628  0.6716 -0.2768
 3855TIP3    H233057   4.297   4.386   5.729  0.2991 -3.7038 -0.4018
 3856TIP3   OH233058   4.970   0.718  11.961  0.2558  0.2730 -0.4226
 3856TIP3    H133059   4.932   0.739  12.046  1.6116  3.7113 -0.4947
 3856TIP3    H233060   5.017   0.636  11.975 -1.4033 -0.4341  1.4713
 3857TIP3   OH233061   1.616   6.526  16.458 -0.3028  0.0755 -0.5975
 3857TIP3    H133062   1.678   6.579  16.507 -1.4595  0.7425  0.1915
 3857TIP3    H233063   1.660   6.442  16.445 -0.0143 -0.1807  1.7464
 3858TIP3   OH233064   1.076   2.889  10.911 -0.5585  0.3926  0.0335
 3858TIP3    H133065   1.015   2.862  10.843  1.6585 -1.3504 -1.4185
 3858TIP3    H233066   1.163   2.868  10.875  0.9223  2.6041  2.0200
 3859TIP3   OH233067   4.753   0.014   6.342  0.0038  0.0829 -0.6647
 3859TIP3    H133068   4.813   0.040   6.412 -1.0636  0.7014  0.0422
 3859TIP3    H233069   4.804  -0.047   6.288  0.4887 -1.3659  1.3178
 3860TIP3   OH233070   4.552   2.568   2.711 -0.4594  0.2592 -0.0421
 3860TIP3    H133071   4.617   2.638   2.721  0.8579 -0.7047 -1.4785
 3860TIP3    H233072   4.483   2.608   2.657 -0.0467  0.6676 -0.2821
 3861TIP3   OH233073   6.449   6.811   0.694 -0.3829  0.1446 -0.5825
 3861TIP3    H133074   6.423   6.896   0.660 -0.1620  0.5454  0.2319
 3861TIP3    H233075   6.467   6.759   0.616  0.1722  1.0628 -1.0888
 3862TIP3   OH233076   4.906   2.730  13.602  0.0820  0.3179 -0.1347
 3862TIP3    H133077   4.988   2.696  13.567  0.2595 -0.7677  1.2314
 3862TIP3    H233078   4.918   2.727  13.697 -0.8016  2.0360  0.0672
 3863TIP3   OH233079   2.116   4.185  12.306 -0.3275 -0.0279 -0.4448
 3863TIP3    H133080   2.198   4.159  12.263  0.3391 -0.6170  1.1136
 3863TIP3    H233081   2.107   4.124  12.379  0.1850  2.7672  2.1088
 3864TIP3   OH233082   2.523   3.803   5.772  0.5737  0.0200  0.3453
 3864TIP3    H133083   2.443   3.843   5.808  0.9653  3.4877 -2.0495
 3864TIP3    H233084   2.590   3.820   5.837  0.2196  1.3173  0.4121
 3865TIP3   OH233085   3.640   1.867   4.324  0.1850 -0.1762  0.9831
 3865TIP3    H133086   3.688   1.785   4.314  0.7608  0.2703  0.0796
 3865TIP3    H233087   3.599   1.882   4.239 -1.0414 -0.2051  1.5354
 3866TIP3   OH233088   0.724   2.233  14.983  0.3417 -0.2434  0.4738
 3866TIP3    H133089   0.717   2.175  14.907 -0.6528  2.2986 -1.5387
 3866TIP3    H233090   0.806   2.280  14.970 -0.9944  1.9974 -0.5351
 3867TIP3   OH233091   6.747   1.680   4.326 -0.8211 -0.1043  0.5848
 3867TIP3    H133092   6.738   1.598   4.375  0.6965 -0.9880 -0.5059
 3867TIP3    H233093   6.780   1.652   4.240  1.4120  1.7397  0.7486
 3868TIP3   OH233094   5.465   2.580  13.061 -0.9447 -0.0431 -0.1763
 3868TIP3    H133095   5.542   2.567  13.117 -1.8315  1.4959  1.5196
 3868TIP3    H233096   5.501   2.609  12.977  0.3618 -0.5791  0.1707
 3869TIP3   OH233097   6.305   1.913   0.951  0.3392 -0.7803 -0.6217
 3869TIP3    H133098   6.222   1.880   0.916  0.7352 -1.4038 -1.0017
 3869TIP3    H233099   6.342   1.838   0.998  1.7560 -1.2720 -2.3893
 3870TIP3   OH233100   0.178   4.449  12.465 -1.0231 -0.6265 -0.1672
 3870TIP3    H133101   0.096   4.498  12.475  0.5980  1.9426  2.1650
 3870TIP3    H233102   0.162   4.365  12.507 -2.4713 -0.1833  0.1953
 3871TIP3   OH233103   6.427   1.290  12.852 -0.1551 -0.1380  0.9184
 3871TIP3    H133104   6.347   1.339  12.871 -0.6508 -0.2587 -0.7095
 3871TIP3    H233105   6.496   1.356  12.848 -0.4496  0.1632  0.7920
 3872TIP3   OH233106   5.433   3.357  13.502 -0.1742 -0.6951 -0.2163
 3872TIP3    H133107   5.478   3.329  13.422 -0.5607  1.4034 -1.2486
 3872TIP3    H233108   5.356   3.301  13.507 -0.2726 -0.7017 -1.4568
 3873TIP3   OH233109   6.108   3.270   4.256 -0.2353 -0.0879 -0.2404
 3873TIP3    H133110   6.096   3.332   4.328 -2.9165 -1.4933  0.6602
 3873TIP3    H233111   6.187   3.221   4.279 -0.8183 -0.2403  1.6055
 3874TIP3   OH233112   5.671   2.804   6.884 -0.4886 -0.1823 -0.7199
 3874TIP3    H133113   5.671   2.781   6.977  0.8695  0.1383 -0.6305
 3874TIP3    H233114   5.728   2.739   6.843  1.1785  1.3170 -0.8857
 3875TIP3   OH233115   2.536   5.819   2.066 -0.2140 -0.3396  0.2659
 3875TIP3    H133116   2.612   5.807   2.008 -0.4181  0.1359 -0.1042
 3875TIP3    H233117   2.479   5.745   2.046  0.0116 -0.5328  0.3293
 3876TIP3   OH233118   3.490   1.749  15.361  0.4881  0.0321  0.5853
 3876TIP3    H133119   3.403   1.756  15.321  0.9031  0.7221 -0.2405
 3876TIP3    H233120   3.488   1.811  15.434  0.8599  1.4499 -0.5579
 3877TIP3   OH233121   1.464   5.317  11.309  0.0846 -0.6706 -0.4570
 3877TIP3    H133122   1.536   5.379  11.322 -0.6844  0.4573 -1.4104
 3877TIP3    H233123   1.390   5.355  11.356 -0.7263 -0.2046 -2.0241
 3878TIP3   OH233124   5.656   2.250  16.363  0.2132  0.0192  0.4396
 3878TIP3    H133125   5.621   2.290  16.442  0.5046  0.1610  0.4961
 3878TIP3    H233126   5.743   2.288  16.352  0.1403  0.0690  0.0049
 3879TIP3   OH233127   1.973   3.488  14.927  0.7078  0.3353  0.1953
 3879TIP3    H133128   2.028   3.560  14.898  1.0340 -0.0537 -0.1736
 3879TIP3    H233129   1.883   3.520  14.916  0.8284  1.5149  2.1997
 3880TIP3   OH233130   1.079   1.543  11.352 -0.0680  0.5031 -0.3040
 3880TIP3    H133131   1.088   1.508  11.441 -0.8021 -2.0645 -1.1534
 3880TIP3    H233132   1.134   1.621  11.352  2.1896 -0.9175  1.6390
 3881TIP3   OH233133   6.097   4.723  11.818  0.2400  0.1535 -0.0237
 3881TIP3    H133134   6.057   4.802  11.782  0.4203  0.1719 -0.1853
 3881TIP3    H233135   6.191   4.743  11.822  0.6890 -0.9808 -2.5835
 3882TIP3   OH233136   0.640   6.462   1.857  0.2381  0.5300  0.5684
 3882TIP3    H133137   0.558   6.511   1.868  0.1883  0.4830  0.4210
 3882TIP3    H233138   0.619   6.374   1.889 -0.3249  0.0020 -1.1290
 3883TIP3   OH233139   2.500   0.333   3.079 -0.0534 -0.0230 -0.4962
 3883TIP3    H133140   2.422   0.339   3.134  0.1095 -1.2358 -0.1076
 3883TIP3    H233141   2.560   0.278   3.128  0.3654 -0.5495 -1.5679
 3884TIP3   OH233142   2.827   0.962   0.574 -0.4759 -0.4753 -0.1810
 3884TIP3    H133143   2.911   1.008   0.583 -0.7053 -0.0953  0.0561
 3884TIP3    H233144   2.783   1.005   0.501  0.3399 -1.9474 -1.6128
 3885TIP3   OH233145   0.377   0.991  16.917 -0.3361 -0.0298 -0.3509
 3885TIP3    H133146   0.468   1.012  16.895 -0.4238  0.5820 -0.1577
 3885TIP3    H233147   0.342   1.072  16.954 -1.3488  0.1429 -1.6305
 3886TIP3   OH233148   6.678   1.387   4.527  0.8130 -0.0464  0.5301
 3886TIP3    H133149   6.749   1.337   4.487  2.2169  1.2284  1.3295
 3886TIP3    H233150   6.693   1.378   4.621  0.7262  1.3393  0.6897
 3887TIP3   OH233151   3.474   5.734  11.531  0.0309 -1.0291 -0.3939
 3887TIP3    H133152   3.523   5.653  11.545  1.4441 -0.0754  0.3509
 3887TIP3    H233153   3.539   5.797  11.501 -0.7452  0.2189  0.4339
 3888TIP3   OH233154   1.087   6.307   3.590  0.7347 -0.1242 -0.3231
 3888TIP3    H133155   1.017   6.334   3.650  1.0534 -0.1759  0.0812
 3888TIP3    H233156   1.042   6.284   3.509  0.1354 -1.5110  0.3785
 3889TIP3   OH233157   4.151   1.662  16.432 -0.0961  0.1404 -0.0206
 3889TIP3    H133158   4.239   1.696  16.421  0.5705 -1.0165  1.3780
 3889TIP3    H233159   4.103   1.731  16.478  0.7363 -0.0817  1.2238
 3890TIP3   OH233160   3.833   5.721   3.147 -0.0356  0.1044  0.0572
 3890TIP3    H133161   3.783   5.768   3.080 -0.0973 -0.1826 -0.1011
 3890TIP3    H233162   3.910   5.687   3.100  0.2917  0.5185  0.2921
 3891TIP3   OH233163   1.932   1.442  17.210  0.4002 -0.4837 -0.2183
 3891TIP3    H133164   1.919   1.505  17.281 -0.8959 -0.3401 -0.5610
 3891TIP3    H233165   1.884   1.479  17.136 -0.0071 -1.6430 -0.5577
 3892TIP3   OH233166   1.421   0.167   5.382  0.2748  0.4479 -0.5977
 3892TIP3    H133167   1.466   0.244   5.346  1.0750  0.1018 -0.3529
 3892TIP3    H233168   1.491   0.115   5.421 -0.3912  0.0565  0.0772
 3893TIP3   OH233169   6.207   1.146   1.162  0.2581 -0.0924  0.0406
 3893TIP3    H133170   6.250   1.099   1.233  1.5841  1.9611  0.7011
 3893TIP3    H233171   6.127   1.181   1.201  0.5188  0.2622  0.2577
 3894TIP3   OH233172   2.237   1.438   2.322  0.1504 -0.0758 -0.0140
 3894TIP3    H133173   2.195   1.418   2.238 -1.0607  1.4128  0.1885
 3894TIP3    H233174   2.297   1.510   2.302 -0.4566  0.5735  0.4530
 3895TIP3   OH233175   4.764   2.091   3.075  0.3639  0.1032 -0.0965
 3895TIP3    H133176   4.707   2.149   3.023  0.4664  1.7421  1.5383
 3895TIP3    H233177   4.815   2.150   3.130  1.5575 -1.4944  0.5848
 3896TIP3   OH233178   4.184   3.965   4.502  0.3999 -0.5725 -0.0421
 3896TIP3    H133179   4.200   3.910   4.425 -1.2833  0.0225 -0.8753
 3896TIP3    H233180   4.175   3.903   4.574  1.7911 -1.1552 -0.3355
 3897TIP3   OH233181   4.769   0.817  11.463 -1.3627 -0.9918 -0.0563
 3897TIP3    H133182   4.781   0.827  11.557  1.8656  0.2996 -0.5035
 3897TIP3    H233183   4.721   0.895  11.436  1.6132  1.0102  0.0152
 3898TIP3   OH233184   3.481   0.148  11.909  0.2628 -0.6546  0.0436
 3898TIP3    H133185   3.423   0.221  11.885  2.2678  0.5619 -1.4957
 3898TIP3    H233186   3.436   0.070  11.876 -1.0882  0.0860  0.0538
 3899TIP3   OH233187   5.636   2.696   0.946 -0.2012  0.4481  0.6953
 3899TIP3    H133188   5.723   2.656   0.947  0.0537  0.9854  0.3065
 3899TIP3    H233189   5.582   2.634   0.897 -0.0738  0.0487  1.0493
 3900TIP3   OH233190   6.164   3.989   4.604 -0.4732  0.0641  0.2353
 3900TIP3    H133191   6.209   3.940   4.534 -2.2220 -0.0439 -0.8893
 3900TIP3    H233192   6.165   3.930   4.679 -1.0808 -1.0717 -0.6016
 3901TIP3   OH233193   4.026   0.258   6.655 -0.1293  0.0544 -0.5419
 3901TIP3    H133194   3.953   0.316   6.676 -0.1223  1.5753 -4.1765
 3901TIP3    H233195   4.104   0.305   6.684 -0.3607 -0.7103  1.5306
 3902TIP3   OH233196   3.552   5.664   6.331 -0.2313  0.4171  0.2322
 3902TIP3    H133197   3.462   5.641   6.306 -1.0467  2.3017  1.1740
 3902TIP3    H233198   3.570   5.610   6.408  1.0787 -2.9951 -2.2208
 3903TIP3   OH233199   6.521   6.716   0.043 -0.0029 -0.5269 -0.0062
 3903TIP3    H133200   6.462   6.786   0.017  0.8990  0.5353  0.7285
 3903TIP3    H233201   6.526   6.659  -0.034  0.0723  0.7847 -1.0016
 3904TIP3   OH233202   3.144   2.793  14.356 -0.4388  0.3506  0.0633
 3904TIP3    H133203   3.161   2.772  14.448  1.5487 -1.5503 -0.6327
 3904TIP3    H233204   3.092   2.719  14.324  1.1244 -0.3814 -0.9126
 3905TIP3   OH233205   2.979   6.046  13.915  0.2469  0.1041 -0.3642
 3905TIP3    H133206   2.994   5.951  13.915  0.9098  0.1852  0.8016
 3905TIP3    H233207   2.885   6.056  13.923  0.0872 -0.4490 -1.3953
 3906TIP3   OH233208   1.408   6.470  15.778 -0.1322  0.5412  0.2074
 3906TIP3    H133209   1.380   6.554  15.815 -2.4525  0.4716 -1.1395
 3906TIP3    H233210   1.479   6.492  15.718 -0.8537  1.6292 -0.2850
 3907TIP3   OH233211   4.240   5.271  11.566  0.1692 -0.1867  0.6753
 3907TIP3    H133212   4.230   5.353  11.517 -0.2184  1.5385  3.3657
 3907TIP3    H233213   4.321   5.284  11.617 -1.4621 -0.0412  3.4392
 3908TIP3   OH233214   4.728   1.135   5.758 -0.5276 -0.7921  0.3511
 3908TIP3    H133215   4.662   1.104   5.821 -2.1127 -0.0855 -0.8926
 3908TIP3    H233216   4.757   1.056   5.713 -1.1851 -1.0187  0.3094
 3909TIP3   OH233217   4.878   3.825   2.970  0.4847  0.4590  0.2014
 3909TIP3    H133218   4.972   3.823   2.989  0.4249 -2.2816  0.6088
 3909TIP3    H233219   4.872   3.826   2.875  1.0910 -2.6479  0.0061
 3910TIP3   OH233220   1.425   0.739  14.593 -0.0564 -0.4948 -0.3013
 3910TIP3    H133221   1.394   0.648  14.592  0.8795 -0.8289 -2.2466
 3910TIP3    H233222   1.410   0.771  14.504 -0.6228  1.3862  0.4155
 3911TIP3   OH233223   0.862   6.352   0.435 -0.0232 -0.2049  0.4597
 3911TIP3    H133224   0.946   6.361   0.389  0.7533 -1.8874  1.4749
 3911TIP3    H233225   0.860   6.427   0.494  0.3382  0.3384 -0.1960
 3912TIP3   OH233226   5.821   4.878   4.824 -0.2713  0.1728  0.4206
 3912TIP3    H133227   5.734   4.854   4.791  0.0104  0.0636 -0.2701
 3912TIP3    H233228   5.809   4.890   4.918 -1.1599  0.6998  0.2563
 3913TIP3   OH233229   0.701   4.608   6.156  0.2549 -0.3107 -0.1469
 3913TIP3    H133230   0.671   4.542   6.219 -0.1574 -0.1390 -0.1628
 3913TIP3    H233231   0.654   4.688   6.180  2.0386  0.4742  0.9797
 3914TIP3   OH233232   1.278   6.789  11.188 -0.1266  0.3066 -0.0033
 3914TIP3    H133233   1.219   6.768  11.260 -0.4072 -1.2987 -0.6702
 3914TIP3    H233234   1.349   6.839  11.229 -1.2458  1.1167  1.0303
 3915TIP3   OH233235   4.730   6.450  17.173 -0.3817  0.0059 -0.1954
 3915TIP3    H133236   4.687   6.439  17.258 -0.7954 -0.0352 -0.4094
 3915TIP3    H233237   4.799   6.383  17.173  0.7080  1.0891  0.7904
 3916TIP3   OH233238   3.048   1.352  10.468 -0.1690  0.2111 -0.1623
 3916TIP3    H133239   2.961   1.334  10.504  0.1106  1.3721  1.1910
 3916TIP3    H233240   3.040   1.439  10.429  0.2319  0.0674 -0.5683
 3917TIP3   OH233241   3.188   0.710   0.896  0.0183  0.2250  0.1925
 3917TIP3    H133242   3.178   0.641   0.962 -3.4980  0.1408 -0.1881
 3917TIP3    H233243   3.263   0.684   0.843 -1.2940 -3.5046 -0.0724
 3918TIP3   OH233244   4.067   1.493   0.259 -0.2684  0.2819  0.1978
 3918TIP3    H133245   4.044   1.509   0.351  2.2010 -0.2161  0.9719
 3918TIP3    H233246   3.988   1.454   0.221 -1.1168 -0.1571  2.2742
 3919TIP3   OH233247   5.622   3.195  14.541 -0.1390  0.5180  0.1397
 3919TIP3    H133248   5.626   3.117  14.485  0.0413 -0.2601  1.1982
 3919TIP3    H233249   5.642   3.268  14.483  2.3887 -0.4841 -0.3894
 3920TIP3   OH233250   3.089   1.470  11.360 -0.4990 -0.0726  0.6303
 3920TIP3    H133251   3.146   1.546  11.350 -0.0551 -0.6138 -1.1449
 3920TIP3    H233252   3.027   1.496  11.429 -0.4709  1.9532 -0.0538
 3921TIP3   OH233253   4.497   6.731  11.934  0.0021  0.5300  0.2767
 3921TIP3    H133254   4.510   6.762  11.844 -1.0976 -0.6669 -0.3341
 3921TIP3    H233255   4.406   6.754  11.954 -0.2754 -0.6532  0.4660
 3922TIP3   OH233256   6.422   1.980   5.851 -0.1645  0.1645 -0.0974
 3922TIP3    H133257   6.356   1.912   5.837 -0.5375  0.4578  0.2336
 3922TIP3    H233258   6.417   1.999   5.945  0.4319  0.1478 -0.0580
 3923TIP3   OH233259   1.322   0.036   2.200 -0.3794  0.5427 -0.1126
 3923TIP3    H133260   1.305   0.078   2.284  0.8689 -1.5005  1.2488
 3923TIP3    H233261   1.256  -0.034   2.194  1.1600 -1.0323  0.4994
 3924TIP3   OH233262   6.141   0.971  14.535  0.2857  0.5610  0.0753
 3924TIP3    H133263   6.207   1.020  14.584 -1.3551  1.0641  1.8825
 3924TIP3    H233264   6.105   1.034  14.473 -1.0312  1.4049  1.6261
 3925TIP3   OH233265   4.305   3.330  16.174  0.8490  0.2969 -0.3132
 3925TIP3    H133266   4.351   3.359  16.252  0.6599 -0.2779  0.0137
 3925TIP3    H233267   4.363   3.355  16.101  1.6675 -0.3668  0.0838
 3926TIP3   OH233268   2.458   3.364  14.043  0.0991  0.2122 -0.2373
 3926TIP3    H133269   2.367   3.389  14.029 -0.1052  0.6676  1.6190
 3926TIP3    H233270   2.454   3.273  14.072 -0.2035  1.2662  3.4971
 3927TIP3   OH233271   2.724   1.267  13.699 -0.1944 -0.4599  0.2001
 3927TIP3    H133272   2.788   1.197  13.692 -0.7684 -0.8734 -1.4914
 3927TIP3    H233273   2.692   1.262  13.789 -0.9844 -3.0881 -0.1381
 3928TIP3   OH233274   4.033   2.479  14.987 -0.1533 -0.8657  0.6443
 3928TIP3    H133275   4.000   2.426  15.059 -0.5151 -1.3942  0.1037
 3928TIP3    H233276   4.000   2.567  15.004 -1.1485 -1.2146  0.5513
 3929TIP3   OH233277   5.280   3.905  12.772  0.0967  0.5606 -0.8786
 3929TIP3    H133278   5.353   3.902  12.834  0.6283 -0.4357 -1.5261
 3929TIP3    H233279   5.245   3.816  12.770 -0.6121  0.8312 -1.1955
 3930TIP3   OH233280   1.973   0.671   3.496 -0.2052 -0.3216  0.1074
 3930TIP3    H133281   1.926   0.644   3.575  1.0207 -1.5560  0.4569
 3930TIP3    H233282   1.905   0.707   3.439 -1.0070  1.3491  2.0120
 3931TIP3   OH233283   1.718   6.356   5.974 -0.4258  0.2415 -0.3865
 3931TIP3    H133284   1.761   6.348   5.889 -2.4719 -1.5865 -1.3534
 3931TIP3    H233285   1.765   6.426   6.018  0.9815  0.9703 -2.8416
 3932TIP3   OH233286   2.366   2.482  16.949  0.1783  0.3409 -0.3268
 3932TIP3    H133287   2.454   2.518  16.957 -0.5040  2.1857 -0.5160
 3932TIP3    H233288   2.360   2.415  17.017  1.6751  0.2668 -0.2530
 3933TIP3   OH233289   5.285   3.026   1.589 -0.4756  0.4871  0.5267
 3933TIP3    H133290   5.261   3.106   1.541  3.0832  0.5704 -1.4327
 3933TIP3    H233291   5.238   2.956   1.545 -3.4150  1.2680  2.0835
 3934TIP3   OH233292   6.817   1.277  14.860  0.0186  0.1235 -0.2626
 3934TIP3    H133293   6.727   1.246  14.850 -0.0141 -0.7413  2.1913
 3934TIP3    H233294   6.829   1.338  14.787 -2.0283 -0.8588 -1.5294
 3935TIP3   OH233295   5.788   6.754   0.727  0.0975 -0.5623 -0.4406
 3935TIP3    H133296   5.859   6.787   0.672  0.0536 -1.0318 -0.7894
 3935TIP3    H233297   5.791   6.808   0.806 -0.8000  1.1323 -1.5208
 3936TIP3   OH233298   2.252   1.116  16.202 -0.2764  0.4690  0.3659
 3936TIP3    H133299   2.256   1.211  16.192  1.2602  0.3557 -0.4339
 3936TIP3    H233300   2.323   1.083  16.146 -0.7317 -1.1443  0.6857
 3937TIP3   OH233301   0.342   6.347  12.325 -0.1478 -0.0042  0.1092
 3937TIP3    H133302   0.333   6.255  12.347  0.2709  0.0868  0.7030
 3937TIP3    H233303   0.395   6.349  12.245 -0.6252 -0.2945 -0.2163
 3938TIP3   OH233304   1.632   4.516   0.821 -0.0805 -0.1426 -0.7782
 3938TIP3    H133305   1.710   4.531   0.767 -0.4630 -1.3837 -1.7397
 3938TIP3    H233306   1.633   4.422   0.839  0.1411  0.2747  1.6041
 3939TIP3   OH233307   3.385   3.857   5.986 -0.8054  0.6394 -0.7239
 3939TIP3    H133308   3.389   3.787   6.052 -0.8221  2.0749  0.8465
 3939TIP3    H233309   3.424   3.817   5.907  0.8613 -0.5985  0.6441
 3940TIP3   OH233310   0.789   5.027   0.954 -0.2826  0.0167  0.0831
 3940TIP3    H133311   0.814   5.050   1.043  1.0994  0.6786 -0.4497
 3940TIP3    H233312   0.694   5.042   0.951 -0.2370  0.6290  1.2377
 3941TIP3   OH233313   2.871   6.103   6.362 -0.1780  0.1776 -0.3678
 3941TIP3    H133314   2.794   6.158   6.345  0.7341  1.2683 -1.1808
 3941TIP3    H233315   2.934   6.130   6.294  1.3237  0.1368  0.9608
 3942TIP3   OH233316   5.959   3.423  13.528 -0.2410 -0.0831  0.1315
 3942TIP3    H133317   6.044   3.464  13.510 -1.0376  1.7220  0.3004
 3942TIP3    H233318   5.978   3.329  13.528  1.4572  0.1882 -1.3830
 3943TIP3   OH233319   3.493   6.698  12.775 -0.2192 -0.4960  0.3440
 3943TIP3    H133320   3.559   6.664  12.836  0.2450  2.7838  1.8953
 3943TIP3    H233321   3.524   6.669  12.689  1.9466 -1.0649  1.2327
 3944TIP3   OH233322   0.447   6.360  15.685 -0.7927 -0.2883  0.1448
 3944TIP3    H133323   0.499   6.281  15.698 -0.4934  0.0340  0.9976
 3944TIP3    H233324   0.511   6.429  15.669 -0.9338  0.1145  1.2211
 3945TIP3   OH233325   6.560   3.383   4.509  0.2112  0.2578  0.3074
 3945TIP3    H133326   6.590   3.410   4.596  2.3355 -0.9727  0.0112
 3945TIP3    H233327   6.627   3.415   4.450  0.7500 -2.1224 -0.4598
 3946TIP3   OH233328   0.477   0.716   5.185  0.1634 -0.5749 -0.0797
 3946TIP3    H133329   0.480   0.715   5.281 -0.0179  0.2797 -0.0593
 3946TIP3    H233330   0.557   0.670   5.158  0.2997 -0.6731  0.4806
 3947TIP3   OH233331   5.571   5.262   5.085  0.5622  0.1290  0.3290
 3947TIP3    H133332   5.610   5.291   5.002  1.3510  0.7998  0.9215
 3947TIP3    H233333   5.501   5.325   5.101 -0.9184 -1.1630 -0.8115
 3948TIP3   OH233334   0.468   4.014  14.513 -0.5411 -0.0351 -0.3144
 3948TIP3    H133335   0.502   4.085  14.458  0.1480 -1.0335 -1.2067
 3948TIP3    H233336   0.378   4.002  14.484 -0.5675  0.2704 -0.3609
 3949TIP3   OH233337   1.991   5.295   5.491 -0.3626  0.0462 -0.2581
 3949TIP3    H133338   2.041   5.241   5.553 -0.0135  0.4020 -0.2216
 3949TIP3    H233339   1.976   5.238   5.416 -0.0043 -0.1119 -0.2147
 3950TIP3   OH233340   3.377   1.620  12.513  0.2940 -0.5062  0.0030
 3950TIP3    H133341   3.322   1.600  12.590  1.7052 -0.9512  0.9338
 3950TIP3    H233342   3.415   1.536  12.488  3.2375  0.2201  1.5516
 3951TIP3   OH233343   1.494   2.040  12.524  0.8650  0.2621  0.4690
 3951TIP3    H133344   1.418   2.078  12.567 -0.0578 -0.3612 -0.5512
 3951TIP3    H233345   1.458   1.990  12.451  2.1512 -1.0997  0.7097
 3952TIP3   OH233346   3.163   1.215  11.372  0.4140  0.2528 -0.2095
 3952TIP3    H133347   3.143   1.309  11.368  1.2941  0.6164  2.2143
 3952TIP3    H233348   3.255   1.211  11.398 -0.0219 -1.2331  1.2571
 3953TIP3   OH233349   5.418   0.918  11.667  0.2653 -1.1833 -0.2886
 3953TIP3    H133350   5.383   0.840  11.708  2.7231 -1.8856  0.6760
 3953TIP3    H233351   5.459   0.887  11.586 -0.2399 -0.6071 -0.7741
 3954TIP3   OH233352   3.465   4.218  10.827 -0.0248 -0.0926 -0.2258
 3954TIP3    H133353   3.457   4.209  10.732  0.7065 -0.3374 -0.2681
 3954TIP3    H233354   3.437   4.308  10.844  0.3635  0.1321 -0.7412
 3955TIP3   OH233355   4.873   2.947   6.123 -0.7883 -0.1882  0.2026
 3955TIP3    H133356   4.884   3.020   6.185 -2.0954  0.0638  0.1762
 3955TIP3    H233357   4.827   2.880   6.174 -1.1249 -0.3055 -0.2475
 3956TIP3   OH233358   1.687   2.641  16.510  0.1103  0.4974 -0.6387
 3956TIP3    H133359   1.626   2.577  16.473  0.2667  0.8880 -1.6194
 3956TIP3    H233360   1.710   2.697  16.435  0.9298  0.9341 -0.0694
 3957TIP3   OH233361   0.563   0.739  13.334 -0.1658  0.1373 -0.5344
 3957TIP3    H133362   0.647   0.764  13.297 -0.2229 -0.5925 -1.1860
 3957TIP3    H233363   0.566   0.770  13.424  0.7909  0.1379 -0.5593
 3958TIP3   OH233364   1.435   2.509  15.734 -0.0713  0.1390 -0.0133
 3958TIP3    H133365   1.380   2.440  15.697 -0.5424  0.9461 -0.8954
 3958TIP3    H233366   1.380   2.588  15.728  0.8027  0.7671  0.0844
 3959TIP3   OH233367   5.590   6.200   1.807 -0.0309 -0.4779  0.4450
 3959TIP3    H133368   5.575   6.182   1.900 -0.8745 -1.3585  0.1516
 3959TIP3    H233369   5.681   6.174   1.792  0.5461  0.9284  1.3026
 3960TIP3   OH233370   6.582   1.549  14.716  0.0757  0.0008  0.2887
 3960TIP3    H133371   6.570   1.562  14.622 -1.1824  0.4819  0.4955
 3960TIP3    H233372   6.673   1.575  14.733  0.3116 -0.0911 -0.7788
 3961TIP3   OH233373   3.474   2.736   3.616 -0.1744 -0.4859 -0.1532
 3961TIP3    H133374   3.436   2.658   3.654 -1.4819 -0.0351 -0.4912
 3961TIP3    H233375   3.455   2.729   3.522 -0.4125  0.2850 -0.1692
 3962TIP3   OH233376   5.642   5.339   2.247 -0.2179  0.2415  0.5238
 3962TIP3    H133377   5.609   5.258   2.209  0.0294  0.2267  0.3340
 3962TIP3    H233378   5.669   5.314   2.336 -0.2491  0.1425  0.5062
 3963TIP3   OH233379   4.792   1.400  11.428  0.2959 -0.5742  0.5822
 3963TIP3    H133380   4.829   1.429  11.345  1.0418  0.5161  1.2826
 3963TIP3    H233381   4.826   1.311  11.439  1.9349  0.0372  0.7230
 3964TIP3   OH233382   1.903   5.903   4.121 -0.0302  0.0390  0.1587
 3964TIP3    H133383   1.958   5.981   4.126  1.0763 -0.7809  1.1533
 3964TIP3    H233384   1.838   5.915   4.190  0.3216 -0.0498  0.5080
 3965TIP3   OH233385   5.166   0.102   3.100  0.2913  0.1969 -0.6504
 3965TIP3    H133386   5.114   0.174   3.136  1.9015  0.6963  0.8213
 3965TIP3    H233387   5.120   0.077   3.019 -0.7206  2.3683 -0.8181
 3966TIP3   OH233388   6.755   2.096  12.247 -0.2135 -0.0040  0.6569
 3966TIP3    H133389   6.687   2.154  12.280 -0.5033  0.1857 -0.2511
 3966TIP3    H233390   6.837   2.142  12.266 -0.4910  1.8036 -1.9490
 3967TIP3   OH233391   1.733   5.773  15.189 -0.1089 -0.1630  0.8057
 3967TIP3    H133392   1.806   5.792  15.131 -0.1394  0.7658  1.0497
 3967TIP3    H233393   1.772   5.768  15.276 -0.2745 -0.0554  0.8871
 3968TIP3   OH233394   6.160   5.106  16.730 -0.6089 -0.2839  0.6250
 3968TIP3    H133395   6.072   5.125  16.697  0.1962  0.3602 -1.2988
 3968TIP3    H233396   6.190   5.033  16.676  0.8049  0.8663 -0.2164
 3969TIP3   OH233397   4.056   2.274  16.322 -0.1237  0.0510 -0.1175
 3969TIP3    H133398   4.004   2.210  16.371  0.2038 -0.8012 -0.8544
 3969TIP3    H233399   4.120   2.306  16.385 -0.5837 -0.0100  0.3867
 3970TIP3   OH233400   5.994   3.746   0.063  0.0822 -0.2150 -0.2794
 3970TIP3    H133401   5.902   3.767   0.081 -0.0735  0.3977 -1.6741
 3970TIP3    H233402   6.044   3.795   0.128 -0.5831 -1.3983  1.2096
 3971TIP3   OH233403   2.317   0.631  14.853 -0.3834 -0.0074  0.0947
 3971TIP3    H133404   2.256   0.561  14.878 -0.3130  0.3611  1.3566
 3971TIP3    H233405   2.396   0.612  14.903  0.3738 -0.1836 -1.1394
 3972TIP3   OH233406   2.192   6.670   1.844 -0.0222  0.2309  0.8629
 3972TIP3    H133407   2.186   6.592   1.900 -2.2971  0.0727  0.4832
 3972TIP3    H233408   2.138   6.736   1.888  1.4257  1.4544  0.8910
 3973TIP3   OH233409   6.383   4.388   5.039  0.2712 -0.2573  0.0055
 3973TIP3    H133410   6.309   4.333   5.063 -1.2591  1.2884 -0.9015
 3973TIP3    H233411   6.359   4.476   5.070  1.6789  0.2926 -0.3773
 3974TIP3   OH233412   4.049   5.835   0.486  0.0457 -0.5166  0.0984
 3974TIP3    H133413   4.051   5.803   0.577 -0.6544 -0.0597  0.2880
 3974TIP3    H233414   4.124   5.893   0.480 -0.3402  0.0601  0.6343
 3975TIP3   OH233415   5.290   5.398  17.229 -0.4689 -0.1207 -0.1557
 3975TIP3    H133416   5.265   5.484  17.193 -0.6591 -1.1280 -2.6626
 3975TIP3    H233417   5.207   5.353  17.243 -0.5167  0.8046  3.3778
 3976TIP3   OH233418   2.185   2.163   1.810 -0.1641  0.1367 -0.4979
 3976TIP3    H133419   2.180   2.104   1.735 -1.4620  1.8758 -1.8861
 3976TIP3    H233420   2.099   2.154   1.853 -0.7285  1.5839 -1.2471
 3977TIP3   OH233421   1.754   2.461  16.946 -0.7323  0.1187  0.3624
 3977TIP3    H133422   1.826   2.520  16.921 -1.5128  0.9771  0.0630
 3977TIP3    H233423   1.730   2.489  17.034 -0.7460 -0.1215  0.4341
 3978TIP3   OH233424   4.951   6.074   1.203  0.2539 -0.0035  0.7211
 3978TIP3    H133425   4.858   6.062   1.183 -0.1426 -0.0158  2.4616
 3978TIP3    H233426   4.993   5.996   1.167  0.1104  1.3885 -2.8608
 3979TIP3   OH233427   5.928   2.480  17.152  0.0892 -0.2556  0.1432
 3979TIP3    H133428   5.876   2.547  17.197  0.1525 -0.3964  0.4227
 3979TIP3    H233429   5.983   2.530  17.091  0.5739 -0.0045  0.7794
 3980TIP3   OH233430   3.377   0.364   1.821 -0.2949  0.0845 -0.3508
 3980TIP3    H133431   3.398   0.279   1.860  1.5196  0.7869  0.3130
 3980TIP3    H233432   3.434   0.370   1.744  0.0285  0.9460 -0.0508
 3981TIP3   OH233433   0.594   5.179   4.738  0.0601 -0.2877 -0.0554
 3981TIP3    H133434   0.677   5.154   4.779  0.8047 -0.5694 -1.6476
 3981TIP3    H233435   0.540   5.209   4.810  1.8685  0.7710  0.9541
 3982TIP3   OH233436   3.295   1.277   2.380  0.5568 -0.5503  0.4659
 3982TIP3    H133437   3.268   1.236   2.298 -1.0479  3.2994 -1.1861
 3982TIP3    H233438   3.258   1.221   2.449 -0.5938 -2.3425 -1.4785
 3983TIP3   OH233439   3.003   6.762  16.754 -0.2790  0.6439  0.0856
 3983TIP3    H133440   2.979   6.703  16.682 -0.7268  1.2899 -0.3057
 3983TIP3    H233441   3.098   6.774  16.744  0.3356 -2.1122  1.7932
 3984TIP3   OH233442   5.846   0.039   5.552  0.9806  0.0514  0.1955
 3984TIP3    H133443   5.774   0.102   5.561  1.5215  0.5652  1.0197
 3984TIP3    H233444   5.907   0.062   5.622  1.5796 -0.8773 -0.0064
 3985TIP3   OH233445   1.955   3.534   0.205  0.2280  0.7305  0.6367
 3985TIP3    H133446   1.939   3.548   0.298 -0.3173  0.9989  0.5084
 3985TIP3    H233447   1.953   3.622   0.167 -1.3014  0.5056  0.1108
 3986TIP3   OH233448   2.052   5.273  14.103 -0.3087  0.4528 -0.4880
 3986TIP3    H133449   2.047   5.359  14.146  1.1770 -0.1641  1.0264
 3986TIP3    H233450   2.011   5.213  14.165 -2.1112  0.1514 -1.9127
 3987TIP3   OH233451   6.149   4.441   3.381  0.0382 -0.5387  0.0051
 3987TIP3    H133452   6.066   4.481   3.353 -0.6623 -1.2946  0.9377
 3987TIP3    H233453   6.161   4.367   3.322  0.8575  0.4403 -1.1153
 3988TIP3   OH233454   5.976   0.660  13.123 -0.1130  0.3560  0.7155
 3988TIP3    H133455   6.070   0.648  13.137  0.4806  2.0643 -1.2981
 3988TIP3    H233456   5.965   0.655  13.028 -2.0949  0.0272  0.9188
 3989TIP3   OH233457   2.602   1.771  14.799  0.6158 -0.0813 -0.1872
 3989TIP3    H133458   2.546   1.695  14.782 -1.6536  1.6269 -0.8403
 3989TIP3    H233459   2.589   1.828  14.723 -0.4943  2.4625  1.7704
 3990TIP3   OH233460   5.628   0.769  17.252  0.3340  0.3911 -0.6125
 3990TIP3    H133461   5.619   0.845  17.195 -2.0136 -1.5716 -3.1517
 3990TIP3    H233462   5.679   0.707  17.200  1.7051 -0.0493  1.1689
 3991TIP3   OH233463   2.645   6.540   4.337 -0.6176 -0.2153 -0.0008
 3991TIP3    H133464   2.674   6.530   4.246  1.0585  1.2515  0.3314
 3991TIP3    H233465   2.725   6.558   4.386 -1.6886  0.5856  1.5173
 3992TIP3   OH233466   5.717   1.763   5.399 -0.3293  0.7075 -0.0809
 3992TIP3    H133467   5.798   1.775   5.350 -0.2659 -0.7050 -0.3716
 3992TIP3    H233468   5.682   1.851   5.410 -0.0636  1.1321 -2.1993
 3993TIP3   OH233469   6.272   3.068  16.887  0.1142  0.1345 -0.9915
 3993TIP3    H133470   6.347   3.073  16.827  0.0507 -1.0947 -1.1970
 3993TIP3    H233471   6.196   3.072  16.829  0.0340  0.2647 -0.8773
 3994TIP3   OH233472   5.949   3.989  13.847 -0.0952  0.3756 -0.6199
 3994TIP3    H133473   5.894   4.031  13.781  0.4382 -0.5034 -1.6639
 3994TIP3    H233474   6.031   4.037  13.843 -0.9455  2.1718  1.4620
 3995TIP3   OH233475   1.014   4.948  15.303 -0.3651  0.7420 -0.1988
 3995TIP3    H133476   0.991   4.856  15.292 -1.2505  1.0585 -1.0913
 3995TIP3    H233477   1.048   4.954  15.393 -0.1239 -0.4797 -0.1979
 3996TIP3   OH233478   5.666   3.775   3.706 -0.3608  0.0056  0.0884
 3996TIP3    H133479   5.678   3.861   3.665  2.4903 -0.2139  0.2823
 3996TIP3    H233480   5.639   3.794   3.795 -1.8878  0.6079 -0.4775
 3997TIP3   OH233481   5.021   2.131   3.331  0.4885 -0.3280 -0.3362
 3997TIP3    H133482   5.079   2.095   3.264 -0.4104 -0.7000 -0.9392
 3997TIP3    H233483   5.015   2.063   3.398 -1.3573 -1.4644 -1.5625
 3998TIP3   OH233484   5.700   5.282  13.074  0.4054 -0.0168  0.0241
 3998TIP3    H133485   5.696   5.377  13.086  2.2358 -0.0136  0.9341
 3998TIP3    H233486   5.698   5.247  13.164  1.4477 -0.7356 -0.2176
 3999TIP3   OH233487   3.452   1.896  13.465 -0.2835  0.4901 -0.2155
 3999TIP3    H133488   3.540   1.919  13.494  0.0406 -0.3329 -0.5131
 3999TIP3    H233489   3.439   1.807  13.497 -0.3526 -0.0223 -1.6058
 4000TIP3   OH233490   0.397   6.133  12.531 -0.1318  0.5596  0.2912
 4000TIP3    H133491   0.483   6.159  12.497 -0.5540  1.2855 -0.2367
 4000TIP3    H233492   0.359   6.079  12.461  0.0554 -0.1178  0.6981
 4001TIP3   OH233493   6.055   0.682  16.081  0.3309  0.5496 -0.4287
 4001TIP3    H133494   6.085   0.747  16.017  2.6839 -0.7260 -0.7398
 4001TIP3    H233495   5.975   0.646  16.043  2.8113 -1.8173 -4.0007
 4002TIP3   OH233496   6.555   6.566  15.585  0.2373 -0.3741 -0.2975
 4002TIP3    H133497   6.624   6.630  15.572  1.0564 -0.9408  1.0919
 4002TIP3    H233498   6.481   6.599  15.532  1.3829  0.4803 -1.4224
 4003TIP3   OH233499   6.169   2.678  13.921 -0.8725 -0.5514 -0.0838
 4003TIP3    H133500   6.198   2.591  13.950 -0.7605 -0.5537 -0.2021
 4003TIP3    H233501   6.154   2.726  14.002  3.1535  0.7295  0.1339
 4004TIP3   OH233502   5.389   2.474  15.053 -0.1320 -0.1232  0.2009
 4004TIP3    H133503   5.366   2.425  15.132 -0.1691 -2.2307 -1.0427
 4004TIP3    H233504   5.311   2.526  15.034 -0.4156 -0.2046  1.1054
 4005TIP3   OH233505   1.243   3.722   2.193 -0.5544  0.0482  0.0156
 4005TIP3    H133506   1.151   3.741   2.214 -0.3803  0.7620  0.1628
 4005TIP3    H233507   1.246   3.722   2.098 -0.6117  0.5010  0.0139
 4006TIP3   OH233508   6.261   0.482  16.988 -0.0132  0.0764  0.4828
 4006TIP3    H133509   6.260   0.387  16.998  0.6390 -0.0344 -0.4273
 4006TIP3    H233510   6.170   0.509  17.006 -0.4823 -0.8378 -0.4519
 4007TIP3   OH233511   2.698   3.075  16.332  0.0008 -0.2022  0.0250
 4007TIP3    H133512   2.733   3.027  16.407  0.0951  1.5215  1.1532
 4007TIP3    H233513   2.605   3.053  16.331 -0.0273 -0.1456  0.7514
 4008TIP3   OH233514   5.100   2.550   2.124 -0.0143 -0.2957 -0.0644
 4008TIP3    H133515   5.100   2.512   2.212  0.9130 -1.1959 -0.4339
 4008TIP3    H233516   5.093   2.475   2.065  3.1731 -0.1170 -0.8511
 4009TIP3   OH233517   5.937   0.883  12.948 -0.2284  0.2336  0.3938
 4009TIP3    H133518   5.938   0.812  12.884 -1.5344 -0.4033  1.0540
 4009TIP3    H233519   6.000   0.856  13.014 -0.5574 -0.2133  0.5293
 4010TIP3   OH233520   1.191   0.994   0.029 -0.2918  0.1601  0.0429
 4010TIP3    H133521   1.192   1.025   0.120  0.3477 -1.0180  0.4599
 4010TIP3    H233522   1.119   0.931   0.026  0.3660 -0.6133  0.0392
 4011TIP3   OH233523   3.430   5.200  14.801  0.1098 -0.0526 -0.2652
 4011TIP3    H133524   3.476   5.275  14.839  0.2092 -0.3323  0.1762
 4011TIP3    H233525   3.490   5.164  14.736 -0.7729  1.5293 -2.0545
 4012TIP3   OH233526   0.859   0.236  12.890 -0.1793 -0.6186  0.1072
 4012TIP3    H133527   0.921   0.246  12.963  3.0598  2.5416 -2.6558
 4012TIP3    H233528   0.782   0.287  12.917  1.8439  2.4748  0.6444
 4013TIP3   OH233529   5.809   1.656  12.197 -0.3796  0.2866 -0.1806
 4013TIP3    H133530   5.871   1.692  12.134 -2.2740  2.7662 -0.7320
 4013TIP3    H233531   5.730   1.639  12.147 -1.3207  0.5364  1.1637
 4014TIP3   OH233532   2.784   4.226   2.979  0.3698 -0.0187 -0.0691
 4014TIP3    H133533   2.776   4.134   3.004 -0.8717 -0.0490 -0.5491
 4014TIP3    H233534   2.726   4.237   2.904 -2.3291  1.9701  2.1134
 4015TIP3   OH233535   1.450   3.545   6.227 -0.2196 -0.2744  0.1032
 4015TIP3    H133536   1.457   3.556   6.321  0.5333 -0.6272  0.0979
 4015TIP3    H233537   1.473   3.631   6.191  0.7548 -0.4750  0.2124
 4016TIP3   OH233538   0.531   0.983   5.445  0.1948  0.0704 -0.2687
 4016TIP3    H133539   0.505   0.891   5.448 -0.6758  0.2954  2.2818
 4016TIP3    H233540   0.582   0.991   5.365  0.4731 -2.6779 -0.4902
 4017TIP3   OH233541   6.683   2.532   1.722 -0.1370 -0.0246  0.0995
 4017TIP3    H133542   6.602   2.531   1.774 -1.2809  0.0489 -1.5930
 4017TIP3    H233543   6.713   2.441   1.723 -1.0787 -0.3641 -0.4427
 4018TIP3   OH233544   3.092   2.869  16.403 -0.0059  0.5454 -0.4279
 4018TIP3    H133545   3.073   2.777  16.425  1.0456  0.4990  0.3345
 4018TIP3    H233546   3.187   2.875  16.404 -0.0772  1.9624  0.8439
 4019TIP3   OH233547   4.494   0.952   5.173 -0.4350 -0.1124 -0.7286
 4019TIP3    H133548   4.543   0.888   5.224 -0.1570 -1.1031 -2.2112
 4019TIP3    H233549   4.437   0.900   5.116 -0.4375  0.9597 -1.7402
 4020TIP3   OH233550   2.894   2.772   0.503 -0.0197 -0.0570 -1.0035
 4020TIP3    H133551   2.910   2.684   0.537 -1.3646  0.3146  0.7779
 4020TIP3    H233552   2.979   2.801   0.470  1.2729 -0.8282  1.3672
 4021TIP3   OH233553   6.597   4.749   2.739 -0.1678 -0.4668 -0.3511
 4021TIP3    H133554   6.676   4.735   2.687 -1.0820 -0.0363 -1.9458
 4021TIP3    H233555   6.568   4.661   2.763  1.0686 -0.6092  0.7442
 4022TIP3   OH233556   5.475   3.408   3.003 -0.8213  0.1169  0.5368
 4022TIP3    H133557   5.555   3.364   3.033 -0.0140  1.6338  0.7382
 4022TIP3    H233558   5.409   3.385   3.069  0.2909  1.3830  2.1984
 4023TIP3   OH233559   1.388   0.601   0.161 -0.6242  0.1155  0.1509
 4023TIP3    H133560   1.466   0.650   0.135  0.3030 -1.4666 -0.1188
 4023TIP3    H233561   1.347   0.656   0.228  0.3333  1.2880 -0.1901
 4024TIP3   OH233562   1.709   1.223  16.306 -0.0819  0.4197 -0.3079
 4024TIP3    H133563   1.670   1.181  16.382 -1.1210  0.7306 -0.6629
 4024TIP3    H233564   1.772   1.158  16.274  1.9522  1.1089  2.0145
 4025TIP3   OH233565   5.904   5.278  14.295  0.1469 -0.2724 -0.1364
 4025TIP3    H133566   5.941   5.295  14.208  2.9137  0.1452  1.0112
 4025TIP3    H233567   5.841   5.348  14.308  1.6907  1.3305 -0.7918
 4026TIP3   OH233568   5.508   5.331  15.779 -0.2670  0.0028 -0.3028
 4026TIP3    H133569   5.426   5.379  15.773 -0.7718 -0.5054  1.7811
 4026TIP3    H233570   5.483   5.240  15.761 -0.4782 -0.3811  1.7245
 4027TIP3   OH233571   3.607   5.386  14.929 -0.7727 -0.5299 -0.3225
 4027TIP3    H133572   3.643   5.454  14.872  0.5091 -1.0712 -0.1814
 4027TIP3    H233573   3.683   5.346  14.971 -1.7087  0.3631  2.3981
 4028TIP3   OH233574   4.982   2.738  12.108 -0.2323 -0.0565 -0.0513
 4028TIP3    H133575   4.898   2.694  12.115 -0.3013 -0.2752 -1.7298
 4028TIP3    H233576   5.046   2.674  12.141 -0.5739 -0.5223 -0.2750
 4029TIP3   OH233577   1.036   4.420   1.168 -0.3763  0.3909  0.0519
 4029TIP3    H133578   1.037   4.329   1.139  1.0421 -0.0661  1.3935
 4029TIP3    H233579   0.950   4.431   1.210 -0.8231 -0.1104 -0.7220
 4030TIP3   OH233580   1.742   1.072   1.977  0.3283 -0.1590 -0.0377
 4030TIP3    H133581   1.763   1.159   1.943 -0.2523 -0.8917 -2.4389
 4030TIP3    H233582   1.779   1.011   1.913  0.5046 -1.7083  1.4514
 4031TIP3   OH233583   4.094   0.070   2.666  0.6209 -0.4775  0.3182
 4031TIP3    H133584   4.066   0.054   2.757 -0.0065 -2.2722 -0.1568
 4031TIP3    H233585   4.141   0.154   2.670  0.2379 -0.3089  2.2174
 4032TIP3   OH233586   0.290   1.557   3.245  0.3427  0.1245 -0.2104
 4032TIP3    H133587   0.276   1.650   3.260  1.5093  0.1389  1.0018
 4032TIP3    H233588   0.311   1.521   3.331 -0.6927 -1.3956 -0.5383
 4033TIP3   OH233589   2.060   0.100   5.211 -0.2507 -0.2638  0.3590
 4033TIP3    H133590   2.014   0.131   5.132 -0.8334 -0.9426  0.4182
 4033TIP3    H233591   2.063   0.176   5.268  0.6471  0.3838 -0.5246
 4034TIP3   OH233592   4.926   2.376  12.481 -0.0387  0.1923 -0.2000
 4034TIP3    H133593   4.910   2.436  12.407 -1.7752 -1.2623 -1.0692
 4034TIP3    H233594   5.018   2.391  12.503  0.6921  0.4212 -2.9454
 4035TIP3   OH233595   3.252   0.564  13.785  0.7024 -0.2413 -0.3503
 4035TIP3    H133596   3.284   0.632  13.844  1.7117  1.1028 -2.2994
 4035TIP3    H233597   3.320   0.558  13.717 -0.5944 -1.3579 -1.6163
 4036TIP3   OH233598   3.340   0.623  10.754 -0.7026 -0.0210  0.1396
 4036TIP3    H133599   3.338   0.715  10.781 -0.0058  0.1116 -0.2065
 4036TIP3    H233600   3.359   0.627  10.660 -0.6307 -0.5153  0.1304
 4037TIP3   OH233601   3.148   4.464  12.884 -0.2302  0.4015 -0.5937
 4037TIP3    H133602   3.099   4.544  12.861 -1.8168 -0.6660 -1.1063
 4037TIP3    H233603   3.207   4.451  12.810 -0.6013  0.6265 -0.9395
 4038TIP3   OH233604   6.699   4.953   3.762 -0.0473 -0.2848 -0.0091
 4038TIP3    H133605   6.730   5.034   3.721 -0.2440  0.0444  0.4845
 4038TIP3    H233606   6.631   4.921   3.703 -0.3294  0.1822  0.0600
 4039TIP3   OH233607   1.952   2.619   0.788  0.1446 -0.7115  0.1861
 4039TIP3    H133608   1.937   2.695   0.732  0.5622 -0.5665  0.2661
 4039TIP3    H233609   1.884   2.625   0.855  2.1859  1.6021  2.3072
 4040TIP3   OH233610   5.466   1.617  13.096  0.3056  0.3538 -0.2461
 4040TIP3    H133611   5.557   1.644  13.110  0.4884  1.2845 -2.6545
 4040TIP3    H233612   5.438   1.668  13.019 -1.9045 -0.7051 -0.2061
 4041TIP3   OH233613   5.000   1.663  14.725  0.3026 -0.0108  0.3022
 4041TIP3    H133614   4.937   1.721  14.683  0.6273 -0.1926 -0.4395
 4041TIP3    H233615   4.960   1.642  14.810  0.2479  1.3929  0.6420
 4042TIP3   OH233616   0.636   5.967  11.886  0.3992 -0.1239  0.0959
 4042TIP3    H133617   0.620   6.059  11.864  0.2980 -0.2263 -0.2697
 4042TIP3    H233618   0.695   5.936  11.817  1.8121  0.1170  1.1591
 4043TIP3   OH233619   4.307   5.372  13.352 -0.4444 -0.3502 -0.1408
 4043TIP3    H133620   4.318   5.321  13.432 -0.4743  0.8903  0.6880
 4043TIP3    H233621   4.213   5.368  13.334 -0.6556  0.4409  0.6632
 4044TIP3   OH233622   3.467   0.719   0.317 -0.0221 -0.1262  0.2118
 4044TIP3    H133623   3.417   0.643   0.346 -0.1061  0.4383  1.5815
 4044TIP3    H233624   3.487   0.768   0.397  3.0892 -0.5176 -0.1950
 4045TIP3   OH233625   3.041   3.436   4.190  0.2257  0.1596 -0.2380
 4045TIP3    H133626   2.973   3.485   4.237  0.0996 -0.5309  0.3182
 4045TIP3    H233627   3.120   3.489   4.201 -0.0549  0.5939 -0.2554
 4046TIP3   OH233628   1.023   4.283  17.033 -0.0677  0.4767  1.0019
 4046TIP3    H133629   0.934   4.269  16.999 -0.3816  0.3486  1.8489
 4046TIP3    H233630   1.067   4.199  17.019  0.4897  1.0675 -1.0307
 4047TIP3   OH233631   0.665   0.114  16.471  0.3948 -0.2760 -0.6171
 4047TIP3    H133632   0.650   0.202  16.437 -0.5473 -0.4082 -0.5597
 4047TIP3    H233633   0.663   0.125  16.566  0.9092 -0.2592 -0.6057
 4048TIP3   OH233634   5.457   0.098  16.616 -0.2176 -0.0921 -0.5699
 4048TIP3    H133635   5.422   0.018  16.656 -0.6872 -0.0810 -0.9499
 4048TIP3    H233636   5.384   0.159  16.616  0.1692  0.3747 -0.1951
 4049TIP3   OH233637   1.449   0.907  13.225  0.5661 -0.0063  0.2815
 4049TIP3    H133638   1.355   0.893  13.238  0.5272  1.1075  1.3029
 4049TIP3    H233639   1.491   0.841  13.281  0.3882  0.5343  1.0621
 4050TIP3   OH233640   3.223   2.199   3.160  0.0383 -0.3711 -0.4159
 4050TIP3    H133641   3.306   2.244   3.175 -0.2189  0.7975 -2.1574
 4050TIP3    H233642   3.164   2.268   3.129 -0.9150 -1.5880 -1.4055
 4051TIP3   OH233643   5.141   5.144  15.002  0.0330  0.4093  0.4152
 4051TIP3    H133644   5.144   5.127  14.908  0.3356 -1.4580  0.7366
 4051TIP3    H233645   5.187   5.227  15.013  0.4010  0.4189 -1.0301
 4052TIP3   OH233646   2.585   1.159   6.003  0.7442 -0.3213  0.0333
 4052TIP3    H133647   2.571   1.253   5.989 -3.3273 -0.8180 -0.5326
 4052TIP3    H233648   2.626   1.153   6.089 -1.8983  2.0116  1.6447
 4053TIP3   OH233649   6.060   0.516   1.710  0.4865 -0.6259  0.0851
 4053TIP3    H133650   6.088   0.606   1.691 -1.6044 -0.0322 -0.4624
 4053TIP3    H233651   5.967   0.524   1.731  0.5762 -2.5063  1.4292
 4054TIP3   OH233652   0.110   2.502   2.561 -0.3428  0.5162  0.4616
 4054TIP3    H133653   0.051   2.470   2.629  1.0625 -0.7439  1.1249
 4054TIP3    H233654   0.198   2.490   2.597  0.4889 -0.7696 -1.7962
 4055TIP3   OH233655   1.318   4.859  15.156 -0.4501  0.0090  0.0159
 4055TIP3    H133656   1.290   4.882  15.067  0.8765  0.0472 -0.4188
 4055TIP3    H233657   1.282   4.929  15.211 -1.2579  0.0043 -0.4822
 4056TIP3   OH233658   3.009   2.991  13.640 -0.8522 -0.3460 -0.4138
 4056TIP3    H133659   3.038   3.083  13.636 -0.9340 -0.3679 -2.3911
 4056TIP3    H233660   2.955   2.980  13.561  1.0398 -2.6944 -1.4967
 4057TIP3   OH233661   3.392   4.956  12.163  0.8770 -0.0396 -0.7046
 4057TIP3    H133662   3.392   4.902  12.084 -0.1399  0.3614 -1.0061
 4057TIP3    H233663   3.484   4.969  12.183  1.1472 -1.4146 -0.9403
 4058TIP3   OH233664   3.344   4.595   3.981  0.0559  0.0581  0.2220
 4058TIP3    H133665   3.363   4.675   4.030 -0.4903 -0.4757  1.3301
 4058TIP3    H233666   3.381   4.525   4.034  0.4717 -0.4428 -0.7074
 4059TIP3   OH233667   1.090   0.204   3.751  0.1742 -0.7620 -0.3680
 4059TIP3    H133668   1.039   0.235   3.826  0.2577  0.4301 -0.7806
 4059TIP3    H233669   1.130   0.122   3.782  2.0592  0.8117  1.7366
 4060TIP3   OH233670   3.706   3.425   3.586  0.2372  0.6470 -0.3562
 4060TIP3    H133671   3.787   3.378   3.565 -0.3432 -1.3253  1.4814
 4060TIP3    H233672   3.640   3.387   3.527 -0.0112 -0.1729  0.4215
 4061TIP3   OH233673   2.590   6.558   4.768 -0.7290  0.1087 -0.2408
 4061TIP3    H133674   2.647   6.629   4.799  0.2083 -0.7866  0.1281
 4061TIP3    H233675   2.514   6.603   4.732 -0.1313  1.3104 -0.0553
 4062TIP3   OH233676   3.936   3.072  16.608  0.3350  0.1768  0.6649
 4062TIP3    H133677   3.932   3.090  16.702  0.0176  0.6555  0.5685
 4062TIP3    H233678   3.938   3.159  16.568  0.0776 -0.0217  0.2171
 4063TIP3   OH233679   0.194   2.078  13.987 -0.0666 -0.0708 -0.0571
 4063TIP3    H133680   0.199   2.092  14.082  2.5915 -0.7172 -0.0172
 4063TIP3    H233681   0.110   2.115  13.962 -0.6282  0.5818  2.4783
 4064TIP3   OH233682   5.431   6.231   4.645 -0.7453 -0.9705  0.2556
 4064TIP3    H133683   5.397   6.211   4.557 -1.6639 -0.6772  0.5295
 4064TIP3    H233684   5.388   6.168   4.702  1.3578 -2.4719  0.2618
 4065TIP3   OH233685   3.198   4.385  16.862 -0.3373 -0.3125  0.1383
 4065TIP3    H133686   3.281   4.432  16.853  0.0645 -0.9361  0.4628
 4065TIP3    H233687   3.224   4.293  16.866 -0.8697 -0.4115  2.3514
 4066TIP3   OH233688   2.455   4.719  14.861 -0.4770 -0.4946 -0.3548
 4066TIP3    H133689   2.427   4.805  14.892 -1.0425 -1.2120  1.2412
 4066TIP3    H233690   2.463   4.729  14.766 -0.7753  1.2392 -0.2294
 4067TIP3   OH233691   4.659   2.717   3.705  0.0524  0.1463  0.0369
 4067TIP3    H133692   4.667   2.809   3.677 -2.3955  0.0072 -1.3314
 4067TIP3    H233693   4.700   2.667   3.634 -0.6281  0.0860 -0.3171
 4068TIP3   OH233694   3.677   5.243  11.400 -0.0271 -0.2725 -0.3383
 4068TIP3    H133695   3.652   5.177  11.465  1.9373  0.4937  1.2942
 4068TIP3    H233696   3.672   5.197  11.316  0.0800 -2.1279  0.6143
 4069TIP3   OH233697   3.588   6.387   0.079  0.7154  0.0360 -0.6426
 4069TIP3    H133698   3.493   6.394   0.066  0.4531  1.0792  1.5027
 4069TIP3    H233699   3.598   6.317   0.143  1.3952  0.0375 -0.7463
 4070TIP3   OH233700   4.112   6.316  16.301 -0.1980  0.1553  0.1937
 4070TIP3    H133701   4.047   6.384  16.322 -0.8598 -1.0735  2.4695
 4070TIP3    H233702   4.196   6.361  16.310 -0.6232  0.7254  1.7226
 4071TIP3   OH233703   3.572   5.794  14.644 -0.5279 -0.1194  0.7573
 4071TIP3    H133704   3.569   5.700  14.627  0.1189  0.1642 -1.1589
 4071TIP3    H233705   3.482   5.824  14.626 -0.8031 -0.3837  1.6293
 4072TIP3   OH233706   3.139   1.097   1.520  0.1873 -0.1538  0.2838
 4072TIP3    H133707   3.122   1.189   1.537 -1.3917 -0.3385 -0.1237
 4072TIP3    H233708   3.211   1.074   1.580  0.2616  1.1995  0.7456
 4073TIP3   OH233709   4.784   6.271   1.868  0.1249 -0.3329  0.4955
 4073TIP3    H133710   4.857   6.333   1.861  0.1212 -0.4075 -0.2343
 4073TIP3    H233711   4.763   6.248   1.777  0.2255 -1.5181  0.7507
 4074TIP3   OH233712   5.615   3.766  14.638  0.4901 -0.2158  0.3678
 4074TIP3    H133713   5.649   3.815  14.564 -1.3252 -0.5550 -0.7456
 4074TIP3    H233714   5.646   3.676  14.624 -0.1729 -0.3594 -0.2047
 4075TIP3   OH233715   2.716   1.471  15.716 -0.2099 -0.4686 -0.4183
 4075TIP3    H133716   2.641   1.528  15.736 -0.4497 -0.8936 -0.0886
 4075TIP3    H233717   2.680   1.383  15.717  0.6264 -0.8387  1.5119
 4076TIP3   OH233718   4.607   5.787  11.043  0.1827  0.0128 -0.8198
 4076TIP3    H133719   4.691   5.751  11.071  0.0587 -0.4382 -1.0121
 4076TIP3    H233720   4.625   5.879  11.022  0.8796 -0.3608 -1.9632
 4077TIP3   OH233721   2.232   5.645  12.713 -0.3802 -0.2625 -0.0950
 4077TIP3    H133722   2.277   5.725  12.686 -0.3944 -0.3747 -0.4477
 4077TIP3    H233723   2.302   5.590  12.750  0.0070 -0.9311 -1.7378
 4078TIP3   OH233724   6.213   6.535   1.567  0.0600 -0.6394  0.1322
 4078TIP3    H133725   6.129   6.492   1.585 -0.3462 -0.0338 -0.2760
 4078TIP3    H233726   6.195   6.593   1.493  0.5730  0.2874  0.7150
 4079TIP3   OH233727   5.452   2.483  13.557  0.2615 -0.2635  0.5053
 4079TIP3    H133728   5.490   2.568  13.536 -0.5339 -0.3970 -1.7067
 4079TIP3    H233729   5.387   2.502  13.625  2.1860  0.3659  2.2853
 4080TIP3   OH233730   4.444   4.426   5.627  0.3431 -0.1662 -0.6383
 4080TIP3    H133731   4.499   4.372   5.571  0.4200  0.4627 -1.1774
 4080TIP3    H233732   4.505   4.480   5.677  0.4416 -2.4507  1.9613
 4081TIP3   OH233733   0.063   5.450  14.502  0.0609 -0.4363  0.2893
 4081TIP3    H133734  -0.010   5.393  14.478 -1.0386  0.4145  1.5343
 4081TIP3    H233735   0.083   5.498  14.422 -0.8648 -0.5471 -0.0186
 4082TIP3   OH233736   3.123   6.124   1.499  0.3537  0.2293  0.2774
 4082TIP3    H133737   3.069   6.087   1.429 -1.2600  2.3846  0.2765
 4082TIP3    H233738   3.163   6.202   1.460  0.9212  0.4145  1.2064
 4083TIP3   OH233739   6.746   1.466   2.113 -0.5640  0.0273 -0.1515
 4083TIP3    H133740   6.798   1.508   2.182  0.8501 -0.1639 -1.0448
 4083TIP3    H233741   6.766   1.373   2.123 -0.8559 -0.0632 -0.4239
 4084TIP3   OH233742   1.882   6.397   0.049  0.2418  0.3633 -0.0092
 4084TIP3    H133743   1.919   6.312   0.026  1.1511  0.6907  0.2232
 4084TIP3    H233744   1.885   6.400   0.144 -0.3254  0.4265  0.0103
 4085TIP3   OH233745   4.337   3.325   6.446 -0.1378  0.1041  0.0496
 4085TIP3    H133746   4.428   3.339   6.471 -0.4211  0.0294  1.1739
 4085TIP3    H233747   4.318   3.235   6.474 -0.4547  0.0033 -0.4831
 4086TIP3   OH233748   5.999   3.866   5.537  0.0479 -0.1818 -0.6780
 4086TIP3    H133749   5.979   3.920   5.460  0.5410 -0.0951 -0.7473
 4086TIP3    H233750   5.913   3.839   5.570 -0.2322  0.9683 -0.4110
 4087TIP3   OH233751   5.113   2.061  14.634 -0.2876 -0.2585  0.3617
 4087TIP3    H133752   5.051   2.052  14.707 -0.3880  0.9834  0.4585
 4087TIP3    H233753   5.171   2.132  14.662 -0.4073  0.3161 -0.8151
 4088TIP3   OH233754   2.300   6.312  15.457 -0.1868 -0.0544 -0.4840
 4088TIP3    H133755   2.287   6.355  15.542  1.3189 -0.6456  0.0833
 4088TIP3    H233756   2.335   6.380  15.400 -2.4308  0.6990 -1.0796
 4089TIP3   OH233757   5.046   4.340  15.255  1.1828  0.1926  0.1491
 4089TIP3    H133758   5.068   4.257  15.298  0.2804 -0.4070 -0.5119
 4089TIP3    H233759   4.981   4.380  15.313  0.9814  0.0312  0.0355
 4090TIP3   OH233760   5.503   3.473  14.815 -0.0330 -0.1267  0.1821
 4090TIP3    H133761   5.561   3.497  14.743 -0.2440 -2.1477 -0.7188
 4090TIP3    H233762   5.442   3.409  14.777 -3.2487  2.2196  0.9061
 4091TIP3   OH233763   6.184   3.012  13.999 -0.5930 -0.1424  0.1154
 4091TIP3    H133764   6.270   2.987  14.033 -0.2388  0.5923 -0.2212
 4091TIP3    H233765   6.138   3.046  14.076  0.1323  1.3222 -0.0589
 4092TIP3   OH233766   0.220   3.233   3.953  0.2867  0.1695 -0.1176
 4092TIP3    H133767   0.159   3.176   3.999 -0.8110  0.5965 -0.9946
 4092TIP3    H233768   0.228   3.310   4.009  3.0005 -1.4107  1.8519
 4093TIP3   OH233769   0.994   0.914  12.119 -0.1523  0.4910  0.2961
 4093TIP3    H133770   0.938   0.910  12.196 -0.3738 -0.5138  0.0956
 4093TIP3    H233771   1.031   1.002  12.121  0.5594  0.2091  2.0632
 4094TIP3   OH233772   2.622   0.221  11.506 -0.6406 -0.5155 -0.0382
 4094TIP3    H133773   2.673   0.302  11.505 -0.7212 -0.3900  2.2998
 4094TIP3    H233774   2.559   0.232  11.435 -0.7735  1.5723  0.3506
 4095TIP3   OH233775   0.866   0.936  14.872  0.0846  0.5325 -0.0282
 4095TIP3    H133776   0.777   0.950  14.903  0.6388  1.3942  1.2438
 4095TIP3    H233777   0.873   0.842  14.858 -0.5306  0.2626  1.4130
 4096TIP3   OH233778   2.681   0.493   4.298 -0.3191 -0.6683 -0.4464
 4096TIP3    H133779   2.769   0.456   4.305  0.7811  1.2964 -2.6402
 4096TIP3    H233780   2.682   0.568   4.359 -0.0601  0.0194 -1.2789
 4097TIP3   OH233781   1.632   1.962  11.874 -0.3006  0.5710 -0.1012
 4097TIP3    H133782   1.611   1.870  11.856  0.4314  0.1406  1.1186
 4097TIP3    H233783   1.720   1.974  11.838  1.0347 -0.2049  2.6772
 4098TIP3   OH233784   2.831   4.293   3.652 -0.3288  0.5226  0.1526
 4098TIP3    H133785   2.874   4.344   3.584 -0.1388  1.0600  0.6691
 4098TIP3    H233786   2.892   4.294   3.726 -0.1209 -0.8338  0.0296
 4099TIP3   OH233787   3.982   2.939  12.650  0.2974  0.4670 -0.1541
 4099TIP3    H133788   3.920   2.882  12.696  1.9109 -1.3501 -0.0759
 4099TIP3    H233789   3.953   3.028  12.671 -1.5468 -0.3010  0.8316
 4100TIP3   OH233790   0.420   4.545   5.499  0.1841 -0.0270 -0.5624
 4100TIP3    H133791   0.508   4.509   5.515 -0.3424 -1.3504 -0.5314
 4100TIP3    H233792   0.436   4.636   5.476  1.4393  0.3497  1.5126
 4101TIP3   OH233793   3.380   0.287   5.003 -0.0698 -0.1867 -0.5632
 4101TIP3    H133794   3.425   0.225   5.061  0.6009 -0.7046 -1.5959
 4101TIP3    H233795   3.336   0.231   4.938 -0.2572  0.3887 -0.9404
 4102TIP3   OH233796   4.495   5.736   0.525  0.3076 -0.4830 -0.0924
 4102TIP3    H133797   4.555   5.773   0.590  1.0581  0.6833 -1.3903
 4102TIP3    H233798   4.439   5.809   0.500 -1.1868 -1.3728  0.5185
 4103TIP3   OH233799   4.369   0.901  13.386 -0.3141  0.3024  0.4686
 4103TIP3    H133800   4.384   0.909  13.480 -0.3448 -1.0551  0.6203
 4103TIP3    H233801   4.455   0.912  13.346 -0.2625  0.6419  0.6682
 4104TIP3   OH233802   0.602   4.284  16.131  0.6624  0.1617 -0.4649
 4104TIP3    H133803   0.533   4.328  16.081  0.7326 -1.5827 -2.2124
 4104TIP3    H233804   0.601   4.193  16.100  2.1095 -0.5208  1.2601
 4105TIP3   OH233805   3.214   3.430   2.926  0.0299 -0.5583 -0.0384
 4105TIP3    H133806   3.305   3.416   2.900 -0.6471  1.5943 -4.5148
 4105TIP3    H233807   3.172   3.344   2.916  1.4580 -1.6301  2.3222
 4106TIP3   OH233808   3.772   0.925  14.491  0.1821 -0.1213  0.2664
 4106TIP3    H133809   3.808   0.841  14.520 -0.6978 -1.0065 -1.0924
 4106TIP3    H233810   3.837   0.960  14.430  1.0758  0.7675  1.6633
 4107TIP3   OH233811   3.142   3.529   3.193  0.4503  0.2589 -0.6742
 4107TIP3    H133812   3.198   3.489   3.127  1.5980 -0.4862  0.7018
 4107TIP3    H233813   3.171   3.620   3.197  0.5303  0.2491 -1.0174
 4108TIP3   OH233814   4.894   4.582   6.119 -0.1224  0.2245 -0.1313
 4108TIP3    H133815   4.954   4.527   6.170  1.0122  1.3860 -0.1819
 4108TIP3    H233816   4.808   4.564   6.157  0.5110  0.0159  1.2628
 4109TIP3   OH233817   0.263   2.310  16.456  0.2854  0.1932  0.4128
 4109TIP3    H133818   0.330   2.351  16.401 -0.4643  2.2842  0.9246
 4109TIP3    H233819   0.180   2.344  16.420 -0.2816  0.5105  1.9531
 4110TIP3   OH233820   4.718   3.175   3.396  0.1673  0.1709 -0.2416
 4110TIP3    H133821   4.653   3.111   3.366  0.8389  0.0005 -1.4072
 4110TIP3    H233822   4.671   3.229   3.460 -0.6281 -0.9919  0.1847
 4111TIP3   OH233823   0.002   5.742   6.587 -0.6031  0.1700  0.4125
 4111TIP3    H133824  -0.058   5.809   6.554 -1.4526 -1.5627 -1.8481
 4111TIP3    H233825   0.056   5.719   6.511 -0.5552 -1.8735  1.0114
 4112TIP3   OH233826   1.054   5.348   4.720 -0.2153 -0.0392  0.0574
 4112TIP3    H133827   0.991   5.416   4.696 -0.4956 -0.3757 -0.1793
 4112TIP3    H233828   1.131   5.396   4.750 -0.9960  0.3798  1.4737
 4113TIP3   OH233829   6.350   6.433  15.095 -0.8096 -0.5426 -0.3753
 4113TIP3    H133830   6.387   6.353  15.132 -0.6287 -0.3747 -0.1972
 4113TIP3    H233831   6.394   6.443  15.011  1.5739  1.1225  0.9679
 4114TIP3   OH233832   1.759   5.907  12.646  0.1947 -0.1547 -0.2735
 4114TIP3    H133833   1.764   6.001  12.629 -0.5150 -0.0676 -0.0444
 4114TIP3    H233834   1.847   5.883  12.676  1.1368 -0.0693 -2.7367
 4115TIP3   OH233835   4.572   1.234   3.274  0.6657  0.3926  0.7965
 4115TIP3    H133836   4.513   1.251   3.200  1.6047  0.1009 -0.0370
 4115TIP3    H233837   4.660   1.235   3.236  1.1675  0.1349  1.8977
 4116TIP3   OH233838   1.070   4.861   1.467 -0.3935  0.1235  0.2135
 4116TIP3    H133839   1.133   4.856   1.539  1.0146  0.1534 -0.9674
 4116TIP3    H233840   1.076   4.776   1.423  2.2550  1.5553 -2.5981
 4117TIP3   OH233841   1.955   3.618  13.486  0.6652  0.1899  0.5728
 4117TIP3    H133842   1.970   3.590  13.576  0.0536 -0.6389  0.4291
 4117TIP3    H233843   1.872   3.665  13.489  1.1344  1.0265  0.6111
 4118TIP3   OH233844   2.633   5.648   3.300 -0.6097  0.0480 -0.1653
 4118TIP3    H133845   2.728   5.646   3.289 -0.7153  0.5975 -1.3699
 4118TIP3    H233846   2.616   5.593   3.377  0.6849  0.0574  0.1495
 4119TIP3   OH233847   3.158   5.112  13.319 -0.1097  0.6213  0.2607
 4119TIP3    H133848   3.153   5.034  13.264 -2.1683  0.1803  0.9834
 4119TIP3    H233849   3.162   5.185  13.257  1.3802  0.0001 -0.4199
 4120TIP3   OH233850   4.087   1.498   1.335 -0.1985  0.6347 -0.5036
 4120TIP3    H133851   4.022   1.547   1.386  1.7597  1.8609  0.9742
 4120TIP3    H233852   4.074   1.407   1.360 -0.6306  0.9931  0.6340
 4121TIP3   OH233853   0.417   1.103   2.737  0.1045 -0.0076 -0.3195
 4121TIP3    H133854   0.410   1.105   2.642  1.0975  0.6264 -0.3875
 4121TIP3    H233855   0.484   1.037   2.755  0.8953  0.8241 -0.1350
 4122TIP3   OH233856   5.867   1.007   5.980  0.2204  0.9102  0.1708
 4122TIP3    H133857   5.920   0.941   6.024 -0.4474  0.6659  0.6218
 4122TIP3    H233858   5.920   1.034   5.904  0.0093 -0.9888 -0.7102
 4123TIP3   OH233859   1.167   2.112  14.250 -0.0396 -0.0828  0.2894
 4123TIP3    H133860   1.089   2.148  14.208 -0.8438 -0.2911  1.5605
 4123TIP3    H233861   1.134   2.047  14.311  1.0816  0.1812  1.2254
 4124TIP3   OH233862   6.243   2.878   5.790  0.1187  0.6099  0.5927
 4124TIP3    H133863   6.279   2.807   5.842 -0.0232 -0.8372 -1.2087
 4124TIP3    H233864   6.320   2.928   5.760  0.3350  0.1774  0.4272
 4125TIP3   OH233865   4.228   6.473  14.502 -0.5832 -0.3310 -0.3108
 4125TIP3    H133866   4.152   6.501  14.554 -0.7775 -1.1772 -0.1264
 4125TIP3    H233867   4.263   6.397  14.549  1.6550  1.2557  0.7794
 4126TIP3   OH233868   3.247   4.074   0.324 -0.1915 -0.1327 -0.2064
 4126TIP3    H133869   3.249   4.032   0.409 -1.1858 -0.0295 -0.1214
 4126TIP3    H233870   3.282   4.008   0.263 -1.1350 -0.8579  0.0182
 4127TIP3   OH233871   2.661   2.381   3.947 -0.1599 -0.1312 -0.3996
 4127TIP3    H133872   2.712   2.455   3.979 -2.2619  1.0825  0.3693
 4127TIP3    H233873   2.619   2.344   4.025 -0.2490 -1.2672 -0.9541
 4128TIP3   OH233874   3.983   3.530   4.333  0.2126  0.4424  0.7408
 4128TIP3    H133875   3.889   3.551   4.326  0.3410  1.0400  0.7341
 4128TIP3    H233876   3.994   3.454   4.276  0.1730  1.8531 -1.2543
 4129TIP3   OH233877   3.293   3.831   1.587 -0.2731  0.1724  0.5002
 4129TIP3    H133878   3.384   3.855   1.605 -0.5219  1.1643  0.5176
 4129TIP3    H233879   3.274   3.760   1.648  1.3919 -2.2089 -1.5535
 4130TIP3   OH233880   4.085   1.419  10.806  0.2829  0.3404 -0.4437
 4130TIP3    H133881   4.157   1.381  10.857  0.7687  0.0098 -1.3607
 4130TIP3    H233882   4.070   1.357  10.735 -0.9642  0.3693 -0.2428
 4131TIP3   OH233883   4.861   4.129   4.345  0.0783 -0.0899  0.1781
 4131TIP3    H133884   4.946   4.139   4.387 -0.4277  2.8181  0.7269
 4131TIP3    H233885   4.850   4.209   4.293 -1.8655 -0.8772 -0.7196
 4132TIP3   OH233886   2.869   2.017   1.907  0.1058  0.1856 -0.1128
 4132TIP3    H133887   2.963   2.008   1.926  0.2709  0.7931 -0.6172
 4132TIP3    H233888   2.826   1.964   1.975  0.7162  1.6238  1.4597
 4133TIP3   OH233889   2.871   5.666  15.959 -0.0952  0.3845 -0.8519
 4133TIP3    H133890   2.828   5.634  16.039  0.5779  0.2911 -0.5218
 4133TIP3    H233891   2.896   5.587  15.912  2.2010  0.3517  0.3010
 4134TIP3   OH233892   4.686   1.925  16.610 -0.0985  0.2458  0.2056
 4134TIP3    H133893   4.707   1.951  16.521 -2.5767 -0.6071 -0.7113
 4134TIP3    H233894   4.731   1.841  16.623 -1.2245 -0.5872 -0.9942
 4135TIP3   OH233895   4.945   2.588   4.407 -0.6092  0.0593 -0.1489
 4135TIP3    H133896   4.852   2.565   4.407 -1.1278  1.9928 -0.5957
 4135TIP3    H233897   4.948   2.677   4.373  1.4903 -0.1953 -0.7846
 4136TIP3   OH233898   0.518   6.549  16.440 -0.9906 -0.0743 -0.0775
 4136TIP3    H133899   0.573   6.623  16.415  0.1467  0.0363  2.4775
 4136TIP3    H233900   0.433   6.587  16.460 -0.4329  0.5530  1.1488
 4137TIP3   OH233901   3.403   0.448   4.633  0.5456 -0.3764 -0.1953
 4137TIP3    H133902   3.443   0.361   4.634  0.2986 -0.4862  0.4511
 4137TIP3    H233903   3.473   0.506   4.662  1.0331 -0.2046 -1.6317
 4138TIP3   OH233904   0.950   2.849  13.613  0.3451  0.1364 -0.2875
 4138TIP3    H133905   1.005   2.805  13.678  1.3024  0.3227 -0.9457
 4138TIP3    H233906   0.965   2.943  13.629  0.0714  0.1881 -0.3404
 4139TIP3   OH233907   4.600   6.230   2.527  0.0243  0.2148 -0.4156
 4139TIP3    H133908   4.523   6.281   2.553 -0.5351  0.4107 -2.3129
 4139TIP3    H233909   4.615   6.255   2.436  1.4387 -0.9443 -0.5238
 4140TIP3   OH233910   3.924   5.777   4.058 -0.4424  0.0524  0.7385
 4140TIP3    H133911   3.956   5.736   3.978 -0.6376  0.3055  0.5294
 4140TIP3    H233912   3.859   5.715   4.092  1.6195 -1.4154  2.2165
 4141TIP3   OH233913   6.237   2.821   2.193  0.4627  0.5163  0.1146
 4141TIP3    H133914   6.304   2.771   2.147 -0.6622 -0.8835 -0.0719
 4141TIP3    H233915   6.285   2.886   2.244  1.9353 -0.3588 -0.1235
 4142TIP3   OH233916   2.942   0.020  14.691  0.5473 -0.4404  0.4225
 4142TIP3    H133917   2.973  -0.071  14.693  1.1204 -0.2823  3.1829
 4142TIP3    H233918   2.958   0.049  14.601  1.5407 -2.6618 -0.1993
 4143TIP3   OH233919   3.331   6.349   4.734 -0.1260  0.3125  0.1255
 4143TIP3    H133920   3.388   6.293   4.787  0.9202  1.4345  0.2459
 4143TIP3    H233921   3.245   6.306   4.737  0.4301 -0.7980  0.9245
 4144TIP3   OH233922   2.671   5.316  15.797 -0.4573 -0.2318 -0.9273
 4144TIP3    H133923   2.600   5.319  15.733 -0.6483  0.1307 -0.6984
 4144TIP3    H233924   2.628   5.292  15.879 -0.6140  1.7262 -0.3893
 4145TIP3   OH233925   0.830   6.749  11.971 -0.2042  0.8158 -0.2778
 4145TIP3    H133926   0.768   6.695  12.021  0.0581 -0.7253 -1.5436
 4145TIP3    H233927   0.906   6.757  12.029 -0.1983 -0.3122 -0.1049
 4146TIP3   OH233928   0.179   3.329  13.160  0.2934  0.2851  0.2300
 4146TIP3    H133929   0.249   3.392  13.144  1.3678 -0.4833  1.7008
 4146TIP3    H233930   0.195   3.297  13.248 -1.0766 -0.9899  0.0555
 4147TIP3   OH233931   0.884   6.089   2.072 -0.0580  0.2009  0.1259
 4147TIP3    H133932   0.976   6.061   2.071 -0.6297 -1.8704 -1.1876
 4147TIP3    H233933   0.887   6.182   2.048  1.7387  0.4325  1.0823
 4148TIP3   OH233934   6.161   3.014   0.259 -0.1638  0.7745 -0.0731
 4148TIP3    H133935   6.180   3.102   0.228 -0.6836  1.5315  1.6612
 4148TIP3    H233936   6.065   3.010   0.262 -0.1368  0.3068  0.2665
 4149TIP3   OH233937   0.081   5.739  11.625 -0.4189  0.2295 -0.3304
 4149TIP3    H133938   0.085   5.675  11.554  0.9926 -0.5340  0.4073
 4149TIP3    H233939   0.143   5.807  11.600 -1.5585  1.1178 -0.8738
 4150TIP3   OH233940   1.559   5.932  14.490  0.5690  0.5784 -0.9076
 4150TIP3    H133941   1.582   5.839  14.484 -2.1079 -0.1205 -2.6496
 4150TIP3    H233942   1.512   5.950  14.408 -1.3573  2.7115  0.5193
 4151TIP3   OH233943   3.100   6.255  17.081 -0.4503 -0.0552 -0.5699
 4151TIP3    H133944   3.135   6.316  17.145 -0.7203  0.0530 -0.5255
 4151TIP3    H233945   3.047   6.308  17.022  0.2774 -0.0558 -1.2479
 4152TIP3   OH233946   0.668   3.266   3.437  0.3522  0.2631 -0.2931
 4152TIP3    H133947   0.726   3.220   3.498  1.5843  1.9875 -0.0845
 4152TIP3    H233948   0.604   3.200   3.411  1.8777 -1.4904  0.1510
 4153TIP3   OH233949   4.004   2.602  12.228  0.3215  0.1689 -0.8241
 4153TIP3    H133950   4.090   2.562  12.233  0.6554  0.9657  0.2205
 4153TIP3    H233951   4.010   2.679  12.285 -0.8556  0.6467 -1.3124
 4154TIP3   OH233952   5.432   4.055  15.283 -0.0259 -0.1172 -0.9528
 4154TIP3    H133953   5.434   4.116  15.209  0.7948 -1.6227 -2.2377
 4154TIP3    H233954   5.468   3.974  15.248  0.3780 -0.8955  1.1173
 4155TIP3   OH233955   0.366   1.083  16.066  0.7817 -0.3202 -0.0815
 4155TIP3    H133956   0.280   1.095  16.024  0.4059 -0.9580  0.4877
 4155TIP3    H233957   0.382   0.989  16.060  2.3789 -0.0048 -1.9659
 4156TIP3   OH233958   3.891   4.670  11.305  0.1410 -0.4208  0.7629
 4156TIP3    H133959   3.981   4.662  11.273 -0.2871 -3.0431  0.0052
 4156TIP3    H233960   3.868   4.761  11.286  1.8823 -0.2935 -1.1266
 4157TIP3   OH233961   3.490   1.519   2.435 -0.6425  0.3994  0.4738
 4157TIP3    H133962   3.437   1.454   2.482  1.0576 -2.2107 -0.9420
 4157TIP3    H233963   3.433   1.549   2.364 -0.9612 -0.8551  0.1612
 4158TIP3   OH233964   6.682   6.042   6.191 -0.1832 -0.3217 -0.0615
 4158TIP3    H133965   6.619   6.001   6.251  1.3390 -4.0900 -0.7777
 4158TIP3    H233966   6.749   6.080   6.249 -1.1964  0.5122  0.6113
 4159TIP3   OH233967   6.756   5.721   4.785 -0.0403  0.5863  0.1223
 4159TIP3    H133968   6.739   5.673   4.867  0.1651  0.3811  0.0459
 4159TIP3    H233969   6.754   5.813   4.810  0.4995  0.5117  0.4500
 4160TIP3   OH233970   1.955   4.818  12.864  0.3829 -0.5648 -0.1061
 4160TIP3    H133971   2.021   4.878  12.898 -0.4436 -0.9883  2.4569
 4160TIP3    H233972   1.997   4.732  12.865  0.5278 -0.5092 -0.7411
 4161TIP3   OH233973   3.655   4.364  16.701  0.1491 -0.2299  0.4420
 4161TIP3    H133974   3.587   4.431  16.716 -0.7436 -0.9058 -0.4325
 4161TIP3    H233975   3.655   4.352  16.606 -0.3452 -2.1103  0.6489
 4162TIP3   OH233976   2.880   3.489   4.955 -0.1645  0.2894  0.2283
 4162TIP3    H133977   2.812   3.422   4.964  0.4276 -0.3069  0.3145
 4162TIP3    H233978   2.834   3.572   4.971 -0.7673 -0.1427  0.7680
 4163TIP3   OH233979   2.848   6.062   1.656 -0.2897  0.3061 -0.2924
 4163TIP3    H133980   2.927   6.110   1.681 -0.6558  0.2707  0.9632
 4163TIP3    H233981   2.809   6.033   1.738 -1.3631 -0.0945 -0.9132
 4164TIP3   OH233982   4.921   6.264  12.046 -0.4315  0.2897  0.2474
 4164TIP3    H133983   4.864   6.276  11.971 -0.7165 -0.3350  0.3564
 4164TIP3    H233984   4.950   6.352  12.069 -0.6512  0.5221 -0.3500
 4165TIP3   OH233985   6.520   5.890  14.486  0.4211  0.0033 -0.2157
 4165TIP3    H133986   6.446   5.885  14.425 -0.5419 -0.0159  0.9180
 4165TIP3    H233987   6.597   5.875  14.431 -0.4034  0.0809 -1.4397
 4166TIP3   OH233988   5.762   3.581   2.806 -0.1100 -0.4209 -0.3729
 4166TIP3    H133989   5.802   3.494   2.808 -1.7849 -1.2167 -0.2643
 4166TIP3    H233990   5.805   3.628   2.878 -0.6114 -1.8389  0.9113
 4167TIP3   OH233991   2.661   1.414  12.586 -0.1698 -0.0630 -0.4847
 4167TIP3    H133992   2.662   1.388  12.678  0.6312 -0.4509 -0.6010
 4167TIP3    H233993   2.708   1.498  12.584  1.7336 -1.0992 -0.8378
 4168TIP3   OH233994   3.658   1.810   2.151  0.7099 -0.6531  0.8127
 4168TIP3    H133995   3.599   1.789   2.224 -1.5322  0.9055 -0.4389
 4168TIP3    H233996   3.615   1.774   2.074  0.3212  2.2130 -0.4065
 4169TIP3   OH233997   2.405   2.185   4.980 -0.2836 -0.1788 -0.4115
 4169TIP3    H133998   2.364   2.189   5.067  0.8843  0.7975  0.1149
 4169TIP3    H233999   2.498   2.170   4.998 -0.1146 -0.5340 -1.5258
 4170TIP3   OH234000   0.978   3.486   3.139 -0.2366 -0.2267  0.0974
 4170TIP3    H134001   1.063   3.525   3.122 -0.0563  0.2298  1.8654
 4170TIP3    H234002   0.918   3.560   3.146 -0.6206 -0.4946 -0.2911
 4171TIP3   OH234003   0.020   3.355   2.950  0.8505 -0.3642  0.4488
 4171TIP3    H134004  -0.005   3.264   2.933 -0.3708  0.2105 -1.1619
 4171TIP3    H234005   0.109   3.350   2.985  1.3750 -2.1206 -0.9633
 4172TIP3   OH234006   3.657   2.177   4.131  0.2244 -0.4504 -0.0676
 4172TIP3    H134007   3.630   2.217   4.049  2.8636 -2.0213 -1.8454
 4172TIP3    H234008   3.601   2.099   4.139 -0.6183  0.1554  0.1363
 4173TIP3   OH234009   1.002   4.640  12.928  0.2903 -0.3652  0.7298
 4173TIP3    H134010   1.080   4.600  12.890  0.5686  1.5925 -0.9127
 4173TIP3    H234011   1.035   4.705  12.990 -0.0461 -0.2777  0.8225
 4174TIP3   OH234012   3.977   4.861  10.543 -0.7316  0.7909  0.5485
 4174TIP3    H134013   4.062   4.895  10.516 -0.2744 -0.8034 -0.0698
 4174TIP3    H234014   3.986   4.847  10.637  0.3211 -1.0261  0.2241
 4175TIP3   OH234015   4.679   2.579   4.257 -0.0335  0.5528 -0.3342
 4175TIP3    H134016   4.591   2.576   4.219  0.8681 -0.2009 -2.5305
 4175TIP3    H234017   4.738   2.579   4.181  1.9032 -0.8417  1.0690
 4176TIP3   OH234018   3.356   4.462  15.575  0.3302 -0.2684  0.3293
 4176TIP3    H134019   3.261   4.469  15.582  0.2769 -0.8312  0.1882
 4176TIP3    H234020   3.379   4.528  15.509 -0.3339 -2.2956 -2.0734
 4177TIP3   OH234021   5.422   4.237   4.432 -0.0281  0.0853  0.2428
 4177TIP3    H134022   5.438   4.207   4.521 -0.1908  0.9376  0.5634
 4177TIP3    H234023   5.506   4.229   4.388 -0.3079 -1.9288 -0.0201
 4178TIP3   OH234024   4.697   3.877   4.925  0.2444 -0.4177  0.0156
 4178TIP3    H134025   4.747   3.955   4.947 -1.0515  0.1923  0.9195
 4178TIP3    H234026   4.609   3.909   4.906  0.0158 -1.5308 -0.8907
 4179TIP3   OH234027   2.433   0.897   0.584  0.1980  0.8977  0.0814
 4179TIP3    H134028   2.356   0.907   0.529  1.3109  3.0303 -1.2687
 4179TIP3    H234029   2.493   0.843   0.532  0.7072  1.7236 -0.2149
 4180TIP3   OH234030   0.563   4.518  15.094  0.1457 -0.8424  0.3860
 4180TIP3    H134031   0.472   4.507  15.120 -0.2934 -0.6887 -1.0258
 4180TIP3    H234032   0.610   4.535  15.176 -1.5728  2.4324  0.8227
 4181TIP3   OH234033   2.154   5.562  11.537 -0.1934 -0.6589  0.1198
 4181TIP3    H134034   2.185   5.634  11.483 -1.0601  0.5866  1.2377
 4181TIP3    H234035   2.059   5.564  11.529 -0.2786 -1.0906  0.8981
 4182TIP3   OH234036   0.712   1.213  11.003  0.3957 -0.6481 -0.1497
 4182TIP3    H134037   0.771   1.175  11.068  0.2584 -1.1544 -0.3188
 4182TIP3    H234038   0.625   1.182  11.027  0.2504 -0.2427 -0.1465
 4183TIP3   OH234039   4.889   0.089   6.579  0.0997 -0.1184  0.5443
 4183TIP3    H134040   4.838   0.168   6.561  0.9795  0.4004  0.3147
 4183TIP3    H234041   4.979   0.113   6.558  0.2460 -1.5050 -0.5558
 4184TIP3   OH234042   4.222   4.583   2.511  0.1771 -0.0199  0.3070
 4184TIP3    H134043   4.276   4.633   2.573 -0.4929  0.9403  0.1338
 4184TIP3    H234044   4.202   4.645   2.441  0.5895 -0.9795 -0.6972
 4185TIP3   OH234045   4.995   3.414   3.644  0.4238  0.4522  0.2101
 4185TIP3    H134046   5.008   3.499   3.686 -0.2323  0.2908  0.7537
 4185TIP3    H234047   5.019   3.350   3.712 -0.5706  0.1902  0.3291
 4186TIP3   OH234048   6.798   2.817  16.688 -0.7206 -0.4838 -0.5046
 4186TIP3    H134049   6.715   2.793  16.729 -0.7327 -0.9850 -0.8227
 4186TIP3    H234050   6.843   2.869  16.755 -0.2335 -2.2860  0.6337
 4187TIP3   OH234051   4.928   4.682   1.394  0.1483  0.0092 -0.1606
 4187TIP3    H134052   4.860   4.730   1.441  0.8003  0.7486  0.0536
 4187TIP3    H234053   4.881   4.614   1.346 -0.6774  0.1515  0.4260
 4188TIP3   OH234054   6.305   1.268  13.229 -0.6586  0.1651 -0.2227
 4188TIP3    H134055   6.334   1.196  13.285 -0.7887  1.3903  1.5008
 4188TIP3    H234056   6.302   1.231  13.141  0.6257 -1.5377  0.4068
 4189TIP3   OH234057   2.323   0.559  11.063 -0.1535 -0.3368  0.5986
 4189TIP3    H134058   2.396   0.501  11.044 -0.6599 -0.9670  0.5141
 4189TIP3    H234059   2.345   0.641  11.018  0.2099 -0.7249  0.0506
 4190TIP3   OH234060   0.646   2.054  11.953  0.4442 -0.1435 -0.5576
 4190TIP3    H134061   0.690   2.097  11.879  1.2265 -0.5693 -0.3499
 4190TIP3    H234062   0.562   2.025  11.917  0.3730  0.5825 -0.9922
 4191TIP3   OH234063   0.169   4.850   0.665  0.4118 -0.4616  0.0246
 4191TIP3    H134064   0.178   4.762   0.701  0.9907 -0.8172 -0.9421
 4191TIP3    H234065   0.095   4.843   0.604  1.1988 -0.6057 -0.9435
 4192TIP3   OH234066   3.702   3.468  11.726 -0.4951  0.5120 -0.2732
 4192TIP3    H134067   3.766   3.399  11.742  1.2066  2.1078  0.1715
 4192TIP3    H234068   3.708   3.525  11.802 -0.3838  2.2185 -1.4923
 4193TIP3   OH234069   0.911   4.399   3.421 -0.2338  0.1749  0.0159
 4193TIP3    H134070   0.836   4.385   3.479  0.1056 -0.9686  0.1950
 4193TIP3    H234071   0.943   4.311   3.401 -1.2669  0.3821 -3.1653
 4194TIP3   OH234072   4.088   4.790  14.725 -0.4458 -0.1980 -0.4346
 4194TIP3    H134073   4.088   4.882  14.753 -1.1719 -0.4212  0.2980
 4194TIP3    H234074   4.049   4.742  14.797 -0.1864 -1.0815 -0.8665
 4195TIP3   OH234075   2.711   3.237   0.711  0.7168  0.7766  0.2492
 4195TIP3    H134076   2.728   3.148   0.681  0.4468  0.7948  0.0392
 4195TIP3    H234077   2.629   3.261   0.669  1.1732  1.3977 -0.3085
 4196TIP3   OH234078   1.507   3.915  13.561 -0.0845 -0.3915 -0.5354
 4196TIP3    H134079   1.426   3.962  13.578 -0.5114 -1.2964  0.0164
 4196TIP3    H234080   1.479   3.829  13.531  0.4856 -2.3917  3.8841
 4197TIP3   OH234081   1.354   4.444   1.905  0.6075  0.4636 -0.3543
 4197TIP3    H134082   1.433   4.436   1.852  1.2362 -1.9062  0.8199
 4197TIP3    H234083   1.377   4.511   1.971  2.8306 -2.1174  1.7435
 4198TIP3   OH234084   0.062   0.692   4.725  0.3692  0.7425  0.1274
 4198TIP3    H134085   0.119   0.619   4.699  0.3723  1.5404 -2.3058
 4198TIP3    H234086  -0.026   0.656   4.720  0.4570  0.4291  0.6978
 4199TIP3   OH234087   3.179   1.920   4.720 -0.2969  0.0781  0.1152
 4199TIP3    H134088   3.139   1.979   4.656 -0.3223  0.6366  0.6384
 4199TIP3    H234089   3.254   1.968   4.754  0.9808 -1.0270 -0.9933
 4200TIP3   OH234090   5.066   2.752   3.437 -0.2127 -0.0096 -0.2371
 4200TIP3    H134091   5.068   2.729   3.344 -1.9875  1.1708 -0.6335
 4200TIP3    H234092   5.071   2.848   3.437  0.3004 -0.0288  0.9271
 4201TIP3   OH234093   5.904   3.492  15.869 -0.2992 -0.4400 -0.1675
 4201TIP3    H134094   5.972   3.433  15.833  0.0593 -1.3274  1.8279
 4201TIP3    H234095   5.823   3.442  15.860 -0.0283 -1.2203  1.3087
 4202TIP3   OH234096   3.724   5.107  15.341  0.2583  0.6032 -0.4125
 4202TIP3    H134097   3.789   5.165  15.302 -0.3655  0.7470 -1.2843
 4202TIP3    H234098   3.772   5.027  15.363  0.8332  0.9091 -0.5588
 4203TIP3   OH234099   3.412   1.205   4.193 -0.7377  0.2521  0.0472
 4203TIP3    H134100   3.412   1.301   4.202 -0.2034  0.0732  2.8346
 4203TIP3    H234101   3.468   1.174   4.264 -1.2016 -2.1713 -0.5520
 4204TIP3   OH234102   4.248   6.592  17.135  0.0604 -0.2238 -0.4895
 4204TIP3    H134103   4.289   6.653  17.197  0.8644  1.3995 -2.5037
 4204TIP3    H234104   4.218   6.520  17.189  1.5841  0.6461  1.6657
 4205TIP3   OH234105   3.570   2.301  16.947  0.2313  0.1175 -0.0678
 4205TIP3    H134106   3.560   2.341  17.033 -1.8648 -0.1148 -0.1338
 4205TIP3    H234107   3.607   2.370  16.892  0.4945  0.6418  0.7589
 4206TIP3   OH234108   5.609   2.961  14.417  0.1692  0.4209 -0.5356
 4206TIP3    H134109   5.543   2.946  14.349  0.3785  0.8810 -0.8452
 4206TIP3    H234110   5.587   2.898  14.486 -1.4213  1.4588 -0.0389
 4207TIP3   OH234111   2.243   2.157   2.391 -0.4470 -0.1897 -0.2627
 4207TIP3    H134112   2.153   2.182   2.412 -0.0417  0.1270  1.1967
 4207TIP3    H234113   2.295   2.236   2.409  0.1402 -0.3735 -1.0727
 4208TIP3   OH234114   0.969   2.493   5.889 -0.2729  0.4489  0.4309
 4208TIP3    H134115   0.934   2.573   5.929  0.7825  0.0751  2.2219
 4208TIP3    H234116   0.908   2.424   5.914 -0.3912  0.4511  0.1493
 4209TIP3   OH234117   6.400   3.068  11.366  0.1006  0.0882 -0.2496
 4209TIP3    H134118   6.307   3.091  11.354  0.0195  1.1266  1.7380
 4209TIP3    H234119   6.446   3.120  11.301 -0.6060  0.9564 -0.0804
 4210TIP3   OH234120   0.596   3.516  15.627 -0.1675  0.2153 -0.2083
 4210TIP3    H134121   0.592   3.573  15.550 -0.8832 -0.5388 -0.7451
 4210TIP3    H234122   0.653   3.563  15.688 -0.9281  1.6105 -0.5390
 4211TIP3   OH234123   6.603   2.456   5.029 -0.6686  0.1311 -0.0623
 4211TIP3    H134124   6.567   2.483   4.945 -1.9790  0.9323  0.7219
 4211TIP3    H234125   6.528   2.457   5.089  0.7093  2.6429  1.8361
 4212TIP3   OH234126   5.388   3.671  14.978 -0.5532  0.3524  0.4502
 4212TIP3    H134127   5.316   3.704  14.925  0.4315  0.5209 -0.8470
 4212TIP3    H234128   5.438   3.615  14.918  0.2006 -0.0473  1.4163
 4213TIP3   OH234129   3.546   6.579  13.541  0.2624 -0.1486 -0.7758
 4213TIP3    H134130   3.624   6.567  13.595 -1.7407 -3.5563  1.6661
 4213TIP3    H234131   3.551   6.509  13.476 -0.7256 -0.3598 -0.6326
 4214TIP3   OH234132   0.148   1.139  11.993  0.2614 -0.1140  0.2324
 4214TIP3    H134133   0.053   1.133  12.001  0.2019  0.1096 -0.2968
 4214TIP3    H234134   0.178   1.048  12.000 -0.0296 -0.2389 -0.1029
 4215TIP3   OH234135   1.574   0.120  15.868 -0.4135 -0.4907  0.0286
 4215TIP3    H134136   1.659   0.137  15.908  0.1474 -1.0505 -0.9005
 4215TIP3    H234137   1.589   0.046  15.810 -1.4514 -0.3663 -0.4129
 4216TIP3   OH234138   0.035   1.897  16.855  0.5356  0.8077  0.3983
 4216TIP3    H134139  -0.046   1.948  16.853  0.1354  0.1678  0.0670
 4216TIP3    H234140   0.032   1.843  16.776  1.5180  1.1193  0.1335
 4217TIP3   OH234141   0.212   0.990   2.866  0.0950  1.0104  0.3909
 4217TIP3    H134142   0.190   0.911   2.818  0.2409 -0.7827  3.0366
 4217TIP3    H234143   0.296   1.018   2.830 -0.5496  0.7186 -1.4205
 4218TIP3   OH234144   0.649   1.611   5.825 -0.8793 -0.1574 -0.3150
 4218TIP3    H134145   0.589   1.683   5.805  0.3052  1.0573  0.3252
 4218TIP3    H234146   0.638   1.597   5.919 -2.2174 -1.8928 -0.6946
 4219TIP3   OH234147   5.629   1.265  15.653  0.5001 -0.1749 -0.0600
 4219TIP3    H134148   5.612   1.177  15.619 -1.0344  0.0342  0.1176
 4219TIP3    H234149   5.676   1.309  15.582  1.5066 -1.1887 -0.0577
 4220TIP3   OH234150   3.396   2.694   4.881  0.4800  0.2554 -0.1751
 4220TIP3    H134151   3.485   2.675   4.912  0.3865 -2.2143 -1.1796
 4220TIP3    H234152   3.342   2.627   4.921 -0.8367  1.2590 -0.2061
 4221TIP3   OH234153   1.972   3.007  17.164 -0.3299 -0.0451  0.1046
 4221TIP3    H134154   1.976   2.998  17.069  1.6500 -2.3540  0.2892
 4221TIP3    H234155   1.909   2.940  17.192 -0.6173  0.3640  0.4588
 4222TIP3   OH234156   6.032   4.516   2.178  0.2715 -0.0030 -0.1015
 4222TIP3    H134157   6.127   4.525   2.184  0.3534  0.0901 -1.1784
 4222TIP3    H234158   6.019   4.424   2.154 -0.0816 -0.7207  2.5500
 4223TIP3   OH234159   0.561   1.766   4.286 -0.2076 -0.1056 -0.2239
 4223TIP3    H134160   0.501   1.789   4.215 -0.1797  0.1350 -0.1705
 4223TIP3    H234161   0.506   1.764   4.364 -0.1916 -0.1250 -0.2131
 4224TIP3   OH234162   2.688   3.073   2.305 -0.2228 -0.9463  0.1980
 4224TIP3    H134163   2.711   3.072   2.398 -0.3740  1.3119  0.3138
 4224TIP3    H234164   2.594   3.093   2.303 -0.5905 -2.5231 -0.4565
 4225TIP3   OH234165   2.708   6.194   6.061 -0.2940  0.1849 -0.2450
 4225TIP3    H134166   2.665   6.211   6.145  2.3008 -0.8756  1.4379
 4225TIP3    H234167   2.696   6.274   6.010 -1.3539  1.1235  1.4078
 4226TIP3   OH234168   5.394   5.816  11.481  0.1673 -0.3424  0.2731
 4226TIP3    H134169   5.320   5.758  11.497 -0.7870  0.5999 -0.5348
 4226TIP3    H234170   5.450   5.807  11.558 -0.5032 -1.4828  0.6449
 4227TIP3   OH234171   2.145   5.439  11.896  0.0704  0.9496  0.3703
 4227TIP3    H134172   2.198   5.519  11.891  0.9363  0.3331 -1.6234
 4227TIP3    H234173   2.202   5.374  11.936  0.1131  0.7988  0.0682
 4228TIP3   OH234174   2.292   1.097  16.608 -0.2050  0.4824 -0.5029
 4228TIP3    H134175   2.352   1.169  16.586  3.2900 -0.7116  3.6224
 4228TIP3    H234176   2.309   1.030  16.542  2.9829  0.3623  0.2517
 4229TIP3   OH234177   4.200   1.414  16.238 -0.1841  0.1904 -0.3397
 4229TIP3    H134178   4.121   1.468  16.238  0.4859  1.2126  0.8013
 4229TIP3    H234179   4.222   1.402  16.330 -0.9338 -3.0655 -0.4488
 4230TIP3   OH234180   1.939   3.805  11.457 -0.2839 -0.0773 -0.6144
 4230TIP3    H134181   1.865   3.788  11.398 -0.2203 -1.2315 -0.3775
 4230TIP3    H234182   1.978   3.719  11.472  2.0022  0.6468 -1.8530
 4231TIP3   OH234183   2.618   1.634  11.617 -0.0528 -0.3273  0.2223
 4231TIP3    H134184   2.572   1.676  11.690  1.8995 -0.4119  1.5839
 4231TIP3    H234185   2.598   1.689  11.542 -2.9450 -0.7917  0.5318
 4232TIP3   OH234186   0.345   2.367   0.496  0.1447 -0.1149  0.5674
 4232TIP3    H134187   0.425   2.348   0.447  1.2572 -0.0997  2.2809
 4232TIP3    H234188   0.347   2.462   0.507 -0.6616  0.0046 -0.2560
 4233TIP3   OH234189   5.024   3.313  10.785 -0.0927 -0.0124 -0.0355
 4233TIP3    H134190   4.994   3.244  10.726 -0.9908 -0.0687  0.4619
 4233TIP3    H234191   5.037   3.269  10.869 -2.0817  0.6305  0.6788
 4234TIP3   OH234192   4.270   1.372   4.197  0.4300  0.4239 -0.3228
 4234TIP3    H134193   4.352   1.332   4.224 -1.0292 -1.1816  2.0340
 4234TIP3    H234194   4.215   1.299   4.169 -1.4877  0.9075  1.8629
 4235TIP3   OH234195   5.267   0.577   2.583  0.3905  0.6418  0.1111
 4235TIP3    H134196   5.322   0.641   2.626 -0.4336  0.7498  1.0359
 4235TIP3    H234197   5.185   0.624   2.565 -0.1105 -0.0489  0.5230
 4236TIP3   OH234198   4.864   2.913  15.805 -0.5162  0.2567 -0.8665
 4236TIP3    H134199   4.936   2.899  15.744  1.5904  1.6553  1.1272
 4236TIP3    H234200   4.886   2.860  15.882 -1.4911  0.9045 -0.1034
 4237TIP3   OH234201   2.470   1.207  14.641 -0.0747 -0.3533 -0.0548
 4237TIP3    H134202   2.535   1.193  14.572  0.1980  0.4715  0.0236
 4237TIP3    H234203   2.513   1.179  14.721  1.7871  3.7980  0.6649
 4238TIP3   OH234204   0.978   0.405   2.093 -0.0886 -0.1692 -0.0218
 4238TIP3    H134205   0.954   0.497   2.087 -0.5126 -0.3145 -0.6666
 4238TIP3    H234206   1.060   0.404   2.142 -0.7590  0.4374  1.1431
 4239TIP3   OH234207   3.797   2.540   5.691  0.6026 -0.5446 -0.9170
 4239TIP3    H134208   3.852   2.472   5.652 -0.2134 -1.9275  0.2967
 4239TIP3    H234209   3.835   2.556   5.777 -0.5250 -1.0776 -0.3063
 4240TIP3   OH234210   2.887   6.002   0.298  0.5421  0.1356  0.0485
 4240TIP3    H134211   2.939   6.042   0.228  1.5696  0.6816  1.1115
 4240TIP3    H234212   2.948   5.990   0.370 -0.7368  0.5438  1.2397
 4241TIP3   OH234213   1.118   4.448  14.353  0.0967  0.0885 -0.2981
 4241TIP3    H134214   1.126   4.360  14.389  1.4648  0.0854 -0.5451
 4241TIP3    H234215   1.046   4.442  14.291  0.1288 -0.8439 -0.2646
 4242TIP3   OH234216   0.743   1.977   0.061  0.4650 -0.1896  0.1363
 4242TIP3    H134217   0.706   2.063   0.043  1.1035  0.1944  0.6127
 4242TIP3    H234218   0.668   1.918   0.061 -0.1453  0.5665  1.0819
 4243TIP3   OH234219   3.052   1.930  16.512  0.0332  0.1449  0.0824
 4243TIP3    H134220   3.078   1.914  16.603 -0.4012 -2.6014 -0.2077
 4243TIP3    H234221   2.973   1.877  16.500  0.9284 -0.7833 -2.3106
 4244TIP3   OH234222   2.163   1.032   4.971 -0.1170 -0.5754 -0.0733
 4244TIP3    H134223   2.114   1.114   4.984  1.2126  0.6061 -2.0013
 4244TIP3    H234224   2.248   1.048   5.013  0.6139 -0.4231 -1.5272
 4245TIP3   OH234225   5.993   6.041   6.324  0.1758  0.1082  0.1470
 4245TIP3    H134226   6.021   6.132   6.318  1.3227 -0.2041  0.4030
 4245TIP3    H234227   6.074   5.992   6.340 -0.4902 -0.8933  0.5926
 4246TIP3   OH234228   4.798   3.934  11.733  0.0445 -0.4365  0.3596
 4246TIP3    H134229   4.856   3.916  11.658  1.1297  0.0260  1.0620
 4246TIP3    H234230   4.792   3.850  11.779  0.5668 -0.3768  0.5487
 4247TIP3   OH234231   5.468   1.475   0.746 -0.6315  0.1117 -0.5633
 4247TIP3    H134232   5.506   1.520   0.821 -0.9832  1.0491 -0.9348
 4247TIP3    H234233   5.482   1.382   0.764  0.7693  0.3889 -0.1365
 4248TIP3   OH234234   6.448   0.158   5.141 -0.4192  0.1461 -0.1602
 4248TIP3    H134235   6.455   0.064   5.125  0.0617  0.6826 -3.8871
 4248TIP3    H234236   6.442   0.197   5.054  1.6929  3.7701  1.1047
 4249TIP3   OH234237   5.458   4.040  14.305  0.5847 -0.3684  0.2896
 4249TIP3    H134238   5.431   3.989  14.228  0.9766 -1.4639  0.8607
 4249TIP3    H234239   5.377   4.078  14.338  0.3180 -0.4299 -0.2851
 4250TIP3   OH234240   5.828   2.984   1.720  0.1437 -0.0785 -0.2917
 4250TIP3    H134241   5.819   3.076   1.747  1.0332  0.3899 -1.5404
 4250TIP3    H234242   5.886   2.946   1.786 -0.4341  0.1641  0.3813
 4251TIP3   OH234243   3.796   0.685   5.292  0.1674 -0.2356 -0.0853
 4251TIP3    H134244   3.877   0.713   5.336 -0.4474  0.6365  0.5240
 4251TIP3    H234245   3.826   0.645   5.211  1.1826  0.6514 -0.1739
 4252TIP3   OH234246   4.686   3.177  16.558 -0.5356 -0.1276  0.7857
 4252TIP3    H134247   4.593   3.200  16.567 -0.8935 -0.3909 -1.6467
 4252TIP3    H234248   4.727   3.213  16.637 -2.5978  0.4676  1.6577
 4253TIP3   OH234249   4.074   2.565  12.861 -0.1850 -0.0362 -0.5158
 4253TIP3    H134250   4.125   2.534  12.936  1.0574 -0.5991 -1.5385
 4253TIP3    H234251   4.133   2.553  12.786 -2.5450 -2.7214 -2.1201
 4254TIP3   OH234252   5.157   2.876  11.511  0.3940  0.5672 -0.5561
 4254TIP3    H134253   5.193   2.962  11.494 -1.2946  1.1095 -1.6377
 4254TIP3    H234254   5.182   2.857  11.602  4.6912  0.1388 -1.6079
 4255TIP3   OH234255   0.405   4.581   6.116 -1.0504  0.4025 -0.1929
 4255TIP3    H134256   0.408   4.593   6.211  0.0757  0.2805 -0.2018
 4255TIP3    H234257   0.465   4.508   6.099  0.8457  2.1121 -1.2445
 4256TIP3   OH234258   2.826   6.080   4.635 -0.6181 -0.5005  0.0284
 4256TIP3    H134259   2.741   6.076   4.679  0.1199 -0.1153  1.5741
 4256TIP3    H234260   2.808   6.122   4.551 -1.9381 -0.3758  0.3500
 4257TIP3   OH234261   0.553   2.011   2.014 -0.6792 -0.1528  0.2887
 4257TIP3    H134262   0.465   2.045   1.998 -1.2716 -1.2507  1.0730
 4257TIP3    H234263   0.610   2.068   1.963 -1.9540 -0.1854 -1.2560
 4258TIP3   OH234264   2.083   1.424   0.354 -0.1411  0.0496  0.3816
 4258TIP3    H134265   2.068   1.376   0.435 -0.3352  1.5719  1.2701
 4258TIP3    H234266   2.151   1.373   0.309 -0.3702 -1.0707  1.2631
 4259TIP3   OH234267   5.105   3.735  16.744 -0.3944  0.0538 -0.1171
 4259TIP3    H134268   5.152   3.694  16.816 -0.0938  0.6299  0.0230
 4259TIP3    H234269   5.049   3.800  16.787  1.0968  1.6739 -0.5036
 4260TIP3   OH234270   0.622   0.483  14.091  0.0544  0.0002 -0.2677
 4260TIP3    H134271   0.629   0.521  14.004 -0.2948 -0.4373 -0.4941
 4260TIP3    H234272   0.701   0.511  14.137  0.3993 -0.0334 -0.8308
 4261TIP3   OH234273   3.220   1.106  14.324  0.3434 -0.0534 -0.3426
 4261TIP3    H134274   3.259   1.155  14.252 -0.0281  0.4363 -0.2233
 4261TIP3    H234275   3.262   1.141  14.403 -0.1993  0.3611 -0.2265
 4262TIP3   OH234276   3.302   3.879  15.721  0.1981 -0.2192  0.4418
 4262TIP3    H134277   3.312   3.920  15.807  0.6035  0.2514  0.1784
 4262TIP3    H234278   3.330   3.947  15.659 -0.9986 -0.2052 -0.1238
 4263TIP3   OH234279   4.260   2.355  15.258 -0.2101  0.9790  0.5903
 4263TIP3    H134280   4.281   2.349  15.351 -0.3740  1.0159  0.6303
 4263TIP3    H234281   4.242   2.448  15.244 -0.8332  0.8742  0.6638
 4264TIP3   OH234282   6.472   2.553   4.787 -0.1091  0.0744 -0.0937
 4264TIP3    H134283   6.475   2.576   4.695 -0.6061  0.4712 -0.0121
 4264TIP3    H234284   6.379   2.542   4.807  0.0613 -1.2994  0.0467
 4265TIP3   OH234285   5.387   6.320  13.415  0.4682  0.6843  0.0092
 4265TIP3    H134286   5.426   6.251  13.361 -0.8538  0.0771 -0.2161
 4265TIP3    H234287   5.413   6.299  13.504  0.3906  0.0892 -0.1006
 4266TIP3   OH234288   4.357   5.356  14.516 -0.1006  0.0806 -0.1555
 4266TIP3    H134289   4.264   5.332  14.519  0.3719 -1.9982 -0.2906
 4266TIP3    H234290   4.374   5.376  14.424 -0.2447 -0.4371 -0.3032
 4267TIP3   OH234291   5.993   4.750  16.654  0.0271 -0.3953  0.7486
 4267TIP3    H134292   5.987   4.656  16.635 -1.0615 -0.1067 -0.4381
 4267TIP3    H234293   5.909   4.773  16.691 -0.7896  0.6194 -1.5342
 4268TIP3   OH234294   3.283   2.921   3.374  0.0822  0.9443 -0.0272
 4268TIP3    H134295   3.314   2.928   3.284  0.8154 -0.0457  0.1241
 4268TIP3    H234296   3.314   3.001   3.416  1.8908  0.3113 -0.0668
 4269TIP3   OH234297   3.872   4.911  16.847  0.2531 -0.0414 -0.1172
 4269TIP3    H134298   3.901   4.890  16.936  1.3301  1.8889  0.0386
 4269TIP3    H234299   3.949   4.948  16.805 -0.2922 -0.7581 -1.8218
 4270TIP3   OH234300   6.287   2.587  13.392  0.2342  0.1275  0.0726
 4270TIP3    H134301   6.369   2.624  13.424  0.0254 -0.4426  1.3578
 4270TIP3    H234302   6.232   2.579  13.471 -0.9421  0.2169 -0.7126
 4271TIP3   OH234303   0.958   0.247   5.075  0.2082  0.1506  0.0212
 4271TIP3    H134304   1.038   0.236   5.126  0.2853  0.2867 -0.0709
 4271TIP3    H234305   0.960   0.176   5.011  0.8746  0.8901 -0.7954
 4272TIP3   OH234306   0.093   3.132   3.186  0.3855 -0.3963 -0.1431
 4272TIP3    H134307   0.185   3.158   3.191  0.0186  1.2915 -1.2873
 4272TIP3    H234308   0.083   3.098   3.097 -0.0193 -0.9351  0.1022
 4273TIP3   OH234309   3.627   6.185   0.392 -0.0854  0.4876 -0.5948
 4273TIP3    H134310   3.537   6.174   0.421  0.0152  0.5056 -0.2716
 4273TIP3    H234311   3.638   6.121   0.322 -0.2009  0.1376 -0.2999
 4274TIP3   OH234312   3.016   5.735  16.649 -0.3206 -0.1106  0.3891
 4274TIP3    H134313   3.093   5.789  16.630 -0.4890 -0.3338 -1.1042
 4274TIP3    H234314   3.044   5.676  16.719  0.3796  0.7996  0.9005
 4275TIP3   OH234315   3.625   5.460   3.560 -0.3822 -0.7597 -0.2034
 4275TIP3    H134316   3.708   5.470   3.512 -0.9343 -0.8278 -1.2006
 4275TIP3    H234317   3.628   5.528   3.627  0.9435 -1.4383  0.4677
 4276TIP3   OH234318   3.181   6.802   1.911 -0.1562 -0.1162  0.6629
 4276TIP3    H134319   3.252   6.831   1.854  0.5550 -1.4087  0.8495
 4276TIP3    H234320   3.196   6.848   1.994  1.5429 -1.6778  1.2917
 4277TIP3   OH234321   1.659   4.327  12.295  0.1317 -0.3449 -0.0763
 4277TIP3    H134322   1.694   4.338  12.383 -1.5762 -0.5311  0.6774
 4277TIP3    H234323   1.733   4.345  12.237  1.4746 -0.9082  1.3904
 4278TIP3   OH234324   5.415   2.569   4.890  0.2614 -0.3500 -0.0403
 4278TIP3    H134325   5.411   2.652   4.843  0.9725 -1.0198 -1.3691
 4278TIP3    H234326   5.434   2.593   4.981  1.1108  0.9121 -0.5236
 4279TIP3   OH234327   2.793   0.225  14.262  0.5986 -0.2134  0.3055
 4279TIP3    H134328   2.771   0.186  14.177 -1.7763 -0.1308  0.8111
 4279TIP3    H234329   2.713   0.214  14.315  1.1968  1.8348  1.7532
 4280TIP3   OH234330   2.263   6.026  15.387 -0.1925  0.1311 -0.4961
 4280TIP3    H134331   2.316   5.984  15.455 -1.0305  0.5297  0.4335
 4280TIP3    H234332   2.261   6.118  15.414  0.7487  0.5991 -1.9249
 4281TIP3   OH234333   2.406   1.249   4.484 -0.0735  0.0058 -0.0636
 4281TIP3    H134334   2.418   1.201   4.565 -4.7185 -1.5585 -0.0052
 4281TIP3    H234335   2.468   1.210   4.423  0.2371 -2.0985  1.5026
 4282TIP3   OH234336   1.259   5.904   1.422  0.1338 -0.4755  0.2014
 4282TIP3    H134337   1.234   5.994   1.403  1.0207 -0.2574  0.0399
 4282TIP3    H234338   1.219   5.852   1.352 -1.7284 -0.4253  1.1676
 4283TIP3   OH234339   2.283   5.485  11.083 -0.4314 -0.3670  0.3650
 4283TIP3    H134340   2.269   5.465  11.176 -1.4989  0.3091  0.3787
 4283TIP3    H234341   2.364   5.535  11.081 -0.7938  0.2666  1.0447
 4284TIP3   OH234342   1.764   4.935  12.531 -0.1295  0.0867  0.5128
 4284TIP3    H134343   1.702   4.998  12.492  0.3038  0.1821 -0.0296
 4284TIP3    H234344   1.848   4.980  12.527  0.2418 -0.6584 -0.1761
 4285TIP3   OH234345   4.522   4.706  12.950  0.2085  0.0771 -0.1253
 4285TIP3    H134346   4.452   4.658  12.994  0.1373  0.0952 -0.2196
 4285TIP3    H234347   4.577   4.738  13.022 -1.2511  2.1986  0.1238
 4286TIP3   OH234348   1.937   5.678   6.834  0.4177  0.2814 -0.2060
 4286TIP3    H134349   1.959   5.658   6.743 -0.5296  0.2715 -0.4438
 4286TIP3    H234350   1.961   5.770   6.845 -0.1241  0.4876 -0.6905
 4287TIP3   OH234351   1.014   0.669  13.290 -0.7351 -0.4641  0.5610
 4287TIP3    H134352   1.028   0.622  13.208  1.8505 -0.1128  0.7122
 4287TIP3    H234353   0.983   0.603  13.351 -0.3674 -1.2422 -0.0773
 4288TIP3   OH234354   4.568   3.701   3.159  0.0313 -0.1717 -0.2142
 4288TIP3    H134355   4.621   3.712   3.238 -1.7764  0.9851  0.9281
 4288TIP3    H234356   4.550   3.607   3.155  0.3420 -0.2771  0.6254
 4289TIP3   OH234357   3.712   5.144   1.606 -0.2381  0.1655 -0.1180
 4289TIP3    H134358   3.716   5.105   1.518 -2.4475 -0.6705  0.0760
 4289TIP3    H234359   3.753   5.079   1.663  0.6297  0.4244 -0.4319
 4290TIP3   OH234360   1.499   4.567  12.280 -0.0185 -0.5439  0.2678
 4290TIP3    H134361   1.411   4.537  12.260  0.2589 -0.5406 -1.0180
 4290TIP3    H234362   1.553   4.488  12.278  0.1121 -0.4618  0.4726
 4291TIP3   OH234363   0.647   4.091  12.086  0.4711  0.8164 -0.3658
 4291TIP3    H134364   0.687   4.143  12.156 -1.1182  1.1920  0.3305
 4291TIP3    H234365   0.586   4.152  12.044 -1.8086 -0.5246  0.7877
 4292TIP3   OH234366   2.797   6.505  13.518  0.4460  0.3715 -0.2838
 4292TIP3    H134367   2.874   6.459  13.486  1.1002  0.6040  0.9021
 4292TIP3    H234368   2.723   6.453  13.485  1.0476  0.5896 -2.1124
 4293TIP3   OH234369   0.723   6.249   2.336 -0.1058 -0.3833  0.2917
 4293TIP3    H134370   0.774   6.222   2.260 -1.6419  0.7202 -1.2157
 4293TIP3    H234371   0.676   6.327   2.307 -0.5047  0.2660  2.4984
 4294TIP3   OH234372   4.115   6.376   1.740 -0.3693 -0.1356  0.3006
 4294TIP3    H134373   4.210   6.374   1.731 -0.4905  0.9995 -1.8009
 4294TIP3    H234374   4.091   6.287   1.763  1.0255 -1.0769 -1.6236
 4295TIP3   OH234375   6.739   6.737  14.208  0.2087  0.3231 -0.1720
 4295TIP3    H134376   6.655   6.754  14.164  0.3437 -0.4969 -0.7538
 4295TIP3    H234377   6.732   6.648  14.240  1.0326  0.0870 -0.6199
 4296TIP3   OH234378   5.520   2.250   4.100 -0.1348  0.8095  0.4101
 4296TIP3    H134379   5.501   2.257   4.194  0.4899  3.1449  0.4365
 4296TIP3    H234380   5.616   2.257   4.095 -0.0087 -0.9645 -0.3334
 4297TIP3   OH234381   3.501   3.489   5.398 -0.0909 -0.2009 -0.6994
 4297TIP3    H134382   3.518   3.395   5.407  0.7882  0.0444  0.2271
 4297TIP3    H234383   3.492   3.522   5.487 -0.8926  0.5232 -1.0249
 4298TIP3   OH234384   3.864   3.811  10.668  0.6133  0.0708  0.7641
 4298TIP3    H134385   3.899   3.728  10.700 -0.7437 -0.3938  1.0991
 4298TIP3    H234386   3.772   3.810  10.694 -0.1214  0.4859 -1.5978
 4299TIP3   OH234387   1.457   4.939   3.215  0.3755 -0.3379 -0.0316
 4299TIP3    H134388   1.430   4.870   3.275  1.9102 -0.6991  0.3020
 4299TIP3    H234389   1.527   4.985   3.261 -0.0910  0.9576 -0.5719
 4300TIP3   OH234390   2.412   1.292   0.877 -0.1436  0.0703 -0.5850
 4300TIP3    H134391   2.497   1.309   0.838 -0.7917  2.4640 -1.0699
 4300TIP3    H234392   2.350   1.303   0.806 -0.9418 -0.9021 -0.0643
 4301TIP3   OH234393   4.934   3.716   1.963 -0.2369  0.0959  1.0219
 4301TIP3    H134394   5.021   3.701   1.928 -0.5988 -2.5350  1.0360
 4301TIP3    H234395   4.937   3.805   1.998  2.1520  0.3781  0.2656
 4302TIP3   OH234396   6.747   4.567   1.572  0.1512  0.1374 -0.1564
 4302TIP3    H134397   6.826   4.613   1.543  0.5878 -0.7917 -0.4826
 4302TIP3    H234398   6.767   4.541   1.662 -0.5226  1.4982  0.4204
 4303TIP3   OH234399   5.309   1.998   3.742 -0.9835 -0.2778  0.6421
 4303TIP3    H134400   5.293   2.067   3.806  0.0665 -0.3770  1.0342
 4303TIP3    H234401   5.404   2.000   3.727 -0.7041 -2.5036  1.6903
 4304TIP3   OH234402   4.704   4.905   2.459 -0.3173  0.5326  0.6011
 4304TIP3    H134403   4.629   4.946   2.501 -2.0673 -0.9211 -0.9755
 4304TIP3    H234404   4.707   4.817   2.495  1.5572  0.9809  1.6929
 4305TIP3   OH234405   4.717   2.370   6.492  0.0443 -0.4633 -0.1403
 4305TIP3    H134406   4.710   2.328   6.406  0.2344 -3.3912  1.1253
 4305TIP3    H234407   4.633   2.352   6.534  0.2089  0.3170  0.5498
 4306TIP3   OH234408   2.922   3.823   6.004  0.6645 -0.2740  0.1774
 4306TIP3    H134409   2.831   3.851   6.003  0.0422 -2.1211 -0.3955
 4306TIP3    H234410   2.945   3.818   6.096 -0.6547 -2.1013  0.4699
 4307TIP3   OH234411   6.407   2.491   1.788 -0.1181  0.2541 -0.5314
 4307TIP3    H134412   6.356   2.553   1.840 -1.0796 -0.0807 -1.0518
 4307TIP3    H234413   6.400   2.408   1.836  1.1377  0.5110  0.1455
 4308TIP3   OH234414   4.241   0.937   3.773 -0.1915 -0.2294 -0.2750
 4308TIP3    H134415   4.202   1.017   3.738 -1.3422 -0.3940  0.5573
 4308TIP3    H234416   4.187   0.866   3.738  1.0757 -0.7161 -1.3605
 4309TIP3   OH234417   1.143   5.426  16.869  0.4946  0.3638 -0.0590
 4309TIP3    H134418   1.054   5.460  16.881  0.4677  0.2812 -0.0203
 4309TIP3    H234419   1.173   5.406  16.958  0.0634 -0.8248 -0.1647
 4310TIP3   OH234420   6.119   4.209   2.884  0.5370  0.4912  0.3621
 4310TIP3    H134421   6.162   4.249   2.808  1.7909 -0.1288  0.7024
 4310TIP3    H234422   6.042   4.166   2.848  1.1721  0.1021 -0.5928
 4311TIP3   OH234423   2.231   5.302   1.067 -0.1770  0.3331  0.3658
 4311TIP3    H134424   2.259   5.218   1.029 -2.1239  0.4524 -1.5938
 4311TIP3    H234425   2.153   5.280   1.118 -0.9281  0.9454 -0.4748
 4312TIP3   OH234426   1.877   4.731   4.043 -0.0895 -0.2125 -0.1206
 4312TIP3    H134427   1.827   4.760   3.967 -0.0539 -0.1452 -0.1180
 4312TIP3    H234428   1.944   4.798   4.055 -0.2873 -0.0611  0.1605
 4313TIP3   OH234429   1.246   3.624   5.810  0.0602 -1.1623  0.2424
 4313TIP3    H134430   1.302   3.552   5.780  0.0908 -2.8640  3.9062
 4313TIP3    H234431   1.158   3.586   5.811  0.0690 -1.2281  2.1466
 4314TIP3   OH234432   3.960   6.809  11.743 -0.2860 -0.5806  0.2374
 4314TIP3    H134433   3.879   6.845  11.780 -1.3505 -1.5884 -1.0193
 4314TIP3    H234434   3.966   6.849  11.656  1.4704  0.7314  0.8979
 4315TIP3   OH234435   2.747   4.000   3.703  0.7234  0.0632  0.1076
 4315TIP3    H134436   2.774   3.984   3.612 -1.6278 -0.3870 -0.5816
 4315TIP3    H234437   2.767   4.092   3.718  0.9362  0.2034 -0.9570
 4316TIP3   OH234438   4.885   2.863   0.257 -0.2084 -0.0232 -0.0488
 4316TIP3    H134439   4.863   2.930   0.321  1.8195 -0.3644  1.0801
 4316TIP3    H234440   4.800   2.828   0.229 -1.2033  1.2970  1.1789
 4317TIP3   OH234441   0.616   6.226  11.808 -0.0988 -0.0902 -0.1312
 4317TIP3    H134442   0.679   6.184  11.750  0.8836  2.3981 -0.9642
 4317TIP3    H234443   0.612   6.316  11.778 -1.5075  0.6552  2.0900
 4318TIP3   OH234444   0.665   4.375  11.945  0.6978 -0.1155  0.1444
 4318TIP3    H134445   0.678   4.454  11.997 -1.0418 -2.0625  3.9983
 4318TIP3    H234446   0.750   4.331  11.946  1.7901  1.7137 -2.3741
 4319TIP3   OH234447   0.433   4.115  12.597  0.7260 -0.6521 -0.4080
 4319TIP3    H134448   0.417   4.155  12.511  2.9818 -0.8753 -0.9792
 4319TIP3    H234449   0.354   4.064  12.614 -0.7194  1.1559 -1.3014
 4320TIP3   OH234450   0.012   5.210   0.228  0.3931  0.0295 -0.0015
 4320TIP3    H134451  -0.060   5.222   0.166  1.2561 -1.3503 -1.3370
 4320TIP3    H234452  -0.030   5.218   0.314 -0.8188  2.0172 -0.7214
 4321TIP3   OH234453   5.167   3.495  13.684 -0.3938  0.0476 -0.4669
 4321TIP3    H134454   5.250   3.515  13.728 -0.7771 -0.0383  0.3146
 4321TIP3    H234455   5.100   3.518  13.749 -0.9698 -0.1564 -0.9859
 4322TIP3   OH234456   2.562   2.098   2.596  0.4792  0.8650  0.0302
 4322TIP3    H134457   2.587   2.173   2.540 -1.1472  1.5753  0.2062
 4322TIP3    H234458   2.645   2.065   2.629  1.2947  2.1639 -0.6224
 4323TIP3   OH234459   0.779   5.744  14.809 -0.2585 -0.7263 -0.5074
 4323TIP3    H134460   0.749   5.667  14.857  1.5458 -0.5367  1.0384
 4323TIP3    H234461   0.738   5.736  14.723  1.2982 -4.4767 -1.1198
 4324TIP3   OH234462   1.857   3.650   6.341  0.6843  0.7845  0.3613
 4324TIP3    H134463   1.884   3.714   6.406 -4.0774  0.8954  2.6198
 4324TIP3    H234464   1.803   3.699   6.279 -0.4446 -0.4800  0.3065
 4325TIP3   OH234465   5.685   2.733  16.514 -0.1340 -0.8865 -0.4091
 4325TIP3    H134466   5.650   2.657  16.559  0.5126 -1.9634 -1.6480
 4325TIP3    H234467   5.653   2.725  16.424  0.9827 -0.4087 -0.8750
 4326TIP3   OH234468   0.891   5.853   4.580  0.6641  0.4072 -0.9049
 4326TIP3    H134469   0.808   5.842   4.533  0.2403 -1.4490  0.1671
 4326TIP3    H234470   0.872   5.917   4.648  0.1118  0.0339 -0.6998
 4327TIP3   OH234471   6.026   0.290  12.280  0.6554 -0.2748  0.0679
 4327TIP3    H134472   6.097   0.342  12.242  0.7768 -0.4851  0.0091
 4327TIP3    H234473   5.947   0.343  12.266  0.8842  0.2359  0.6662
 4328TIP3   OH234474   2.690   5.282   1.548  0.3870 -0.7268 -0.2446
 4328TIP3    H134475   2.751   5.287   1.475  0.3967 -1.1053 -0.2659
 4328TIP3    H234476   2.745   5.293   1.626 -0.0953  4.0865 -0.3211
 4329TIP3   OH234477   3.636   1.813  11.341 -0.3422  0.1729 -0.3600
 4329TIP3    H134478   3.645   1.719  11.354  0.5588  0.2469 -0.3923
 4329TIP3    H234479   3.658   1.827  11.249 -0.1898  0.4476 -0.2824
 4330TIP3   OH234480   5.198   0.056  15.623 -1.2221  0.2543 -0.0796
 4330TIP3    H134481   5.203   0.152  15.624 -1.0223  0.2451  0.6828
 4330TIP3    H234482   5.238   0.030  15.540 -0.4017  0.7878  0.1344
 4331TIP3   OH234483   0.035   1.794   0.890 -0.1941  0.1623 -0.0065
 4331TIP3    H134484   0.035   1.703   0.860 -0.0804  0.3734 -0.6489
 4331TIP3    H234485  -0.043   1.832   0.851 -0.4144  0.2608  0.5232
 4332TIP3   OH234486   6.655   4.672   6.344 -0.0766 -0.7360  0.0786
 4332TIP3    H134487   6.749   4.656   6.335  0.1535 -0.9694  2.2933
 4332TIP3    H234488   6.640   4.754   6.296  1.8596  0.9234  2.1044
 4333TIP3   OH234489   3.643   5.967  13.266  0.2357 -0.0421  0.5324
 4333TIP3    H134490   3.667   6.006  13.182 -0.4188  0.4752  0.5715
 4333TIP3    H234491   3.691   6.019  13.331 -3.4988  3.4799  0.9330
 4334TIP3   OH234492   3.912   5.844  16.520 -0.1139 -0.6100 -0.1604
 4334TIP3    H134493   3.944   5.934  16.513  0.3831 -0.7583  0.1420
 4334TIP3    H234494   3.986   5.796  16.556 -0.1729 -1.2581 -0.8875
 4335TIP3   OH234495   6.054   6.327   2.481 -0.4005  0.0394 -0.0360
 4335TIP3    H134496   6.056   6.270   2.557  0.3695  1.7042  1.2407
 4335TIP3    H234497   6.146   6.344   2.460 -0.5294 -1.4458 -2.2391
 4336TIP3   OH234498   6.089   0.686   4.903 -0.3141 -0.3627  0.2472
 4336TIP3    H134499   6.057   0.648   4.985  0.9629 -0.6747  0.6243
 4336TIP3    H234500   6.045   0.636   4.835 -1.7600  0.2213  0.7279
 4337TIP3   OH234501   1.343   4.728  10.578  0.5971 -0.6438 -0.2964
 4337TIP3    H134502   1.422   4.691  10.538  0.2709 -0.3951 -1.2136
 4337TIP3    H234503   1.281   4.736  10.505 -0.1172 -0.4129  0.3226
 4338TIP3   OH234504   3.577   3.141   6.504 -0.5151  0.1881  0.2813
 4338TIP3    H134505   3.574   3.219   6.449  2.1501  0.2660  0.1154
 4338TIP3    H234506   3.553   3.069   6.444 -0.7191  0.6186 -0.1593
 4339TIP3   OH234507   0.695   2.740   5.328  0.1630 -0.0312 -0.1554
 4339TIP3    H134508   0.693   2.696   5.413  2.3075 -0.2953 -0.1712
 4339TIP3    H234509   0.724   2.829   5.347  1.5661 -0.3487 -0.6479
 4340TIP3   OH234510   4.059   0.017   3.838 -0.4032 -0.3945  0.1841
 4340TIP3    H134511   4.091  -0.054   3.782  0.2596 -0.1890  0.2877
 4340TIP3    H234512   4.102   0.002   3.923 -0.4739 -0.0338  0.2876
 4341TIP3   OH234513   0.780   6.598   1.359  0.2686  0.1894  0.4352
 4341TIP3    H134514   0.688   6.573   1.363  0.1656  0.4009 -0.4387
 4341TIP3    H234515   0.802   6.622   1.449 -0.3140 -0.5975  0.8038
 4342TIP3   OH234516   0.174   0.748   0.636 -0.1138 -0.4063  0.3045
 4342TIP3    H134517   0.265   0.718   0.642  0.5452  1.4105  0.2608
 4342TIP3    H234518   0.169   0.820   0.699 -0.8397  1.0398 -1.3116
 4343TIP3   OH234519   4.560   5.076  11.707 -0.1390  0.2015  0.2155
 4343TIP3    H134520   4.632   5.013  11.698 -1.3007 -1.3279  0.9902
 4343TIP3    H234521   4.482   5.021  11.714 -1.7019  1.8397 -2.7189
 4344TIP3   OH234522   0.776   3.317   6.430  0.5423 -0.1721  0.6557
 4344TIP3    H134523   0.711   3.351   6.490  1.6337 -0.4757  2.0594
 4344TIP3    H234524   0.739   3.235   6.397 -0.7080  0.7306 -0.2802
 4345TIP3   OH234525   2.819   1.014  13.641  0.4028 -0.3391  0.2374
 4345TIP3    H134526   2.736   0.967  13.641 -0.5995  1.3419 -0.4327
 4345TIP3    H234527   2.870   0.974  13.712  0.5424 -3.9125 -1.6870
 4346TIP3   OH234528   2.968   0.159   3.918  0.1376 -0.3309  0.4074
 4346TIP3    H134529   2.923   0.235   3.882 -1.0426 -1.0653  0.2767
 4346TIP3    H234530   3.061   0.182   3.915 -0.2260  1.2840  0.8250
 4347TIP3   OH234531   3.809   5.444   2.726  0.0668  0.4922 -0.3109
 4347TIP3    H134532   3.876   5.394   2.773 -0.7824 -0.0663  0.3477
 4347TIP3    H234533   3.728   5.426   2.774 -0.6084  0.9252 -1.2539
 4348TIP3   OH234534   0.666   6.454   2.881 -0.4353 -0.5359 -0.3354
 4348TIP3    H134535   0.607   6.378   2.884  0.4089 -1.2086 -0.4547
 4348TIP3    H234536   0.617   6.520   2.831 -1.8368 -0.4104  1.1282
 4349TIP3   OH234537   6.659   1.245   1.396  0.0926  0.1845 -0.4912
 4349TIP3    H134538   6.589   1.309   1.382  0.2192  0.3691 -0.2836
 4349TIP3    H234539   6.646   1.180   1.327 -2.9090 -2.1360  2.0317
 4350TIP3   OH234540   2.542   5.011   0.983  0.0970 -0.2589  0.2355
 4350TIP3    H134541   2.609   4.942   0.979  0.0800 -0.2900  0.5026
 4350TIP3    H234542   2.554   5.051   1.069 -0.6796 -0.7169  0.5730
 4351TIP3   OH234543   5.825   2.012   0.111  0.2623 -0.0776  0.0724
 4351TIP3    H134544   5.786   2.091   0.073  1.6492 -0.0009 -1.2768
 4351TIP3    H234545   5.780   1.940   0.067 -0.9448 -0.0740  1.2427
 4352TIP3   OH234546   0.569   5.193  14.671  0.0429  0.1236  0.2440
 4352TIP3    H134547   0.484   5.221  14.638 -0.1411 -0.3630  0.2938
 4352TIP3    H234548   0.632   5.233  14.612 -0.2337  0.2139  0.0072
 4353TIP3   OH234549   5.648   1.197   0.891  0.0510  0.1184  0.2495
 4353TIP3    H134550   5.722   1.151   0.850  1.1808  2.4218 -0.4434
 4353TIP3    H234551   5.577   1.188   0.827  0.4081 -0.2184 -0.1124
 4354TIP3   OH234552   1.488   2.393  14.280  0.0886  0.1878 -0.0978
 4354TIP3    H134553   1.560   2.362  14.225 -1.0423 -0.2654 -1.3766
 4354TIP3    H234554   1.514   2.482  14.304  0.0331  0.9470 -2.5537
 4355TIP3   OH234555   3.838   0.468  15.638  0.0387  0.0666 -0.0624
 4355TIP3    H134556   3.777   0.509  15.576 -0.5228 -1.7382 -0.7854
 4355TIP3    H234557   3.820   0.511  15.721 -1.4523  0.3637 -0.4930
 4356TIP3   OH234558   5.079   5.545   4.373  0.1033 -0.4535  0.2937
 4356TIP3    H134559   5.029   5.474   4.334  0.5371 -1.6359  1.7881
 4356TIP3    H234560   5.076   5.616   4.308  2.2754 -2.8680 -2.7416
 4357TIP3   OH234561   0.331   4.143   4.209  0.2321  0.4283 -0.3348
 4357TIP3    H134562   0.340   4.230   4.170 -0.7908  0.0332 -1.5490
 4357TIP3    H234563   0.348   4.082   4.137 -0.1826 -0.3627  0.2129
 4358TIP3   OH234564   3.656   5.008  12.256  0.0954 -0.2274  0.4820
 4358TIP3    H134565   3.692   5.072  12.194 -3.3919  0.1574 -1.4418
 4358TIP3    H234566   3.714   4.932  12.249 -0.2892 -0.3748 -3.7905
 4359TIP3   OH234567   1.450   0.378  16.551 -1.0311 -0.5619  0.5182
 4359TIP3    H134568   1.534   0.391  16.507 -2.5050  0.3866 -2.3156
 4359TIP3    H234569   1.454   0.288  16.583  0.9704 -0.6082  0.2626
 4360TIP3   OH234570   4.772   2.135  15.681  0.1965  0.3396  0.4745
 4360TIP3    H134571   4.734   2.215  15.718  0.0217  0.6893 -0.4503
 4360TIP3    H234572   4.847   2.166  15.631  0.9964 -0.2284  1.2871
 4361TIP3   OH234573   0.387   0.573   2.810 -0.0662 -0.2400  0.1291
 4361TIP3    H134574   0.444   0.532   2.745 -0.9439 -0.3629 -0.5821
 4361TIP3    H234575   0.439   0.646   2.845  0.5037 -0.3098 -0.5436
 4362TIP3   OH234576   3.282   6.705  12.262 -0.0029 -0.1375  0.2977
 4362TIP3    H134577   3.194   6.667  12.262  0.0015 -0.1503 -0.2352
 4362TIP3    H234578   3.270   6.794  12.229  0.4456 -0.7753 -1.6884
 4363TIP3   OH234579   4.421   4.675   3.197 -0.0269  0.4230 -0.2033
 4363TIP3    H134580   4.451   4.586   3.214 -2.6103 -0.5874 -0.3722
 4363TIP3    H234581   4.390   4.673   3.106  0.5880  1.7215 -0.4551
 4364TIP3   OH234582   4.225   6.509  12.535  0.0721 -0.4609 -0.1465
 4364TIP3    H134583   4.136   6.478  12.518 -1.8686  3.0728  2.2460
 4364TIP3    H234584   4.265   6.439  12.586 -0.9834 -2.4514 -1.8961
 4365TIP3   OH234585   0.453   2.173   5.095  0.1237 -0.2399  0.0330
 4365TIP3    H134586   0.357   2.168   5.100  0.0294  0.8345 -0.5043
 4365TIP3    H234587   0.478   2.227   5.170  0.3904 -1.1502  0.6202
 4366TIP3   OH234588   2.982   2.487  11.296  0.0174  0.5065 -0.4656
 4366TIP3    H134589   3.049   2.427  11.330 -0.6883 -0.8076 -1.3140
 4366TIP3    H234590   3.011   2.574  11.325  1.5868 -0.1270 -0.0205
 4367TIP3   OH234591   5.456   0.578  12.403 -0.3474  0.5458  1.0705
 4367TIP3    H134592   5.374   0.541  12.370 -0.6840  1.1028  1.2801
 4367TIP3    H234593   5.504   0.603  12.323 -0.2643 -0.0098  0.9388
 4368TIP3   OH234594   0.105   3.628  11.959 -0.0908  0.1824  0.9359
 4368TIP3    H134595   0.144   3.684  11.892 -0.8279  0.1921  0.5083
 4368TIP3    H234596   0.086   3.687  12.032  1.9773 -0.0511  1.7515
 4369TIP3   OH234597   3.935   3.051   0.584  0.3657 -0.3978  0.0163
 4369TIP3    H134598   3.871   2.988   0.553 -0.1465  1.3691 -2.8778
 4369TIP3    H234599   3.974   3.087   0.505  2.5675  1.0234  1.6074
 4370TIP3   OH234600   1.433   6.747  10.950 -0.4147  0.2072 -0.3128
 4370TIP3    H134601   1.369   6.691  10.907  0.6159  0.2562 -1.9669
 4370TIP3    H234602   1.404   6.750  11.042 -0.5314 -2.9738 -0.1547
 4371TIP3   OH234603   6.528   3.461  12.975  0.1871  0.8750 -0.3568
 4371TIP3    H134604   6.622   3.472  12.986  0.4407  0.1064 -1.5543
 4371TIP3    H234605   6.498   3.543  12.938  0.7127  0.4888 -1.6907
 4372TIP3   OH234606   5.644   3.791   2.449  0.2029 -0.0868 -1.0741
 4372TIP3    H134607   5.560   3.825   2.481  0.1427 -2.3047  1.5442
 4372TIP3    H234608   5.621   3.717   2.394  0.4173 -0.2201 -0.9864
 4373TIP3   OH234609   5.243   6.202   1.462  0.1969  0.3923 -0.2289
 4373TIP3    H134610   5.230   6.132   1.398 -4.2635 -0.2997  1.0877
 4373TIP3    H234611   5.254   6.155   1.545 -1.5014  1.1824  0.4774
 4374TIP3   OH234612   3.925   1.652   0.092 -0.3123 -0.6407 -0.4535
 4374TIP3    H134613   4.002   1.694   0.129 -0.2544 -0.1271 -1.1434
 4374TIP3    H234614   3.958   1.572   0.051 -0.2744 -0.8453 -0.0334
 4375TIP3   OH234615   4.914   3.552   6.346  0.2656  0.3647 -0.1626
 4375TIP3    H134616   4.941   3.470   6.389  0.2493  1.0047  1.1376
 4375TIP3    H234617   4.825   3.568   6.379  0.0928  0.6709 -0.7669
 4376TIP3   OH234618   2.975   1.576   1.431  0.3793  0.4675 -0.8671
 4376TIP3    H134619   2.990   1.560   1.337  1.6264 -0.5252 -0.5341
 4376TIP3    H234620   2.880   1.579   1.440  0.2367  1.7116 -2.3317
 4377TIP3   OH234621   1.998   0.970  14.469 -0.2262 -0.1880 -0.5539
 4377TIP3    H134622   2.020   0.878  14.453 -0.6677 -0.5313  0.6788
 4377TIP3    H234623   2.076   1.006  14.511  0.2010  0.1961 -1.6434
 4378TIP3   OH234624   3.572   5.414  13.639  0.2663 -0.6339 -0.4987
 4378TIP3    H134625   3.655   5.396  13.683  0.3120 -0.3635 -0.4756
 4378TIP3    H234626   3.593   5.418  13.546  0.8210  2.3238 -0.3352
 4379TIP3   OH234627   1.560   3.649  12.632  0.0107 -0.3781  0.2854
 4379TIP3    H134628   1.645   3.689  12.650  0.0226 -0.4600  0.4086
 4379TIP3    H234629   1.497   3.719  12.646  0.0002 -0.4942  0.8526
 4380TIP3   OH234630   1.706   5.716  17.172  0.9568 -0.2580 -0.1383
 4380TIP3    H134631   1.768   5.692  17.241  0.3436  1.0847  0.9253
 4380TIP3    H234632   1.654   5.636  17.159  1.6577 -0.8035  0.3174
 4381TIP3   OH234633   4.817   6.702  15.702 -0.0958  0.6173  0.5826
 4381TIP3    H134634   4.817   6.698  15.606 -1.9100 -1.5086  0.5806
 4381TIP3    H234635   4.781   6.789  15.722 -0.7134  0.6890 -0.6949
 4382TIP3   OH234636   2.642   4.527   3.485  0.4140  0.1740  0.4156
 4382TIP3    H134637   2.561   4.537   3.535 -1.8556  0.7696 -3.0320
 4382TIP3    H234638   2.689   4.609   3.499  1.0721 -0.6001  3.3119
 4383TIP3   OH234639   0.329   6.687  14.097  0.2682  0.4678 -0.3339
 4383TIP3    H134640   0.369   6.710  14.013 -2.3416  0.1779 -1.7790
 4383TIP3    H234641   0.387   6.620  14.133  1.4198  0.5210 -1.9666
 4384TIP3   OH234642   2.464   0.426   0.423  0.2801  0.1230  0.2299
 4384TIP3    H134643   2.423   0.345   0.392  0.4811  0.1814 -0.2073
 4384TIP3    H234644   2.522   0.399   0.493 -0.5158  0.0427  0.8709
 4385TIP3   OH234645   2.034   3.967  12.825 -0.4208  0.5558  0.1608
 4385TIP3    H134646   2.026   4.059  12.800 -0.1101  0.6728  0.4793
 4385TIP3    H234647   2.128   3.956  12.843 -0.5694  0.3669  0.8309
 4386TIP3   OH234648   2.629   3.273   4.333  0.0053  0.1001 -0.0815
 4386TIP3    H134649   2.611   3.251   4.241 -1.3044  1.7763 -0.2730
 4386TIP3    H234650   2.588   3.358   4.346 -0.1743 -0.2655  2.1811
 4387TIP3   OH234651   2.291   1.809  12.373 -0.5988 -0.2685  0.5663
 4387TIP3    H134652   2.329   1.722  12.356  3.2194  1.1684  0.8766
 4387TIP3    H234653   2.229   1.822  12.301  0.6257 -2.2297 -0.9528
 4388TIP3   OH234654   3.302   5.103  13.559  0.2161 -0.2024  0.1038
 4388TIP3    H134655   3.251   5.082  13.481  1.3509 -0.7375 -0.5296
 4388TIP3    H234656   3.363   5.029  13.568  3.3503  1.9757 -1.3050
 4389TIP3   OH234657   1.153   4.318  12.769 -0.2146 -0.1922 -0.8161
 4389TIP3    H134658   1.116   4.249  12.714 -0.2573  1.4170 -2.9668
 4389TIP3    H234659   1.217   4.361  12.712  0.1482  1.2288  0.6120
 4390TIP3   OH234660   3.190   6.643  13.143 -0.7393  0.5549  0.2161
 4390TIP3    H134661   3.263   6.694  13.109 -1.1352  0.3708 -0.9595
 4390TIP3    H234662   3.137   6.707  13.191 -0.8018  1.0841 -0.5465
 4391TIP3   OH234663   4.587   2.467   1.258  0.1812 -0.2252  0.5106
 4391TIP3    H134664   4.646   2.455   1.184  0.2006  3.0541 -0.1571
 4391TIP3    H234665   4.629   2.419   1.330  2.8457  0.6241 -0.3502
 4392TIP3   OH234666   1.064   1.354   5.406  1.0042  0.1296  0.2167
 4392TIP3    H134667   1.066   1.271   5.453 -1.6932  0.6520  1.4614
 4392TIP3    H234668   1.042   1.330   5.316  2.5441 -0.6264  0.0160
 4393TIP3   OH234669   4.971   0.150  11.110  0.1237 -0.9388 -0.1618
 4393TIP3    H134670   5.034   0.146  11.182 -0.5406  0.6999  0.5561
 4393TIP3    H234671   5.025   0.164  11.032  0.7617 -1.3746  0.1890
 4394TIP3   OH234672   4.873   3.299  11.063 -0.0910 -0.5334 -0.2336
 4394TIP3    H134673   4.961   3.262  11.050  1.4609  0.5616  4.8535
 4394TIP3    H234674   4.876   3.383  11.018  1.2234 -0.8072 -0.7172
 4395TIP3   OH234675   6.509   5.073   5.557  0.2239  0.2459  0.2489
 4395TIP3    H134676   6.450   5.008   5.595 -0.1101 -0.8323 -1.9428
 4395TIP3    H234677   6.496   5.152   5.610 -2.2635 -0.3316  0.6045
 4396TIP3   OH234678   5.507   5.642  15.672 -0.2980 -0.0527 -0.0362
 4396TIP3    H134679   5.458   5.626  15.753 -3.7693 -1.8570 -2.2320
 4396TIP3    H234680   5.582   5.583  15.677  0.8313  1.4312  2.6762
 4397TIP3   OH234681   2.937   3.630   3.643 -0.3066  0.5436  0.0231
 4397TIP3    H134682   2.905   3.571   3.712 -1.1094  1.8056  0.7701
 4397TIP3    H234683   3.022   3.660   3.676 -0.7473  1.2468  0.5552
 4398TIP3   OH234684   1.251   3.339  15.343 -0.0110 -0.1199  0.1148
 4398TIP3    H134685   1.189   3.266  15.346 -1.9104  1.4318  0.4153
 4398TIP3    H234686   1.335   3.299  15.365 -1.2138 -1.9712  1.7632
 4399TIP3   OH234687   6.754   2.097  15.376 -1.4373  0.0061  0.1108
 4399TIP3    H134688   6.786   2.134  15.459 -2.5171  1.2155  0.0253
 4399TIP3    H234689   6.833   2.077  15.327 -0.7759 -0.6676  1.3995
 4400TIP3   OH234690   0.770   1.029  10.430 -1.1932 -0.5147 -0.2995
 4400TIP3    H134691   0.826   0.966  10.476 -0.0953  0.3483 -0.4077
 4400TIP3    H234692   0.778   1.006  10.338 -0.2742  0.1501 -0.4031
 4401TIP3   OH234693   6.063   5.965   3.195  0.3295  0.2360  0.4624
 4401TIP3    H134694   6.071   5.874   3.167 -0.1532  0.3131  0.0660
 4401TIP3    H234695   5.993   5.964   3.261 -0.9438  0.5857 -0.8312
 4402TIP3   OH234696   4.024   0.723  12.255  0.8669 -0.1301  0.0034
 4402TIP3    H134697   4.031   0.629  12.236  1.4680 -0.8644  3.2440
 4402TIP3    H234698   4.114   0.754  12.260  0.7140  0.2809  0.3247
 4403TIP3   OH234699   3.179   3.124  12.076  0.1446 -0.0986 -0.4992
 4403TIP3    H134700   3.251   3.130  12.139 -0.1293 -0.7444 -0.1169
 4403TIP3    H234701   3.118   3.193  12.102 -0.2354 -0.7285  0.2940
 4404TIP3   OH234702   4.365   0.549  14.434 -0.1251  0.4238 -0.2062
 4404TIP3    H134703   4.367   0.635  14.391  0.1447  0.1531 -0.7460
 4404TIP3    H234704   4.272   0.524  14.434 -0.1090  0.3470 -0.8033
 4405TIP3   OH234705   0.389   2.010  14.590 -0.0049  0.4981  0.2940
 4405TIP3    H134706   0.375   2.017  14.685 -0.5823  1.5991  0.1486
 4405TIP3    H234707   0.484   2.004  14.581  0.0797  0.7264  0.9271
 4406TIP3   OH234708   4.562   5.140  13.293  0.1640 -0.3390  0.1566
 4406TIP3    H134709   4.612   5.109  13.217  0.7352 -0.4816  0.5802
 4406TIP3    H234710   4.545   5.233  13.274  0.5170 -0.3107 -0.0340
 4407TIP3   OH234711   6.570   6.077   0.055 -0.2762  0.0457  0.0451
 4407TIP3    H134712   6.538   6.010  -0.005  1.5596 -0.2823 -0.6355
 4407TIP3    H234713   6.524   6.061   0.137  0.2864 -2.2042 -0.0300
 4408TIP3   OH234714   1.533   3.319  15.481 -0.3123 -0.5740  0.1347
 4408TIP3    H134715   1.601   3.262  15.444 -1.0075  0.2904 -2.7817
 4408TIP3    H234716   1.467   3.259  15.516  0.4087 -1.4897 -0.0278
 4409TIP3   OH234717   4.995   0.360   2.006 -0.0688  0.4699 -0.2307
 4409TIP3    H134718   4.995   0.363   2.102 -2.2089  2.0773 -0.2064
 4409TIP3    H234719   5.088   0.358   1.982  0.5308  0.7767  1.8606
 4410TIP3   OH234720   4.921   0.843  11.190  0.2970  0.2181  0.3063
 4410TIP3    H134721   4.873   0.865  11.270 -0.4001  1.7250 -0.4845
 4410TIP3    H234722   4.869   0.773  11.149  0.7535 -0.6850  1.2288
 4411TIP3   OH234723   2.756   1.200   1.612  0.0982 -0.1819 -0.4113
 4411TIP3    H134724   2.826   1.141   1.584  0.6764  0.3337 -0.0809
 4411TIP3    H234725   2.802   1.278   1.645 -0.5379 -0.6977  1.8276
 4412TIP3   OH234726   1.821   4.503   6.654  0.0874  0.5321  0.5991
 4412TIP3    H134727   1.753   4.445   6.620  0.6915 -1.0260  1.8943
 4412TIP3    H234728   1.773   4.576   6.693 -0.7790  0.1408  0.2834
 4413TIP3   OH234729   6.400   0.520   5.717 -0.1088 -0.5638 -0.2145
 4413TIP3    H134730   6.417   0.426   5.711  1.1512 -0.4260  0.6738
 4413TIP3    H234731   6.441   0.557   5.639  0.0494 -0.6811 -0.1879
 4414TIP3   OH234732   3.742   6.654   2.998  0.0417  0.6125  0.1446
 4414TIP3    H134733   3.734   6.644   3.093 -1.0221  0.4589  0.0502
 4414TIP3    H234734   3.654   6.635   2.965  0.4213  0.6020 -0.8766
 4415TIP3   OH234735   2.571   6.761  16.749 -0.1774 -0.1013  0.0017
 4415TIP3    H134736   2.532   6.837  16.792 -0.5099 -0.2979  0.0548
 4415TIP3    H234737   2.636   6.797  16.689  0.1454  0.1903  0.5147
 4416TIP3   OH234738   0.406   0.572  16.603 -0.0874 -0.2781  0.2828
 4416TIP3    H134739   0.396   0.500  16.664  1.7114 -1.5806 -0.8581
 4416TIP3    H234740   0.433   0.646  16.658 -0.2343 -0.9262  1.2595
 4417TIP3   OH234741   1.381   1.364   2.500  0.0463  0.4206 -0.2341
 4417TIP3    H134742   1.447   1.311   2.455 -0.6554 -0.1133 -0.6476
 4417TIP3    H234743   1.301   1.352   2.449 -0.1248  1.9283 -0.3810
 4418TIP3   OH234744   1.857   3.535  15.702 -0.1307 -0.0797  0.0951
 4418TIP3    H134745   1.832   3.445  15.725  0.2736 -0.5964 -1.3411
 4418TIP3    H234746   1.821   3.547  15.614  3.3663 -0.3878 -1.5289
 4419TIP3   OH234747   6.174   6.395  10.747  0.1907 -0.0317 -0.0649
 4419TIP3    H134748   6.237   6.322  10.749 -0.6651 -0.7820  0.4291
 4419TIP3    H234749   6.162   6.413  10.653 -0.1385 -1.0397 -0.2361
 4420TIP3   OH234750   4.081   5.413   0.837 -0.6465 -0.3754  0.2888
 4420TIP3    H134751   4.161   5.463   0.854 -0.7836 -0.0465 -0.0090
 4420TIP3    H234752   4.035   5.413   0.921 -0.6113 -0.0563  0.3106
 4421TIP3   OH234753   4.209   4.694   4.490  0.2320  0.3051 -0.5311
 4421TIP3    H134754   4.220   4.747   4.411  0.6127  0.0591 -0.6455
 4421TIP3    H234755   4.241   4.750   4.561  0.5758  0.2567 -0.6446
 4422TIP3   OH234756   0.917   2.824   1.924 -0.1710  0.0387  0.5503
 4422TIP3    H134757   0.990   2.782   1.878 -1.3265 -0.1093 -1.2535
 4422TIP3    H234758   0.953   2.908   1.953  1.4076 -1.0299  1.9271
 4423TIP3   OH234759   1.605   4.370  13.260  0.0296 -0.5071 -0.1817
 4423TIP3    H134760   1.619   4.410  13.174  1.2825  0.6313  0.5268
 4423TIP3    H234761   1.590   4.443  13.319 -1.8730 -1.3251  0.4308
 4424TIP3   OH234762   5.307   2.373  17.003 -0.6024 -0.2504 -0.3631
 4424TIP3    H134763   5.279   2.444  17.061 -0.3052 -0.8844  0.5819
 4424TIP3    H234764   5.402   2.368  17.016 -0.1283  1.1292 -2.6796
 4425TIP3   OH234765   6.529   0.691   5.467 -0.0546  0.2347  0.5042
 4425TIP3    H134766   6.453   0.746   5.447  0.0168 -0.1948 -1.0685
 4425TIP3    H234767   6.513   0.610   5.418  1.8313  0.4691 -0.5702
 4426TIP3   OH234768   1.641   5.954   2.385  0.0396  0.5019  0.7568
 4426TIP3    H134769   1.722   5.920   2.348  0.8858  1.9031  1.2116
 4426TIP3    H234770   1.670   6.022   2.447 -1.3908 -0.4609  2.5796
 4427TIP3   OH234771   4.525   4.489   1.735 -0.1991 -0.2916  0.6323
 4427TIP3    H134772   4.517   4.566   1.679  0.2015  0.4976  1.6479
 4427TIP3    H234773   4.437   4.450   1.734 -0.0938 -0.5427 -0.8738
 4428TIP3   OH234774   1.603   2.580   3.171  1.0170 -0.0948  0.0799
 4428TIP3    H134775   1.613   2.660   3.222  3.3779 -0.0570 -0.3304
 4428TIP3    H234776   1.587   2.610   3.082  2.0473 -0.0396 -0.1009
 4429TIP3   OH234777   1.150   5.945  16.949  0.8730  0.1499  0.0239
 4429TIP3    H134778   1.072   5.919  16.999  0.9521 -0.4285 -0.1426
 4429TIP3    H234779   1.184   6.021  16.995  0.9170 -0.3416  0.8306
 4430TIP3   OH234780   3.270   0.209  12.735  0.0443  0.2428 -0.4498
 4430TIP3    H134781   3.313   0.275  12.789 -1.1617  0.2116  0.6013
 4430TIP3    H234782   3.181   0.243  12.723 -0.4739 -0.9971 -0.2154
 4431TIP3   OH234783   3.621   6.104  12.155  0.0284 -0.1345  0.4142
 4431TIP3    H134784   3.637   6.032  12.094  1.8992 -0.0413  0.7150
 4431TIP3    H234785   3.546   6.076  12.207 -0.5369 -0.9533 -0.7991
 4432TIP3   OH234786   0.563   5.209  13.092 -0.2141 -0.4680 -0.2686
 4432TIP3    H134787   0.648   5.190  13.131  0.2760 -1.0984 -1.5816
 4432TIP3    H234788   0.575   5.292  13.046 -0.8404  0.3648  1.0067
 4433TIP3   OH234789   1.876   4.247  15.123  0.2729 -0.2351 -0.6097
 4433TIP3    H134790   1.853   4.164  15.081  1.0910 -0.7791 -0.0365
 4433TIP3    H234791   1.807   4.261  15.188  0.3010 -0.6313 -0.4922
 4434TIP3   OH234792   2.819   5.337  12.462 -0.1273 -0.3221 -0.3758
 4434TIP3    H134793   2.877   5.311  12.391  0.6055  0.0486  0.0744
 4434TIP3    H234794   2.731   5.322  12.428  0.2205 -0.4454 -1.2450
 4435TIP3   OH234795   5.796   5.898   5.040  0.0550 -0.1434 -0.4913
 4435TIP3    H134796   5.712   5.937   5.066 -1.0066 -1.3852 -1.9004
 4435TIP3    H234797   5.792   5.894   4.944  1.8480 -0.0263 -0.6150
 4436TIP3   OH234798   5.587   5.818  14.309 -0.2174 -0.1808 -0.5097
 4436TIP3    H134799   5.669   5.798  14.355 -0.7316 -0.2429  0.4217
 4436TIP3    H234800   5.529   5.851  14.378 -0.9583 -0.0868 -1.1632
 4437TIP3   OH234801   0.240   4.245   6.110  0.5229  0.0885 -0.3081
 4437TIP3    H134802   0.265   4.286   6.193  1.1763 -0.9170  0.0116
 4437TIP3    H234803   0.274   4.304   6.043 -0.2598  1.0570  0.1245
 4438TIP3   OH234804   1.089   2.507  14.616 -0.1697 -0.3102 -0.8291
 4438TIP3    H134805   1.119   2.515  14.706 -5.1792  0.3049  1.1217
 4438TIP3    H234806   1.116   2.588  14.574  1.0369  0.0213  0.5252
 4439TIP3   OH234807   0.193   1.208  10.820  0.2712  0.9187  0.1062
 4439TIP3    H134808   0.247   1.130  10.811 -0.6195 -0.2116  3.2135
 4439TIP3    H234809   0.118   1.193  10.762  0.1520 -0.5325  0.6080
 4440TIP3   OH234810   3.670   0.653  12.728 -0.2507  0.5778 -0.5596
 4440TIP3    H134811   3.692   0.706  12.652 -0.1760  0.9641 -0.2722
 4440TIP3    H234812   3.589   0.608  12.704 -0.2368  0.7110 -0.8562
 4441TIP3   OH234813   2.636   0.633  17.178 -0.1459 -0.0412  0.8257
 4441TIP3    H134814   2.664   0.553  17.222  2.0430 -1.0622 -2.1074
 4441TIP3    H234815   2.562   0.606  17.122  0.3196  0.0511  0.1512
 4442TIP3   OH234816   0.661   2.165  15.740  0.1857 -0.1101 -0.1876
 4442TIP3    H134817   0.683   2.133  15.653 -0.0587  0.8304 -0.6172
 4442TIP3    H234818   0.672   2.260  15.734 -2.7246  0.3414 -0.1028
 4443TIP3   OH234819   0.069   2.251  17.200  0.0705 -0.8761  0.0367
 4443TIP3    H134820   0.017   2.323  17.236  1.0329 -0.8106  1.3877
 4443TIP3    H234821   0.155   2.290  17.184  0.6426 -1.7369  0.9124
 4444TIP3   OH234822   0.009   4.269   5.979  0.2207  0.2309 -0.1522
 4444TIP3    H134823   0.075   4.238   6.041 -0.5751 -1.8979 -0.2633
 4444TIP3    H234824   0.006   4.363   5.992  2.3060  0.2183  0.8023
 4445TIP3   OH234825   1.691   2.693   2.304  0.1285  0.5432  0.4691
 4445TIP3    H134826   1.607   2.649   2.290  0.4874  0.0405 -0.2048
 4445TIP3    H234827   1.682   2.739   2.387 -0.9726  0.8732  0.1727
 4446TIP3   OH234828   3.969   3.401   0.664  0.2463  0.0396  0.1995
 4446TIP3    H134829   3.877   3.410   0.685  0.5340  1.3211  1.0326
 4446TIP3    H234830   3.975   3.426   0.572 -0.1905  0.2652  0.2307
 4447TIP3   OH234831   0.174   5.503  13.855 -0.1355 -0.0578 -0.0504
 4447TIP3    H134832   0.209   5.491  13.767  1.7739  0.9971  0.5043
 4447TIP3    H234833   0.225   5.443  13.910 -0.5282  0.1058  0.5010
 4448TIP3   OH234834   4.572   1.494  16.315 -0.0080  0.2871  0.0099
 4448TIP3    H134835   4.563   1.499  16.410  2.3512  0.0019  0.3098
 4448TIP3    H234836   4.658   1.532  16.297 -0.1525 -0.2145 -1.9612
 4449TIP3   OH234837   2.789   2.162  13.462 -0.2678  0.1331 -0.2295
 4449TIP3    H134838   2.827   2.074  13.457 -0.4520 -0.1268  1.9535
 4449TIP3    H234839   2.828   2.200  13.540 -0.8566  1.6905 -0.6648
 4450TIP3   OH234840   2.549   0.523   1.678 -0.1891  0.1979 -0.6347
 4450TIP3    H134841   2.565   0.452   1.739 -1.3195 -0.8948 -1.5651
 4450TIP3    H234842   2.635   0.563   1.664 -0.0076  0.9918  2.2094
 4451TIP3   OH234843   3.569   0.703   5.159  0.5293  0.3699  0.6990
 4451TIP3    H134844   3.647   0.723   5.211 -0.0632  0.6584  1.4918
 4451TIP3    H234845   3.573   0.608   5.147  1.0118  0.3828  0.7131
 4452TIP3   OH234846   1.997   2.266   0.888 -0.1614  0.0376 -0.3705
 4452TIP3    H134847   2.080   2.285   0.845 -0.6635 -0.8976 -1.8069
 4452TIP3    H234848   1.976   2.177   0.862 -2.0393  0.5470 -0.7679
 4453TIP3   OH234849   5.796   6.533  11.438  0.1884  0.2486 -0.3123
 4453TIP3    H134850   5.753   6.507  11.356 -0.6049 -2.5320  0.8561
 4453TIP3    H234851   5.734   6.507  11.506  1.6602  0.6709  1.2557
 4454TIP3   OH234852   0.618   2.988  13.651  0.4313 -0.0201 -0.6648
 4454TIP3    H134853   0.589   2.897  13.657  3.1910 -0.9035  0.7680
 4454TIP3    H234854   0.658   2.994  13.564 -0.6539  0.1541 -1.1684
 4455TIP3   OH234855   4.549   3.519  12.597 -0.3527 -0.0168  0.0571
 4455TIP3    H134856   4.533   3.530  12.691  0.9224 -0.5810  0.3674
 4455TIP3    H234857   4.636   3.555  12.583 -1.1861  1.6001 -1.2601
 4456TIP3   OH234858   0.896   5.265  13.843  0.1957 -0.0574 -0.0063
 4456TIP3    H134859   0.982   5.234  13.870 -0.3029 -0.2611  1.4597
 4456TIP3    H234860   0.846   5.185  13.824  0.0413  0.0122  0.1013
 4457TIP3   OH234861   2.548   2.512  13.519 -0.2111 -0.0519  0.7533
 4457TIP3    H134862   2.532   2.500  13.612 -0.9361  2.0194  0.9542
 4457TIP3    H234863   2.643   2.521  13.511 -0.2932  2.5569  1.7584
 4458TIP3   OH234864   2.252   0.993  14.289 -0.1797  0.0256  0.7118
 4458TIP3    H134865   2.210   1.065  14.337 -0.6225 -0.2228  0.7046
 4458TIP3    H234866   2.277   1.032  14.205  0.8879  0.5506  1.2476
 4459TIP3   OH234867   3.921   0.236  12.013  0.3225  0.9940  0.4895
 4459TIP3    H134868   3.953   0.325  11.998 -0.4482  1.1819 -0.0902
 4459TIP3    H234869   3.998   0.188  12.045  0.7505  1.8526  0.7762
 4460TIP3   OH234870   0.702   1.307  14.892 -0.4351 -0.4590 -0.3448
 4460TIP3    H134871   0.632   1.277  14.949 -1.6346  1.0190 -0.9948
 4460TIP3    H234872   0.782   1.285  14.939 -1.3192 -1.6024  0.7023
 4461TIP3   OH234873   6.064   2.732   4.948  0.1731  0.0367 -0.3063
 4461TIP3    H134874   6.131   2.764   5.007  0.1436 -1.3919  0.5563
 4461TIP3    H234875   5.989   2.791   4.961  0.6071  0.4964  0.1258
 4462TIP3   OH234876   5.356   5.630  14.293 -0.2107 -0.1523 -0.0095
 4462TIP3    H134877   5.290   5.673  14.347  1.0974 -0.2777  1.7660
 4462TIP3    H234878   5.423   5.696  14.278  0.5612 -0.7952  0.5206
 4463TIP3   OH234879   2.471   3.342   0.901  0.2316 -0.5920  0.3653
 4463TIP3    H134880   2.478   3.397   0.823  1.3934  2.1814  2.2321
 4463TIP3    H234881   2.520   3.263   0.880  1.3791  0.5164 -1.3664
 4464TIP3   OH234882   6.721   4.789  11.531  0.5437 -0.1023  0.4947
 4464TIP3    H134883   6.664   4.853  11.573 -0.0268 -1.3339  1.6704
 4464TIP3    H234884   6.721   4.814  11.439  0.2216  1.4850  0.8949
 4465TIP3   OH234885   5.229   2.872  14.557 -0.0297 -0.6646 -0.0044
 4465TIP3    H134886   5.285   2.897  14.630  0.2132 -1.8346  0.2322
 4465TIP3    H234887   5.239   2.943  14.494  3.7582 -1.9276 -1.1119
 4466TIP3   OH234888   3.343   2.545  11.262 -0.1784  0.0046 -0.2441
 4466TIP3    H134889   3.305   2.458  11.270 -0.6749  0.3756  2.0142
 4466TIP3    H234890   3.270   2.605  11.274  0.1640  0.7875 -1.7171
 4467TIP3   OH234891   5.189   4.594   5.102 -0.4341  0.2889  0.1957
 4467TIP3    H134892   5.147   4.633   5.025 -0.0126 -1.9006 -1.2636
 4467TIP3    H234893   5.260   4.654   5.123 -0.9753  1.2906 -0.7157
 4468TIP3   OH234894   5.778   0.256   2.276 -0.1188  0.5355  0.1234
 4468TIP3    H134895   5.810   0.249   2.366 -0.0090 -0.5490  0.0124
 4468TIP3    H234896   5.707   0.320   2.281 -0.0305  0.5790  0.9581
 4469TIP3   OH234897   2.258   1.482  12.382 -0.3053 -0.2173 -0.0755
 4469TIP3    H134898   2.257   1.495  12.287 -1.9248 -1.3308 -0.2427
 4469TIP3    H234899   2.191   1.542  12.414 -2.2192 -2.2747 -0.0387
 4470TIP3   OH234900   1.381   3.928   6.264  0.0828  0.1211  0.4891
 4470TIP3    H134901   1.356   3.873   6.190 -0.9243  1.3344 -0.0936
 4470TIP3    H234902   1.473   3.950   6.247 -0.6061  1.8207 -1.3695
 4471TIP3   OH234903   2.795   0.616   3.476 -0.2461  0.2028  0.1315
 4471TIP3    H134904   2.730   0.600   3.544  0.1494  0.1430  0.4963
 4471TIP3    H234905   2.816   0.530   3.441 -0.0507  0.1774  0.3070
 4472TIP3   OH234906   0.476   0.300  15.103  0.0387 -0.0158 -0.0291
 4472TIP3    H134907   0.550   0.337  15.150 -1.5581  2.6995  0.5644
 4472TIP3    H234908   0.449   0.225  15.156  0.9826  0.3280  0.9764
 4473TIP3   OH234909   3.121   0.090   3.648 -0.2835 -0.2565  0.0201
 4473TIP3    H134910   3.042   0.144   3.653  0.2203  0.4890  0.1326
 4473TIP3    H234911   3.138   0.063   3.738 -0.1188  0.0215  0.0739
 4474TIP3   OH234912   6.459   5.679   0.775  0.2517  0.3640  0.1060
 4474TIP3    H134913   6.492   5.629   0.701  1.1952 -1.9639  1.9688
 4474TIP3    H234914   6.533   5.735   0.801  0.2066  0.5569 -0.1759
 4475TIP3   OH234915   5.327   1.170   6.682  0.1381  0.3017 -0.4839
 4475TIP3    H134916   5.245   1.125   6.704  0.2219  0.2412 -0.2953
 4475TIP3    H234917   5.330   1.244   6.743  0.2417  0.2836 -0.4681
 4476TIP3   OH234918   6.442   0.353   4.111  0.4696 -0.7299  0.2330
 4476TIP3    H134919   6.464   0.260   4.121 -0.9973 -1.3429 -1.5344
 4476TIP3    H234920   6.358   0.353   4.065 -0.1041  1.4920  1.1405
 4477TIP3   OH234921   0.506   4.617  12.720  0.4523  0.0392 -0.3101
 4477TIP3    H134922   0.587   4.637  12.768  0.4800  0.4051 -0.5077
 4477TIP3    H234923   0.492   4.524  12.736  0.2404  0.2369  0.7626
 4478TIP3   OH234924   5.369   3.877  14.045 -0.1997  0.4433 -0.0034
 4478TIP3    H134925   5.273   3.878  14.045 -0.1990  0.5679 -0.6799
 4478TIP3    H234926   5.393   3.857  13.955  0.3792 -2.2604  0.6632
 4479TIP3   OH234927   4.901   3.692   0.645 -0.7664 -0.4285  0.1015
 4479TIP3    H134928   4.816   3.712   0.608 -1.2674 -0.4718  1.1711
 4479TIP3    H234929   4.962   3.696   0.572 -1.5541  0.4652 -0.5178
 4480TIP3   OH234930   0.671   4.215  16.410 -1.0902  0.1831  0.2937
 4480TIP3    H134931   0.643   4.124  16.399  0.8524 -0.2466 -2.0208
 4480TIP3    H234932   0.655   4.256  16.325  2.8365  0.4788 -0.4931
 4481TIP3   OH234933   1.373   3.180   0.131 -0.1509  0.1995 -0.0289
 4481TIP3    H134934   1.278   3.186   0.142 -0.2445 -2.0928  0.9579
 4481TIP3    H234935   1.404   3.269   0.144 -2.1596  1.0105 -0.3955
 4482TIP3   OH234936   2.698   1.555  14.348 -0.0540  0.8540  0.5604
 4482TIP3    H134937   2.766   1.526  14.410 -0.8691 -1.9689  0.2784
 4482TIP3    H234938   2.623   1.577  14.404 -0.5722 -1.0643  0.7033
 4483TIP3   OH234939   0.417   3.106  13.019  0.9240  0.1249 -0.1183
 4483TIP3    H134940   0.409   3.175  13.085 -0.8634 -0.3425  0.2111
 4483TIP3    H234941   0.386   3.027  13.063  0.7399 -0.4159 -1.1811
 4484TIP3   OH234942   1.750   4.687  12.412 -0.1036 -0.3544 -0.2446
 4484TIP3    H134943   1.662   4.651  12.423 -1.2931  2.3230 -0.1436
 4484TIP3    H234944   1.751   4.765  12.468  2.3744 -0.3329 -0.2078
 4485TIP3   OH234945   6.308   2.042   2.676  0.5591 -0.4548  0.1003
 4485TIP3    H134946   6.333   2.134   2.683 -0.7572 -0.1027  0.3583
 4485TIP3    H234947   6.314   2.009   2.765 -1.6217  0.1239  0.5167
 4486TIP3   OH234948   6.203   6.611  14.733  0.1496 -1.0497  0.0448
 4486TIP3    H134949   6.257   6.539  14.763  0.2976 -0.8450  0.2698
 4486TIP3    H234950   6.259   6.688  14.740 -1.2294 -0.1749  3.7942
 4487TIP3   OH234951   1.387   4.649  16.275  0.3584  0.0468  0.6959
 4487TIP3    H134952   1.375   4.555  16.262 -0.5183  0.2310  0.1290
 4487TIP3    H234953   1.327   4.690  16.212  0.8742  0.9853  0.7992
 4488TIP3   OH234954   1.469   0.323  14.598  0.3381 -0.3223  0.2377
 4488TIP3    H134955   1.563   0.314  14.580 -0.1432 -1.9612 -1.8885
 4488TIP3    H234956   1.462   0.316  14.694  2.4413  0.8190  0.5196
 4489TIP3   OH234957   3.817   4.589  14.605 -0.2631 -0.0728 -0.1486
 4489TIP3    H134958   3.833   4.514  14.662 -0.3540  0.3279  0.4146
 4489TIP3    H234959   3.901   4.635  14.602 -0.5138  0.4360  0.4515
 4490TIP3   OH234960   6.434   4.347   5.879  0.0406 -0.1387  0.4120
 4490TIP3    H134961   6.495   4.413   5.847 -0.0808 -0.6244 -0.8877
 4490TIP3    H234962   6.399   4.306   5.799  0.2585 -1.8897  1.1664
 4491TIP3   OH234963   4.304   1.213  15.155 -0.8750 -0.0797 -0.5550
 4491TIP3    H134964   4.295   1.308  15.145  1.1363  0.0231 -2.1643
 4491TIP3    H234965   4.215   1.182  15.169 -1.9540  1.7956 -2.4951
 4492TIP3   OH234966   1.480   5.405   2.995 -0.2678 -0.1785  0.3398
 4492TIP3    H134967   1.413   5.338   3.007  1.0387 -1.2183  2.8034
 4492TIP3    H234968   1.515   5.388   2.908 -0.3903 -2.3924  0.6404
 4493TIP3   OH234969   6.214   6.466   5.117 -0.1029  0.8089 -0.1886
 4493TIP3    H134970   6.294   6.512   5.142 -0.0633  0.4387  0.3788
 4493TIP3    H234971   6.211   6.472   5.021  1.0341  0.0975 -0.2829
 4494TIP3   OH234972   1.199   6.187   0.251 -0.1505  0.1534  0.1170
 4494TIP3    H134973   1.288   6.195   0.218  0.5204  0.8069  1.9157
 4494TIP3    H234974   1.184   6.092   0.259  1.8051 -0.0427  3.1259
 4495TIP3   OH234975   4.296   2.999  17.176 -0.4696  0.2518 -0.6350
 4495TIP3    H134976   4.307   3.019  17.269 -1.7079 -0.3463 -0.3398
 4495TIP3    H234977   4.259   3.079  17.139 -0.8768  0.1655 -0.4197
 4496TIP3   OH234978   3.687   5.188  11.701 -0.0244  0.0130  0.0216
 4496TIP3    H134979   3.599   5.152  11.692 -0.0764 -0.1009  0.8322
 4496TIP3    H234980   3.681   5.246  11.777  0.5417  0.1920 -0.0648
 4497TIP3   OH234981   0.104   0.896  14.366  0.2788 -0.2784  0.1410
 4497TIP3    H134982   0.125   0.937  14.282  0.0766  1.9953  1.1188
 4497TIP3    H234983   0.177   0.837  14.383  1.2933  0.6850 -0.7372
 4498TIP3   OH234984   5.128   5.542   3.558  0.3062  0.0501  0.3548
 4498TIP3    H134985   5.039   5.506   3.553  0.1487  0.1266  2.0166
 4498TIP3    H234986   5.134   5.577   3.647  2.1846 -0.4543  0.4649
 4499TIP3   OH234987   0.600   6.368   2.565 -0.2480 -0.0140 -0.1813
 4499TIP3    H134988   0.628   6.309   2.495 -0.7929 -0.9226  0.3298
 4499TIP3    H234989   0.675   6.374   2.623 -0.6504 -1.4273  0.5325
 4500TIP3   OH234990   5.319   6.383  11.311 -0.2474 -0.8272 -0.5075
 4500TIP3    H134991   5.240   6.390  11.257 -0.5964 -0.5732  0.0267
 4500TIP3    H234992   5.320   6.291  11.339 -2.4771 -0.0856  2.5834
 4501TIP3   OH234993   2.500   4.317   2.935 -0.7927 -0.0038 -0.2727
 4501TIP3    H134994   2.552   4.341   3.011 -1.3563 -0.3758  0.2412
 4501TIP3    H234995   2.464   4.399   2.903 -0.5201  0.1586 -0.1585
 4502TIP3   OH234996   0.001   2.287   1.704  0.2981 -0.8005 -0.2403
 4502TIP3    H134997   0.001   2.281   1.800  1.9066 -0.9738 -0.2159
 4502TIP3    H234998  -0.046   2.209   1.674 -0.6426 -0.4956  0.4002
 4503TIP3   OH234999   4.422   0.027  17.020  0.0388  0.2706 -0.2772
 4503TIP3    H135000   4.506   0.073  17.026  0.7842 -1.0713 -0.1532
 4503TIP3    H235001   4.445  -0.066  17.020 -1.3891 -0.1147 -1.2246
 4504TIP3   OH235002   3.504   5.385   6.134 -0.2980  0.1711 -0.0901
 4504TIP3    H135003   3.452   5.457   6.168 -1.2483  1.2321 -3.3770
 4504TIP3    H235004   3.448   5.308   6.145 -1.5111  0.8535 -1.1251
 4505TIP3   OH235005   0.726   6.756   1.042  0.4103  0.1990 -0.1863
 4505TIP3    H135006   0.801   6.746   1.102 -0.9855 -1.4459  1.3990
 4505TIP3    H235007   0.698   6.666   1.025 -0.3229  0.7364 -1.9516
 4506TIP3   OH235008   1.887   3.112   3.490 -0.3121 -0.4225 -0.2281
 4506TIP3    H135009   1.967   3.091   3.537 -0.4118 -0.4106 -0.0509
 4506TIP3    H235010   1.817   3.104   3.556 -0.5918 -1.4797 -0.6299
 4507TIP3   OH235011   3.189   4.492   5.340 -0.1609 -0.0685 -0.1910
 4507TIP3    H135012   3.246   4.516   5.267  0.6792 -0.5674  0.2834
 4507TIP3    H235013   3.205   4.398   5.353  1.4107  0.4164  2.0382
 4508TIP3   OH235014   2.151   2.271  15.643 -1.0181 -0.1340 -0.3674
 4508TIP3    H135015   2.151   2.198  15.582 -0.1701 -1.1382  0.7773
 4508TIP3    H235016   2.126   2.347  15.590 -1.4774 -1.1608 -1.6795
 4509TIP3   OH235017   3.939   3.163   2.854 -0.2753 -0.0407 -0.3442
 4509TIP3    H135018   3.862   3.143   2.908 -1.5412 -1.3441 -2.4760
 4509TIP3    H235019   3.983   3.079   2.844  0.7734  0.4742 -0.1367
 4510TIP3   OH235020   0.576   1.773   2.182  0.3267  0.5625  0.0042
 4510TIP3    H135021   0.491   1.731   2.195 -0.2067  1.5139 -0.3213
 4510TIP3    H235022   0.564   1.829   2.105  1.4481  0.1883 -0.4673
 4511TIP3   OH235023   4.134   2.272   2.902 -0.4111 -0.2612 -0.0826
 4511TIP3    H135024   4.219   2.260   2.858 -0.9048 -1.7549 -0.6741
 4511TIP3    H235025   4.090   2.339   2.850  0.2092  0.2043 -0.0332
 4512TIP3   OH235026   2.615   4.020  12.478 -0.1025  0.4489 -0.3086
 4512TIP3    H135027   2.685   4.001  12.539  0.8179  0.7305 -1.2413
 4512TIP3    H235028   2.534   4.000  12.526  0.6497 -2.4255 -0.0797
 4513TIP3   OH235029   0.148   2.572   3.920  0.2238 -0.3255  0.2456
 4513TIP3    H135030   0.197   2.654   3.929  0.6195 -0.1105 -2.8312
 4513TIP3    H235031   0.205   2.505   3.958  0.1478  0.6744  2.2602
 4514TIP3   OH235032   2.882   5.076   4.561  0.1332  0.6100  0.8005
 4514TIP3    H135033   2.917   5.153   4.518 -0.6688  0.3151 -0.4285
 4514TIP3    H235034   2.912   5.083   4.652  0.0121  2.3830  0.7260
 4515TIP3   OH235035   3.338   5.628  16.782  0.3439  0.1786  0.1302
 4515TIP3    H135036   3.303   5.717  16.781 -2.8384 -0.9531  0.2066
 4515TIP3    H235037   3.262   5.572  16.797  1.8608 -2.7478 -1.9974
 4516TIP3   OH235038   5.327   0.731  13.065 -0.2549  0.2421  0.3406
 4516TIP3    H135039   5.416   0.745  13.099 -0.2845  0.6736  0.2501
 4516TIP3    H235040   5.325   0.783  12.984  0.8544 -3.1243 -2.0801
 4517TIP3   OH235041   1.203   2.404  12.339  0.4074 -0.2405  0.4248
 4517TIP3    H135042   1.230   2.322  12.299  0.7998 -0.6447  1.4842
 4517TIP3    H235043   1.238   2.400  12.428  0.9645  1.3327  0.3150
 4518TIP3   OH235044   5.412   2.062   2.171  0.2761 -0.4026 -0.0664
 4518TIP3    H135045   5.480   2.123   2.200 -0.4807  0.8582 -0.8349
 4518TIP3    H235046   5.334   2.089   2.219 -0.7351  1.0550 -2.3671
 4519TIP3   OH235047   2.736   0.667   4.516  0.2278 -0.2284  0.6029
 4519TIP3    H135048   2.724   0.652   4.610  1.0431  0.0181  0.7502
 4519TIP3    H235049   2.714   0.759   4.503  1.8197  0.2211  0.8711
 4520TIP3   OH235050   1.291   3.869  16.203  0.2659  0.2949 -0.6797
 4520TIP3    H135051   1.357   3.810  16.240  0.4011 -0.1517 -1.5895
 4520TIP3    H235052   1.210   3.818  16.205  0.1200  0.5387 -0.3290
 4521TIP3   OH235053   2.139   1.305   1.037  0.2510 -0.1185 -0.2433
 4521TIP3    H135054   2.232   1.290   1.052  0.2826 -0.6356 -0.8887
 4521TIP3    H235055   2.098   1.221   1.058  0.1970 -0.5799 -2.0223
 4522TIP3   OH235056   4.629   6.795   2.212  0.2575  0.5488 -0.5754
 4522TIP3    H135057   4.544   6.808   2.254  0.2701  0.7590 -0.6137
 4522TIP3    H235058   4.621   6.839   2.128 -0.3524 -1.3119 -1.5417
 4523TIP3   OH235059   0.924   4.355  11.235  0.3307  0.6012  0.0968
 4523TIP3    H135060   0.857   4.372  11.301  0.0739  1.4133 -0.3677
 4523TIP3    H235061   1.007   4.358  11.284  0.0106 -1.0703  0.7970
 4524TIP3   OH235062   5.426   1.365  16.103 -0.2622 -0.1507 -0.0347
 4524TIP3    H135063   5.514   1.337  16.125 -0.6668 -0.6942  0.9520
 4524TIP3    H235064   5.419   1.351  16.008  0.7803  0.1547 -0.1705
 4525TIP3   OH235065   0.834   2.392   3.788 -0.1485 -0.7424  0.5031
 4525TIP3    H135066   0.888   2.428   3.717  0.8756 -1.9547  0.6315
 4525TIP3    H235067   0.756   2.359   3.745 -1.6322  2.4367  0.4774
 4526TIP3   OH235068   4.738   4.759   2.195  0.0282  0.7556 -0.0622
 4526TIP3    H135069   4.742   4.811   2.276 -0.5068  2.7312 -1.2138
 4526TIP3    H235070   4.824   4.771   2.155  0.5043 -0.7189  0.4626
 4527TIP3   OH235071   1.998   6.102   0.452 -0.1089  0.0822 -0.6039
 4527TIP3    H135072   2.013   6.168   0.519 -0.4510 -1.1782  0.7573
 4527TIP3    H235073   2.071   6.113   0.391  2.2135 -0.9785  1.8009
 4528TIP3   OH235074   1.837   2.507   0.200 -0.0146 -0.1333  0.4243
 4528TIP3    H135075   1.826   2.419   0.235 -2.1033 -0.1292 -0.0672
 4528TIP3    H235076   1.822   2.564   0.275 -0.0958 -0.1810  0.4443
 4529TIP3   OH235077   0.414   2.279   1.688  0.0973 -0.1988  0.4577
 4529TIP3    H135078   0.497   2.326   1.676 -1.3707  2.3595 -0.3708
 4529TIP3    H235079   0.403   2.274   1.782 -0.0490  1.9046  0.5943
 4530TIP3   OH235080   6.397   2.659   3.038 -0.2342 -0.4437 -0.0760
 4530TIP3    H135081   6.469   2.662   3.100 -0.4271  0.6626  0.1278
 4530TIP3    H235082   6.334   2.723   3.072 -1.4049 -1.5146 -0.1415
 4531TIP3   OH235083   3.807   2.194  12.740 -0.5402 -0.4788  0.4001
 4531TIP3    H135084   3.852   2.279  12.740 -0.5546 -0.4605  1.1328
 4531TIP3    H235085   3.736   2.205  12.804 -0.3387 -1.1455  0.7401
 4532TIP3   OH235086   5.044   5.009  15.411  0.2631  0.3894 -0.1400
 4532TIP3    H135087   5.115   4.957  15.448  1.1372 -0.3763 -2.7423
 4532TIP3    H235088   5.055   5.096  15.450  1.3478 -0.2566  1.0661
 4533TIP3   OH235089   0.512   6.000   2.861 -0.2050 -0.4147  0.2764
 4533TIP3    H135090   0.427   5.983   2.903 -0.4675  0.2496  0.0343
 4533TIP3    H235091   0.493   5.993   2.767  0.0899 -0.6241  0.2339
 4534TIP3   OH235092   2.074   2.862  12.235  0.2574 -0.2150 -0.4760
 4534TIP3    H135093   2.060   2.931  12.170  1.1634 -0.5518 -1.0497
 4534TIP3    H235094   2.150   2.891  12.286 -0.2074 -0.1372  0.1941
 4535TIP3   OH235095   2.243   4.331   1.450  0.0757  0.2462 -0.8288
 4535TIP3    H135096   2.244   4.250   1.398  2.3201  1.6189 -3.1530
 4535TIP3    H235097   2.316   4.320   1.511  0.6203  0.6485 -1.4010
 4536TIP3   OH235098   3.535   2.182   2.882 -0.0310  0.1217 -0.0521
 4536TIP3    H135099   3.525   2.182   2.786  2.4327  0.5469 -0.3694
 4536TIP3    H235100   3.611   2.127   2.898 -0.7480 -0.4018  1.7447
 4537TIP3   OH235101   1.588   0.854  10.928  0.6932 -0.7174  0.1252
 4537TIP3    H135102   1.612   0.919  10.863 -1.6940  0.8980  0.7601
 4537TIP3    H235103   1.508   0.813  10.895 -1.4787  1.2137  2.5884
 4538TIP3   OH235104   3.749   1.609  14.729  0.9029  0.1987 -0.2115
 4538TIP3    H135105   3.815   1.540  14.739  1.7971  1.0692  0.0867
 4538TIP3    H235106   3.707   1.615  14.814 -0.0138 -0.7799 -0.5751
 4539TIP3   OH235107   2.311   5.684  11.348 -0.2648  0.7255  0.4128
 4539TIP3    H135108   2.284   5.775  11.343 -0.1831  0.7134 -0.3067
 4539TIP3    H235109   2.394   5.680  11.300  0.0792  0.4037  1.0175
 4540TIP3   OH235110   6.173   2.058  13.736  0.0755  0.0733 -0.2655
 4540TIP3    H135111   6.116   2.124  13.697  0.4031  0.9601  0.7138
 4540TIP3    H235112   6.260   2.098  13.735  0.5119 -0.8450 -0.7794
 4541TIP3   OH235113   4.003   3.564   4.008 -0.2233  0.5775 -0.0899
 4541TIP3    H135114   4.000   3.500   4.079  2.2056 -1.3798 -1.5944
 4541TIP3    H235115   3.913   3.568   3.976 -0.9176 -0.1433  1.6440
 4542TIP3   OH235116   1.409   6.427  12.211 -0.3855  0.0242  0.6478
 4542TIP3    H135117   1.431   6.350  12.158  1.6386  0.6756  0.4680
 4542TIP3    H235118   1.326   6.458  12.175 -0.2952 -0.9950 -0.4988
 4543TIP3   OH235119   5.226   2.290   2.247 -0.4458 -0.1053  0.3146
 4543TIP3    H135120   5.276   2.329   2.175 -1.2926 -1.1050 -0.8496
 4543TIP3    H235121   5.256   2.337   2.325  2.7063 -1.0080 -0.2211
 4544TIP3   OH235122   4.137   5.580  14.396 -0.0249 -0.3717 -0.1585
 4544TIP3    H135123   4.194   5.638  14.346 -0.3812 -0.0189 -0.1656
 4544TIP3    H235124   4.088   5.639  14.454  0.0710 -0.7310  0.2930
 4545TIP3   OH235125   4.752   1.178   3.613 -0.4861 -0.2747 -0.2359
 4545TIP3    H135126   4.657   1.186   3.605 -0.5318 -0.1995  0.3504
 4545TIP3    H235127   4.768   1.084   3.603 -0.3812 -0.0592 -2.6598
 4546TIP3   OH235128   4.769   1.957   2.516 -0.5838 -0.2429 -0.5976
 4546TIP3    H135129   4.823   2.005   2.579 -0.0484 -2.2317  0.5327
 4546TIP3    H235130   4.821   1.881   2.492 -1.9465 -1.0080 -1.2786
 4547TIP3   OH235131   5.039   1.390  16.292 -0.1873 -0.8055 -0.0513
 4547TIP3    H135132   4.948   1.377  16.319 -0.1336  0.9100  1.1144
 4547TIP3    H235133   5.089   1.336  16.354 -0.3173 -0.2206  0.5789
 4548TIP3   OH235134   5.969   1.459   3.027 -0.5245 -0.5631 -0.3409
 4548TIP3    H135135   5.942   1.420   3.110  0.1440  0.5272  0.4184
 4548TIP3    H235136   5.887   1.483   2.984 -1.0402 -3.6103 -1.3160
 4549TIP3   OH235137   2.221   6.407  11.464 -0.3596 -0.6806  0.1731
 4549TIP3    H135138   2.242   6.395  11.372  0.6340 -2.7321  0.6137
 4549TIP3    H235139   2.267   6.336  11.509 -0.3200  0.6100  2.3282
 4550TIP3   OH235140   3.591   4.764  11.121 -0.2607 -0.0753 -0.1503
 4550TIP3    H135141   3.602   4.669  11.133 -0.9945 -0.2261 -0.6565
 4550TIP3    H235142   3.653   4.786  11.051  0.8442  0.0552  0.8310
 4551TIP3   OH235143   1.981   4.004   3.076  0.4528 -0.4215  0.0856
 4551TIP3    H135144   2.045   4.065   3.040 -0.6099  1.1089  0.6742
 4551TIP3    H235145   1.986   4.016   3.170  0.5928 -1.6692  0.2599
 4552TIP3   OH235146   2.070   5.557  17.032 -0.6515 -0.4880 -0.1780
 4552TIP3    H135147   1.983   5.528  17.058 -1.3797  1.3525 -0.3917
 4552TIP3    H235148   2.054   5.617  16.959  0.5050  2.1530  1.6114
 4553TIP3   OH235149   0.868   1.851   5.348 -0.2966  0.6964 -0.0704
 4553TIP3    H135150   0.957   1.823   5.326 -0.1333  0.8694  0.3547
 4553TIP3    H235151   0.843   1.910   5.277 -0.1811  0.4266 -0.3377
 4554TIP3   OH235152   6.579   0.397  14.529  0.3320 -0.6870  0.2543
 4554TIP3    H135153   6.611   0.311  14.558  3.0346  0.1680  0.1218
 4554TIP3    H235154   6.604   0.402  14.437  0.5970  0.3580  0.3624
 4555TIP3   OH235155   3.545   2.211  16.418  0.0076  0.1203 -0.0140
 4555TIP3    H135156   3.452   2.191  16.405  0.5434 -1.3528 -1.9633
 4555TIP3    H235157   3.591   2.158  16.353  2.2413  0.8146  0.8941
 4556TIP3   OH235158   5.284   2.766   6.470 -0.4675  0.0321 -0.4744
 4556TIP3    H135159   5.322   2.720   6.545  0.3253  1.7257  0.2299
 4556TIP3    H235160   5.191   2.745   6.473 -0.3428 -0.4401  0.6108
 4557TIP3   OH235161   4.718   4.360   4.952 -0.2495  0.0931  0.8394
 4557TIP3    H135162   4.651   4.293   4.964  0.6464 -0.7151  1.5681
 4557TIP3    H235163   4.702   4.423   5.021  0.8149 -1.0654  2.2216
 4558TIP3   OH235164   5.438   0.773  11.167 -0.2712  0.1554  0.2871
 4558TIP3    H135165   5.402   0.736  11.087 -0.4050  0.7261  0.0768
 4558TIP3    H235166   5.501   0.838  11.137 -0.5091  0.5558  0.6378
 4559TIP3   OH235167   0.989   4.277  12.082  0.4753 -0.7315 -0.4979
 4559TIP3    H135168   1.046   4.325  12.022 -0.6515 -0.4621 -1.3881
 4559TIP3    H235169   0.929   4.343  12.116 -0.2138 -1.2549 -0.6762
 4560TIP3   OH235170   0.898   5.879   1.249 -0.1860  0.3748  0.6584
 4560TIP3    H135171   0.884   5.858   1.342 -0.7712 -1.9256  0.1233
 4560TIP3    H235172   0.980   5.835   1.226 -0.7416 -0.2234 -0.2295
 4561TIP3   OH235173   3.670   5.681  13.487  0.6969 -0.1993  0.5014
 4561TIP3    H135174   3.701   5.751  13.545  1.6740 -2.7363  3.3160
 4561TIP3    H235175   3.748   5.653  13.439  0.9391 -0.9719  1.3010
 4562TIP3   OH235176   6.342   4.179  16.252  0.2946  0.0510  0.3827
 4562TIP3    H135177   6.277   4.245  16.274 -1.3544 -0.9623 -1.1734
 4562TIP3    H235178   6.380   4.208  16.169 -1.7798 -1.7623 -1.3101
 4563TIP3   OH235179   1.038   3.155  11.931  0.0118  0.1380  0.4975
 4563TIP3    H135180   1.028   3.194  11.845  0.4358 -0.6289  0.0930
 4563TIP3    H235181   0.993   3.071  11.925  0.5352 -0.1736  0.8459
 4564TIP3   OH235182   4.428   4.831   0.904  0.3295  0.1049  0.4956
 4564TIP3    H135183   4.464   4.822   0.992  0.0991 -1.3329  0.4626
 4564TIP3    H235184   4.379   4.750   0.889  0.3238  0.3421 -0.9320
 4565TIP3   OH235185   3.010   5.971  14.565  0.4560 -0.1688 -0.5482
 4565TIP3    H135186   3.031   5.967  14.658  1.3018  0.6373 -0.6818
 4565TIP3    H235187   2.990   5.881  14.540 -0.8023 -0.2437  0.6260
 4566TIP3   OH235188   2.251   5.652   5.118  0.3228 -0.2283  0.0362
 4566TIP3    H135189   2.233   5.746   5.116  1.5675  0.0217 -1.5818
 4566TIP3    H235190   2.217   5.619   5.036  1.8655 -0.7654 -0.4270
 4567TIP3   OH235191   5.416   4.782  15.293 -0.4350  0.0657 -0.3465
 4567TIP3    H135192   5.340   4.743  15.337  0.0159  0.1815  0.5463
 4567TIP3    H235193   5.444   4.716  15.230  0.1001 -0.9254  0.8912
 4568TIP3   OH235194   5.960   5.161  13.366  0.5713  0.0054 -0.0309
 4568TIP3    H135195   6.007   5.205  13.295  1.1289 -0.5954 -0.0336
 4568TIP3    H235196   5.969   5.068  13.347 -0.4058 -0.1232  0.1090
 4569TIP3   OH235197   2.296   0.016  10.668 -0.1154  0.1824  0.1677
 4569TIP3    H135198   2.243  -0.000  10.590 -1.3020  1.0008  0.7867
 4569TIP3    H235199   2.303  -0.070  10.711 -0.2821 -0.0750 -0.3118
 4570TIP3   OH235200   1.108   2.890  11.669 -0.3057  0.0352 -0.0642
 4570TIP3    H135201   1.140   2.867  11.756  1.7725 -2.2490 -1.2973
 4570TIP3    H235202   1.013   2.886  11.677 -0.1563 -1.9806  1.7080
 4571TIP3   OH235203   3.687   2.419   3.115  0.4017  0.5739  0.1509
 4571TIP3    H135204   3.769   2.371   3.127 -0.3291 -0.5028  1.1700
 4571TIP3    H235205   3.667   2.409   3.022  1.4142  0.8474 -0.1081
 4572TIP3   OH235206   0.832   3.794   5.453  0.5187  0.4066  0.5506
 4572TIP3    H135207   0.898   3.774   5.520  0.9982  0.2493  0.0444
 4572TIP3    H235208   0.751   3.809   5.502  1.2891  2.3421  1.3497
 4573TIP3   OH235209   4.233   5.048  15.244 -0.2246  0.5923  0.7541
 4573TIP3    H135210   4.298   4.978  15.237  0.2127  0.8085  2.3780
 4573TIP3    H235211   4.285   5.127  15.258 -0.7408  1.1982 -0.5872
 4574TIP3   OH235212   2.765   0.693  13.822  0.4062 -0.2959  0.4813
 4574TIP3    H135213   2.671   0.707  13.834  0.2418  0.1817 -1.1568
 4574TIP3    H235214   2.778   0.697  13.727  2.0358 -0.6847  0.6617
 4575TIP3   OH235215   6.697   0.689  16.255  0.2407  0.0161 -0.2968
 4575TIP3    H135216   6.756   0.621  16.223  0.0935 -0.4088  0.3313
 4575TIP3    H235217   6.711   0.763  16.195  1.8327  0.1440  0.1858
 4576TIP3   OH235218   5.510   0.684   2.256 -0.2559  0.0843  0.6636
 4576TIP3    H135219   5.429   0.707   2.210 -0.3364 -1.0635  0.2088
 4576TIP3    H235220   5.492   0.600   2.297  0.3946  0.2764  1.3720
 4577TIP3   OH235221   5.292   0.468   5.226  0.0012 -0.2278 -0.3025
 4577TIP3    H135222   5.273   0.516   5.146  0.4231 -0.4289 -0.5254
 4577TIP3    H235223   5.328   0.385   5.196 -0.6443 -0.6582  0.0802
 4578TIP3   OH235224   4.756   2.056  14.013  0.0729  0.2856  0.0387
 4578TIP3    H135225   4.822   1.987  14.017  1.3059  1.4778  0.6805
 4578TIP3    H235226   4.791   2.126  14.067 -0.5136  1.9769 -1.6848
 4579TIP3   OH235227   6.551   3.897  15.312  0.3690 -0.0115 -0.0644
 4579TIP3    H135228   6.626   3.838  15.314 -0.0669 -0.5794 -0.1799
 4579TIP3    H235229   6.514   3.890  15.400  0.3478  0.1334 -0.0622
 4580TIP3   OH235230   1.141   0.320  11.172 -0.8368 -0.5150  0.0956
 4580TIP3    H135231   1.190   0.292  11.250 -0.2509  1.7200  0.6171
 4580TIP3    H235232   1.112   0.408  11.193 -1.1418 -0.0537 -2.0259
 4581TIP3   OH235233   3.273   4.465   3.577 -0.2594  0.2120 -0.3215
 4581TIP3    H135234   3.291   4.551   3.613  1.1380 -0.1183 -0.1840
 4581TIP3    H235235   3.284   4.405   3.651  1.5632 -0.3593 -1.0076
 4582TIP3   OH235236   3.320   5.131  16.128 -0.0603  0.2374  0.4213
 4582TIP3    H135237   3.266   5.076  16.184  0.3825 -2.1696 -1.3661
 4582TIP3    H235238   3.393   5.158  16.184 -0.9010  0.0090  1.6637
 4583TIP3   OH235239   0.259   2.814   5.368  0.5224  0.5225 -0.1101
 4583TIP3    H135240   0.203   2.862   5.306 -0.1132  0.0016  0.0526
 4583TIP3    H235241   0.271   2.728   5.327 -2.1415 -0.8312  1.6726
 4584TIP3   OH235242   2.055   0.744   2.331  0.1070  0.4175  0.1032
 4584TIP3    H135243   2.047   0.651   2.310 -0.6216  0.4517  0.2060
 4584TIP3    H235244   1.972   0.767   2.372 -0.3680  1.4760 -1.3257
 4585TIP3   OH235245   6.159   3.755  12.763  0.0286  0.3048  0.0061
 4585TIP3    H135246   6.116   3.774  12.679  2.2323 -0.7475 -1.4609
 4585TIP3    H235247   6.096   3.702  12.811 -0.6101 -0.5888 -1.7573
 4586TIP3   OH235248   0.599   3.527   2.225 -0.4211  0.2608 -0.7944
 4586TIP3    H135249   0.537   3.484   2.284  0.7036  0.3982  0.5428
 4586TIP3    H235250   0.611   3.465   2.153 -1.6227 -0.0243 -0.7677
 4587TIP3   OH235251   1.127   3.886   5.063  0.1336 -0.4657 -0.1511
 4587TIP3    H135252   1.142   3.972   5.100  0.6055 -0.4962 -0.2558
 4587TIP3    H235253   1.047   3.855   5.104  0.7103 -0.5544  0.9387
 4588TIP3   OH235254   0.485   4.340  12.740  0.1872 -0.5050 -0.2483
 4588TIP3    H135255   0.549   4.329  12.811 -0.0959  2.6311  0.6473
 4588TIP3    H235256   0.470   4.252  12.708  1.3518 -1.9160  2.7011
 4589TIP3   OH235257   3.367   1.316  16.944  0.0147  0.3462  0.2049
 4589TIP3    H135258   3.360   1.295  17.038  0.6954 -2.2184 -0.2237
 4589TIP3    H235259   3.420   1.395  16.940 -0.9614  1.1454  2.0183
 4590TIP3   OH235260   2.417   3.194  16.951 -0.1081  0.1090 -0.0975
 4590TIP3    H135261   2.346   3.194  17.015  1.6275  2.6824  2.0804
 4590TIP3    H235262   2.490   3.150  16.996  0.8495  1.0874 -0.6336
 4591TIP3   OH235263   4.939   4.321  16.756 -0.1764 -0.1953 -0.4359
 4591TIP3    H135264   4.988   4.246  16.790 -0.9006 -1.1063 -1.3293
 4591TIP3    H235265   4.855   4.283  16.728 -1.2281  1.2302  0.6302
 4592TIP3   OH235266   6.597   2.303   6.014  0.0350 -0.0071 -0.1534
 4592TIP3    H135267   6.647   2.221   6.017 -1.4114 -0.8740  1.1307
 4592TIP3    H235268   6.608   2.341   6.101  0.7818  1.2727 -0.7675
 4593TIP3   OH235269   0.179   2.497  16.205 -0.4995 -0.5221 -0.2836
 4593TIP3    H135270   0.168   2.428  16.139  1.2706 -1.6284  0.4946
 4593TIP3    H235271   0.098   2.494  16.256 -1.0185 -1.0720 -1.1093
 4594TIP3   OH235272   6.142   5.495  14.229  0.1809 -0.0265 -0.5832
 4594TIP3    H135273   6.170   5.548  14.304  0.6016 -0.1179 -0.6775
 4594TIP3    H235274   6.218   5.441  14.208  0.0111 -0.1070 -0.9823
 4595TIP3   OH235275   4.844   6.569   4.515 -0.0881 -0.6513  0.0118
 4595TIP3    H135276   4.848   6.565   4.420 -0.4680 -0.0615 -0.0353
 4595TIP3    H235277   4.756   6.539   4.537 -0.3422  0.1222  0.1059
 4596TIP3   OH235278   3.722   0.071  10.975 -0.4906 -0.4361  0.2917
 4596TIP3    H135279   3.735   0.128  10.899  0.3784  0.5312  1.1398
 4596TIP3    H235280   3.644   0.019  10.953 -0.0766 -0.4101 -1.3823
 4597TIP3   OH235281   2.821   5.448   0.515  0.0747 -0.2247 -0.1512
 4597TIP3    H135282   2.753   5.511   0.539  1.3656  1.7396 -1.2773
 4597TIP3    H235283   2.869   5.492   0.444  3.0961 -1.0419  1.2396
 4598TIP3   OH235284   1.905   4.386  17.086 -0.1247 -0.8020  0.1084
 4598TIP3    H135285   1.823   4.392  17.038 -0.6941 -0.9324  1.0391
 4598TIP3    H235286   1.909   4.467  17.137  0.0654 -1.0356  0.4714
 4599TIP3   OH235287   1.761   1.506   1.651 -0.2583  0.3284  0.4158
 4599TIP3    H135288   1.853   1.481   1.662 -0.1656  0.7850  0.6911
 4599TIP3    H235289   1.760   1.568   1.578 -0.3815  0.1458  0.2601
 4600TIP3   OH235290   2.042   2.940   0.898 -0.0327  0.1693 -0.3706
 4600TIP3    H135291   1.947   2.926   0.901  0.1742 -1.4156 -0.5121
 4600TIP3    H235292   2.073   2.906   0.982  0.3569  1.2126 -0.0834
 4601TIP3   OH235293   1.490   2.988  10.853 -0.2200  0.4487  0.0479
 4601TIP3    H135294   1.445   2.911  10.820  0.7653  0.1332 -0.5900
 4601TIP3    H235295   1.574   2.956  10.886 -0.2744  1.0822  0.8506
 4602TIP3   OH235296   0.467   4.980  16.579  0.4168 -0.6048 -0.4066
 4602TIP3    H135297   0.496   4.929  16.654 -0.0325 -0.3644 -0.0658
 4602TIP3    H235298   0.407   4.922  16.531 -1.5325  0.1732  0.9518
 4603TIP3   OH235299   5.493   5.463   2.753  0.4760 -0.0431 -0.5107
 4603TIP3    H135300   5.545   5.399   2.704  2.2318  0.5767  0.4417
 4603TIP3    H235301   5.541   5.475   2.835 -2.2469 -0.9120  1.3579
 4604TIP3   OH235302   1.219   3.329   3.235  0.1163 -0.1688 -0.1626
 4604TIP3    H135303   1.266   3.411   3.220  2.2797 -1.2153  0.5861
 4604TIP3    H235304   1.129   3.348   3.208  0.6492  2.3090 -0.4068
 4605TIP3   OH235305   0.519   1.882  12.715  0.7488 -0.1320  0.2074
 4605TIP3    H135306   0.519   1.882  12.620  0.7295 -0.9041  0.1968
 4605TIP3    H235307   0.586   1.946  12.740  1.0975 -0.2857 -0.3291
 4606TIP3   OH235308   0.347   4.932   2.298  0.3354 -0.3854 -0.3502
 4606TIP3    H135309   0.428   4.947   2.347 -0.1747  2.3888 -0.2072
 4606TIP3    H235310   0.280   4.979   2.348 -1.5118 -2.9390 -0.2430
 4607TIP3   OH235311   3.264   4.270   4.607 -0.1079 -0.0291 -0.3810
 4607TIP3    H135312   3.176   4.232   4.616 -0.2115 -0.2468 -1.9992
 4607TIP3    H235313   3.307   4.215   4.542 -0.1068  2.3155 -2.5112
 4608TIP3   OH235314   5.314   2.167  15.577 -0.5995  0.1299 -0.1043
 4608TIP3    H135315   5.262   2.191  15.500  0.3016  0.0327 -0.7642
 4608TIP3    H235316   5.393   2.127  15.540 -0.0369  0.3192  0.8729
 4609TIP3   OH235317   3.827   2.156   2.898 -0.1615 -0.5310 -0.1600
 4609TIP3    H135318   3.878   2.166   2.978 -3.3044 -0.0278  1.9507
 4609TIP3    H235319   3.823   2.061   2.884 -0.9833 -0.7478  1.3421
 4610TIP3   OH235320   2.511   0.586  11.655  0.5995  0.0020  0.2827
 4610TIP3    H135321   2.445   0.619  11.716  1.8754 -0.0005  1.7445
 4610TIP3    H235322   2.497   0.492  11.652  0.2719  0.0528  0.2824
 4611TIP3   OH235323   0.264   0.840   5.089 -0.3653 -0.3301  0.5537
 4611TIP3    H135324   0.330   0.808   5.151  0.0731  2.7528  1.8808
 4611TIP3    H235325   0.304   0.831   5.003 -0.3187 -3.1492  0.7703
 4612TIP3   OH235326   0.208   2.729  15.047  0.1292 -0.5694 -0.3370
 4612TIP3    H135327   0.240   2.782  15.121  1.0219  0.3550 -1.3480
 4612TIP3    H235328   0.280   2.731  14.984 -0.9638 -0.5782 -1.6128
 4613TIP3   OH235329   2.594   0.911  11.558  0.1417 -0.2837 -0.1044
 4613TIP3    H135330   2.639   0.903  11.642 -0.5534 -0.7583  0.2346
 4613TIP3    H235331   2.649   0.864  11.496  0.4509 -0.2848  0.1713
 4614TIP3   OH235332   1.715   1.659  13.007 -0.3530  0.1322 -0.5598
 4614TIP3    H135333   1.642   1.598  12.997 -0.5564  0.3945 -0.6979
 4614TIP3    H235334   1.767   1.648  12.927 -1.1670  1.1552 -1.2606
 4615TIP3   OH235335   0.969   1.115  16.107  0.0158  0.0847 -0.3688
 4615TIP3    H135336   1.011   1.057  16.171  0.3942  1.0119  0.2526
 4615TIP3    H235337   0.876   1.111  16.129  0.0066 -0.4582 -0.4832
 4616TIP3   OH235338   1.849   3.158  16.297  0.4062 -0.5974  0.1389
 4616TIP3    H135339   1.841   3.248  16.265 -0.6530 -0.9140 -0.5420
 4616TIP3    H235340   1.810   3.159  16.384  1.8561 -0.0724  0.8172
 4617TIP3   OH235341   3.328   4.289  14.854 -0.4791  0.2340  0.1459
 4617TIP3    H135342   3.399   4.262  14.795  0.6819 -0.6272  1.8555
 4617TIP3    H235343   3.263   4.328  14.796  1.2100  0.7054 -1.5476
 4618TIP3   OH235344   2.739   0.671  11.960 -0.7120 -0.6966  0.0148
 4618TIP3    H135345   2.697   0.588  11.981  1.1372 -1.5446  0.5767
 4618TIP3    H235346   2.725   0.725  12.038 -0.0653 -1.2807  0.5537
 4619TIP3   OH235347   0.342   2.237   1.944  0.0048  0.1067  0.0954
 4619TIP3    H135348   0.279   2.272   2.007  0.9170  0.2203  0.9513
 4619TIP3    H235349   0.292   2.171   1.895 -0.5309 -0.4389  1.3515
 4620TIP3   OH235350   5.140   3.530  16.268  0.4130 -0.1814 -0.7912
 4620TIP3    H135351   5.147   3.439  16.299  0.9588 -0.0851 -0.6145
 4620TIP3    H235352   5.129   3.582  16.347 -3.1440 -0.3383 -1.0570
 4621TIP3   OH235353   2.509   4.867  12.351  0.1089  0.3056 -0.8267
 4621TIP3    H135354   2.520   4.962  12.346 -0.3605  0.5082  1.3218
 4621TIP3    H235355   2.584   4.837  12.402 -0.8481 -0.2031  0.3190
 4622TIP3   OH235356   3.408   4.130   4.398 -0.3551  0.2328  0.4525
 4622TIP3    H135357   3.495   4.168   4.411 -0.4201  1.1419 -1.5343
 4622TIP3    H235358   3.409   4.050   4.451  1.5226  0.4502  0.8060
 4623TIP3   OH235359   0.272   1.001  12.731 -0.0219 -0.6266  0.7794
 4623TIP3    H135360   0.310   1.000  12.643 -1.4445 -0.6627  0.1308
 4623TIP3    H235361   0.342   1.033  12.787  1.0109 -0.8779 -0.3215
 4624TIP3   OH235362   5.721   3.372  13.226 -0.0759  0.0128 -0.4315
 4624TIP3    H135363   5.727   3.304  13.159  1.5961  0.1342 -0.4480
 4624TIP3    H235364   5.627   3.381  13.243 -0.4695 -0.6798 -2.0659
 4625TIP3   OH235365   6.053   4.548   3.046  0.3049 -0.0784  0.3791
 4625TIP3    H135366   6.063   4.459   3.078  1.4117 -1.1961 -2.7700
 4625TIP3    H235367   6.137   4.590   3.064  0.2243 -0.0439  0.6909
 4626TIP3   OH235368   3.413   5.522   1.937 -0.1063 -0.3065 -0.2391
 4626TIP3    H135369   3.338   5.481   1.980 -0.4496 -2.2804 -2.5130
 4626TIP3    H235370   3.489   5.475   1.972 -0.3797 -1.8647 -1.6117
 4627TIP3   OH235371   1.139   2.573  16.555  0.4267 -0.4397 -0.0638
 4627TIP3    H135372   1.103   2.522  16.483  0.5688 -0.7322  0.0742
 4627TIP3    H235373   1.173   2.652  16.514  1.9947 -1.3227 -0.5443
 4628TIP3   OH235374   2.697   5.733   2.444  0.0984 -0.4630  0.2462
 4628TIP3    H135375   2.646   5.804   2.406  0.9463  0.7957  1.3497
 4628TIP3    H235376   2.653   5.714   2.527  1.6919  1.1025  1.5367
 4629TIP3   OH235377   0.362   4.709   2.691 -0.4422  0.5612 -0.1425
 4629TIP3    H135378   0.411   4.667   2.761  0.4140  0.0416 -1.0384
 4629TIP3    H235379   0.306   4.640   2.656  0.3082  0.3811 -1.0214
 4630TIP3   OH235380   1.737   4.309  10.724 -0.6822  0.1259 -0.2943
 4630TIP3    H135381   1.753   4.401  10.701  0.1659 -0.3327 -1.7025
 4630TIP3    H235382   1.703   4.270  10.643 -2.1798 -0.5562  0.6287
 4631TIP3   OH235383   5.222   1.177   1.909 -0.2929  0.2402 -0.1497
 4631TIP3    H135384   5.249   1.095   1.868 -0.3713  0.9636 -1.6827
 4631TIP3    H235385   5.160   1.150   1.977  0.9002 -1.0810  0.4679
 4632TIP3   OH235386   1.443   4.893   0.452  0.9643 -0.1756  0.4620
 4632TIP3    H135387   1.361   4.900   0.501  1.0251  0.0816  0.5289
 4632TIP3    H235388   1.486   4.815   0.488 -0.4249 -1.8951 -1.3470
 4633TIP3   OH235389   5.196   0.809   2.802 -0.5893  0.5249  0.0876
 4633TIP3    H135390   5.135   0.804   2.728 -0.2518  1.2062 -0.2456
 4633TIP3    H235391   5.282   0.792   2.763 -0.2311  2.2489  0.0583
 4634TIP3   OH235392   6.576   2.704   1.336  0.0983  0.1700 -0.2582
 4634TIP3    H135393   6.574   2.728   1.243  1.3405  3.0095  0.3247
 4634TIP3    H235394   6.495   2.655   1.350 -0.2874 -0.0358 -2.7519
 4635TIP3   OH235395   4.271   4.608   0.866  0.8266  0.2088  0.2613
 4635TIP3    H135396   4.308   4.534   0.818  0.3098  0.3752 -0.4106
 4635TIP3    H235397   4.200   4.640   0.810  0.6635  0.8460  0.8168
 4636TIP3   OH235398   4.540   5.720   3.634  0.2576 -0.5131  0.5711
 4636TIP3    H135399   4.556   5.667   3.712  1.7449 -1.9053 -0.5779
 4636TIP3    H235400   4.461   5.683   3.595 -0.9017  0.6486  1.7340
 4637TIP3   OH235401   5.766   6.465  11.152 -0.7583 -0.1065 -0.5805
 4637TIP3    H135402   5.760   6.465  11.057 -0.7609 -1.4556 -0.6105
 4637TIP3    H235403   5.720   6.384  11.178  0.2279 -0.3432  0.4766
 4638TIP3   OH235404   0.169   6.578  15.071 -0.1879 -0.3889  0.2282
 4638TIP3    H135405   0.150   6.543  14.984  0.8378 -0.5242  0.0453
 4638TIP3    H235406   0.084   6.609  15.103 -0.2495  1.6103 -1.6559
 4639TIP3   OH235407   4.012   1.874  16.554  0.5252 -1.2167  0.4342
 4639TIP3    H135408   4.040   1.915  16.636  0.3052 -1.2132  0.5090
 4639TIP3    H235409   3.973   1.946  16.503 -1.9657 -1.6946  1.4867
 4640TIP3   OH235410   1.347   5.656   5.912 -0.1353  0.1087 -0.4062
 4640TIP3    H135411   1.268   5.648   5.965  0.5843 -1.8769  0.4250
 4640TIP3    H235412   1.418   5.667   5.976  0.5111 -0.2985 -1.0414
 4641TIP3   OH235413   1.118   1.221  17.122 -0.5123  0.3969 -0.2069
 4641TIP3    H135414   1.150   1.161  17.189  3.1574 -0.4230 -2.4345
 4641TIP3    H235415   1.144   1.308  17.152 -0.6275  0.2481  0.3228
 4642TIP3   OH235416   1.289   3.030   2.654 -0.2567 -0.5598 -0.0429
 4642TIP3    H135417   1.285   3.125   2.662 -1.9874 -0.5205 -0.8972
 4642TIP3    H235418   1.362   3.013   2.595  0.8343  0.1423  1.0628
 4643TIP3   OH235419   1.797   2.812  17.198 -0.1182  0.3192  0.0326
 4643TIP3    H135420   1.724   2.821  17.136  0.4709 -0.8855 -0.8827
 4643TIP3    H235421   1.755   2.791  17.281 -0.9114  1.7318  0.0255
 4644TIP3   OH235422   3.575   4.467   4.990 -0.1720  0.0743 -0.2204
 4644TIP3    H135423   3.659   4.439   5.028 -0.6585 -0.4219  0.5285
 4644TIP3    H235424   3.556   4.550   5.034 -1.1821 -0.9451  1.3807
 4645TIP3   OH235425   1.814   0.812  15.427  0.3803  0.7404  0.4754
 4645TIP3    H135426   1.761   0.888  15.404 -1.4964 -0.2796  1.2222
 4645TIP3    H235427   1.817   0.760  15.346  0.0367  0.6812  0.5010
 4646TIP3   OH235428   0.318   1.879   6.562 -0.9647 -0.6718  0.3252
 4646TIP3    H135429   0.361   1.800   6.531  0.8788 -0.1037  1.2542
 4646TIP3    H235430   0.291   1.858   6.652  2.0525  0.5291  1.6382
 4647TIP3   OH235431   4.885   2.569   0.518  0.6056  0.1266  0.2362
 4647TIP3    H135432   4.949   2.514   0.564  0.7616 -0.1903 -0.3602
 4647TIP3    H235433   4.926   2.589   0.434 -0.4663 -0.8496 -0.5372
 4648TIP3   OH235434   6.675   6.283  12.063  0.4497  0.0139 -0.1164
 4648TIP3    H135435   6.758   6.254  12.025 -0.0020  0.6160 -1.6273
 4648TIP3    H235436   6.645   6.207  12.114  1.3967 -0.6006 -0.4409
 4649TIP3   OH235437   2.458   2.765   0.747  0.3531  0.4341  0.2921
 4649TIP3    H135438   2.511   2.801   0.818 -0.4102  2.0655  0.0731
 4649TIP3    H235439   2.519   2.762   0.672  0.8469 -0.2138  0.7134
 4650TIP3   OH235440   3.508   4.750  14.053  0.0338 -0.1800  0.3116
 4650TIP3    H135441   3.439   4.686  14.033  0.7257 -0.9343  0.3171
 4650TIP3    H235442   3.589   4.706  14.028  0.6041  0.3173  1.2567
 4651TIP3   OH235443   6.259   5.377   1.691 -0.1973 -0.6194 -0.2625
 4651TIP3    H135444   6.344   5.414   1.715  0.0238  0.3383 -2.3345
 4651TIP3    H235445   6.196   5.447   1.708 -0.2409 -0.4833 -0.9666
 4652TIP3   OH235446   2.014   6.420  10.480  0.1253  0.1202 -0.9126
 4652TIP3    H135447   2.058   6.375  10.408  0.3057  0.0707 -0.7710
 4652TIP3    H235448   1.920   6.410  10.461  0.1371 -1.0863 -0.4130
 4653TIP3   OH235449   4.161   3.631  14.169 -0.2898 -0.1705 -0.3550
 4653TIP3    H135450   4.147   3.568  14.239 -2.6623  0.2274 -0.3869
 4653TIP3    H235451   4.208   3.703  14.210  0.8422 -1.1513  0.1138
 4654TIP3   OH235452   5.495   1.324   2.004 -0.4909 -0.3851  0.6073
 4654TIP3    H135453   5.415   1.274   1.987  0.5756 -1.7103 -0.9754
 4654TIP3    H235454   5.559   1.257   2.030  1.0305  0.0215 -1.7321
 4655TIP3   OH235455   0.265   2.474  13.066 -0.1418 -0.0965  0.5412
 4655TIP3    H135456   0.275   2.383  13.096 -0.7811 -0.0455  0.9220
 4655TIP3    H235457   0.196   2.471  13.001 -1.7715  0.4309  2.1550
 4656TIP3   OH235458   0.747   0.396   5.361 -0.1629 -0.6366  0.0107
 4656TIP3    H135459   0.652   0.403   5.365 -0.1627 -0.9829  1.0360
 4656TIP3    H235460   0.764   0.302   5.359  0.1406 -0.5750 -1.3414
 4657TIP3   OH235461   3.303   4.867   5.227  0.0086  0.5019 -0.3432
 4657TIP3    H135462   3.217   4.825   5.235  0.2596 -0.3261 -1.6896
 4657TIP3    H235463   3.284   4.953   5.188 -0.1115 -0.3529 -2.3090
 4658TIP3   OH235464   3.537   6.341  13.980  0.1062 -0.0310 -0.3214
 4658TIP3    H135465   3.513   6.392  13.903  0.5635 -1.1621 -1.2483
 4658TIP3    H235466   3.455   6.331  14.028 -0.8834 -1.7641 -2.1818
 4659TIP3   OH235467   6.219   2.350  14.357  0.7674  0.1566  0.1674
 4659TIP3    H135468   6.180   2.393  14.281  0.5442  0.0571  0.2250
 4659TIP3    H235469   6.232   2.259  14.329  1.9468  0.4254 -0.2215
 4660TIP3   OH235470   1.296   6.493   4.935  0.0167  0.2589 -0.1286
 4660TIP3    H135471   1.258   6.512   4.849  2.0065  0.8691 -0.9257
 4660TIP3    H235472   1.367   6.433   4.917  0.0572 -0.1184  1.1955
 4661TIP3   OH235473   4.706   3.809   4.263  0.5867 -0.1892 -0.0327
 4661TIP3    H135474   4.705   3.714   4.273 -1.7317 -0.1744  0.4214
 4661TIP3    H235475   4.673   3.825   4.175  0.8680  0.1958 -0.0729
 4662TIP3   OH235476   2.350   1.354   6.056  0.0639 -0.3727 -0.6343
 4662TIP3    H135477   2.313   1.310   5.979  0.5360  1.3136 -1.8967
 4662TIP3    H235478   2.296   1.325   6.129 -0.0741 -2.4336 -1.5033
 4663TIP3   OH235479   2.589   2.995  11.827 -0.4266  0.4819 -0.2304
 4663TIP3    H135480   2.539   2.962  11.901  1.4496 -0.8445  0.5211
 4663TIP3    H235481   2.535   2.977  11.750 -1.4435 -0.1102  0.6122
 4664TIP3   OH235482   0.304   1.112   1.658  0.4789  0.1089  0.0454
 4664TIP3    H135483   0.210   1.099   1.644  0.2993  0.6797  0.6894
 4664TIP3    H235484   0.340   1.023   1.661  0.4237 -0.1383 -3.0767
 4665TIP3   OH235485   4.967   1.691  15.277 -0.0372 -0.3601 -0.0026
 4665TIP3    H135486   5.055   1.661  15.254  0.2044 -0.3492  0.8485
 4665TIP3    H235487   4.978   1.727  15.365 -0.2465  2.3827 -0.9936
 4666TIP3   OH235488   3.472   6.012  13.523 -0.1038  0.1248  0.1961
 4666TIP3    H135489   3.484   5.988  13.615 -0.0250  1.7194  0.6175
 4666TIP3    H235490   3.556   6.051  13.498 -0.7519  1.4556  0.0239
 4667TIP3   OH235491   2.490   5.793   0.241  0.1855  0.4509 -0.3152
 4667TIP3    H135492   2.408   5.840   0.258  1.3069  1.9454  1.3866
 4667TIP3    H235493   2.552   5.861   0.215  1.2964 -0.4162 -0.0253
 4668TIP3   OH235494   4.087   3.261  12.191  0.2419 -0.6236  0.4653
 4668TIP3    H135495   4.111   3.337  12.138  0.9730 -0.5362  0.9036
 4668TIP3    H235496   4.028   3.297  12.258  1.1699 -0.2803  1.1264
 4669TIP3   OH235497   1.967   6.005   5.365 -0.7003  0.0132 -0.2162
 4669TIP3    H135498   1.968   6.092   5.325  1.1686 -0.3847 -1.1401
 4669TIP3    H235499   2.034   6.009   5.433 -1.4143 -0.3811  0.5247
 4670TIP3   OH235500   2.816   6.562  16.176 -0.0504 -0.0058 -0.2581
 4670TIP3    H135501   2.829   6.649  16.138 -0.1313  0.7606  1.4190
 4670TIP3    H235502   2.874   6.559  16.252 -0.6754 -1.1012  0.1990
 4671TIP3   OH235503   0.182   0.068   4.514  0.0046  0.0489 -0.5864
 4671TIP3    H135504   0.189   0.105   4.602  1.2329  0.5223 -0.8659
 4671TIP3    H235505   0.089   0.075   4.493 -0.7528 -2.0786  1.5092
 4672TIP3   OH235506   4.381   3.734  15.833 -0.8306 -0.5806  0.2667
 4672TIP3    H135507   4.404   3.785  15.755 -0.5693 -0.9665  0.0935
 4672TIP3    H235508   4.345   3.652  15.799 -1.9833 -0.2081  0.5327
 4673TIP3   OH235509   4.010   2.024   5.640  0.1272 -0.4417 -0.2046
 4673TIP3    H135510   4.051   2.103   5.604 -1.6315  0.2527 -0.7879
 4673TIP3    H235511   4.059   1.952   5.600  0.7668  0.3418 -0.8912
 4674TIP3   OH235512   5.588   5.635  14.817 -0.3592  0.1033  0.1827
 4674TIP3    H135513   5.559   5.621  14.727 -0.6764 -0.6335  0.3901
 4674TIP3    H235514   5.542   5.713  14.846 -0.5994  0.0877 -0.1515
 4675TIP3   OH235515   4.963   4.809  16.696  0.1582 -0.2087 -0.3893
 4675TIP3    H135516   4.968   4.724  16.739  0.2034 -0.2040 -0.3849
 4675TIP3    H235517   4.873   4.815  16.665 -0.9423  1.2310  2.7008
 4676TIP3   OH235518   3.565   2.621  11.663 -0.1090 -0.2051 -0.5004
 4676TIP3    H135519   3.572   2.652  11.753  0.2017 -0.2876 -0.4930
 4676TIP3    H235520   3.519   2.690  11.617 -0.4338 -0.2426 -0.2389
 4677TIP3   OH235521   5.875   4.043   3.919  0.3808 -0.3427 -0.6668
 4677TIP3    H135522   5.939   4.084   3.977 -0.1101  0.3858 -0.6296
 4677TIP3    H235523   5.802   4.019   3.977 -0.0455  0.2450 -0.9490
 4678TIP3   OH235524   4.605   5.839   2.084  0.2310  0.1352 -0.1534
 4678TIP3    H135525   4.648   5.841   1.999  1.2444  1.0840  0.3548
 4678TIP3    H235526   4.534   5.902   2.077 -0.1232 -0.2985 -0.5087
 4679TIP3   OH235527   5.015   4.712   4.282 -0.4399 -0.2537 -0.2640
 4679TIP3    H135528   5.097   4.755   4.307 -0.6125  0.1459 -0.3658
 4679TIP3    H235529   5.014   4.718   4.187 -0.5716 -0.2906 -0.2643
 4680TIP3   OH235530   3.668   5.334  16.816 -0.1345  0.7412 -0.2658
 4680TIP3    H135531   3.660   5.415  16.765 -1.9117  0.1016 -1.0722
 4680TIP3    H235532   3.578   5.304  16.828  0.4240 -0.4895  1.0693
 4681TIP3   OH235533   4.478   4.246  16.904 -0.0768 -0.2358 -0.7321
 4681TIP3    H135534   4.552   4.248  16.844  0.5894  0.8798  0.0853
 4681TIP3    H235535   4.470   4.336  16.936  1.1947 -1.1773  2.7159
 4682TIP3   OH235536   1.636   2.266  12.484 -0.4554 -0.5865  0.1198
 4682TIP3    H135537   1.564   2.212  12.453 -2.2336  1.6267  0.1077
 4682TIP3    H235538   1.708   2.247  12.424 -1.1173 -2.5790 -0.1155
 4683TIP3   OH235539   1.558   5.391  13.007  0.8026 -0.4306 -0.1442
 4683TIP3    H135540   1.561   5.450  12.931  1.0755  0.7289  0.7408
 4683TIP3    H235541   1.611   5.316  12.981 -0.3964 -0.8016 -1.6901
 4684TIP3   OH235542   3.524   5.221   5.839 -0.1116  0.0031  0.2530
 4684TIP3    H135543   3.439   5.265   5.841 -0.4459 -0.6453  0.5167
 4684TIP3    H235544   3.508   5.135   5.878  0.2572 -0.8428 -1.3522
 4685TIP3   OH235545   1.661   1.908   3.289 -0.0446  0.3874 -0.4177
 4685TIP3    H135546   1.580   1.916   3.238 -0.7490 -1.1521  0.3822
 4685TIP3    H235547   1.640   1.949   3.373  0.6916  1.7664 -0.8742
 4686TIP3   OH235548   2.714   1.920  10.993  0.3231 -0.2734 -0.5514
 4686TIP3    H135549   2.662   1.989  10.953  1.4462  2.0035  1.6553
 4686TIP3    H235550   2.786   1.905  10.933  0.4900  1.0660 -0.6988
 4687TIP3   OH235551   3.763   0.569  14.044  0.1732  0.4927  0.7831
 4687TIP3    H135552   3.744   0.599  13.955  1.3409 -1.1628 -0.0597
 4687TIP3    H235553   3.857   0.549  14.043 -0.3139 -2.0868  1.5955
 4688TIP3   OH235554   2.123   2.859   6.798 -0.3313  0.9928  0.1805
 4688TIP3    H135555   2.081   2.876   6.714 -1.2954 -2.2241 -0.1216
 4688TIP3    H235556   2.062   2.801   6.844  2.0015 -0.7211  1.3380
 4689TIP3   OH235557   0.072   1.382   3.183 -0.5046 -0.1078  0.0863
 4689TIP3    H135558   0.138   1.444   3.215 -1.1179  0.9102 -0.5743
 4689TIP3    H235559   0.119   1.326   3.122 -0.2737  0.7278 -0.5186
 4690TIP3   OH235560   4.107   5.335  17.219 -0.0163  0.5500 -0.2574
 4690TIP3    H135561   4.137   5.263  17.276 -3.2821  0.4033  1.5487
 4690TIP3    H235562   4.040   5.294  17.164 -0.1768  1.7180 -0.9431
 4691TIP3   OH235563   4.435   4.176   5.090 -0.2449 -0.1882  0.1169
 4691TIP3    H135564   4.373   4.209   5.025 -1.1014  1.8774  1.8456
 4691TIP3    H235565   4.449   4.084   5.067 -1.0637  0.2801 -2.4973
 4692TIP3   OH235566   6.184   6.562  13.497 -0.0379  0.4112 -0.0999
 4692TIP3    H135567   6.265   6.513  13.485 -0.0672  0.5586 -0.9577
 4692TIP3    H235568   6.114   6.497  13.483 -0.1041 -0.0782  2.1346
 4693TIP3   OH235569   5.505   2.001   0.310  0.1382  0.5380  0.2560
 4693TIP3    H135570   5.570   2.051   0.361  1.0080 -0.7694  0.4906
 4693TIP3    H235571   5.553   1.924   0.281 -1.4384 -0.6799  0.7791
 4694TIP3   OH235572   3.451   2.839   4.037 -0.2543 -0.3232  0.1949
 4694TIP3    H135573   3.530   2.857   3.985 -0.0083 -1.2633  0.2307
 4694TIP3    H235574   3.379   2.844   3.975 -0.0832 -0.2954 -0.0014
 4695TIP3   OH235575   6.523   2.521   0.355  0.2993 -0.4089  0.3398
 4695TIP3    H135576   6.498   2.614   0.360 -1.7928 -0.9640  1.1630
 4695TIP3    H235577   6.479   2.480   0.429 -0.8998 -2.4787 -1.3887
 4696TIP3   OH235578   5.654   1.291  17.104 -0.1199 -0.1417 -0.0515
 4696TIP3    H135579   5.717   1.283  17.176  0.5970 -0.4220 -0.7024
 4696TIP3    H235580   5.706   1.317  17.029 -0.7571 -0.5445 -0.6430
 4697TIP3   OH235581   4.368   6.450  14.936  0.3436 -0.0004 -0.5189
 4697TIP3    H135582   4.449   6.399  14.933  0.8996  0.8313 -0.0792
 4697TIP3    H235583   4.362   6.490  14.850  0.1602 -0.4151 -0.7019
 4698TIP3   OH235584   6.478   6.306   3.263 -0.0442 -0.6658  0.4057
 4698TIP3    H135585   6.414   6.259   3.209  0.2231  0.4018 -0.9099
 4698TIP3    H235586   6.462   6.276   3.352 -4.1868  1.4638  0.6070
 4699TIP3   OH235587   4.097   2.164   3.286  0.4200  0.3607  0.0734
 4699TIP3    H135588   4.073   2.231   3.350 -2.0363 -0.6030  0.2913
 4699TIP3    H235589   4.093   2.082   3.335 -0.2532 -0.2708 -1.0012
 4700TIP3   OH235590   4.815   2.133   6.142  0.0308  0.3238  0.2599
 4700TIP3    H135591   4.740   2.169   6.191 -0.5903  0.5317 -0.8003
 4700TIP3    H235592   4.859   2.075   6.205  0.2587  1.8640  1.5887
 4701TIP3   OH235593   5.327   6.331   5.430 -0.0057  0.1347 -0.5926
 4701TIP3    H135594   5.413   6.356   5.462 -0.9456  1.5598  0.9840
 4701TIP3    H235595   5.341   6.309   5.338  2.0967 -0.1277 -0.2480
 4702TIP3   OH235596   3.099   4.829   1.466  0.8495 -0.3858  0.2493
 4702TIP3    H135597   3.179   4.783   1.440  0.3696 -1.2564  0.2614
 4702TIP3    H235598   3.116   4.920   1.445  2.0134 -0.4851  0.6483
 4703TIP3   OH235599   5.961   4.378   4.378 -1.0769 -0.1935 -0.2327
 4703TIP3    H135600   5.971   4.439   4.304 -0.4415  1.5485  1.2242
 4703TIP3    H235601   5.947   4.434   4.454 -1.1388 -1.9105  1.0882
 4704TIP3   OH235602   4.154   5.177   5.001  0.0041 -0.6348 -0.2683
 4704TIP3    H135603   4.236   5.137   4.970  0.0700 -0.0766 -0.8137
 4704TIP3    H235604   4.180   5.262   5.034 -0.4735 -0.1075 -1.2153
 4705TIP3   OH235605   0.610   3.053  11.267 -0.4526  0.0174  0.3495
 4705TIP3    H135606   0.534   3.008  11.305 -1.1505  2.1534  1.6830
 4705TIP3    H235607   0.578   3.141  11.247  1.4199  0.6546 -0.0398
 4706TIP3   OH235608   0.125   6.427   1.517  0.4869  0.1311 -0.1192
 4706TIP3    H135609   0.125   6.519   1.543  1.9492 -0.2309  1.3509
 4706TIP3    H235610   0.037   6.396   1.538  0.3070  0.9354  0.3606
 4707TIP3   OH235611   6.247   5.702  13.267  0.2612  0.8397  0.1360
 4707TIP3    H135612   6.308   5.717  13.339  0.7306 -0.1447 -0.0439
 4707TIP3    H235613   6.164   5.683  13.310  0.7417 -0.6723  0.4815
 4708TIP3   OH235614   0.331   4.951  11.548  0.1877 -0.3020 -0.2663
 4708TIP3    H135615   0.372   4.956  11.634  1.5742  0.4987 -0.9382
 4708TIP3    H235616   0.268   4.880  11.555  0.1672 -0.1468  1.4451
 4709TIP3   OH235617   4.966   1.758  12.695  0.4399 -0.3248  0.3510
 4709TIP3    H135618   4.890   1.709  12.664 -0.0888  0.5171  0.3134
 4709TIP3    H235619   4.970   1.739  12.789 -0.0422 -0.0692  0.4245
 4710TIP3   OH235620   6.535   5.956  14.127 -0.2905  0.1336  0.2750
 4710TIP3    H135621   6.467   6.023  14.123 -1.5164 -1.0409  0.5483
 4710TIP3    H235622   6.490   5.876  14.099  0.8774 -0.7517  0.8746
 4711TIP3   OH235623   3.903   1.204   4.962  0.6123 -0.0954 -0.2428
 4711TIP3    H135624   3.962   1.183   4.890 -0.4965  0.0831 -1.2339
 4711TIP3    H235625   3.924   1.140   5.030  2.1607  0.1738 -0.4236
 4712TIP3   OH235626   5.049   1.628   5.590  0.3275  0.0317 -0.1133
 4712TIP3    H135627   4.995   1.652   5.514 -1.5657  0.3771  1.2837
 4712TIP3    H235628   5.048   1.705   5.646  0.9739 -0.5199  0.6860
 4713TIP3   OH235629   3.866   4.223  14.249 -0.5977  0.1056 -0.0561
 4713TIP3    H135630   3.800   4.272  14.199 -0.1657  0.7446 -0.0033
 4713TIP3    H235631   3.916   4.290  14.295 -0.7492 -0.4620  0.9512
 4714TIP3   OH235632   2.495   3.245  16.560 -0.4369 -1.2385 -0.0559
 4714TIP3    H135633   2.567   3.238  16.497 -0.4837  0.3062 -0.2974
 4714TIP3    H235634   2.416   3.231  16.508 -0.3610 -3.0442  0.2288
 4715TIP3   OH235635   1.686   2.129   4.970  0.0700  0.3531 -0.2283
 4715TIP3    H135636   1.703   2.078   5.050 -1.6362  2.7044  1.7788
 4715TIP3    H235637   1.624   2.076   4.921 -0.4517 -0.2374  1.0280
 4716TIP3   OH235638   6.165   0.627   3.005 -0.3536  0.1404  0.1633
 4716TIP3    H135639   6.171   0.558   3.072  1.8121  0.4666  0.3847
 4716TIP3    H235640   6.180   0.708   3.053  3.3188  0.2472 -0.8388
 4717TIP3   OH235641   1.033   4.845   1.077  0.3683  0.0277  0.1343
 4717TIP3    H135642   0.942   4.852   1.105  0.1483  0.1228 -0.6002
 4717TIP3    H235643   1.083   4.847   1.159 -0.2957 -0.2269  0.5524
 4718TIP3   OH235644   4.851   2.686   1.770 -0.2021 -0.6276  0.5663
 4718TIP3    H135645   4.845   2.597   1.737  2.2292 -1.0793  1.1653
 4718TIP3    H235646   4.859   2.740   1.691  1.1249 -1.2537  0.2412
 4719TIP3   OH235647   4.691   1.324   6.249 -0.3178 -0.3035  0.1591
 4719TIP3    H135648   4.739   1.342   6.168  0.3115  0.2002  0.6265
 4719TIP3    H235649   4.617   1.384   6.246 -0.6570 -0.7352 -0.3363
 4720TIP3   OH235650   0.752   0.462  16.713 -0.5743  0.0682 -0.1263
 4720TIP3    H135651   0.683   0.419  16.663 -1.1731  0.8535  0.0132
 4720TIP3    H235652   0.775   0.539  16.661 -1.1331  0.8360  0.7401
 4721TIP3   OH235653   4.331   3.977   4.215  0.3683 -0.4154  0.1014
 4721TIP3    H135654   4.291   3.985   4.129 -0.1598  1.6639  0.4973
 4721TIP3    H235655   4.280   3.908   4.258  0.1323 -0.9238 -0.9652
 4722TIP3   OH235656   1.763   1.720   5.975  0.2850 -0.1787  0.1810
 4722TIP3    H135657   1.726   1.714   6.063  0.3133  1.2290  0.2972
 4722TIP3    H235658   1.835   1.781   5.982 -0.5193  0.9751 -1.0688
 4723TIP3   OH235659   2.090   3.150  13.837  0.4958  0.0284  0.4167
 4723TIP3    H135660   2.075   3.061  13.805 -3.3225  0.3495  0.8587
 4723TIP3    H235661   2.123   3.198  13.762  1.8032 -1.5391 -0.0600
 4724TIP3   OH235662   6.750   6.471  14.305 -0.5327 -0.5350 -0.2183
 4724TIP3    H135663   6.736   6.376  14.316 -1.0743 -0.5553 -0.9472
 4724TIP3    H235664   6.845   6.480  14.295 -0.4167 -0.9287  0.4542
 4725TIP3   OH235665   5.623   0.088  17.249  0.2315  0.3026  0.0649
 4725TIP3    H135666   5.645   0.136  17.328 -1.0561 -0.1516  0.7295
 4725TIP3    H235667   5.674   0.130  17.180  1.9487  0.2365  1.2383
 4726TIP3   OH235668   0.553   2.474   1.907 -0.3522 -0.0768 -0.0233
 4726TIP3    H135669   0.628   2.421   1.933 -0.6274 -0.0208  0.8965
 4726TIP3    H235670   0.515   2.506   1.989  0.2040  2.1168 -0.5496
 4727TIP3   OH235671   2.066   5.069   4.419  0.1849  0.3651 -0.2966
 4727TIP3    H135672   2.117   5.150   4.417  0.2638  0.3077 -1.8159
 4727TIP3    H235673   2.129   4.999   4.404  0.0119  0.0634  0.3252
 4728TIP3   OH235674   3.589   3.603  10.886  0.2298  0.1552  0.0031
 4728TIP3    H135675   3.522   3.535  10.898 -1.7976  2.0740  0.1243
 4728TIP3    H235676   3.671   3.561  10.914 -0.7924 -2.4437 -0.6264
 4729TIP3   OH235677   5.179   1.228   1.226  0.7200 -0.0274  0.7236
 4729TIP3    H135678   5.251   1.175   1.263 -1.0369 -1.9593  1.6208
 4729TIP3    H235679   5.126   1.251   1.302 -1.2174 -1.2515 -0.1910
 4730TIP3   OH235680   0.635   5.837   3.045  0.7141  0.1385  0.1413
 4730TIP3    H135681   0.644   5.900   3.117  1.0488  1.4209 -0.9852
 4730TIP3    H235682   0.617   5.891   2.968  1.0940 -1.1532 -0.8843
 4731TIP3   OH235683   1.347   1.045  16.328 -0.1844  0.4762 -0.0162
 4731TIP3    H135684   1.282   0.975  16.318  0.1742  0.1620 -0.1539
 4731TIP3    H235685   1.388   1.028  16.413 -0.6258  0.9708  0.3089
 4732TIP3   OH235686   4.034   6.618  15.878  0.4150  0.2793  0.5287
 4732TIP3    H135687   4.056   6.534  15.838  1.3987  0.4529  0.6791
 4732TIP3    H235688   3.999   6.670  15.806  4.5274  1.5068 -0.8835
 4733TIP3   OH235689   5.791   0.922   6.341 -0.6951 -0.4819  0.8885
 4733TIP3    H135690   5.755   0.888   6.259 -0.9082  2.1888 -0.2251
 4733TIP3    H235691   5.886   0.914   6.330 -0.5522  2.4696 -0.9724
 4734TIP3   OH235692   2.904   3.820  16.154 -0.2414  0.2272 -0.7881
 4734TIP3    H135693   2.894   3.749  16.218 -0.7641  0.0023 -1.1016
 4734TIP3    H235694   2.981   3.795  16.103 -0.5676 -0.2526 -1.0561
 4735TIP3   OH235695   0.447   5.361   6.003  0.0069  0.1215 -0.4517
 4735TIP3    H135696   0.419   5.452   6.010 -0.4037  0.0260 -0.7973
 4735TIP3    H235697   0.397   5.316   6.071 -1.3564 -0.1948 -1.5973
 4736TIP3   OH235698   4.799   3.086  14.605 -0.4778  0.0176  0.3221
 4736TIP3    H135699   4.706   3.108  14.595 -0.6459  0.0800  1.8249
 4736TIP3    H235700   4.825   3.129  14.686  0.4217 -1.4013  0.8194
 4737TIP3   OH235701   2.956   1.446   0.296 -0.0635  0.1257 -0.2467
 4737TIP3    H135702   2.874   1.495   0.300 -0.5761 -0.8164  1.6895
 4737TIP3    H235703   3.023   1.509   0.321 -0.4787  0.3276  0.3622
 4738TIP3   OH235704   5.868   5.841   4.039 -0.0534  0.4910 -1.0567
 4738TIP3    H135705   5.931   5.801   4.099 -0.8168  0.0571 -0.5302
 4738TIP3    H235706   5.826   5.910   4.090 -0.0290  0.7626 -1.3986
 4739TIP3   OH235707   5.433   2.540   4.600  0.5746 -0.5616 -0.5592
 4739TIP3    H135708   5.473   2.454   4.583  0.4379 -0.6346 -0.5141
 4739TIP3    H235709   5.408   2.537   4.693  0.2989 -0.5846 -0.6336
 4740TIP3   OH235710   2.326   0.072   0.728 -0.5845  0.3666 -0.5045
 4740TIP3    H135711   2.237   0.066   0.694 -0.4805  1.3556 -1.0125
 4740TIP3    H235712   2.318   0.056   0.822 -1.4511  1.4439 -0.3788
 4741TIP3   OH235713   3.482   1.515   1.804  0.2928  0.4997  0.2825
 4741TIP3    H135714   3.557   1.512   1.862 -0.3355 -1.0663  1.0675
 4741TIP3    H235715   3.518   1.544   1.720  1.2927  2.3133  1.2726
 4742TIP3   OH235716   4.661   0.210  15.533 -0.4541  0.1567  0.8298
 4742TIP3    H135717   4.720   0.206  15.608  0.0027  1.1716  0.5398
 4742TIP3    H235718   4.720   0.218  15.457 -0.9305 -0.0005  0.4434
 4743TIP3   OH235719   4.112   6.409   0.012  0.0479  0.7086  0.0428
 4743TIP3    H135720   4.122   6.319  -0.021  1.3034  0.7535  0.2496
 4743TIP3    H235721   4.023   6.433  -0.012  0.0096 -0.2530 -0.8629
 4744TIP3   OH235722   0.437   4.230   5.806  0.0078  0.3471  0.6030
 4744TIP3    H135723   0.354   4.183   5.799 -0.1814  0.6133  0.9771
 4744TIP3    H235724   0.482   4.213   5.724 -0.7599  0.8408  0.0709
 4745TIP3   OH235725   3.161   1.517   4.100 -0.8342 -0.0131 -0.2160
 4745TIP3    H135726   3.193   1.596   4.143 -0.4603  0.0362 -0.5853
 4745TIP3    H235727   3.219   1.504   4.025 -1.7896  0.2019 -1.0249
 4746TIP3   OH235728   5.105   0.154   4.205  0.1701 -0.2983 -0.4100
 4746TIP3    H135729   5.187   0.106   4.214  1.3663  0.9440 -3.3536
 4746TIP3    H235730   5.038   0.086   4.198  0.6226 -1.3289  3.4194
 4747TIP3   OH235731   1.642   1.575  14.541  0.5123  0.1521 -0.6997
 4747TIP3    H135732   1.632   1.496  14.489  1.2089 -0.4429  0.0560
 4747TIP3    H235733   1.670   1.642  14.477 -1.2899  0.1419 -1.5670
 4748TIP3   OH235734   2.007   0.489   2.206  0.3335 -0.0199  0.3538
 4748TIP3    H135735   2.096   0.455   2.193  0.6516  0.5187  1.0715
 4748TIP3    H235736   1.968   0.488   2.118  1.5174  1.0265 -0.2163
 4749TIP3   OH235737   2.464   2.289  14.807 -0.5806  0.2618 -0.2017
 4749TIP3    H135738   2.554   2.317  14.823 -0.4453 -0.7551  0.9925
 4749TIP3    H235739   2.470   2.193  14.800 -1.7628  0.0107  1.5754
 4750TIP3   OH235740   5.512   1.382   2.723 -0.1317 -0.3111  0.3928
 4750TIP3    H135741   5.580   1.411   2.661 -1.2495 -0.5771 -1.0031
 4750TIP3    H235742   5.506   1.287   2.708  0.9992 -0.7468  2.3867
 4751TIP3   OH235743   2.194   1.738  14.628  0.6164 -0.3325 -0.5726
 4751TIP3    H135744   2.237   1.660  14.663  2.7580 -0.0772 -2.3842
 4751TIP3    H235745   2.200   1.803  14.698 -0.7689 -1.5766  0.7762
 4752TIP3   OH235746   6.056   1.483  13.195  0.6264 -0.0550  0.7644
 4752TIP3    H135747   6.037   1.518  13.282  2.9794  2.1036  0.5239
 4752TIP3    H235748   6.111   1.407  13.211  0.9708  0.2793  1.1867
 4753TIP3   OH235749   1.287   6.213  11.247  0.2116  0.0148  0.2079
 4753TIP3    H135750   1.268   6.283  11.185  1.9113 -0.2635 -0.6747
 4753TIP3    H235751   1.347   6.252  11.311  0.1229 -0.2809  0.4791
 4754TIP3   OH235752   4.868   4.335   5.907  0.0033 -0.3543 -0.3594
 4754TIP3    H135753   4.869   4.258   5.964 -1.8564  0.5465  0.9815
 4754TIP3    H235754   4.893   4.408   5.964 -0.9739  0.4300 -0.8940
 4755TIP3   OH235755   5.463   4.505   2.406  0.1354  0.1379  0.2578
 4755TIP3    H135756   5.458   4.459   2.489 -1.6849 -1.7277 -0.7751
 4755TIP3    H235757   5.529   4.457   2.356  0.2871  0.4330  0.1760
 4756TIP3   OH235758   5.338   4.353  16.831 -0.2620  0.1102 -0.3687
 4756TIP3    H135759   5.420   4.315  16.800  0.2570  0.8346  0.0997
 4756TIP3    H235760   5.338   4.337  16.925 -1.8687 -2.1546 -0.6544
 4757TIP3   OH235761   4.070   4.852  16.158  0.0863  0.0353 -0.2176
 4757TIP3    H135762   4.002   4.789  16.136  0.7146 -1.0770  0.9181
 4757TIP3    H235763   4.144   4.828  16.103  0.3695 -0.3103  0.3072
 4758TIP3   OH235764   2.030   5.818  16.617  0.2250 -0.5259  0.2518
 4758TIP3    H135765   1.965   5.780  16.558  0.7440  0.4448 -0.9864
 4758TIP3    H235766   2.098   5.853  16.560  0.2606  1.3658  1.3396
 4759TIP3   OH235767   6.003   0.041  17.023  0.3588 -0.1121  0.7229
 4759TIP3    H135768   6.072  -0.025  17.025 -0.6413 -1.2462 -0.2100
 4759TIP3    H235769   6.049   0.123  17.007  1.6288 -0.5787  1.8190
 4760TIP3   OH235770   6.651   3.149  13.130 -0.2555  0.1949  0.1797
 4760TIP3    H135771   6.564   3.158  13.091 -0.3181 -1.2080 -0.0479
 4760TIP3    H235772   6.711   3.151  13.055  0.0499  2.3909  0.4196
 4761TIP3   OH235773   2.252   3.198  12.985 -0.7110 -0.2969  0.3941
 4761TIP3    H135774   2.226   3.136  13.054  1.0443 -1.1761  0.3390
 4761TIP3    H235775   2.337   3.231  13.014  0.3481 -1.1228 -1.6130
 4762TIP3   OH235776   0.570   4.506   3.945  0.2531 -0.3628  0.0405
 4762TIP3    H135777   0.631   4.557   3.999 -1.1544  0.2803  1.0897
 4762TIP3    H235778   0.567   4.552   3.861 -0.4081  0.8856  0.7196
 4763TIP3   OH235779   5.634   4.373   2.247 -0.5439  0.1683 -0.3141
 4763TIP3    H135780   5.724   4.401   2.231 -0.6040 -0.5203 -2.1577
 4763TIP3    H235781   5.640   4.278   2.260 -1.1296 -0.1547 -2.1265
 4764TIP3   OH235782   6.689   4.606  10.960  0.1657 -0.0992  0.0060
 4764TIP3    H135783   6.784   4.619  10.949 -0.1906  0.7894 -3.2062
 4764TIP3    H235784   6.653   4.695  10.958 -0.8109 -0.4851 -0.0499
 4765TIP3   OH235785   2.814   3.525   3.413 -0.4112  0.3679  0.5426
 4765TIP3    H135786   2.744   3.489   3.468 -1.2740  1.7713  0.3877
 4765TIP3    H235787   2.876   3.562   3.476 -0.8916  1.0638  0.6094
 4766TIP3   OH235788   5.802   4.143  16.598  0.1043  0.0082  0.3158
 4766TIP3    H135789   5.754   4.140  16.515  0.6164  2.8974 -0.2078
 4766TIP3    H235790   5.868   4.075  16.591 -1.6883 -1.7519 -0.3761
 4767TIP3   OH235791   6.637   2.040   1.246  0.3535 -0.6410 -0.3486
 4767TIP3    H135792   6.551   2.067   1.279  0.8640  1.6103 -0.6674
 4767TIP3    H235793   6.681   2.123   1.226  3.2826 -1.6303  1.4737
 4768TIP3   OH235794   1.128   3.079   6.422  0.0105 -0.7472 -1.0276
 4768TIP3    H135795   1.210   3.040   6.392 -0.7607 -3.9497  0.5962
 4768TIP3    H235796   1.076   3.005   6.453 -1.8727  1.5482  1.8344
 4769TIP3   OH235797   2.220   2.927  11.818 -0.0574 -0.0665  0.2463
 4769TIP3    H135798   2.132   2.921  11.853 -0.2052  0.7240  0.0372
 4769TIP3    H235799   2.224   3.014  11.777  1.4534  0.7505  1.9818
 4770TIP3   OH235800   6.325   1.110  12.652 -0.3046  0.0342  0.9619
 4770TIP3    H135801   6.381   1.154  12.716 -0.8525 -0.7849  2.0371
 4770TIP3    H235802   6.387   1.072  12.590  0.2989 -0.0153  1.5777
 4771TIP3   OH235803   5.164   2.797  13.557 -0.1678  0.0904  0.0905
 4771TIP3    H135804   5.174   2.742  13.634 -0.9718  0.1863  0.2729
 4771TIP3    H235805   5.244   2.782  13.506  1.9593  2.4667  2.4347
 4772TIP3   OH235806   3.748   3.282   3.971  0.1275  0.8228  0.2594
 4772TIP3    H135807   3.724   3.206   4.024  0.7273 -0.1839 -0.8643
 4772TIP3    H235808   3.843   3.278   3.964  0.1300  1.4508 -0.1668
 4773TIP3   OH235809   1.565   1.924  15.602  0.2657 -0.2879 -0.5918
 4773TIP3    H135810   1.587   1.851  15.659  1.3008  0.2098 -0.3334
 4773TIP3    H235811   1.474   1.909  15.578 -0.2750 -0.3886  1.3800
 4774TIP3   OH235812   5.006   3.737  15.368  0.0814  0.3795 -0.2328
 4774TIP3    H135813   5.071   3.725  15.299  1.3153 -0.2185  0.9741
 4774TIP3    H235814   5.042   3.808  15.422 -1.1481  1.2361 -0.5029
 4775TIP3   OH235815   0.096   4.304  16.515  0.2672  0.2883  0.4781
 4775TIP3    H135816   0.050   4.301  16.599  0.5800 -0.2047  0.6338
 4775TIP3    H235817   0.136   4.218  16.507 -1.6105 -0.5016 -1.2254
 4776TIP3   OH235818   5.421   4.256  15.044 -0.6476  0.0680 -0.2953
 4776TIP3    H135819   5.465   4.304  14.974  2.0305 -2.0221 -0.2002
 4776TIP3    H235820   5.385   4.324  15.100  1.5433  1.9700 -1.0231
 4777TIP3   OH235821   2.446   2.788  16.602  0.2946  0.6500  0.1472
 4777TIP3    H135822   2.440   2.871  16.648  0.9540  0.1675  1.1350
 4777TIP3    H235823   2.397   2.726  16.657  0.4606  0.2244 -0.1770
 4778TIP3   OH235824   3.893   3.369   5.062  0.2705 -0.3931  0.3664
 4778TIP3    H135825   3.874   3.424   5.138 -0.5968 -1.3403  0.8499
 4778TIP3    H235826   3.812   3.321   5.045  0.8136 -1.0672 -0.4244
 4779TIP3   OH235827   5.071   0.002  11.530  0.1925  0.3113  0.1927
 4779TIP3    H135828   5.001  -0.049  11.487 -0.2547  1.3798 -0.3819
 4779TIP3    H235829   5.078  -0.037  11.617 -1.0038  0.0511  0.2002
 4780TIP3   OH235830   1.522   6.327  13.004 -0.1105  0.3505  0.0397
 4780TIP3    H135831   1.519   6.260  13.073 -1.0023  0.5085  0.1751
 4780TIP3    H235832   1.474   6.288  12.931 -0.4035  0.7270  0.0246
 4781TIP3   OH235833   5.648   6.278   5.288 -0.1691 -0.5375  0.0374
 4781TIP3    H135834   5.588   6.266   5.361 -0.7282 -1.2792 -0.5373
 4781TIP3    H235835   5.733   6.296   5.330  0.0432 -3.1989  0.9609
 4782TIP3   OH235836   3.684   6.235   5.367  0.0305  0.2567 -0.3334
 4782TIP3    H135837   3.709   6.143   5.359  1.8088  0.2981  2.7527
 4782TIP3    H235838   3.619   6.249   5.299  1.6029 -2.5672 -2.6434
 4783TIP3   OH235839   4.258   5.036   6.110 -0.0257 -0.4796 -0.3823
 4783TIP3    H135840   4.257   5.114   6.055  0.6158  0.9292  1.4715
 4783TIP3    H235841   4.172   4.996   6.096 -0.8256  1.1898 -0.5940
 4784TIP3   OH235842   5.998   3.219  12.861  0.4809 -0.0204 -0.0919
 4784TIP3    H135843   5.961   3.224  12.773  0.0677 -0.0482  0.0803
 4784TIP3    H235844   5.932   3.258  12.917  0.7554  0.0192  0.2064
 4785TIP3   OH235845   3.560   0.940  10.724 -0.0952  0.0125 -0.4637
 4785TIP3    H135846   3.471   0.934  10.758 -0.6148  0.1341 -1.7240
 4785TIP3    H235847   3.587   0.849  10.710  0.2893 -0.0593  0.6223
 4786TIP3   OH235848   0.297   5.993   5.133 -0.5543  0.1620  0.4605
 4786TIP3    H135849   0.267   6.046   5.060 -0.1833  1.1263  0.9939
 4786TIP3    H235850   0.228   6.001   5.199 -0.4714  0.0188  0.5664
 4787TIP3   OH235851   1.556   3.970  15.117  0.5785 -0.0740  0.3715
 4787TIP3    H135852   1.636   3.920  15.133 -0.1882 -0.8519  2.0432
 4787TIP3    H235853   1.508   3.919  15.051 -0.2421 -1.7176  2.1259
 4788TIP3   OH235854   3.378   0.841   5.402 -0.4056  0.2096 -0.6798
 4788TIP3    H135855   3.471   0.819   5.404 -0.7511 -1.7638  3.3909
 4788TIP3    H235856   3.374   0.931   5.435  0.0645 -0.3438  1.0169
 4789TIP3   OH235857   6.712   1.370   5.736  0.1890  0.3414 -0.5715
 4789TIP3    H135858   6.794   1.322   5.740 -0.1401 -0.2479 -0.7829
 4789TIP3    H235859   6.656   1.319   5.677 -0.0221  1.2063 -1.1550
 4790TIP3   OH235860   3.703   6.550   5.771 -0.0508  0.7104 -0.4158
 4790TIP3    H135861   3.658   6.515   5.849  0.6170 -1.4028 -0.9019
 4790TIP3    H235862   3.796   6.535   5.788  0.1900  1.4190 -1.0728
 4791TIP3   OH235863   0.791   5.941   6.982 -0.2331  0.3857  0.1471
 4791TIP3    H135864   0.799   5.848   7.005 -0.0861  0.1183 -0.9353
 4791TIP3    H235865   0.880   5.967   6.956 -0.2923  0.8148  0.3578
 4792TIP3   OH235866   2.532   2.232   0.022 -0.1773 -0.7250  0.4321
 4792TIP3    H135867   2.528   2.197  -0.067  0.5844 -1.5821  0.7152
 4792TIP3    H235868   2.483   2.314   0.018  1.7998  0.4799 -1.3408
 4793TIP3   OH235869   4.112   0.246  14.345  0.0825 -0.3938 -0.7325
 4793TIP3    H135870   4.204   0.220  14.345  0.3782  0.6078 -0.7281
 4793TIP3    H235871   4.113   0.338  14.318 -0.8562 -0.1905 -0.1304
 4794TIP3   OH235872   6.582   6.702   0.486 -0.0076  0.0311  0.0733
 4794TIP3    H135873   6.532   6.650   0.423  1.7991 -1.2134 -0.4207
 4794TIP3    H235874   6.670   6.663   0.485  0.8791  1.8606  1.1957
 4795TIP3   OH235875   2.246   0.730   5.668 -0.0815 -0.3193  0.6199
 4795TIP3    H135876   2.188   0.703   5.597  3.6744 -0.4295 -2.7753
 4795TIP3    H235877   2.312   0.660   5.673  1.7500  1.3841  1.7517
 4796TIP3   OH235878   5.781   1.963  16.563  0.3812 -0.3528 -0.6108
 4796TIP3    H135879   5.713   1.931  16.503 -0.9716 -1.1408  1.2275
 4796TIP3    H235880   5.754   2.052  16.584  0.6193 -0.2263 -0.8392
 4797TIP3   OH235881   5.129   2.389  16.163  0.3420  0.3846  0.0808
 4797TIP3    H135882   5.164   2.470  16.201  0.7354  1.2140 -1.9479
 4797TIP3    H235883   5.039   2.411  16.138  0.2040 -0.0362  0.2030
 4798TIP3   OH235884   5.929   5.471   3.679 -0.3664  0.3123  0.2031
 4798TIP3    H135885   5.966   5.534   3.617 -2.3010  1.1032 -0.2267
 4798TIP3    H235886   5.836   5.494   3.684 -0.5224 -0.5516  2.4406
 4799TIP3   OH235887   1.125   3.488  11.785  0.5805  0.7745 -0.1950
 4799TIP3    H135888   1.209   3.489  11.739 -0.1607  2.0227 -1.6399
 4799TIP3    H235889   1.093   3.399  11.773  1.9595  0.0928  0.9379
 4800TIP3   OH235890   2.541   1.400  15.461  0.1252 -0.4885 -0.2832
 4800TIP3    H135891   2.578   1.488  15.465 -1.2240  0.0739  0.1437
 4800TIP3    H235892   2.548   1.367  15.551  0.3673 -0.7217 -0.3842
 4801TIP3   OH235893   0.926   3.270   2.223  0.9085 -0.5455  0.4418
 4801TIP3    H135894   0.878   3.240   2.300 -2.9701 -0.7503 -1.7802
 4801TIP3    H235895   0.922   3.197   2.162 -0.6108  1.1787 -1.7026
 4802TIP3   OH235896   2.318   4.245   0.857  0.1499  0.0706  0.4663
 4802TIP3    H135897   2.334   4.181   0.786  1.5113  1.9012 -0.9916
 4802TIP3    H235898   2.341   4.198   0.937  1.8094 -1.1040 -0.6223
 4803TIP3   OH235899   4.613   4.096  12.696  0.9271  0.1188 -0.4880
 4803TIP3    H135900   4.622   4.185  12.731  1.5884 -0.4753  0.9263
 4803TIP3    H235901   4.533   4.099  12.643  0.2534  1.2464  0.5518
 4804TIP3   OH235902   3.471   4.804   0.459 -0.5540  0.1759 -0.3450
 4804TIP3    H135903   3.543   4.794   0.396  0.0852  2.1039  0.0029
 4804TIP3    H235904   3.413   4.869   0.418  0.6802  2.6893  1.6470
 4805TIP3   OH235905   0.840   5.515  13.950 -0.5177  0.0895  0.3562
 4805TIP3    H135906   0.889   5.582  13.901  0.6107 -0.2612  0.9799
 4805TIP3    H235907   0.851   5.435  13.898 -1.2846  0.2222 -0.0242
 4806TIP3   OH235908   1.563   3.733   4.451 -0.0645 -0.7179 -0.1474
 4806TIP3    H135909   1.621   3.697   4.384 -0.0560 -0.4998 -0.2580
 4806TIP3    H235910   1.486   3.762   4.403  0.4706  0.6158 -0.2447
 4807TIP3   OH235911   3.796   3.163  14.299 -0.0730 -0.0346 -0.0865
 4807TIP3    H135912   3.808   3.117  14.382  0.6150 -0.2030 -0.2684
 4807TIP3    H235913   3.795   3.256  14.322  3.1306  0.1326 -0.1382
 4808TIP3   OH235914   3.419   0.448   0.347 -0.3166  0.2295 -0.5841
 4808TIP3    H135915   3.470   0.396   0.409 -1.3162  0.1188  0.1689
 4808TIP3    H235916   3.413   0.392   0.269  1.7355  0.7554 -1.1596
 4809TIP3   OH235917   3.501   0.767  17.257 -0.4648  0.2098  0.4661
 4809TIP3    H135918   3.533   0.685  17.219  0.1530 -0.0925  1.6054
 4809TIP3    H235919   3.523   0.761  17.350 -0.7941  1.4851  0.6484
 4810TIP3   OH235920   4.227   2.408   4.348  0.1694 -0.2179 -0.6173
 4810TIP3    H135921   4.168   2.333   4.352  1.2677 -1.0663  0.5547
 4810TIP3    H235922   4.227   2.443   4.437  2.6096 -1.2401 -0.1363
 4811TIP3   OH235923   0.342   2.719  16.295 -0.6911 -0.0346 -0.3041
 4811TIP3    H135924   0.274   2.658  16.266 -1.8430  1.1561 -0.2252
 4811TIP3    H235925   0.295   2.781  16.352  0.4923  0.7384 -0.1498
 4812TIP3   OH235926   5.423   2.353   3.394  0.0308  0.7638 -0.4663
 4812TIP3    H135927   5.425   2.438   3.350 -0.1043  0.0977 -1.8366
 4812TIP3    H235928   5.501   2.308   3.361 -0.0699  0.2400 -0.0021
 4813TIP3   OH235929   3.550   4.286  10.352  0.3775 -0.0459  0.2491
 4813TIP3    H135930   3.543   4.296  10.257 -1.7470 -0.4398  0.3110
 4813TIP3    H235931   3.489   4.351  10.388  0.1260 -0.8347  1.2991
 4814TIP3   OH235932   2.423   3.448   1.169 -0.1312 -0.4822  0.6608
 4814TIP3    H135933   2.417   3.400   1.087  1.3004 -0.1333  0.3379
 4814TIP3    H235934   2.424   3.540   1.144 -2.2812 -0.2375  1.2456
 4815TIP3   OH235935   4.532   2.286   4.294 -0.3689 -0.3831 -0.6526
 4815TIP3    H135936   4.586   2.327   4.362  0.6386 -0.6774 -1.2523
 4815TIP3    H235937   4.470   2.354   4.268 -0.5162 -0.1430  0.2858
 4816TIP3   OH235938   0.534   5.252   0.723  0.0423 -0.1979 -0.0793
 4816TIP3    H135939   0.473   5.326   0.730  1.2482  0.7613  0.6117
 4816TIP3    H235940   0.618   5.292   0.702  0.7677 -1.3699  0.5017
 4817TIP3   OH235941   3.490   4.326   1.708  0.2376  0.1364  0.2738
 4817TIP3    H135942   3.497   4.311   1.802  2.6326  0.6006  0.2172
 4817TIP3    H235943   3.567   4.377   1.685 -0.6677  0.6711 -1.8453
 4818TIP3   OH235944   3.595   5.769  14.933  0.2146  0.3459  0.1688
 4818TIP3    H135945   3.619   5.770  14.840  1.6503 -0.4893  0.4928
 4818TIP3    H235946   3.509   5.809  14.936 -0.0317  0.0321 -1.5746
 4819TIP3   OH235947   3.520   2.386   1.506 -0.0968 -0.0338 -0.1935
 4819TIP3    H135948   3.505   2.308   1.560 -0.3882 -0.0845 -0.3416
 4819TIP3    H235949   3.529   2.457   1.568 -0.0642 -0.1498 -0.0646
 4820TIP3   OH235950   3.919   1.269   4.358 -0.0574  0.3187 -0.1130
 4820TIP3    H135951   3.863   1.341   4.386  0.6108  0.8390 -0.0864
 4820TIP3    H235952   3.975   1.307   4.290  1.6922  0.3861  1.2997
 4821TIP3   OH235953   6.369   3.597   2.639  0.2643 -0.1281  0.2305
 4821TIP3    H135954   6.398   3.657   2.570 -0.1021  0.0700  0.2459
 4821TIP3    H235955   6.281   3.570   2.612  0.4288 -0.6641  0.2226
 4822TIP3   OH235956   0.633   1.226   5.273  0.7755  0.3187  0.4798
 4822TIP3    H135957   0.689   1.239   5.350  0.6089  0.2421  0.6134
 4822TIP3    H235958   0.545   1.247   5.304  0.5651 -0.6779  0.5687
 4823TIP3   OH235959   4.641   1.116   1.315  0.0566  0.0116 -0.2968
 4823TIP3    H135960   4.677   1.166   1.388  3.4727 -0.4744 -1.4939
 4823TIP3    H235961   4.608   1.181   1.254  0.6219  0.5947  0.0130
 4824TIP3   OH235962   0.745   0.036   4.268  0.2193 -0.1515 -0.3326
 4824TIP3    H135963   0.690   0.064   4.195  1.1998  1.6594 -0.4259
 4824TIP3    H235964   0.701  -0.042   4.302 -1.3966  0.1804 -1.5303
 4825TIP3   OH235965   5.270   2.560   5.799  0.0377 -0.5058  0.3403
 4825TIP3    H135966   5.321   2.488   5.837 -1.9546 -0.3130  3.7831
 4825TIP3    H235967   5.179   2.530   5.804 -0.5728  0.4024 -2.7437
 4826TIP3   OH235968   1.914   1.638   2.690 -0.6704 -0.1281 -0.2678
 4826TIP3    H135969   1.959   1.670   2.611 -0.1120 -1.1582 -0.3932
 4826TIP3    H235970   1.821   1.653   2.673 -0.5889 -0.7087 -1.3239
 4827TIP3   OH235971   5.041   2.619   6.181  0.1973 -0.3911 -0.6585
 4827TIP3    H135972   5.066   2.707   6.154 -0.3362 -0.3634 -1.0797
 4827TIP3    H235973   5.119   2.583   6.223 -0.0046  0.8046  0.8220
 4828TIP3   OH235974   3.864   1.394   1.729 -0.3671  0.0083  0.3341
 4828TIP3    H135975   3.803   1.393   1.656 -1.1482 -1.2586  0.9660
 4828TIP3    H235976   3.946   1.359   1.694 -0.4023  0.4214 -0.1742
 4829TIP3   OH235977   1.011   0.884  12.503 -0.3176  0.2425 -0.2233
 4829TIP3    H135978   0.935   0.894  12.445 -1.0079  1.4057  0.8447
 4829TIP3    H235979   0.980   0.914  12.588  1.7581  2.1322 -0.0759
 4830TIP3   OH235980   0.574   3.885   5.585 -0.4529  0.0873 -0.0943
 4830TIP3    H135981   0.557   3.792   5.572  0.9585 -0.1717 -0.2801
 4830TIP3    H235982   0.506   3.914   5.646 -0.5144 -1.2146  0.4837
 4831TIP3   OH235983   3.999   0.630   1.600  0.4401 -0.5103 -0.3356
 4831TIP3    H135984   4.028   0.643   1.510  0.9914  0.9476  0.0280
 4831TIP3    H235985   3.966   0.715   1.627 -1.7152 -1.4550  0.1712
 4832TIP3   OH235986   6.441   1.969  12.470 -0.0364  0.1287  0.3800
 4832TIP3    H135987   6.380   1.926  12.530 -1.5866 -1.7394 -2.3371
 4832TIP3    H235988   6.402   2.055  12.453 -0.3973  0.0603  0.8420
 4833TIP3   OH235989   3.419   0.277   0.942  0.8923  0.3532  0.1324
 4833TIP3    H135990   3.338   0.244   0.982  1.4893 -0.3988  0.7418
 4833TIP3    H235991   3.415   0.372   0.955 -0.3905  0.4547 -0.7942
 4834TIP3   OH235992   3.051   3.685  16.986  0.2483 -0.0232 -0.6073
 4834TIP3    H135993   3.035   3.598  16.948 -1.5336 -0.8592  1.8330
 4834TIP3    H235994   3.049   3.672  17.080 -1.0039  2.8084 -0.1268
 4835TIP3   OH235995   5.172   1.117   0.761  0.1779 -0.4598  0.4549
 4835TIP3    H135996   5.101   1.066   0.800 -0.5008  1.1203  1.3655
 4835TIP3    H235997   5.150   1.122   0.668 -0.8715 -0.0628  0.7117
 4836TIP3   OH235998   5.727   2.112   5.154 -0.2393 -0.0019 -0.2139
 4836TIP3    H135999   5.816   2.122   5.187  0.0405 -1.8801 -0.2516
 4836TIP3    H236000   5.688   2.199   5.161  0.8863  0.4011  1.8898
 4837TIP3   OH236001   1.728   6.773   1.704 -0.1597 -0.0194  0.1889
 4837TIP3    H136002   1.673   6.843   1.668 -2.9190 -1.8293  0.5131
 4837TIP3    H236003   1.750   6.718   1.629  1.3882  0.7518  0.0455
 4838TIP3   OH236004   4.094   0.237   0.326 -0.5963 -0.1923  0.6964
 4838TIP3    H136005   4.083   0.320   0.280  1.2398  0.1102  0.7345
 4838TIP3    H236006   4.093   0.261   0.419  1.5174  0.0676  0.6973
 4839TIP3   OH236007   6.227   2.215  15.024  0.4320 -0.2452  0.0182
 4839TIP3    H136008   6.249   2.145  14.962  0.3521 -0.1840 -0.0793
 4839TIP3    H236009   6.267   2.294  14.986 -1.5381  0.2527 -1.1573
 4840TIP3   OH236010   3.957   0.633  17.098 -0.4873  0.0677 -0.1309
 4840TIP3    H136011   3.925   0.585  17.022 -0.4021 -0.6480  0.2687
 4840TIP3    H236012   3.984   0.718  17.064 -2.9483  0.8087 -0.4793
 4841TIP3   OH236013   3.224   3.763   4.856 -0.1210 -0.0115 -0.7624
 4841TIP3    H136014   3.304   3.747   4.807 -0.4701 -1.3093 -0.9295
 4841TIP3    H236015   3.203   3.679   4.897 -0.3219  0.8084  0.8975
 4842TIP3   OH236016   2.047   4.433  14.858  0.8351 -0.1175  0.1353
 4842TIP3    H136017   2.013   4.412  14.945 -1.1611  0.9074 -0.3250
 4842TIP3    H236018   2.068   4.526  14.862  1.2314 -0.1842 -0.3215
 4843TIP3   OH236019   5.954   1.649   5.977  0.2831 -0.2576  0.8977
 4843TIP3    H136020   5.943   1.607   6.062 -0.0478 -0.5833  0.6966
 4843TIP3    H236021   5.872   1.632   5.931  1.5136 -2.5880 -0.5976
 4844TIP3   OH236022   6.052   2.623   3.102 -0.5361  0.1526  0.2736
 4844TIP3    H136023   5.983   2.650   3.041 -0.7685 -0.3495  0.3060
 4844TIP3    H236024   6.041   2.528   3.109 -0.1198  0.1289  0.6237
 4845TIP3   OH236025   5.554   0.675  16.880 -0.4859 -0.7784  0.5353
 4845TIP3    H136026   5.619   0.640  16.940 -0.3185  1.2708  1.6369
 4845TIP3    H236027   5.574   0.635  16.796  2.2355 -0.1924  0.8355
 4846TIP3   OH236028   3.608   5.003  16.786  0.0527  0.4135 -0.2774
 4846TIP3    H136029   3.690   4.958  16.805  0.4166  0.8924 -0.7027
 4846TIP3    H236030   3.587   5.050  16.867 -1.0543 -1.5697  0.6774
 4847TIP3   OH236031   2.542   6.515  14.195  0.0515  0.3248  0.3443
 4847TIP3    H136032   2.594   6.572  14.252 -1.0389 -0.3454  2.0794
 4847TIP3    H236033   2.576   6.427  14.210  1.7685  0.4143 -2.3700
 4848TIP3   OH236034   0.628   0.819  16.342  0.0037 -0.4065  0.2038
 4848TIP3    H136035   0.568   0.765  16.289 -2.2144  0.7909  1.3428
 4848TIP3    H236036   0.573   0.852  16.413  1.7191  1.8257  0.5941
 4849TIP3   OH236037   0.573   2.447  12.964  0.1389 -0.0762  0.6922
 4849TIP3    H136038   0.610   2.451  13.052  0.7556 -0.5630  0.4594
 4849TIP3    H236039   0.505   2.514  12.963 -0.4921 -0.6727  1.8296
 4850TIP3   OH236040   5.644   6.150  12.330 -0.1269  0.3798  0.5101
 4850TIP3    H136041   5.709   6.220  12.338 -1.7253  2.0116 -0.1435
 4850TIP3    H236042   5.646   6.105  12.415  2.0414  0.1373  0.4064
 4851TIP3   OH236043   6.501   0.598  14.105  0.0734 -0.0135  0.1270
 4851TIP3    H136044   6.449   0.541  14.161 -1.1769 -0.8016 -1.7265
 4851TIP3    H236045   6.471   0.687  14.126 -2.1464 -0.4487 -0.9299
 4852TIP3   OH236046   0.561   3.695  11.462  0.1357 -0.0618 -0.5571
 4852TIP3    H136047   0.493   3.761  11.458  1.5841  1.6025  0.7291
 4852TIP3    H236048   0.516   3.613  11.442 -1.7925  1.2258 -1.8153
 4853TIP3   OH236049   1.707   2.341   6.442  0.1593  0.1364  0.6687
 4853TIP3    H136050   1.726   2.435   6.444 -1.0883  0.4205  0.2047
 4853TIP3    H236051   1.707   2.315   6.534 -0.2097  0.7637  0.8569
 4854TIP3   OH236052   5.509   4.953   0.093  0.3184 -0.1763  0.5948
 4854TIP3    H136053   5.602   4.953   0.070  0.2902  3.0183  0.1254
 4854TIP3    H236054   5.504   4.995   0.179 -0.7985  1.2720 -0.1370
 4855TIP3   OH236055   3.131   2.316  12.780  0.3904  0.4888  0.1525
 4855TIP3    H136056   3.109   2.363  12.700  1.2303  0.7066  0.0387
 4855TIP3    H236057   3.173   2.382  12.836  1.2618 -0.0338  0.1325
 4856TIP3   OH236058   5.555   4.145  15.503  0.1915  0.4562 -0.6937
 4856TIP3    H136059   5.638   4.097  15.509  0.3680  0.8097 -0.1996
 4856TIP3    H236060   5.517   4.118  15.420  0.3683 -0.4152 -0.5028
 4857TIP3   OH236061   6.128   0.144  12.476 -0.4585 -0.1418 -0.0513
 4857TIP3    H136062   6.218   0.176  12.482 -0.6981  0.4773  0.3326
 4857TIP3    H236063   6.093   0.186  12.398 -0.9749  1.0766  0.8081
 4858TIP3   OH236064   2.022   2.108   0.140 -0.6628 -0.0539  0.1248
 4858TIP3    H136065   2.080   2.172   0.181 -1.3017  0.2120  0.6218
 4858TIP3    H236066   2.026   2.129   0.047 -0.2298  0.1837  0.1925
 4859TIP3   OH236067   2.402   1.381  17.129 -0.4912  0.2344 -0.0503
 4859TIP3    H136068   2.475   1.393  17.069 -0.6062  0.0979 -0.2194
 4859TIP3    H236069   2.325   1.409  17.079 -0.5579  0.3627  0.1227
 4860TIP3   OH236070   6.685   5.159  16.054  0.3958  0.1504 -0.6698
 4860TIP3    H136071   6.771   5.157  16.096  0.2936 -0.9235 -0.4782
 4860TIP3    H236072   6.644   5.077  16.080 -1.5815  1.5992  1.0537
 4861TIP3   OH236073   1.579   0.971  12.969 -0.1674 -1.5769 -0.0132
 4861TIP3    H136074   1.667   0.976  13.006 -0.1524  0.2747 -0.2327
 4861TIP3    H236075   1.521   1.000  13.040 -0.3026  0.1933 -0.8123
 4862TIP3   OH236076   1.198   0.873  13.328  0.3239  0.2749  0.1542
 4862TIP3    H136077   1.141   0.801  13.302  0.3555  0.0244  0.7685
 4862TIP3    H236078   1.209   0.863  13.422  0.6814  0.8306  0.1799
 4863TIP3   OH236079   3.777   5.830   4.451 -0.0305 -0.5286  0.2023
 4863TIP3    H136080   3.735   5.874   4.526  1.3525 -0.7916  1.1791
 4863TIP3    H236081   3.871   5.844   4.465  0.3439 -2.1345 -0.5137
 4864TIP3   OH236082   6.629   6.502  14.947 -0.0535  0.4134  0.1366
 4864TIP3    H136083   6.579   6.583  14.956 -0.5448  0.2835 -1.2351
 4864TIP3    H236084   6.717   6.532  14.924  0.0296  0.5894  0.6785
 4865TIP3   OH236085   2.453   3.807   2.870  0.1628 -0.0669  0.0638
 4865TIP3    H136086   2.369   3.784   2.829  0.3221  1.2320 -1.0747
 4865TIP3    H236087   2.430   3.869   2.939  0.0149 -1.3339  1.1999
 4866TIP3   OH236088   1.459   0.483   3.668  0.3158 -0.2196  0.6937
 4866TIP3    H136089   1.417   0.450   3.589 -0.1968 -2.0607  1.6822
 4866TIP3    H236090   1.464   0.407   3.727 -0.5891  1.3578  2.9733
 4867TIP3   OH236091   1.432   3.227   1.304  0.0463  0.1217 -0.6399
 4867TIP3    H136092   1.420   3.322   1.301  3.3113  0.8220  2.0913
 4867TIP3    H236093   1.422   3.205   1.397  1.1415 -1.8866 -0.9426
 4868TIP3   OH236094   1.641   0.980   2.927 -0.1780  0.1858 -0.3106
 4868TIP3    H136095   1.624   0.918   2.997 -2.2418 -0.8512 -1.6238
 4868TIP3    H236096   1.709   0.938   2.874 -1.0035 -0.6292 -0.7527
 4869TIP3   OH236097   4.034   4.607  12.481 -0.0445 -0.2994 -0.2098
 4869TIP3    H136098   4.097   4.585  12.413 -0.6393  0.8771 -1.1729
 4869TIP3    H236099   3.960   4.548  12.466  0.9649 -2.0225  1.2225
 4870TIP3   OH236100   0.393   4.052  15.821 -0.0870 -0.6838  0.0106
 4870TIP3    H136101   0.392   3.994  15.896 -0.5303 -2.1364 -1.0681
 4870TIP3    H236102   0.428   3.999  15.749  0.0054  0.5469 -0.9083
 4871TIP3   OH236103   5.429   1.615  15.561  0.5287  0.5783 -0.0792
 4871TIP3    H136104   5.495   1.572  15.615  0.8419  2.1418  0.8219
 4871TIP3    H236105   5.352   1.558  15.568  1.2025 -0.3013  0.3426
 4872TIP3   OH236106   4.114   1.474  16.668  0.1514  0.1796 -0.0458
 4872TIP3    H136107   4.094   1.511  16.583 -0.1193 -0.4752 -0.2711
 4872TIP3    H236108   4.147   1.548  16.719  0.7554  0.4790 -0.8546
 4873TIP3   OH236109   1.539   4.605   2.054 -0.1703  0.3331 -0.0474
 4873TIP3    H136110   1.621   4.605   2.004  1.5043  0.2421  2.5147
 4873TIP3    H236111   1.548   4.531   2.115 -1.5161  1.1912  1.2558
 4874TIP3   OH236112   3.688   5.486   3.025  0.2960  0.9757  0.6704
 4874TIP3    H136113   3.625   5.517   2.959  1.1280  0.3049 -0.4949
 4874TIP3    H236114   3.733   5.565   3.055  0.7325  1.1883 -0.4819
 4875TIP3   OH236115   4.243   6.638   3.683  0.0826 -0.1839 -0.4189
 4875TIP3    H136116   4.265   6.545   3.682 -2.1473 -0.7944  0.0755
 4875TIP3    H236117   4.248   6.666   3.592  0.6964 -0.8022 -0.5795
 4876TIP3   OH236118   5.084   1.732  11.177  0.7612  0.2537 -0.5474
 4876TIP3    H136119   5.089   1.810  11.122 -0.0036  0.4860 -0.3074
 4876TIP3    H236120   5.139   1.753  11.253 -0.6983  1.2356  0.2931
 4877TIP3   OH236121   4.839   4.438  11.470 -0.2205  0.0362 -0.9918
 4877TIP3    H136122   4.873   4.452  11.559  0.1219  1.3228 -1.3050
 4877TIP3    H236123   4.744   4.441  11.480 -0.2390  3.0783 -1.0111
 4878TIP3   OH236124   1.589   3.181   2.782 -0.8091 -0.4350  0.1290
 4878TIP3    H136125   1.581   3.111   2.718 -2.7321  1.0841 -1.4455
 4878TIP3    H236126   1.658   3.238   2.749  1.8255 -2.1985  2.1809
 4879TIP3   OH236127   6.206   1.982   5.373 -0.3979 -0.6128 -0.4213
 4879TIP3    H136128   6.112   1.991   5.388 -0.3908 -0.1909 -0.6180
 4879TIP3    H236129   6.247   2.007   5.456 -0.4725 -1.2140 -0.1978
 4880TIP3   OH236130   5.535   4.357   0.226  0.6949 -0.6712  0.3517
 4880TIP3    H136131   5.623   4.344   0.260  0.4935 -2.4777  0.2802
 4880TIP3    H236132   5.525   4.291   0.158 -0.2887  0.3372 -0.5297
 4881TIP3   OH236133   2.469   0.892  12.990 -0.4529  0.0319 -0.3375
 4881TIP3    H136134   2.524   0.820  12.959 -0.2239 -1.1601  2.5674
 4881TIP3    H236135   2.443   0.938  12.910 -0.0327 -2.8347 -2.2686
 4882TIP3   OH236136   1.234   4.480  17.024  0.7363  0.3921  0.0279
 4882TIP3    H136137   1.216   4.544  17.092 -0.5563 -1.5636  1.6663
 4882TIP3    H236138   1.150   4.436  17.010  0.8352  1.0113 -3.2381
 4883TIP3   OH236139   6.151   6.434  16.439  0.6237  0.5649 -0.1275
 4883TIP3    H136140   6.091   6.509  16.425 -0.2195  0.1746  1.2284
 4883TIP3    H236141   6.174   6.439  16.531  1.3453 -0.2915 -0.2540
 4884TIP3   OH236142   5.230   0.193  11.632 -0.1113 -0.2802 -0.6548
 4884TIP3    H136143   5.207   0.201  11.725  1.0564 -0.1048 -0.3643
 4884TIP3    H236144   5.162   0.136  11.596 -3.1201  2.9961 -0.6873
 4885TIP3   OH236145   5.007   5.305   0.553 -0.3767  0.3516  0.4561
 4885TIP3    H136146   4.988   5.211   0.548 -0.8204  0.3875  1.2700
 4885TIP3    H236147   5.094   5.309   0.592  0.2418  0.2513 -0.8771
 4886TIP3   OH236148   1.039   2.203   2.290 -0.2191 -0.5021 -0.4718
 4886TIP3    H136149   1.012   2.290   2.262  1.3607 -0.5458 -2.4149
 4886TIP3    H236150   0.990   2.186   2.370 -0.2716  2.3169  0.1882
 4887TIP3   OH236151   4.643   1.798   2.123 -0.0501  0.0656 -0.1149
 4887TIP3    H136152   4.573   1.778   2.185 -0.1445  1.8426  0.4096
 4887TIP3    H236153   4.721   1.804   2.177 -0.1989  2.0199 -0.0711
 4888TIP3   OH236154   1.965   5.555  15.954 -0.2577  0.2352  0.2491
 4888TIP3    H136155   1.986   5.471  15.996  2.0989  0.0796 -1.0415
 4888TIP3    H236156   1.883   5.582  15.994 -0.0268 -1.6756  2.2177
 4889TIP3   OH236157   6.598   3.886   1.219  0.3723  0.1462 -0.1125
 4889TIP3    H136158   6.658   3.811   1.221  1.2648  0.8492  0.5533
 4889TIP3    H236159   6.530   3.861   1.157  2.2041 -0.0409 -2.1744
 4890TIP3   OH236160   1.302   4.512  15.783  0.1703 -0.2347 -0.0762
 4890TIP3    H136161   1.338   4.436  15.830  0.4863  1.3298  2.3658
 4890TIP3    H236162   1.377   4.571  15.772 -0.7453  1.2215  1.2243
 4891TIP3   OH236163   4.542   1.423   2.551 -0.1295 -0.1508  0.4366
 4891TIP3    H136164   4.634   1.449   2.555 -0.2616  0.5158 -0.4525
 4891TIP3    H236165   4.493   1.505   2.560 -0.6097 -0.3809  0.0033
 4892TIP3   OH236166   2.002   2.165   3.828 -0.0862  0.0968  0.1426
 4892TIP3    H136167   2.024   2.214   3.748  0.0951 -0.3195 -0.0681
 4892TIP3    H236168   2.085   2.126   3.855 -0.2194 -0.0549  0.3342
 4893TIP3   OH236169   5.628   3.379  12.914  0.2502 -0.0710  0.4594
 4893TIP3    H136170   5.631   3.324  12.835 -0.9044 -1.0472  1.0751
 4893TIP3    H236171   5.568   3.334  12.973  0.8072  0.8399  1.7721
 4894TIP3   OH236172   5.517   3.725   6.139  0.0770 -0.4673 -0.2667
 4894TIP3    H136173   5.591   3.664   6.138 -0.0552 -0.6853 -2.5117
 4894TIP3    H236174   5.557   3.811   6.127  0.0347 -0.4599 -0.3511
 4895TIP3   OH236175   4.973   0.966   3.039 -0.6210  0.2295 -0.0125
 4895TIP3    H136176   4.941   1.038   3.095 -0.2438 -0.3961  1.0454
 4895TIP3    H236177   4.917   0.892   3.062 -0.9399  0.1481 -1.0250
 4896TIP3   OH236178   3.362   6.051  15.396  0.1813  0.5243 -0.8687
 4896TIP3    H136179   3.334   6.031  15.486 -1.5645  2.6012 -0.8780
 4896TIP3    H236180   3.375   5.965  15.356 -4.8231 -0.7466 -0.3581
 4897TIP3   OH236181   6.608   2.311  14.844 -0.1579 -0.1022 -0.0735
 4897TIP3    H136182   6.601   2.286  14.936 -3.2693 -0.3090 -0.2656
 4897TIP3    H236183   6.593   2.230  14.795 -1.2590  0.4672 -0.7237
 4898TIP3   OH236184   0.679   4.257   3.522  0.5339  0.1943 -0.2060
 4898TIP3    H136185   0.648   4.259   3.613  1.2544  0.2663  0.0401
 4898TIP3    H236186   0.635   4.181   3.484  1.4780 -0.8195  0.6607
 4899TIP3   OH236187   5.737   2.823  14.071  0.1126  0.4207  0.3351
 4899TIP3    H136188   5.774   2.789  14.153 -2.3962 -0.9407  0.9989
 4899TIP3    H236189   5.650   2.854  14.095 -0.5808  0.2624 -1.7522
 4900TIP3   OH236190   6.160   6.229  16.227 -0.0357 -0.4094  0.0853
 4900TIP3    H136191   6.255   6.220  16.227  0.0216  0.1545  0.6342
 4900TIP3    H236192   6.140   6.275  16.309 -0.8181 -0.9406  0.2070
 4901TIP3   OH236193   1.164   2.615   1.778 -0.2425  0.0107 -0.4721
 4901TIP3    H136194   1.110   2.580   1.707  0.5852  0.5034 -1.3605
 4901TIP3    H236195   1.216   2.684   1.737 -1.3817  1.9125  1.0626
 4902TIP3   OH236196   3.684   0.264  15.392  0.1109 -0.0853  0.0711
 4902TIP3    H136197   3.680   0.172  15.416  1.3915 -0.5300 -1.2949
 4902TIP3    H236198   3.777   0.286  15.396  0.1931  0.3206 -2.4530
 4903TIP3   OH236199   3.654   2.589   4.388  0.6701 -0.2991  0.6858
 4903TIP3    H136200   3.583   2.617   4.447 -0.3492 -0.4253 -0.4260
 4903TIP3    H236201   3.642   2.495   4.378  0.3712 -0.1810 -0.2575
 4904TIP3   OH236202   1.457   6.801   0.247  0.3771  0.2381 -0.1770
 4904TIP3    H136203   1.526   6.806   0.312  0.9997  0.2341 -0.8186
 4904TIP3    H236204   1.498   6.833   0.166  0.2568 -1.6616 -1.0508
 4905TIP3   OH236205   2.789   1.049   3.927  0.4464  0.0375 -0.5225
 4905TIP3    H136206   2.816   0.995   4.001 -0.6293  1.6076  1.1024
 4905TIP3    H236207   2.865   1.105   3.909  0.2491  0.6276  0.3793
 4906TIP3   OH236208   6.793   2.399   2.823  0.3952 -0.0799  0.5463
 4906TIP3    H136209   6.795   2.431   2.913  1.1145 -0.0815  0.5343
 4906TIP3    H236210   6.758   2.310   2.830  1.2375 -0.3942  0.9317
 4907TIP3   OH236211   5.086   0.843   5.649  0.1279 -0.3921  0.7750
 4907TIP3    H136212   5.151   0.775   5.668  1.0914  0.6441  1.3116
 4907TIP3    H236213   5.046   0.863   5.733  0.2466  0.0838  0.7228
 4908TIP3   OH236214   1.978   6.627   4.873  0.0460 -0.0879 -0.3003
 4908TIP3    H136215   2.067   6.661   4.872  0.3123 -0.7516  0.2551
 4908TIP3    H236216   1.922   6.705   4.880  0.5941  0.2929 -0.1572
 4909TIP3   OH236217   4.064   6.167  13.623  0.2401  0.0985 -0.7303
 4909TIP3    H136218   4.136   6.170  13.560  0.1208 -0.5623 -0.8991
 4909TIP3    H236219   4.025   6.080  13.612 -0.4920  0.3974 -0.5346
 4910TIP3   OH236220   0.484   6.732  15.478 -0.7650 -0.2287  0.0957
 4910TIP3    H136221   0.445   6.647  15.497 -0.0172 -0.1292  2.3324
 4910TIP3    H236222   0.576   6.713  15.460 -0.6031  0.1045  0.5652
 4911TIP3   OH236223   5.514   2.823   1.434 -0.1567  0.0769  0.4764
 4911TIP3    H136224   5.494   2.765   1.361  2.3087 -1.1629  0.6753
 4911TIP3    H236225   5.491   2.772   1.512  1.2595 -0.3697  0.6317
 4912TIP3   OH236226   2.552   4.611   2.347 -0.1374  0.1020  0.3909
 4912TIP3    H136227   2.507   4.533   2.380  1.3596 -0.3980  1.3568
 4912TIP3    H236228   2.578   4.587   2.258 -0.1845 -0.3096  0.4820
 4913TIP3   OH236229   2.944   1.321   6.382 -0.3414 -0.4767 -0.3637
 4913TIP3    H136230   2.963   1.413   6.363 -1.0432 -0.3333 -0.3746
 4913TIP3    H236231   2.851   1.319   6.402 -0.4777 -1.2943 -1.0413
 4914TIP3   OH236232   2.266   3.083   0.762  0.0490  0.5615  0.2927
 4914TIP3    H136233   2.222   3.012   0.808  0.8581 -0.6480 -0.7145
 4914TIP3    H236234   2.358   3.077   0.788  0.2664  0.7456 -0.3876
 4915TIP3   OH236235   2.664   3.794   1.932  0.4261 -0.1543 -0.0057
 4915TIP3    H136236   2.599   3.863   1.924 -1.7452 -2.0768  0.1298
 4915TIP3    H236237   2.733   3.831   1.987 -1.0901  1.5805  0.7857
 4916TIP3   OH236238   6.140   5.319   0.461  0.6881  0.1430  0.3263
 4916TIP3    H136239   6.052   5.354   0.471  0.1163 -1.4885  1.4994
 4916TIP3    H236240   6.129   5.240   0.409  1.7309  0.8325 -1.0049
 4917TIP3   OH236241   3.247   1.161  16.005 -0.1613 -0.5873  0.3162
 4917TIP3    H136242   3.245   1.166  16.100 -0.4541  1.1921  0.2502
 4917TIP3    H236243   3.156   1.168  15.978  0.0563  1.2508 -0.1215
 4918TIP3   OH236244   2.484   1.108   2.300 -0.0129  0.2018  0.4685
 4918TIP3    H136245   2.390   1.090   2.300 -0.6264  2.6056 -1.6852
 4918TIP3    H236246   2.520   1.047   2.236 -0.1740 -0.4383  0.9819
 4919TIP3   OH236247   3.984   5.934   2.535 -0.5170  0.5242  0.6537
 4919TIP3    H136248   3.939   5.892   2.609 -2.2226  0.1819 -0.5108
 4919TIP3    H236249   3.971   5.873   2.462  0.4085  1.2409 -0.1306
 4920TIP3   OH236250   4.513   1.185   2.238  0.0379 -0.2237  0.4282
 4920TIP3    H136251   4.503   1.189   2.143 -1.1113  0.8093  0.5550
 4920TIP3    H236252   4.603   1.212   2.254 -0.7119  3.2429 -0.2468
 4921TIP3   OH236253   2.871   5.845   0.673 -0.3293  0.2968  0.9573
 4921TIP3    H136254   2.827   5.822   0.591  0.3263 -2.0593  1.1959
 4921TIP3    H236255   2.950   5.892   0.646 -0.6702  0.5017  0.3011
 4922TIP3   OH236256   1.724   3.361  11.447  0.0934 -0.0612  0.5129
 4922TIP3    H136257   1.792   3.407  11.496  0.2803 -0.5057  0.6814
 4922TIP3    H236258   1.763   3.345  11.361  0.4817 -0.9450  0.8393
 4923TIP3   OH236259   1.666   3.946  12.250  0.1328 -0.5073  0.3444
 4923TIP3    H136260   1.626   4.017  12.300  1.2583  2.5793 -2.7784
 4923TIP3    H236261   1.593   3.887  12.230 -0.8765 -0.2472  2.8715
 4924TIP3   OH236262   6.345   5.970  15.769  0.2410 -0.3428 -0.3896
 4924TIP3    H136263   6.429   6.003  15.737  1.0088 -1.5113  0.3501
 4924TIP3    H236264   6.296   6.049  15.793  1.5059  0.3285  0.0725
 4925TIP3   OH236265   3.474   0.160   5.232  0.3966 -0.0535 -0.0262
 4925TIP3    H136266   3.502   0.070   5.248  0.8781 -0.0678 -0.8654
 4925TIP3    H236267   3.421   0.183   5.308  1.6962 -0.4573  1.0405
 4926TIP3   OH236268   0.306   3.304  14.411 -0.2245 -0.0137 -0.3575
 4926TIP3    H136269   0.376   3.254  14.370  0.4408 -0.6559  1.4454
 4926TIP3    H236270   0.302   3.386  14.361  1.8864  0.0869 -0.4415
 4927TIP3   OH236271   1.096   1.954  10.981 -0.1639 -0.1285  0.1330
 4927TIP3    H136272   1.151   1.996  11.046 -1.8484 -0.8282  2.1336
 4927TIP3    H236273   1.129   1.865  10.975  0.3961  0.1144 -0.4828
 4928TIP3   OH236274   6.490   4.546  13.444  0.5535 -0.4396  0.2136
 4928TIP3    H136275   6.507   4.606  13.516  0.9290  2.5026 -2.1516
 4928TIP3    H236276   6.406   4.575  13.408  1.4810 -0.2622 -1.9536
 4929TIP3   OH236277   5.704   5.504  16.873  0.3524 -0.0657  0.1776
 4929TIP3    H136278   5.717   5.599  16.866 -0.4145 -0.0144 -0.6815
 4929TIP3    H236279   5.642   5.495  16.945 -0.5239  0.1816 -0.5272
 4930TIP3   OH236280   4.882   5.676   4.508 -0.7075  0.4099  0.3409
 4930TIP3    H136281   4.822   5.735   4.463 -0.3416  0.4542 -0.0980
 4930TIP3    H236282   4.935   5.637   4.438 -1.7372 -1.3546  0.4828
 4931TIP3   OH236283   3.296   0.099   4.853  0.4161  0.7677  0.2930
 4931TIP3    H136284   3.292   0.042   4.930 -1.0639 -0.1717 -0.4172
 4931TIP3    H236285   3.217   0.077   4.804  0.7514  2.1587 -0.9316
 4932TIP3   OH236286   3.802   4.567  14.333 -0.6226  0.3812 -0.3466
 4932TIP3    H136287   3.803   4.660  14.312 -0.7919  0.5120  0.2103
 4932TIP3    H236288   3.850   4.560  14.416 -0.7372 -0.0086 -0.3082
 4933TIP3   OH236289   1.027   4.067  14.911 -0.0770 -0.0200  0.5281
 4933TIP3    H136290   1.118   4.052  14.934 -0.1250  0.2071  0.8915
 4933TIP3    H236291   1.028   4.085  14.817  0.4448  1.3924  0.7751
 4934TIP3   OH236292   0.965   3.967   4.389 -0.5486  0.0233  0.0005
 4934TIP3    H136293   0.924   4.049   4.415 -0.7226 -0.4681  1.3584
 4934TIP3    H236294   1.012   3.937   4.467  1.9952  0.2724 -1.3287
 4935TIP3   OH236295   4.588   1.579   4.661 -0.7884  0.1275  0.2742
 4935TIP3    H136296   4.606   1.486   4.645  2.0833  0.7348 -0.5971
 4935TIP3    H236297   4.586   1.618   4.573 -0.7922  1.0766  0.6863
 4936TIP3   OH236298   3.945   2.772  13.732 -0.1102 -0.0414  0.2202
 4936TIP3    H136299   3.976   2.718  13.805  1.1383 -0.0803 -0.3087
 4936TIP3    H236300   4.025   2.800  13.687 -0.6675  2.4409  0.5840
 4937TIP3   OH236301   0.743   2.810  13.218  0.0158 -0.2182  0.6808
 4937TIP3    H136302   0.750   2.754  13.295 -0.1024 -1.9683 -0.5158
 4937TIP3    H236303   0.814   2.780  13.161 -0.8083  0.0407 -0.5038
 4938TIP3   OH236304   0.674   1.438   2.381 -0.3149  0.3659  0.5389
 4938TIP3    H136305   0.705   1.371   2.320 -1.1694  1.2479 -0.9447
 4938TIP3    H236306   0.650   1.512   2.325  1.4470  2.3142  2.1644
 4939TIP3   OH236307   6.490   2.317  11.804 -0.0746  0.1229 -0.5757
 4939TIP3    H136308   6.554   2.294  11.871 -1.2310  0.5876  0.7256
 4939TIP3    H236309   6.517   2.267  11.727  2.1106  0.6676 -0.2223
 4940TIP3   OH236310   1.056   4.320   0.575 -0.7737  0.4451  0.4762
 4940TIP3    H136311   1.118   4.283   0.512 -0.0305  2.1019  0.1709
 4940TIP3    H236312   0.988   4.253   0.584 -0.1264 -0.4564 -0.9538
 4941TIP3   OH236313   1.118   2.694   0.493 -0.1810  0.2364 -0.7519
 4941TIP3    H136314   1.045   2.747   0.461  0.1235  0.3930 -1.2091
 4941TIP3    H236315   1.169   2.673   0.414 -0.0199 -0.3110 -0.5089
 4942TIP3   OH236316   5.168   5.346  11.635 -0.7475 -0.0483 -0.0183
 4942TIP3    H136317   5.240   5.342  11.572  0.3318  0.5959  1.1384
 4942TIP3    H236318   5.165   5.258  11.673 -1.9359 -0.6924 -1.4848
 4943TIP3   OH236319   1.793   4.406  11.549  0.4482 -0.3413 -0.2102
 4943TIP3    H136320   1.784   4.483  11.605 -2.3490 -0.7306 -0.0180
 4943TIP3    H236321   1.803   4.442  11.460  0.2242  0.2423 -0.0027
 4944TIP3   OH236322   2.242   1.835   1.893 -0.8274  0.4435  0.3727
 4944TIP3    H136323   2.221   1.873   1.808 -0.0294  2.5446  1.0620
 4944TIP3    H236324   2.306   1.767   1.873 -0.5299  1.0112 -0.6853
 4945TIP3   OH236325   3.002   5.917  13.200 -0.0663 -0.0137  0.0703
 4945TIP3    H136326   2.940   5.927  13.272 -0.4815 -0.9265 -0.1524
 4945TIP3    H236327   3.036   6.006  13.186 -0.7683  0.3650  0.6807
 4946TIP3   OH236328   0.451   5.568  14.136 -0.1993 -0.2744 -0.5539
 4946TIP3    H136329   0.413   5.502  14.194  0.0917 -0.5926 -0.7195
 4946TIP3    H236330   0.482   5.519  14.060  1.0695 -0.1264 -0.1673
 4947TIP3   OH236331   2.314   2.053   2.752 -0.2606  0.0467  0.1757
 4947TIP3    H136332   2.308   1.958   2.741 -0.0992 -0.0449  0.8431
 4947TIP3    H236333   2.398   2.076   2.711 -1.2102  0.2084 -1.8291
 4948TIP3   OH236334   2.927   6.129   4.959 -0.5840  0.1398 -0.1709
 4948TIP3    H136335   2.890   6.182   4.888 -2.5801 -2.6901 -1.4280
 4948TIP3    H236336   2.860   6.130   5.027  0.3738  1.0514  0.7894
 4949TIP3   OH236337   6.080   6.350   4.334  0.2590  0.1722  0.2150
 4949TIP3    H136338   6.013   6.316   4.392 -0.0891 -0.2752 -0.4315
 4949TIP3    H236339   6.163   6.327   4.376  0.0175 -0.5420  0.3138
 4950TIP3   OH236340   1.863   5.633  16.505 -0.5193  0.3273 -0.0391
 4950TIP3    H136341   1.904   5.569  16.447  1.1728  0.8863  0.4794
 4950TIP3    H236342   1.836   5.582  16.582 -4.4089 -0.7829 -1.8448
 4951TIP3   OH236343   2.805   1.421  13.970 -0.4979  0.3714  0.6601
 4951TIP3    H136344   2.827   1.466  13.888  0.1053  0.2323  0.7459
 4951TIP3    H236345   2.810   1.489  14.036  0.3720  0.1990  0.7828
 4952TIP3   OH236346   3.783   4.864   5.277  0.0269 -0.0448  0.3511
 4952TIP3    H136347   3.842   4.938   5.260  0.4813 -0.5508 -0.3170
 4952TIP3    H236348   3.695   4.903   5.279  0.3910  0.7781  1.7291
 4953TIP3   OH236349   0.077   0.356   2.021  0.0772  0.0507  0.0041
 4953TIP3    H136350   0.087   0.372   2.114 -0.7429  0.2524  0.0641
 4953TIP3    H236351   0.123   0.273   2.005  1.3760  0.6731  0.3268
 4954TIP3   OH236352   2.136   2.345  14.722 -0.3074  0.5235 -0.2270
 4954TIP3    H136353   2.076   2.409  14.761 -1.0785  0.9897 -2.0796
 4954TIP3    H236354   2.181   2.393  14.653  0.3522 -0.5060 -0.5421
 4955TIP3   OH236355   4.914   1.168  11.229  0.7278 -0.4570 -0.0219
 4955TIP3    H136356   4.947   1.105  11.165  1.3426  2.0843 -2.3723
 4955TIP3    H236357   4.979   1.238  11.229 -0.0523  0.3511  2.3111
 4956TIP3   OH236358   4.768   1.235   5.012  0.4180  0.0563 -0.4491
 4956TIP3    H136359   4.848   1.258   5.060 -0.8131  2.5486  0.5573
 4956TIP3    H236360   4.780   1.274   4.925  0.9699 -1.0352 -0.8807
 4957TIP3   OH236361   4.511   5.692   3.934  0.0304 -0.0202  0.1383
 4957TIP3    H136362   4.441   5.757   3.941  0.7224  0.7335  0.2505
 4957TIP3    H236363   4.587   5.735   3.974  0.4540 -0.9787  0.3917
 4958TIP3   OH236364   4.596   3.208   5.385  0.1083 -0.5542  0.2735
 4958TIP3    H136365   4.677   3.243   5.349 -0.1443  2.0643  2.0118
 4958TIP3    H236366   4.526   3.254   5.338 -0.3407 -0.9317  0.5555
 4959TIP3   OH236367   2.479   6.575   1.040 -0.8070 -0.0774 -0.1023
 4959TIP3    H136368   2.436   6.624   1.110  0.0346 -0.2090  0.5118
 4959TIP3    H236369   2.527   6.505   1.085  0.4435  0.3587 -0.7302
 4960TIP3   OH236370   6.573   5.531   2.070  0.2878 -0.3653 -0.4563
 4960TIP3    H136371   6.603   5.441   2.084 -0.2792 -0.9947 -2.8535
 4960TIP3    H236372   6.648   5.585   2.094  0.0954 -1.3088  2.6607
 4961TIP3   OH236373   3.691   1.893  14.624  0.1474  0.1705 -0.0346
 4961TIP3    H136374   3.772   1.895  14.676  0.1087 -1.5994  0.1658
 4961TIP3    H236375   3.675   1.800  14.608 -0.7990  0.5712 -1.7465
 4962TIP3   OH236376   2.809   3.140  14.847  0.7769  0.3980 -0.3946
 4962TIP3    H136377   2.838   3.180  14.765 -2.1110  1.4100 -1.0427
 4962TIP3    H236378   2.813   3.211  14.911  0.3568  0.3982 -0.3616
 4963TIP3   OH236379   2.155   2.235   5.156 -0.6025  0.7608 -0.6859
 4963TIP3    H136380   2.106   2.169   5.107  0.7416 -0.9953  0.1975
 4963TIP3    H236381   2.096   2.263   5.226 -0.3969 -1.4007  0.4398
 4964TIP3   OH236382   0.337   1.132   0.322 -0.3143  0.1676 -0.0299
 4964TIP3    H136383   0.363   1.042   0.341 -0.9781 -0.0840 -0.2743
 4964TIP3    H236384   0.415   1.173   0.284 -0.5379 -0.8432 -1.6643
 4965TIP3   OH236385   1.409   1.208  16.127  0.1622 -0.3835 -0.2768
 4965TIP3    H136386   1.384   1.127  16.171  1.4325 -0.3446  0.5764
 4965TIP3    H236387   1.340   1.223  16.062 -3.1052  0.7273  3.1101
 4966TIP3   OH236388   3.948   6.598  13.019  0.1208 -0.0251  0.7725
 4966TIP3    H136389   3.934   6.514  12.975 -0.0466  0.2680  0.2514
 4966TIP3    H236390   3.947   6.577  13.112 -1.0586 -0.4400  0.6852
 4967TIP3   OH236391   0.105   5.104  16.175  0.0700  0.2877  0.3410
 4967TIP3    H136392   0.083   5.049  16.251 -1.5856 -0.0845 -0.3592
 4967TIP3    H236393   0.178   5.059  16.133 -1.4096 -1.5923 -0.3552
 4968TIP3   OH236394   1.014   4.066  16.502  0.0243 -0.1538 -0.1207
 4968TIP3    H136395   0.934   4.015  16.490  1.7189 -2.9604 -0.5157
 4968TIP3    H236396   1.021   4.117  16.421 -0.2695 -1.5954 -1.1114
 4969TIP3   OH236397   0.340   3.788  16.464  0.1542 -0.8418 -0.3154
 4969TIP3    H136398   0.286   3.709  16.474  0.3314 -0.7525  1.9845
 4969TIP3    H236399   0.415   3.773  16.522  1.8153 -0.2583 -2.1807
 4970TIP3   OH236400   5.257   0.242  13.100 -0.2061  0.1951 -0.5855
 4970TIP3    H136401   5.291   0.329  13.119  1.0617 -0.2598 -0.6423
 4970TIP3    H236402   5.263   0.196  13.184  0.4486 -0.2515 -0.8737
 4971TIP3   OH236403   3.352   1.892   2.286  0.4044  0.1349 -1.0788
 4971TIP3    H136404   3.285   1.877   2.219 -1.1684 -1.4170  0.7193
 4971TIP3    H236405   3.316   1.852   2.365  3.5696 -0.9670 -0.0388
 4972TIP3   OH236406   2.507   3.526   0.065 -0.1711  0.3863 -0.1689
 4972TIP3    H136407   2.513   3.498  -0.026 -1.9621 -2.4524  0.4565
 4972TIP3    H236408   2.553   3.459   0.115  0.0956  1.4576  1.1018
 4973TIP3   OH236409   0.299   6.020  17.179 -0.4014 -0.2354 -0.6747
 4973TIP3    H136410   0.322   6.096  17.232  1.2619 -0.8999 -0.3774
 4973TIP3    H236411   0.214   5.992  17.213 -0.4868  0.8032 -0.0081
 4974TIP3   OH236412   1.780   4.631   1.955  0.6152  0.0554 -0.2983
 4974TIP3    H136413   1.847   4.563   1.945  0.7465 -0.0488  1.0799
 4974TIP3    H236414   1.830   4.713   1.962  0.7526 -0.1740  2.2456
 4975TIP3   OH236415   6.113   6.739  13.928 -0.3530  0.3620  0.2026
 4975TIP3    H136416   6.168   6.680  13.981 -0.8485 -1.3644 -1.0999
 4975TIP3    H236417   6.163   6.820  13.922  1.0955 -0.4486  0.7777
 4976TIP3   OH236418   4.214   4.207   2.659  0.2360  0.7322  0.1566
 4976TIP3    H136419   4.272   4.247   2.594 -0.9993  0.3990 -1.1993
 4976TIP3    H236420   4.175   4.132   2.614  0.9850 -0.8549  2.0001
 4977TIP3   OH236421   3.009   0.701  14.499  0.8587  0.4112  0.2063
 4977TIP3    H136422   2.927   0.707  14.452  0.2071  1.4570  1.4029
 4977TIP3    H236423   3.008   0.614  14.540 -0.1076  0.7560  0.9640
 4978TIP3   OH236424   2.192   5.962  12.195 -0.5059  0.1208  0.0454
 4978TIP3    H136425   2.189   5.884  12.251 -0.7042 -1.3230 -1.8761
 4978TIP3    H236426   2.133   5.941  12.123 -1.9904  2.8236  0.3463
 4979TIP3   OH236427   0.416   4.851  12.633 -0.0485 -0.1388  0.1648
 4979TIP3    H136428   0.458   4.773  12.669  0.4522 -0.6238 -1.3945
 4979TIP3    H236429   0.323   4.841  12.657  0.2288 -0.5130  1.1435
 4980TIP3   OH236430   3.512   5.409   1.374  0.1660  0.0136 -0.1335
 4980TIP3    H136431   3.434   5.354   1.362 -0.0527  0.0436  1.0416
 4980TIP3    H236432   3.488   5.469   1.445 -0.2481  2.8173 -2.4751
 4981TIP3   OH236433   6.665   2.243   4.383  0.0914  0.5382  0.7587
 4981TIP3    H136434   6.664   2.273   4.474  2.2915 -0.0830  1.0300
 4981TIP3    H236435   6.742   2.285   4.345 -0.9656  1.0290 -0.9371
 4982TIP3   OH236436   3.480   4.218  16.435 -0.4834  1.0078 -0.1607
 4982TIP3    H136437   3.532   4.296  16.413  0.1696  0.5123 -0.4174
 4982TIP3    H236438   3.392   4.252  16.451 -0.4023  1.7039 -1.0600
 4983TIP3   OH236439   1.352   2.898   2.919  0.2602  0.5441 -0.0335
 4983TIP3    H136440   1.274   2.908   2.974  1.5573  1.0334  1.8172
 4983TIP3    H236441   1.331   2.946   2.839 -1.1030  1.1916  0.6787
 4984TIP3   OH236442   1.617   0.411   2.841 -0.0208  0.4987 -0.0669
 4984TIP3    H136443   1.579   0.431   2.755 -0.3594  1.6255  0.3222
 4984TIP3    H236444   1.544   0.379   2.893  0.4465 -1.5200 -0.5691
 4985TIP3   OH236445   5.867   4.473  14.176 -0.4119  0.0087  0.4815
 4985TIP3    H136446   5.927   4.505  14.109 -0.8183  2.0520  1.0297
 4985TIP3    H236447   5.827   4.395  14.138 -0.2258  0.8002 -1.4056
 4986TIP3   OH236448   4.584   3.961  16.564 -0.1178 -0.0556 -0.5206
 4986TIP3    H136449   4.636   3.924  16.492 -0.5984 -1.1777 -0.3192
 4986TIP3    H236450   4.542   3.885  16.604  0.2426  0.5344  1.0344
 4987TIP3   OH236451   0.287   5.734  14.596 -1.0045  0.5144 -0.5984
 4987TIP3    H136452   0.220   5.691  14.542 -1.4031 -0.0002  0.2688
 4987TIP3    H236453   0.363   5.676  14.590 -1.0846  0.4006 -0.5204
 4988TIP3   OH236454   1.399   5.946  12.752 -0.6554 -0.4664 -0.4889
 4988TIP3    H136455   1.330   5.918  12.812 -0.9689  1.1331 -0.0517
 4988TIP3    H236456   1.476   5.958  12.809  0.0938 -2.5261 -1.0180
 4989TIP3   OH236457   5.631   4.870   3.082  0.4832 -0.5756 -0.2620
 4989TIP3    H136458   5.581   4.854   3.002  0.0761 -3.0496  0.4139
 4989TIP3    H236459   5.589   4.814   3.148  0.9182  1.2471  1.6672
 4990TIP3   OH236460   0.986   1.130   3.393  0.1753 -0.0658 -0.3041
 4990TIP3    H136461   1.020   1.205   3.344 -0.7022 -0.5392 -1.7279
 4990TIP3    H236462   1.056   1.106   3.453  1.3999  0.4363 -1.4875
 4991TIP3   OH236463   3.779   2.611   0.755  0.0002  0.4975  0.3437
 4991TIP3    H136464   3.780   2.544   0.823  0.0816  0.3103  0.1592
 4991TIP3    H236465   3.716   2.676   0.786 -2.2175 -0.9966 -0.7609
 4992TIP3   OH236466   6.145   6.222   5.497  0.0828  0.1000  0.3321
 4992TIP3    H136467   6.211   6.290   5.487  1.0312 -0.9385 -0.6707
 4992TIP3    H236468   6.193   6.140   5.490 -0.9735 -0.7107  1.9240
 4993TIP3   OH236469   3.841   1.920  16.003 -0.1526 -0.3279 -0.2173
 4993TIP3    H136470   3.747   1.939  16.007 -0.2270 -0.8454  0.9674
 4993TIP3    H236471   3.846   1.826  16.016  0.4875 -0.4200 -1.1340
 4994TIP3   OH236472   5.286   4.088  11.767 -0.1356  0.3093  0.0315
 4994TIP3    H136473   5.233   4.045  11.834 -2.5181 -0.4415 -2.1749
 4994TIP3    H236474   5.283   4.181  11.790 -2.7880  0.3486 -0.1317
 4995TIP3   OH236475   3.590   4.635  10.395  0.2813  0.0242  0.0009
 4995TIP3    H136476   3.614   4.584  10.318 -0.4917  0.5163 -0.5725
 4995TIP3    H236477   3.653   4.707  10.397 -0.0326  0.3151 -0.4849
 4996TIP3   OH236478   5.642   6.335  13.930  0.3959 -0.2678 -0.1779
 4996TIP3    H136479   5.678   6.416  13.895 -0.6994 -0.9005 -3.0541
 4996TIP3    H236480   5.695   6.266  13.888 -1.2844 -1.0739 -1.0750
 4997TIP3   OH236481   6.630   3.683   3.031 -0.0610  0.0488  0.9282
 4997TIP3    H136482   6.610   3.745   3.101 -2.8663 -0.1795  0.4360
 4997TIP3    H236483   6.643   3.599   3.076  1.8924  0.5620  1.4247
 4998TIP3   OH236484   5.253   4.273   0.224 -0.2956  0.0352 -0.5034
 4998TIP3    H136485   5.261   4.268   0.128 -0.4307 -0.5414 -0.4884
 4998TIP3    H236486   5.331   4.227   0.257 -0.2801  0.1806 -0.3384
 4999TIP3   OH236487   5.208   2.807  14.063  0.3939 -0.6095 -0.1461
 4999TIP3    H136488   5.234   2.786  14.153  1.1767 -0.4670 -0.3362
 4999TIP3    H236489   5.226   2.901  14.054 -0.0316 -0.5406 -0.3407
 5000TIP3   OH236490   3.709   3.936  15.968 -0.3480  0.3657 -0.6883
 5000TIP3    H136491   3.650   3.909  15.898 -1.0106  0.9610 -0.3725
 5000TIP3    H236492   3.659   3.920  16.049  0.3668 -0.2244 -0.3496
 5001TIP3   OH236493   4.913   5.351   0.883 -0.2094 -0.2808  0.0055
 5001TIP3    H136494   4.909   5.266   0.840 -2.5417  0.1505 -0.7802
 5001TIP3    H236495   4.850   5.345   0.955  0.7107  0.3237  0.9040
 5002TIP3   OH236496   5.782   3.062   4.619 -0.3932 -0.1360  0.0741
 5002TIP3    H136497   5.858   3.011   4.591 -1.2583 -1.2739 -0.2660
 5002TIP3    H236498   5.791   3.069   4.714  1.1733  1.4816 -0.1492
 5003TIP3   OH236499   5.545   0.484  14.546  0.1091 -0.2101  0.4142
 5003TIP3    H136500   5.580   0.412  14.494 -0.4693  0.3341 -0.7645
 5003TIP3    H236501   5.621   0.538  14.567  0.6416 -1.4224  1.7885
 5004TIP3   OH236502   4.866   5.021   0.551  0.1061  0.2205 -0.6632
 5004TIP3    H136503   4.851   5.043   0.643  0.5090  0.7978 -0.7265
 5004TIP3    H236504   4.782   4.990   0.519 -0.4562  1.5682 -0.5213
 5005TIP3   OH236505   5.529   2.623  15.432 -0.0841 -0.1873 -0.0403
 5005TIP3    H136506   5.539   2.692  15.367  1.9096  0.2153  0.5930
 5005TIP3    H236507   5.548   2.542  15.385 -0.1049 -0.0520 -0.2789
 5006TIP3   OH236508   4.454   1.989   2.024  0.1948  0.2843 -0.0909
 5006TIP3    H136509   4.532   1.961   2.071 -0.8687  0.4694  1.8947
 5006TIP3    H236510   4.487   2.028   1.943  2.1795  0.6661  0.8472
 5007TIP3   OH236511   0.051   2.558  12.284 -0.6021 -0.0102 -0.1472
 5007TIP3    H136512   0.038   2.649  12.258  1.1719  0.8678  1.6757
 5007TIP3    H236513  -0.023   2.538  12.341  0.3778  1.3408  1.7345
 5008TIP3   OH236514   2.081   3.715   2.145  0.5397  0.7172  0.2297
 5008TIP3    H136515   1.992   3.747   2.161 -0.4800 -0.5827 -2.2976
 5008TIP3    H236516   2.072   3.620   2.147  2.3606  0.5148  1.9760
 5009TIP3   OH236517   1.029   2.021  13.632  0.0996  0.0316 -0.2293
 5009TIP3    H136518   1.104   2.004  13.689 -0.4754 -0.9216  0.2693
 5009TIP3    H236519   1.058   2.092  13.575  1.3758 -0.3191 -0.0483
 5010TIP3   OH236520   0.087   1.428  14.601 -0.3825  0.3004  0.3460
 5010TIP3    H136521   0.177   1.415  14.633 -0.4494  2.0545  1.3469
 5010TIP3    H236522   0.086   1.384  14.516  1.3680  0.0851  0.3957
 5011TIP3   OH236523   5.598   0.949   6.724  0.1721 -0.5438 -0.2403
 5011TIP3    H136524   5.647   1.011   6.777  1.0334 -1.7816  0.4568
 5011TIP3    H236525   5.572   0.880   6.785 -0.3887 -1.0867 -1.0686
 5012TIP3   OH236526   1.758   5.442   3.728  0.2455 -0.2434 -0.0606
 5012TIP3    H136527   1.836   5.388   3.744  1.3756  1.7198  1.4646
 5012TIP3    H236528   1.692   5.406   3.788  0.5130 -0.8372 -0.1128
 5013TIP3   OH236529   6.599   1.848   3.000  0.0924 -0.1891 -0.3162
 5013TIP3    H136530   6.685   1.887   2.984 -0.2288  1.0571  0.8401
 5013TIP3    H236531   6.613   1.755   2.984  2.0305 -0.2249  1.0848
 5014TIP3   OH236532   3.706   3.789  13.692  0.1571 -0.7357 -0.2836
 5014TIP3    H136533   3.735   3.793  13.601 -1.1673 -0.2600 -0.7155
 5014TIP3    H236534   3.611   3.773  13.686 -0.0551 -0.0730  1.0012
 5015TIP3   OH236535   4.116   1.240  12.967  0.5402  0.3475 -0.0833
 5015TIP3    H136536   4.099   1.308  12.902  0.1399 -0.2734 -0.6473
 5015TIP3    H236537   4.208   1.216  12.953  0.3441 -0.0721 -0.7175
 5016TIP3   OH236538   1.408   2.990  15.285  0.3127  0.0824  0.1512
 5016TIP3    H136539   1.324   3.012  15.325  1.0265  2.3790  0.5116
 5016TIP3    H236540   1.407   3.033  15.200  0.4559 -1.3552 -0.6157
 5017TIP3   OH236541   5.840   6.209  16.252  0.1493  0.3217  0.6267
 5017TIP3    H136542   5.872   6.149  16.319 -1.4138  0.1057  1.2078
 5017TIP3    H236543   5.836   6.294  16.295  1.7462  0.7557 -0.0111
 5018TIP3   OH236544   2.081   0.574  15.630  0.1785 -0.5398  0.2205
 5018TIP3    H136545   2.135   0.557  15.553 -1.3362  0.8095 -1.2198
 5018TIP3    H236546   2.075   0.669  15.635 -0.9554 -0.6412  1.1268
 5019TIP3   OH236547   0.478   2.903   1.083 -0.6021  0.0760  0.1120
 5019TIP3    H136548   0.525   2.955   1.149  1.2453 -0.8632 -0.4058
 5019TIP3    H236549   0.423   2.967   1.037 -1.9076  0.7709  2.4651
 5020TIP3   OH236550   3.761   3.435   0.038  0.0162 -0.1270 -0.6968
 5020TIP3    H136551   3.773   3.505  -0.026  0.4231 -0.4704 -1.0047
 5020TIP3    H236552   3.691   3.467   0.096  0.8272  0.9463 -0.2587
 5021TIP3   OH236553   2.020   1.076   1.045 -0.2451  0.6687  0.3993
 5021TIP3    H136554   2.052   1.006   0.989 -1.2796  1.6032 -1.4448
 5021TIP3    H236555   1.945   1.038   1.091  0.0478  0.1667  0.4710
 5022TIP3   OH236556   5.184   3.978  16.042  0.4744 -0.4548  0.2786
 5022TIP3    H136557   5.169   3.889  16.012 -0.9127 -0.0087 -0.4261
 5022TIP3    H236558   5.149   4.034  15.972 -1.1714  0.6154  1.8650
 5023TIP3   OH236559   0.072   1.038   5.087  0.0628 -0.0256 -0.0309
 5023TIP3    H136560   0.132   0.966   5.066 -1.9191 -1.5225 -0.9199
 5023TIP3    H236561   0.015   1.002   5.155 -0.4297  1.0084  0.1141
 5024TIP3   OH236562   6.187   2.991   4.289 -0.5862  0.2635  0.0571
 5024TIP3    H136563   6.198   2.900   4.318 -0.3229 -0.2477 -1.5127
 5024TIP3    H236564   6.203   3.044   4.367  0.7200 -0.9775  0.6715
 5025TIP3   OH236565   0.777   4.746  16.422 -0.4735  0.2095  0.1749
 5025TIP3    H136566   0.863   4.712  16.399 -0.2453  0.3976  0.7101
 5025TIP3    H236567   0.764   4.820  16.363 -0.0287  0.5071  0.4338
 5026TIP3   OH236568   3.573   1.578   4.644  0.4923  0.1519 -0.5781
 5026TIP3    H136569   3.486   1.571   4.604 -0.9811 -0.0181  2.3428
 5026TIP3    H236570   3.606   1.489   4.645 -0.2255 -0.1199  0.0786
 5027TIP3   OH236571   3.976   6.801  17.135  0.1442 -0.1850 -0.2235
 5027TIP3    H136572   3.992   6.767  17.223  0.7249  0.4252 -0.0846
 5027TIP3    H236573   4.061   6.835  17.107  0.2135 -1.2468 -1.4128
 5028TIP3   OH236574   1.621   6.539  16.139 -0.1600  0.4487  0.8674
 5028TIP3    H136575   1.677   6.565  16.212  1.7343 -2.2781  0.5671
 5028TIP3    H236576   1.560   6.476  16.177 -0.7237  0.7675  0.5032
 5029TIP3   OH236577   3.075   0.906  15.148 -0.3182  0.9473 -0.3447
 5029TIP3    H136578   3.110   0.994  15.138  2.8983 -0.0985  0.3252
 5029TIP3    H236579   3.133   0.851  15.095 -0.7694 -1.0021  1.0653
 5030TIP3   OH236580   2.381   0.339   0.675 -0.1669  0.4231 -0.6720
 5030TIP3    H136581   2.396   0.246   0.693 -2.3128  0.0701 -0.3424
 5030TIP3    H236582   2.296   0.357   0.716  0.1111  2.4903 -0.9073
 5031TIP3   OH236583   2.359   3.416   2.882  0.4567 -0.3706  0.2395
 5031TIP3    H136584   2.320   3.445   2.799 -1.9448 -1.7428  0.7728
 5031TIP3    H236585   2.298   3.448   2.949  1.6332 -0.4374  1.3758
 5032TIP3   OH236586   1.474   4.002  14.649 -0.2652 -0.1976 -0.0324
 5032TIP3    H136587   1.382   4.016  14.626  0.2657  1.2534 -1.4245
 5032TIP3    H236588   1.514   3.967  14.570  0.3509 -1.0379  0.6338
 5033TIP3   OH236589   2.769   2.185   5.706  0.8204  0.1719 -0.0812
 5033TIP3    H136590   2.836   2.171   5.773  0.1749  0.6195  0.6779
 5033TIP3    H236591   2.717   2.105   5.706  0.7602  0.2104  0.0312
 5034TIP3   OH236592   5.953   5.235  16.909  0.0699 -0.0747 -0.2889
 5034TIP3    H136593   5.894   5.225  16.984 -0.3620  0.5906 -0.5309
 5034TIP3    H236594   6.039   5.209  16.942 -0.0598  0.4740  0.5141
 5035TIP3   OH236595   5.865   3.741   5.845 -0.9158 -0.1286  0.0515
 5035TIP3    H136596   5.791   3.767   5.790 -1.4895 -1.9369 -0.1154
 5035TIP3    H236597   5.825   3.696   5.920 -0.0185 -0.5106  0.3178
 5036TIP3   OH236598   5.667   4.473   4.053  0.2362 -0.5254 -0.1381
 5036TIP3    H136599   5.756   4.466   4.087  1.1397  0.7184 -2.0728
 5036TIP3    H236600   5.611   4.443   4.125  2.1400 -0.2561  1.5288
 5037TIP3   OH236601   2.364   4.370   5.307 -0.9558 -0.3832 -0.4479
 5037TIP3    H136602   2.369   4.315   5.386 -0.1801 -1.1027 -0.9824
 5037TIP3    H236603   2.382   4.310   5.235 -2.4594  0.0903 -1.2713
 5038TIP3   OH236604   5.143   2.959   1.239  0.3593  0.1315 -0.5733
 5038TIP3    H136605   5.063   2.929   1.195  0.5889 -0.9549 -0.2792
 5038TIP3    H236606   5.212   2.940   1.176  0.6252 -0.9098  0.0191
 5039TIP3   OH236607   6.409   3.303   1.298 -0.0300  0.5466  0.2094
 5039TIP3    H136608   6.361   3.382   1.274  1.0022  1.1180 -0.0749
 5039TIP3    H236609   6.363   3.268   1.374 -2.7069 -0.6393 -1.8170
 5040TIP3   OH236610   3.155   5.582  11.892  0.1854  0.5872  0.0390
 5040TIP3    H136611   3.194   5.617  11.812  0.3937  0.3510  0.0340
 5040TIP3    H236612   3.084   5.642  11.913  1.0985  1.5404  0.5385
 5041TIP3   OH236613   1.936   3.964  10.659  0.2981 -0.4820 -0.0381
 5041TIP3    H136614   1.870   3.897  10.672  0.5320 -0.2578  2.8131
 5041TIP3    H236615   1.888   4.038  10.622 -0.5247 -1.1646 -0.3624
 5042TIP3   OH236616   2.323   4.389  12.490  0.0827  0.6153  0.3372
 5042TIP3    H136617   2.378   4.391  12.411  1.8011 -0.0853  1.4495
 5042TIP3    H236618   2.274   4.307  12.484  0.8477  0.1438  0.3783
 5043TIP3   OH236619   3.909   4.556   5.357  0.3889 -0.8870  0.2720
 5043TIP3    H136620   3.916   4.647   5.329  1.7653 -0.9087  0.4797
 5043TIP3    H236621   3.826   4.551   5.404  0.2950  0.2520  0.2364
 5044TIP3   OH236622   4.014   6.669  15.003 -0.6784 -0.1771  0.2394
 5044TIP3    H136623   3.977   6.754  15.026  0.1133  0.0009  0.9036
 5044TIP3    H236624   4.046   6.634  15.086 -0.5813 -0.9236 -0.1044
 5045TIP3   OH236625   5.540   2.767   5.990 -0.0188  0.2133 -0.0028
 5045TIP3    H136626   5.615   2.727   5.946 -0.1514  0.7156 -0.7212
 5045TIP3    H236627   5.470   2.764   5.924 -0.1216  1.3053  0.0331
 5046TIP3   OH236628   0.707   2.406   4.023 -0.1370 -0.1493 -0.4032
 5046TIP3    H136629   0.770   2.415   3.952  1.0481 -0.4501  0.5661
 5046TIP3    H236630   0.702   2.493   4.063 -0.6583 -0.0252 -0.7363
 5047TIP3   OH236631   0.286   5.540  15.576  0.0213  0.0948  0.1320
 5047TIP3    H136632   0.195   5.568  15.590 -0.2301 -0.1003 -1.0195
 5047TIP3    H236633   0.317   5.596  15.505  0.6653 -0.1398  0.2266
 5048TIP3   OH236634   1.727   0.202   4.013  0.0523  0.1688  0.2653
 5048TIP3    H136635   1.733   0.199   4.108  0.2354 -0.7582  0.2381
 5048TIP3    H236636   1.769   0.284   3.988 -0.7501  0.8257  1.0285
 5049TIP3   OH236637   4.552   2.922  12.693  0.1233  0.5569  0.6934
 5049TIP3    H136638   4.534   3.012  12.668 -1.8539 -0.0178 -0.1437
 5049TIP3    H236639   4.486   2.901  12.758  1.1540 -0.0247  1.5818
 5050TIP3   OH236640   5.566   1.066   4.865 -0.4949 -0.3769 -0.5060
 5050TIP3    H136641   5.612   1.110   4.937 -0.8745 -1.8223  0.6660
 5050TIP3    H236642   5.546   1.136   4.804  0.0738  0.8697  0.6744
 5051TIP3   OH236643   5.337   1.486  13.673  0.4444  0.3204 -0.3292
 5051TIP3    H136644   5.331   1.557  13.609 -0.4003 -1.2996 -2.1371
 5051TIP3    H236645   5.246   1.473  13.702  0.6181  0.0964  0.1202
 5052TIP3   OH236646   5.177   4.038   5.860 -0.3703 -0.3500  0.1405
 5052TIP3    H136647   5.200   4.126   5.889 -0.8021 -0.2735  0.2574
 5052TIP3    H236648   5.231   4.024   5.782  0.4107 -0.3610  0.6758
 5053TIP3   OH236649   5.288   5.011  13.554  0.2650  0.1045 -0.4422
 5053TIP3    H136650   5.259   5.000  13.644 -2.2050 -0.1188 -1.1906
 5053TIP3    H236651   5.348   5.085  13.556 -0.5964  0.7972  1.2127
 5054TIP3   OH236652   0.804   1.355  10.789  0.5503  0.0920 -1.0635
 5054TIP3    H136653   0.863   1.283  10.766 -0.3158 -0.6415 -1.0369
 5054TIP3    H236654   0.753   1.322  10.862 -2.3308 -0.6629 -3.2386
 5055TIP3   OH236655   5.492   6.705  16.200  0.5792  0.0635  0.0120
 5055TIP3    H136656   5.409   6.750  16.219  0.2398 -0.4400 -0.2302
 5055TIP3    H236657   5.516   6.663  16.282  0.7006  0.3766  0.1367
 5056TIP3   OH236658   5.567   3.008  15.318 -0.0157  0.3298 -0.5991
 5056TIP3    H136659   5.617   3.088  15.302  2.0624 -0.3818  1.7091
 5056TIP3    H236660   5.627   2.937  15.297 -0.2249 -0.5655  1.5077
 5057TIP3   OH236661   1.780   2.542  12.035 -0.2384 -0.1435 -0.6478
 5057TIP3    H136662   1.808   2.518  12.123 -3.2221 -0.3354  0.3717
 5057TIP3    H236663   1.835   2.490  11.977 -0.9493 -3.2749  1.2507
 5058TIP3   OH236664   4.001   2.899  17.195 -0.2729 -0.5087  0.2725
 5058TIP3    H136665   3.978   2.807  17.184  1.1967 -1.1405  2.0075
 5058TIP3    H236666   4.095   2.899  17.212  0.0401  1.4733 -1.0696
 5059TIP3   OH236667   0.082   5.064   0.952  0.1608  0.2305 -0.2657
 5059TIP3    H136668   0.134   5.125   1.006 -1.2000  1.4758 -0.2774
 5059TIP3    H236669   0.083   5.103   0.865  1.6069 -1.3082 -0.9883
 5060TIP3   OH236670   6.439   5.130  16.345 -0.1764 -0.1421  0.4837
 5060TIP3    H136671   6.486   5.046  16.341 -0.2415 -0.3988  3.3900
 5060TIP3    H236672   6.351   5.109  16.313  0.1708 -0.8699 -0.0295
 5061TIP3   OH236673   6.776   1.836  13.904  0.5168  0.1284 -0.1452
 5061TIP3    H136674   6.683   1.860  13.910  0.1117 -1.6332  1.5193
 5061TIP3    H236675   6.781   1.749  13.944  2.6352 -0.5598 -1.7278
 5062TIP3   OH236676   3.057   3.452   6.170 -0.2636 -0.2887 -0.7035
 5062TIP3    H136677   3.057   3.496   6.085  0.0118 -0.2900 -0.7044
 5062TIP3    H236678   3.090   3.364   6.151  1.0759  0.1219 -0.3879
 5063TIP3   OH236679   5.097   3.620  12.360 -0.4083  0.2283  1.0185
 5063TIP3    H136680   5.025   3.562  12.334  1.0239 -0.9170 -0.5612
 5063TIP3    H236681   5.168   3.598  12.300  0.8415  2.2615  1.6805
 5064TIP3   OH236682   3.563   3.297  17.067 -0.1822  0.2317 -0.1380
 5064TIP3    H136683   3.589   3.240  17.140 -1.4513  0.1755  0.3032
 5064TIP3    H236684   3.505   3.362  17.107  0.4382  1.2310 -0.8219
 5065TIP3   OH236685   4.846   6.273   4.927  0.2837  0.9675  0.3132
 5065TIP3    H136686   4.813   6.184   4.915  0.3935  0.9618  0.0426
 5065TIP3    H236687   4.939   6.261   4.947  0.1232  0.9816  1.1017
 5066TIP3   OH236688   0.966   0.247  13.131 -0.1476  0.3616  0.0702
 5066TIP3    H136689   0.979   0.170  13.187  0.6032  0.9688  0.7493
 5066TIP3    H236690   0.881   0.282  13.157  0.1595  0.5904  0.7808
 5067TIP3   OH236691   4.181   6.304  15.055  0.2652 -0.4353 -0.2835
 5067TIP3    H136692   4.165   6.259  14.972  1.8832  1.2363 -1.5834
 5067TIP3    H236693   4.259   6.358  15.039 -0.7548  1.7770  1.5503
 5068TIP3   OH236694   4.968   2.701  11.551 -0.2961 -0.2825  0.1782
 5068TIP3    H136695   5.018   2.775  11.519 -0.7142 -0.1673 -0.2077
 5068TIP3    H236696   5.008   2.680  11.636  0.8853 -0.6623 -0.4568
 5069TIP3   OH236697   1.073   2.163  10.831  0.7724 -0.4775  0.5053
 5069TIP3    H136698   1.061   2.147  10.737 -2.3329 -1.0784  0.8986
 5069TIP3    H236699   1.076   2.076  10.870 -1.2115 -0.2841  1.2108
 5070TIP3   OH236700   4.253   3.009   1.882  0.1930 -0.1455 -0.2615
 5070TIP3    H136701   4.194   3.077   1.849  1.8903  1.9947  0.9013
 5070TIP3    H236702   4.289   2.969   1.803  0.8388  1.8509 -1.0388
 5071TIP3   OH236703   4.909   1.582   5.209 -0.0228  0.3143  0.1080
 5071TIP3    H136704   4.826   1.602   5.251 -0.0229  1.8559 -0.5549
 5071TIP3    H236705   4.885   1.559   5.119  0.0928 -1.5387  0.5263
 5072TIP3   OH236706   5.447   0.779   2.684  0.1626  0.0787  0.3338
 5072TIP3    H136707   5.507   0.777   2.758  1.1257 -1.4503 -0.4283
 5072TIP3    H236708   5.484   0.845   2.625 -1.8509  2.9932  2.1087
 5073TIP3   OH236709   4.952   5.938  15.627  0.1882 -0.2588  0.8246
 5073TIP3    H136710   4.896   6.009  15.659  1.8351  1.0274  1.0452
 5073TIP3    H236711   5.016   5.982  15.570  0.7948 -1.6840  0.3569
 5074TIP3   OH236712   0.159   0.958   0.822 -0.7830 -0.2771 -0.6493
 5074TIP3    H136713   0.082   0.986   0.773 -2.0473  0.0586  1.3893
 5074TIP3    H236714   0.166   1.021   0.894  1.6518 -0.0763 -0.9577
 5075TIP3   OH236715   0.845   4.757   2.434  0.0623  0.2555  0.0063
 5075TIP3    H136716   0.771   4.811   2.406  0.0997  0.3770  0.1396
 5075TIP3    H236717   0.865   4.702   2.359 -1.2173 -0.9488  0.5055
 5076TIP3   OH236718   0.995   3.496   5.805 -0.3644 -0.0486 -0.6588
 5076TIP3    H136719   1.026   3.405   5.807 -1.5725 -0.4828 -1.0568
 5076TIP3    H236720   0.931   3.501   5.876  0.0361  0.6247 -0.3395
 5077TIP3   OH236721   1.534   4.296   3.971 -0.4222 -0.2900 -0.2530
 5077TIP3    H136722   1.440   4.283   3.982 -0.6704  0.3469 -1.4171
 5077TIP3    H236723   1.549   4.386   4.000  0.0107 -0.6904  0.8272
 5078TIP3   OH236724   5.391   6.574  11.510 -0.5345 -0.2778 -0.1054
 5078TIP3    H136725   5.309   6.610  11.544  0.6149  0.4344  2.1354
 5078TIP3    H236726   5.365   6.497  11.459 -2.7077  1.0400 -1.1308
 5079TIP3   OH236727   3.220   4.316   6.061 -0.0625 -0.0338 -0.2096
 5079TIP3    H136728   3.168   4.239   6.039 -1.2162  0.2957  1.1627
 5079TIP3    H236729   3.233   4.309   6.156  1.3988  0.5241 -0.3432
 5080TIP3   OH236730   0.864   1.600   0.046 -0.1051 -1.0673 -0.2628
 5080TIP3    H136731   0.903   1.635   0.126  0.3048 -1.0443 -0.4676
 5080TIP3    H236732   0.787   1.551   0.076  0.1350 -1.1929  0.1580
 5081TIP3   OH236733   6.250   0.665  13.078  0.2084  0.2225  0.1701
 5081TIP3    H136734   6.293   0.580  13.085  0.2387  0.0389 -1.8793
 5081TIP3    H236735   6.317   0.724  13.044 -0.4889  0.4756 -0.8127
 5082TIP3   OH236736   3.119   2.144  13.919  0.3030  0.0424 -0.1185
 5082TIP3    H136737   3.130   2.238  13.904 -1.1299  0.1937 -0.3734
 5082TIP3    H236738   3.194   2.103  13.874  0.0490  0.9575 -1.4261
 5083TIP3   OH236739   5.168   2.665  16.174 -0.3309 -0.4186 -0.4346
 5083TIP3    H136740   5.122   2.698  16.251  0.9298 -0.9168  0.5758
 5083TIP3    H236741   5.238   2.728  16.159  0.4151 -1.1617 -0.1627
 5084TIP3   OH236742   0.412   3.444   4.170 -0.1464 -0.2969 -0.7115
 5084TIP3    H136743   0.340   3.399   4.215  1.4929 -0.4155  2.0209
 5084TIP3    H236744   0.483   3.380   4.168  0.7397  0.6583 -0.9073
 5085TIP3   OH236745   3.142   3.075  14.298  0.0063  0.0319 -0.8156
 5085TIP3    H136746   3.054   3.107  14.314  0.4344  0.7138  0.2986
 5085TIP3    H236747   3.135   2.980  14.307 -0.4444  0.1505  0.1284
 5086TIP3   OH236748   4.461   4.504  16.653  0.3050  0.6638  0.2654
 5086TIP3    H136749   4.374   4.481  16.619  0.2901 -0.0760  0.7604
 5086TIP3    H236750   4.522   4.470  16.587  0.3321 -1.9918  1.5146
 5087TIP3   OH236751   2.032   1.877   4.090 -0.3170  0.0400 -0.1786
 5087TIP3    H136752   1.963   1.876   4.157 -0.8052  0.0508 -0.6733
 5087TIP3    H236753   2.006   1.810   4.027  0.5658 -0.5379  0.0500
 5088TIP3   OH236754   1.493   5.709   5.694  0.5936 -0.0482 -0.5359
 5088TIP3    H136755   1.577   5.741   5.726  0.5439  0.5639 -0.9909
 5088TIP3    H236756   1.438   5.703   5.772  0.8624  0.1891 -0.3280
 5089TIP3   OH236757   3.081   3.653  13.165 -0.1379 -1.1098  0.2774
 5089TIP3    H136758   2.994   3.675  13.132 -0.2446 -1.7648  0.1064
 5089TIP3    H236759   3.125   3.737  13.175 -0.4209 -0.8425 -0.6632
 5090TIP3   OH236760   5.260   1.646   0.873 -0.4753  0.1528 -0.2074
 5090TIP3    H136761   5.276   1.555   0.897  0.2187  0.6968  1.5973
 5090TIP3    H236762   5.172   1.646   0.836 -1.7455 -0.8370  2.5525
 5091TIP3   OH236763   0.092   5.861  10.753 -0.3199  0.4610 -0.0271
 5091TIP3    H136764   0.038   5.909  10.690  1.5313  1.1557 -1.1601
 5091TIP3    H236765   0.049   5.776  10.762 -0.1931 -0.0149 -2.9439
 5092TIP3   OH236766   6.445   6.578   5.247  0.1606 -0.7599 -0.3238
 5092TIP3    H136767   6.522   6.604   5.195  0.2245 -1.0326 -0.3668
 5092TIP3    H236768   6.406   6.661   5.275  0.2577 -0.6141 -0.6153
 5093TIP3   OH236769   3.398   2.928  15.153 -0.3566 -0.4712 -0.1079
 5093TIP3    H136770   3.303   2.924  15.146 -0.3147 -1.0223 -0.3678
 5093TIP3    H236771   3.416   3.018  15.182 -0.9044 -0.0596 -0.9900
 5094TIP3   OH236772   6.288   2.343  13.783  0.4062 -0.1739  0.0145
 5094TIP3    H136773   6.301   2.322  13.875  0.9406 -0.9102 -0.2221
 5094TIP3    H236774   6.372   2.379  13.754  0.1275  0.4146 -0.1007
 5095TIP3   OH236775   4.259   6.675  13.891  0.1523 -0.2153  0.3398
 5095TIP3    H136776   4.299   6.599  13.849 -1.4639 -1.1178  0.3235
 5095TIP3    H236777   4.217   6.723  13.819 -0.7490 -0.5638  0.6166
 5096TIP3   OH236778   1.840   3.757  14.655 -0.4628 -0.0790  0.4763
 5096TIP3    H136779   1.827   3.844  14.690  0.3857  0.0378  0.5222
 5096TIP3    H236780   1.913   3.766  14.594  2.0461 -1.3799  3.0550
 5097TIP3   OH236781   2.694   4.873  11.523 -0.3119 -1.0382 -0.0253
 5097TIP3    H136782   2.699   4.796  11.466  0.9825  0.3954 -1.9663
 5097TIP3    H236783   2.641   4.936  11.475 -0.8242 -0.4533  1.2498
 5098TIP3   OH236784   1.650   0.742  12.399  0.2898  0.0875 -0.4359
 5098TIP3    H136785   1.687   0.801  12.465  0.3496 -0.3650 -0.0600
 5098TIP3    H236786   1.714   0.671  12.392  0.8280  0.6502 -1.7700
 5099TIP3   OH236787   1.141   4.961   6.446  0.5129  0.8876  0.1253
 5099TIP3    H136788   1.191   4.972   6.526 -0.4791 -1.6395  1.2202
 5099TIP3    H236789   1.077   5.033   6.447  1.4309  1.7112  0.8358
 5100TIP3   OH236790   0.839   3.473   6.029 -0.3798  0.1088  0.5558
 5100TIP3    H136791   0.821   3.389   6.072 -1.2257  0.1744  0.3459
 5100TIP3    H236792   0.864   3.532   6.100  0.6479 -0.4197  0.6599
 5101TIP3   OH236793   0.535   0.759   2.948  0.2674  0.9694  0.0762
 5101TIP3    H136794   0.569   0.702   3.017  1.5828  1.9132  0.2265
 5101TIP3    H236795   0.485   0.826   2.995  0.4335  1.1140  0.0458
 5102TIP3   OH236796   1.265   0.237   0.283  0.1210  0.4600  0.2413
 5102TIP3    H136797   1.235   0.241   0.193 -1.9938  1.4655  0.9335
 5102TIP3    H236798   1.299   0.148   0.293  2.9608  1.0831 -2.2224
 5103TIP3   OH236799   3.988   5.053  14.442 -0.5124 -0.4298 -0.4437
 5103TIP3    H136800   3.980   5.148  14.440  0.0339 -0.3784 -0.4550
 5103TIP3    H236801   4.037   5.035  14.523 -0.3403 -0.6758 -0.6014
 5104TIP3   OH236802   6.809   1.604   0.717 -0.3673 -0.4616 -0.3242
 5104TIP3    H136803   6.855   1.601   0.633 -0.3065 -0.3146 -0.2954
 5104TIP3    H236804   6.719   1.578   0.695 -0.9339  1.7433 -0.8357
 5105TIP3   OH236805   3.287   3.364   6.531 -0.2035 -0.0842 -0.1737
 5105TIP3    H136806   3.367   3.346   6.482 -0.2007 -1.1325  0.1913
 5105TIP3    H236807   3.311   3.433   6.593  0.7309 -1.1362  0.6693
 5106TIP3   OH236808   6.125   4.975  16.303  0.0251 -0.0445 -0.1353
 5106TIP3    H136809   6.056   5.040  16.287 -0.6522 -0.8261 -0.4771
 5106TIP3    H236810   6.160   4.955  16.216  1.2945  0.9653  0.1104
 5107TIP3   OH236811   4.923   3.102   5.484  1.1347 -0.1074  0.0512
 5107TIP3    H136812   4.856   3.053   5.436  0.9557  1.5805 -1.5353
 5107TIP3    H236813   4.878   3.180   5.516  2.3997  1.4337 -1.6793
 5108TIP3   OH236814   4.559   1.370  14.046 -0.0174  0.0636 -0.3163
 5108TIP3    H136815   4.490   1.355  14.111 -0.0277  2.3796  0.2859
 5108TIP3    H236816   4.517   1.352  13.962 -0.7875 -0.4061  0.1515
 5109TIP3   OH236817   3.525   5.847   4.244 -0.3335  0.2887  1.0188
 5109TIP3    H136818   3.564   5.763   4.220  0.5001  0.6392  1.1250
 5109TIP3    H236819   3.574   5.874   4.322 -0.0039  1.2913  0.4762
 5110TIP3   OH236820   0.603   6.080   0.929  0.2064  0.0728 -0.1081
 5110TIP3    H136821   0.696   6.101   0.920 -0.0121  1.5404  0.6414
 5110TIP3    H236822   0.597   6.033   1.012  0.5068 -1.8182 -1.1038
 5111TIP3   OH236823   0.639   1.712   2.992 -0.5701 -0.5227 -0.5567
 5111TIP3    H136824   0.727   1.735   3.021 -1.0144  0.7049 -0.1390
 5111TIP3    H236825   0.651   1.675   2.904  0.2330  1.0060 -1.1235
 5112TIP3   OH236826   1.390   3.042   4.592 -0.6612 -0.6701  0.3824
 5112TIP3    H136827   1.397   2.949   4.568  1.6154  0.0782 -2.3320
 5112TIP3    H236828   1.464   3.058   4.651 -0.3874 -0.3536 -0.0426
 5113TIP3   OH236829   2.132   3.902   5.540 -0.1442  0.4074  0.2056
 5113TIP3    H136830   2.167   3.897   5.450  1.1925  1.2150  0.6482
 5113TIP3    H236831   2.072   3.827   5.546  1.9216 -1.4440 -0.4594
 5114TIP3   OH236832   4.053   0.072  14.098  0.4003  0.1044  0.5126
 5114TIP3    H136833   3.978   0.082  14.040 -0.5604  0.1765  1.7449
 5114TIP3    H236834   4.071   0.160  14.129  1.2171  0.1389 -0.0239
 5115TIP3   OH236835   1.489   0.667  12.088  0.1886  0.0201 -0.1433
 5115TIP3    H136836   1.427   0.595  12.101  1.0533 -0.5034  1.3046
 5115TIP3    H236837   1.464   0.732  12.154 -0.1372  0.7627 -0.9761
 5116TIP3   OH236838   3.063   4.304   1.616  0.5601  0.2889  0.0771
 5116TIP3    H136839   3.109   4.234   1.663  1.3457  0.3430 -0.5764
 5116TIP3    H236840   2.990   4.260   1.574  2.9024 -0.9439 -3.1421
 5117TIP3   OH236841   5.673   1.439  16.861  0.9235  0.0414 -0.2492
 5117TIP3    H136842   5.653   1.456  16.769  0.2422 -0.0159 -0.1148
 5117TIP3    H236843   5.769   1.444  16.866  0.8938  1.6157 -0.6493
 5118TIP3   OH236844   4.005   5.440  15.627  0.1710  0.9613  0.0259
 5118TIP3    H136845   3.927   5.453  15.572 -0.5015 -1.6112  0.2684
 5118TIP3    H236846   4.053   5.523  15.620 -0.0223  0.9456 -4.2262
 5119TIP3   OH236847   0.536   3.970   2.559 -0.3175  0.3706  0.0965
 5119TIP3    H136848   0.460   3.991   2.613  0.9541  0.1859  2.0246
 5119TIP3    H236849   0.585   4.052   2.555  0.6868 -0.1775  1.0419
 5120TIP3   OH236850   3.140   4.829  13.511 -0.1761  0.1128  0.2866
 5120TIP3    H136851   3.077   4.875  13.455 -0.0416  1.3661  1.1456
 5120TIP3    H236852   3.096   4.822  13.596 -0.2750 -1.5620  0.1310
 5121TIP3   OH236853   6.105   0.829   1.925  0.0937  0.3037 -0.7156
 5121TIP3    H136854   6.097   0.890   1.998  0.9152 -0.0364 -0.3358
 5121TIP3    H236855   6.127   0.745   1.966 -1.1495 -0.3042 -1.2171
 5122TIP3   OH236856   6.233   5.045  11.750 -0.8244 -0.1406  0.0376
 5122TIP3    H136857   6.153   5.015  11.707 -0.9723  2.4502 -1.6640
 5122TIP3    H236858   6.203   5.089  11.830 -1.0733  0.3978 -0.3508
 5123TIP3   OH236859   2.787   5.941  12.451 -0.1358 -0.2896 -0.0778
 5123TIP3    H136860   2.876   5.976  12.455 -0.3476  0.2307  0.1419
 5123TIP3    H236861   2.757   5.962  12.363 -0.0623 -0.4138 -0.1329
 5124TIP3   OH236862   2.984   0.352   0.064  0.5393  0.2634 -0.1982
 5124TIP3    H136863   2.999   0.276   0.121  0.8966  1.0488  0.7921
 5124TIP3    H236864   2.908   0.395   0.102  1.7703  1.7226  0.7325
 5125TIP3   OH236865   1.254   1.020  14.641 -0.1101 -0.3228  0.0596
 5125TIP3    H136866   1.296   0.936  14.660  1.7801  0.9606  2.1405
 5125TIP3    H236867   1.208   1.042  14.722 -0.6857  0.6012 -0.5048
 5126TIP3   OH236868   0.066   3.165  12.989 -0.4522  0.2530  0.1154
 5126TIP3    H136869   0.098   3.228  13.054  0.5233 -0.0775 -0.0346
 5126TIP3    H236870   0.091   3.080  13.024 -1.5303 -0.0411  0.1804
 5127TIP3   OH236871   5.605   1.906  15.863 -0.2159  0.0812 -0.4813
 5127TIP3    H136872   5.513   1.911  15.836 -1.0686 -0.4902  2.0363
 5127TIP3    H236873   5.618   1.986  15.915  0.7272  0.1497 -0.8090
 5128TIP3   OH236874   0.454   3.150   4.891 -0.2673  0.2614  0.2880
 5128TIP3    H136875   0.366   3.142   4.929 -0.4290  1.8181  0.3166
 5128TIP3    H236876   0.439   3.165   4.798  0.0634 -1.5840 -0.0873
 5129TIP3   OH236877   3.723   5.615  11.663 -0.2413 -0.6351 -0.1492
 5129TIP3    H136878   3.656   5.548  11.653 -1.1551 -0.0969  1.8641
 5129TIP3    H236879   3.803   5.566  11.683 -0.4727 -1.1992 -0.5795
 5130TIP3   OH236880   3.467   2.360  10.797  0.6003 -0.3111 -0.2347
 5130TIP3    H136881   3.538   2.369  10.860  0.1841 -2.2926  0.5712
 5130TIP3    H236882   3.484   2.428  10.732  1.4289  1.3468  1.6180
 5131TIP3   OH236883   4.564   3.266  13.817 -0.1180 -0.8080 -0.9575
 5131TIP3    H136884   4.524   3.180  13.830 -0.7182 -0.8543 -2.8297
 5131TIP3    H236885   4.587   3.268  13.724 -2.1958  1.8797 -1.5353
 5132TIP3   OH236886   0.038   3.713   0.206 -0.1294 -0.0162 -0.1661
 5132TIP3    H136887   0.044   3.673   0.119  1.9165  1.2367 -0.6670
 5132TIP3    H236888   0.000   3.644   0.261  0.6579 -1.6479 -1.5632
 5133TIP3   OH236889   6.129   0.697  10.718 -0.2116 -0.4559 -0.0749
 5133TIP3    H136890   6.185   0.625  10.747  1.0172 -0.0068 -1.2222
 5133TIP3    H236891   6.060   0.654  10.667 -0.2967 -0.9227  0.4210
 5134TIP3   OH236892   0.973   6.590   2.603  0.3816  0.2423  0.0834
 5134TIP3    H136893   0.909   6.535   2.649  1.2177 -1.0477 -0.2623
 5134TIP3    H236894   1.010   6.646   2.671 -0.9146  0.8467  0.3329
 5135TIP3   OH236895   3.375   3.786   6.396 -0.2370 -0.8714  0.0211
 5135TIP3    H136896   3.444   3.805   6.460  0.8685  0.1873 -1.4117
 5135TIP3    H236897   3.407   3.710   6.349  0.2880 -0.0254 -1.0421
 5136TIP3   OH236898   1.708   5.585  14.836  0.4090 -0.7992 -0.0555
 5136TIP3    H136899   1.757   5.667  14.834  0.3609 -0.7804 -0.9940
 5136TIP3    H236900   1.712   5.557  14.927  0.3354  0.2989  0.3038
 5137TIP3   OH236901   0.652   4.715   0.200 -0.0781 -0.1288  0.0879
 5137TIP3    H136902   0.721   4.737   0.138 -0.5944  1.0038 -0.1201
 5137TIP3    H236903   0.653   4.788   0.263 -0.1451 -0.8160  0.8997
 5138TIP3   OH236904   1.603   0.636   3.488  0.4737 -0.0208  0.7383
 5138TIP3    H136905   1.690   0.596   3.495  0.6560  0.1847 -0.3115
 5138TIP3    H236906   1.551   0.591   3.556  1.3145 -0.3374  1.1893
 5139TIP3   OH236907   0.970   2.243  13.219 -0.1252 -0.5157 -0.0242
 5139TIP3    H136908   0.935   2.171  13.167  1.1838 -0.3905 -1.1383
 5139TIP3    H236909   1.039   2.281  13.164 -0.0424  0.8953  0.9915
 5140TIP3   OH236910   5.019   2.147  11.679 -0.2092 -0.4979 -0.1255
 5140TIP3    H136911   4.928   2.172  11.662 -0.8961 -1.7500  1.4736
 5140TIP3    H236912   5.014   2.057  11.710  1.4673 -0.2036  1.1167
 5141TIP3   OH236913   5.813   4.133  14.579  0.2428  0.5925 -0.1560
 5141TIP3    H136914   5.721   4.114  14.597 -0.0849  2.4786  0.4182
 5141TIP3    H236915   5.858   4.050  14.592 -0.8718  0.3598  3.3080
 5142TIP3   OH236916   3.519   3.361  11.020  0.1617  0.4789  0.0406
 5142TIP3    H136917   3.504   3.406  11.103  0.8033 -1.9399  1.5670
 5142TIP3    H236918   3.505   3.269  11.040 -0.4162 -0.1444 -2.7573
 5143TIP3   OH236919   1.916   1.550   1.140 -0.3487  0.2614 -0.2925
 5143TIP3    H136920   1.874   1.624   1.096 -1.5862 -0.5890 -0.5760
 5143TIP3    H236921   1.844   1.492   1.164  0.6809 -1.4630 -1.1965
 5144TIP3   OH236922   0.689   0.811  15.341 -0.1796 -0.2141  0.3241
 5144TIP3    H136923   0.653   0.801  15.253 -1.0012 -0.5755  0.6900
 5144TIP3    H236924   0.770   0.761  15.339  0.3125  0.5689 -0.5007
 5145TIP3   OH236925   5.515   4.124  13.751 -0.0845 -0.3065 -0.1075
 5145TIP3    H136926   5.582   4.154  13.812 -2.6080 -0.9112  3.2975
 5145TIP3    H236927   5.478   4.205  13.716  1.6745  0.0442 -1.2810
 5146TIP3   OH236928   2.838   3.687   1.132 -0.1157 -0.3932  0.0953
 5146TIP3    H136929   2.906   3.652   1.190  1.1747 -0.0191 -1.1415
 5146TIP3    H236930   2.881   3.759   1.086 -1.2362 -0.4077 -1.0165
 5147TIP3   OH236931   0.635   0.577   0.615 -0.6345  0.2388  0.1221
 5147TIP3    H136932   0.540   0.581   0.619 -0.6234  0.7849 -0.1182
 5147TIP3    H236933   0.654   0.494   0.570 -0.9412 -1.1100  2.3088
 5148TIP3   OH236934   2.839   6.053   5.244 -0.3244  0.2520 -0.5583
 5148TIP3    H136935   2.791   6.100   5.312 -0.7752  0.3500 -0.9450
 5148TIP3    H236936   2.790   5.972   5.231  1.4036 -1.2238  1.3736
 5149TIP3   OH236937   0.832   4.495   3.756 -0.2738 -0.2624 -0.5532
 5149TIP3    H136938   0.774   4.437   3.804 -0.8912 -0.5906 -1.6618
 5149TIP3    H236939   0.774   4.548   3.701  0.2839  1.3661  0.3668
 5150TIP3   OH236940   6.390   0.418  13.075 -0.7475 -0.6301 -0.0120
 5150TIP3    H136941   6.472   0.445  13.033  0.1660  0.3860  2.2813
 5150TIP3    H236942   6.363   0.340  13.026  0.8870 -0.2384 -1.6436
 5151TIP3   OH236943   4.416   0.330   4.448 -0.2655  0.5358  0.0935
 5151TIP3    H136944   4.465   0.400   4.404 -0.0407 -0.6585 -1.6668
 5151TIP3    H236945   4.476   0.256   4.451 -2.0693 -1.2974 -3.0363
 5152TIP3   OH236946   3.880   2.966   3.749 -0.2457  0.0636  0.3625
 5152TIP3    H136947   3.805   2.967   3.689  1.0815 -1.0837 -1.4491
 5152TIP3    H236948   3.853   2.910   3.821 -0.6776 -1.5000 -0.9546
 5153TIP3   OH236949   3.692   3.414   0.623  0.3027 -0.5997  0.5456
 5153TIP3    H136950   3.621   3.446   0.680 -0.8836  0.3636 -1.3817
 5153TIP3    H236951   3.657   3.334   0.584  0.5074 -0.4364  0.0264
 5154TIP3   OH236952   5.991   2.015   3.553 -0.1435  0.0042  0.0303
 5154TIP3    H136953   6.020   2.073   3.624 -0.4023 -0.2267  0.3280
 5154TIP3    H236954   6.061   1.950   3.545  0.4175  0.6903 -0.6928
 5155TIP3   OH236955   6.462   6.729  14.962 -0.3394  0.0950 -0.3112
 5155TIP3    H136956   6.433   6.766  14.879 -0.6513 -2.0068 -1.1889
 5155TIP3    H236957   6.467   6.805  15.021 -1.9888  1.3523 -1.6872
 5156TIP3   OH236958   2.294   5.960   4.104  0.2986 -0.3799  0.4301
 5156TIP3    H136959   2.294   6.049   4.070  0.8379  0.2878  2.0656
 5156TIP3    H236960   2.301   5.904   4.026  1.1228  1.0299 -0.5535
 5157TIP3   OH236961   0.352   4.648  11.386  0.7747 -0.0014 -0.6986
 5157TIP3    H136962   0.277   4.652  11.445  0.7707 -0.5279 -0.6704
 5157TIP3    H236963   0.322   4.595  11.312  1.7494 -1.9827  0.2552
 5158TIP3   OH236964   3.849   2.355   0.010  0.3885 -0.2180  0.5498
 5158TIP3    H136965   3.907   2.382   0.081  1.4789  1.5594 -0.9292
 5158TIP3    H236966   3.853   2.260   0.011  2.1311 -0.1822  1.4839
 5159TIP3   OH236967   4.232   2.571  17.175 -0.0685 -0.0175 -0.0898
 5159TIP3    H136968   4.218   2.554  17.268  0.5769 -1.2127 -0.1937
 5159TIP3    H236969   4.145   2.564  17.136 -0.0625 -1.6285  0.1232
 5160TIP3   OH236970   2.424   6.548   1.953 -0.1140  0.2717  0.4322
 5160TIP3    H136971   2.385   6.464   1.930  0.5894  0.0523  0.0222
 5160TIP3    H236972   2.350   6.608   1.957 -0.4156  0.0983 -1.3944
 5161TIP3   OH236973   4.974   3.193   4.382 -0.4442 -0.1645  0.5027
 5161TIP3    H136974   4.881   3.174   4.369 -0.1035 -1.3265 -0.3866
 5161TIP3    H236975   4.975   3.268   4.442 -1.9782  0.8511 -0.6673
 5162TIP3   OH236976   3.767   2.262  12.177  0.0000 -0.0084  0.6976
 5162TIP3    H136977   3.762   2.357  12.169 -1.9956  0.0335  1.7435
 5162TIP3    H236978   3.737   2.243  12.266 -1.7083 -1.6977 -0.1522
 5163TIP3   OH236979   5.632   3.506  16.155 -0.3599  0.3536  0.0773
 5163TIP3    H136980   5.646   3.411  16.153 -1.6365  0.1252  0.9428
 5163TIP3    H236981   5.717   3.543  16.134  0.0828 -0.9897 -0.6208
 5164TIP3   OH236982   6.738   4.038  12.455  0.8432 -0.0569  0.5242
 5164TIP3    H136983   6.652   4.021  12.494  1.4175  1.7346  2.7955
 5164TIP3    H236984   6.779   3.952  12.449 -1.2789 -1.0539 -1.2502
 5165TIP3   OH236985   3.535   3.965   0.187  0.1446  0.9783 -0.4804
 5165TIP3    H136986   3.522   4.008   0.103 -0.0863  2.3055  0.2059
 5165TIP3    H236987   3.582   4.029   0.240  4.0172 -1.2954 -0.8140
 5166TIP3   OH236988   6.399   5.313   0.537  0.2877  0.0728 -0.2680
 5166TIP3    H136989   6.384   5.257   0.612  2.9547 -0.8755 -0.3242
 5166TIP3    H236990   6.314   5.319   0.493 -0.3501 -3.0655  0.3255
 5167TIP3   OH236991   4.664   3.618  14.700  0.0063  0.4831 -0.3733
 5167TIP3    H136992   4.691   3.710  14.706  0.3740  0.3541 -0.0353
 5167TIP3    H236993   4.581   3.615  14.748 -0.4421  0.8069 -1.1103
 5168TIP3   OH236994   1.899   0.781   0.940  0.1822 -0.0316 -0.0131
 5168TIP3    H136995   1.819   0.738   0.909  0.1457  0.8073 -1.1417
 5168TIP3    H236996   1.871   0.830   1.018 -0.6865  1.1315 -1.0065
 5169TIP3   OH236997   6.367   1.348  15.816  0.1020 -0.1367 -0.5631
 5169TIP3    H136998   6.395   1.427  15.862  0.5709  0.0883 -1.2101
 5169TIP3    H236999   6.362   1.280  15.883  0.8315  0.1716 -0.1931
 5170TIP3   OH237000   1.100   5.596   5.994  0.0383 -0.0843  0.1606
 5170TIP3    H137001   1.020   5.642   6.017 -0.0585  1.1507 -2.3279
 5170TIP3    H237002   1.108   5.527   6.061 -2.5788  0.3095  1.0010
 5171TIP3   OH237003   3.816   2.232  10.673 -0.0859  0.0716  0.1262
 5171TIP3    H137004   3.733   2.191  10.696 -0.9232  0.6706 -1.6435
 5171TIP3    H237005   3.868   2.160  10.635  0.2644 -0.3263  1.3324
 5172TIP3   OH237006   1.614   0.415  12.994  0.2749  0.1552 -0.4719
 5172TIP3    H137007   1.564   0.494  12.974 -0.7699 -0.5276 -0.6257
 5172TIP3    H237008   1.669   0.440  13.068 -1.2776  0.5795  0.6089
 5173TIP3   OH237009   6.295   3.423   2.897  0.1840  0.4734  0.0675
 5173TIP3    H137010   6.222   3.429   2.836 -0.0880  2.2635  0.5120
 5173TIP3    H237011   6.373   3.430   2.843 -0.0056  0.1535 -0.2490
 5174TIP3   OH237012   5.507   2.752  13.623  0.7237  0.5305 -0.0977
 5174TIP3    H137013   5.595   2.789  13.631  0.7541  0.2253  1.1806
 5174TIP3    H237014   5.481   2.731  13.713 -1.0216  1.4435 -0.3310
 5175TIP3   OH237015   5.669   5.648  15.176  0.4107 -0.0938 -0.0311
 5175TIP3    H137016   5.761   5.633  15.152 -0.0504  0.2693 -2.3265
 5175TIP3    H237017   5.644   5.724  15.123 -1.1579 -0.0361  0.7518
 5176TIP3   OH237018   5.678   3.829  16.429  0.4590 -0.2269 -0.6237
 5176TIP3    H137019   5.599   3.775  16.425  0.2680  0.1200 -1.6619
 5176TIP3    H237020   5.746   3.769  16.457 -0.2143 -0.4682  0.5851
 5177TIP3   OH237021   4.673   0.317  13.587 -0.3088 -0.6065 -0.2712
 5177TIP3    H137022   4.601   0.332  13.649 -0.8741 -1.4524 -0.7145
 5177TIP3    H237023   4.747   0.364  13.626 -0.5707 -1.3441  1.1955
 5178TIP3   OH237024   3.782   2.970  11.840  0.0992 -0.6355  0.3061
 5178TIP3    H137025   3.687   2.964  11.852 -0.3560  1.3383 -1.6779
 5178TIP3    H237026   3.814   3.005  11.924 -0.8459 -1.6505  1.1207
 5179TIP3   OH237027   1.802   3.970  11.996  0.1094  0.1229 -0.1394
 5179TIP3    H137028   1.726   3.912  11.995 -0.5797  1.0067 -0.7901
 5179TIP3    H237029   1.811   3.998  12.088  0.5816 -1.1512  0.2192
 5180TIP3   OH237030   3.854   0.095  14.363 -0.4263  0.2633 -0.1116
 5180TIP3    H137031   3.924   0.159  14.372 -0.5442  0.4613 -0.5888
 5180TIP3    H237032   3.844   0.083  14.269 -2.0755  1.3813 -0.1300
 5181TIP3   OH237033   1.807   3.950   4.429  0.0444 -0.4764 -0.1219
 5181TIP3    H137034   1.749   3.876   4.413  0.7996 -0.8654 -1.2083
 5181TIP3    H237035   1.859   3.958   4.349  0.0643  1.1651  0.0049
 5182TIP3   OH237036   4.157   1.155   3.613 -0.0294  0.5455 -0.2673
 5182TIP3    H137037   4.157   1.241   3.657  1.5479 -0.4174  1.7669
 5182TIP3    H237038   4.136   1.175   3.522  0.0341  3.0650  0.1976
 5183TIP3   OH237039   0.157   0.021   2.679 -0.3785 -0.1971  0.3099
 5183TIP3    H137040   0.227   0.032   2.615  0.2290 -1.8636  0.6441
 5183TIP3    H237041   0.106  -0.053   2.648 -1.4006  0.3623  0.6089
 5184TIP3   OH237042   6.772   6.113  14.522  0.0245  0.0555  0.3421
 5184TIP3    H137043   6.860   6.078  14.513 -0.1300 -0.5821  1.2299
 5184TIP3    H237044   6.731   6.099  14.436  0.9991  0.9979 -0.2944
 5185TIP3   OH237045   2.349   2.065  15.957  0.1042 -0.3923  0.6699
 5185TIP3    H137046   2.279   2.125  15.932  0.3000 -0.2901  0.3596
 5185TIP3    H237047   2.305   1.981  15.969  0.1731 -0.7512 -1.2830
 5186TIP3   OH237048   6.111   4.167   0.197 -0.2162 -0.0653  0.5240
 5186TIP3    H137049   6.116   4.198   0.107  2.0176  0.7169  0.8570
 5186TIP3    H237050   6.164   4.230   0.247 -0.7599 -0.9146  2.2521
 5187TIP3   OH237051   4.219   4.102   6.313  0.1007 -0.1338 -0.0597
 5187TIP3    H137052   4.246   4.193   6.301 -0.9010  0.4162  1.5203
 5187TIP3    H237053   4.134   4.108   6.355 -0.5521 -1.8241 -1.0546
 5188TIP3   OH237054   6.688   4.879  15.352 -0.3461  0.2697  0.1662
 5188TIP3    H137055   6.646   4.963  15.335 -0.3344  0.6237  1.7339
 5188TIP3    H237056   6.645   4.818  15.292 -1.9258  0.9595  0.5369
 5189TIP3   OH237057   3.676   0.515  16.681  0.7575  0.2360 -0.9575
 5189TIP3    H137058   3.598   0.571  16.676  0.5561  0.0356 -0.1846
 5189TIP3    H237059   3.680   0.471  16.596 -0.5509 -0.5176 -0.6450
 5190TIP3   OH237060   0.835   0.676   3.744  0.6908  0.4110 -0.0994
 5190TIP3    H137061   0.885   0.757   3.734  0.3903  0.8644  1.6926
 5190TIP3    H237062   0.894   0.618   3.793  0.7464 -0.3152 -1.0064
 5191TIP3   OH237063   6.162   0.134   0.303  0.2790  0.1684 -0.8477
 5191TIP3    H137064   6.191   0.046   0.328  0.6530  0.5966  0.2732
 5191TIP3    H237065   6.086   0.119   0.247  0.2028 -0.8631 -0.4912
 5192TIP3   OH237066   2.306   4.306  16.007 -0.7686 -0.0519 -0.0467
 5192TIP3    H137067   2.368   4.292  15.936  0.7174  0.0508  1.1915
 5192TIP3    H237068   2.311   4.226  16.060 -1.3445  0.1505  0.3234
 5193TIP3   OH237069   2.271   2.035  14.029 -0.0463  0.0878 -0.3011
 5193TIP3    H137070   2.309   2.113  14.069  0.3643  0.3406 -1.1614
 5193TIP3    H237071   2.345   1.976  14.015 -0.1286  0.1412 -0.9985
 5194TIP3   OH237072   5.412   5.069  14.970 -0.4077 -0.1123  0.9934
 5194TIP3    H137073   5.402   5.041  14.879  0.8731  2.4872 -0.0681
 5194TIP3    H237074   5.381   5.160  14.971  0.8808  0.3710  2.8123
 5195TIP3   OH237075   5.711   4.872   4.025  0.3114  0.3588  0.3602
 5195TIP3    H137076   5.753   4.952   3.994  0.3921  0.5998  1.0883
 5195TIP3    H237077   5.763   4.845   4.100 -0.2523  0.1197  0.6704
 5196TIP3   OH237078   4.500   6.172   3.217 -0.1759 -0.3692  0.1867
 5196TIP3    H137079   4.553   6.160   3.296 -0.4834  1.7938  0.7849
 5196TIP3    H237080   4.550   6.232   3.163 -0.7692 -0.4810 -0.5052
 5197TIP3   OH237081   6.360   0.739  16.885 -0.3972 -0.3483  0.1477
 5197TIP3    H137082   6.302   0.690  16.943 -1.4194  1.2209  0.5093
 5197TIP3    H237083   6.448   0.722  16.919 -0.8420 -0.8631  1.0600
 5198TIP3   OH237084   4.158   5.944   5.652  0.1392  0.2570 -0.2217
 5198TIP3    H137085   4.072   5.902   5.644  1.2482 -2.5643  1.3201
 5198TIP3    H237086   4.153   5.991   5.736  0.2517 -0.3792  0.1499
 5199TIP3   OH237087   0.175   5.320   4.455  0.3785 -0.0681 -0.2247
 5199TIP3    H137088   0.252   5.377   4.448  1.0611 -0.9673 -0.2439
 5199TIP3    H237089   0.205   5.235   4.423 -1.5419  0.3286 -3.5898
 5200TIP3   OH237090   3.940   0.001   2.907  0.1666  0.2321  0.9178
 5200TIP3    H137091   4.007  -0.062   2.935  0.2258 -0.5556 -0.8567
 5200TIP3    H237092   3.857  -0.039   2.934  0.3179  0.5853  1.9546
 5201TIP3   OH237093   0.203   2.426   1.588 -0.3114  0.8501 -0.1464
 5201TIP3    H137094   0.141   2.394   1.653 -1.6017 -1.2947 -2.2997
 5201TIP3    H237095   0.271   2.359   1.584 -0.3964  0.8138 -1.1924
 5202TIP3   OH237096   6.365   2.680   5.896  0.1881 -0.2880  0.4537
 5202TIP3    H137097   6.437   2.641   5.847  0.8608 -0.9095  1.8880
 5202TIP3    H237098   6.361   2.630   5.977 -0.6807  0.9236  1.1893
 5203TIP3   OH237099   5.754   2.388  14.320  0.6472 -0.3667 -0.6524
 5203TIP3    H137100   5.732   2.322  14.255 -1.0041 -0.7318  0.2158
 5203TIP3    H237101   5.730   2.349  14.404  0.8088  0.8601 -0.0011
 5204TIP3   OH237102   2.243   4.386   1.132  0.1710  0.0558  0.3506
 5204TIP3    H137103   2.227   4.391   1.227  0.3599  1.7190  0.3289
 5204TIP3    H237104   2.312   4.321   1.123  0.0857 -0.2002  1.3566
 5205TIP3   OH237105   5.304   2.843   5.827 -0.1332  0.1252  0.2410
 5205TIP3    H137106   5.231   2.897   5.796 -1.0807 -0.9297  0.5449
 5205TIP3    H237107   5.278   2.754   5.806  1.4407 -0.2274 -0.3216
 5206TIP3   OH237108   5.343   5.689  17.196  0.7245 -0.3689  0.0873
 5206TIP3    H137109   5.316   5.732  17.278 -1.9515 -1.0129 -0.3412
 5206TIP3    H237110   5.298   5.738  17.128  0.2388 -1.8220 -0.6876
 5207TIP3   OH237111   1.380   6.399   5.336 -0.3712 -0.0291 -1.0899
 5207TIP3    H137112   1.410   6.312   5.307  0.1428  0.2277 -1.3314
 5207TIP3    H237113   1.402   6.457   5.263  0.1426  0.4724 -0.5424
 5208TIP3   OH237114   2.537   4.908   2.388 -0.1368 -0.0836 -0.3007
 5208TIP3    H137115   2.546   4.913   2.293 -0.9222 -2.1040 -0.5321
 5208TIP3    H237116   2.523   4.815   2.406  1.4715  0.0263  1.9406
 5209TIP3   OH237117   0.361   5.538   6.589 -0.0784  0.5303  0.0296
 5209TIP3    H137118   0.381   5.611   6.647  0.7074  2.4760 -2.5083
 5209TIP3    H237119   0.446   5.501   6.566 -0.4963 -1.7833  1.8721
 5210TIP3   OH237120   5.170   1.852   1.855  0.9265 -0.2397  0.3438
 5210TIP3    H137121   5.156   1.813   1.769  0.5411  0.4972  0.0595
 5210TIP3    H237122   5.130   1.939   1.849 -0.2024 -0.6291  1.6514
 5211TIP3   OH237123   5.448   0.292   4.176 -0.2172 -0.1618  0.4616
 5211TIP3    H137124   5.371   0.350   4.179 -1.2182 -1.3781 -0.4765
 5211TIP3    H237125   5.468   0.285   4.083  0.8660 -0.1161  0.6779
 5212TIP3   OH237126   1.937   0.065   1.855 -0.7652 -0.6886 -0.2516
 5212TIP3    H137127   1.880   0.057   1.932 -0.1282 -0.7471  0.2154
 5212TIP3    H237128   1.891   0.015   1.787 -1.0410 -1.1361  0.2533
 5213TIP3   OH237129   1.846   2.863  16.651 -0.4989  0.0517 -0.4218
 5213TIP3    H137130   1.884   2.816  16.576  1.8305  0.5807  0.3172
 5213TIP3    H237131   1.826   2.950  16.617  0.3065  0.2083 -0.5292
 5214TIP3   OH237132   0.650   4.252  15.749 -0.2624 -0.3296  0.3625
 5214TIP3    H137133   0.694   4.220  15.671 -3.1733 -2.5817 -0.5332
 5214TIP3    H237134   0.676   4.191  15.818 -2.2068 -2.0440 -0.3032
 5215TIP3   OH237135   3.506   6.107  16.874 -0.5118  0.6502 -0.2865
 5215TIP3    H137136   3.567   6.129  16.804  1.0636  0.1046  0.8395
 5215TIP3    H237137   3.479   6.192  16.909 -0.4642  0.9016 -0.8513
 5216TIP3   OH237138   0.713   2.261  16.469 -0.6364  0.0787  0.3844
 5216TIP3    H137139   0.783   2.198  16.453 -0.7322  0.2329 -0.7101
 5216TIP3    H237140   0.758   2.346  16.469 -0.7836  0.1579 -0.0685
 5217TIP3   OH237141   6.806   1.928  13.650  0.1097  0.0219  0.1834
 5217TIP3    H137142   6.775   1.845  13.612 -0.9650  1.0049 -1.2044
 5217TIP3    H237143   6.822   1.908  13.742 -1.6650 -1.3461  0.2439
 5218TIP3   OH237144   2.271   4.718   4.178 -0.3852  0.2656 -0.1424
 5218TIP3    H137145   2.264   4.804   4.219 -2.6947  0.1634 -0.1546
 5218TIP3    H237146   2.226   4.659   4.239  1.6030 -1.0600  0.1212
 5219TIP3   OH237147   6.468   6.509   2.670 -0.4552  0.2813  0.0979
 5219TIP3    H137148   6.522   6.554   2.605  0.0612 -1.2874 -0.6243
 5219TIP3    H237149   6.382   6.500   2.627 -0.7787  1.1913  0.5326
 5220TIP3   OH237150   5.647   4.544   6.077 -0.2877  0.5174  0.0815
 5220TIP3    H137151   5.636   4.538   6.172 -0.7403  2.0747  0.1568
 5220TIP3    H237152   5.679   4.633   6.062 -0.9657  0.5562 -1.2809
 5221TIP3   OH237153   4.582   6.408   1.272 -0.0158 -0.0572 -0.5431
 5221TIP3    H137154   4.674   6.403   1.244  0.1909  0.1397  0.0748
 5221TIP3    H237155   4.545   6.323   1.249  0.3752 -0.2066 -0.6281
 5222TIP3   OH237156   6.445   2.869  16.571 -0.0110  0.1093 -0.2497
 5222TIP3    H137157   6.459   2.937  16.637  3.5711  0.8536 -1.5460
 5222TIP3    H237158   6.436   2.916  16.489 -1.0199 -0.9020 -0.7488
 5223TIP3   OH237159   6.110   3.090   2.139 -0.0856 -0.0784  0.0139
 5223TIP3    H137160   6.122   3.185   2.132  0.3627 -0.0961  0.5011
 5223TIP3    H237161   6.198   3.055   2.151 -0.2220 -0.5857 -0.3943
 5224TIP3   OH237162   6.292   3.522  16.748  0.0380  0.0348 -0.6243
 5224TIP3    H137163   6.349   3.449  16.724  0.0072  0.5680 -2.4541
 5224TIP3    H237164   6.341   3.600  16.723 -1.4351  0.5083 -2.1759
 5225TIP3   OH237165   6.368   3.437   0.946 -0.6872 -0.4369 -0.1796
 5225TIP3    H137166   6.461   3.419   0.959 -0.7067 -0.6213 -0.2731
 5225TIP3    H237167   6.365   3.498   0.872 -0.6694 -0.9729 -0.6309
 5226TIP3   OH237168   4.167   4.626  16.865  0.1820  0.3849  0.0655
 5226TIP3    H137169   4.101   4.590  16.925  0.3767  1.8502  1.2259
 5226TIP3    H237170   4.204   4.549  16.821  0.8250 -0.8997  2.6478
 5227TIP3   OH237171   4.297   2.774  13.601  0.6354 -0.2692  0.4756
 5227TIP3    H137172   4.368   2.715  13.576 -0.3646 -0.9476 -0.8615
 5227TIP3    H237173   4.282   2.828  13.524  0.5907  0.7959  1.2134
 5228TIP3   OH237174   6.114   5.106   2.126  0.5792 -0.3226  0.1146
 5228TIP3    H137175   6.078   5.156   2.200  1.0489 -1.3469  1.0684
 5228TIP3    H237176   6.173   5.167   2.083 -0.0090  0.4249  0.3383
 5229TIP3   OH237177   1.461   2.160  13.026  0.3551  0.6034  0.2323
 5229TIP3    H137178   1.389   2.129  13.081  0.6952 -0.1160  0.2776
 5229TIP3    H237179   1.516   2.083  13.011  1.2703  1.1910  0.4273
 5230TIP3   OH237180   2.776   5.987   5.682  0.1836 -0.0945  0.0872
 5230TIP3    H137181   2.744   5.903   5.648 -0.0886  0.6521 -1.5502
 5230TIP3    H237182   2.760   6.050   5.612 -0.0124  1.4434  1.4509
 5231TIP3   OH237183   0.690   2.443  15.728  0.1157  0.0805 -0.3408
 5231TIP3    H137184   0.686   2.506  15.800 -1.2224  0.8836 -1.0661
 5231TIP3    H237185   0.601   2.442  15.693  0.2530 -1.7785 -0.7433
 5232TIP3   OH237186   2.544   1.647  16.312 -0.0774 -0.2418 -0.1193
 5232TIP3    H137187   2.571   1.557  16.329 -2.3741 -0.7142  1.3878
 5232TIP3    H237188   2.451   1.641  16.292 -0.5529  1.8845  1.1766
 5233TIP3   OH237189   2.949   3.149  12.379 -0.3192 -1.1048 -0.5429
 5233TIP3    H137190   3.009   3.078  12.358 -0.3165 -1.5811  1.0256
 5233TIP3    H237191   2.872   3.132  12.324  1.0687 -0.2163 -2.9589
 5234TIP3   OH237192   2.073   3.838  14.521 -0.1606  0.3712 -0.6096
 5234TIP3    H137193   2.071   3.933  14.510  0.8668  0.5790  0.6158
 5234TIP3    H237194   2.146   3.823  14.582 -1.5156 -1.0349  0.7708
 5235TIP3   OH237195   6.082   6.332  15.073 -0.7243  0.4228 -0.2860
 5235TIP3    H137196   6.064   6.239  15.064  1.4592  0.1201 -2.8868
 5235TIP3    H237197   6.175   6.337  15.094 -0.8490  2.0232  0.0348
 5236TIP3   OH237198   2.082   2.153   3.122  0.1847  0.1388 -0.7634
 5236TIP3    H137199   2.032   2.206   3.184 -1.2406 -0.7810 -1.0782
 5236TIP3    H237200   2.112   2.215   3.055 -1.2396  0.6037 -0.9907
 5237TIP3   OH237201   6.272   6.720   3.345 -0.9081 -0.1241 -0.6322
 5237TIP3    H137202   6.306   6.801   3.384 -1.2017  1.3705 -3.2405
 5237TIP3    H237203   6.350   6.673   3.316 -0.7075 -1.0975  1.2777
 5238TIP3   OH237204   0.348   2.291  12.703  0.1294  0.1571 -0.6132
 5238TIP3    H137205   0.273   2.267  12.649  1.8651 -0.9738 -2.6813
 5238TIP3    H237206   0.413   2.324  12.641  2.0006 -0.5840  0.8519
 5239TIP3   OH237207   2.921   2.597  12.660  0.1820 -0.2553  0.2491
 5239TIP3    H137208   2.832   2.581  12.628 -0.2868  2.0698  0.2443
 5239TIP3    H237209   2.977   2.551  12.597 -0.9336  0.1980 -1.1254
 5240TIP3   OH237210   2.599   0.087  16.332 -0.2239 -0.0691 -0.2182
 5240TIP3    H137211   2.560   0.101  16.246  0.0502  0.6026 -0.2312
 5240TIP3    H237212   2.622   0.174  16.363 -3.2759  0.1240  1.9512
 5241TIP3   OH237213   0.705   0.197  12.222 -1.1807 -0.3332 -0.1874
 5241TIP3    H137214   0.705   0.231  12.311 -0.9059 -0.7137 -0.0377
 5241TIP3    H237215   0.757   0.260  12.172 -1.1166 -0.2551 -0.0232
 5242TIP3   OH237216   1.166   5.156   2.429  0.1695 -0.4733 -0.0247
 5242TIP3    H137217   1.082   5.182   2.389 -0.9411 -1.7779  1.3531
 5242TIP3    H237218   1.148   5.071   2.468  1.8253 -0.2377  1.3311
 5243TIP3   OH237219   5.424   0.648   3.152  0.3861 -0.2831  0.1814
 5243TIP3    H137220   5.470   0.663   3.070  0.4521  1.3442  0.4996
 5243TIP3    H237221   5.331   0.663   3.131  0.5512  1.7155  0.7271
 5244TIP3   OH237222   6.490   4.336   0.130  0.2678  0.1868 -0.1431
 5244TIP3    H137223   6.525   4.261   0.178 -0.9694 -1.6541 -1.9505
 5244TIP3    H237224   6.536   4.412   0.166  0.6370 -1.2626  2.6622
 5245TIP3   OH237225   6.691   5.378  12.087  0.2141  0.5820  0.1299
 5245TIP3    H137226   6.785   5.375  12.068  0.1097 -0.8275 -0.3098
 5245TIP3    H237227   6.651   5.405  12.004  0.2312  1.2159  0.3271
 5246TIP3   OH237228   5.206   4.189   1.888  0.0446  0.3037 -1.0159
 5246TIP3    H137229   5.263   4.240   1.831  0.5641  3.8436  2.2769
 5246TIP3    H237230   5.258   4.175   1.967 -1.5462 -1.9830 -0.2796
 5247TIP3   OH237231   2.287   1.832  14.861 -0.0511  0.0505 -0.0562
 5247TIP3    H137232   2.232   1.893  14.909  1.6228  0.8025  0.9766
 5247TIP3    H237233   2.340   1.788  14.928 -0.2033 -1.5116 -0.8998
 5248TIP3   OH237234   3.508   2.430  12.283 -0.0207  0.3363  0.7687
 5248TIP3    H137235   3.577   2.387  12.232 -0.5931  0.8497 -0.4567
 5248TIP3    H237236   3.491   2.512  12.237 -0.5683  0.8165  1.7834
 5249TIP3   OH237237   5.867   0.661   4.479  0.1321 -0.6485 -0.1584
 5249TIP3    H137238   5.850   0.706   4.397 -0.4443 -0.3543  0.1173
 5249TIP3    H237239   5.901   0.729   4.537 -0.7329 -0.5538  0.2585
 5250TIP3   OH237240   4.051   2.692   5.426  0.1325 -0.0839 -0.4491
 5250TIP3    H137241   4.054   2.725   5.336 -4.2473 -0.2938 -0.8738
 5250TIP3    H237242   4.043   2.597   5.416  1.0505 -0.2522  0.2896
 5251TIP3   OH237243   4.184   3.156   5.165 -0.1832 -0.3746 -0.0542
 5251TIP3    H137244   4.148   3.132   5.080  0.9685 -2.6734  0.0168
 5251TIP3    H237245   4.126   3.114   5.229 -2.2367  2.9536  0.5358
 5252TIP3   OH237246   0.600   5.159   6.943  0.4213  0.0340  0.3053
 5252TIP3    H137247   0.550   5.135   6.865 -1.5739  1.2296  1.1361
 5252TIP3    H237248   0.593   5.254   6.948  2.3550  0.1885  0.7823
 5253TIP3   OH237249   4.709   2.794   0.545  0.5531 -0.5573 -0.1244
 5253TIP3    H137250   4.779   2.729   0.541  1.2879  0.0135  2.1705
 5253TIP3    H237251   4.638   2.750   0.591  0.3126 -0.3593 -0.3033
 5254TIP3   OH237252   2.095   5.242  13.394 -0.1084 -0.3019  0.2675
 5254TIP3    H137253   2.098   5.182  13.468 -0.5577 -0.2888  0.2978
 5254TIP3    H237254   2.175   5.295  13.403  0.9646 -1.7217 -0.4815
 5255TIP3   OH237255   2.060   5.816  15.632  0.6804 -0.1887 -0.1788
 5255TIP3    H137256   2.111   5.880  15.583 -2.1804  0.5596 -2.4098
 5255TIP3    H237257   2.086   5.731  15.594  1.8972 -0.0824  0.3556
 5256TIP3   OH237258   2.230   3.609   0.507  0.1862 -0.3825  1.0191
 5256TIP3    H137259   2.289   3.567   0.570  1.7769 -1.0363 -0.7978
 5256TIP3    H237260   2.148   3.560   0.515  0.9804 -1.7384  1.2314
 5257TIP3   OH237261   4.031   3.402  11.914 -0.1683  0.4618 -0.1090
 5257TIP3    H137262   3.945   3.371  11.941 -0.9623  2.4954 -0.1533
 5257TIP3    H237263   4.060   3.459  11.985  0.7410  0.5129 -0.5012
 5258TIP3   OH237264   0.567   2.547  13.772 -0.2664 -0.5025 -0.4032
 5258TIP3    H137265   0.585   2.473  13.714  0.4248 -1.2468  0.7194
 5258TIP3    H237266   0.651   2.592  13.779 -0.7687  0.6248 -1.3713
 5259TIP3   OH237267   5.292   1.220  10.862 -0.1835 -0.2721  0.3116
 5259TIP3    H137268   5.238   1.164  10.917 -0.2251 -1.4807 -0.8921
 5259TIP3    H237269   5.379   1.180  10.865 -0.3822 -0.8773 -1.1471
 5260TIP3   OH237270   0.089   2.803   0.572  0.1244 -0.0508  0.0271
 5260TIP3    H137271   0.071   2.895   0.555  2.2190  0.3518 -0.2071
 5260TIP3    H237272   0.093   2.763   0.485 -1.2828 -0.5146  0.1393
 5261TIP3   OH237273   4.425   5.065  15.801  0.0502  0.4621  0.2701
 5261TIP3    H137274   4.403   5.154  15.827 -0.8009  0.0993  0.8318
 5261TIP3    H237275   4.512   5.072  15.761 -0.0575  1.5551  0.1991
 5262TIP3   OH237276   5.655   2.282  15.132  0.0246 -0.0753  0.1974
 5262TIP3    H137277   5.668   2.287  15.038 -1.5856 -0.3762 -0.0786
 5262TIP3    H237278   5.657   2.373  15.162  2.7637 -0.0998  0.2589
 5263TIP3   OH237279   5.676   5.832  13.869  0.5221  0.0731  0.0661
 5263TIP3    H137280   5.593   5.810  13.913 -0.4856  1.8746 -0.8008
 5263TIP3    H237281   5.681   5.770  13.796  0.0926 -0.2663  0.3181
 5264TIP3   OH237282   5.135   4.123   4.366 -0.3552 -0.2816  0.0396
 5264TIP3    H137283   5.220   4.169   4.369  0.8365 -2.3033 -0.7705
 5264TIP3    H237284   5.157   4.031   4.376 -2.4992 -0.8664 -0.1388
 5265TIP3   OH237285   5.399   5.811  13.484  0.2249  0.3895 -0.3406
 5265TIP3    H137286   5.406   5.891  13.537  2.3786  0.3164 -0.4402
 5265TIP3    H237287   5.354   5.839  13.405  0.4547  1.3922 -0.1398
 5266TIP3   OH237288   4.168   1.048   5.482  0.9294 -0.1143  0.1326
 5266TIP3    H137289   4.211   1.045   5.567  1.0975  1.4934  0.1406
 5266TIP3    H237290   4.220   1.110   5.431  0.7397 -0.9217 -1.0995
 5267TIP3   OH237291   2.393   5.820  17.010  0.1143  0.1519  0.3106
 5267TIP3    H137292   2.399   5.883  17.082  2.1988  0.7292 -0.3105
 5267TIP3    H237293   2.305   5.833  16.975 -0.1674  1.3937  1.3838
 5268TIP3   OH237294   4.958   3.437   1.129 -0.0240 -0.2250 -0.4241
 5268TIP3    H137295   4.896   3.372   1.163 -1.8072  1.9120  0.6244
 5268TIP3    H237296   4.990   3.483   1.207  4.0524 -2.0532 -0.7451
 5269TIP3   OH237297   2.949   2.984   6.259  0.6421 -0.3589 -0.0189
 5269TIP3    H137298   3.010   2.911   6.259  1.9514  0.6939 -0.0364
 5269TIP3    H237299   2.978   3.040   6.332  0.7905  1.0323 -1.1054
 5270TIP3   OH237300   6.085   1.248  12.879  0.1819 -0.0384  0.0643
 5270TIP3    H137301   6.001   1.203  12.885  0.5138 -0.4625  2.3674
 5270TIP3    H237302   6.150   1.183  12.905  1.1509  0.5254 -0.8602
 5271TIP3   OH237303   3.386   3.766  11.853  0.0992 -0.4120  0.1231
 5271TIP3    H137304   3.438   3.764  11.773  0.0124 -1.5848  0.0806
 5271TIP3    H237305   3.364   3.859  11.865  1.7134  0.0479 -0.1609
 5272TIP3   OH237306   3.768   3.069  14.567  0.1339  0.2739  0.0114
 5272TIP3    H137307   3.806   3.123  14.637  0.6294  0.8023 -0.6488
 5272TIP3    H237308   3.805   2.982  14.582 -0.1943  0.2435  0.7245
 5273TIP3   OH237309   5.359   3.351  14.217 -0.3725  0.3077 -1.0866
 5273TIP3    H137310   5.297   3.373  14.147 -1.1686 -0.3382 -0.6069
 5273TIP3    H237311   5.344   3.418  14.284  0.1470  0.7244 -1.3822
 5274TIP3   OH237312   2.923   6.393   1.414 -0.7214 -0.1373  1.2951
 5274TIP3    H137313   2.917   6.322   1.350  0.3769 -1.2087  2.3334
 5274TIP3    H237314   2.832   6.421   1.427 -1.0886 -0.7957  0.2734
 5275TIP3   OH237315   5.888   6.812  11.003 -0.2331  0.1632 -0.1162
 5275TIP3    H137316   5.876   6.833  11.096 -3.8327  2.0267 -0.7997
 5275TIP3    H237317   5.956   6.873  10.973 -0.0409  0.5307  1.0243
 5276TIP3   OH237318   6.451   6.198   5.847  0.3386 -0.4117 -0.3874
 5276TIP3    H137319   6.545   6.205   5.862  0.1628 -1.5726  1.6049
 5276TIP3    H237320   6.434   6.104   5.843 -0.8098 -0.2381 -0.0682
 5277TIP3   OH237321   0.632   3.541   3.869 -0.0190  0.1783  0.3764
 5277TIP3    H137322   0.710   3.574   3.825  0.7555 -0.7393  1.0223
 5277TIP3    H237323   0.588   3.488   3.803  1.3672 -1.5594  0.7719
 5278TIP3   OH237324   5.376   0.577  15.413 -0.2666  0.1859 -0.7332
 5278TIP3    H137325   5.425   0.659  15.406 -0.7260  0.4036 -1.4353
 5278TIP3    H237326   5.444   0.510  15.423  0.1464  0.5579 -1.0081
 5279TIP3   OH237327   5.794   2.658   6.028  0.7449 -0.0439  0.2038
 5279TIP3    H137328   5.803   2.586   6.090  0.8302 -1.2969 -1.2234
 5279TIP3    H237329   5.875   2.657   5.977  0.6207  0.8898 -0.0398
 5280TIP3   OH237330   1.942   2.511  14.051 -0.5993 -0.0870  0.0964
 5280TIP3    H137331   2.032   2.477  14.048 -0.4675  0.2391  0.3502
 5280TIP3    H237332   1.943   2.576  14.121 -1.5485 -1.5333  1.4970
 5281TIP3   OH237333   4.766   2.140  12.633  0.0166  0.1415 -0.1935
 5281TIP3    H137334   4.840   2.154  12.692 -0.4804 -0.8712  0.6872
 5281TIP3    H237335   4.703   2.091  12.684 -1.9022  2.1679 -0.4457
 5282TIP3   OH237336   1.619   1.207   4.112  0.0372 -0.2179  0.3794
 5282TIP3    H137337   1.615   1.196   4.207  2.2464  0.1364  0.5657
 5282TIP3    H237338   1.712   1.216   4.093 -0.1531 -2.4073 -2.0881
 5283TIP3   OH237339   6.415   0.337   4.897 -0.4908 -0.0839  0.6112
 5283TIP3    H137340   6.320   0.342   4.909 -0.5448  2.1059 -0.2902
 5283TIP3    H237341   6.449   0.415   4.940  0.7541 -0.1172 -0.2611
 5284TIP3   OH237342   3.730   1.227  12.451  0.1212 -0.1269  0.1083
 5284TIP3    H137343   3.650   1.189  12.415 -0.4010  0.8872  0.1776
 5284TIP3    H237344   3.725   1.211  12.545 -0.6668  1.1152  0.2941
 5285TIP3   OH237345   5.345   2.867  16.192  0.0490  0.5498  0.2389
 5285TIP3    H137346   5.328   2.886  16.285  1.8760  0.9342  0.5378
 5285TIP3    H237347   5.437   2.890  16.180 -0.4713  1.6833 -1.9859
 5286TIP3   OH237348   5.044   3.318   3.892  0.6190 -0.4027  0.1598
 5286TIP3    H137349   5.123   3.265   3.902  1.1887  0.7788  2.8120
 5286TIP3    H237350   4.984   3.285   3.959 -0.6833 -0.4209 -0.9566
 5287TIP3   OH237351   1.012   1.522  10.883  0.0094  0.8644  0.9746
 5287TIP3    H137352   0.937   1.477  10.844 -1.5535  2.1934  2.2355
 5287TIP3    H237353   1.055   1.456  10.937  0.2833 -0.1439 -0.4436
 5288TIP3   OH237354   5.439   1.734   5.385 -0.2556  0.1978  0.3175
 5288TIP3    H137355   5.404   1.776   5.464 -0.3066 -2.3122  1.7379
 5288TIP3    H237356   5.534   1.744   5.392 -0.2182 -0.5824  1.0712
 5289TIP3   OH237357   4.298   2.461   1.001  0.7686 -0.2139 -0.2707
 5289TIP3    H137358   4.387   2.429   0.989 -0.1855 -2.9447 -0.7995
 5289TIP3    H237359   4.282   2.517   0.925  2.1014  0.5671 -0.0054
 5290TIP3   OH237360   2.379   1.169   1.891  0.0999 -0.4066 -0.1598
 5290TIP3    H137361   2.296   1.129   1.917 -0.2314 -0.3372 -1.0897
 5290TIP3    H237362   2.440   1.095   1.881 -0.4892 -0.7054 -1.8037
 5291TIP3   OH237363   4.062   3.377   3.227 -0.3706  0.1608  0.1986
 5291TIP3    H137364   4.114   3.406   3.302  0.3319  0.4851 -0.4111
 5291TIP3    H237365   3.971   3.386   3.256 -0.1201  1.1582  0.6900
 5292TIP3   OH237366   2.713   2.362   5.489  0.3195  0.0008  0.4429
 5292TIP3    H137367   2.702   2.309   5.568 -0.1388  0.7359  0.8908
 5292TIP3    H237368   2.765   2.437   5.518  0.3740  0.1464 -0.0197
 5293TIP3   OH237369   3.666   2.606   4.828 -0.0411  0.6689  0.3225
 5293TIP3    H137370   3.657   2.696   4.797  2.8923  0.7079 -0.6777
 5293TIP3    H237371   3.734   2.610   4.895 -0.3575 -0.7488  0.7658
 5294TIP3   OH237372   0.437   5.882   5.460  0.3305 -0.1929  0.2151
 5294TIP3    H137373   0.481   5.855   5.541  0.0103 -0.7278  0.2123
 5294TIP3    H237374   0.422   5.801   5.412 -0.1708  0.0427 -0.0390
 5295TIP3   OH237375   2.264   0.898  16.790 -0.3415  0.3973  0.5518
 5295TIP3    H137376   2.188   0.846  16.763 -0.5666  0.3896  1.1817
 5295TIP3    H237377   2.263   0.974  16.732  1.3427 -1.3617 -2.0069
 5296TIP3   OH237378   2.155   2.507  10.961  0.4676  0.8759  0.3447
 5296TIP3    H137379   2.145   2.548  10.874  1.7200  0.2668 -0.1041
 5296TIP3    H237380   2.094   2.434  10.960 -0.8292  1.9074  0.6665
 5297TIP3   OH237381   6.612   5.364  11.797  0.0107  0.7472  0.0819
 5297TIP3    H137382   6.607   5.277  11.757  0.6181  0.0040  1.5758
 5297TIP3    H237383   6.661   5.416  11.733  0.9290 -0.4056 -0.1943
 5298TIP3   OH237384   1.946   0.500  10.602 -0.1683  0.1189  0.1805
 5298TIP3    H137385   1.924   0.562  10.533 -1.0459  0.1734  0.4944
 5298TIP3    H237386   1.861   0.472  10.637  0.2543  0.7891  1.8394
 5299TIP3   OH237387   5.376   4.520   0.805 -0.4322  0.0409  0.2493
 5299TIP3    H137388   5.469   4.544   0.803 -0.5692  0.5621 -0.1694
 5299TIP3    H237389   5.335   4.590   0.856 -0.7250  0.2993 -0.3331
 5300TIP3   OH237390   0.845   1.166  14.412  0.4630  0.1434  0.0902
 5300TIP3    H137391   0.940   1.171  14.411  0.4260  0.8209 -1.3443
 5300TIP3    H237392   0.825   1.081  14.372  0.4512  0.3218 -0.2853
 5301TIP3   OH237393   0.089   5.586  12.542 -0.1180 -0.1995 -0.3430
 5301TIP3    H137394   0.018   5.555  12.598 -1.7796  2.6215 -0.7057
 5301TIP3    H237395   0.071   5.548  12.457  1.2199 -2.7682  0.4017
 5302TIP3   OH237396   5.362   0.915  12.476  0.5111 -1.2079 -0.1258
 5302TIP3    H137397   5.450   0.924  12.512 -0.1088 -0.9372  1.4185
 5302TIP3    H237398   5.304   0.930  12.551 -0.8460 -1.7343 -1.0292
 5303TIP3   OH237399   4.966   3.539   1.380 -0.1461 -0.3834 -0.1970
 5303TIP3    H137400   4.974   3.502   1.468  0.6724 -1.7820 -0.8230
 5303TIP3    H237401   4.872   3.543   1.364 -0.2832 -0.7515  0.4950
 5304TIP3   OH237402   1.997   0.300  11.629 -0.1035 -0.1106 -0.0083
 5304TIP3    H137403   2.033   0.389  11.623 -1.6729  0.6818  1.2136
 5304TIP3    H237404   2.050   0.257  11.696  1.2944 -0.4738 -1.2955
 5305TIP3   OH237405   5.602   2.311   4.755 -0.3715  0.0199  0.2083
 5305TIP3    H137406   5.627   2.344   4.669 -1.7211  0.8311  0.1085
 5305TIP3    H237407   5.619   2.384   4.814  0.0694 -0.3634  0.5627
 5306TIP3   OH237408   1.201   1.189   4.607 -0.2364 -0.2380  0.9725
 5306TIP3    H137409   1.185   1.276   4.569  0.1359 -1.0946 -1.2271
 5306TIP3    H237410   1.171   1.198   4.698  1.4367  2.7133  1.3543
 5307TIP3   OH237411   3.821   2.946   3.059 -0.3857 -0.7257  0.2706
 5307TIP3    H137412   3.777   2.888   2.997 -0.6576  1.0602 -1.3235
 5307TIP3    H237413   3.904   2.903   3.077 -0.7556 -1.8216 -0.5063
 5308TIP3   OH237414   0.273   6.476   2.459 -0.0381  0.4685  0.1881
 5308TIP3    H137415   0.368   6.475   2.449  0.0082  0.5647  0.6155
 5308TIP3    H237416   0.240   6.450   2.373  0.3908 -0.3262  0.2551
 5309TIP3   OH237417   3.679   1.281   0.586  0.4139  0.1567 -0.2590
 5309TIP3    H137418   3.587   1.258   0.600  0.0554  0.4190 -1.9401
 5309TIP3    H237419   3.711   1.306   0.673 -0.8323 -0.8332  0.5248
 5310TIP3   OH237420   4.994   3.097  14.416  0.5091  0.0927 -0.0272
 5310TIP3    H137421   4.963   3.187  14.425 -0.7782 -0.3893  0.5706
 5310TIP3    H237422   4.946   3.048  14.483  1.5323 -0.9608 -0.0377
 5311TIP3   OH237423   2.397   4.139   4.633  0.4460 -0.4235  0.2176
 5311TIP3    H137424   2.451   4.128   4.554  0.3934  0.2900  0.0743
 5311TIP3    H237425   2.394   4.234   4.647  1.5860 -0.6011  1.8739
 5312TIP3   OH237426   6.429   1.441   4.908  0.0676  0.5577  0.2557
 5312TIP3    H137427   6.451   1.521   4.860  0.3018  0.0669 -0.4854
 5312TIP3    H237428   6.408   1.378   4.839 -1.5680  0.3923  0.8756
 5313TIP3   OH237429   3.877   4.749   0.519 -0.2399 -0.1134  0.4268
 5313TIP3    H137430   3.828   4.668   0.530  0.3342 -0.6389 -0.7007
 5313TIP3    H237431   3.862   4.773   0.427  0.4662  0.4814  0.4601
 5314TIP3   OH237432   2.927   3.079   0.905  0.5841 -0.0328  0.1728
 5314TIP3    H137433   2.865   3.097   0.976  1.4601 -0.5309  1.0918
 5314TIP3    H237434   2.915   3.151   0.843 -2.2284 -1.0461 -0.6312
 5315TIP3   OH237435   5.770   3.643   4.336 -0.2008 -0.2574 -0.2838
 5315TIP3    H137436   5.851   3.693   4.341 -0.0116 -0.5946  0.1059
 5315TIP3    H237437   5.799   3.552   4.322 -0.5180 -0.3375 -0.4356
 5316TIP3   OH237438   2.266   0.811  15.218 -0.1529 -0.0822  0.7448
 5316TIP3    H137439   2.185   0.829  15.170  0.3600 -0.0529 -0.1302
 5316TIP3    H237440   2.334   0.810  15.151  0.5962  0.0221  1.4864
 5317TIP3   OH237441   5.579   4.310  14.278  0.2886 -0.1682  0.4418
 5317TIP3    H137442   5.547   4.394  14.310 -2.1931 -0.8191 -0.1256
 5317TIP3    H237443   5.501   4.265  14.245  1.5678 -2.6079  0.4896
 5318TIP3   OH237444   4.489   2.650  13.311 -0.6832 -0.4529  0.1082
 5318TIP3    H137445   4.537   2.676  13.389  0.7656 -0.6723 -0.6549
 5318TIP3    H237446   4.539   2.575  13.276 -0.1572  0.7948 -2.0134
 5319TIP3   OH237447   4.763   5.402  10.234 -0.1312 -0.1467 -0.3297
 5319TIP3    H137448   4.727   5.338  10.295 -0.5039 -1.3413 -1.7494
 5319TIP3    H237449   4.846   5.365  10.206 -0.7514 -0.4928 -1.8358
 5320TIP3   OH237450   0.606   6.333  14.676  0.4201  0.1427  0.6046
 5320TIP3    H137451   0.672   6.396  14.648  1.2980 -0.9153  0.2341
 5320TIP3    H237452   0.534   6.344  14.614  0.7977  0.4079  0.2107
 5321TIP3   OH237453   2.538   4.042   1.659 -0.0635  0.5920 -0.1853
 5321TIP3    H137454   2.602   3.975   1.635 -2.7259 -2.0662 -0.3902
 5321TIP3    H237455   2.505   4.015   1.745 -2.6209  0.4359 -1.1364
 5322TIP3   OH237456   1.431   4.540   2.777 -0.3140  0.0673 -0.2435
 5322TIP3    H137457   1.428   4.627   2.738  0.9589  0.2075 -0.0739
 5322TIP3    H237458   1.420   4.555   2.871 -1.2626 -0.0782 -0.3191
 5323TIP3   OH237459   5.108   1.379  11.548 -0.0263  0.4008  0.4508
 5323TIP3    H137460   5.109   1.472  11.571 -1.4616  0.2191  1.3907
 5323TIP3    H237461   5.109   1.379  11.453  1.2180  1.3244  0.4260
 5324TIP3   OH237462   3.771   2.561   5.270 -0.0261 -0.3246  0.6232
 5324TIP3    H137463   3.738   2.525   5.188 -0.8999  0.1646  0.7465
 5324TIP3    H237464   3.812   2.644   5.244 -0.0734 -0.2952  0.6419
 5325TIP3   OH237465   1.570   0.316   1.437 -0.1368 -0.6113 -0.0820
 5325TIP3    H137466   1.590   0.224   1.456  0.3394 -1.1258 -2.6918
 5325TIP3    H237467   1.478   0.326   1.462  0.1081 -1.4376  1.2877
 5326TIP3   OH237468   0.262   2.089   0.438  0.8404  0.8975 -0.3948
 5326TIP3    H137469   0.195   2.033   0.399 -0.6931  2.7911 -0.6300
 5326TIP3    H237470   0.232   2.178   0.421  0.7097  1.8999  3.9483
 5327TIP3   OH237471   1.528   5.760  12.617 -0.6510  0.7499 -0.2839
 5327TIP3    H137472   1.457   5.816  12.651 -0.6186 -0.8726  2.8594
 5327TIP3    H237473   1.605   5.815  12.619 -1.1125  1.3989  0.0894
 5328TIP3   OH237474   4.755   0.155   3.967 -0.4418 -0.3475 -0.0713
 5328TIP3    H137475   4.733   0.248   3.955  0.6030 -0.1108 -0.2562
 5328TIP3    H237476   4.775   0.123   3.879 -0.2436 -0.5980  0.0630
 5329TIP3   OH237477   6.227   5.936   0.058  0.5178  0.2586  0.3340
 5329TIP3    H137478   6.203   5.859   0.109  2.4944  0.9557  2.4568
 5329TIP3    H237479   6.166   6.004   0.086 -1.2696 -0.4328 -1.5865
 5330TIP3   OH237480   1.187   1.458  14.596 -0.0320  0.3230 -0.2677
 5330TIP3    H137481   1.279   1.432  14.604 -0.2776 -0.3176  0.5528
 5330TIP3    H237482   1.185   1.513  14.517  0.9173 -0.2696 -0.7241
 5331TIP3   OH237483   2.247   2.888   2.737  0.2609  0.0831  0.2426
 5331TIP3    H137484   2.311   2.886   2.666  0.3910  1.5266  0.2998
 5331TIP3    H237485   2.202   2.972   2.727 -0.8008 -0.3790  0.9316
 5332TIP3   OH237486   1.872   0.877   1.840 -0.0923 -1.2869 -0.1213
 5332TIP3    H137487   1.796   0.851   1.787  0.2847  0.2801 -1.5353
 5332TIP3    H237488   1.937   0.808   1.825 -0.0022 -0.8855 -1.7492
 5333TIP3   OH237489   5.043   5.838  15.886  0.3057 -0.2473 -0.0181
 5333TIP3    H137490   4.980   5.875  15.824 -0.0574 -0.9454 -0.0702
 5333TIP3    H237491   5.074   5.913  15.936 -1.0296  0.0337  0.4225
 5334TIP3   OH237492   2.895   0.535  16.206  0.2239 -0.3705  0.4388
 5334TIP3    H137493   2.908   0.446  16.173  0.7910 -0.1044 -0.0694
 5334TIP3    H237494   2.936   0.534  16.293  1.6806 -0.1795 -0.2109
 5335TIP3   OH237495   2.387   5.276   4.676 -0.0887 -0.1566  0.2877
 5335TIP3    H137496   2.373   5.364   4.711 -0.7782  0.6972 -1.9062
 5335TIP3    H237497   2.481   5.260   4.686 -0.0572  0.5766  1.2357
 5336TIP3   OH237498   2.601   0.506   3.597  0.6219  0.0166  0.1393
 5336TIP3    H137499   2.575   0.531   3.508  1.2481 -0.6742 -0.2541
 5336TIP3    H237500   2.576   0.414   3.605  0.7471  0.0188  0.6078
 5337TIP3   OH237501   6.063   1.409  16.032  0.4134  0.6056 -0.5088
 5337TIP3    H137502   6.103   1.349  16.095  0.3656  1.5826  0.4679
 5337TIP3    H237503   5.969   1.399  16.046  0.4151  1.3806  0.1267
 5338TIP3   OH237504   0.631   5.589   5.726 -0.3833  0.6527  0.1848
 5338TIP3    H137505   0.542   5.597   5.759 -0.3944 -0.6785  0.5151
 5338TIP3    H237506   0.653   5.678   5.697 -0.5266  1.8490  3.3119
 5339TIP3   OH237507   2.589   5.166  14.581 -0.0950  0.0249  0.3758
 5339TIP3    H137508   2.525   5.096  14.567 -1.3537  1.0619  0.7507
 5339TIP3    H237509   2.611   5.196  14.492 -0.7450  0.1904  0.2656
 5340TIP3   OH237510   0.098   0.629   5.068 -0.1286  0.2279 -0.0314
 5340TIP3    H137511   0.174   0.686   5.074  0.1963 -0.0218 -1.4653
 5340TIP3    H237512   0.031   0.682   5.025 -0.7004  0.3741  1.0184
 5341TIP3   OH237513   2.862   3.938   1.374  0.3621  0.5645 -1.0346
 5341TIP3    H137514   2.902   3.870   1.429 -2.6168 -1.8845 -1.5972
 5341TIP3    H237515   2.922   3.949   1.301  1.2349 -1.0067 -0.5923
 5342TIP3   OH237516   2.163   2.575   5.323  0.3528  0.0505 -0.1809
 5342TIP3    H137517   2.219   2.499   5.309  0.7781  0.2728  0.2801
 5342TIP3    H237518   2.180   2.601   5.414 -0.4564  0.1575 -0.0558
 5343TIP3   OH237519   2.477   2.258  10.564 -0.2413 -0.0384  0.4004
 5343TIP3    H137520   2.464   2.353  10.566  0.8109  0.1125  0.4570
 5343TIP3    H237521   2.570   2.247  10.546 -0.5763 -1.0740 -0.7822
 5344TIP3   OH237522   0.944   4.635  11.169 -0.1401  0.2544 -0.7655
 5344TIP3    H137523   0.991   4.639  11.086  0.6808 -0.0137 -0.3237
 5344TIP3    H237524   0.956   4.545  11.199  1.3229  0.8741  0.6313
 5345TIP3   OH237525   1.920   6.242  16.881  0.1095  0.2711 -0.0307
 5345TIP3    H137526   1.957   6.160  16.912  0.0516  0.3965  0.3763
 5345TIP3    H237527   1.994   6.303  16.882  0.5677 -0.1912 -1.9688
 5346TIP3   OH237528   1.805   4.542  15.521 -0.6335 -0.2830  0.3913
 5346TIP3    H137529   1.885   4.595  15.517 -0.0608 -1.1861 -1.1336
 5346TIP3    H237530   1.754   4.570  15.446 -1.1088 -0.7163  0.5489
 5347TIP3   OH237531   2.220   0.109  11.460  0.3799 -0.2389 -0.9732
 5347TIP3    H137532   2.128   0.086  11.444  0.7414 -2.2441 -0.4569
 5347TIP3    H237533   2.229   0.198  11.426 -1.8041  0.0895 -0.8350
 5348TIP3   OH237534   1.201   5.848   2.635  0.3825  0.0603 -0.0241
 5348TIP3    H137535   1.182   5.754   2.633  0.6964 -0.0860  1.8647
 5348TIP3    H237536   1.289   5.853   2.672 -0.2257  1.1472  1.3515
 5349TIP3   OH237537   0.216   6.637  16.321  0.0614  0.0512 -0.3878
 5349TIP3    H137538   0.137   6.688  16.302 -0.5034 -0.2183  1.0519
 5349TIP3    H237539   0.200   6.552  16.280 -1.9411 -1.1534  2.5438
 5350TIP3   OH237540   3.052   3.998   3.659  0.4002  0.2664 -0.1651
 5350TIP3    H137541   3.011   3.919   3.623 -0.9367  0.7649  0.1960
 5350TIP3    H237542   2.987   4.033   3.720  1.9803  0.2955  1.5873
 5351TIP3   OH237543   0.386   6.542  16.109 -0.4740 -0.2329  0.4941
 5351TIP3    H137544   0.434   6.463  16.136  1.4289  0.4900 -0.6085
 5351TIP3    H237545   0.365   6.586  16.192 -0.0957 -1.0551  1.0480
 5352TIP3   OH237546   6.551   5.531   5.444  0.0240  0.5532  0.1612
 5352TIP3    H137547   6.628   5.567   5.399 -0.1057 -0.2239 -0.7247
 5352TIP3    H237548   6.477   5.564   5.393 -0.1445 -0.0684  0.0052
 5353TIP3   OH237549   2.292   5.652  13.626  0.9255  0.6225 -0.3082
 5353TIP3    H137550   2.295   5.636  13.720 -0.6736 -0.7087 -0.4410
 5353TIP3    H237551   2.373   5.700  13.607  2.1804 -0.6801  1.4459
 5354TIP3   OH237552   1.924   4.595   0.740 -0.2215  0.2069 -0.0475
 5354TIP3    H137553   1.947   4.683   0.709 -0.8837  1.4285  2.6154
 5354TIP3    H237554   1.916   4.605   0.835 -0.0954 -2.8232  0.3560
 5355TIP3   OH237555   1.732   4.741   0.545  0.0280 -1.0693 -0.3935
 5355TIP3    H137556   1.759   4.651   0.563  0.3432 -1.0792 -0.8941
 5355TIP3    H237557   1.793   4.795   0.594  0.1573 -1.1197 -0.4982
 5356TIP3   OH237558   2.085   4.642  11.154 -0.5463  0.3805  0.4228
 5356TIP3    H137559   2.178   4.632  11.171 -0.4249 -0.3202 -0.5274
 5356TIP3    H237560   2.074   4.611  11.064 -1.6980  0.4101  0.5362
 5357TIP3   OH237561   6.169   5.489   4.122 -0.0893  0.4104 -0.6744
 5357TIP3    H137562   6.143   5.461   4.210  0.6871 -0.0007 -0.5645
 5357TIP3    H237563   6.090   5.527   4.085 -0.2106  1.3742  0.5051
 5358TIP3   OH237564   1.313   4.111   3.779  0.0969  0.7175  0.2946
 5358TIP3    H137565   1.273   4.179   3.725 -1.0189  0.5954  0.9250
 5358TIP3    H237566   1.242   4.048   3.794  0.8845 -0.1611  0.4128
 5359TIP3   OH237567   1.951   2.650  13.700  0.9533 -0.2216 -0.3850
 5359TIP3    H137568   1.903   2.590  13.643 -1.2857 -1.8363  2.8988
 5359TIP3    H237569   2.036   2.609  13.713  1.2054 -0.2098 -1.8306
 5360TIP3   OH237570   5.946   1.874  12.476  0.4872 -0.2259  0.6180
 5360TIP3    H137571   5.878   1.866  12.543  0.4265  1.6138  0.8301
 5360TIP3    H237572   5.984   1.787  12.469 -1.4652 -1.1447  0.9544
 5361TIP3   OH237573   3.001   5.631  12.438  0.2904  0.3248 -0.5718
 5361TIP3    H137574   3.039   5.719  12.437  3.1498 -0.7855  0.2873
 5361TIP3    H237575   3.040   5.587  12.363 -0.7666 -0.3621 -0.7325
 5362TIP3   OH237576   4.494   0.382  16.907  0.1588  0.2051  0.9234
 5362TIP3    H137577   4.528   0.307  16.955 -1.8837 -1.7519 -0.4354
 5362TIP3    H237578   4.567   0.412  16.854  0.8887 -1.2822  1.0236
 5363TIP3   OH237579   5.682   1.311  15.919 -0.3976  0.1075  0.1781
 5363TIP3    H137580   5.687   1.405  15.937  0.0753  0.1606 -0.1957
 5363TIP3    H237581   5.645   1.305  15.831  0.0872 -0.0287 -0.0221
 5364TIP3   OH237582   4.440   6.146  13.628  0.5956  0.0783  0.0250
 5364TIP3    H137583   4.383   6.174  13.700  1.9658  2.6081  0.2411
 5364TIP3    H237584   4.523   6.123  13.670  0.7393 -0.4859 -0.5540
 5365TIP3   OH237585   1.856   3.871  16.086 -0.6855  0.6629  0.2530
 5365TIP3    H137586   1.868   3.871  16.181 -0.5082 -0.2324  0.2400
 5365TIP3    H237587   1.908   3.797  16.056 -1.7401  0.1626 -0.4030
 5366TIP3   OH237588   1.345   1.853   2.210  0.6110  0.2605 -0.1885
 5366TIP3    H137589   1.351   1.899   2.126  2.4870  1.8001  0.6888
 5366TIP3    H237590   1.253   1.828   2.218  0.1607  1.0969 -2.1668
 5367TIP3   OH237591   0.017   6.632  11.086  0.1304  0.3002 -0.1933
 5367TIP3    H137592   0.053   6.651  11.172 -0.2877 -1.0057  0.2852
 5367TIP3    H237593   0.094   6.617  11.030  0.4501 -2.9444  0.9200
 5368TIP3   OH237594   1.799   1.374  14.942 -0.2120 -0.2643 -0.1638
 5368TIP3    H137595   1.777   1.285  14.967  0.0565 -0.7077 -1.4448
 5368TIP3    H237596   1.791   1.375  14.847  2.2586  0.3786 -0.4314
 5369TIP3   OH237597   4.054   2.818  13.327  0.3935 -0.3409 -0.1058
 5369TIP3    H137598   4.070   2.727  13.303 -0.0381 -0.6523  0.7357
 5369TIP3    H237599   4.141   2.856  13.341  0.5679 -0.6663 -0.3124
 5370TIP3   OH237600   5.982   2.934   1.950 -0.0986  0.2827  0.1406
 5370TIP3    H137601   6.063   2.985   1.958 -0.8113  1.5750 -0.4849
 5370TIP3    H237602   5.921   2.976   2.011 -0.1277 -1.1171  1.1359
 5371TIP3   OH237603   4.057   5.825   2.226 -0.1378 -0.4455 -0.2534
 5371TIP3    H137604   3.985   5.790   2.277  0.9168 -0.6574  1.1647
 5371TIP3    H237605   4.052   5.780   2.142 -1.4755 -0.6481 -0.0813
 5372TIP3   OH237606   4.101   4.604   3.822 -0.0101  0.2844  0.1768
 5372TIP3    H137607   4.133   4.565   3.741  0.9802  0.1770  0.6008
 5372TIP3    H237608   4.145   4.689   3.826  0.9517 -0.2308  1.2064
 5373TIP3   OH237609   0.327   6.414  13.677  0.5319 -0.2216 -0.4091
 5373TIP3    H137610   0.330   6.475  13.603 -0.0943  2.2929  1.4725
 5373TIP3    H237611   0.235   6.390  13.684  0.4653  0.1126 -0.0673
 5374TIP3   OH237612   3.780   5.001   2.842 -0.3083  0.5687 -0.0691
 5374TIP3    H137613   3.707   5.061   2.831 -0.2745  0.8903  1.3489
 5374TIP3    H237614   3.840   5.045   2.901  0.8322  0.1112 -0.8452
 5375TIP3   OH237615   2.405   6.806  11.630 -0.4315 -0.3457  0.7672
 5375TIP3    H137616   2.360   6.833  11.710 -0.1658 -1.2241  1.2171
 5375TIP3    H237617   2.376   6.870  11.564 -0.5004  0.5030  1.5967
 5376TIP3   OH237618   3.176   2.685   2.743 -0.1005 -0.1682 -0.2877
 5376TIP3    H137619   3.260   2.646   2.770 -0.1647  0.1210  0.3442
 5376TIP3    H237620   3.122   2.610   2.716 -0.7134 -0.6977  2.2276
 5377TIP3   OH237621   1.598   2.807   3.337  0.1282 -0.1449 -0.0997
 5377TIP3    H137622   1.580   2.782   3.428 -0.7451  1.9075  0.3686
 5377TIP3    H237623   1.532   2.874   3.319  0.3526 -0.4603 -2.2393
 5378TIP3   OH237624   1.961   6.017  15.403  0.0706 -0.3977 -0.1627
 5378TIP3    H137625   1.936   6.001  15.312  0.2365  1.9022 -0.6755
 5378TIP3    H237626   2.057   6.024  15.400  0.0694 -0.2342  0.1637
 5379TIP3   OH237627   4.628   4.743  11.453  0.6622  0.1365  0.0498
 5379TIP3    H137628   4.642   4.718  11.362  0.6542  0.6102 -0.0849
 5379TIP3    H237629   4.683   4.683  11.504  0.4093 -0.3480 -0.2424
 5380TIP3   OH237630   3.037   3.649  11.110 -0.3747  0.5471 -0.4430
 5380TIP3    H137631   3.042   3.705  11.033  0.4155  2.0899  0.6550
 5380TIP3    H237632   3.115   3.672  11.161 -1.9835  1.2684  1.8821
 5381TIP3   OH237633   3.200   5.863   3.968  0.7152 -0.1696  0.2829
 5381TIP3    H137634   3.212   5.840   4.060  0.5727 -0.2217  0.2894
 5381TIP3    H237635   3.224   5.955   3.963 -0.1596  0.0876  0.5573
 5382TIP3   OH237636   0.310   4.911  15.164  0.0477 -0.5763 -0.1693
 5382TIP3    H137637   0.300   4.908  15.259 -0.4438 -0.8430 -0.2263
 5382TIP3    H237638   0.341   4.823  15.141  2.5204  0.1640 -0.0181
 5383TIP3   OH237639   4.383   0.141  13.176 -0.1787 -0.0629  0.0951
 5383TIP3    H137640   4.343   0.101  13.100  0.9350  0.0633 -0.5775
 5383TIP3    H237641   4.313   0.144  13.241 -0.9180 -0.9196 -0.6350
 5384TIP3   OH237642   3.557   1.482  13.808  0.5450 -0.6599 -0.1069
 5384TIP3    H137643   3.626   1.430  13.849  0.5503 -1.4355 -1.0619
 5384TIP3    H237644   3.603   1.537  13.745  0.4712  0.0646  0.4671
 5385TIP3   OH237645   6.533   1.963  11.567 -0.3312 -0.3088  0.2891
 5385TIP3    H137646   6.559   2.055  11.571 -1.3031 -0.0606  1.9413
 5385TIP3    H237647   6.601   1.916  11.616  0.9800 -0.7243 -1.8225
 5386TIP3   OH237648   6.268   5.488  14.472 -0.1546 -0.5227  0.7414
 5386TIP3    H137649   6.223   5.409  14.443  0.5724 -0.9528  0.7497
 5386TIP3    H237650   6.356   5.458  14.497  0.0570  0.2486  0.9685
 5387TIP3   OH237651   5.088   4.027   4.654 -0.3915  0.2244 -0.7721
 5387TIP3    H137652   5.067   4.121   4.652  0.5525  0.4567 -0.4311
 5387TIP3    H237653   5.171   4.020   4.606  0.9686 -0.0175  1.4547
 5388TIP3   OH237654   5.093   5.055  14.082  0.1728 -0.2833 -0.1732
 5388TIP3    H137655   5.042   5.136  14.092 -0.5547 -0.7463 -0.0201
 5388TIP3    H237656   5.116   5.031  14.172  2.3449  0.9335 -0.3283
 5389TIP3   OH237657   3.198   5.556  14.583 -0.4196  0.6445  0.3668
 5389TIP3    H137658   3.116   5.596  14.554 -0.8728  1.3329  2.4363
 5389TIP3    H237659   3.172   5.499  14.656  0.7789 -0.1525  0.1932
 5390TIP3   OH237660   0.730   3.401   5.570 -0.0920 -0.1711 -0.1995
 5390TIP3    H137661   0.717   3.391   5.476  1.7629 -0.7437 -0.4198
 5390TIP3    H237662   0.805   3.346   5.590 -0.2019  0.2682  1.5593
 5391TIP3   OH237663   6.473   4.867   6.694  0.4784 -0.4664 -0.3010
 5391TIP3    H137664   6.514   4.926   6.631  1.7290  0.0065  0.8942
 5391TIP3    H237665   6.493   4.906   6.779 -1.3363 -0.9710  0.3951
 5392TIP3   OH237666   0.135   4.565   0.699 -0.4379  0.4382  0.3378
 5392TIP3    H137667   0.040   4.564   0.715 -0.4755  0.6598  0.1272
 5392TIP3    H237668   0.174   4.558   0.786 -0.6470  0.7919  0.4630
 5393TIP3   OH237669   2.007   4.513   0.471  0.1648 -0.6150 -0.1685
 5393TIP3    H137670   1.916   4.510   0.499 -0.1167  0.4587 -0.8967
 5393TIP3    H237671   2.058   4.491   0.549 -0.7173 -1.3621  0.2070
 5394TIP3   OH237672   1.205   5.869  13.175 -0.2982 -0.1435 -0.0121
 5394TIP3    H137673   1.242   5.782  13.193  2.0715  0.6847 -0.6102
 5394TIP3    H237674   1.257   5.929  13.227 -1.8919  0.9742  0.3692
 5395TIP3   OH237675   3.317   2.197  12.597  0.4020 -0.1378  0.0132
 5395TIP3    H137676   3.241   2.235  12.642 -1.0443 -2.4256 -0.3188
 5395TIP3    H237677   3.385   2.263  12.605 -1.5629  1.9624  0.4883
 5396TIP3   OH237678   4.025   5.203  15.316  0.3375  0.0552  0.3155
 5396TIP3    H137679   4.064   5.117  15.300  0.5835  0.0448  0.9427
 5396TIP3    H237680   4.086   5.245  15.377 -0.2335  0.3442  0.6862
 5397TIP3   OH237681   2.883   6.550   6.342  0.4587 -0.2580  0.5333
 5397TIP3    H137682   2.803   6.498   6.338  0.4387 -0.1823 -0.2033
 5397TIP3    H237683   2.861   6.622   6.402  0.2196 -0.6332  0.9056
 5398TIP3   OH237684   3.634   6.726  15.952 -0.3708 -0.1017  0.3944
 5398TIP3    H137685   3.698   6.776  15.901 -1.5033  0.3051 -0.6679
 5398TIP3    H237686   3.681   6.647  15.978  0.9161  0.7084  0.6390
 5399TIP3   OH237687   3.020   4.253  14.303 -0.4058  0.1976  0.1429
 5399TIP3    H137688   3.011   4.254  14.208  2.7373  1.5166 -0.2387
 5399TIP3    H237689   2.984   4.337  14.331 -0.4250  0.2341  0.0102
 5400TIP3   OH237690   2.161   5.366   5.141 -0.5441 -0.2146 -0.1199
 5400TIP3    H137691   2.192   5.454   5.164 -0.6813 -0.2919  0.3679
 5400TIP3    H237692   2.228   5.332   5.082 -0.3567  0.1147 -0.1007
 5401TIP3   OH237693   5.372   4.624   5.714 -0.3980  0.7647  0.2934
 5401TIP3    H137694   5.290   4.606   5.759 -0.3967 -1.7741 -0.5532
 5401TIP3    H237695   5.438   4.576   5.765 -0.2705 -1.4075 -1.7128
 5402TIP3   OH237696   1.976   4.601  13.409  0.3132  0.4824 -0.0684
 5402TIP3    H137697   2.070   4.617  13.397  0.9404 -0.4075  2.8268
 5402TIP3    H237698   1.935   4.635  13.329  3.2445 -0.7806 -2.2949
 5403TIP3   OH237699   1.973   3.645   4.453  0.3769 -0.4257  0.1507
 5403TIP3    H137700   1.944   3.576   4.393 -1.4644  0.4897 -0.0924
 5403TIP3    H237701   1.909   3.644   4.524  1.0973  0.1590  0.8280
 5404TIP3   OH237702   4.511   0.206  15.917  0.3622  0.3021  0.0799
 5404TIP3    H137703   4.468   0.214  16.002 -0.2219 -0.5426 -0.1258
 5404TIP3    H237704   4.514   0.295  15.884 -1.8734  0.3280 -0.1894
 5405TIP3   OH237705   4.886   2.671   4.056  0.1212  0.3779  0.1362
 5405TIP3    H137706   4.965   2.720   4.079  0.6559 -1.0390  1.4893
 5405TIP3    H237707   4.814   2.730   4.079  0.7302  0.4131  2.1247
 5406TIP3   OH237708   0.047   2.332  13.734  0.1442  0.1689  0.0656
 5406TIP3    H137709   0.068   2.371  13.819  1.3025  1.8248 -0.9214
 5406TIP3    H237710  -0.048   2.321  13.736  0.2203 -0.6498  1.8670
 5407TIP3   OH237711   5.597   3.008  16.212 -0.1465 -0.4539  0.0263
 5407TIP3    H137712   5.639   3.011  16.298 -1.6348  0.0228  0.7597
 5407TIP3    H237713   5.611   3.095  16.175 -2.4696  0.5397  1.2898
 5408TIP3   OH237714   5.872   5.555  12.627 -0.5359  0.1706  0.2607
 5408TIP3    H137715   5.886   5.468  12.591  1.1122  0.0332  1.1276
 5408TIP3    H237716   5.853   5.541  12.719  0.2006  0.7360  0.5109
 5409TIP3   OH237717   4.062   4.244  17.142  0.0412  0.3249  0.6437
 5409TIP3    H137718   3.982   4.277  17.183  0.4496  0.8626  1.0212
 5409TIP3    H237719   4.104   4.192  17.211 -0.4697 -0.7855  0.1318
 5410TIP3   OH237720   6.444   5.286  14.594  0.0191  0.1983 -1.0333
 5410TIP3    H137721   6.445   5.218  14.661 -1.0739  0.3811 -0.8141
 5410TIP3    H237722   6.463   5.367  14.641 -1.6375  0.4605 -0.7514
 5411TIP3   OH237723   2.979   0.393  11.278 -0.1146 -0.3544 -0.3407
 5411TIP3    H137724   3.051   0.371  11.218 -0.2961  0.4195 -0.8537
 5411TIP3    H237725   3.020   0.397  11.364  0.7490  1.3429 -0.7791
 5412TIP3   OH237726   2.756   1.382   0.545 -0.4591 -0.0095 -0.0878
 5412TIP3    H137727   2.761   1.476   0.531  0.5014 -0.2246 -1.4026
 5412TIP3    H237728   2.774   1.370   0.638  2.2230  0.9642 -0.3895
 5413TIP3   OH237729   0.192   1.711  17.087  0.2756  0.0094 -0.0328
 5413TIP3    H137730   0.228   1.704  16.999  2.1045  2.0211  0.4831
 5413TIP3    H237731   0.141   1.792  17.086  1.5255  0.8522  1.0964
 5414TIP3   OH237732   0.227   6.312   0.944 -0.4518  0.4920 -0.2625
 5414TIP3    H137733   0.277   6.298   0.864 -0.9928  0.8055 -0.6645
 5414TIP3    H237734   0.271   6.384   0.989  1.6983 -1.6423  1.2745
 5415TIP3   OH237735   4.112   1.422  13.438 -0.2412  0.4785  0.0508
 5415TIP3    H137736   4.134   1.331  13.458 -1.9609  0.1565  0.5889
 5415TIP3    H237737   4.190   1.455  13.393  0.6084 -1.1076  0.2607
 5416TIP3   OH237738   5.469   4.886  14.292 -0.1259 -0.6041 -0.0543
 5416TIP3    H137739   5.471   4.891  14.197  0.2826 -1.0548 -0.0786
 5416TIP3    H237740   5.516   4.805  14.312 -0.8615 -0.9060  0.4958
 5417TIP3   OH237741   4.437   3.874  13.269  0.1429  0.2177  0.8554
 5417TIP3    H137742   4.532   3.856  13.267  0.0896 -0.0182 -0.1021
 5417TIP3    H237743   4.404   3.820  13.340  0.5784 -0.5154  0.5103
 5418TIP3   OH237744   1.218   1.004   1.181  0.2285  0.1768 -0.3874
 5418TIP3    H137745   1.219   1.023   1.087 -1.4459 -1.7653 -0.8579
 5418TIP3    H237746   1.311   0.990   1.203  0.5220 -1.2357 -2.2090
 5419TIP3   OH237747   0.046   3.039  12.656 -0.0960  0.1275  0.4349
 5419TIP3    H137748  -0.014   3.028  12.730  0.3960  1.2122  1.0097
 5419TIP3    H237749   0.126   3.074  12.695 -0.0432  1.3186 -0.6887
 5420TIP3   OH237750   2.663   2.706  15.322  0.3678  0.1022 -0.2903
 5420TIP3    H137751   2.571   2.728  15.318  0.4436  0.6552  0.8026
 5420TIP3    H237752   2.677   2.675  15.411  1.1740 -0.3151 -0.5446
 5421TIP3   OH237753   5.990   0.349  12.987 -0.2494  0.0813  0.2025
 5421TIP3    H137754   5.999   0.273  12.929  0.5556  0.3402 -0.0194
 5421TIP3    H237755   5.899   0.376  12.976 -0.2918 -0.2957 -0.4168
 5422TIP3   OH237756   4.125   0.464  17.231  0.4203  0.3479  0.8119
 5422TIP3    H137757   4.081   0.492  17.312 -0.4000  1.4246  0.0298
 5422TIP3    H237758   4.095   0.527  17.165 -0.5721 -1.7052 -0.7982
 5423TIP3   OH237759   6.246   2.137   4.904 -0.0101 -0.2868  0.7723
 5423TIP3    H137760   6.260   2.042   4.898 -0.6095 -0.4174  1.3328
 5423TIP3    H237761   6.261   2.157   4.997  0.2658  0.1990  0.6298
 5424TIP3   OH237762   1.515   5.872   3.939 -0.3549 -0.0342  0.6818
 5424TIP3    H137763   1.588   5.926   3.908 -0.9129  1.0515  1.2073
 5424TIP3    H237764   1.531   5.786   3.900 -1.0686  1.2515 -2.7179
 5425TIP3   OH237765   3.117   0.341  13.897  0.3387 -0.0725  0.2442
 5425TIP3    H137766   3.114   0.366  13.990 -1.9834 -0.0153  0.2027
 5425TIP3    H237767   3.160   0.414  13.854  0.6476  0.2960  1.1433
 5426TIP3   OH237768   1.103   4.618   1.898 -0.2307  0.2432  0.4788
 5426TIP3    H137769   1.158   4.555   1.852 -0.5207 -0.5742  1.2077
 5426TIP3    H237770   1.151   4.636   1.979  0.1703  1.4842 -0.0259
 5427TIP3   OH237771   2.253   6.377   4.186  0.0512 -0.1814  0.2704
 5427TIP3    H137772   2.276   6.429   4.263  1.1614  0.4970 -0.5075
 5427TIP3    H237773   2.192   6.432   4.137  0.2701 -0.1248  0.0627
 5428TIP3   OH237774   3.350   3.953   4.603  0.4093  0.9491  0.4913
 5428TIP3    H137775   3.308   3.867   4.612 -1.3042  1.4907 -1.7065
 5428TIP3    H237776   3.415   3.954   4.674 -0.5383 -1.5326  1.5379
 5429TIP3   OH237777   5.823   6.073  10.704 -0.0752  0.8162 -0.7665
 5429TIP3    H137778   5.872   6.033  10.776  0.4254  2.4487 -0.1519
 5429TIP3    H237779   5.865   6.038  10.625  0.1779 -0.0484 -0.2636
 5430TIP3   OH237780   6.806   2.107  11.346  0.2598  0.4561  0.1471
 5430TIP3    H137781   6.772   2.026  11.309  0.8020  0.1195  0.3746
 5430TIP3    H237782   6.899   2.089  11.362  0.6443  1.4865 -0.8376
 5431TIP3   OH237783   5.792   6.732   3.456 -0.6438  0.1782 -0.1712
 5431TIP3    H137784   5.876   6.761   3.493 -0.6358 -0.0329 -0.0216
 5431TIP3    H237785   5.735   6.723   3.532  0.0061 -2.4553  0.1079
 5432TIP3   OH237786   5.331   5.377   5.167 -0.4457 -0.1846  0.0674
 5432TIP3    H137787   5.241   5.361   5.197 -1.0906  0.0120 -1.6455
 5432TIP3    H237788   5.322   5.442   5.098  1.2806  1.5524  1.3773
 5433TIP3   OH237789   0.405   1.154   2.430 -0.4867 -0.4337 -0.3324
 5433TIP3    H137790   0.374   1.234   2.473 -0.3425 -0.5796  0.0472
 5433TIP3    H237791   0.458   1.186   2.357  1.5776 -0.1083  1.1808
 5434TIP3   OH237792   0.503   2.822   2.883  0.1218 -0.6770 -0.2084
 5434TIP3    H137793   0.557   2.858   2.953  2.0044  2.1157 -2.8069
 5434TIP3    H237794   0.565   2.776   2.827 -0.4316  0.8124 -2.1780
 5435TIP3   OH237795   4.050   2.594  16.862 -0.4843  0.5236 -1.0497
 5435TIP3    H137796   4.124   2.549  16.821 -0.5797 -0.9937  0.3421
 5435TIP3    H237797   3.978   2.532  16.854 -0.4894  0.1405  1.4087
 5436TIP3   OH237798   3.008   1.238   3.902  0.0024  0.2634  0.0291
 5436TIP3    H137799   2.992   1.295   3.978  0.1189 -1.6217  1.5620
 5436TIP3    H237800   3.103   1.226   3.900 -0.0135  0.1913 -0.3264
 5437TIP3   OH237801   3.593   2.482  17.242 -0.3076  0.5208  0.1250
 5437TIP3    H137802   3.585   2.526  17.327  0.4741  0.4680  0.2374
 5437TIP3    H237803   3.668   2.423  17.253  0.4047  1.2223 -0.9084
 5438TIP3   OH237804   3.000   6.451   0.106  0.6534 -0.4496  0.2478
 5438TIP3    H137805   2.924   6.402   0.074  1.0450 -0.6100 -0.4845
 5438TIP3    H237806   2.999   6.438   0.201  0.9976 -2.2847  0.0384
 5439TIP3   OH237807   1.790   2.047  13.888  0.0539  0.7087  0.5506
 5439TIP3    H137808   1.821   2.117  13.830 -0.3831 -0.6707 -1.4748
 5439TIP3    H237809   1.870   2.003  13.917  0.2444  0.9412  0.3846
 5440TIP3   OH237810   6.768   2.775   3.708  0.4977 -0.6661 -0.1613
 5440TIP3    H137811   6.684   2.733   3.728 -0.3302  0.6612 -0.6901
 5440TIP3    H237812   6.804   2.724   3.635 -0.9469  0.0746 -1.4503
 5441TIP3   OH237813   2.013   3.050  13.192 -0.1441  0.1953  0.2576
 5441TIP3    H137814   1.989   2.989  13.123  0.9128 -0.0178  0.0535
 5441TIP3    H237815   1.934   3.101  13.209 -0.6094 -0.2233 -0.6149
 5442TIP3   OH237816   5.429   1.869   5.665  1.1557  0.5544 -0.3564
 5442TIP3    H137817   5.455   1.910   5.747  2.1642 -0.7093 -0.0011
 5442TIP3    H237818   5.362   1.926   5.629 -0.4942  0.3148  2.1239
 5443TIP3   OH237819   2.765   6.141  14.577 -0.2142 -0.7845 -0.1498
 5443TIP3    H137820   2.804   6.220  14.539 -1.0065 -0.4582 -0.3172
 5443TIP3    H237821   2.833   6.075  14.569  0.3400 -0.2094 -0.3371
 5444TIP3   OH237822   6.348   4.224   3.274  0.2270 -0.1912 -0.3908
 5444TIP3    H137823   6.363   4.230   3.368 -0.8182  1.3367 -0.2958
 5444TIP3    H237824   6.296   4.144   3.263 -0.6998  0.2702  0.4822
 5445TIP3   OH237825   5.450   5.339  14.810  0.1809 -0.2959 -0.4535
 5445TIP3    H137826   5.534   5.383  14.794  0.3054 -0.6309 -0.7475
 5445TIP3    H237827   5.435   5.288  14.731 -1.4833  1.5967 -1.4344
 5446TIP3   OH237828   1.402   3.751  10.481  0.1618  0.5126  0.6270
 5446TIP3    H137829   1.399   3.666  10.524  2.1092 -0.8007 -1.6002
 5446TIP3    H237830   1.311   3.774  10.465 -0.3934 -1.4606  0.7521
 5447TIP3   OH237831   1.737   2.247   4.606 -0.5907 -0.7419  0.3728
 5447TIP3    H137832   1.716   2.174   4.547  0.1517  0.4056 -1.4185
 5447TIP3    H237833   1.822   2.277   4.576 -1.0854  1.1361  0.7619
 5448TIP3   OH237834   0.109   0.883   4.248  0.5819 -0.8752  0.6382
 5448TIP3    H137835   0.094   0.792   4.274 -1.4816 -0.2548  1.8772
 5448TIP3    H237836   0.186   0.910   4.299  0.6344 -1.6543  0.9900
 5449TIP3   OH237837   2.968   2.856   3.384 -0.4433 -0.2440  0.6431
 5449TIP3    H137838   2.916   2.797   3.331  0.2542 -1.7467  1.5604
 5449TIP3    H237839   3.053   2.812   3.393  0.7029  1.6883 -0.0317
 5450TIP3   OH237840   3.924   6.582  13.279 -0.2320  1.1418 -0.1001
 5450TIP3    H137841   3.900   6.532  13.357  0.6122 -0.8221 -1.0058
 5450TIP3    H237842   3.967   6.660  13.312  3.1378 -1.1602  1.5350
 5451TIP3   OH237843   4.990   4.846  15.857  0.4508  0.3384  0.2576
 5451TIP3    H137844   4.951   4.776  15.910 -0.5721  0.4418 -0.3410
 5451TIP3    H237845   4.920   4.912  15.849  1.3838  1.4441  0.8026
 5452TIP3   OH237846   2.924   4.645   3.792 -0.8102  0.2168 -0.5764
 5452TIP3    H137847   2.975   4.726   3.795 -0.0847 -0.1759 -1.5543
 5452TIP3    H237848   2.963   4.590   3.860  0.0846 -0.0646 -1.2893
 5453TIP3   OH237849   4.293   2.547  16.501  0.7568  0.1973 -0.5925
 5453TIP3    H137850   4.370   2.604  16.501  0.8904  0.1734  2.3853
 5453TIP3    H237851   4.221   2.606  16.477  1.1017  1.3771  1.0606
 5454TIP3   OH237852   1.639   2.491  12.301 -1.1935 -0.0786 -0.4340
 5454TIP3    H137853   1.602   2.462  12.385 -0.6652 -2.8231 -1.0465
 5454TIP3    H237854   1.634   2.586  12.304 -1.1492 -0.0666  2.7531
 5455TIP3   OH237855   4.030   1.134   1.602 -0.4778 -0.3631 -0.6783
 5455TIP3    H137856   3.978   1.132   1.522 -1.2629 -2.0035 -0.1705
 5455TIP3    H237857   4.000   1.059   1.653  0.5243  0.1970  0.8390
 5456TIP3   OH237858   5.406   4.614  15.758 -0.3804  0.6972  0.6476
 5456TIP3    H137859   5.335   4.637  15.818 -0.0247  1.8758  0.6451
 5456TIP3    H237860   5.461   4.554  15.808 -0.5479  1.0004  1.2071
 5457TIP3   OH237861   2.945   0.236   6.097 -0.2155  0.5151  0.2730
 5457TIP3    H137862   2.920   0.233   6.189  2.2851  1.0862  1.0677
 5457TIP3    H237863   2.929   0.326   6.071  0.7977  0.8454  0.7360
 5458TIP3   OH237864   2.774   3.522  13.183  0.5161 -0.1123 -0.0465
 5458TIP3    H137865   2.804   3.431  13.179 -0.3229 -0.3863 -0.3531
 5458TIP3    H237866   2.680   3.517  13.164  0.8735  1.0530 -2.4150
 5459TIP3   OH237867   3.958   5.463  11.633  0.1015  0.3514  0.4839
 5459TIP3    H137868   4.025   5.429  11.693  2.4445  0.7611 -1.7097
 5459TIP3    H237869   3.979   5.555  11.623 -2.0140  0.9613  1.1638
 5460TIP3   OH237870   2.047   5.060   2.527  0.2613 -0.1648 -0.8394
 5460TIP3    H137871   1.974   5.015   2.486 -0.2641  0.4823 -0.6374
 5460TIP3    H237872   2.070   5.130   2.465  1.7313 -1.2943 -1.6280
 5461TIP3   OH237873   6.752   1.006   2.169 -0.9265 -0.1873  0.1258
 5461TIP3    H137874   6.787   1.094   2.178  0.5618 -0.6383 -0.8145
 5461TIP3    H237875   6.672   1.017   2.118 -0.1303  0.5437 -1.0326
 5462TIP3   OH237876   0.062   4.832   3.454 -0.5218 -0.2562 -0.1144
 5462TIP3    H137877   0.138   4.865   3.406  0.5507 -0.9493  1.0481
 5462TIP3    H237878  -0.013   4.863   3.404  0.4714  1.9826 -0.3478
 5463TIP3   OH237879   0.982   6.527   5.515 -0.1685 -0.1089  0.6721
 5463TIP3    H137880   0.997   6.522   5.610 -0.5259 -1.7779  0.6708
 5463TIP3    H237881   1.033   6.454   5.479 -1.5512 -0.6790 -0.2136
 5464TIP3   OH237882   1.632   2.894   4.300 -0.8555  0.1776 -0.4397
 5464TIP3    H137883   1.564   2.829   4.315 -2.3646  1.8938  0.6036
 5464TIP3    H237884   1.703   2.869   4.360 -1.0242 -1.0033 -0.7167
 5465TIP3   OH237885   4.885   6.698  16.297  0.3652  0.5691  0.0735
 5465TIP3    H137886   4.893   6.605  16.275 -1.0852  0.2526  0.7404
 5465TIP3    H237887   4.940   6.709  16.375 -1.7992 -0.5054  1.8925
 5466TIP3   OH237888   0.094   1.683   5.090 -0.0969  0.5429  0.2858
 5466TIP3    H137889   0.073   1.773   5.112  1.5496  1.3517 -1.1801
 5466TIP3    H237890   0.033   1.630   5.142 -1.0699  2.4739  1.2006
 5467TIP3   OH237891   0.656   2.546   3.056  0.2457  0.3080  0.5039
 5467TIP3    H137892   0.623   2.506   2.975  2.0026 -0.0083 -0.1124
 5467TIP3    H237893   0.639   2.480   3.123 -2.3973  1.0841  0.7260
 5468TIP3   OH237894   0.553   2.482   4.928 -0.2457  0.0799 -0.2998
 5468TIP3    H137895   0.463   2.448   4.927  0.4655 -1.9232 -1.4741
 5468TIP3    H237896   0.565   2.515   5.018 -1.1847 -2.4139  0.8379
 5469TIP3   OH237897   2.121   5.621   4.885  0.2195  0.8682  0.7551
 5469TIP3    H137898   2.066   5.697   4.866  0.6313  1.0843  0.3927
 5469TIP3    H237899   2.076   5.547   4.843  0.4803  1.1366 -0.0227
 5470TIP3   OH237900   0.852   3.553  14.255 -0.1727  0.5375 -0.2261
 5470TIP3    H137901   0.830   3.596  14.172 -0.9374  0.7407  0.0732
 5470TIP3    H237902   0.885   3.623  14.310 -2.7142  1.0884  0.7404
 5471TIP3   OH237903   1.694   0.081  14.737  0.2187 -0.2295 -0.1109
 5471TIP3    H137904   1.747   0.153  14.701  0.5246 -0.9195 -1.0942
 5471TIP3    H237905   1.675   0.026  14.661 -0.7611 -0.7271  0.4761
 5472TIP3   OH237906   4.120   1.264   2.826  0.3104  0.7607 -0.1440
 5472TIP3    H137907   4.148   1.229   2.911 -0.1370  1.0099  0.1086
 5472TIP3    H237908   4.189   1.324   2.801  2.2153 -1.8222 -1.6066
 5473TIP3   OH237909   5.038   4.086  15.822  0.1407 -0.1177  0.0279
 5473TIP3    H137910   5.078   4.173  15.826  0.2129 -0.1791  1.1243
 5473TIP3    H237911   4.943   4.103  15.824  0.0357  0.0297 -2.6258
 5474TIP3   OH237912   0.825   4.243   1.853  0.1619 -0.0835 -0.0004
 5474TIP3    H137913   0.919   4.258   1.845  0.4305 -0.9787  1.0569
 5474TIP3    H237914   0.797   4.304   1.921  0.1874 -0.4622  0.3618
 5475TIP3   OH237915   4.759   1.881   5.108 -0.5416  0.4143 -0.3527
 5475TIP3    H137916   4.813   1.940   5.055  0.2840  0.2943  0.3288
 5475TIP3    H237917   4.822   1.826   5.154 -1.2108  0.8244  1.1023
 5476TIP3   OH237918   4.847   4.881   4.624  0.3190  0.0771  0.6070
 5476TIP3    H137919   4.840   4.866   4.718  0.2700 -1.8892  0.3339
 5476TIP3    H237920   4.909   4.954   4.616  1.4839 -0.6815  2.1217
 5477TIP3   OH237921   6.774   1.264   0.042 -0.1340  0.3796  0.4817
 5477TIP3    H137922   6.823   1.343   0.017  0.1844  0.3855  1.1193
 5477TIP3    H237923   6.841   1.198   0.058 -0.3849  0.0867  0.3318
 5478TIP3   OH237924   5.155   5.285   2.548  0.2108  0.0500 -0.1244
 5478TIP3    H137925   5.140   5.379   2.542 -1.0812 -0.0955  0.5641
 5478TIP3    H237926   5.094   5.254   2.615 -1.3778 -1.6974 -2.2162
 5479TIP3   OH237927   4.762   3.444   4.302 -0.1322  0.0551  0.2453
 5479TIP3    H137928   4.709   3.486   4.369 -0.9710 -1.0745  0.3148
 5479TIP3    H237929   4.717   3.361   4.283  0.7756 -0.2335 -0.7942
 5480TIP3   OH237930   2.778   3.951   3.421 -0.3033 -0.5125  0.3882
 5480TIP3    H137931   2.727   3.874   3.397 -0.7162 -0.0437 -0.2904
 5480TIP3    H237932   2.794   3.996   3.338 -0.2896  0.2603  0.7976
 5481TIP3   OH237933   2.985   4.935  14.882 -0.5035  0.4658 -0.4788
 5481TIP3    H137934   2.892   4.916  14.899 -1.0465  2.7137 -0.5587
 5481TIP3    H237935   2.987   5.030  14.869  1.5593  0.2189 -2.3295
 5482TIP3   OH237936   2.560   5.958   2.823 -0.3553 -0.1817  0.1556
 5482TIP3    H137937   2.566   6.049   2.793  0.7571 -0.2692  0.0771
 5482TIP3    H237938   2.630   5.949   2.889 -0.5563 -0.9357  0.2826
 5483TIP3   OH237939   4.071   3.915  16.909  0.0856 -0.5378 -0.0200
 5483TIP3    H137940   4.080   3.823  16.934  0.9864 -0.5440 -0.3225
 5483TIP3    H237941   4.154   3.955  16.934 -0.0285  0.0363 -0.5339
 5484TIP3   OH237942   3.414   4.227  13.224 -0.0669 -0.0223  0.6055
 5484TIP3    H137943   3.446   4.274  13.302 -1.0492  1.6639  0.0520
 5484TIP3    H237944   3.391   4.297  13.162 -0.2248 -1.3064 -0.8298
 5485TIP3   OH237945   4.265   6.820  15.307 -0.2228 -0.5087 -0.7471
 5485TIP3    H137946   4.172   6.809  15.326 -0.1346  0.0362  0.0696
 5485TIP3    H237947   4.306   6.832  15.393  0.2905  1.4877 -1.2177
 5486TIP3   OH237948   4.387   4.801   1.814 -0.1202 -0.4957  0.1419
 5486TIP3    H137949   4.425   4.784   1.900  1.1837  0.1390 -0.2761
 5486TIP3    H237950   4.426   4.884   1.786  0.3709 -1.2242 -1.5195
 5487TIP3   OH237951   2.495   4.090   3.883 -0.4808  0.3912  0.4300
 5487TIP3    H137952   2.478   4.181   3.905  3.7475  1.0933  1.7770
 5487TIP3    H237953   2.578   4.092   3.835 -0.6809 -2.6833 -0.2300
 5488TIP3   OH237954   4.957   1.323   4.214 -0.0295 -0.2127 -0.1212
 5488TIP3    H137955   4.924   1.408   4.186 -0.3392 -0.1411  0.4590
 5488TIP3    H237956   5.042   1.315   4.170  0.0956  0.4870 -0.0162
 5489TIP3   OH237957   1.561   4.097   4.308 -0.1670  0.2339  0.1355
 5489TIP3    H137958   1.579   4.183   4.272 -0.5401  0.3207  0.1547
 5489TIP3    H237959   1.641   4.046   4.289 -1.3417 -0.6062 -3.4796
 5490TIP3   OH237960   5.816   1.405  13.063  0.3849  0.2193 -0.3347
 5490TIP3    H137961   5.818   1.310  13.046 -1.4562 -0.2251  1.5574
 5490TIP3    H237962   5.898   1.422  13.109  0.6074 -0.5114 -0.4364
 5491TIP3   OH237963   4.907   1.143   3.270  0.0594 -0.3290 -0.1285
 5491TIP3    H137964   4.925   1.204   3.341 -0.2397 -0.4057  0.0153
 5491TIP3    H237965   4.872   1.065   3.313  1.6186 -1.0995 -0.1999
 5492TIP3   OH237966   1.432   1.847   0.485 -0.1888 -0.1516  0.8802
 5492TIP3    H137967   1.503   1.911   0.478 -0.8954  0.6341  0.6278
 5492TIP3    H237968   1.461   1.773   0.432 -0.0034  0.5986 -0.0986
 5493TIP3   OH237969   3.200   3.364  16.602 -0.0901 -0.5964 -0.5794
 5493TIP3    H137970   3.121   3.315  16.627  1.0342 -1.2164  2.1130
 5493TIP3    H237971   3.264   3.296  16.580  1.6682 -0.6855  3.7367
 5494TIP3   OH237972   0.492   4.158   1.022 -0.4396 -0.1307 -0.1989
 5494TIP3    H137973   0.435   4.195   0.954 -0.1644  0.9429  0.1271
 5494TIP3    H237974   0.532   4.082   0.981 -0.2288  0.5359 -1.2793
 5495TIP3   OH237975   3.384   3.478  17.148 -0.3860  0.2710  0.0620
 5495TIP3    H137976   3.397   3.524  17.231 -0.1632  1.6391 -0.7119
 5495TIP3    H237977   3.289   3.468  17.141 -0.3618 -0.7703  0.9452
 5496TIP3   OH237978   5.155   4.970  13.819 -0.1264  0.0763  0.4214
 5496TIP3    H137979   5.152   5.057  13.777 -0.4252 -0.2330 -0.2162
 5496TIP3    H237980   5.121   4.985  13.907 -3.1241  0.0823 -0.6265
 5497TIP3   OH237981   0.835   0.091   2.028 -0.0968  0.9537  1.1440
 5497TIP3    H137982   0.748   0.067   2.060  0.8920 -0.3833  3.0326
 5497TIP3    H237983   0.853   0.176   2.069  0.1152  0.4692  2.0790
 5498TIP3   OH237984   3.861   1.012   2.812  0.3790 -0.5181  0.3178
 5498TIP3    H137985   3.923   1.071   2.856  0.2276 -0.3361  0.2867
 5498TIP3    H237986   3.814   0.969   2.884 -0.1081  0.0325  0.3351
 5499TIP3   OH237987   3.994   4.510  17.066 -0.6847 -0.5007  0.4333
 5499TIP3    H137988   3.955   4.484  16.982  0.6497 -1.1712 -0.0025
 5499TIP3    H237989   4.026   4.428  17.104  1.0819  0.1072  0.3522
 5500TIP3   OH237990   2.154   2.078  14.600 -0.0982  0.1591  0.3985
 5500TIP3    H137991   2.109   2.151  14.642  0.3001 -0.6023  2.2885
 5500TIP3    H237992   2.177   2.110  14.513 -0.5283  2.0334  0.9291
 5501TIP3   OH237993   4.024   3.607  17.005 -0.4734  0.0995  0.1767
 5501TIP3    H137994   4.118   3.609  17.023 -0.1121  1.2721 -1.6081
 5501TIP3    H237995   3.996   3.521  17.035  1.7753 -1.4902 -1.8798
 5502TIP3   OH237996   2.280   4.742   0.243  0.4135  0.9423 -0.2843
 5502TIP3    H137997   2.192   4.711   0.265  0.9277 -0.9440 -0.6571
 5502TIP3    H237998   2.278   4.836   0.259 -1.6732  0.9386 -0.3303
 5503TIP3   OH237999   6.759   0.839  12.453 -0.7912 -0.2430  0.4601
 5503TIP3    H138000   6.817   0.826  12.528 -2.1186 -1.9417  1.2338
 5503TIP3    H238001   6.736   0.751  12.424 -0.3975  0.3522 -1.9294
 5504TIP3   OH238002   1.559   6.654  12.642  0.0692 -0.3148  0.0786
 5504TIP3    H138003   1.599   6.616  12.720  0.7459 -0.0219 -0.1209
 5504TIP3    H238004   1.552   6.580  12.581 -0.8803 -0.6445  0.5684
 5505TIP3   OH238005   6.509   6.419  13.958 -0.2838  0.3343  0.0724
 5505TIP3    H138006   6.509   6.397  14.052  0.8108 -2.2280 -0.4487
 5505TIP3    H238007   6.416   6.416  13.933 -0.4686 -0.3256  0.7963
 5506TIP3   OH238008   2.961   3.911  11.413 -0.4390 -0.3396  0.0162
 5506TIP3    H138009   2.898   3.939  11.479 -0.5906  0.7717 -0.5685
 5506TIP3    H238010   2.942   3.966  11.337  1.3090  0.1292 -0.1434
 5507TIP3   OH238011   5.986   6.158  16.024 -0.1645 -0.1309 -0.1036
 5507TIP3    H138012   6.077   6.188  16.024 -0.3005  0.2774 -0.0016
 5507TIP3    H238013   5.950   6.189  16.106 -0.2168 -0.8618  0.1597
 5508TIP3   OH238014   4.333   1.327  16.484 -0.1267 -0.1172  0.2728
 5508TIP3    H138015   4.318   1.376  16.566  1.6388  0.5794  0.2346
 5508TIP3    H238016   4.416   1.282  16.499 -0.7713 -1.5943 -0.4334
 5509TIP3   OH238017   3.132   2.723  14.643 -0.3477  0.3480 -0.0113
 5509TIP3    H138018   3.220   2.729  14.679 -0.2885  2.2763 -0.4078
 5509TIP3    H238019   3.074   2.728  14.719 -0.1440 -0.0766  0.1748
 5510TIP3   OH238020   3.771   2.429  11.607  0.2936  0.4978 -0.6251
 5510TIP3    H138021   3.829   2.428  11.683 -1.2704 -0.5949  0.6295
 5510TIP3    H238022   3.720   2.509  11.617 -0.1906  0.1529 -0.2752
 5511TIP3   OH238023   4.897   1.658  15.763  0.4619  0.3864 -0.0883
 5511TIP3    H138024   4.841   1.603  15.708  0.2226  0.5521 -0.0110
 5511TIP3    H238025   4.947   1.596  15.815  2.0179  0.1514 -1.7609
 5512TIP3   OH238026   6.449   3.483   3.290  0.2169  0.9632 -0.1272
 5512TIP3    H138027   6.476   3.561   3.338  1.4484 -0.7334  2.1470
 5512TIP3    H238028   6.529   3.450   3.250  0.1067 -0.0879  0.4784
 5513TIP3   OH238029   5.807   6.070   1.143 -0.5429 -0.0593 -0.1996
 5513TIP3    H138030   5.790   6.150   1.092 -0.1372  0.3771  0.3341
 5513TIP3    H238031   5.722   6.047   1.180 -0.8422 -0.3867 -1.0780
 5514TIP3   OH238032   4.444   6.483  13.860 -0.0378  0.5370  0.8570
 5514TIP3    H138033   4.501   6.470  13.936  0.9089 -0.4887  0.0179
 5514TIP3    H238034   4.412   6.395  13.839 -1.4188  1.0076  0.8999
 5515TIP3   OH238035   4.762   5.895   1.851 -0.1275  0.5286 -0.0852
 5515TIP3    H138036   4.694   5.930   1.793 -0.4339  0.6881  0.3703
 5515TIP3    H238037   4.836   5.955   1.839 -0.7354  1.5038  0.8839
 5516TIP3   OH238038   6.777   1.608  14.051  0.0420 -0.3974 -0.4501
 5516TIP3    H138039   6.744   1.535  13.998  0.1913  0.6445 -2.0449
 5516TIP3    H238040   6.862   1.578  14.083 -0.8067 -1.7144  0.7123
 5517TIP3   OH238041   4.197   3.484  10.610 -0.2293  0.1101 -0.1322
 5517TIP3    H138042   4.178   3.397  10.576 -1.9965  1.2033 -2.2031
 5517TIP3    H238043   4.253   3.524  10.543  1.2015  0.3384  1.1628
 5518TIP3   OH238044   4.869   1.338  12.508  0.0630 -0.0478  0.4767
 5518TIP3    H138045   4.890   1.298  12.423 -1.4097 -0.6705  0.3696
 5518TIP3    H238046   4.954   1.361  12.546  1.1612 -4.1580  0.9662
 5519TIP3   OH238047   3.177   2.938   1.360 -0.4108  0.0461  0.4404
 5519TIP3    H138048   3.177   3.001   1.288 -1.4601  1.7992  1.8744
 5519TIP3    H238049   3.085   2.932   1.386 -0.2654 -1.7758  0.6234
 5520TIP3   OH238050   1.229   0.481  10.394 -0.1175  0.1850  0.3690
 5520TIP3    H138051   1.318   0.448  10.385  0.2031  1.3041 -0.8825
 5520TIP3    H238052   1.236   0.574  10.374 -2.0756 -0.2968 -3.4407
 5521TIP3   OH238053   2.847   1.638  17.117  0.3464  0.4655 -0.4254
 5521TIP3    H138054   2.824   1.731  17.122 -2.0823 -0.1293  2.4909
 5521TIP3    H238055   2.807   1.608  17.036 -1.6622  1.3794  0.1585
 5522TIP3   OH238056   5.900   1.360  15.481  0.1450  0.5573 -0.1684
 5522TIP3    H138057   5.937   1.342  15.395  1.3480 -0.5170  0.5409
 5522TIP3    H238058   5.975   1.381  15.536 -0.6972  2.1291  0.4330
 5523TIP3   OH238059   4.748   3.362  15.294  0.2387  0.3415 -0.4724
 5523TIP3    H138060   4.746   3.447  15.337  2.4189  0.5391 -0.6506
 5523TIP3    H238061   4.770   3.381  15.202 -1.4301 -0.2799 -1.0327
 5524TIP3   OH238062   3.711   0.401   2.495 -0.5191  0.0704  0.1391
 5524TIP3    H138063   3.650   0.347   2.445 -1.3496  0.9860  0.1305
 5524TIP3    H238064   3.696   0.377   2.586 -2.6192  1.9098  0.3630
 5525TIP3   OH238065   5.797   3.500  11.669 -0.0821 -0.3955  0.3602
 5525TIP3    H138066   5.740   3.575  11.686  2.7522  1.8991  0.5175
 5525TIP3    H238067   5.811   3.461  11.756  0.2119  0.3060  0.6355
 5526TIP3   OH238068   5.354   2.823   6.771  0.1663 -0.0071  0.3499
 5526TIP3    H138069   5.263   2.811   6.798 -0.7624  1.2862 -1.9116
 5526TIP3    H238070   5.378   2.739   6.731 -0.7741  0.2739 -0.8791
 5527TIP3   OH238071   2.926   0.252  11.670 -1.0724 -0.2122  0.1467
 5527TIP3    H138072   2.868   0.314  11.625  2.6218  2.8279 -0.9822
 5527TIP3    H238073   2.918   0.275  11.763 -0.7688  1.1211 -0.1291
 5528TIP3   OH238074   5.902   5.914   3.415 -0.3989 -0.2486  0.0985
 5528TIP3    H138075   5.808   5.926   3.418 -1.0845 -4.1831  0.2209
 5528TIP3    H238076   5.918   5.839   3.473  2.5874 -0.6373 -1.0576
 5529TIP3   OH238077   0.277   3.698   5.972 -0.4868 -0.4455 -0.0205
 5529TIP3    H138078   0.240   3.633   6.032 -2.6443  0.3120 -0.4393
 5529TIP3    H238079   0.237   3.781   5.999  0.3191  0.2903 -1.0275
 5530TIP3   OH238080   5.059   4.485   1.555  0.4107  0.1099 -0.1923
 5530TIP3    H138081   5.063   4.526   1.641 -1.4755  0.9209 -0.4458
 5530TIP3    H238082   5.054   4.558   1.494 -0.9129 -0.4540 -0.7885
 5531TIP3   OH238083   6.215   3.574  13.706 -0.1374  0.0608 -0.1572
 5531TIP3    H138084   6.236   3.640  13.640 -0.2248 -1.8216 -2.1828
 5531TIP3    H238085   6.164   3.621  13.772  0.4726  2.1589 -1.1095
 5532TIP3   OH238086   0.132   6.220  15.007  0.2508 -0.3182 -0.0442
 5532TIP3    H138087   0.149   6.212  15.100  0.2213 -0.3489 -0.0411
 5532TIP3    H238088   0.039   6.199  14.998  0.0428  0.5263  0.0341
 5533TIP3   OH238089   4.857   0.855  12.487 -0.2239 -0.3287  0.3297
 5533TIP3    H138090   4.883   0.917  12.555 -0.9343  0.5464 -0.1725
 5533TIP3    H238091   4.892   0.893  12.406  0.7969 -1.4647  0.2025
 5534TIP3   OH238092   1.032   5.864  13.557 -0.0360  0.0867 -0.2420
 5534TIP3    H138093   1.005   5.774  13.539  1.7406 -0.3653 -0.8023
 5534TIP3    H238094   1.124   5.857  13.584 -0.9453  1.2869  3.9414
 5535TIP3   OH238095   1.348   1.043   2.134 -0.4375  0.1518 -0.2251
 5535TIP3    H138096   1.393   1.074   2.055 -0.8866 -1.5677 -1.2067
 5535TIP3    H238097   1.419   1.026   2.197 -0.1469  2.6241  0.2160
 5536TIP3   OH238098   4.246   1.367   0.471 -0.3600 -0.1592  0.1308
 5536TIP3    H138099   4.288   1.428   0.532 -1.0996  0.7348 -0.2156
 5536TIP3    H238100   4.197   1.307   0.527 -1.3451  0.8897  0.4376
 5537TIP3   OH238101   5.358   1.241   4.538 -0.6240  0.2270 -0.1197
 5537TIP3    H138102   5.415   1.302   4.585 -1.1013  1.7074 -1.3589
 5537TIP3    H238103   5.417   1.187   4.486 -0.2846  2.2448 -1.9796
 5538TIP3   OH238104   3.046   6.342  15.842 -0.0348  0.0399 -0.3509
 5538TIP3    H138105   3.091   6.259  15.829  1.7336  0.9365 -0.2116
 5538TIP3    H238106   3.047   6.384  15.755 -0.1475  0.2875 -0.2337
 5539TIP3   OH238107   5.301   2.481  15.553 -0.0232  0.4186 -0.0063
 5539TIP3    H138108   5.315   2.386  15.559 -0.3760  0.4001  0.6300
 5539TIP3    H238109   5.372   2.512  15.497  1.8528  0.1639  2.0823
 5540TIP3   OH238110   4.247   1.907  14.209 -0.2270  0.4828 -0.4160
 5540TIP3    H138111   4.340   1.924  14.192 -0.3024  1.1194 -0.2284
 5540TIP3    H238112   4.246   1.852  14.287  0.0999 -1.9161 -2.0014
 5541TIP3   OH238113   0.286   0.804  16.087 -0.7096  0.5547 -0.0434
 5541TIP3    H138114   0.351   0.750  16.133 -1.4762  0.6362  1.1712
 5541TIP3    H238115   0.239   0.850  16.156 -1.8795  0.7159 -0.9092
 5542TIP3   OH238116   4.038   1.316  14.223 -0.5093  0.4424  0.3760
 5542TIP3    H138117   4.122   1.270  14.219 -0.9635 -0.3410 -1.0878
 5542TIP3    H238118   4.033   1.365  14.142 -1.7582 -0.0967  0.0905
 5543TIP3   OH238119   3.558   0.780  15.006 -0.3851 -0.3749 -0.6173
 5543TIP3    H138120   3.560   0.868  15.043 -0.4585  0.1139 -1.7159
 5543TIP3    H238121   3.499   0.731  15.063 -3.8706  1.4410 -2.3143
 5544TIP3   OH238122   4.577   5.796  14.986  0.0244 -0.5333  0.0644
 5544TIP3    H138123   4.591   5.822  15.077 -0.2362  0.2139 -0.1030
 5544TIP3    H238124   4.515   5.861  14.952 -0.2899 -1.1125 -0.4964
 5545TIP3   OH238125   4.681   4.521   1.448  0.0550 -1.0636  0.2923
 5545TIP3    H138126   4.737   4.534   1.524 -0.2406  0.2633  0.2984
 5545TIP3    H238127   4.599   4.565   1.470  0.1063 -0.2874 -0.9488
 5546TIP3   OH238128   4.503   6.174   4.730  0.3576 -0.4242 -0.0590
 5546TIP3    H138129   4.422   6.202   4.772 -0.0194 -1.3512 -0.1239
 5546TIP3    H238130   4.512   6.082   4.756  1.0497 -0.5108 -0.5755
 5547TIP3   OH238131   1.491   6.274   0.680 -0.3490 -0.2019 -0.0329
 5547TIP3    H138132   1.405   6.243   0.655  0.5730 -1.1310 -2.2510
 5547TIP3    H238133   1.482   6.370   0.684 -1.1158 -0.1563 -1.9200
 5548TIP3   OH238134   1.584   5.122   1.714  0.2973 -0.2555 -0.3777
 5548TIP3    H138135   1.527   5.077   1.652 -0.8825 -1.3213  1.3994
 5548TIP3    H238136   1.665   5.137   1.665 -0.8239 -0.4092 -2.3692
 5549TIP3   OH238137   6.604   2.286  13.656  0.7656  0.9445 -0.1240
 5549TIP3    H138138   6.582   2.377  13.677  1.5399  0.9969  0.4954
 5549TIP3    H238139   6.604   2.283  13.561 -1.8356  0.9474 -0.2158
 5550TIP3   OH238140   1.813   2.255  15.128 -0.0699 -0.4069  0.3688
 5550TIP3    H138141   1.726   2.256  15.089 -0.4512  3.6950  0.9100
 5550TIP3    H238142   1.805   2.308  15.207  2.6924 -0.9308  1.1251
 5551TIP3   OH238143   3.632   0.047  11.471  0.2691  1.1262  0.1455
 5551TIP3    H138144   3.549   0.034  11.517  1.7583 -3.5676  2.1834
 5551TIP3    H238145   3.614   0.022  11.380 -0.2314 -2.5842  1.1017
 5552TIP3   OH238146   1.782   4.732   4.323  0.0244 -0.6925  0.0610
 5552TIP3    H138147   1.792   4.726   4.228 -0.3224  0.5230 -0.0665
 5552TIP3    H238148   1.703   4.680   4.341 -1.3041  1.0071 -0.6340
 5553TIP3   OH238149   3.682   3.672  11.927 -0.0282 -0.1195 -0.1545
 5553TIP3    H138150   3.594   3.708  11.916  0.4132  1.1917  0.3616
 5553TIP3    H238151   3.689   3.654  12.021  1.0578  2.1318  0.2754
 5554TIP3   OH238152   5.884   6.296   0.728  0.3282 -0.1361 -0.2070
 5554TIP3    H138153   5.975   6.267   0.741 -0.2262 -2.1557 -0.5775
 5554TIP3    H238154   5.887   6.390   0.744  2.1260 -0.4470  1.7134
 5555TIP3   OH238155   2.058   4.649   3.012 -0.2501 -0.2354 -0.0129
 5555TIP3    H138156   2.014   4.709   2.952  1.0707  0.3845 -0.4083
 5555TIP3    H238157   2.078   4.703   3.089  0.4677 -0.2960 -0.1468
 5556TIP3   OH238158   5.570   3.218  14.132  0.4813  0.5650 -0.4515
 5556TIP3    H138159   5.586   3.255  14.046 -0.5433  0.1600 -0.8414
 5556TIP3    H238160   5.488   3.258  14.161  1.6592  1.9694  1.0889
 5557TIP3   OH238161   2.588   0.002  14.942  0.3476 -0.4043 -0.3058
 5557TIP3    H138162   2.667   0.049  14.915  0.6310  0.0613  1.2524
 5557TIP3    H238163   2.621  -0.081  14.977  0.1250 -0.2668  0.2217
 5558TIP3   OH238164   4.134   0.685   1.352 -0.4081 -0.0893 -0.3257
 5558TIP3    H138165   4.148   0.621   1.283  1.0302  1.4393 -1.5380
 5558TIP3    H238166   4.193   0.757   1.331 -1.7717  1.5575  1.1002
 5559TIP3   OH238167   0.293   0.611  11.835 -0.6430  0.0255  0.3303
 5559TIP3    H138168   0.254   0.590  11.750  0.3106 -0.2607 -0.0470
 5559TIP3    H238169   0.220   0.605  11.897 -1.5563  1.2006 -0.5944
 5560TIP3   OH238170   0.751   5.755  16.188 -0.3985  0.0475 -0.0320
 5560TIP3    H138171   0.769   5.663  16.206 -1.1240 -0.1306 -0.2077
 5560TIP3    H238172   0.787   5.769  16.100  0.1944  0.0808  0.2062
 5561TIP3   OH238173   2.234   3.048   0.229 -0.2875  0.6739  0.1578
 5561TIP3    H138174   2.254   3.063   0.322  0.6626 -0.1032  0.0958
 5561TIP3    H238175   2.166   2.981   0.230  1.1028 -0.7750  0.2727
 5562TIP3   OH238176   0.757   4.976  12.943  0.3825  0.2369  0.0215
 5562TIP3    H138177   0.815   5.042  12.905  0.0170  1.1865  1.0635
 5562TIP3    H238178   0.701   4.949  12.870  1.7647 -0.3351 -0.8832
 5563TIP3   OH238179   0.642   5.474   4.549 -0.1745 -0.6064 -0.0825
 5563TIP3    H138180   0.588   5.396   4.538  0.0938 -0.6464 -1.3755
 5563TIP3    H238181   0.585   5.538   4.591 -1.1277 -0.7640 -1.0991
 5564TIP3   OH238182   4.011   4.596   2.103 -0.0317  0.2550  0.1042
 5564TIP3    H138183   3.959   4.574   2.180  1.9536 -4.4381  0.4235
 5564TIP3    H238184   4.101   4.575   2.127  0.8686 -0.0485 -3.0069
 5565TIP3   OH238185   4.179   6.352   1.357 -0.7483 -0.2374  0.0419
 5565TIP3    H138186   4.229   6.315   1.284 -1.6916 -1.0367 -0.2207
 5565TIP3    H238187   4.126   6.279   1.389 -1.7553  0.5871  0.3032
 5566TIP3   OH238188   0.814   3.937  14.323  0.1625  0.0064 -0.0366
 5566TIP3    H138189   0.778   3.959  14.409  1.3184  0.0848  0.4479
 5566TIP3    H238190   0.738   3.929  14.266 -0.7123 -1.3851  1.2840
 5567TIP3   OH238191   3.523   2.270   5.561 -0.4440  0.4157  0.1446
 5567TIP3    H138192   3.550   2.248   5.650 -1.3920  0.2098  0.3905
 5567TIP3    H238193   3.605   2.283   5.514  0.0587  1.1215  1.1894
 5568TIP3   OH238194   4.267   6.590  16.342 -0.4352  0.2113  0.4522
 5568TIP3    H138195   4.241   6.633  16.261 -0.1461 -0.0100  0.2385
 5568TIP3    H238196   4.358   6.617  16.355  0.7624 -2.5346 -1.2176
 5569TIP3   OH238197   3.250   6.034  17.107 -0.2092 -0.2422 -0.5428
 5569TIP3    H138198   3.194   5.958  17.090 -1.5429  0.6474 -0.2378
 5569TIP3    H238199   3.192   6.110  17.096  1.6197  0.9165 -3.2919
 5570TIP3   OH238200   3.298   3.941   0.589 -0.2705  0.0042  0.0630
 5570TIP3    H138201   3.361   4.011   0.608  1.3100 -1.6484  1.1583
 5570TIP3    H238202   3.213   3.985   0.590  0.4989  1.6259  2.4308
 5571TIP3   OH238203   1.577   3.255  11.648  0.8463  0.4845  0.0056
 5571TIP3    H138204   1.554   3.187  11.584 -2.4110  0.7210  0.7810
 5571TIP3    H238205   1.652   3.300  11.608 -1.1706  0.8323 -3.8943
 5572TIP3   OH238206   2.421   2.381  15.772  0.2187 -0.1551 -0.5295
 5572TIP3    H138207   2.425   2.381  15.868  0.4781  1.3889 -0.5091
 5572TIP3    H238208   2.329   2.361  15.752  0.0760 -0.1067  0.0515
 5573TIP3   OH238209   0.643   2.520   5.178  0.1836 -0.1252 -0.0625
 5573TIP3    H138210   0.735   2.497   5.166 -0.2004 -0.9121 -1.8708
 5573TIP3    H238211   0.644   2.608   5.215  1.6670  0.3936 -1.2540
 5574TIP3   OH238212   4.179   3.577  16.697 -0.2729 -0.6923 -0.7646
 5574TIP3    H138213   4.112   3.539  16.755  0.9967 -1.1376  0.4497
 5574TIP3    H238214   4.129   3.635  16.639 -1.5281  0.5956  1.4346
 5575TIP3   OH238215   4.753   1.472   1.961 -0.1260 -0.3222 -0.3003
 5575TIP3    H138216   4.750   1.492   2.055 -0.9394 -0.3911 -0.3087
 5575TIP3    H238217   4.710   1.545   1.919 -0.2605 -0.5599 -0.5802
 5576TIP3   OH238218   2.672   0.669  13.042 -0.7001  0.0670 -0.2079
 5576TIP3    H138219   2.733   0.624  12.983 -0.7288 -0.9210  0.4946
 5576TIP3    H238220   2.726   0.735  13.086 -0.4437  0.1033 -0.5776
 5577TIP3   OH238221   0.130   3.116   5.303  0.6165  0.2472  0.3551
 5577TIP3    H138222   0.065   3.167   5.254  3.2530  1.4440 -2.1365
 5577TIP3    H238223   0.100   3.121   5.394 -3.4024 -0.3386 -0.7241
 5578TIP3   OH238224   1.513   2.549  14.571 -0.3371  0.0320  0.2170
 5578TIP3    H138225   1.533   2.628  14.521 -2.4618  0.7822  0.4620
 5578TIP3    H238226   1.552   2.565  14.657  0.0605  0.4028 -0.0300
 5579TIP3   OH238227   0.915   4.669  11.667 -0.1096  0.0830  0.5194
 5579TIP3    H138228   1.004   4.685  11.699 -0.2019  1.8942  0.0026
 5579TIP3    H238229   0.866   4.640  11.744  0.6254  0.3279  1.0928
 5580TIP3   OH238230   4.648   0.219   2.010  1.0005 -0.5257  0.0657
 5580TIP3    H138231   4.645   0.265   1.926  1.4387  0.3271  0.5062
 5580TIP3    H238232   4.557   0.217   2.039  0.8846 -0.5751 -0.2908
 5581TIP3   OH238233   1.587   4.744  12.026 -0.0944 -0.2125  0.0085
 5581TIP3    H138234   1.552   4.711  12.109 -2.6447 -1.0440 -1.2869
 5581TIP3    H238235   1.581   4.839  12.035  1.5596 -0.1996  1.4765
 5582TIP3   OH238236   4.004   5.355   2.894  0.1563  0.5539  0.3826
 5582TIP3    H138237   4.087   5.360   2.848  0.9697  0.8221  1.8256
 5582TIP3    H238238   4.000   5.266   2.929  1.5014  1.4557  3.1755
 5583TIP3   OH238239   2.150   0.501   5.279  0.0891 -0.1054 -0.1797
 5583TIP3    H138240   2.232   0.469   5.316 -0.1908 -3.3298 -1.9968
 5583TIP3    H238241   2.176   0.559   5.208  0.8447 -1.0204 -0.6723
 5584TIP3   OH238242   3.082   0.176  15.030 -0.2942 -0.0702 -0.1282
 5584TIP3    H138243   3.116   0.261  15.056 -0.0603  0.3277 -1.6270
 5584TIP3    H238244   3.150   0.114  15.057  1.2208  0.5990 -2.0862
 5585TIP3   OH238245   4.258   5.590  13.089  0.8267  0.0771 -0.3110
 5585TIP3    H138246   4.277   5.617  12.999 -1.3753 -0.1103 -0.8878
 5585TIP3    H238247   4.250   5.495  13.084  1.4862 -0.0184  0.2693
 5586TIP3   OH238248   0.528   6.081  13.228  0.2803  0.5044 -0.2584
 5586TIP3    H138249   0.525   6.116  13.318  0.0055 -0.5942  0.1740
 5586TIP3    H238250   0.499   6.154  13.174  1.5896  1.5697  0.4190
 5587TIP3   OH238251   4.279   4.810   2.723 -0.2873 -0.0342 -0.4411
 5587TIP3    H138252   4.260   4.887   2.777 -1.4975  0.3638 -1.3822
 5587TIP3    H238253   4.300   4.741   2.786 -0.7208  0.6705  0.4996
 5588TIP3   OH238254   6.743   4.541  15.401 -0.5426 -0.5087 -0.9369
 5588TIP3    H138255   6.667   4.530  15.344 -0.2635  0.5509 -1.5519
 5588TIP3    H238256   6.707   4.551  15.488 -1.3276  2.1209 -1.4642
 5589TIP3   OH238257   0.265   3.591  13.382 -0.1513 -0.2784 -0.5189
 5589TIP3    H138258   0.310   3.658  13.331  1.4443 -1.1806 -0.3603
 5589TIP3    H238259   0.304   3.597  13.469  1.2262 -2.4306 -0.9111
 5590TIP3   OH238260   5.995   5.723  13.803  0.2113 -0.8170 -0.3049
 5590TIP3    H138261   5.972   5.672  13.880 -0.1432 -1.3207 -0.7398
 5590TIP3    H238262   6.089   5.710  13.794  0.2715 -0.6826  0.0899
 5591TIP3   OH238263   3.386   1.174  13.319 -0.3155  0.2499 -0.5696
 5591TIP3    H138264   3.463   1.170  13.374 -0.5150 -1.1501 -0.3551
 5591TIP3    H238265   3.313   1.182  13.381 -0.4492 -0.0383 -0.6888
 5592TIP3   OH238266   6.174   4.837   2.156 -0.3326 -0.1497 -0.1773
 5592TIP3    H138267   6.157   4.918   2.108  1.5815 -0.2005 -1.0524
 5592TIP3    H238268   6.197   4.866   2.245  0.3087  0.2948 -0.4785
 5593TIP3   OH238269   2.342   0.245  13.946 -0.6384 -0.0726  0.2416
 5593TIP3    H138270   2.278   0.263  13.878  0.3765 -0.0614 -0.7493
 5593TIP3    H238271   2.302   0.176  14.000 -0.4530 -2.0136 -1.9326
 5594TIP3   OH238272   3.546   3.595  16.182 -0.0566 -0.1367 -0.1593
 5594TIP3    H138273   3.565   3.653  16.256 -1.4975  0.2150 -0.0312
 5594TIP3    H238274   3.624   3.542  16.173  0.3406  0.1402  1.3208
 5595TIP3   OH238275   3.882   2.475  14.050  0.3602  0.4199 -0.1396
 5595TIP3    H138276   3.948   2.450  14.115  1.2615  0.8582 -0.8747
 5595TIP3    H238277   3.799   2.469  14.098  0.5163 -3.2697 -0.0303
 5596TIP3   OH238278   0.986   5.541   2.285  0.5937  0.1773  0.2331
 5596TIP3    H138279   0.962   5.452   2.313 -0.3076  0.3414  0.0277
 5596TIP3    H238280   0.968   5.542   2.191  2.0823  0.1177 -0.0661
 5597TIP3   OH238281   6.486   2.221  14.244  0.6282 -0.1706 -0.1549
 5597TIP3    H138282   6.570   2.259  14.218 -0.3941  2.0594 -0.4820
 5597TIP3    H238283   6.500   2.189  14.333  1.7287  0.5396 -0.0634
 5598TIP3   OH238284   0.012   3.485  14.983 -0.4326 -0.1123 -0.0494
 5598TIP3    H138285  -0.016   3.453  14.897 -1.3397  1.3273 -0.3347
 5598TIP3    H238286   0.099   3.448  14.996 -0.6889 -1.1423 -1.1525
 5599TIP3   OH238287   0.057   6.797   3.689 -0.1260  0.5243 -1.0117
 5599TIP3    H138288   0.076   6.793   3.595  2.8422  1.0180 -0.5057
 5599TIP3    H238289   0.115   6.865   3.723 -0.7609 -0.0000  1.3001
 5600TIP3   OH238290   0.261   2.724   5.778 -0.1720  0.2178  0.6072
 5600TIP3    H138291   0.335   2.756   5.726 -1.9030  1.1158 -1.4708
 5600TIP3    H238292   0.217   2.803   5.808 -2.3036 -0.1379 -1.3003
 5601TIP3   OH238293   3.996   6.150  12.220  0.0046  0.0212 -0.2027
 5601TIP3    H138294   4.050   6.198  12.157  1.2725  1.1152  1.6193
 5601TIP3    H238295   3.924   6.210  12.240  0.6182  0.4597  0.7460
 5602TIP3   OH238296   2.482   1.634   1.161  0.3312  0.2718  0.2836
 5602TIP3    H138297   2.508   1.672   1.078  0.9225 -1.0331 -0.1531
 5602TIP3    H238298   2.392   1.605   1.147  0.9317 -1.3519 -0.4440
 5603TIP3   OH238299   2.951   4.378  15.218 -0.1909 -0.5110  0.2407
 5603TIP3    H138300   2.961   4.466  15.181  0.3384 -0.9567 -0.6918
 5603TIP3    H238301   3.037   4.358  15.256 -0.1576 -0.8251  0.0016
 5604TIP3   OH238302   1.278   4.554  13.263  0.3443 -0.0301  0.5561
 5604TIP3    H138303   1.213   4.624  13.254 -2.0316 -1.6364  3.2290
 5604TIP3    H238304   1.267   4.501  13.184 -0.5160  0.5887  0.2444
 5605TIP3   OH238305   5.395   6.481   3.261  0.3285 -0.0545  0.2075
 5605TIP3    H138306   5.365   6.563   3.301  1.2886  0.0262  0.7894
 5605TIP3    H238307   5.324   6.455   3.202 -0.0623  1.0971  0.1585
 5606TIP3   OH238308   0.364   6.293  16.680 -0.4130 -0.0796 -0.3655
 5606TIP3    H138309   0.369   6.377  16.727  0.0644  0.2939 -1.0635
 5606TIP3    H238310   0.441   6.293  16.623  0.0227 -1.3393  0.1800
 5607TIP3   OH238311   6.275   2.209   5.174 -0.4341  0.2541  0.5859
 5607TIP3    H138312   6.342   2.169   5.229 -0.6917 -0.2409  0.5441
 5607TIP3    H238313   6.225   2.264   5.235 -0.7052 -0.2748  0.8495
 5608TIP3   OH238314   6.378   4.733  14.433  0.3107  0.2050 -0.0608
 5608TIP3    H138315   6.343   4.653  14.471  1.6854 -0.8243 -0.8611
 5608TIP3    H238316   6.447   4.760  14.493 -0.0752  0.7363  0.1502
 5609TIP3   OH238317   3.964   6.202   1.907  0.7008 -0.0083  0.0286
 5609TIP3    H138318   3.935   6.116   1.878  0.3180  0.0937  0.1086
 5609TIP3    H238319   3.925   6.213   1.994  3.4450 -1.1398  1.5166
 5610TIP3   OH238320   4.962   0.143  16.700  0.2817 -0.1019 -0.0835
 5610TIP3    H138321   4.899   0.215  16.713  0.6117 -0.0445  1.3005
 5610TIP3    H238322   4.936   0.077  16.763 -0.5166 -1.6073 -1.8794
 5611TIP3   OH238323   3.909   2.133   2.135  0.0197  0.0750  0.2817
 5611TIP3    H138324   3.819   2.107   2.113 -0.1172  0.6080  0.1954
 5611TIP3    H238325   3.945   2.166   2.053  0.7465 -1.3607 -0.0104
 5612TIP3   OH238326   1.147   3.477   1.453  0.6165 -0.1836  0.2584
 5612TIP3    H138327   1.106   3.547   1.505  1.4157  0.1295  0.4882
 5612TIP3    H238328   1.154   3.403   1.514  0.6064 -0.1572  0.2916
 5613TIP3   OH238329   1.341   1.307   4.071  0.1667 -0.2120 -0.0272
 5613TIP3    H138330   1.367   1.393   4.104 -0.1647 -0.1241  0.0122
 5613TIP3    H238331   1.423   1.259   4.061  0.2291 -0.5140  1.6774
 5614TIP3   OH238332   3.735   2.416  16.349  0.3553 -0.2150 -0.0468
 5614TIP3    H138333   3.675   2.346  16.376  0.3650  0.1000  0.8148
 5614TIP3    H238334   3.806   2.413  16.412  0.5876  0.2791 -0.2784
 5615TIP3   OH238335   5.854   1.708  13.902 -0.1451 -0.1109 -0.6531
 5615TIP3    H138336   5.901   1.723  13.820  0.4839  0.4015 -0.2187
 5615TIP3    H238337   5.840   1.614  13.905  0.4661 -0.2210 -1.0157
 5616TIP3   OH238338   5.044   1.522  17.111 -0.4679  0.3649  0.1135
 5616TIP3    H138339   5.137   1.537  17.091 -0.6421  0.9667 -0.2615
 5616TIP3    H238340   5.046   1.467  17.189  0.2109 -0.7221 -0.6484
 5617TIP3   OH238341   0.806   1.784  16.115  0.3635 -0.1222 -0.0358
 5617TIP3    H138342   0.786   1.873  16.086 -1.2055 -0.2362  0.5993
 5617TIP3    H238343   0.722   1.749  16.146  1.4039 -0.9761  2.0106
 5618TIP3   OH238344   5.746   3.769  14.923 -0.4628  0.1470  1.0361
 5618TIP3    H138345   5.824   3.770  14.868 -0.3736  0.7767  1.1674
 5618TIP3    H238346   5.674   3.786  14.863 -0.4122  0.3814  1.0410
 5619TIP3   OH238347   3.044   5.900   5.601 -0.3137  0.6067 -0.0563
 5619TIP3    H138348   3.098   5.822   5.615 -1.5846 -0.5155 -1.0591
 5619TIP3    H238349   2.965   5.884   5.651  0.2206  2.2355  1.4002
 5620TIP3   OH238350   1.735   1.038   5.140  0.6314 -0.5150  1.2018
 5620TIP3    H138351   1.818   1.070   5.174  0.5680 -0.3124  1.1699
 5620TIP3    H238352   1.754   1.011   5.051  0.1430  1.9259  0.2739
 5621TIP3   OH238353   0.487   3.139   4.466  0.8095 -0.5046 -0.3369
 5621TIP3    H138354   0.546   3.181   4.529 -0.1488 -0.4217  0.5334
 5621TIP3    H238355   0.519   3.168   4.381 -0.4259  2.9922  0.2178
 5622TIP3   OH238356   0.151   3.865  13.698  0.2626  0.1219 -0.1994
 5622TIP3    H138357   0.215   3.936  13.702  0.4903 -0.0320 -0.9611
 5622TIP3    H238358   0.101   3.882  13.619 -0.3755  0.0115  0.1734
 5623TIP3   OH238359   4.132   3.582  16.107  0.1664  0.3482  0.0407
 5623TIP3    H138360   4.045   3.576  16.068  0.3892  0.6428 -0.5196
 5623TIP3    H238361   4.192   3.575  16.032  0.5910  1.5434  0.2437
 5624TIP3   OH238362   2.019   1.092  15.003  0.5681  0.9131  0.0017
 5624TIP3    H138363   2.071   1.012  14.995 -1.5163 -0.7428  1.9004
 5624TIP3    H238364   1.974   1.100  14.919 -0.6010 -1.0131  0.3848
 5625TIP3   OH238365   1.491   6.197  15.498 -0.5382  0.3371 -0.0007
 5625TIP3    H138366   1.488   6.111  15.542  2.1249 -0.3524 -0.9894
 5625TIP3    H238367   1.410   6.240  15.526 -2.2035 -2.6173  0.2244
 5626TIP3   OH238368   4.581   2.557   5.066 -0.5404 -0.0578 -0.0039
 5626TIP3    H138369   4.530   2.479   5.043  0.3389 -0.4702 -0.6109
 5626TIP3    H238370   4.640   2.569   4.991  2.0677 -1.1220  1.7517
 5627TIP3   OH238371   6.288   4.256  12.513 -0.2177  0.3727  0.1861
 5627TIP3    H138372   6.253   4.182  12.563  0.7587 -1.1785 -1.3239
 5627TIP3    H238373   6.366   4.282  12.561 -1.3921  1.5126  1.5853
 5628TIP3   OH238374   1.513   1.180   1.200 -0.6808 -0.2064 -0.0649
 5628TIP3    H138375   1.516   1.194   1.106 -1.4471  1.3234  0.1010
 5628TIP3    H238376   1.455   1.105   1.212 -0.6446 -0.3584 -0.8088
 5629TIP3   OH238377   3.444   0.497  12.657  0.3092 -0.0717  0.5777
 5629TIP3    H138378   3.439   0.480  12.751  1.8894  2.8366  1.3152
 5629TIP3    H238379   3.393   0.578  12.645  0.3146 -0.2897 -1.0313
 5630TIP3   OH238380   4.406   5.995  14.934  0.4470 -0.5112 -0.6541
 5630TIP3    H138381   4.380   6.041  14.855  2.0024  1.4598 -0.1003
 5630TIP3    H238382   4.330   6.003  14.992  0.1359  0.0192 -1.1249
 5631TIP3   OH238383   5.777   6.719  15.497  0.3394 -0.1329 -0.1088
 5631TIP3    H138384   5.773   6.661  15.573 -1.5291  0.9642  0.6969
 5631TIP3    H238385   5.870   6.733  15.481  0.7684 -0.6402  1.7733
 5632TIP3   OH238386   4.186   4.438   0.069  0.1396  0.5097  0.2396
 5632TIP3    H138387   4.236   4.519   0.060  0.5573  0.1088 -1.3047
 5632TIP3    H238388   4.252   4.368   0.063 -0.5999 -0.0691 -2.7447
 5633TIP3   OH238389   4.037   0.995   2.592  0.5805  0.5018 -0.0206
 5633TIP3    H138390   3.997   0.972   2.676 -2.7242  2.2589 -0.9402
 5633TIP3    H238391   4.058   1.088   2.599  2.6433  0.1163 -0.3616
 5634TIP3   OH238392   6.815   5.609   2.904  0.4773  0.0922 -0.1191
 5634TIP3    H138393   6.744   5.606   2.969  0.7704 -1.5095  0.1783
 5634TIP3    H238394   6.888   5.650   2.951  0.6309 -0.8915  0.5311
 5635TIP3   OH238395   2.559   4.048   4.452 -0.1514 -0.1872 -0.2523
 5635TIP3    H138396   2.520   4.068   4.367 -1.7902  0.6471  0.6282
 5635TIP3    H238397   2.653   4.040   4.435 -0.5766 -1.4321 -2.3497
 5636TIP3   OH238398   1.406   3.902   5.114 -0.4945  0.4744  1.0493
 5636TIP3    H138399   1.450   3.987   5.108  1.6836 -0.6507 -0.8801
 5636TIP3    H238400   1.324   3.913   5.066  0.8306  0.9654 -1.2561
 5637TIP3   OH238401   5.991   3.434   5.186  0.5617  0.0431 -0.1678
 5637TIP3    H138402   6.045   3.455   5.262 -1.3245  1.8966  0.7670
 5637TIP3    H238403   5.979   3.339   5.191 -0.2698  0.2132  2.4487
 5638TIP3   OH238404   1.980   4.739   1.509  0.5609  0.4506  0.3052
 5638TIP3    H138405   1.990   4.823   1.466  1.4040  0.7868  1.1279
 5638TIP3    H238406   2.044   4.682   1.466 -0.4699  0.0278 -0.7062
 5639TIP3   OH238407   2.121   4.448  14.270  0.0550  0.3810 -0.2827
 5639TIP3    H138408   2.104   4.541  14.254 -1.9153  0.5123  2.1892
 5639TIP3    H238409   2.109   4.436  14.364 -0.5539 -2.5588 -0.6397
 5640TIP3   OH238410   3.369   4.397  11.071  0.7463  0.5272  0.2805
 5640TIP3    H138411   3.278   4.369  11.083  0.8584  1.1506  3.7273
 5640TIP3    H238412   3.376   4.418  10.978 -2.2310 -0.8007 -0.3646
 5641TIP3   OH238413   5.488   3.948   4.252  0.2747  0.4176 -0.4416
 5641TIP3    H138414   5.504   3.964   4.345  1.8438 -0.4984 -0.5061
 5641TIP3    H238415   5.446   3.862   4.250  1.7549 -0.3296 -0.6346
 5642TIP3   OH238416   3.674   3.585   4.265 -0.4810 -0.2383 -0.0682
 5642TIP3    H138417   3.634   3.608   4.349 -2.6618 -0.1399 -1.0668
 5642TIP3    H238418   3.693   3.669   4.224 -0.6522 -0.2715 -0.2173
 5643TIP3   OH238419   0.590   0.759   1.028 -0.6080 -0.0070  0.1881
 5643TIP3    H138420   0.635   0.681   0.995  0.8919  0.7749  0.3254
 5643TIP3    H238421   0.612   0.828   0.965 -0.1537  0.7993  1.2037
 5644TIP3   OH238422   4.986   0.043  13.260  0.2518 -0.1390 -0.0092
 5644TIP3    H138423   5.037  -0.029  13.222 -1.3328 -1.6757  0.6104
 5644TIP3    H238424   4.895   0.020  13.240 -0.3193  1.5402  0.5190
 5645TIP3   OH238425   6.517   2.404   2.972  0.1097  0.1418 -0.5658
 5645TIP3    H138426   6.451   2.454   3.021 -0.4881 -1.1061 -0.0455
 5645TIP3    H238427   6.594   2.404   3.029  0.3101  0.9505 -0.8290
 5646TIP3   OH238428   1.734   0.175  12.515 -0.1827  0.2775  0.1431
 5646TIP3    H138429   1.663   0.240  12.522  0.4612  0.8560  1.8581
 5646TIP3    H238430   1.689   0.094  12.491 -1.4710  0.6214  1.2248
 5647TIP3   OH238431   0.059   5.784  16.969  0.0466 -0.1093 -0.3614
 5647TIP3    H138432  -0.002   5.723  16.928 -0.7160  0.4434 -0.0837
 5647TIP3    H238433   0.129   5.729  17.004 -1.7744 -1.1400  1.9558
 5648TIP3   OH238434   3.059   6.344  14.747 -0.3117 -0.5661 -0.2748
 5648TIP3    H138435   3.115   6.330  14.670 -0.1636  0.1433 -0.3002
 5648TIP3    H238436   3.019   6.429  14.732 -0.9120 -0.7851  0.0532
 5649TIP3   OH238437   1.454   3.646  14.422  0.3546 -0.4358  0.7179
 5649TIP3    H138438   1.369   3.607  14.407  0.3799  0.0668 -0.9714
 5649TIP3    H238439   1.480   3.617  14.509 -0.6705 -2.1882  0.4695
 5650TIP3   OH238440   5.527   3.649  12.871  0.1547  0.4537 -0.0353
 5650TIP3    H138441   5.565   3.561  12.871  0.7125  0.6884  0.0499
 5650TIP3    H238442   5.589   3.701  12.922 -0.9107  0.5895  1.1502
 5651TIP3   OH238443   1.701   5.045  16.842 -0.0443 -0.9686 -0.1117
 5651TIP3    H138444   1.687   5.059  16.748 -0.6745 -2.0129 -0.1858
 5651TIP3    H238445   1.670   4.956  16.858  0.9585 -1.1574  0.9124
 5652TIP3   OH238446   3.059   2.567   4.046  0.2821 -0.2764 -0.0832
 5652TIP3    H138447   3.074   2.507   3.972 -0.3207 -1.2792  0.5818
 5652TIP3    H238448   3.146   2.603   4.065  0.4204  0.1484 -1.3817
 5653TIP3   OH238449   1.538   3.396  16.719  0.0807  0.2181 -0.4153
 5653TIP3    H138450   1.465   3.364  16.772 -0.8018  0.5687 -1.3836
 5653TIP3    H238451   1.612   3.339  16.743 -0.7127 -0.6622  0.0099
 5654TIP3   OH238452   5.542   0.069   0.598  0.0429 -0.0633 -0.1971
 5654TIP3    H138453   5.535  -0.026   0.586  0.7328 -0.3317  1.2572
 5654TIP3    H238454   5.627   0.081   0.642 -0.2151  1.1937 -0.0123
 5655TIP3   OH238455   2.856   3.628  15.762 -0.7174 -0.7534 -0.2076
 5655TIP3    H138456   2.846   3.723  15.758 -3.7845 -0.9591  0.3576
 5655TIP3    H238457   2.893   3.611  15.848  0.3106 -0.1029 -0.4961
 5656TIP3   OH238458   5.131   1.771   4.929  0.3544  0.5782 -0.1550
 5656TIP3    H138459   5.087   1.690   4.957 -1.3555  1.9713  1.4081
 5656TIP3    H238460   5.210   1.775   4.982  0.8592 -0.4182 -0.7929
 5657TIP3   OH238461   1.851   6.293   1.192 -0.0305 -0.3853  0.3157
 5657TIP3    H138462   1.816   6.260   1.275 -0.3230 -0.8262  0.0181
 5657TIP3    H238463   1.874   6.214   1.143 -0.2240 -0.1333 -0.1819
 5658TIP3   OH238464   5.094   3.440   5.246 -0.7481  0.0139 -0.0956
 5658TIP3    H138465   5.057   3.480   5.325 -0.4988  0.4084 -0.1799
 5658TIP3    H238466   5.059   3.492   5.174  0.3298  0.6799 -0.1532
 5659TIP3   OH238467   6.384   0.375  15.607  0.0433 -0.4662 -0.0117
 5659TIP3    H138468   6.341   0.371  15.521 -1.8451  0.9505  0.7894
 5659TIP3    H238469   6.453   0.440  15.596  1.3191 -1.9110 -1.0029
 5660TIP3   OH238470   2.520   2.678   3.039 -0.3275 -0.1094 -0.4836
 5660TIP3    H138471   2.427   2.678   3.062 -0.2412  1.9557  0.0066
 5660TIP3    H238472   2.536   2.766   3.006  1.0841 -0.9584 -2.2392
 5661TIP3   OH238473   4.767   0.333  11.121  0.7239 -0.6852 -0.1706
 5661TIP3    H138474   4.845   0.281  11.107  1.4950 -0.1770  1.8095
 5661TIP3    H238475   4.785   0.382  11.201 -0.9671  0.7123 -0.5712
 5662TIP3   OH238476   0.504   3.427  11.420 -0.0288  0.4032  0.6093
 5662TIP3    H138477   0.449   3.350  11.430  0.1414  0.1632 -0.1801
 5662TIP3    H238478   0.503   3.444  11.325  1.4761  0.2149  0.5407
 5663TIP3   OH238479   2.490   3.937  11.895  0.2501  0.5723 -0.4917
 5663TIP3    H138480   2.477   4.028  11.869 -1.5861  0.1807 -1.0927
 5663TIP3    H238481   2.559   3.904  11.836  1.3296  1.6794  0.0991
 5664TIP3   OH238482   0.614   4.861  11.707  0.5844  0.0882  0.0023
 5664TIP3    H138483   0.672   4.844  11.781  2.2817 -1.2691 -1.5431
 5664TIP3    H238484   0.619   4.956  11.695 -0.0187  0.3869  1.8143
 5665TIP3   OH238485   0.999   0.473   0.048  0.4346 -0.4619 -0.9762
 5665TIP3    H138486   0.963   0.421   0.120  0.5157  0.9506  0.1319
 5665TIP3    H238487   0.982   0.421  -0.030 -0.0332 -1.8485  0.0172
 5666TIP3   OH238488   4.084   1.392   3.743  0.4115 -0.0090  0.3541
 5666TIP3    H138489   4.128   1.435   3.816 -2.3711  0.4589  1.8861
 5666TIP3    H238490   4.061   1.463   3.683  1.4737 -0.2269 -0.3379
 5667TIP3   OH238491   4.403   4.060   0.417  0.0084 -0.2583  0.5603
 5667TIP3    H138492   4.498   4.060   0.404  0.1392 -1.8229  1.3301
 5667TIP3    H238493   4.390   4.017   0.502 -1.4051 -0.4102  0.2914
 5668TIP3   OH238494   2.881   6.179  10.629 -0.2612 -0.4546  0.4014
 5668TIP3    H138495   2.923   6.248  10.681  1.0885 -0.7552 -0.2364
 5668TIP3    H238496   2.901   6.099  10.676  0.3574 -0.6543 -0.1834
 5669TIP3   OH238497   3.701   4.530   1.928  0.1808 -0.3446  0.0889
 5669TIP3    H138498   3.657   4.468   1.986 -4.3543  1.0455 -1.4623
 5669TIP3    H238499   3.737   4.476   1.858 -1.4215 -1.4548  0.0863
 5670TIP3   OH238500   0.263   3.794  14.714 -0.3126 -0.2050 -0.0452
 5670TIP3    H138501   0.350   3.825  14.689 -0.8788  0.1697 -1.6581
 5670TIP3    H238502   0.247   3.719  14.657 -1.1372 -0.1474  0.1049
 5671TIP3   OH238503   4.094   6.561   1.945  0.4052  0.3015  0.5762
 5671TIP3    H138504   4.127   6.532   2.030 -0.1233 -1.0012  0.3756
 5671TIP3    H238505   4.127   6.494   1.884  0.2022  0.8415 -0.1288
 5672TIP3   OH238506   4.599   6.769   6.107 -0.3725  0.4388  0.1782
 5672TIP3    H138507   4.523   6.827   6.102  0.4417  1.7430  2.0208
 5672TIP3    H238508   4.651   6.802   6.180  0.2196 -2.5607  1.2746
 5673TIP3   OH238509   0.993   5.408  10.991 -0.0228 -0.2713 -0.0394
 5673TIP3    H138510   0.988   5.454  10.907  1.6362  0.8886  0.4302
 5673TIP3    H238511   1.044   5.330  10.973 -1.1431 -0.9328 -0.4362
 5674TIP3   OH238512   4.757   4.835   4.904 -0.3555 -0.9749 -0.3201
 5674TIP3    H138513   4.669   4.866   4.881 -0.5471  1.0493  2.4915
 5674TIP3    H238514   4.748   4.804   4.994  1.8412 -0.3646  0.1784
 5675TIP3   OH238515   3.633   5.726  16.450 -0.0761 -0.6051 -0.4846
 5675TIP3    H138516   3.724   5.755  16.446 -0.2487  0.3075  1.2337
 5675TIP3    H238517   3.611   5.703  16.360  1.8218 -0.7700 -0.9360
 5676TIP3   OH238518   0.167   3.263   5.645 -1.0650 -0.0764 -0.7022
 5676TIP3    H138519   0.181   3.180   5.691  1.7683  1.8923  2.4681
 5676TIP3    H238520   0.246   3.275   5.592  0.3037  1.9967  1.5796
 5677TIP3   OH238521   5.338   2.858   1.040 -0.1144 -0.9080  0.6310
 5677TIP3    H138522   5.330   2.846   0.945  0.8144  1.1948  0.2111
 5677TIP3    H238523   5.426   2.896   1.051 -0.8909  0.6062  2.1019
 5678TIP3   OH238524   5.640   4.199   3.832 -0.4198 -0.3602 -0.2059
 5678TIP3    H138525   5.601   4.174   3.916 -0.5219  0.7912  0.1113
 5678TIP3    H238526   5.733   4.176   3.840 -0.7428 -1.9180 -0.4812
 5679TIP3   OH238527   2.868   2.274   1.818  0.0584 -0.5392  0.2858
 5679TIP3    H138528   2.863   2.186   1.855 -0.2154 -0.6340  0.0312
 5679TIP3    H238529   2.895   2.260   1.727 -1.5514 -0.4838 -0.2330
 5680TIP3   OH238530   4.821   5.880  16.565 -0.5643  0.2700 -0.3102
 5680TIP3    H138531   4.826   5.951  16.628 -0.7347  0.6736 -0.7473
 5680TIP3    H238532   4.728   5.872  16.544 -0.4561  0.4832 -0.8939
 5681TIP3   OH238533   3.050   1.262  13.708 -0.6165 -0.6747  0.3031
 5681TIP3    H138534   3.015   1.248  13.796 -0.4257 -0.6486  0.3855
 5681TIP3    H238535   3.131   1.312  13.723 -0.3457 -1.0655  0.1470
 5682TIP3   OH238536   1.043   0.924   5.693 -0.2628  0.3698 -0.3542
 5682TIP3    H138537   1.042   0.987   5.765  2.1120 -0.6304  0.6567
 5682TIP3    H238538   0.976   0.859   5.716 -2.3957  2.1447 -1.1750
 5683TIP3   OH238539   2.992   3.770   2.399 -0.0689  0.2160  0.6310
 5683TIP3    H138540   3.012   3.693   2.345 -2.3755  0.2656 -0.4326
 5683TIP3    H238541   2.975   3.734   2.486  1.5977 -0.1241  0.8381
 5684TIP3   OH238542   5.577   4.345   3.360 -0.0987 -0.2129  0.6128
 5684TIP3    H138543   5.580   4.366   3.453  1.3823 -0.4907  0.6436
 5684TIP3    H238544   5.510   4.277   3.353 -1.2784  0.8375  1.2377
 5685TIP3   OH238545   6.801   0.580   2.589 -0.5646 -0.0487 -0.7992
 5685TIP3    H138546   6.725   0.564   2.533 -0.7917  1.9972 -1.1559
 5685TIP3    H238547   6.764   0.582   2.678 -0.5706 -1.0889 -0.7689
 5686TIP3   OH238548   6.387   3.241   4.313 -0.7161  0.1150 -0.1916
 5686TIP3    H138549   6.408   3.296   4.389 -0.5202  0.0885 -0.2255
 5686TIP3    H238550   6.455   3.173   4.314  0.5884  1.3431 -1.6526
 5687TIP3   OH238551   0.062   5.108   2.715  0.2346 -0.0581  0.0429
 5687TIP3    H138552   0.082   5.132   2.805 -1.0199  1.0192  0.0656
 5687TIP3    H238553   0.026   5.188   2.676  1.8449 -0.1530 -1.7722
 5688TIP3   OH238554   5.695   6.176   4.717  0.3133 -0.4133  0.7848
 5688TIP3    H138555   5.686   6.157   4.811  1.2530  1.8066  1.3907
 5688TIP3    H238556   5.613   6.220   4.694  0.3039 -0.4772  0.6975
 5689TIP3   OH238557   6.774   0.915  15.799 -0.0710 -0.0193 -0.2202
 5689TIP3    H138558   6.852   0.860  15.789 -0.3381 -0.0401 -2.6663
 5689TIP3    H238559   6.716   0.887  15.729 -0.9441  2.1924 -0.4488
 5690TIP3   OH238560   5.507   4.397  13.962  0.7108  0.5584 -0.5117
 5690TIP3    H138561   5.569   4.329  13.986 -2.1251 -0.6316  5.2075
 5690TIP3    H238562   5.531   4.473  14.016 -0.9661  1.1259 -0.4897
 5691TIP3   OH238563   0.957   2.532  16.997  0.2168  0.2447 -0.3781
 5691TIP3    H138564   0.866   2.562  16.999  0.3084  0.5301 -0.4934
 5691TIP3    H238565   0.959   2.468  16.926 -0.6303 -2.1536  1.6182
 5692TIP3   OH238566   1.000   6.112  15.669 -0.5630 -0.1208  0.0001
 5692TIP3    H138567   1.056   6.186  15.644 -1.8399  0.6076 -0.8177
 5692TIP3    H238568   1.024   6.094  15.760  1.1283  0.0265 -0.3792
 5693TIP3   OH238569   3.325   1.687   5.449  0.3403 -0.2611  0.2259
 5693TIP3    H138570   3.268   1.760   5.472 -0.7862 -0.3344 -2.0803
 5693TIP3    H238571   3.365   1.661   5.532 -0.5833  1.8050  1.4008
 5694TIP3   OH238572   1.439   5.684  11.079  0.4435 -0.1346  0.5445
 5694TIP3    H138573   1.364   5.625  11.065  0.4031  0.3403 -1.6041
 5694TIP3    H238574   1.400   5.766  11.109 -0.1792  0.6471 -2.0908
 5695TIP3   OH238575   5.245   3.872  13.287 -0.4265 -0.1758  0.4244
 5695TIP3    H138576   5.295   3.898  13.210 -2.5581 -0.5042 -1.1665
 5695TIP3    H238577   5.310   3.862  13.356  1.6848 -0.5909 -1.5096
 5696TIP3   OH238578   1.766   6.317  16.403  0.3794 -0.4299  0.2934
 5696TIP3    H138579   1.759   6.230  16.362  1.4642  0.5303 -2.0885
 5696TIP3    H238580   1.784   6.298  16.495 -0.6077 -2.7094  0.1078
 5697TIP3   OH238581   6.701   3.216  12.340  0.0910  0.3209 -0.8163
 5697TIP3    H138582   6.791   3.248  12.346  0.6348 -1.3086  0.9127
 5697TIP3    H238583   6.689   3.196  12.247  1.5070  0.6000 -1.0922
 5698TIP3   OH238584   4.601   3.649   0.752  0.5551  0.2119  0.8059
 5698TIP3    H138585   4.688   3.615   0.773  0.7116  0.0171 -0.1104
 5698TIP3    H238586   4.542   3.575   0.769  0.6488  0.1441  0.8368
 5699TIP3   OH238587   1.728   2.369   4.846 -0.7012 -0.2041  0.4017
 5699TIP3    H138588   1.768   2.330   4.768 -0.4940 -1.6688  1.2143
 5699TIP3    H238589   1.689   2.296   4.893 -0.1224  0.5139  2.0854
 5700TIP3   OH238590   0.876   3.617  13.256 -0.1826  0.2347  0.2705
 5700TIP3    H138591   0.963   3.582  13.274 -0.1369  0.3416  0.2567
 5700TIP3    H238592   0.892   3.695  13.203 -0.4092 -1.2413 -2.1103
 5701TIP3   OH238593   1.581   6.600  10.701  0.2057  0.6580  0.2179
 5701TIP3    H138594   1.510   6.547  10.667  0.3651  0.7966 -0.3420
 5701TIP3    H238595   1.649   6.596  10.634 -0.1660  2.3683 -0.3154
 5702TIP3   OH238596   0.793   0.363  13.457 -0.2966  0.0361  0.8277
 5702TIP3    H138597   0.705   0.358  13.493 -0.9657  0.8159 -0.6363
 5702TIP3    H238598   0.826   0.449  13.484 -1.2408  1.1248 -1.2852
 5703TIP3   OH238599   3.100   4.275  12.346  0.1328 -0.2423 -0.0443
 5703TIP3    H138600   3.142   4.359  12.329  1.7008 -0.6423  1.6411
 5703TIP3    H238601   3.007   4.296  12.356  0.5761  1.3764  0.9447
 5704TIP3   OH238602   5.975   1.956   5.629 -0.2670  0.1048 -0.3696
 5704TIP3    H138603   5.975   1.964   5.724  0.3453 -0.0506 -0.3524
 5704TIP3    H238604   5.983   1.862   5.613  0.2367  0.1801 -0.5736
 5705TIP3   OH238605   6.632   0.145  16.443 -0.2432 -0.1511 -0.1370
 5705TIP3    H138606   6.694   0.211  16.473 -1.5838  0.2056  2.0144
 5705TIP3    H238607   6.579   0.190  16.377  1.3331 -0.2956 -1.5744
 5706TIP3   OH238608   2.379   5.010  14.890  0.6956  0.2434  0.3101
 5706TIP3    H138609   2.350   5.047  14.974 -0.0247  3.9328 -1.3343
 5706TIP3    H238610   2.466   5.049  14.876 -0.0152  1.3138 -1.4525
 5707TIP3   OH238611   2.421   5.444  13.086 -0.1874 -0.2944 -0.1641
 5707TIP3    H138612   2.488   5.392  13.130  0.2551 -1.1682 -1.7905
 5707TIP3    H238613   2.338   5.410  13.119  0.1308  0.5973  1.6504
 5708TIP3   OH238614   5.256   6.118  14.689  0.3463 -0.0225  0.3266
 5708TIP3    H138615   5.204   6.188  14.727  1.0070  1.2436 -0.9932
 5708TIP3    H238616   5.220   6.038  14.727  0.7856  1.0840  3.3651
 5709TIP3   OH238617   4.218   3.785  15.031 -0.2833  0.0535 -0.5570
 5709TIP3    H138618   4.226   3.789  15.126  1.9124  1.1131 -0.7252
 5709TIP3    H238619   4.133   3.825  15.012 -0.0670  1.2489  0.8811
 5710TIP3   OH238620   2.584   2.261   3.164 -0.0957  0.4806 -0.1542
 5710TIP3    H138621   2.568   2.327   3.231  3.2244  1.1456  0.1832
 5710TIP3    H238622   2.554   2.179   3.203 -1.1735  1.2986  0.8093
 5711TIP3   OH238623   4.657   2.508   3.955  0.1793  0.6613 -0.0382
 5711TIP3    H138624   4.598   2.441   3.921  0.2429  1.1285 -1.1143
 5711TIP3    H238625   4.630   2.589   3.911  0.1747  1.3282  1.1488
 5712TIP3   OH238626   0.777   0.433   5.935  0.7455 -0.1371 -0.2624
 5712TIP3    H138627   0.792   0.385   6.016  1.4842 -1.7074 -1.2818
 5712TIP3    H238628   0.865   0.458   5.906  0.7928 -1.9477 -1.9071
 5713TIP3   OH238629   4.490   3.859   1.787 -0.4387  0.4173 -0.2289
 5713TIP3    H138630   4.516   3.787   1.845 -0.3710  0.3311 -0.3665
 5713TIP3    H238631   4.572   3.906   1.770 -0.0849 -0.7102 -1.8531
 5714TIP3   OH238632   3.920   1.525  13.230  0.2852  0.3066 -0.2563
 5714TIP3    H138633   3.872   1.453  13.187  0.4343 -0.7628  1.2773
 5714TIP3    H238634   3.966   1.483  13.303  1.3821  1.7763 -0.0599
 5715TIP3   OH238635   1.414   3.358   0.632 -0.0457 -0.4298 -0.1192
 5715TIP3    H138636   1.422   3.448   0.601  1.4117 -0.4218  0.2096
 5715TIP3    H238637   1.504   3.326   0.636 -0.6062 -2.3743 -1.5700
 5716TIP3   OH238638   1.746   3.501  14.559 -0.0131 -0.3566  0.2292
 5716TIP3    H138639   1.801   3.425  14.579 -0.6779 -1.0058 -0.3692
 5716TIP3    H238640   1.795   3.575  14.594  1.2087 -0.9265 -0.1910
 5717TIP3   OH238641   3.617   1.804   5.284 -0.4361  0.0270  0.0101
 5717TIP3    H138642   3.586   1.894   5.277  0.1741  0.3547  1.2240
 5717TIP3    H238643   3.677   1.793   5.210 -1.1729  0.3208 -0.6484
 5718TIP3   OH238644   0.597   5.871  16.468 -0.7489 -0.0827  0.3342
 5718TIP3    H138645   0.606   5.788  16.515  2.2019  0.5029  1.0146
 5718TIP3    H238646   0.584   5.937  16.537 -2.0032  0.1933 -0.1317
 5719TIP3   OH238647   6.408   0.099   4.411  0.1921  0.6092  0.2126
 5719TIP3    H138648   6.407   0.150   4.493  0.4888  0.2250  0.4578
 5719TIP3    H238649   6.392   0.009   4.439 -2.0007  0.7493 -0.3662
 5720TIP3   OH238650   1.911   4.344  15.824  0.5178  0.6599  0.4161
 5720TIP3    H138651   1.899   4.268  15.766 -2.0427  2.1144 -1.1318
 5720TIP3    H238652   1.897   4.309  15.912 -1.8204 -0.5170 -0.3416
 5721TIP3   OH238653   6.182   4.954   2.426 -0.1940 -0.2148 -0.5176
 5721TIP3    H138654   6.101   5.004   2.439  1.2738  1.7945  1.9578
 5721TIP3    H238655   6.225   4.958   2.511  1.6212 -2.9465 -1.1978
 5722TIP3   OH238656   3.510   4.713  12.469  0.0089  0.0921  0.3903
 5722TIP3    H138657   3.468   4.789  12.428  1.7823 -0.7995 -3.5702
 5722TIP3    H238658   3.566   4.751  12.537 -0.5509  2.1203 -0.2000
 5723TIP3   OH238659   6.336   4.747   0.793  0.1739  0.3627 -0.3589
 5723TIP3    H138660   6.415   4.800   0.802 -0.9344  2.0401  0.0487
 5723TIP3    H238661   6.268   4.810   0.770 -1.1510 -0.9491 -0.1775
 5724TIP3   OH238662   5.857   1.652   3.344  0.2547  0.1286  0.4155
 5724TIP3    H138663   5.773   1.698   3.343 -0.3103 -0.8521 -0.8734
 5724TIP3    H238664   5.893   1.669   3.431 -1.3480  0.4381  1.0530
 5725TIP3   OH238665   1.059   2.641   0.218 -0.0112 -0.0464  0.2215
 5725TIP3    H138666   0.972   2.676   0.198  0.5320  1.5035  0.4368
 5725TIP3    H238667   1.052   2.548   0.200 -1.1381  0.3665 -1.7785
 5726TIP3   OH238668   3.933   0.187  16.070  0.0124  0.0522 -0.3933
 5726TIP3    H138669   3.893   0.265  16.031  0.2146  0.3208 -0.0775
 5726TIP3    H238670   3.928   0.202  16.165 -0.1440 -0.4220 -0.3227
 5727TIP3   OH238671   0.891   6.360   1.276 -0.6885  0.1047 -0.0694
 5727TIP3    H138672   0.887   6.455   1.291  1.1739  0.1953  0.1408
 5727TIP3    H238673   0.956   6.350   1.206 -0.8357 -1.0139 -0.0624
 5728TIP3   OH238674   1.079   1.445  12.593 -0.1954  0.2438 -0.2235
 5728TIP3    H138675   1.059   1.406  12.678 -3.0330  2.1509  0.1228
 5728TIP3    H238676   1.049   1.536  12.600  0.0018  0.6429 -3.0957
 5729TIP3   OH238677   6.520   2.059  13.830 -0.3193 -0.6412  0.0955
 5729TIP3    H138678   6.577   2.110  13.773 -0.6552 -0.9540 -0.5266
 5729TIP3    H238679   6.476   2.124  13.885 -0.3956 -0.2946 -0.3714
 5730TIP3   OH238680   2.875   3.607   0.204 -0.1523  0.2281 -0.0242
 5730TIP3    H138681   2.806   3.668   0.179 -0.5508 -0.5312 -0.8366
 5730TIP3    H238682   2.916   3.581   0.122  1.3481  0.9176  0.4659
 5731TIP3   OH238683   4.852   5.444   2.789  0.2717  0.0400 -0.6536
 5731TIP3    H138684   4.909   5.520   2.774  0.3247  0.2981  0.6803
 5731TIP3    H238685   4.913   5.374   2.814  0.1659 -0.2550 -1.2197
 5732TIP3   OH238686   5.714   3.800   1.559  0.5391  0.2528 -0.2566
 5732TIP3    H138687   5.807   3.789   1.579 -0.2238 -0.0781  3.8068
 5732TIP3    H238688   5.708   3.886   1.518  2.5348  0.6649  0.2120
 5733TIP3   OH238689   6.683   5.186  14.721 -0.0194 -0.2162 -0.2015
 5733TIP3    H138690   6.721   5.249  14.781 -0.1262  1.3953 -1.7378
 5733TIP3    H238691   6.661   5.111  14.775  2.1915  0.1439  1.3192
 5734TIP3   OH238692   5.961   5.962  12.497  0.0430  0.1005  0.1134
 5734TIP3    H138693   5.970   6.009  12.413 -3.7239  2.6761  0.8782
 5734TIP3    H238694   5.930   5.875  12.472  3.3736 -0.8803 -1.1938
 5735TIP3   OH238695   6.222   4.514   5.689 -0.4443 -0.1967 -0.6201
 5735TIP3    H138696   6.266   4.576   5.630  1.8869 -1.5242 -0.4077
 5735TIP3    H238697   6.240   4.549   5.777 -1.0213 -0.0173 -0.5702
 5736TIP3   OH238698   1.801   4.197  13.795  0.4103 -0.2868  0.3523
 5736TIP3    H138699   1.795   4.170  13.703 -1.6648  1.2296 -0.0405
 5736TIP3    H238700   1.863   4.136  13.834 -1.1655 -3.1796 -1.2764
 5737TIP3   OH238701   3.405   5.491   0.002 -0.1351 -0.0152  0.2577
 5737TIP3    H138702   3.479   5.448  -0.040 -0.2732  1.1557 -1.3021
 5737TIP3    H238703   3.441   5.570   0.041 -0.7050  1.2025 -1.5765
 5738TIP3   OH238704   5.151   5.789  14.384 -0.1117 -0.6158  0.1736
 5738TIP3    H138705   5.107   5.809  14.302 -0.4939  0.5725  0.6479
 5738TIP3    H238706   5.082   5.791  14.450  0.4868  0.4094  0.7961
 5739TIP3   OH238707   4.555   2.310  11.822  0.8323 -0.3350 -0.9094
 5739TIP3    H138708   4.554   2.405  11.805 -1.2958 -0.0737  0.2666
 5739TIP3    H238709   4.538   2.271  11.736 -0.0177  0.4622 -1.1306
 5740TIP3   OH238710   5.975   6.050   0.119 -0.1325 -1.1415 -0.0658
 5740TIP3    H138711   5.949   6.137   0.151  1.6213 -0.3095 -0.8307
 5740TIP3    H238712   5.911   5.991   0.160 -1.8801  0.5513 -0.1633
 5741TIP3   OH238713   3.656   0.652  10.968  0.1131  0.1970 -0.1107
 5741TIP3    H138714   3.667   0.572  11.019 -0.7141  0.4580  0.5068
 5741TIP3    H238715   3.655   0.624  10.877  0.9813 -0.3545  0.0432
 5742TIP3   OH238716   3.000   6.454  10.173 -0.0775 -0.3050  0.3155
 5742TIP3    H138717   2.924   6.430  10.226 -0.2488  1.7917  1.1161
 5742TIP3    H238718   3.060   6.497  10.235 -0.0559  1.7348 -1.0102
 5743TIP3   OH238719   6.720   2.070   5.827  0.0660  0.1817  0.3070
 5743TIP3    H138720   6.632   2.034   5.818 -0.1665  0.9937 -0.9161
 5743TIP3    H238721   6.767   2.038   5.750  0.6843  0.1557  0.6959
 5744TIP3   OH238722   2.866   2.658   2.100  0.1967 -0.2656  0.7073
 5744TIP3    H138723   2.820   2.607   2.032 -0.4037  1.4554 -0.2267
 5744TIP3    H238724   2.807   2.654   2.176 -1.1613  1.2156 -0.2133
 5745TIP3   OH238725   4.838   3.458  17.008 -0.0302 -0.3195 -0.0608
 5745TIP3    H138726   4.836   3.492  16.918 -1.1922 -2.7801 -1.0732
 5745TIP3    H238727   4.774   3.387  17.008  2.7969 -3.1521  1.5150
 5746TIP3   OH238728   0.604   6.261   5.632  0.1535 -0.6295  0.0774
 5746TIP3    H138729   0.659   6.188   5.605  0.4175 -0.0779 -0.9280
 5746TIP3    H238730   0.647   6.296   5.710  2.3225  0.8849 -1.6439
 5747TIP3   OH238731   3.111   2.162   3.804 -0.0250 -0.2443  0.4366
 5747TIP3    H138732   3.046   2.132   3.867  0.6650  1.0731  1.8365
 5747TIP3    H238733   3.061   2.188   3.727 -1.0134 -0.4657  0.9962
 5748TIP3   OH238734   2.389   6.096  13.969 -0.3831 -0.5571  0.1366
 5748TIP3    H138735   2.399   6.024  13.907  1.0074 -0.1818 -0.0911
 5748TIP3    H238736   2.374   6.173  13.915 -1.3068 -0.5655  0.3618
 5749TIP3   OH238737   2.656   6.200  16.768  0.7418  0.0172  0.5285
 5749TIP3    H138738   2.596   6.125  16.761  2.0120 -0.9040 -1.8053
 5749TIP3    H238739   2.741   6.161  16.787  1.2736  0.9381  0.0891
 5750TIP3   OH238740   2.153   4.438  15.519  0.0581  0.3909  0.1575
 5750TIP3    H138741   2.114   4.460  15.434  1.3837 -0.6254 -0.7578
 5750TIP3    H238742   2.140   4.343  15.527  2.5060 -0.0627 -0.3427
 5751TIP3   OH238743   6.620   2.033  11.040  0.5444  0.0975 -0.2830
 5751TIP3    H138744   6.530   2.014  11.067  1.1728 -1.3313  0.9567
 5751TIP3    H238745   6.628   2.128  11.049 -0.7963  0.2376 -0.3116
 5752TIP3   OH238746   0.721   2.951  15.595  0.1896 -0.4507 -0.2325
 5752TIP3    H138747   0.782   3.024  15.588 -1.8658  1.3654 -0.3036
 5752TIP3    H238748   0.774   2.873  15.579  2.0992  1.1527 -2.1922
 5753TIP3   OH238749   6.396   5.541   2.866 -0.4312  0.2199  0.1017
 5753TIP3    H138750   6.308   5.561   2.834 -0.3789  1.0443  0.4501
 5753TIP3    H238751   6.382   5.476   2.935 -0.6999 -0.2003 -0.3426
 5754TIP3   OH238752   0.215   0.975  10.576  0.1733 -0.0510 -0.1682
 5754TIP3    H138753   0.162   0.909  10.622 -0.0940  0.1004 -0.2549
 5754TIP3    H238754   0.162   1.054  10.581  0.4621  0.1388 -0.1287
 5755TIP3   OH238755   3.108   4.302   1.181  0.1584 -0.2201  0.2733
 5755TIP3    H138756   3.177   4.333   1.240  0.3692  0.5991 -0.3851
 5755TIP3    H238757   3.028   4.339   1.216  0.1340 -0.6389  0.6678
 5756TIP3   OH238758   3.991   6.310  11.691 -0.1537  0.7605  0.1184
 5756TIP3    H138759   3.962   6.347  11.774 -0.0721  1.2284 -0.0553
 5756TIP3    H238760   4.079   6.345  11.679 -0.9507  2.4721 -1.1947
 5757TIP3   OH238761   2.085   3.682  12.705  0.5587 -0.0237  0.0822
 5757TIP3    H138762   2.109   3.753  12.763 -0.3259  1.9140 -1.7643
 5757TIP3    H238763   2.120   3.708  12.620 -1.5857 -0.7024 -1.0989
 5758TIP3   OH238764   5.301   4.880   3.142  0.6229  0.2965 -0.3119
 5758TIP3    H138765   5.278   4.813   3.077  0.0257  0.6840 -0.5048
 5758TIP3    H238766   5.351   4.832   3.209 -0.8397 -0.6004  0.1780
 5759TIP3   OH238767   3.435   5.789  15.292  0.3631 -0.2578 -0.7270
 5759TIP3    H138768   3.482   5.714  15.256 -1.6661 -2.4033  0.7633
 5759TIP3    H238769   3.379   5.751  15.361  0.4779  2.8768  1.2816
 5760TIP3   OH238770   4.465   3.207  16.830  0.1404 -0.7629  0.0671
 5760TIP3    H138771   4.462   3.118  16.796  0.5598 -0.1915 -1.5686
 5760TIP3    H238772   4.383   3.247  16.801  0.6552 -0.1584 -0.5789
 5761TIP3   OH238773   4.332   1.318  12.122  0.0077 -0.1157 -0.3334
 5761TIP3    H138774   4.370   1.373  12.190 -0.3689 -1.3420  0.9208
 5761TIP3    H238775   4.394   1.323  12.049  1.6423 -0.6042  0.9698
 5762TIP3   OH238776   3.372   3.768   2.054  0.3436 -0.1238 -0.2126
 5762TIP3    H138777   3.301   3.790   1.993 -1.5619 -0.3841  1.8206
 5762TIP3    H238778   3.379   3.844   2.111  1.0995 -0.4566  0.1462
 5763TIP3   OH238779   5.923   2.330  16.126  0.0144  0.1555 -0.5301
 5763TIP3    H138780   5.991   2.375  16.076 -1.0791  1.5143 -0.8353
 5763TIP3    H238781   5.841   2.367  16.094 -0.9561 -2.0343 -0.7527
 5764TIP3   OH238782   5.456   4.202   5.788  0.1887  0.4141 -0.2085
 5764TIP3    H138783   5.502   4.276   5.750  0.6459  0.3879  0.2888
 5764TIP3    H238784   5.384   4.241   5.838  0.7809  0.5602  0.5400
 5765TIP3   OH238785   3.817   0.143  13.979  0.7798 -0.6881  0.3347
 5765TIP3    H138786   3.785   0.061  14.017  1.6445 -1.4016 -0.4442
 5765TIP3    H238787   3.829   0.123  13.886  0.9571  0.3375  0.1291
 5766TIP3   OH238788   0.041   1.296  14.361  0.3871  0.0064  0.7453
 5766TIP3    H138789  -0.043   1.331  14.331  0.7015  0.5023  0.4408
 5766TIP3    H238790   0.018   1.241  14.436 -0.2276  0.0175  0.5709
 5767TIP3   OH238791   2.936   3.867   6.263  0.0006  0.1045  0.1290
 5767TIP3    H138792   2.995   3.885   6.336  0.1152 -0.3654  0.1566
 5767TIP3    H238793   2.864   3.817   6.303 -0.4621  0.7410  0.1137
 5768TIP3   OH238794   3.130   4.978  10.833 -0.2492  0.2771 -0.0454
 5768TIP3    H138795   3.209   4.926  10.840 -0.9284 -1.2175 -2.2430
 5768TIP3    H238796   3.148   5.040  10.761 -0.5587  0.9383  0.4358
 5769TIP3   OH238797   0.992   2.891   5.743  0.2160  0.2167 -0.3833
 5769TIP3    H138798   0.911   2.940   5.757 -0.5194 -0.7141 -1.2076
 5769TIP3    H238799   1.049   2.917   5.815 -1.1908  0.1089  0.8047
 5770TIP3   OH238800   6.636   2.850   2.388 -0.1097 -0.0764  0.3160
 5770TIP3    H138801   6.709   2.847   2.325  1.0068  2.0631  1.3859
 5770TIP3    H238802   6.570   2.904   2.345  0.5500  1.1719  0.7942
 5771TIP3   OH238803   0.522   2.231   4.098  0.5914 -0.1619 -0.9174
 5771TIP3    H138804   0.578   2.306   4.077  0.7460 -0.1071 -0.3268
 5771TIP3    H238805   0.583   2.157   4.104  0.4659 -0.2987 -1.2893
 5772TIP3   OH238806   6.123   0.872   6.391  0.0270 -0.1415  0.5735
 5772TIP3    H138807   6.086   0.792   6.430  0.9580 -0.4198  0.9198
 5772TIP3    H238808   6.200   0.841   6.344  0.4090  0.5656  0.7286
 5773TIP3   OH238809   4.883   0.371  13.737 -0.5244 -0.4046 -0.2220
 5773TIP3    H138810   4.974   0.399  13.753 -0.7573  0.3570 -0.1958
 5773TIP3    H238811   4.845   0.365  13.825 -0.3419 -1.3323 -0.1859
 5774TIP3   OH238812   3.987   4.279  11.994  0.3854 -0.4241  0.3139
 5774TIP3    H138813   4.054   4.320  11.939 -0.2871 -1.1642 -1.1204
 5774TIP3    H238814   4.009   4.186  11.995 -0.0819 -0.5384  0.6047
 5775TIP3   OH238815   5.526   0.415   3.267 -0.3343  0.0148  0.4436
 5775TIP3    H138816   5.490   0.335   3.230  1.9731 -0.7261 -0.3375
 5775TIP3    H238817   5.489   0.485   3.214 -0.0230 -0.7700 -0.8343
 5776TIP3   OH238818   3.273   6.816  15.088  0.1431 -0.1065 -0.1524
 5776TIP3    H138819   3.352   6.764  15.071 -0.2015 -1.1082  1.1665
 5776TIP3    H238820   3.291   6.858  15.172 -0.7414 -0.3669  0.1723
 5777TIP3   OH238821   0.784   3.621   1.457 -0.2406  0.0510 -0.3043
 5777TIP3    H138822   0.788   3.619   1.361  0.4009  2.1325 -0.3702
 5777TIP3    H238823   0.694   3.596   1.478 -0.6367  0.4315 -1.4880
 5778TIP3   OH238824   5.585   2.004   4.009  0.2876 -0.4606 -0.8542
 5778TIP3    H138825   5.554   2.072   4.069  1.5090 -0.9825  0.4050
 5778TIP3    H238826   5.611   2.052   3.930  1.3323  0.5941  0.0909
 5779TIP3   OH238827   3.649   6.205   3.685  0.3887  0.4554  0.2134
 5779TIP3    H138828   3.557   6.194   3.712  0.2574  1.1629  0.0762
 5779TIP3    H238829   3.700   6.179   3.762  0.0794 -0.0895  0.2411
 5780TIP3   OH238830   1.274   5.877  13.724  0.0326  0.3056  0.0897
 5780TIP3    H138831   1.357   5.906  13.760 -0.2061  0.5057  0.4812
 5780TIP3    H238832   1.209   5.898  13.791 -0.2313 -0.5625  0.1203
 5781TIP3   OH238833   2.258   5.243   2.853  0.6633 -0.0039  0.1202
 5781TIP3    H138834   2.285   5.333   2.834  3.6756 -0.6195  1.0006
 5781TIP3    H238835   2.162   5.247   2.855  0.6068  2.6683 -2.1050
 5782TIP3   OH238836   0.929   4.867  14.540  0.0599  0.7528 -0.4963
 5782TIP3    H138837   0.866   4.833  14.477 -1.4090 -0.3114  1.4102
 5782TIP3    H238838   0.967   4.944  14.498 -1.5988  0.6919 -2.2431
 5783TIP3   OH238839   6.130   1.580   5.314  0.5675  0.7688  0.0394
 5783TIP3    H138840   6.125   1.490   5.346  0.5771  0.6782 -0.2130
 5783TIP3    H238841   6.172   1.628   5.385  0.1541  0.6620  0.3582
 5784TIP3   OH238842   2.914   1.414  15.512 -0.0003 -0.1804  0.7775
 5784TIP3    H138843   2.890   1.359  15.437  0.8765  0.6689 -0.1688
 5784TIP3    H238844   2.842   1.403  15.574  0.4201 -2.8214  0.9021
 5785TIP3   OH238845   1.459   0.326  13.224 -0.3085  0.3271 -0.4312
 5785TIP3    H138846   1.506   0.289  13.300 -0.9161  0.9223  0.2501
 5785TIP3    H238847   1.505   0.290  13.148  0.3677 -0.2221  0.2161
 5786TIP3   OH238848   4.229   1.950   0.427 -0.1990 -0.1929 -0.3341
 5786TIP3    H138849   4.272   1.971   0.344  1.1427 -1.3350  0.0240
 5786TIP3    H238850   4.245   1.856   0.438 -1.5170 -0.3307  0.5803
 5787TIP3   OH238851   6.771   0.532   0.036 -0.1631 -0.1784 -0.6353
 5787TIP3    H138852   6.698   0.585   0.068 -1.3405 -2.4062  0.5840
 5787TIP3    H238853   6.732   0.448   0.012  2.1472 -2.0878  1.6887
 5788TIP3   OH238854   5.158   0.514  15.778 -0.1032 -0.1341  0.1170
 5788TIP3    H138855   5.084   0.514  15.716  0.4758 -2.1667 -0.6511
 5788TIP3    H238856   5.197   0.601  15.769 -0.3710 -0.1867 -2.0027
 5789TIP3   OH238857   1.248   1.877  14.089 -0.5054  0.3976  0.2524
 5789TIP3    H138858   1.168   1.874  14.142  0.1014 -0.6727  1.1675
 5789TIP3    H238859   1.222   1.842  14.004 -0.9961 -0.0569  0.5804
 5790TIP3   OH238860   0.982   5.902  17.197  0.1155  0.0083  0.4137
 5790TIP3    H138861   0.934   5.938  17.123 -0.9495  0.5775  1.3495
 5790TIP3    H238862   0.981   5.973  17.262  1.3236 -0.3532  0.8483
 5791TIP3   OH238863   1.325   5.198   0.453  0.1249  0.4135  0.1145
 5791TIP3    H138864   1.386   5.128   0.474  1.1369  1.5620  1.1620
 5791TIP3    H238865   1.239   5.163   0.476  0.4512 -0.9349 -0.6199
 5792TIP3   OH238866   0.681   2.137  12.232  0.6617 -0.1101 -0.2195
 5792TIP3    H138867   0.679   2.126  12.137 -1.3770 -1.2382 -0.1065
 5792TIP3    H238868   0.686   2.232  12.245 -0.0661  0.1299 -1.4811
 5793TIP3   OH238869   1.187   4.856  13.792 -0.1011  0.4581 -0.2238
 5793TIP3    H138870   1.169   4.831  13.702  0.3658  0.0940 -0.2201
 5793TIP3    H238871   1.262   4.802  13.817  0.5915  1.4598 -0.0458
 5794TIP3   OH238872   2.264   0.758  13.749  0.3869 -0.5443  0.7235
 5794TIP3    H138873   2.343   0.740  13.799  0.6205  0.3809  0.7143
 5794TIP3    H238874   2.277   0.847  13.715 -0.3509 -0.6486  0.1411
 5795TIP3   OH238875   0.478   1.201   4.760 -0.1409  0.7470  0.2117
 5795TIP3    H138876   0.446   1.219   4.848 -0.5591  0.5241  0.1128
 5795TIP3    H238877   0.573   1.203   4.767 -0.1761  1.1248  0.5820
 5796TIP3   OH238878   1.337   1.032   4.977 -0.2105  0.3252  0.3993
 5796TIP3    H138879   1.363   0.995   5.062 -0.2026 -0.4067  0.0853
 5796TIP3    H238880   1.284   1.109   5.000 -0.9361 -0.3543  1.0854
 5797TIP3   OH238881   0.328   6.315   5.298 -1.1911  0.3610 -0.1768
 5797TIP3    H138882   0.341   6.336   5.390  0.1036 -0.1781 -0.2084
 5797TIP3    H238883   0.276   6.235   5.298 -1.4747  0.5443  0.0722
 5798TIP3   OH238884   1.758   3.799  12.758 -0.1920 -0.5768  0.3899
 5798TIP3    H138885   1.736   3.883  12.716 -0.1318 -0.8794 -0.2497
 5798TIP3    H238886   1.818   3.823  12.829 -0.0365 -0.0948  0.1012
 5799TIP3   OH238887   5.442   1.584   0.329 -0.3495  0.5454 -0.6794
 5799TIP3    H138888   5.522   1.609   0.376 -0.1245  0.5701 -1.0617
 5799TIP3    H238889   5.372   1.633   0.371 -0.3304 -0.2882  0.3513
 5800TIP3   OH238890   4.352   2.835   2.313 -0.1810 -0.4144  0.2606
 5800TIP3    H138891   4.355   2.784   2.233  0.0926 -0.4858  0.3139
 5800TIP3    H238892   4.422   2.900   2.303 -0.0546 -0.5114  0.4973
 5801TIP3   OH238893   3.904   3.142  13.528 -0.8228 -0.1899 -0.3324
 5801TIP3    H138894   3.954   3.156  13.608 -0.7731 -2.1765  0.0317
 5801TIP3    H238895   3.929   3.215  13.471 -0.1872  0.7699  1.1176
 5802TIP3   OH238896   5.860   2.126  13.733  0.3298 -0.5824 -0.1413
 5802TIP3    H138897   5.808   2.068  13.678  0.5005 -1.7091  0.8501
 5802TIP3    H238898   5.848   2.092  13.822 -0.7517  1.7597  0.7109
 5803TIP3   OH238899   5.160   3.151   2.729 -0.1366 -0.3558  0.2154
 5803TIP3    H138900   5.184   3.166   2.820 -0.8274  0.7756  0.2267
 5803TIP3    H238901   5.177   3.058   2.715 -3.4018 -1.5060  2.5679
 5804TIP3   OH238902   2.099   3.296   2.482 -0.0133  0.2891 -0.6019
 5804TIP3    H138903   2.093   3.210   2.441  0.4457  0.7526 -1.6774
 5804TIP3    H238904   2.151   3.348   2.421 -1.6054  1.7975 -0.7646
 5805TIP3   OH238905   5.297   6.558  14.611  0.0884  0.3626 -0.2744
 5805TIP3    H138906   5.338   6.514  14.686  0.4073  0.6510 -0.2790
 5805TIP3    H238907   5.232   6.495  14.579 -1.4275  0.9366  1.4216
 5806TIP3   OH238908   3.524   6.334   6.146 -0.1442 -0.8157  0.1550
 5806TIP3    H138909   3.618   6.321   6.135 -0.3822 -3.2176  0.5019
 5806TIP3    H238910   3.517   6.389   6.224  0.9690  0.0274 -0.3091
 5807TIP3   OH238911   0.314   4.283   4.565 -0.4162  0.0493  0.2849
 5807TIP3    H138912   0.286   4.213   4.623  0.1974 -2.2723 -2.0704
 5807TIP3    H238913   0.403   4.260   4.540 -0.6265  1.0189 -1.5067
 5808TIP3   OH238914   0.995   2.516   1.590  0.2416 -0.0746 -0.2879
 5808TIP3    H138915   1.030   2.432   1.560  1.5864 -0.2129  1.5253
 5808TIP3    H238916   0.967   2.560   1.509  0.1758 -1.9391 -1.3435
 5809TIP3   OH238917   3.665   6.463   1.465 -0.0867 -0.1625 -0.6417
 5809TIP3    H138918   3.682   6.383   1.514  0.5369 -0.9115 -2.0355
 5809TIP3    H238919   3.749   6.485   1.424 -0.3778  0.9270 -0.6915
 5810TIP3   OH238920   4.861   5.914  12.574 -0.4750  0.1364  0.0038
 5810TIP3    H138921   4.803   5.983  12.543 -0.8096  0.6929  1.7758
 5810TIP3    H238922   4.817   5.832  12.550 -0.7768  0.5378 -0.8244
 5811TIP3   OH238923   1.981   2.100  14.347  0.2307  0.3840  0.2932
 5811TIP3    H138924   1.982   2.044  14.269 -1.3660  0.0796  0.4378
 5811TIP3    H238925   1.986   2.039  14.420  1.6820  0.6668  0.4436
 5812TIP3   OH238926   5.372   1.625  14.563  0.4669  0.3989 -0.2447
 5812TIP3    H138927   5.443   1.653  14.620  0.6213  0.5492 -0.5098
 5812TIP3    H238928   5.321   1.564  14.617 -1.4316  3.1137  1.2727
 5813TIP3   OH238929   6.557   2.213   0.749 -0.0821  0.3618  0.0945
 5813TIP3    H138930   6.635   2.239   0.798 -0.1987  0.5593  0.1752
 5813TIP3    H238931   6.583   2.220   0.657 -0.0240  0.4843  0.1202
 5814TIP3   OH238932   1.255   4.389  12.476 -0.5994 -0.1924 -0.4621
 5814TIP3    H138933   1.233   4.482  12.467 -1.1956 -0.1676  0.8942
 5814TIP3    H238934   1.170   4.344  12.476 -0.6072 -0.3722  2.0825
 5815TIP3   OH238935   6.014   2.734   5.736 -0.4570 -0.6432  0.3834
 5815TIP3    H138936   6.084   2.795   5.757 -1.9680  0.7660  1.6114
 5815TIP3    H238937   5.977   2.709   5.821  0.3952 -3.7097 -0.0361
 5816TIP3   OH238938   1.291   3.748  11.738 -0.4700 -0.5175  0.0893
 5816TIP3    H138939   1.330   3.805  11.804 -1.0737  0.9242 -0.7577
 5816TIP3    H238940   1.351   3.673  11.733 -1.2888 -1.5613  3.4468
 5817TIP3   OH238941   2.967   4.390  13.706  0.2028  0.3509  0.1325
 5817TIP3    H138942   2.947   4.309  13.659 -1.1052 -1.1892  3.0303
 5817TIP3    H238943   2.881   4.430  13.722  0.5394  0.6076  1.4348
 5818TIP3   OH238944   4.458   5.487  12.232  0.4151  0.0310  0.3696
 5818TIP3    H138945   4.366   5.513  12.229  0.6319  0.7126 -1.3932
 5818TIP3    H238946   4.467   5.424  12.161  1.5514  0.8419 -0.2263
 5819TIP3   OH238947   1.441   0.331  17.017 -0.9004 -0.0818 -0.1652
 5819TIP3    H138948   1.397   0.264  17.070  0.7861 -1.4430 -0.4256
 5819TIP3    H238949   1.485   0.387  17.081  1.1542 -1.7368 -0.0194
 5820TIP3   OH238950   1.625   3.905   6.528  0.4209  0.4214 -0.1851
 5820TIP3    H138951   1.624   3.957   6.447  1.1326  0.4706 -0.1671
 5820TIP3    H238952   1.684   3.952   6.586 -1.4732  1.3946  1.0646
 5821TIP3   OH238953   3.974   1.167  11.233  0.1797  0.0122 -0.2412
 5821TIP3    H138954   4.036   1.117  11.181 -0.7842  1.1062 -2.5516
 5821TIP3    H238955   3.997   1.258  11.217 -1.5468  0.4241 -0.5766
 5822TIP3   OH238956   2.664   0.538  16.620 -0.0708 -0.1246 -0.1810
 5822TIP3    H138957   2.681   0.513  16.710 -0.9435 -1.7322 -0.4190
 5822TIP3    H238958   2.590   0.600  16.625 -0.2067 -0.3188  0.1986
 5823TIP3   OH238959   3.310   1.133   5.004  0.5788  0.0434 -0.0239
 5823TIP3    H138960   3.255   1.210   4.990  0.5325 -0.3913 -2.7705
 5823TIP3    H238961   3.259   1.076   5.061  0.4734  1.8348  1.7968
 5824TIP3   OH238962   4.737   4.810  14.216 -0.4403  0.2217 -0.5675
 5824TIP3    H138963   4.736   4.729  14.165 -0.3035  0.6665 -1.2904
 5824TIP3    H238964   4.656   4.855  14.191 -0.9710 -0.1038  0.5236
 5825TIP3   OH238965   6.178   5.256  16.109 -0.1212 -0.2072  0.1512
 5825TIP3    H138966   6.202   5.327  16.168  1.2625  0.6440 -1.3623
 5825TIP3    H238967   6.113   5.205  16.158  0.7176  0.6401  2.2424
 5826TIP3   OH238968   6.547   3.740   5.581 -0.0320 -0.2550 -0.0606
 5826TIP3    H138969   6.463   3.783   5.564  0.1100  0.3145  0.6180
 5826TIP3    H238970   6.611   3.812   5.582  0.2927 -0.5426  0.5476
 5827TIP3   OH238971   4.463   0.363  13.059 -0.2582 -0.2690 -0.0720
 5827TIP3    H138972   4.437   0.278  13.095  0.5231 -0.1914  0.7177
 5827TIP3    H238973   4.448   0.425  13.131 -0.7426  0.2537 -0.6158
 5828TIP3   OH238974   1.246   6.587  14.200  0.2474 -0.1844 -0.5945
 5828TIP3    H138975   1.294   6.571  14.281  1.0853  1.9301 -0.6271
 5828TIP3    H238976   1.293   6.658  14.157 -0.7648 -0.5717 -2.4636
 5829TIP3   OH238977   5.685   2.996   1.294 -0.2068  0.3161  0.9271
 5829TIP3    H138978   5.625   2.948   1.350  0.5691 -1.0431  0.6348
 5829TIP3    H238979   5.679   3.087   1.324 -1.3406 -0.0369  1.8158
 5830TIP3   OH238980   5.217   1.799   0.565 -0.3547  0.1308  0.7833
 5830TIP3    H138981   5.255   1.713   0.550 -0.1014  0.6496 -2.2453
 5830TIP3    H238982   5.131   1.781   0.604 -0.1751 -1.4871  0.4828
 5831TIP3   OH238983   0.905   4.393  13.054 -0.4056  0.0174 -0.9639
 5831TIP3    H138984   0.899   4.435  13.140  1.0082 -1.5484 -0.0470
 5831TIP3    H238985   0.964   4.450  13.004  0.6423 -0.2549 -0.0898
 5832TIP3   OH238986   1.483   1.701  16.877 -0.5194 -0.3510  0.1932
 5832TIP3    H138987   1.408   1.747  16.841  0.3489  1.1138  0.1630
 5832TIP3    H238988   1.446   1.629  16.928 -1.8443 -1.1967 -1.8456
 5833TIP3   OH238989   5.940   0.823  14.688  0.0351  0.5237  0.1551
 5833TIP3    H138990   5.986   0.881  14.627 -1.9035  1.5019 -0.4487
 5833TIP3    H238991   5.884   0.882  14.739 -0.6339 -0.6334  0.7803
 5834TIP3   OH238992   6.464   1.703   2.041  0.0337  0.2782 -0.1822
 5834TIP3    H138993   6.448   1.612   2.015 -0.6815  0.8111 -1.7289
 5834TIP3    H238994   6.379   1.745   2.033  0.3811  1.1162  0.4474
 5835TIP3   OH238995   2.703   4.497  13.738 -0.4578 -0.0322  0.6453
 5835TIP3    H138996   2.685   4.519  13.830 -1.2009 -0.8309  0.6984
 5835TIP3    H238997   2.623   4.455  13.707  0.6096 -1.9281  0.3117
 5836TIP3   OH238998   2.451   0.026   2.204 -0.2277 -0.3919  0.0953
 5836TIP3    H138999   2.396   0.061   2.133  0.0566  0.4890  0.2963
 5836TIP3    H239000   2.537   0.066   2.189 -0.2222 -0.0189  1.0576
 5837TIP3   OH239001   3.306   0.099  14.721  0.2032 -0.4818  0.3876
 5837TIP3    H139002   3.399   0.116  14.707  0.2367 -0.9146  0.0630
 5837TIP3    H239003   3.288   0.135  14.808  0.5449  0.0882  0.2293
 5838TIP3   OH239004   5.771   1.272  11.343 -0.3085  0.0383 -0.5363
 5838TIP3    H139005   5.746   1.266  11.250 -0.9216  0.2030 -0.3837
 5838TIP3    H239006   5.718   1.206  11.387  0.9339 -0.9626 -0.4824
 5839TIP3   OH239007   0.328   0.776  11.598  0.2236 -0.1217 -0.1363
 5839TIP3    H139008   0.346   0.705  11.659 -0.2241  0.6186  0.8809
 5839TIP3    H239009   0.364   0.854  11.640 -0.4074  0.4623 -0.6444
 5840TIP3   OH239010   3.697   3.720   2.712  0.1653  0.6292 -0.2047
 5840TIP3    H139011   3.757   3.784   2.673  1.8814  0.7349  2.3469
 5840TIP3    H239012   3.611   3.762   2.710  0.2310  0.8308 -3.1767
 5841TIP3   OH239013   2.253   5.925  11.469 -0.0176 -0.0170  0.0866
 5841TIP3    H139014   2.304   5.947  11.547 -0.7803  0.8100  0.3609
 5841TIP3    H239015   2.244   6.008  11.421 -0.8444 -0.2085 -0.1067
 5842TIP3   OH239016   4.187   5.236   3.120  0.1657 -0.4400 -0.0543
 5842TIP3    H139017   4.276   5.201   3.125  0.8725  1.1533 -0.9694
 5842TIP3    H239018   4.192   5.322   3.161 -0.7399  0.0454 -0.9160
 5843TIP3   OH239019   4.236   5.148  16.026 -0.5791 -0.1168 -0.2941
 5843TIP3    H139020   4.184   5.209  15.972  0.2928  0.0634 -0.9518
 5843TIP3    H239021   4.237   5.067  15.975 -0.2655 -0.1348 -0.2603
 5844TIP3   OH239022   2.139   1.370   4.488  0.5088 -0.0671 -0.3113
 5844TIP3    H139023   2.214   1.310   4.491 -0.6158 -1.5010  1.6373
 5844TIP3    H239024   2.125   1.395   4.580 -1.0374  0.6108 -0.7029
 5845TIP3   OH239025   4.518   3.130   0.179 -0.0822 -0.4643 -0.3081
 5845TIP3    H139026   4.559   3.054   0.220 -0.0162 -0.5213 -0.4798
 5845TIP3    H239027   4.559   3.137   0.093  0.9287  0.5909  0.2271
 5846TIP3   OH239028   6.818   6.587   2.872 -0.3855 -0.0589 -0.6208
 5846TIP3    H139029   6.769   6.623   2.799 -0.2759 -0.2355 -0.7822
 5846TIP3    H239030   6.881   6.526   2.832 -0.4982 -0.3486 -0.3641
 5847TIP3   OH239031   3.318   5.403  16.608  0.1082 -0.0702  0.1423
 5847TIP3    H139032   3.325   5.495  16.634  3.3125 -0.2395  0.2180
 5847TIP3    H239033   3.326   5.404  16.513  1.2706 -0.2966  0.2209
 5848TIP3   OH239034   3.477   2.761  11.894  0.2336  0.0244  0.1184
 5848TIP3    H139035   3.398   2.707  11.886 -0.3731  0.8676  0.2834
 5848TIP3    H239036   3.476   2.817  11.816  2.0888 -1.7224 -1.2901
 5849TIP3   OH239037   5.394   3.638  12.476 -0.1113 -0.4642 -0.7292
 5849TIP3    H139038   5.349   3.570  12.426 -1.0117  0.6876 -1.5386
 5849TIP3    H239039   5.337   3.655  12.550  0.1999 -0.7035 -0.4316
 5850TIP3   OH239040   3.277   2.172   5.491 -0.2760  0.2004  0.1168
 5850TIP3    H139041   3.265   2.104   5.557 -0.8666  1.1759  1.0483
 5850TIP3    H239042   3.367   2.201   5.503 -0.4912  0.6300  0.7683
 5851TIP3   OH239043   4.278   1.736   2.891  0.4243  0.3540 -0.1186
 5851TIP3    H139044   4.369   1.708   2.899  0.5357  1.2979  2.9470
 5851TIP3    H239045   4.284   1.827   2.861  0.5533  0.6615  0.8113
 5852TIP3   OH239046   5.680   1.888   0.660 -0.1715  0.0250 -0.4804
 5852TIP3    H139047   5.621   1.935   0.720 -1.7935 -0.5568 -1.5392
 5852TIP3    H239048   5.726   1.957   0.613 -0.7384  0.5171 -0.3320
 5853TIP3   OH239049   4.270   3.150   3.656 -0.5780 -0.6861  0.4378
 5853TIP3    H139050   4.214   3.092   3.707 -1.4833  0.3101  0.5931
 5853TIP3    H239051   4.311   3.208   3.720 -0.6344 -0.3433  0.1693
 5854TIP3   OH239052   2.600   6.749   3.749  0.0213  0.3431  0.7032
 5854TIP3    H139053   2.571   6.836   3.718  1.4567  0.3467 -0.7758
 5854TIP3    H239054   2.694   6.759   3.761  0.3820 -1.2738 -0.4995
 5855TIP3   OH239055   0.769   2.613   4.272  0.0421  0.4535  0.2844
 5855TIP3    H139056   0.723   2.678   4.326 -0.5122  0.1984  0.1345
 5855TIP3    H239057   0.809   2.663   4.202  0.9454  0.8174  1.0447
 5856TIP3   OH239058   4.235   2.965   0.222  0.0581 -0.2776 -0.0291
 5856TIP3    H139059   4.179   2.889   0.231  0.7522 -0.7025  0.9634
 5856TIP3    H239060   4.315   2.942   0.270  0.7262  0.6473 -0.6414
 5857TIP3   OH239061   3.604   3.751   0.659  0.0359  0.3938 -0.2815
 5857TIP3    H139062   3.547   3.739   0.582 -0.0143 -0.8236 -0.0702
 5857TIP3    H239063   3.596   3.669   0.707  2.8051 -0.2580 -0.7758
 5858TIP3   OH239064   1.529   6.238   2.796 -0.8094  0.3151  0.1816
 5858TIP3    H139065   1.455   6.257   2.854 -1.4454 -3.4630  0.8217
 5858TIP3    H239066   1.489   6.217   2.711 -0.4887 -1.2970  0.4038
 5859TIP3   OH239067   3.214   0.166   6.133  0.8314 -0.0158  0.1462
 5859TIP3    H139068   3.261   0.247   6.114  0.3507 -0.0558 -1.4183
 5859TIP3    H239069   3.123   0.187   6.114  0.7516 -1.0069 -0.6694
 5860TIP3   OH239070   0.756   3.008  13.895  0.1522 -0.1440 -0.1856
 5860TIP3    H139071   0.721   2.980  13.811  0.0149  1.0369 -0.5395
 5860TIP3    H239072   0.847   3.033  13.876  0.0018  0.5023 -0.0689
 5861TIP3   OH239073   2.819   5.195  15.482  0.0985  0.1916 -0.4505
 5861TIP3    H139074   2.852   5.110  15.452 -1.0240 -1.3570  2.3044
 5861TIP3    H239075   2.725   5.192  15.465 -0.1079  0.4375  0.5813
 5862TIP3   OH239076   6.066   5.684  16.594  0.1036  0.3227 -0.2606
 5862TIP3    H139077   6.042   5.603  16.639  0.2848  1.0070  1.1327
 5862TIP3    H239078   5.989   5.705  16.540  0.6617 -1.5814 -1.8973
 5863TIP3   OH239079   1.260   0.357   4.426 -0.8033 -0.0946 -0.0894
 5863TIP3    H139080   1.331   0.367   4.490 -0.2592  1.8702 -0.8987
 5863TIP3    H239081   1.217   0.275   4.450 -0.7611  0.6387  2.9029
 5864TIP3   OH239082   1.600   2.282  12.133  0.3688 -0.3599 -0.4110
 5864TIP3    H139083   1.675   2.311  12.081 -0.7276 -0.2357 -1.9931
 5864TIP3    H239084   1.600   2.340  12.209  1.5282  0.0133 -0.6721
 5865TIP3   OH239085   2.357   5.863  12.853  0.1583  0.0598  0.3513
 5865TIP3    H139086   2.410   5.838  12.929 -1.4022 -0.8670  1.1705
 5865TIP3    H239087   2.421   5.874  12.782  1.6720  1.1182  1.8045
 5866TIP3   OH239088   0.896   2.699   3.388  0.2172 -0.3124 -0.5166
 5866TIP3    H139089   0.964   2.656   3.336  0.5686  0.8324 -1.0241
 5866TIP3    H239090   0.920   2.792   3.388 -0.5774 -0.0821  0.4803
 5867TIP3   OH239091   4.642   2.552  16.042  0.1580  0.3682  0.0839
 5867TIP3    H139092   4.576   2.484  16.030  0.9844 -0.7458  1.6147
 5867TIP3    H239093   4.607   2.607  16.112  1.4817 -1.1236  2.0020
 5868TIP3   OH239094   0.505   4.676   2.440  0.2527 -0.1682 -0.0764
 5868TIP3    H139095   0.466   4.718   2.516  0.5386  2.3721 -1.2427
 5868TIP3    H239096   0.566   4.612   2.476 -0.2574  0.3464  1.8023
 5869TIP3   OH239097   5.988   5.013  13.822 -0.3505  0.5524 -0.4571
 5869TIP3    H139098   6.058   5.069  13.854  0.7593 -1.0885  0.0952
 5869TIP3    H239099   5.917   5.024  13.885  0.6990 -0.3638  0.9238
 5870TIP3   OH239100   5.514   3.251   1.202 -0.4954  0.1469  0.2451
 5870TIP3    H139101   5.568   3.330   1.212 -2.8734  1.6460  2.2938
 5870TIP3    H239102   5.466   3.267   1.121 -1.5018  1.2182  1.0186
 5871TIP3   OH239103   1.320   2.016  16.605  0.3519 -0.0111  0.3902
 5871TIP3    H139104   1.378   2.043  16.676  1.3196  0.3903 -0.5401
 5871TIP3    H239105   1.316   1.920  16.613  0.6673  0.0103  0.8195
 5872TIP3   OH239106   1.882   1.664  14.076  0.0369  0.5978 -0.5702
 5872TIP3    H139107   1.825   1.630  14.007 -0.6629  1.2800 -0.3510
 5872TIP3    H239108   1.867   1.759  14.075  0.5047  0.6852  0.0769
 5873TIP3   OH239109   5.659   5.981   5.334  0.9406 -0.3223 -0.1488
 5873TIP3    H139110   5.745   6.008   5.301  1.5499  0.3980  1.8698
 5873TIP3    H239111   5.652   6.024   5.419 -2.4491  1.5899 -1.2377
 5874TIP3   OH239112   4.030   1.926   6.328 -0.3207  0.0682 -0.0187
 5874TIP3    H139113   4.066   1.970   6.406 -1.9653  1.6201 -0.0554
 5874TIP3    H239114   4.073   1.841   6.326  2.2131  1.2294  0.7252
 5875TIP3   OH239115   5.255   1.766   2.372  0.2869 -0.2284  0.0558
 5875TIP3    H139116   5.257   1.837   2.436 -0.0538 -0.4159  0.2795
 5875TIP3    H239117   5.195   1.798   2.304 -0.2457 -0.4963  0.3935
 5876TIP3   OH239118   3.060   3.518   2.393 -0.0926  0.1823  0.2888
 5876TIP3    H139119   3.099   3.533   2.479  0.2056 -1.1886  0.4139
 5876TIP3    H239120   3.134   3.506   2.334 -0.2807 -1.5964  0.3689
 5877TIP3   OH239121   6.091   3.432   4.491 -0.2344  0.0721 -0.0456
 5877TIP3    H139122   6.015   3.402   4.541  0.1378 -0.2286  0.3409
 5877TIP3    H239123   6.100   3.525   4.514  0.5060 -0.2874  1.1932
 5878TIP3   OH239124   1.008   3.226   0.355 -0.2826 -0.3043 -0.5209
 5878TIP3    H139125   0.993   3.288   0.426 -0.8957 -1.4489  0.3880
 5878TIP3    H239126   1.101   3.204   0.362 -0.1139  0.3401 -0.7116
 5879TIP3   OH239127   3.788   3.683  14.191 -0.8121 -0.3213 -0.2113
 5879TIP3    H139128   3.810   3.776  14.199 -0.8067 -0.2218 -1.2565
 5879TIP3    H239129   3.732   3.678  14.114 -0.9123 -1.1715 -0.0910
 5880TIP3   OH239130   1.234   0.870   4.788  0.0861  0.3634  0.0321
 5880TIP3    H139131   1.251   0.918   4.869 -0.0899 -0.5498  0.6231
 5880TIP3    H239132   1.308   0.811   4.779 -1.7751 -2.4341  1.7296
 5881TIP3   OH239133   5.711   4.117  12.408 -0.0649 -0.0027 -0.4673
 5881TIP3    H139134   5.623   4.109  12.445 -0.5799 -2.2819 -1.9583
 5881TIP3    H239135   5.699   4.171  12.330  0.0658  0.5166 -0.1338
 5882TIP3   OH239136   3.419   3.442   4.402  0.3399  0.9023 -0.0483
 5882TIP3    H139137   3.494   3.390   4.374 -0.2976  0.4631 -1.0156
 5882TIP3    H239138   3.453   3.499   4.470  0.7830 -1.8247  2.1839
 5883TIP3   OH239139   2.598   2.420   4.871  0.3690  0.0967  0.1085
 5883TIP3    H139140   2.549   2.502   4.873 -1.0218 -0.7168  1.8648
 5883TIP3    H239141   2.531   2.353   4.854  1.2389 -0.8366  0.3001
 5884TIP3   OH239142   3.570   2.206  13.954  0.6427 -0.2292  0.1276
 5884TIP3    H139143   3.553   2.295  13.986  3.2373  0.1635  0.6520
 5884TIP3    H239144   3.537   2.206  13.864 -2.1659  0.2387  1.0697
 5885TIP3   OH239145   2.975   0.461   4.313  0.3339  0.0653 -0.0561
 5885TIP3    H139146   3.066   0.460   4.283  0.7711  1.8540  1.0700
 5885TIP3    H239147   2.981   0.449   4.407 -0.7095 -1.1207 -0.1281
 5886TIP3   OH239148   4.905   6.785  17.143 -0.4641  0.3778 -0.3469
 5886TIP3    H139149   4.846   6.797  17.218 -0.5850  0.4293 -0.4485
 5886TIP3    H239150   4.971   6.853  17.153  0.6932 -0.8281  0.8143
 5887TIP3   OH239151   1.009   3.712   1.611  0.6347 -0.2628  0.0499
 5887TIP3    H139152   0.945   3.659   1.563  0.6946 -0.0138 -0.3018
 5887TIP3    H239153   0.960   3.746   1.686  0.6053 -0.8498  0.3031
 5888TIP3   OH239154   3.615   6.439   2.817 -0.0765 -0.0347  0.6726
 5888TIP3    H139155   3.533   6.393   2.836 -1.8459  2.2927 -0.8713
 5888TIP3    H239156   3.664   6.434   2.899 -2.3986 -0.2443  2.1564
 5889TIP3   OH239157   5.166   5.398   4.624  0.1471 -0.5038  0.5296
 5889TIP3    H139158   5.136   5.439   4.543  1.4578  0.3382  0.4395
 5889TIP3    H239159   5.154   5.465   4.691  1.1732 -0.3724  0.6006
 5890TIP3   OH239160   3.811   5.559   1.183  0.2262  0.2564 -0.1866
 5890TIP3    H139161   3.770   5.622   1.242 -0.1400  1.3155 -1.5168
 5890TIP3    H239162   3.870   5.611   1.129  1.7248 -0.9209  0.2530
 5891TIP3   OH239163   2.297   4.712  12.268 -0.4685 -0.1819  0.6739
 5891TIP3    H139164   2.386   4.743  12.282 -0.1676 -0.4624 -0.4723
 5891TIP3    H239165   2.249   4.739  12.346  0.3825  0.8679  0.8519
 5892TIP3   OH239166   5.929   6.136   5.696 -0.5812 -0.2202 -0.1578
 5892TIP3    H139167   6.011   6.176   5.666 -0.6530  0.6927  0.8053
 5892TIP3    H239168   5.935   6.045   5.668  0.6689 -0.1134 -0.2870
 5893TIP3   OH239169   4.467   2.739   1.188 -0.0752 -0.2956  0.9476
 5893TIP3    H139170   4.479   2.654   1.230  0.1956 -1.0472 -0.5516
 5893TIP3    H239171   4.394   2.779   1.235  0.4194 -0.9245  2.3036
 5894TIP3   OH239172   0.234   4.685  13.369  0.4585 -0.2656 -0.6594
 5894TIP3    H139173   0.223   4.625  13.295 -1.4570  0.1503 -0.7735
 5894TIP3    H239174   0.184   4.644  13.440  0.6496  0.3177 -0.1833
 5895TIP3   OH239175   6.590   1.751  14.515 -0.4690 -0.4779  0.4402
 5895TIP3    H139176   6.670   1.781  14.558 -0.6714 -0.1516  0.5919
 5895TIP3    H239177   6.608   1.763  14.422 -0.3880 -0.2871  0.4793
 5896TIP3   OH239178   1.608   1.016  16.049  0.3755  0.6017 -0.0220
 5896TIP3    H139179   1.641   0.982  16.132  0.9581 -2.5749 -1.4102
 5896TIP3    H239180   1.545   1.083  16.073  2.0332  1.2723  2.8992
 5897TIP3   OH239181   5.930   3.945   0.506  0.2475 -0.3284 -0.3905
 5897TIP3    H139182   5.892   3.887   0.572  0.4746  1.0984  1.0592
 5897TIP3    H239183   5.995   3.891   0.461  0.1590 -1.3199  0.6262
 5898TIP3   OH239184   4.548   2.614   0.761  0.2018  0.2076  0.8102
 5898TIP3    H139185   4.525   2.524   0.741 -0.2944  0.5416 -0.1486
 5898TIP3    H239186   4.468   2.651   0.799  0.4008  0.2588  1.1905
 5899TIP3   OH239187   2.665   0.821  12.194  0.3859  0.3974 -0.1680
 5899TIP3    H139188   2.653   0.903  12.242  0.0620 -0.9206  2.1741
 5899TIP3    H239189   2.599   0.823  12.125 -0.9719  1.2577  1.1063
 5900TIP3   OH239190   0.390   5.242  16.095  0.5429 -0.6893  0.1303
 5900TIP3    H139191   0.315   5.297  16.071  0.5744 -0.6681  0.0807
 5900TIP3    H239192   0.354   5.179  16.157  1.0626  1.0029  2.2622
 5901TIP3   OH239193   1.594   6.793   4.797 -0.4093 -0.2601  0.3213
 5901TIP3    H139194   1.611   6.885   4.781  0.3346 -0.3711  0.4375
 5901TIP3    H239195   1.525   6.792   4.864  2.1367  0.2774  3.1458
 5902TIP3   OH239196   5.629   0.060  12.034  0.0423  0.1730  0.0548
 5902TIP3    H139197   5.621  -0.036  12.036  1.2454  0.0617  1.2754
 5902TIP3    H239198   5.698   0.079  12.097  0.4770  1.7923 -0.8572
 5903TIP3   OH239199   1.399   1.339  16.391  0.0553 -0.3332 -0.0088
 5903TIP3    H139200   1.422   1.274  16.457 -1.8678 -0.7108  0.3649
 5903TIP3    H239201   1.412   1.295  16.307 -1.3157 -1.2624  0.2460
 5904TIP3   OH239202   6.794   0.541  15.164  0.1840 -0.4535  0.0008
 5904TIP3    H139203   6.794   0.624  15.212  1.6519 -0.8091  0.6783
 5904TIP3    H239204   6.793   0.567  15.071 -1.6093  0.2560  0.1857
 5905TIP3   OH239205   0.251   4.471  12.858 -0.1709 -0.2902 -0.6718
 5905TIP3    H139206   0.323   4.409  12.845  0.7740  0.6114  0.1443
 5905TIP3    H239207   0.286   4.555  12.831 -0.7078  0.2687  0.3029
 5906TIP3   OH239208   4.231   0.589   3.113 -0.2269 -0.0859 -0.9167
 5906TIP3    H139209   4.240   0.680   3.143 -0.6450 -0.5004  0.5607
 5906TIP3    H239210   4.160   0.592   3.049 -0.5316  0.5670 -0.5591
 5907TIP3   OH239211   6.542   5.467   3.522  0.4591  0.2000 -0.9377
 5907TIP3    H139212   6.518   5.377   3.545 -1.5976  0.7453 -0.8079
 5907TIP3    H239213   6.461   5.506   3.488  1.0785  2.2819 -0.1575
 5908TIP3   OH239214   0.008   1.071   3.156 -0.4329  0.0145  0.3772
 5908TIP3    H139215  -0.049   1.145   3.176 -0.6258  0.4860 -1.6896
 5908TIP3    H239216  -0.040   1.020   3.090  1.2290  0.1064 -0.9794
 5909TIP3   OH239217   1.373   3.758   6.055 -0.0291 -0.1289  0.0117
 5909TIP3    H139218   1.318   3.779   5.979 -2.2526  0.4423  1.6534
 5909TIP3    H239219   1.389   3.664   6.048 -0.2982 -0.1016 -1.0971
 5910TIP3   OH239220   3.320   0.451   3.940  0.2196 -0.6393  0.0823
 5910TIP3    H139221   3.363   0.453   4.026  0.6462  1.1363 -0.1309
 5910TIP3    H239222   3.228   0.438   3.961 -0.1538  2.5629  1.1291
 5911TIP3   OH239223   1.296   3.288   2.762 -0.7195 -0.2600 -0.6150
 5911TIP3    H139224   1.326   3.227   2.830  0.7986  1.2644  0.1310
 5911TIP3    H239225   1.340   3.370   2.782 -1.4226  0.6459 -2.5894
 5912TIP3   OH239226   5.334   2.923  16.747 -0.2618 -0.1586 -0.1179
 5912TIP3    H139227   5.255   2.870  16.750 -0.8320  0.6898  0.2047
 5912TIP3    H239228   5.305   3.012  16.767  0.9658 -0.0515  1.4174
 5913TIP3   OH239229   0.660   4.576  16.606 -0.1301 -0.6346 -0.1525
 5913TIP3    H139230   0.732   4.520  16.635 -0.0344 -0.0286  0.8540
 5913TIP3    H239231   0.695   4.623  16.530  0.4905 -0.4536  0.2397
 5914TIP3   OH239232   0.404   0.397  13.209  0.1352  0.3510  0.3151
 5914TIP3    H139233   0.402   0.489  13.182  0.2168  0.2276 -0.1255
 5914TIP3    H239234   0.313   0.368  13.200  0.4192 -0.1325 -1.4470
 5915TIP3   OH239235   3.799   3.992   2.386  0.0823  0.3224 -0.1990
 5915TIP3    H139236   3.887   3.994   2.349  0.5622 -1.7486  0.7022
 5915TIP3    H239237   3.772   3.901   2.379 -1.7819  0.8110  0.0780
 5916TIP3   OH239238   3.965   2.320  16.784 -0.1558  0.3444 -0.0968
 5916TIP3    H139239   3.959   2.332  16.879 -1.0755  0.0879 -0.1128
 5916TIP3    H239240   4.053   2.285  16.769  0.1075  0.6920  0.6280
 5917TIP3   OH239241   6.048   2.194   4.152  0.2147  0.2421 -0.6222
 5917TIP3    H139242   6.075   2.193   4.244 -0.0069 -1.0141 -0.5489
 5917TIP3    H239243   6.077   2.110   4.118  1.2793  1.1414 -2.0259
 5918TIP3   OH239244   1.671   1.713  15.074 -0.1121 -0.0848  0.1199
 5918TIP3    H139245   1.691   1.762  14.994  0.2668 -0.3019  0.0768
 5918TIP3    H239246   1.746   1.730  15.132 -0.3605  0.0325  0.4103
 5919TIP3   OH239247   3.760   4.694   5.710  0.3641 -0.4928 -0.0362
 5919TIP3    H139248   3.822   4.646   5.766  2.7089  0.1534 -1.9308
 5919TIP3    H239249   3.734   4.630   5.643  0.6009 -0.1781 -0.4319
 5920TIP3   OH239250   2.679   6.449  12.369 -0.4494  0.4487 -0.2667
 5920TIP3    H139251   2.696   6.448  12.463 -1.3002  0.5862 -0.1087
 5920TIP3    H239252   2.734   6.379  12.335 -1.9971 -1.3225  0.6740
 5921TIP3   OH239253   0.328   6.818  17.112 -0.0671 -0.2081  0.2410
 5921TIP3    H139254   0.309   6.885  17.178  1.0525 -1.8166  2.3639
 5921TIP3    H239255   0.246   6.770  17.102 -1.7733  2.9814 -3.4405
 5922TIP3   OH239256   2.170   1.414   3.386 -0.4289 -0.4948 -0.4835
 5922TIP3    H139257   2.126   1.396   3.303  0.0980 -0.8673 -0.6892
 5922TIP3    H239258   2.114   1.478   3.430 -0.5260 -0.0202 -1.2847
 5923TIP3   OH239259   2.654   1.629   3.481 -0.0985 -0.0370  0.1721
 5923TIP3    H139260   2.572   1.603   3.523 -0.5374  0.8524 -0.1117
 5923TIP3    H239261   2.641   1.608   3.388  0.0363  0.0099  0.1431
 5924TIP3   OH239262   6.141   4.343   6.476 -0.2874 -0.0376  0.1305
 5924TIP3    H139263   6.220   4.305   6.437 -0.0840  1.2767 -0.8380
 5924TIP3    H239264   6.169   4.431   6.504 -1.6248  0.8303 -1.1290
 5925TIP3   OH239265   5.497   0.509  11.665 -0.4001  0.2051 -0.6521
 5925TIP3    H139266   5.401   0.507  11.666 -0.4335  1.2516 -0.6285
 5925TIP3    H239267   5.520   0.506  11.572 -0.5320  1.7472 -0.7610
 5926TIP3   OH239268   0.155   0.550   0.235 -0.2865  0.2850  0.1557
 5926TIP3    H139269   0.228   0.611   0.226  0.7287 -0.7004  1.2556
 5926TIP3    H239270   0.110   0.552   0.150  1.1401  0.7774 -0.6169
 5927TIP3   OH239271   5.071   0.766   5.997  0.1996 -0.3173  0.2491
 5927TIP3    H139272   5.108   0.847   5.963  2.9146 -1.6880 -0.3591
 5927TIP3    H239273   5.099   0.763   6.088 -1.2194  0.0887  0.7352
 5928TIP3   OH239274   4.851   5.121   5.894  0.2287  0.4801  0.1273
 5928TIP3    H139275   4.913   5.075   5.837  1.0625  0.7396  0.8084
 5928TIP3    H239276   4.773   5.066   5.892  1.1238 -0.8865  0.7505
 5929TIP3   OH239277   1.711   5.467   0.796  0.0679  0.2551 -0.4036
 5929TIP3    H139278   1.725   5.560   0.811 -0.2135  0.2874 -0.3439
 5929TIP3    H239279   1.644   5.442   0.859  2.6313 -0.7794  2.1093
 5930TIP3   OH239280   6.616   6.403   2.435 -0.2209 -0.0611  0.0328
 5930TIP3    H139281   6.694   6.452   2.410 -0.9683  1.5531  0.7383
 5930TIP3    H239282   6.647   6.344   2.504  0.2670  0.9748  0.7192
 5931TIP3   OH239283   0.180   1.759   4.701 -0.0145 -0.2014 -0.6927
 5931TIP3    H139284   0.092   1.732   4.728 -0.5686  1.1429 -1.0628
 5931TIP3    H239285   0.198   1.839   4.751  0.7451 -0.1305 -1.0554
 5932TIP3   OH239286   2.328   4.642   1.625  0.0822  0.3290 -0.2998
 5932TIP3    H139287   2.407   4.591   1.640 -1.0435 -1.7483 -1.0586
 5932TIP3    H239288   2.306   4.678   1.711  0.2600 -1.4845  0.5444
 5933TIP3   OH239289   5.028   0.596  16.238  0.2299 -0.1075  0.3871
 5933TIP3    H139290   4.966   0.669  16.233  0.8595  0.3641 -0.8066
 5933TIP3    H239291   4.987   0.534  16.299 -0.6083  0.9476  0.9313
 5934TIP3   OH239292   3.136   1.199  15.145 -0.0252 -0.3488  0.4888
 5934TIP3    H139293   3.161   1.281  15.101  1.1038 -0.5252  0.7885
 5934TIP3    H239294   3.203   1.186  15.212 -0.0577 -1.6430  0.2934
 5935TIP3   OH239295   0.508   2.954  11.946 -0.7496  0.6663 -0.4116
 5935TIP3    H139296   0.440   3.008  11.986  0.3076  1.5878  0.2041
 5935TIP3    H239297   0.463   2.908  11.875 -2.9350 -1.6200  2.1785
 5936TIP3   OH239298   1.877   2.455   2.065 -0.7178  0.1644  0.6423
 5936TIP3    H139299   1.782   2.456   2.056 -0.7496 -0.0004  0.9412
 5936TIP3    H239300   1.907   2.383   2.010 -0.7879  0.0446  0.7628
 5937TIP3   OH239301   3.033   3.808  16.524  0.5523  0.2331  0.5890
 5937TIP3    H139302   3.097   3.742  16.498 -0.0655 -0.4845  0.8329
 5937TIP3    H239303   3.085   3.882  16.554  1.2867  0.7280 -1.7174
 5938TIP3   OH239304   4.271   0.641  12.977  0.2015  0.3000  0.4956
 5938TIP3    H139305   4.312   0.665  12.894 -0.9215 -1.0531 -0.4846
 5938TIP3    H239306   4.179   0.627  12.956 -0.6180  2.2271  2.4403
 5939TIP3   OH239307   1.197   2.523   4.482  0.6000 -0.3131 -0.4433
 5939TIP3    H139308   1.183   2.587   4.552 -0.0996 -2.1152  1.1583
 5939TIP3    H239309   1.180   2.572   4.401  1.9407  1.9949  0.5474
 5940TIP3   OH239310   0.200   6.105   3.708 -0.1959  0.2513  0.0863
 5940TIP3    H139311   0.161   6.121   3.794  0.2213  2.5153 -0.0627
 5940TIP3    H239312   0.130   6.124   3.646 -0.3028 -0.7189 -0.1037
 5941TIP3   OH239313   5.340   0.581   3.928 -0.1132  0.8698 -0.0526
 5941TIP3    H139314   5.292   0.533   3.995 -1.0172  0.1766 -1.1606
 5941TIP3    H239315   5.422   0.533   3.918  1.0231  2.1943  2.0161
 5942TIP3   OH239316   5.996   3.799   6.928 -0.0424 -0.1720  0.3347
 5942TIP3    H139317   5.914   3.749   6.931  0.2033 -0.5346  1.9204
 5942TIP3    H239318   6.062   3.734   6.904 -0.1332  0.0110 -0.4294
 5943TIP3   OH239319   5.697   0.554   2.664 -0.1300  0.0611  0.0696
 5943TIP3    H139320   5.702   0.610   2.586  0.5738  1.1658  0.8669
 5943TIP3    H239321   5.788   0.536   2.686 -0.3423 -1.4404 -0.1615
 5944TIP3   OH239322   4.109   3.272  16.922  0.3002 -0.3599  0.7225
 5944TIP3    H139323   4.051   3.196  16.930  1.1568 -1.0152  0.9165
 5944TIP3    H239324   4.153   3.259  16.837 -1.2964  1.1983 -0.4029
 5945TIP3   OH239325   2.289   3.016   5.416  0.7504  0.3429  0.2974
 5945TIP3    H139326   2.314   2.965   5.340 -0.1142 -0.5944  0.6166
 5945TIP3    H239327   2.291   2.954   5.489 -1.6499  0.3746  0.4689
 5946TIP3   OH239328   6.742   4.045   2.527  0.0606  0.6838  0.0233
 5946TIP3    H139329   6.762   4.043   2.620 -1.3301  1.5690  0.3676
 5946TIP3    H239330   6.756   4.136   2.501 -0.9784  0.7583 -0.2959
 5947TIP3   OH239331   1.168   2.289   1.558 -0.3513  0.3799 -0.3901
 5947TIP3    H139332   1.235   2.342   1.601  0.1084 -1.5825  1.5094
 5947TIP3    H239333   1.200   2.277   1.469  2.3940 -1.2787  0.7114
 5948TIP3   OH239334   2.403   4.988  15.561  0.0744 -0.8792  0.1519
 5948TIP3    H139335   2.386   4.940  15.642  1.2053  2.9842  2.9649
 5948TIP3    H239336   2.496   4.972  15.543 -0.2530 -1.9884 -0.6069
 5949TIP3   OH239337   6.262   6.425   0.679 -0.5186 -0.1094  0.1209
 5949TIP3    H139338   6.226   6.351   0.727 -3.0373  1.2741  0.5149
 5949TIP3    H239339   6.350   6.397   0.654  0.3616 -1.5480  4.0890
 5950TIP3   OH239340   3.776   1.139  17.039  0.3445  0.0831 -0.6718
 5950TIP3    H139341   3.681   1.126  17.036  0.3537 -0.1790 -0.0675
 5950TIP3    H239342   3.796   1.142  17.132  1.1176 -1.4079 -0.7623
 5951TIP3   OH239343   0.336   6.791   2.439  0.3142 -1.1025 -0.1895
 5951TIP3    H139344   0.361   6.848   2.366  1.1984  5.2178  4.1979
 5951TIP3    H239345   0.420   6.763   2.476  0.3194  1.2020  1.7855
 5952TIP3   OH239346   3.082   1.544   5.497  0.1083 -0.4555  0.3851
 5952TIP3    H139347   3.161   1.586   5.463  0.0890  1.4950  2.4980
 5952TIP3    H239348   3.012   1.577   5.440  0.4184  0.5465  0.5519
 5953TIP3   OH239349   5.732   4.535  11.882  0.2729 -0.0930 -0.1557
 5953TIP3    H139350   5.778   4.563  11.962 -0.0637 -0.4101  0.1508
 5953TIP3    H239351   5.651   4.587  11.883  0.4954  0.2624 -0.5495
 5954TIP3   OH239352   6.497   1.515   5.165  0.0658 -0.2136 -0.0260
 5954TIP3    H139353   6.468   1.606   5.162 -3.2608 -1.0921  1.3519
 5954TIP3    H239354   6.497   1.487   5.073 -0.6184  0.7065 -0.3159
 5955TIP3   OH239355   4.555   5.063   0.547 -0.2858  0.3478  0.2354
 5955TIP3    H139356   4.604   5.144   0.563  0.1794 -0.1116  1.2489
 5955TIP3    H239357   4.519   5.040   0.633  0.1911 -0.8969  0.1231
 5956TIP3   OH239358   2.108   0.229  11.872  0.5363  0.0954 -0.1280
 5956TIP3    H139359   2.200   0.205  11.884  0.7742  1.2854  0.5641
 5956TIP3    H239360   2.060   0.162  11.920  1.0339 -0.5793 -0.5542
 5957TIP3   OH239361   5.074   4.950  12.773 -0.1083  0.1503 -0.2209
 5957TIP3    H139362   5.129   5.022  12.802  1.3163 -1.2688  0.7355
 5957TIP3    H239363   5.131   4.874  12.773 -0.5596 -0.4668 -4.5886
 5958TIP3   OH239364   3.391   3.954  13.268  0.5552  0.1980  0.5059
 5958TIP3    H139365   3.398   4.049  13.253 -0.6695  0.7303  2.9054
 5958TIP3    H239366   3.367   3.946  13.360  0.5605 -2.4736  0.3388
 5959TIP3   OH239367   5.301   2.623  11.317 -0.0670 -0.0167 -0.2294
 5959TIP3    H139368   5.317   2.594  11.407  0.1839  0.0646 -0.2472
 5959TIP3    H239369   5.267   2.545  11.272 -0.2451 -0.0431 -0.0517
 5960TIP3   OH239370   0.009   2.378  11.746  0.7390  0.5507  0.3353
 5960TIP3    H139371   0.011   2.348  11.837 -0.2244  1.4863  0.6799
 5960TIP3    H239372  -0.010   2.471  11.752 -1.3605  0.2481 -0.8738
 5961TIP3   OH239373   5.504   4.870  12.295 -0.1220 -0.4856 -0.4087
 5961TIP3    H139374   5.466   4.866  12.382  0.6491 -3.2421 -0.0924
 5961TIP3    H239375   5.466   4.795  12.249  0.0624  0.4718 -2.2178
 5962TIP3   OH239376   4.225   0.542  16.333 -0.3665 -0.1417  0.2763
 5962TIP3    H139377   4.270   0.486  16.269  0.7829  0.3311  0.6402
 5962TIP3    H239378   4.207   0.623  16.285 -0.3146 -0.1210  0.2915
 5963TIP3   OH239379   3.198   6.629   0.561 -0.1328 -0.0652 -0.2958
 5963TIP3    H139380   3.179   6.539   0.587 -2.6148  0.3713 -0.2982
 5963TIP3    H239381   3.114   6.662   0.527  1.1308  1.7102 -1.9255
 5964TIP3   OH239382   3.898   1.106  14.323  0.4100 -0.2398  0.2381
 5964TIP3    H139383   3.824   1.146  14.369 -0.5700 -0.8332 -0.7924
 5964TIP3    H239384   3.950   1.181  14.293 -1.0258  0.2862 -1.0546
 5965TIP3   OH239385   6.754   2.899   5.871  0.6352 -0.2563  0.2919
 5965TIP3    H139386   6.777   2.807   5.865  0.3329 -0.4780  1.9534
 5965TIP3    H239387   6.711   2.907   5.956 -1.1881  1.0214 -0.6805
 5966TIP3   OH239388   1.142   2.194  13.455  0.5231  0.3162 -0.6852
 5966TIP3    H139389   1.159   2.192  13.361 -0.2724  1.4981 -0.8882
 5966TIP3    H239390   1.135   2.288  13.476 -1.2624  0.0359  0.1611
 5967TIP3   OH239391   5.570   0.045  15.820  0.0134 -0.5660  0.0122
 5967TIP3    H139392   5.603  -0.034  15.864 -1.6100 -0.4857  1.4920
 5967TIP3    H239393   5.476   0.029  15.810 -0.7538  1.8958  2.1481
 5968TIP3   OH239394   2.493   3.832  14.535 -0.5769 -0.1024 -0.8531
 5968TIP3    H139395   2.588   3.822  14.538 -0.5988 -1.1354 -2.1347
 5968TIP3    H239396   2.479   3.913  14.487 -0.3096 -0.7057 -1.9953
 5969TIP3   OH239397   6.107   3.496   2.709  0.0109  0.3383  0.0729
 5969TIP3    H139398   6.055   3.472   2.632 -1.5508  1.3333  0.7690
 5969TIP3    H239399   6.071   3.581   2.736  1.5256  0.7093  1.0322
 5970TIP3   OH239400   0.339   0.140   5.122  0.3392  0.2914  0.0195
 5970TIP3    H139401   0.331   0.233   5.140 -0.5925 -0.2287  2.9398
 5970TIP3    H239402   0.254   0.115   5.086  0.3461  0.4388 -0.1000
 5971TIP3   OH239403   6.235   2.664  16.344 -0.0849  0.7406 -0.3650
 5971TIP3    H139404   6.203   2.593  16.288  3.0101  0.9047 -2.5906
 5971TIP3    H239405   6.279   2.724  16.283  0.9528  2.4808  1.9561
 5972TIP3   OH239406   6.079   3.424  16.892  0.1891  0.4055 -0.2110
 5972TIP3    H139407   6.153   3.464  16.846  0.6080 -0.0268  0.0813
 5972TIP3    H239408   6.084   3.459  16.981  1.0221 -0.8679  0.2711
 5973TIP3   OH239409   0.044   5.683  15.705 -0.3996 -0.5929 -0.5623
 5973TIP3    H139410   0.018   5.597  15.673  1.6190 -1.3878 -0.2473
 5973TIP3    H239411  -0.034   5.717  15.750 -1.6629 -1.6232 -1.9004
 5974TIP3   OH239412   2.978   4.445   4.562 -0.2340  0.0563 -0.1955
 5974TIP3    H139413   2.919   4.378   4.597 -0.2842 -0.3262 -1.0011
 5974TIP3    H239414   3.010   4.491   4.640 -0.1471 -0.9468  0.3794
 5975TIP3   OH239415   4.170   2.755   0.439  0.2681 -0.8155  0.0701
 5975TIP3    H139416   4.089   2.713   0.466  0.0213  0.6463  1.7476
 5975TIP3    H239417   4.182   2.828   0.500  2.3527 -0.4095 -0.7223
 5976TIP3   OH239418   5.376   5.219  13.301 -0.0399 -0.5344 -0.0919
 5976TIP3    H139419   5.435   5.237  13.374 -1.4502 -0.4563  1.0749
 5976TIP3    H239420   5.300   5.275  13.317 -0.5591 -0.8257 -1.4031
 5977TIP3   OH239421   0.965   0.170  13.566  0.2304 -0.3324 -0.1348
 5977TIP3    H139422   1.000   0.125  13.489  0.6574  1.4595 -1.0426
 5977TIP3    H239423   0.899   0.230  13.531  2.0242  2.2065  0.5188
 5978TIP3   OH239424   2.277   0.979  14.002  0.9090 -0.1990 -0.2048
 5978TIP3    H139425   2.326   0.909  13.960 -0.1419 -0.4849 -0.9977
 5978TIP3    H239426   2.329   1.058  13.985  1.2003 -0.5194 -0.8438
 5979TIP3   OH239427   0.164   0.885  13.847 -0.6096 -0.2008 -0.6957
 5979TIP3    H139428   0.138   0.865  13.757 -1.0740  0.5359 -0.7308
 5979TIP3    H239429   0.137   0.808  13.897  0.4254 -0.9878 -1.3109
 5980TIP3   OH239430   6.153   0.067   1.918  0.0156  0.0597 -0.4108
 5980TIP3    H139431   6.177   0.063   1.825  0.6706 -0.7434 -0.2202
 5980TIP3    H239432   6.059   0.049   1.919 -0.7320  3.3212 -1.1786
 5981TIP3   OH239433   2.412   6.146   5.814 -0.7175 -0.1363 -0.1830
 5981TIP3    H139434   2.433   6.218   5.873 -0.2363 -0.0772 -0.4183
 5981TIP3    H239435   2.318   6.134   5.822 -0.8897  0.9233 -0.6073
 5982TIP3   OH239436   4.479   5.566  15.715  0.7214  0.2126  0.1707
 5982TIP3    H139437   4.519   5.508  15.780 -0.7383 -0.2810  0.6908
 5982TIP3    H239438   4.550   5.589  15.656  2.2538  1.1773  2.2707
 5983TIP3   OH239439   3.451   5.789   2.581 -0.0041  0.3776  0.5586
 5983TIP3    H139440   3.386   5.859   2.577 -0.2095  0.1354 -1.2542
 5983TIP3    H239441   3.532   5.831   2.553 -0.2199 -0.1565 -0.9797
 5984TIP3   OH239442   4.211   0.525   5.784 -0.1852  0.6274 -0.0654
 5984TIP3    H139443   4.303   0.515   5.809  0.3825  2.7684 -1.0590
 5984TIP3    H239444   4.162   0.495   5.861  1.3535  0.0679  0.7449
 5985TIP3   OH239445   5.179   6.669  13.656 -0.2128  0.6127 -0.6552
 5985TIP3    H139446   5.146   6.585  13.627  1.2130 -1.0527  2.1201
 5985TIP3    H239447   5.101   6.723  13.670 -1.4692 -1.4013  0.6624
 5986TIP3   OH239448   3.077   4.028   3.215 -0.5777 -0.2098  0.5299
 5986TIP3    H139449   3.054   4.113   3.179 -2.1843 -0.2565  1.3549
 5986TIP3    H239450   3.080   3.969   3.140 -0.3177  0.3890  0.0645
 5987TIP3   OH239451   2.876   1.821   1.043 -0.1221  0.0583  0.1497
 5987TIP3    H139452   2.920   1.900   1.012  0.1166 -0.1733 -0.1157
 5987TIP3    H239453   2.805   1.852   1.100 -0.6763  0.5009 -0.7685
 5988TIP3   OH239454   0.198   0.741   5.662  0.2293  0.7195  0.1056
 5988TIP3    H139455   0.233   0.683   5.730 -1.1882 -1.2177 -0.7084
 5988TIP3    H239456   0.113   0.703   5.641 -0.2197  2.4385 -1.3584
 5989TIP3   OH239457   1.863   1.284  12.863  0.5268 -0.1288  0.2892
 5989TIP3    H139458   1.896   1.327  12.784  0.5848  0.3091  0.5478
 5989TIP3    H239459   1.770   1.270  12.846  1.1408 -3.2417 -1.3035
 5990TIP3   OH239460   4.977   1.021  16.199  0.5453 -0.4133  0.9999
 5990TIP3    H139461   4.889   1.059  16.200  0.5434 -0.4047  0.5399
 5990TIP3    H239462   4.965   0.931  16.231  0.1977 -0.7716 -0.0968
 5991TIP3   OH239463   4.965   1.478   5.853  0.3144  0.1264  0.6634
 5991TIP3    H139464   4.927   1.441   5.773 -2.6943  0.0522  1.9732
 5991TIP3    H239465   5.000   1.563   5.827 -0.8500  0.2163 -0.6936
 5992TIP3   OH239466   6.244   0.989   4.152  0.4761 -0.0229  0.2208
 5992TIP3    H139467   6.261   0.971   4.059  0.1835 -0.5857  0.2675
 5992TIP3    H239468   6.326   1.025   4.185  0.3312  0.9620 -0.4473
 5993TIP3   OH239469   3.172   6.654  14.816  0.0154 -0.1441  0.1241
 5993TIP3    H139470   3.144   6.606  14.894 -2.1716  1.1186  0.1868
 5993TIP3    H239471   3.219   6.730  14.850  0.9837 -0.7174  0.1071
 5994TIP3   OH239472   2.800   5.482   5.580  0.2746 -0.8358  0.2541
 5994TIP3    H139473   2.795   5.408   5.520 -0.3953 -1.6446  1.2753
 5994TIP3    H239474   2.863   5.454   5.647  0.8438 -0.0398  0.0615
 5995TIP3   OH239475   2.089   6.544   3.188  0.3921 -0.3052 -0.0046
 5995TIP3    H139476   2.145   6.613   3.152 -0.8684  0.5102 -0.4693
 5995TIP3    H239477   2.145   6.497   3.249  1.3930  0.9113  0.0486
 5996TIP3   OH239478   1.943   5.965  15.127 -0.2956 -0.4925  0.1227
 5996TIP3    H139479   1.867   5.973  15.068 -0.7515 -1.6367  0.5244
 5996TIP3    H239480   2.011   6.017  15.085 -1.2431  0.3998 -0.3541
 5997TIP3   OH239481   4.626   1.738   0.913 -0.5997 -0.5167  0.4101
 5997TIP3    H139482   4.671   1.723   0.996  0.5198  0.4756  0.0158
 5997TIP3    H239483   4.540   1.773   0.938 -0.1471  0.0932  1.1601
 5998TIP3   OH239484   0.649   3.766  13.107 -0.4432  0.5303 -0.2699
 5998TIP3    H139485   0.705   3.689  13.106 -1.8588 -0.6031  1.3973
 5998TIP3    H239486   0.656   3.803  13.019  2.9877  0.5436 -0.0937
 5999TIP3   OH239487   6.268   0.089   0.013 -0.0655 -0.2970  0.1217
 5999TIP3    H139488   6.215   0.094  -0.066  0.4664 -0.6757 -0.2724
 5999TIP3    H239489   6.207   0.105   0.085 -0.7245 -0.8478 -0.3087
 6000TIP3   OH239490   0.229   0.878   2.438 -0.6820  0.0938  0.2144
 6000TIP3    H139491   0.274   0.960   2.419  2.0446 -1.1593  0.6524
 6000TIP3    H239492   0.228   0.873   2.534 -0.5907 -0.4678  0.1910
 6001TIP3   OH239493   6.790   3.353  17.253 -0.3509 -0.3647  0.7629
 6001TIP3    H139494   6.862   3.415  17.251  0.2889 -1.0979  0.2513
 6001TIP3    H239495   6.721   3.394  17.201  1.1018 -1.2713 -2.0628
 6002TIP3   OH239496   5.421   2.085  14.056  0.8649  0.0823 -0.0225
 6002TIP3    H139497   5.460   2.103  14.142  1.7022  0.6756 -0.5170
 6002TIP3    H239498   5.413   1.990  14.053 -0.2138  0.0981  1.1588
 6003TIP3   OH239499   4.773   1.390   5.670  0.5795  0.0144  0.0787
 6003TIP3    H139500   4.780   1.295   5.676  1.5187 -0.0879 -1.8723
 6003TIP3    H239501   4.684   1.405   5.636  0.7947 -0.2373 -0.6065
 6004TIP3   OH239502   1.941   0.764  16.235  0.0183  0.3443  0.3850
 6004TIP3    H139503   1.862   0.814  16.256 -0.1597  0.6277 -0.8606
 6004TIP3    H239504   1.985   0.752  16.319 -1.1941  0.4485  1.0560
 6005TIP3   OH239505   3.064   6.440   1.998 -0.1278 -0.4318  0.4658
 6005TIP3    H139506   3.053   6.378   2.070  1.7250  0.9455  2.0387
 6005TIP3    H239507   3.003   6.511   2.018  0.0112 -0.2942  0.4039
 6006TIP3   OH239508   4.396   0.973   4.648 -0.0817 -0.2463  0.2337
 6006TIP3    H139509   4.405   0.901   4.710  2.5686 -0.0824  0.1681
 6006TIP3    H239510   4.415   1.051   4.699 -0.9228  0.2033 -0.1356
 6007TIP3   OH239511   1.086   3.269   0.102 -0.2875  0.2898  0.6734
 6007TIP3    H139512   1.041   3.208   0.043 -1.3085  0.4126  1.2984
 6007TIP3    H239513   1.056   3.244   0.190  1.9493 -0.5270  1.2694
 6008TIP3   OH239514   5.470   0.192  11.794  0.1364 -0.0051  0.1761
 6008TIP3    H139515   5.384   0.233  11.783  0.3637  0.2290 -0.8796
 6008TIP3    H239516   5.531   0.255  11.756  0.7884 -0.1537  0.9514
 6009TIP3   OH239517   3.981   1.013  14.063  0.5259  0.0388 -0.3392
 6009TIP3    H139518   3.919   1.004  13.990  0.9143  1.6419 -0.9043
 6009TIP3    H239519   3.931   1.052  14.134  1.2603  3.3764 -1.4891
 6010TIP3   OH239520   3.765   0.221   2.220 -0.0731  0.4832 -0.1878
 6010TIP3    H139521   3.850   0.177   2.224  0.3379  1.1301 -1.2979
 6010TIP3    H239522   3.722   0.198   2.302  1.2837  0.3766  0.5239
 6011TIP3   OH239523   0.308   0.731   0.110 -0.2325 -0.4782 -0.0520
 6011TIP3    H139524   0.400   0.734   0.085 -0.2051  0.5457  0.1193
 6011TIP3    H239525   0.261   0.756   0.031 -0.1921  1.8025  0.5453
 6012TIP3   OH239526   1.295   3.751   0.314 -0.3632  0.1720  0.1614
 6012TIP3    H139527   1.277   3.837   0.276 -0.8686  0.5644  1.2381
 6012TIP3    H239528   1.210   3.707   0.314 -0.5069  0.4256  1.4046
 6013TIP3   OH239529   0.930   6.170  11.674 -0.4667 -0.3459  0.5769
 6013TIP3    H139530   0.979   6.154  11.593 -1.8906 -3.0384  0.1427
 6013TIP3    H239531   0.880   6.089  11.689 -2.5742  1.1862  2.5395
 6014TIP3   OH239532   4.077   5.058   1.898 -0.1769 -0.1934 -0.0856
 6014TIP3    H139533   4.165   5.096   1.890  0.3498 -1.4303 -0.4536
 6014TIP3    H239534   4.073   5.027   1.989  0.8388 -2.5286 -0.7471
 6015TIP3   OH239535   1.567   2.797  16.724 -0.0080  0.6930  0.1348
 6015TIP3    H139536   1.637   2.844  16.770 -0.7254  1.7557  0.1870
 6015TIP3    H239537   1.612   2.751  16.653  0.7955  1.0136  0.4200
 6016TIP3   OH239538   5.006   6.523   6.067 -0.2404  0.2998 -0.3141
 6016TIP3    H139539   4.913   6.529   6.045 -0.5117  1.3665  0.9648
 6016TIP3    H239540   5.034   6.439   6.031 -2.7896 -2.2867  3.0621
 6017TIP3   OH239541   3.882   3.128  16.206  0.3108  0.2084  1.0023
 6017TIP3    H139542   3.922   3.160  16.125 -0.9489  0.2055  0.3528
 6017TIP3    H239543   3.933   3.170  16.276  1.3561  0.2828  0.2159
 6018TIP3   OH239544   4.529   6.381  16.496 -0.1124  0.0441 -0.6535
 6018TIP3    H139545   4.471   6.452  16.522  0.0301  0.3127 -1.0751
 6018TIP3    H239546   4.599   6.382  16.562  0.5376  1.0734 -1.3352
 6019TIP3   OH239547   6.633   4.555   3.561 -0.0207  0.3269 -0.2283
 6019TIP3    H139548   6.627   4.487   3.628 -1.4210 -0.3849 -1.0398
 6019TIP3    H239549   6.549   4.552   3.515  1.0379  0.4906 -2.3015
 6020TIP3   OH239550   3.971   0.501   0.276  0.6830  0.0533  0.0745
 6020TIP3    H139551   4.032   0.570   0.302 -0.5230  0.6350  1.4696
 6020TIP3    H239552   3.901   0.504   0.341 -0.0003 -1.7152 -0.5108
 6021TIP3   OH239553   5.111   2.898   5.180 -0.2209  0.0980  0.1082
 6021TIP3    H139554   5.088   2.976   5.230 -0.2031 -0.0173  0.2980
 6021TIP3    H239555   5.179   2.928   5.119 -0.3552  0.2739  0.0433
 6022TIP3   OH239556   6.490   2.057   4.517  0.0797 -0.2526  0.2104
 6022TIP3    H139557   6.403   2.088   4.543  0.9265  2.9922 -0.3617
 6022TIP3    H239558   6.486   2.053   4.422  0.2108 -1.3458  0.2420
 6023TIP3   OH239559   0.610   2.605  15.952  0.2155  0.5629  0.3747
 6023TIP3    H139560   0.654   2.607  16.037 -1.2027  0.7779  1.1346
 6023TIP3    H239561   0.540   2.670  15.960 -1.3652 -1.0129 -0.1431
 6024TIP3   OH239562   5.448   4.022   2.534  0.3975  0.1652  0.6390
 6024TIP3    H139563   5.405   3.948   2.490  0.0263  1.1223 -0.6624
 6024TIP3    H239564   5.377   4.075   2.568  0.5662  1.0224 -0.3014
 6025TIP3   OH239565   0.198   1.800  16.549 -0.9136 -0.2383 -0.6177
 6025TIP3    H139566   0.221   1.871  16.489 -0.0252 -1.1030 -1.3218
 6025TIP3    H239567   0.220   1.835  16.636 -2.3525  1.0733 -0.7297
 6026TIP3   OH239568   5.832   3.703   4.035 -0.9336  0.5312  0.0992
 6026TIP3    H139569   5.758   3.756   4.063 -0.9067 -0.0461  1.3276
 6026TIP3    H239570   5.847   3.643   4.108 -0.5698 -0.7418 -0.9938
 6027TIP3   OH239571   6.772   0.886  11.733 -0.0293  0.2757 -0.4760
 6027TIP3    H139572   6.804   0.951  11.670  1.4417 -1.4205 -1.5712
 6027TIP3    H239573   6.711   0.832  11.683  1.3580 -1.2567 -0.5897
 6028TIP3   OH239574   1.719   1.210   3.053 -0.1644 -0.9164 -0.4837
 6028TIP3    H139575   1.700   1.139   2.993 -0.3397 -0.5659 -0.8455
 6028TIP3    H239576   1.737   1.167   3.137 -1.0722 -1.3401 -0.4956
 6029TIP3   OH239577   5.979   1.296  12.325 -0.7242  0.6426 -0.2586
 6029TIP3    H139578   6.072   1.272  12.323 -0.8111  0.3125 -0.5714
 6029TIP3    H239579   5.936   1.219  12.361 -0.9509  0.5128 -0.7893
 6030TIP3   OH239580   4.810   4.712  12.763  0.3133  0.2141  0.3161
 6030TIP3    H139581   4.803   4.656  12.686  0.0319  0.6265  0.0410
 6030TIP3    H239582   4.894   4.688  12.802  0.1331 -0.5018  0.2838
 6031TIP3   OH239583   5.384   5.915  14.494 -0.2011  0.2726  0.1769
 6031TIP3    H139584   5.314   5.862  14.455  0.9043 -1.2548  0.1512
 6031TIP3    H239585   5.339   5.977  14.551 -1.7178  1.0076 -1.7223
 6032TIP3   OH239586   3.466   1.735   0.827  0.0112  0.0839  0.2780
 6032TIP3    H139587   3.446   1.644   0.805  1.6154 -0.5376  1.2459
 6032TIP3    H239588   3.539   1.730   0.888 -1.3477  1.9148  2.2109
 6033TIP3   OH239589   1.126   3.896   4.599 -0.5829 -0.3988 -0.1253
 6033TIP3    H139590   1.067   3.910   4.673  2.0681  0.7056  1.9856
 6033TIP3    H239591   1.164   3.810   4.615  3.2896  1.4997  2.6275
 6034TIP3   OH239592   4.660   6.323  13.091  0.0695  0.0259 -0.0351
 6034TIP3    H139593   4.666   6.255  13.024 -0.0241 -0.9757  0.9456
 6034TIP3    H239594   4.737   6.310  13.145 -0.4046  0.1289  0.6771
 6035TIP3   OH239595   2.048   1.257  14.262  0.1121 -0.0888 -0.3286
 6035TIP3    H139596   2.020   1.331  14.208 -0.8922  1.8815  2.6572
 6035TIP3    H239597   2.140   1.276  14.281  0.1512 -0.1929 -0.4121
 6036TIP3   OH239598   5.404   0.779   6.003 -0.4652 -0.1852  0.2103
 6036TIP3    H139599   5.318   0.802   6.038 -0.9785 -1.4761 -0.1394
 6036TIP3    H239600   5.423   0.848   5.940 -1.2945  0.0698  0.2183
 6037TIP3   OH239601   6.306   2.830  11.202  0.2897 -0.1150 -0.3267
 6037TIP3    H139602   6.387   2.857  11.159  0.5038 -1.4839 -0.8294
 6037TIP3    H239603   6.334   2.768  11.269 -0.4033 -1.6387 -1.3780
 6038TIP3   OH239604   4.220   1.931  13.945 -0.0190 -0.4877  0.2073
 6038TIP3    H139605   4.234   1.903  14.036  0.1258 -1.0785  0.0084
 6038TIP3    H239606   4.129   1.961  13.944  0.0492 -0.2560  0.6024
 6039TIP3   OH239607   1.237   6.178  14.240 -0.4837 -0.6567 -0.5836
 6039TIP3    H139608   1.206   6.160  14.329  0.7141  0.6487  0.1336
 6039TIP3    H239609   1.333   6.174  14.246 -0.3866 -0.7485 -1.8654
 6040TIP3   OH239610   1.058   2.149  15.788  0.5113  0.0989 -0.0145
 6040TIP3    H139611   0.984   2.091  15.769 -0.2245  0.7666  0.7667
 6040TIP3    H239612   1.050   2.169  15.881  0.3345  2.0216 -0.4088
 6041TIP3   OH239613   2.269   6.446   3.380  0.4152 -0.3887  0.0235
 6041TIP3    H139614   2.361   6.474   3.379 -0.0466  1.3055  0.6568
 6041TIP3    H239615   2.239   6.469   3.468 -1.0974  0.8618 -0.7602
 6042TIP3   OH239616   6.184   1.672  16.056  0.4359 -0.1326  0.5393
 6042TIP3    H139617   6.146   1.586  16.038  0.3212 -0.0189  0.2343
 6042TIP3    H239618   6.199   1.672  16.151  0.2762 -0.4228  0.5670
 6043TIP3   OH239619   1.966   4.604  13.974  0.3740  1.0970  0.3277
 6043TIP3    H139620   1.995   4.608  14.065  1.5444  0.3179  0.0137
 6043TIP3    H239621   1.891   4.545  13.975 -0.1275  1.7318  0.8970
 6044TIP3   OH239622   2.017   0.228   1.250 -0.9729  0.0936  1.0848
 6044TIP3    H139623   2.101   0.250   1.211 -1.5668  0.6936  0.0826
 6044TIP3    H239624   1.961   0.208   1.175 -1.6838 -0.4425  1.7424
 6045TIP3   OH239625   1.927   0.962  10.912 -0.2132  0.2270  0.1337
 6045TIP3    H139626   1.860   0.982  10.846 -1.3955  1.2204  1.5723
 6045TIP3    H239627   1.906   0.873  10.940 -0.2884  0.1467 -0.1736
 6046TIP3   OH239628   4.477   4.522  12.399  0.0215 -0.3270 -0.0771
 6046TIP3    H139629   4.404   4.565  12.355  0.4699 -0.7618 -1.2863
 6046TIP3    H239630   4.457   4.428  12.393  0.4734 -0.4264 -0.0407
 6047TIP3   OH239631   0.071   5.991   6.709 -0.0552  0.4294 -0.2082
 6047TIP3    H139632  -0.008   5.972   6.658 -0.1144  0.1704 -0.0248
 6047TIP3    H239633   0.106   5.904   6.730  0.3742  0.5471 -0.4388
 6048TIP3   OH239634   1.828   5.069   2.714 -0.5748 -0.0536 -0.2922
 6048TIP3    H139635   1.896   5.038   2.653 -0.0084 -1.7315  1.1233
 6048TIP3    H239636   1.877   5.113   2.783 -1.0169 -0.2875  0.1745
 6049TIP3   OH239637   6.173   0.943  13.716  0.1863 -0.4856 -0.3181
 6049TIP3    H139638   6.152   0.952  13.809  1.5529  0.2388 -0.0489
 6049TIP3    H239639   6.104   0.991  13.671  1.2611  2.0422  0.5389
 6050TIP3   OH239640   0.891   5.429   3.576  0.0360  0.5125  0.6128
 6050TIP3    H139641   0.947   5.351   3.574 -1.1655 -0.3570 -0.2463
 6050TIP3    H239642   0.902   5.463   3.665 -2.3714 -2.9027  2.4620
 6051TIP3   OH239643   4.008   4.811  17.063  0.5623 -0.6422  0.5120
 6051TIP3    H139644   4.046   4.867  17.131  0.5317 -1.0542  0.8726
 6051TIP3    H239645   4.003   4.725  17.104 -0.2275 -0.7172  0.2699
 6052TIP3   OH239646   4.980   4.128   2.158 -0.6526 -0.0469 -0.1501
 6052TIP3    H139647   4.924   4.053   2.141  1.1476 -0.9271 -2.8627
 6052TIP3    H239648   4.964   4.187   2.084  1.0811  0.2240 -0.3443
 6053TIP3   OH239649   4.035   3.840   1.472  0.0097 -0.0700  0.7360
 6053TIP3    H139650   4.086   3.897   1.530  0.3361 -0.0638  0.4444
 6053TIP3    H239651   3.954   3.888   1.457  0.9301  1.0980 -0.8347
 6054TIP3   OH239652   2.199   3.477   3.678  0.3255 -0.1840  0.1602
 6054TIP3    H139653   2.222   3.566   3.703 -0.6874 -0.0934  0.8447
 6054TIP3    H239654   2.268   3.450   3.618  0.9084  0.8821  0.3287
 6055TIP3   OH239655   4.247   2.874  14.487 -0.0032 -0.0965 -0.3283
 6055TIP3    H139656   4.152   2.871  14.500  0.0277  0.7027  0.1517
 6055TIP3    H239657   4.267   2.966  14.473  0.6330 -0.3316 -1.0354
 6056TIP3   OH239658   1.690   4.995   6.253 -0.2578 -0.6622 -0.3937
 6056TIP3    H139659   1.635   4.924   6.222 -0.8418 -0.7709  0.8096
 6056TIP3    H239660   1.643   5.029   6.330 -0.1636  1.2343 -1.1269
 6057TIP3   OH239661   2.975   2.466   0.105  0.0044  0.1819 -0.3749
 6057TIP3    H139662   2.926   2.493   0.027 -2.2028 -0.3179  0.7453
 6057TIP3    H239663   3.024   2.545   0.130 -1.2051  1.1470 -0.8869
 6058TIP3   OH239664   1.333   1.838  11.967 -0.0891  0.4102 -0.1224
 6058TIP3    H139665   1.404   1.806  11.912 -0.2371  2.1062 -1.3694
 6058TIP3    H239666   1.283   1.897  11.911 -2.1388 -0.2293  0.9053
 6059TIP3   OH239667   3.527   2.423  16.672  0.2055 -0.4353  0.0064
 6059TIP3    H139668   3.518   2.340  16.626 -0.7403  0.5366 -1.6575
 6059TIP3    H239669   3.448   2.473  16.649 -0.7566 -0.1512  3.3750
 6060TIP3   OH239670   5.644   5.566   3.439  0.3855 -0.2923 -0.3265
 6060TIP3    H139671   5.553   5.596   3.441  0.5506  0.2169  1.7570
 6060TIP3    H239672   5.690   5.625   3.499  2.0138 -0.7977 -1.0375
 6061TIP3   OH239673   4.774   3.619  15.422  0.4204  0.0316  0.4282
 6061TIP3    H139674   4.799   3.560  15.493 -0.1135  0.4782  1.0004
 6061TIP3    H239675   4.853   3.667  15.401  0.4946  0.1570  0.9790
 6062TIP3   OH239676   6.544   3.398   0.709 -0.0611  0.0310 -0.1118
 6062TIP3    H139677   6.623   3.451   0.721 -0.5635  0.8641 -0.4155
 6062TIP3    H239678   6.475   3.462   0.693 -0.5701 -0.7449 -1.0787
 6063TIP3   OH239679   2.366   3.920  15.439  0.1333  0.1045 -0.4931
 6063TIP3    H139680   2.377   3.853  15.506  2.1785 -0.3292 -1.2124
 6063TIP3    H239681   2.274   3.913  15.414 -0.9784  0.8744  2.8260
 6064TIP3   OH239682   4.094   0.285  10.309  0.3167 -0.1794 -0.3631
 6064TIP3    H139683   4.123   0.198  10.335 -0.5606 -0.9968 -1.9468
 6064TIP3    H239684   3.999   0.283  10.323  0.5418  1.4235  1.9491
 6065TIP3   OH239685   4.097   2.827  16.079 -0.1940  0.2079 -0.2288
 6065TIP3    H139686   4.026   2.860  16.023 -0.9516 -1.0931 -0.0740
 6065TIP3    H239687   4.131   2.906  16.122 -0.7205  1.0167 -1.2321
 6066TIP3   OH239688   0.648   6.656  16.725 -0.0477 -0.0312 -0.4077
 6066TIP3    H139689   0.678   6.694  16.643 -1.4084  2.0368 -0.0367
 6066TIP3    H239690   0.723   6.663  16.784  0.5114 -0.2876 -1.0829
 6067TIP3   OH239691   1.922   1.057   0.292 -0.6537  0.6744  0.0621
 6067TIP3    H139692   1.979   0.987   0.259  0.2534  1.7838 -0.8014
 6067TIP3    H239693   1.943   1.133   0.238 -1.0390  1.8516  1.4960
 6068TIP3   OH239694   0.046   6.471  12.258 -0.1482 -0.0525 -0.3771
 6068TIP3    H139695  -0.011   6.421  12.199  0.7493 -0.0398 -1.2842
 6068TIP3    H239696   0.115   6.506  12.201 -2.0839  4.4445 -0.3686
 6069TIP3   OH239697   0.508   4.036  16.308 -0.0074  0.3010  0.0723
 6069TIP3    H139698   0.497   3.962  16.248 -0.1563  0.5823 -0.2525
 6069TIP3    H239699   0.425   4.044  16.354  0.1720 -0.0366  0.4600
 6070TIP3   OH239700   6.768   4.260   1.000 -0.8510 -0.1066  0.3151
 6070TIP3    H139701   6.751   4.327   1.066  0.3876  0.9433 -0.4091
 6070TIP3    H239702   6.680   4.235   0.970 -1.4092 -0.1178  1.8466
 6071TIP3   OH239703   0.354   4.762   6.334  0.3493  0.3371  0.5083
 6071TIP3    H139704   0.388   4.795   6.417  0.8776  1.6122 -0.1643
 6071TIP3    H239705   0.414   4.800   6.268  0.1949 -0.9715 -0.4187
 6072TIP3   OH239706   5.614   6.497  12.933 -0.2372  0.1531  0.0413
 6072TIP3    H139707   5.548   6.544  12.881  0.5016  1.2138  0.0307
 6072TIP3    H239708   5.567   6.469  13.011 -1.1722 -0.7977 -0.8265
 6073TIP3   OH239709   1.665   0.033  10.461 -0.5519  0.1488  0.3173
 6073TIP3    H139710   1.609  -0.043  10.445 -1.4506  0.8640 -0.0592
 6073TIP3    H239711   1.629   0.073  10.541 -1.0846  1.0408 -0.3469
 6074TIP3   OH239712   3.373   3.151   3.941 -0.1834  0.0970 -0.0331
 6074TIP3    H139713   3.323   3.096   3.880  0.7904  0.4326 -1.1719
 6074TIP3    H239714   3.441   3.191   3.887 -0.8061  2.3961  0.7743
 6075TIP3   OH239715   3.836   5.100   5.159 -0.7689  0.0318  0.1309
 6075TIP3    H139716   3.839   5.179   5.213  0.3685 -0.6819  1.1487
 6075TIP3    H239717   3.833   5.133   5.069  1.6912  1.2869  0.4328
 6076TIP3   OH239718   0.971   1.236   0.651  0.0149 -0.4562  0.2847
 6076TIP3    H139719   1.006   1.195   0.572 -1.6835 -0.8108 -0.3208
 6076TIP3    H239720   0.918   1.168   0.692  0.3701 -0.0759  1.4019
 6077TIP3   OH239721   1.912   3.626  17.027  0.2322  0.7103 -0.4316
 6077TIP3    H139722   1.980   3.563  17.051  0.0829  0.5266 -0.4927
 6077TIP3    H239723   1.947   3.672  16.951 -0.8307 -1.2654 -2.2296
 6078TIP3   OH239724   2.291   1.364   2.892  0.2257  0.3484  0.2445
 6078TIP3    H139725   2.205   1.401   2.913  0.9444  1.0361  2.2113
 6078TIP3    H239726   2.337   1.361   2.976  3.1781  2.7127 -1.1250
 6079TIP3   OH239727   2.900   0.238  13.777 -0.0813 -0.3373  0.3214
 6079TIP3    H139728   2.893   0.283  13.693  1.8066 -3.1920 -1.5193
 6079TIP3    H239729   2.973   0.283  13.821  1.5691 -1.2471 -1.3426
 6080TIP3   OH239730   4.462   0.754   6.449  0.5329  0.4447 -0.7620
 6080TIP3    H139731   4.505   0.839   6.438 -0.5984  1.0108 -0.9752
 6080TIP3    H239732   4.447   0.723   6.359 -1.5080  1.3214 -0.7703
 6081TIP3   OH239733   4.759   1.728  12.113  0.1813  0.6785 -0.1429
 6081TIP3    H139734   4.847   1.708  12.145 -0.2696  1.2054  1.5094
 6081TIP3    H239735   4.768   1.732  12.018  1.7693 -0.0798 -0.0483
 6082TIP3   OH239736   5.181   4.669   2.979  0.1754  0.1457 -0.0384
 6082TIP3    H139737   5.120   4.616   3.031  2.1881 -1.8270  0.4995
 6082TIP3    H239738   5.176   4.632   2.891  0.7951 -0.2510  0.0851
 6083TIP3   OH239739   2.725   2.704  16.209 -0.0383 -0.1979 -0.1540
 6083TIP3    H139740   2.697   2.636  16.270 -0.4113  1.4362  1.6007
 6083TIP3    H239741   2.654   2.769  16.211  0.5391  0.5050 -1.3457
 6084TIP3   OH239742   0.342   1.784   4.487  0.2087  0.3823  0.0264
 6084TIP3    H139743   0.270   1.775   4.549 -0.3901 -0.7121 -0.8011
 6084TIP3    H239744   0.320   1.863   4.436  0.2898  0.8143  0.6547
 6085TIP3   OH239745   3.665   3.727  16.675  0.1751 -0.2921  0.2786
 6085TIP3    H139746   3.630   3.638  16.672  0.2510 -0.2940 -0.8682
 6085TIP3    H239747   3.733   3.724  16.742  0.2350 -1.1222  0.1865
 6086TIP3   OH239748   0.482   2.183  11.107 -0.2183  0.4364  0.3498
 6086TIP3    H139749   0.452   2.098  11.076 -1.0164  0.3431  1.3122
 6086TIP3    H239750   0.482   2.239  11.029 -1.6258  0.0787  0.0630
 6087TIP3   OH239751   6.736   2.177   2.212 -0.3229  0.3565  0.5699
 6087TIP3    H139752   6.754   2.246   2.276  1.8538 -1.4374  2.0711
 6087TIP3    H239753   6.677   2.117   2.257 -1.1623  0.5538 -0.2446
 6088TIP3   OH239754   0.632   6.716   5.127 -0.4812  0.2571 -0.6213
 6088TIP3    H139755   0.599   6.796   5.086 -0.3741  0.2182 -0.7846
 6088TIP3    H239756   0.711   6.743   5.173  0.7238 -0.1304 -2.3761
 6089TIP3   OH239757   4.522   2.390  12.664  0.1392  0.3864  0.0568
 6089TIP3    H139758   4.507   2.321  12.728 -1.9462  0.0638 -0.6911
 6089TIP3    H239759   4.469   2.463  12.695  2.1447  1.6509  0.7228
 6090TIP3   OH239760   4.689   6.036  13.740  0.3475 -0.0978 -0.4160
 6090TIP3    H139761   4.724   5.955  13.775  1.7161  0.7273  0.2131
 6090TIP3    H239762   4.709   6.102  13.806 -1.7828  0.5758 -0.3552
 6091TIP3   OH239763   3.873   6.529   0.665  0.6635 -0.0791  0.2409
 6091TIP3    H139764   3.813   6.481   0.608  2.9530 -0.5556 -1.9509
 6091TIP3    H239765   3.938   6.464   0.693 -0.6901 -0.0222  4.0714
 6092TIP3   OH239766   5.610   0.388  11.998 -0.6846 -0.1258 -0.4241
 6092TIP3    H139767   5.573   0.410  11.913 -0.0730 -0.0399 -0.6703
 6092TIP3    H239768   5.634   0.295  11.990 -2.1315 -0.5797  0.2031
 6093TIP3   OH239769   2.065   3.851  13.336  0.3166  0.8101  0.7418
 6093TIP3    H139770   2.011   3.799  13.395 -1.0556  1.1426 -0.1899
 6093TIP3    H239771   2.086   3.791  13.264  2.5210  0.2016  1.7814
 6094TIP3   OH239772   2.304   3.074   0.487 -0.3983  0.0036  0.4720
 6094TIP3    H139773   2.369   3.144   0.488 -0.7381  0.3319 -0.0731
 6094TIP3    H239774   2.286   3.057   0.580 -0.7139  1.0120  0.5992
 6095TIP3   OH239775   0.102   5.848  15.519  0.1566  0.3382  0.2915
 6095TIP3    H139776   0.109   5.804  15.604  0.9538  0.5221  0.3263
 6095TIP3    H239777   0.098   5.777  15.455  2.1675  0.1719  0.2845
 6096TIP3   OH239778   4.851   0.496   3.934  0.1766 -0.4862 -0.3322
 6096TIP3    H139779   4.909   0.496   4.010 -0.0668 -1.1309 -0.1406
 6096TIP3    H239780   4.778   0.552   3.960 -1.0109 -2.4358  0.7978
 6097TIP3   OH239781   1.023   6.760   2.238  0.1966  0.4164 -0.2993
 6097TIP3    H139782   1.052   6.828   2.299  0.1007  0.4811 -0.3268
 6097TIP3    H239783   0.936   6.735   2.269  1.0498 -1.1902  1.0013
 6098TIP3   OH239784   6.666   5.220   5.142 -0.4601  0.3727  0.1222
 6098TIP3    H139785   6.575   5.246   5.129 -0.8589 -1.3696 -0.8219
 6098TIP3    H239786   6.671   5.196   5.234 -0.4405  2.2584  0.6581
 6099TIP3   OH239787   6.505   3.389  13.612 -0.3990 -0.2524 -0.3163
 6099TIP3    H139788   6.434   3.355  13.665 -0.9014  1.3192  0.0838
 6099TIP3    H239789   6.466   3.459  13.560  0.9532  1.0983  0.3974
 6100TIP3   OH239790   1.006   6.772   5.616  0.0117  0.0776 -0.2471
 6100TIP3    H139791   1.010   6.689   5.569  1.3747  0.5890 -1.0997
 6100TIP3    H239792   1.097   6.798   5.627 -0.3817  1.7871 -0.6190
 6101TIP3   OH239793   5.643   6.539   1.675 -0.4482 -0.1032  0.2779
 6101TIP3    H139794   5.731   6.536   1.713  0.2085 -0.4216 -1.2223
 6101TIP3    H239795   5.613   6.448   1.677  1.1531 -0.8775 -3.3830
 6102TIP3   OH239796   3.486   4.250  15.678 -0.0196 -0.1325  0.3068
 6102TIP3    H139797   3.516   4.194  15.607 -0.3775  0.2582 -0.1570
 6102TIP3    H239798   3.434   4.318  15.635 -1.1849 -0.5273  1.0297
 6103TIP3   OH239799   2.496   3.305   2.253 -0.1367  0.3212 -0.3012
 6103TIP3    H139800   2.551   3.382   2.268 -2.5029  2.0522  0.0052
 6103TIP3    H239801   2.467   3.278   2.340 -0.6506  0.1172 -0.5295
 6104TIP3   OH239802   3.607   1.302  14.715 -0.2270  0.0005  0.2950
 6104TIP3    H139803   3.547   1.355  14.767 -1.6715 -0.3698 -0.9244
 6104TIP3    H239804   3.602   1.215  14.754 -2.1882 -0.5555 -1.0971
 6105TIP3   OH239805   5.226   5.833  12.367 -0.4040  0.0767 -0.2675
 6105TIP3    H139806   5.241   5.739  12.372  0.4704  0.1804 -0.6246
 6105TIP3    H239807   5.248   5.856  12.276 -1.3186  0.5179 -0.3962
 6106TIP3   OH239808   2.038   0.630   5.489 -0.4107 -0.0011 -0.4285
 6106TIP3    H139809   2.082   0.570   5.428  1.3267 -0.5548  1.2346
 6106TIP3    H239810   1.985   0.572   5.545 -1.8777  0.4822 -1.2724
 6107TIP3   OH239811   6.323   0.509  14.548 -0.0088  0.2395  0.3396
 6107TIP3    H139812   6.403   0.470  14.511  0.6050  0.3558  1.4790
 6107TIP3    H239813   6.349   0.598  14.572 -0.2350  0.0176  1.4666
 6108TIP3   OH239814   2.210   5.355   2.063  0.0812 -0.5747 -0.2386
 6108TIP3    H139815   2.237   5.298   1.991  2.4934 -1.5855  1.3575
 6108TIP3    H239816   2.240   5.311   2.142 -1.0837  1.2550  1.3346
 6109TIP3   OH239817   2.694   2.060   4.687  0.0455  0.4849 -0.2551
 6109TIP3    H139818   2.749   2.049   4.765 -0.7906 -1.5561  0.1006
 6109TIP3    H239819   2.618   2.005   4.703 -0.5170  0.6340 -2.1860
 6110TIP3   OH239820   4.457   4.142  13.243 -1.1738 -0.3875  0.2740
 6110TIP3    H139821   4.457   4.070  13.306  0.9273 -0.6366  0.0651
 6110TIP3    H239822   4.413   4.108  13.166  1.0609 -2.0253 -0.3702
 6111TIP3   OH239823   6.745   4.487   4.634  0.2928 -0.2616  0.1179
 6111TIP3    H139824   6.730   4.565   4.581  0.6110 -1.6710 -2.2069
 6111TIP3    H239825   6.659   4.447   4.644  0.3737 -0.5406 -0.2681
 6112TIP3   OH239826   6.731   5.097  15.774  0.3618  0.3647 -0.1832
 6112TIP3    H139827   6.649   5.138  15.745  1.2508  1.7045 -0.8761
 6112TIP3    H239828   6.714   5.073  15.865 -0.3610  1.8520  0.1076
 6113TIP3   OH239829   3.477   1.820  14.191 -0.0386  0.4968  0.0588
 6113TIP3    H139830   3.427   1.899  14.170 -1.3523 -0.4286 -0.4429
 6113TIP3    H239831   3.568   1.845  14.180 -0.4832  1.5659 -1.4664
 6114TIP3   OH239832   5.970   3.100   5.397  0.1415  0.3567 -0.4858
 6114TIP3    H139833   6.057   3.106   5.437  0.0239  3.0363 -0.4184
 6114TIP3    H239834   5.915   3.061   5.465  1.3781 -2.2297 -0.8370
 6115TIP3   OH239835   2.783   2.132   0.010  0.0955 -0.8609 -0.4402
 6115TIP3    H139836   2.814   2.119   0.100  0.1594  1.8444 -0.0107
 6115TIP3    H239837   2.688   2.140   0.017  0.1237 -0.3797 -0.5703
 6116TIP3   OH239838   4.936   4.523  14.375 -0.0133  0.2458  0.6447
 6116TIP3    H139839   4.909   4.486  14.290  0.5813  1.1920  0.0275
 6116TIP3    H239840   4.980   4.450  14.420 -0.2347 -0.2350  0.0915
 6117TIP3   OH239841   1.210   0.207  12.916  0.4077 -0.0578  0.0249
 6117TIP3    H139842   1.180   0.224  13.005  1.5228 -1.1423  0.6279
 6117TIP3    H239843   1.272   0.277  12.897 -1.5287  1.5398 -0.8152
 6118TIP3   OH239844   2.256   2.810  11.410  0.3388  0.2804 -0.2803
 6118TIP3    H139845   2.240   2.866  11.335  0.6175  0.3584 -0.2823
 6118TIP3    H239846   2.303   2.865  11.472  0.0671  0.2303 -0.0291
 6119TIP3   OH239847   6.411   3.225  13.360 -0.1763 -0.2444 -0.3001
 6119TIP3    H139848   6.408   3.235  13.265  1.1262  2.1014 -0.1700
 6119TIP3    H239849   6.353   3.294  13.393  1.3845  0.6882  0.6131
 6120TIP3   OH239850   0.267   2.800  12.755 -0.1484 -0.0905  0.3114
 6120TIP3    H139851   0.188   2.795  12.809  0.6294 -1.1836  1.4121
 6120TIP3    H239852   0.237   2.778  12.667 -1.0016 -1.0494  0.8081
 6121TIP3   OH239853   1.516   0.387   4.965  0.5314  0.3599  0.2902
 6121TIP3    H139854   1.421   0.376   4.956  0.6409  0.4104 -1.0867
 6121TIP3    H239855   1.527   0.481   4.979  0.2865  0.1463  2.3178
 6122TIP3   OH239856   0.617   1.220   6.196 -0.2954 -0.0955  0.4180
 6122TIP3    H139857   0.577   1.205   6.282 -0.4329 -1.1582  0.1759
 6122TIP3    H239858   0.678   1.147   6.184 -0.2726  0.0433 -0.3931
 6123TIP3   OH239859   3.828   6.694   3.969  0.7854 -0.2603  0.5104
 6123TIP3    H139860   3.776   6.770   3.995 -1.1856 -1.9212  1.6830
 6123TIP3    H239861   3.916   6.714   4.000  1.1112  2.8084 -1.8840
 6124TIP3   OH239862   3.522   5.330   4.181 -0.0489 -0.4424 -0.2786
 6124TIP3    H139863   3.617   5.338   4.181 -0.1095  0.5398  0.6872
 6124TIP3    H239864   3.505   5.240   4.154  1.2597 -1.4796  2.0721
 6125TIP3   OH239865   0.237   0.335   0.514  0.6035 -0.0855  0.6032
 6125TIP3    H139866   0.229   0.245   0.484 -0.6306  0.8662 -2.3282
 6125TIP3    H239867   0.148   0.361   0.537  0.6308  0.8224 -0.2034
 6126TIP3   OH239868   0.440   2.102   1.333 -0.1362  0.2992 -0.0607
 6126TIP3    H139869   0.407   2.028   1.385 -2.9483  0.3288 -1.6242
 6126TIP3    H239870   0.429   2.178   1.391 -2.3456  0.1983 -0.2695
 6127TIP3   OH239871   5.788   0.053   6.060 -0.4868 -0.1426 -0.2311
 6127TIP3    H139872   5.816  -0.039   6.055  0.1283 -0.0135  0.5434
 6127TIP3    H239873   5.791   0.073   6.154 -1.5168  0.4049 -0.3051
 6128TIP3   OH239874   5.087   0.741  13.367 -0.1848 -0.1906  0.1570
 6128TIP3    H139875   4.993   0.743  13.385  0.1257 -0.2326  1.9937
 6128TIP3    H239876   5.114   0.653  13.393  0.2387 -0.4913 -1.2067
 6129TIP3   OH239877   4.254   6.239  13.823 -0.3392  0.4857 -0.1561
 6129TIP3    H139878   4.165   6.218  13.794 -0.8759  0.6725  1.3078
 6129TIP3    H239879   4.247   6.251  13.917  1.0906  1.3271 -0.1265
 6130TIP3   OH239880   4.185   4.164   3.758 -0.6124  0.3113  0.4551
 6130TIP3    H139881   4.208   4.257   3.763 -0.9421  0.4019  0.2979
 6130TIP3    H239882   4.113   4.154   3.819 -1.1456  0.3352 -0.1631
 6131TIP3   OH239883   1.014   6.151   0.753 -0.0940  0.6581 -0.3528
 6131TIP3    H139884   0.989   6.151   0.846  0.4291  0.0078 -0.2079
 6131TIP3    H239885   0.937   6.115   0.708  0.7466 -2.0190  0.1606
 6132TIP3   OH239886   5.746   1.537   6.147 -0.4774 -0.0806  0.3002
 6132TIP3    H139887   5.670   1.496   6.105 -1.2502  0.4525  1.1503
 6132TIP3    H239888   5.717   1.554   6.237 -0.2990  2.5906 -0.0743
 6133TIP3   OH239889   5.891   4.913   0.483  1.0731  0.4418 -0.7412
 6133TIP3    H139890   5.817   4.923   0.424 -0.3103 -1.3232  0.5708
 6133TIP3    H239891   5.890   4.992   0.537  1.5454  1.4484 -2.1425
 6134TIP3   OH239892   4.863   2.308   4.887  0.2346 -0.4894 -0.4969
 6134TIP3    H139893   4.806   2.382   4.907 -1.5751 -1.9178 -0.0699
 6134TIP3    H239894   4.928   2.308   4.957 -1.0880 -0.5813  0.7709
 6135TIP3   OH239895   5.881   0.243   1.313 -0.4221  0.2172 -0.4579
 6135TIP3    H139896   5.875   0.283   1.399 -0.8467  0.2362 -0.4931
 6135TIP3    H239897   5.975   0.236   1.296 -0.3398  0.8773 -0.3050
 6136TIP3   OH239898   4.710   0.591   3.264 -0.0537  0.2526  0.1175
 6136TIP3    H139899   4.781   0.571   3.325  0.0054 -0.2946 -0.1232
 6136TIP3    H239900   4.654   0.654   3.311  0.5976  0.7048  0.2993
 6137TIP3   OH239901   0.721   4.315  14.611  0.1830  0.6614  0.2031
 6137TIP3    H139902   0.774   4.356  14.680 -0.9147  1.7461  0.4347
 6137TIP3    H239903   0.653   4.379  14.591 -1.4018 -0.8902  0.3212
 6138TIP3   OH239904   6.115   2.063   0.265 -0.2004 -0.4959  0.2666
 6138TIP3    H139905   6.036   2.100   0.224 -0.1027 -0.4584  0.1120
 6138TIP3    H239906   6.081   2.007   0.335 -0.3337  2.0961  2.4532
 6139TIP3   OH239907   2.418   5.099  12.951 -0.3056 -0.0312 -0.1873
 6139TIP3    H139908   2.383   5.144  13.027  0.3211  0.3586 -0.1171
 6139TIP3    H239909   2.344   5.092  12.891 -1.0316 -1.1514  0.8082
 6140TIP3   OH239910   5.565   1.402   5.548  0.2983  0.3503  0.4233
 6140TIP3    H139911   5.542   1.487   5.587 -3.7776  0.9135 -2.5100
 6140TIP3    H239912   5.515   1.338   5.598  2.2911 -0.2618  1.7494
 6141TIP3   OH239913   0.470   5.798  13.460 -0.0496  0.2188 -0.0078
 6141TIP3    H139914   0.504   5.732  13.521 -0.5587  0.3833  0.4632
 6141TIP3    H239915   0.498   5.882  13.497 -4.1286  0.6928  2.6067
 6142TIP3   OH239916   4.811   5.941   3.038 -0.6600  0.4425  0.0120
 6142TIP3    H139917   4.772   5.887   2.969  0.5804 -0.0646 -0.3230
 6142TIP3    H239918   4.806   5.887   3.117 -1.4677  0.7544  0.1819
 6143TIP3   OH239919   2.422   3.563  15.493 -0.0630  0.3804  0.3605
 6143TIP3    H139920   2.430   3.468  15.484 -0.0539  0.4960 -1.1824
 6143TIP3    H239921   2.487   3.598  15.432 -0.7669  1.3616  0.1482
 6144TIP3   OH239922   5.901   3.406   2.141  0.3038 -0.5198 -1.1537
 6144TIP3    H139923   5.996   3.408   2.135  0.4082  1.5338  0.4369
 6144TIP3    H239924   5.883   3.343   2.210  0.6906  1.0095  0.4107
 6145TIP3   OH239925   1.981   4.258   1.498 -0.5081  0.0962  0.6705
 6145TIP3    H139926   1.913   4.326   1.505  0.1094  1.0479 -1.5603
 6145TIP3    H239927   2.055   4.302   1.456  1.1325 -1.1911  2.0597
 6146TIP3   OH239928   6.050   3.879  15.092  0.1764  0.1758 -0.0146
 6146TIP3    H139929   6.006   3.799  15.120  0.0918  0.1081 -0.3477
 6146TIP3    H239930   6.117   3.894  15.160  0.5514 -0.4712 -0.2339
 6147TIP3   OH239931   5.962   0.089  15.190  0.2197  0.2513  0.0373
 6147TIP3    H139932   6.035   0.133  15.234 -1.0837  0.2187  2.3804
 6147TIP3    H239933   5.965  -0.001  15.224 -1.1452  0.3706  0.5116
 6148TIP3   OH239934   4.661   0.850   1.709 -0.2032 -0.1489  0.1419
 6148TIP3    H139935   4.699   0.911   1.646  0.2409 -0.2412  0.3200
 6148TIP3    H239936   4.663   0.898   1.792 -1.9221  0.4583 -0.1159
 6149TIP3   OH239937   6.500   0.719  12.715 -0.2255  0.2192  0.0572
 6149TIP3    H139938   6.547   0.679  12.788 -2.0248 -1.0945  0.5682
 6149TIP3    H239939   6.510   0.657  12.643 -1.7804 -0.5012  0.4137
 6150TIP3   OH239940   3.592   3.808   6.539  0.3011 -0.7201 -0.1666
 6150TIP3    H139941   3.671   3.861   6.529 -0.1931 -0.2980 -2.4412
 6150TIP3    H239942   3.617   3.721   6.507  0.1126 -0.8539  0.0498
 6151TIP3   OH239943   5.204   6.488   5.717  0.4449 -0.8973 -0.0461
 6151TIP3    H139944   5.125   6.441   5.746 -0.8674  1.1182 -0.1893
 6151TIP3    H239945   5.262   6.485   5.793  0.0220 -1.9125  0.2616
 6152TIP3   OH239946   2.740   1.926   5.480 -0.0158 -0.1192 -0.2768
 6152TIP3    H139947   2.712   1.981   5.553  0.2275  3.0395 -2.3704
 6152TIP3    H239948   2.658   1.896   5.441 -0.2134  0.2626 -0.1672
 6153TIP3   OH239949   3.418   1.482   0.754 -0.1307 -0.3284 -0.1354
 6153TIP3    H139950   3.326   1.458   0.744 -0.3642 -0.6270  2.2006
 6153TIP3    H239951   3.466   1.402   0.733 -0.1066  0.5747 -4.3096
 6154TIP3   OH239952   3.047   2.086   5.647  0.8020  0.1887  0.2868
 6154TIP3    H139953   3.103   2.149   5.693  2.0699 -0.7848  0.1292
 6154TIP3    H239954   2.995   2.140   5.587 -0.0037  1.3433  1.9552
 6155TIP3   OH239955   5.855   2.012   0.948  0.3518 -0.1238 -0.0323
 6155TIP3    H139956   5.918   1.951   0.986  1.5444  0.0290 -1.7012
 6155TIP3    H239957   5.867   2.093   0.998  1.8010  0.0403 -0.6098
 6156TIP3   OH239958   0.013   2.344  13.442 -0.0185 -0.0730  0.4858
 6156TIP3    H139959   0.045   2.379  13.525 -0.8786  0.0518  0.7716
 6156TIP3    H239960  -0.040   2.414  13.405  1.5894  0.4621 -0.9246
 6157TIP3   OH239961   3.502   4.895   0.792  0.7225  0.3301  0.1915
 6157TIP3    H139962   3.583   4.914   0.745  0.2999 -2.7332 -2.1162
 6157TIP3    H239963   3.434   4.905   0.726 -0.2566 -1.2064  0.9162
 6158TIP3   OH239964   0.202   4.552   1.903 -0.4033  0.5030 -0.5998
 6158TIP3    H139965   0.273   4.592   1.852  0.0768  0.8589  0.3182
 6158TIP3    H239966   0.171   4.480   1.848  2.6408 -1.5892  0.1264
 6159TIP3   OH239967   4.471   0.144   0.216 -0.1084  0.3755 -0.0717
 6159TIP3    H139968   4.421   0.090   0.277 -0.2172  1.3062  0.6936
 6159TIP3    H239969   4.486   0.226   0.264  0.0643  1.0175 -1.1905
 6160TIP3   OH239970   2.468   4.079   4.173  0.0100  0.2899  0.0665
 6160TIP3    H139971   2.373   4.089   4.171 -0.0172 -0.0259 -0.2061
 6160TIP3    H239972   2.499   4.130   4.099  0.0711  0.5669  0.2807
 6161TIP3   OH239973   2.766   2.801  13.936 -0.4943 -0.0636 -0.0005
 6161TIP3    H139974   2.769   2.706  13.926  0.4756 -0.0120 -0.2434
 6161TIP3    H239975   2.753   2.834  13.847  1.5728  0.1126 -0.2889
 6162TIP3   OH239976   2.755   3.386  15.021  0.3220  0.1605  0.3321
 6162TIP3    H139977   2.779   3.400  15.113  0.5875  1.5453  0.0824
 6162TIP3    H239978   2.659   3.377  15.022  0.0964  2.0893  0.5870
 6163TIP3   OH239979   0.378   1.224  14.844 -0.0473  0.5909 -0.6590
 6163TIP3    H139980   0.425   1.286  14.789  0.8061 -0.6098 -1.3281
 6163TIP3    H239981   0.371   1.145  14.791 -1.0802  0.0918  0.1843
 6164TIP3   OH239982   6.715   2.572   3.493  0.2761  0.4444 -0.5771
 6164TIP3    H139983   6.726   2.490   3.542 -0.3587  1.7674  1.9960
 6164TIP3    H239984   6.798   2.584   3.448  0.7490 -1.1165 -0.1925
 6165TIP3   OH239985   3.954   3.723  11.111 -0.3473 -0.3554 -0.1536
 6165TIP3    H139986   3.905   3.805  11.112  1.1131  0.5592 -1.1553
 6165TIP3    H239987   4.025   3.737  11.049  1.2369 -1.6206  1.2559
 6166TIP3   OH239988   1.872   1.929  11.742  0.2694  0.5248  0.2543
 6166TIP3    H139989   1.882   1.988  11.667 -1.3910  0.2379 -0.2236
 6166TIP3    H239990   1.937   1.860  11.727  0.1018  0.5829 -0.7997
 6167TIP3   OH239991   1.483   4.214  12.573  0.3294  0.1985 -0.0453
 6167TIP3    H139992   1.418   4.144  12.570 -0.6327  0.9214  1.8654
 6167TIP3    H239993   1.438   4.290  12.537  0.5377  0.4113  0.1416
 6168TIP3   OH239994   1.347   5.830   4.959  0.0231 -0.3498  0.1988
 6168TIP3    H139995   1.269   5.775   4.960  0.4117 -1.0420 -1.8757
 6168TIP3    H239996   1.329   5.899   5.023 -1.3288 -1.7403  1.3858
 6169TIP3   OH239997   6.681   0.593  11.683  0.1522 -0.0200 -0.3077
 6169TIP3    H139998   6.618   0.550  11.625 -0.3422  2.4353 -1.7541
 6169TIP3    H239999   6.630   0.621  11.759  0.2178 -0.8315  0.0463
 6170TIP3   OH240000   0.211   4.673  12.619  0.1105  0.7669  0.4033
 6170TIP3    H140001   0.220   4.579  12.610 -0.0046  0.8398 -0.5044
 6170TIP3    H240002   0.292   4.709  12.584  0.6160  0.9724  1.7223
 6171TIP3   OH240003   4.766   5.150   2.285 -0.1283 -0.1001  0.1811
 6171TIP3    H140004   4.837   5.088   2.299 -1.1341 -1.2100  0.6130
 6171TIP3    H240005   4.713   5.144   2.365  1.2530  3.4659  1.5427
 6172TIP3   OH240006   0.954   1.019  16.916  0.6017 -0.0182 -0.6210
 6172TIP3    H140007   0.917   1.037  17.002  1.4137 -0.4116 -0.1867
 6172TIP3    H240008   1.049   1.025  16.928  0.8005 -1.7598 -1.0857
 6173TIP3   OH240009   5.125   4.547  17.245  0.3261  0.2799 -0.5105
 6173TIP3    H140010   5.170   4.631  17.244 -2.7137  2.0858  0.5955
 6173TIP3    H240011   5.058   4.555  17.177 -0.5822 -0.8859  0.2140
 6174TIP3   OH240012   1.298   5.235   5.568 -0.5164 -0.6863  0.4594
 6174TIP3    H140013   1.320   5.292   5.494  0.1818  0.4393  1.4943
 6174TIP3    H240014   1.297   5.293   5.644  2.0039 -2.2699  1.8782
 6175TIP3   OH240015   2.508   5.850  12.637  0.5845 -0.6155 -0.4219
 6175TIP3    H140016   2.576   5.787  12.613  1.9355  0.6482 -0.0629
 6175TIP3    H240017   2.555   5.933  12.647 -0.3126 -0.4144  3.6380
 6176TIP3   OH240018   5.135   5.442  15.278  0.0447  0.3383  0.4238
 6176TIP3    H140019   5.097   5.355  15.272 -1.5245  0.7100  3.0910
 6176TIP3    H240020   5.221   5.434  15.238 -1.1779 -1.6317 -2.0738
 6177TIP3   OH240021   6.124   3.651  13.382  0.3172 -0.2897  0.5032
 6177TIP3    H140022   6.174   3.707  13.441 -0.8373  1.3829 -0.0286
 6177TIP3    H240023   6.101   3.708  13.308 -0.6428 -1.5552 -0.2256
 6178TIP3   OH240024   6.614   4.503  11.512  0.7641 -0.1122 -0.8605
 6178TIP3    H140025   6.626   4.593  11.481 -1.2766  0.6897  0.4011
 6178TIP3    H240026   6.543   4.469  11.458 -0.1352 -0.0713  0.2590
 6179TIP3   OH240027   2.017   4.560  12.800  0.4918 -0.4287  0.5271
 6179TIP3    H140028   2.023   4.552  12.705 -1.5054  0.4986  0.2789
 6179TIP3    H240029   2.097   4.518  12.833  0.9611 -1.2401 -1.5181
 6180TIP3   OH240030   1.221   6.226  10.740 -0.0949  0.5500 -0.2515
 6180TIP3    H140031   1.297   6.184  10.699 -0.3727 -0.1078 -0.1048
 6180TIP3    H240032   1.259   6.290  10.800  0.3157  1.8430 -1.8254
 6181TIP3   OH240033   2.384   2.274   4.713 -0.0369  0.0205  0.2032
 6181TIP3    H140034   2.307   2.319   4.680  0.9786  0.8920 -1.0350
 6181TIP3    H240035   2.359   2.247   4.802 -2.0448 -0.4553 -0.4438
 6182TIP3   OH240036   5.802   4.272  14.824  0.1789 -0.0062 -0.1845
 6182TIP3    H140037   5.785   4.188  14.866  1.4384  1.0514  2.6400
 6182TIP3    H240038   5.869   4.253  14.758  0.5048 -1.1898  0.4761
 6183TIP3   OH240039   6.340   4.943  11.129 -0.5156 -0.2470  0.6471
 6183TIP3    H140040   6.349   4.872  11.191 -1.2532  0.8350  2.0561
 6183TIP3    H240041   6.398   4.920  11.056  0.3565 -1.5507  1.7236
 6184TIP3   OH240042   5.420   5.114   3.240  0.3157  1.2105 -0.4228
 6184TIP3    H140043   5.393   5.184   3.181  1.2102  0.3705 -1.8897
 6184TIP3    H240044   5.386   5.034   3.200  1.0424  0.6061  0.1257
 6185TIP3   OH240045   1.702   0.436   5.553  0.1062 -0.0212 -0.6866
 6185TIP3    H140046   1.684   0.522   5.591  0.3738  0.0815 -0.7852
 6185TIP3    H240047   1.783   0.408   5.596  1.1653  0.6837 -2.1130
 6186TIP3   OH240048   2.518   2.370   6.097  0.0725 -0.7747  0.5016
 6186TIP3    H140049   2.469   2.409   6.170  0.5037  0.6151  0.0769
 6186TIP3    H240050   2.499   2.427   6.023  1.0870 -1.1307 -0.0439
 6187TIP3   OH240051   4.666   0.826  15.087 -0.2100  0.5506 -0.3510
 6187TIP3    H140052   4.575   0.830  15.057 -0.0508  1.0910 -0.7850
 6187TIP3    H240053   4.684   0.733  15.096 -0.6915  0.4240 -0.6235
 6188TIP3   OH240054   3.187   2.924  13.213 -0.1018 -0.1014  0.1403
 6188TIP3    H140055   3.234   3.007  13.217 -0.4991  0.1685 -0.6757
 6188TIP3    H240056   3.188   2.900  13.121  0.6806 -1.4005  0.4629
 6189TIP3   OH240057   3.171   1.942  13.674 -0.2848  0.3145  0.3802
 6189TIP3    H140058   3.145   1.863  13.720  1.4436 -0.3965  0.2304
 6189TIP3    H240059   3.256   1.965  13.713  0.3123  0.7807 -1.1183
 6190TIP3   OH240060   3.088   5.002  11.771  0.0395 -0.1715  0.0451
 6190TIP3    H140061   3.053   5.082  11.733 -2.4566  0.1767  2.7292
 6190TIP3    H240062   3.145   5.031  11.842  0.5801 -0.7984 -0.1147
 6191TIP3   OH240063   6.042   5.173   1.067  0.2419  0.2576 -0.2264
 6191TIP3    H140064   5.979   5.152   0.998 -0.0048 -0.3324  0.1736
 6191TIP3    H240065   5.988   5.192   1.144  0.5679 -1.8336  0.5566
 6192TIP3   OH240066   6.154   6.245   6.320  0.9399 -0.4357  0.4612
 6192TIP3    H140067   6.176   6.338   6.318 -0.1856 -0.1546  0.4775
 6192TIP3    H240068   6.222   6.203   6.267  2.5146  0.1493  1.9237
 6193TIP3   OH240069   3.540   0.013  11.221 -1.2020  0.5270 -0.9496
 6193TIP3    H140070   3.619   0.007  11.168 -1.0297  0.6840 -0.7103
 6193TIP3    H240071   3.501   0.097  11.197 -1.1823  0.5480 -0.9073
 6194TIP3   OH240072   3.568   6.268  16.419  0.3965 -0.3841 -0.4847
 6194TIP3    H140073   3.603   6.231  16.338  2.6594 -2.3737  1.2672
 6194TIP3    H240074   3.550   6.360  16.398  2.4528 -0.4136 -2.7847
 6195TIP3   OH240075   5.691   2.517  13.197 -0.3573  0.4189  0.2504
 6195TIP3    H140076   5.748   2.586  13.162  0.1974  0.6644  1.5944
 6195TIP3    H240077   5.706   2.519  13.291 -1.1406 -0.8369  0.4198
 6196TIP3   OH240078   1.896   5.615  11.400  0.2132 -0.0322 -0.2892
 6196TIP3    H140079   1.872   5.701  11.433 -0.4705 -0.2549 -0.2025
 6196TIP3    H240080   1.878   5.619  11.306  1.2817  0.2931 -0.4985
 6197TIP3   OH240081   1.248   3.678  14.696  0.4159 -0.2139  0.0022
 6197TIP3    H140082   1.313   3.610  14.678  0.3688 -0.3054  0.1675
 6197TIP3    H240083   1.164   3.638  14.673  0.2906 -0.5562  0.9809
 6198TIP3   OH240084   2.743   3.097   3.235 -0.0844  0.0554 -0.5678
 6198TIP3    H140085   2.775   3.098   3.325 -0.3613 -1.2414 -0.4397
 6198TIP3    H240086   2.712   3.186   3.220 -0.4577  0.1723  0.7800
 6199TIP3   OH240087   1.927   1.232  15.211  0.0568  0.0427 -0.2206
 6199TIP3    H140088   1.923   1.321  15.177 -2.8510 -0.5394 -1.7170
 6199TIP3    H240089   1.965   1.181  15.140  0.4347 -0.1513  0.1145
 6200TIP3   OH240090   5.470   5.932  12.907 -0.3065 -0.4845  0.4675
 6200TIP3    H140091   5.556   5.946  12.946 -1.0808 -1.9161  2.9269
 6200TIP3    H240092   5.419   6.010  12.933 -0.3559 -0.6771  0.9641
 6201TIP3   OH240093   1.202   2.393  13.805 -0.0452 -0.2193  0.0319
 6201TIP3    H140094   1.111   2.363  13.811  0.0132 -0.5466 -0.6485
 6201TIP3    H240095   1.254   2.323  13.844  0.2218 -1.7537 -2.8518
 6202TIP3   OH240096   2.821   0.092  13.483  0.1935  0.0430 -0.4135
 6202TIP3    H140097   2.729   0.080  13.458  0.6086  1.2029 -2.7809
 6202TIP3    H240098   2.832   0.187  13.488  1.1589 -0.0930  0.3804
 6203TIP3   OH240099   5.433   0.541  13.556  0.6358 -0.3848 -0.3394
 6203TIP3    H140100   5.514   0.558  13.507  0.3490 -0.2084 -0.7562
 6203TIP3    H240101   5.461   0.486  13.629  1.1838 -0.0811 -0.3101
 6204TIP3   OH240102   1.362   0.344   2.949  0.0648 -0.2174 -0.6292
 6204TIP3    H140103   1.357   0.259   2.905 -0.4207  0.5013 -2.0114
 6204TIP3    H240104   1.271   0.367   2.968 -0.0163  0.9572 -2.2297
 6205TIP3   OH240105   6.138   6.322  11.446  0.7788 -0.0973  0.3106
 6205TIP3    H140106   6.108   6.232  11.461  1.9902 -0.4418  0.7866
 6205TIP3    H240107   6.181   6.347  11.527 -0.6002  1.3890  0.6382
 6206TIP3   OH240108   1.005   0.288  15.453 -0.0505  0.1759  0.6355
 6206TIP3    H140109   1.021   0.246  15.537  0.6161  1.5046  1.1927
 6206TIP3    H240110   0.913   0.269  15.434 -0.1850 -0.1954  1.6107
 6207TIP3   OH240111   5.072   3.289  13.148 -0.1010  0.3535 -0.2696
 6207TIP3    H140112   5.005   3.232  13.110  1.7090 -0.8525 -1.8080
 6207TIP3    H240113   5.144   3.230  13.171  1.3935  1.8593 -0.8974
 6208TIP3   OH240114   0.678   5.562  13.204  0.0524  0.7366  0.1865
 6208TIP3    H140115   0.650   5.652  13.188  1.5679  1.3725  0.8420
 6208TIP3    H240116   0.739   5.569  13.278 -1.8216 -1.1888  2.0639
 6209TIP3   OH240117   0.018   3.950  14.651 -0.4937  0.2210  0.8980
 6209TIP3    H140118  -0.020   3.962  14.738 -1.5287 -0.1889  0.5213
 6209TIP3    H240119   0.109   3.925  14.668 -1.2401 -1.9934  1.9430
 6210TIP3   OH240120   4.116   1.707   2.497  0.3348  0.4740 -0.2805
 6210TIP3    H140121   4.053   1.655   2.547  1.3520 -0.5672 -0.0412
 6210TIP3    H240122   4.070   1.730   2.417 -0.6671  0.5473  0.2926
 6211TIP3   OH240123   4.109   0.944   2.922  0.3094 -0.1020 -0.0694
 6211TIP3    H140124   4.135   1.036   2.913  0.6938 -0.1213  0.7435
 6211TIP3    H240125   4.151   0.900   2.848 -0.2489  0.4432 -0.7283
 6212TIP3   OH240126   5.973   0.597   5.142 -0.2500 -0.4836  0.5114
 6212TIP3    H140127   5.901   0.543   5.107  0.4400 -0.9241 -0.2747
 6212TIP3    H240128   6.017   0.541   5.206 -1.1407  0.1101  1.6861
 6213TIP3   OH240129   3.591   2.197   1.713  0.4220  0.0184 -0.2928
 6213TIP3    H140130   3.682   2.168   1.714  0.5271  0.3170 -0.6156
 6213TIP3    H240131   3.569   2.214   1.804 -0.3437 -3.1552  0.2109
 6214TIP3   OH240132   2.825   1.257   5.255  0.0174  0.4524  0.3294
 6214TIP3    H140133   2.828   1.307   5.173  0.6606  0.7037  0.5003
 6214TIP3    H240134   2.914   1.263   5.290 -0.7169  2.1311  2.0945
 6215TIP3   OH240135   1.683   2.797   0.183 -0.0686 -0.3149  0.4009
 6215TIP3    H140136   1.733   2.812   0.263 -0.2357 -0.2945  0.5018
 6215TIP3    H240137   1.614   2.736   0.209 -1.5799  1.4920  0.8600
 6216TIP3   OH240138   1.261   1.880   4.202  0.1715  0.5549  0.5315
 6216TIP3    H140139   1.284   1.819   4.272 -0.7694  0.4326  0.7528
 6216TIP3    H240140   1.301   1.963   4.227  0.0033  0.4617  1.1221
 6217TIP3   OH240141   5.894   1.041   2.748  0.2397 -0.5602  0.1845
 6217TIP3    H140142   5.966   1.011   2.803  1.1268  0.0815 -0.6000
 6217TIP3    H240143   5.850   1.108   2.801  0.2487 -0.9135  0.6428
 6218TIP3   OH240144   5.757   1.559  16.181 -0.4510  0.4479 -0.0553
 6218TIP3    H140145   5.796   1.640  16.213 -2.7653  0.9389  1.8719
 6218TIP3    H240146   5.695   1.587  16.113  1.0478 -0.1180 -1.7342
 6219TIP3   OH240147   2.634   4.340   1.050  0.9370 -0.0063  0.8852
 6219TIP3    H140148   2.563   4.289   1.087 -0.6322  0.0394 -1.7857
 6219TIP3    H240149   2.683   4.276   0.996  0.0574  0.8268 -1.0009
 6220TIP3   OH240150   2.121   0.449   2.992 -0.1339  0.5312  0.1217
 6220TIP3    H140151   2.116   0.360   3.028  2.6794  0.7015  1.2046
 6220TIP3    H240152   2.030   0.477   2.985 -1.1517 -2.5916 -0.7517
 6221TIP3   OH240153   6.269   1.232   2.496 -0.6184 -0.1550 -0.4102
 6221TIP3    H140154   6.223   1.175   2.558 -2.1132  0.9552 -0.4366
 6221TIP3    H240155   6.318   1.293   2.551 -0.4305 -0.3476 -0.3611
 6222TIP3   OH240156   1.301   0.567  13.209 -0.8671  0.1438 -0.3533
 6222TIP3    H140157   1.218   0.530  13.179 -1.1707  0.4162  0.1482
 6222TIP3    H240158   1.359   0.492  13.217 -1.6312 -0.3144  1.1703
 6223TIP3   OH240159   0.331   1.045  14.620 -0.4328  0.2260 -0.2708
 6223TIP3    H140160   0.304   0.956  14.600 -0.2692 -0.2922  1.6215
 6223TIP3    H240161   0.417   1.054  14.579 -1.0421 -0.0019 -1.6272
 6224TIP3   OH240162   4.059   2.762   2.910 -0.0749  0.5840 -0.0753
 6224TIP3    H140163   4.094   2.794   2.993 -0.5506  0.2145  0.2732
 6224TIP3    H240164   3.981   2.713   2.934 -0.8136  1.3505 -0.8453
 6225TIP3   OH240165   6.458   5.779   4.386 -0.8452  0.1931 -0.4296
 6225TIP3    H140166   6.456   5.687   4.357 -1.2400  0.1394 -0.2409
 6225TIP3    H240167   6.539   5.814   4.349  0.0753 -0.6244  0.7208
 6226TIP3   OH240168   0.277   2.572  13.787  0.4488  0.2700 -0.0171
 6226TIP3    H140169   0.360   2.543  13.750  0.6973  0.4392  0.4064
 6226TIP3    H240170   0.275   2.536  13.875 -0.0840 -0.0199 -0.1406
 6227TIP3   OH240171   6.335   6.288   0.372  0.7649 -0.5921 -0.2526
 6227TIP3    H140172   6.371   6.312   0.458 -0.1877  0.8900 -0.2237
 6227TIP3    H240173   6.263   6.228   0.393 -0.2104  0.6591  0.1107
 6228TIP3   OH240174   1.796   4.565   3.775 -0.3890 -0.6637  0.3802
 6228TIP3    H140175   1.763   4.654   3.759 -0.9641 -0.8383  0.5949
 6228TIP3    H240176   1.890   4.572   3.757 -0.1391  0.3616  1.8390
 6229TIP3   OH240177   5.004   6.280  17.059 -0.3596  0.6452 -0.2558
 6229TIP3    H140178   4.971   6.190  17.051 -2.0464  1.1666  0.2990
 6229TIP3    H240179   5.084   6.272  17.110  0.0398 -0.6372 -1.0460
 6230TIP3   OH240180   0.144   4.245  14.870 -0.1146  0.0378 -0.8865
 6230TIP3    H140181   0.081   4.176  14.891 -0.3423  0.7494  0.9587
 6230TIP3    H240182   0.229   4.200  14.866 -0.4149 -0.5342 -0.9459
 6231TIP3   OH240183   6.295   0.821  16.639  0.4768  0.3760  0.4465
 6231TIP3    H140184   6.321   0.777  16.720  0.7386 -1.3384 -0.5179
 6231TIP3    H240185   6.367   0.804  16.578  0.5724  2.1648 -0.0008
 6232TIP3   OH240186   4.376   4.003  12.456  0.3365 -0.4115  0.3743
 6232TIP3    H140187   4.416   3.929  12.501  1.1591 -0.9616 -1.1955
 6232TIP3    H240188   4.320   3.963  12.389  1.1668  0.3659 -0.8057
 6233TIP3   OH240189   1.592   4.829  13.817  0.1364  0.1602 -0.0890
 6233TIP3    H140190   1.680   4.865  13.809  0.5441 -0.7035  0.3769
 6233TIP3    H240191   1.590   4.756  13.756  0.6798 -1.5393  1.8420
 6234TIP3   OH240192   5.577   6.272   0.103  0.7638 -0.0798  0.2245
 6234TIP3    H140193   5.584   6.311   0.016  1.6208 -0.3087  0.1802
 6234TIP3    H240194   5.483   6.266   0.119  0.4516 -2.4415 -1.8098
 6235TIP3   OH240195   2.043   1.628  12.504 -0.0318 -0.2089 -0.0759
 6235TIP3    H140196   1.985   1.580  12.563  0.0532  0.6963  0.7823
 6235TIP3    H240197   1.985   1.690  12.460 -0.0292 -0.6189 -0.6624
 6236TIP3   OH240198   4.271   0.659  13.710 -0.1945 -0.7228  0.2662
 6236TIP3    H140199   4.357   0.698  13.726 -0.3016 -0.4331  0.1437
 6236TIP3    H240200   4.218   0.690  13.784 -0.0578 -1.3184  0.6171
 6237TIP3   OH240201   5.377   1.606   2.614  0.1590  0.5987  0.1690
 6237TIP3    H140202   5.409   1.522   2.648 -2.8411 -0.6455  0.2742
 6237TIP3    H240203   5.390   1.600   2.519 -0.8416 -0.4214  0.0729
 6238TIP3   OH240204   3.202   1.970  11.883 -0.8533  0.1916 -0.2914
 6238TIP3    H140205   3.282   1.952  11.932 -2.1812  0.0943  1.9725
 6238TIP3    H240206   3.232   2.019  11.805  1.5282 -1.2519 -0.3875
 6239TIP3   OH240207   3.388   6.375  15.175 -0.5601  0.3562 -0.6985
 6239TIP3    H140208   3.333   6.369  15.097 -0.8195  0.2797 -0.5123
 6239TIP3    H240209   3.444   6.297  15.171  0.9801  1.4391 -1.9611
 6240TIP3   OH240210   3.136   3.522   0.330  0.0202 -0.0586  0.2998
 6240TIP3    H140211   3.168   3.581   0.398 -0.1816  1.1102 -0.6030
 6240TIP3    H240212   3.064   3.569   0.289 -2.9232 -2.5033  2.1434
 6241TIP3   OH240213   0.125   1.114   3.431 -0.9063 -0.6074 -0.1782
 6241TIP3    H140214   0.118   1.088   3.339 -0.3508  1.2225 -0.7820
 6241TIP3    H240215   0.043   1.158   3.450  0.0511  1.5483 -0.7116
 6242TIP3   OH240216   6.253   0.621   6.133  0.0197  0.1756 -0.4675
 6242TIP3    H140217   6.170   0.625   6.180 -0.1780  3.3241 -0.9091
 6242TIP3    H240218   6.306   0.691   6.170  1.4722 -0.0281 -2.0118
 6243TIP3   OH240219   6.398   0.696  12.446  0.4768 -0.3134 -0.2894
 6243TIP3    H140220   6.348   0.754  12.389 -0.8263 -3.8570 -3.1857
 6243TIP3    H240221   6.332   0.647  12.495  1.4055 -0.6979  0.6173
 6244TIP3   OH240222   1.244   4.218   4.017  0.0899  0.0176 -0.0953
 6244TIP3    H140223   1.265   4.174   3.935  2.6590 -1.6055  1.2971
 6244TIP3    H240224   1.180   4.161   4.060  0.2847 -0.1819 -0.0743
 6245TIP3   OH240225   2.984   2.864  12.698  0.5051  0.0107  0.4879
 6245TIP3    H140226   3.040   2.863  12.775  1.3338 -1.8337 -0.0732
 6245TIP3    H240227   2.955   2.773  12.688 -0.7054  0.4782 -0.5772
 6246TIP3   OH240228   2.502   4.237  16.654 -0.2147  0.4548  0.6467
 6246TIP3    H140229   2.410   4.214  16.667 -0.0015 -0.9783 -0.1514
 6246TIP3    H240230   2.514   4.235  16.559  0.5314  1.1371  0.7143
 6247TIP3   OH240231   2.120   1.367   3.984 -0.3549 -0.1935  0.0595
 6247TIP3    H140232   2.177   1.413   4.046 -1.7816  1.6774  0.0568
 6247TIP3    H240233   2.180   1.316   3.931  1.4038  1.8729 -0.0898
 6248TIP3   OH240234   2.974   2.573   4.775  0.1785 -0.5585  0.2900
 6248TIP3    H140235   3.065   2.572   4.744 -0.6276 -0.1518 -2.2872
 6248TIP3    H240236   2.930   2.505   4.725 -0.9056 -0.9765  1.7367
 6249TIP3   OH240237   1.709   5.287  12.163  0.2089  0.2318 -0.2512
 6249TIP3    H140238   1.753   5.335  12.093 -0.4360  1.0262 -0.1241
 6249TIP3    H240239   1.653   5.352  12.205 -0.2595 -0.5047  0.2805
 6250TIP3   OH240240   3.903   1.399   4.002 -0.6794  0.3287 -0.2880
 6250TIP3    H140241   3.898   1.303   3.996  0.0683  0.2726 -0.0733
 6250TIP3    H240242   3.994   1.419   3.982 -0.7406  0.9694  0.0874
 6251TIP3   OH240243   1.970   1.401   3.608 -0.1441  0.9415  0.8036
 6251TIP3    H140244   1.987   1.495   3.601 -2.0897  1.4877  2.5245
 6251TIP3    H240245   1.925   1.378   3.527  0.3339  1.4652  0.3788
 6252TIP3   OH240246   4.550   5.552   0.966 -0.5730  0.4439 -0.2765
 6252TIP3    H140247   4.533   5.581   1.056 -0.4920 -0.3910  0.0140
 6252TIP3    H240248   4.638   5.586   0.947  0.2408 -1.0068  0.6762
 6253TIP3   OH240249   4.866   0.235  11.745  0.2889  0.3660  0.2815
 6253TIP3    H140250   4.840   0.306  11.803 -1.3611 -2.0512  2.7170
 6253TIP3    H240251   4.942   0.270  11.697  0.8527  3.0088  2.8297
 6254TIP3   OH240252   1.238   0.572  13.487  0.8705 -0.1760 -0.4577
 6254TIP3    H140253   1.152   0.575  13.531  1.1828  1.3352  0.1251
 6254TIP3    H240254   1.217   0.555  13.395  0.0416 -1.0497 -0.1290
 6255TIP3   OH240255   1.703   6.433  12.124 -0.3877  0.1962  0.0595
 6255TIP3    H140256   1.635   6.494  12.150 -0.6649  0.6362 -1.5982
 6255TIP3    H240257   1.779   6.457  12.177 -1.2296  0.2776  1.2734
 6256TIP3   OH240258   1.086   2.609   3.209 -0.5609  0.4871  0.2220
 6256TIP3    H140259   1.146   2.537   3.188  0.5046  1.7026 -1.0299
 6256TIP3    H240260   1.018   2.604   3.143 -0.8557  0.2360  0.5391
 6257TIP3   OH240261   5.941   0.415   0.783  0.5630  0.3013 -0.3439
 6257TIP3    H140262   5.968   0.341   0.728  1.3805 -1.1265  1.8418
 6257TIP3    H240263   5.964   0.388   0.872  0.2301  2.9243  0.6162
 6258TIP3   OH240264   4.651   0.819   6.172 -0.4422  0.0567 -0.0832
 6258TIP3    H140265   4.574   0.770   6.143  0.2381 -0.2514 -1.4615
 6258TIP3    H240266   4.674   0.875   6.098  0.3177  0.5708  0.5199
 6259TIP3   OH240267   1.869   4.803   5.175  0.1176 -0.3919 -0.1399
 6259TIP3    H140268   1.854   4.710   5.164  0.4480 -0.3778 -0.7725
 6259TIP3    H240269   1.943   4.808   5.236 -0.9146 -0.4979  1.1657
 6260TIP3   OH240270   2.284   6.686  12.991 -0.0180  0.6968  0.6927
 6260TIP3    H140271   2.208   6.736  12.961 -0.2967 -0.9067 -1.5787
 6260TIP3    H240272   2.352   6.706  12.926  0.2410 -0.8429  0.4463
 6261TIP3   OH240273   2.405   5.500  14.220  0.0000  0.0446  0.4805
 6261TIP3    H140274   2.443   5.550  14.148 -1.3485  1.6271  0.8095
 6261TIP3    H240275   2.393   5.412  14.184  1.0171  0.3193 -0.6183
 6262TIP3   OH240276   5.431   2.589   3.250 -0.2321  0.2169  0.2277
 6262TIP3    H140277   5.504   2.651   3.254 -0.0772  0.0069  0.7391
 6262TIP3    H240278   5.355   2.642   3.228  0.3069  0.2487 -1.7495
 6263TIP3   OH240279   5.758   6.776   4.774 -0.0062 -0.5851 -0.2619
 6263TIP3    H140280   5.665   6.794   4.784  0.1143  0.0826 -0.2658
 6263TIP3    H240281   5.772   6.693   4.820 -0.6129 -0.7248 -0.3275
 6264TIP3   OH240282   3.446   6.151   4.900 -0.2567  0.3621 -0.3730
 6264TIP3    H140283   3.512   6.082   4.911 -1.0365 -0.2707  0.6049
 6264TIP3    H240284   3.363   6.105   4.909 -0.8122  1.3186 -0.4913
 6265TIP3   OH240285   5.128   3.036  13.650  0.2885 -0.1846  0.3887
 6265TIP3    H140286   5.167   2.957  13.612  1.6453  0.9119 -0.6235
 6265TIP3    H240287   5.158   3.037  13.741  1.6548 -0.0309 -0.0285
 6266TIP3   OH240288   3.366   6.301  13.449  0.3325 -0.4425 -0.4339
 6266TIP3    H140289   3.446   6.334  13.409  1.2571 -1.3018  0.6178
 6266TIP3    H240290   3.332   6.237  13.386  0.2934  0.1536 -1.0244
 6267TIP3   OH240291   3.521   0.056  13.665  0.1300  0.1434 -0.1594
 6267TIP3    H140292   3.465   0.084  13.737 -0.5210 -1.0861 -0.1556
 6267TIP3    H240293   3.585  -0.003  13.705 -1.0433 -1.6105 -0.7234
 6268TIP3   OH240294   4.554   4.431  11.541  0.0704  0.1030 -0.3230
 6268TIP3    H140295   4.530   4.391  11.624 -0.0188 -0.3195 -0.5476
 6268TIP3    H240296   4.479   4.415  11.484  0.1078  0.4361 -0.4721
 6269TIP3   OH240297   3.998   1.873  11.136 -0.0755  0.1961 -0.1123
 6269TIP3    H140298   4.006   1.954  11.084 -2.0031  2.0149  2.1855
 6269TIP3    H240299   3.912   1.838  11.112 -0.4745  0.4156  0.9658
 6270TIP3   OH240300   3.687   6.504   4.648 -0.3653  0.7424  0.6644
 6270TIP3    H140301   3.728   6.434   4.597  1.2562  2.9319 -1.2807
 6270TIP3    H240302   3.739   6.508   4.728 -0.5276 -0.3004  0.8369
 6271TIP3   OH240303   4.968   6.294   1.378 -0.9959  0.3579  0.0242
 6271TIP3    H140304   4.953   6.218   1.322  0.0258  1.2359 -1.5211
 6271TIP3    H240305   5.055   6.279   1.416 -1.8255 -0.3935  1.6808
 6272TIP3   OH240306   6.559   4.585   4.905 -0.6977 -0.0608 -0.2532
 6272TIP3    H140307   6.541   4.534   4.984  0.1977  0.1470  0.0978
 6272TIP3    H240308   6.648   4.618   4.918 -1.0552  1.1262 -0.7272
 6273TIP3   OH240309   1.069   4.154   1.586 -0.8240 -0.0896 -0.0616
 6273TIP3    H140310   1.003   4.115   1.529  0.9743 -1.7166 -1.1817
 6273TIP3    H240311   1.137   4.185   1.526 -0.2528  0.9514  1.0757
 6274TIP3   OH240312   6.798   4.599  14.284  0.7771 -0.5813  0.1727
 6274TIP3    H140313   6.841   4.604  14.198  1.5437 -2.8712  0.3569
 6274TIP3    H240314   6.704   4.595  14.264  0.9810 -1.7932 -0.6316
 6275TIP3   OH240315   6.553   2.484  12.066  0.8332 -0.6319  0.6715
 6275TIP3    H140316   6.465   2.455  12.041  0.9146  0.8725 -1.7260
 6275TIP3    H240317   6.606   2.405  12.063  0.0875 -1.1148 -0.7312
 6276TIP3   OH240318   5.113   0.425  15.343 -0.7904 -0.0144 -0.1339
 6276TIP3    H140319   5.042   0.408  15.282  0.5409 -0.4637 -1.6144
 6276TIP3    H240320   5.182   0.463  15.290  0.3535 -0.2474  1.1334
 6277TIP3   OH240321   4.036   6.082   3.227  0.1939 -0.6370 -0.2867
 6277TIP3    H140322   4.122   6.069   3.266 -0.1377  0.1412  0.7613
 6277TIP3    H240323   3.981   6.015   3.269 -0.0968  0.0108  0.3937
 6278TIP3   OH240324   1.265   5.279  17.085  0.3506  0.2441 -0.5206
 6278TIP3    H140325   1.286   5.266  17.177  0.5423 -2.1189 -0.8369
 6278TIP3    H240326   1.349   5.275  17.040  0.1180 -0.2939 -0.9281
 6279TIP3   OH240327   1.487   1.020   5.402  0.1889 -0.1830 -0.0549
 6279TIP3    H140328   1.576   1.036   5.434 -0.6361  0.5425  2.0560
 6279TIP3    H240329   1.435   1.008   5.482 -1.8120  0.5400 -1.1863
 6280TIP3   OH240330   5.737   1.609   6.420  0.6103  0.1612  0.3100
 6280TIP3    H140331   5.674   1.646   6.482  0.8026  0.9243  0.0553
 6280TIP3    H240332   5.788   1.547   6.473  1.7791  1.9109  1.3163
 6281TIP3   OH240333   6.447   6.659   3.719  0.0734 -0.3099 -0.0196
 6281TIP3    H140334   6.412   6.740   3.754  0.3710 -0.1501 -0.0925
 6281TIP3    H240335   6.477   6.681   3.630 -0.1674 -0.5799 -0.1710
 6282TIP3   OH240336   4.157   1.188   3.976  0.0914  0.3157 -0.4134
 6282TIP3    H140337   4.102   1.109   3.972  1.3367 -0.7365  1.7046
 6282TIP3    H240338   4.123   1.244   3.906 -0.6980 -2.1761 -2.1708
 6283TIP3   OH240339   4.240   1.997   4.876 -0.4305  0.5220 -0.2588
 6283TIP3    H140340   4.190   1.931   4.924 -1.0688  0.3267 -1.1714
 6283TIP3    H240341   4.327   1.959   4.867 -1.0994 -0.7484 -1.7987
 6284TIP3   OH240342   3.079   0.880  11.685  0.2203  0.4591 -0.4330
 6284TIP3    H140343   2.991   0.904  11.657  0.2487  0.7672 -0.2570
 6284TIP3    H240344   3.065   0.816  11.755  0.1290  0.7077 -0.2203
 6285TIP3   OH240345   6.254   4.366  13.533 -0.5589  0.7825 -0.5877
 6285TIP3    H140346   6.290   4.390  13.618 -1.2029  2.2080 -0.6753
 6285TIP3    H240347   6.260   4.447  13.481 -1.6742  0.4051 -1.3504
 6286TIP3   OH240348   3.856   0.456  12.699  0.3558 -0.3617 -0.2183
 6286TIP3    H140349   3.822   0.542  12.724  0.1638 -1.0861  2.2643
 6286TIP3    H240350   3.787   0.418  12.644  0.0377  0.7033 -0.5766
 6287TIP3   OH240351   5.944   2.419   6.980 -0.2563  0.1166 -0.4333
 6287TIP3    H140352   5.938   2.344   6.921  0.2474  0.7005 -1.2737
 6287TIP3    H240353   5.892   2.395   7.056 -0.5801 -0.8418 -0.9358
 6288TIP3   OH240354   3.724   3.510  16.882  0.2798  0.2192 -0.8089
 6288TIP3    H140355   3.722   3.575  16.952 -1.6635  0.4255 -0.9945
 6288TIP3    H240356   3.684   3.432  16.920 -0.2232  0.1318 -1.4972
 6289TIP3   OH240357   6.288   5.237   0.974  0.8306  0.1122 -0.2926
 6289TIP3    H140358   6.355   5.235   1.042  0.0970  2.7259  0.6374
 6289TIP3    H240359   6.205   5.239   1.022  0.2116 -0.1029 -1.3213
 6290TIP3   OH240360   3.560   6.569  16.908 -0.2222  0.1459 -0.2781
 6290TIP3    H140361   3.642   6.589  16.953  0.3081 -0.0259 -1.1301
 6290TIP3    H240362   3.520   6.655  16.894  0.1142  0.2857 -0.4005
 6291TIP3   OH240363   6.433   5.353  12.249  0.5210  0.0038  0.8194
 6291TIP3    H140364   6.486   5.388  12.176 -0.9012  0.6312  0.0424
 6291TIP3    H240365   6.346   5.389  12.233  0.1523  0.0461  2.7953
 6292TIP3   OH240366   0.906   1.087  10.800  0.2468 -0.1930  0.0090
 6292TIP3    H140367   0.934   1.006  10.759  2.7028  0.4080  0.3517
 6292TIP3    H240368   0.813   1.095  10.776  0.9478 -0.9957 -3.5538
 6293TIP3   OH240369   0.682   1.741  16.815  0.1890 -0.0624  0.1202
 6293TIP3    H140370   0.692   1.661  16.764 -0.3590 -0.4974  0.6911
 6293TIP3    H240371   0.764   1.749  16.863  0.3100 -0.1835 -0.0643
 6294TIP3   OH240372   5.098   5.323  12.489  0.0026 -0.1151  0.1916
 6294TIP3    H140373   5.100   5.318  12.585 -4.1397 -0.5695  0.4363
 6294TIP3    H240374   5.088   5.232  12.461 -2.6408  0.2637 -0.3244
 6295TIP3   OH240375   4.215   2.489   2.160 -0.7383 -0.5925 -1.5881
 6295TIP3    H140376   4.254   2.408   2.125  0.4321 -0.6260 -0.2807
 6295TIP3    H240377   4.255   2.559   2.108  1.4493 -0.6010 -0.0518
 6296TIP3   OH240378   3.842   5.737  15.502  0.7269 -0.1927  0.2627
 6296TIP3    H140379   3.807   5.659  15.545  0.7310 -0.1752  0.2976
 6296TIP3    H240380   3.824   5.723  15.409 -1.0509  0.6382  0.4345
 6297TIP3   OH240381   6.349   1.224   5.102  0.4555 -0.8206  0.2010
 6297TIP3    H140382   6.363   1.306   5.055  0.9841 -0.1315  1.4953
 6297TIP3    H240383   6.418   1.165   5.071 -0.6186 -1.1993 -1.5831
 6298TIP3   OH240384   0.701   3.044  13.417 -0.4419  0.3412  0.1168
 6298TIP3    H140385   0.773   3.098  13.386  1.1489 -0.2730  2.5070
 6298TIP3    H240386   0.707   2.963  13.367  0.1347  0.5391 -0.1302
 6299TIP3   OH240387   3.429   4.188   4.035  0.3478 -0.1857 -0.6034
 6299TIP3    H140388   3.369   4.117   4.058 -1.8223  1.6810 -0.2461
 6299TIP3    H240389   3.425   4.248   4.109  0.8930  1.1118 -1.5927
 6300TIP3   OH240390   0.756   4.823  11.949  0.0860  0.5825 -0.5797
 6300TIP3    H140391   0.684   4.796  12.006  0.4363 -0.6428 -0.7001
 6300TIP3    H240392   0.832   4.830  12.007  0.8177 -2.1853 -1.0549
 6301TIP3   OH240393   1.625   1.536   1.345  0.4991 -0.3518  0.3135
 6301TIP3    H140394   1.662   1.613   1.388 -0.7860 -0.6870  2.1499
 6301TIP3    H240395   1.556   1.571   1.288 -0.1648 -0.1089  1.2340
 6302TIP3   OH240396   1.483   0.863  15.541  0.5172 -0.0464  0.4990
 6302TIP3    H140397   1.400   0.831  15.576 -0.2242 -2.1239 -2.7196
 6302TIP3    H240398   1.540   0.786  15.541  0.7201  0.0268 -1.8833
 6303TIP3   OH240399   4.396   5.718  13.295  0.2675  0.0648 -0.4606
 6303TIP3    H140400   4.428   5.799  13.256  1.2054 -0.5866 -1.0918
 6303TIP3    H240401   4.352   5.672  13.223 -0.9126  0.3146  0.0642
 6304TIP3   OH240402   5.404   3.302  11.585 -0.1209  0.5949  0.4577
 6304TIP3    H140403   5.370   3.268  11.668 -1.8045 -1.4214 -0.9311
 6304TIP3    H240404   5.378   3.394  11.583 -1.1418  0.3527  1.6343
 6305TIP3   OH240405   2.581   4.247   3.505  0.0138 -0.3155 -0.5750
 6305TIP3    H140406   2.612   4.333   3.534 -1.0216  0.1150 -0.7000
 6305TIP3    H240407   2.661   4.195   3.494  0.5841  0.2773  0.5901
 6306TIP3   OH240408   6.660   1.017   3.476  0.5395 -0.2260 -0.5444
 6306TIP3    H140409   6.699   0.966   3.548 -1.1118  0.4191  0.8999
 6306TIP3    H240410   6.608   0.953   3.427 -1.4975 -0.0624  1.2400
 6307TIP3   OH240411   6.586   4.170  13.857  0.1715  0.4121  0.2027
 6307TIP3    H140412   6.580   4.233  13.786 -0.1073  0.4175  0.2313
 6307TIP3    H240413   6.530   4.097  13.831 -0.1642  0.5409  0.5451
 6308TIP3   OH240414   1.858   1.613  11.089  0.6425  0.0717 -0.1245
 6308TIP3    H140415   1.836   1.595  11.181 -0.8744  0.5876 -0.3539
 6308TIP3    H240416   1.809   1.547  11.040  1.8366 -0.5099 -0.5551
 6309TIP3   OH240417   1.549   2.985  13.704 -0.1006  0.3088 -0.1139
 6309TIP3    H140418   1.468   2.960  13.747 -0.7414  5.1165  2.1021
 6309TIP3    H240419   1.521   3.031  13.625  0.7795 -1.5088 -1.5649
 6310TIP3   OH240420   3.725   6.325   3.449  0.5428  0.1262 -0.0402
 6310TIP3    H140421   3.807   6.284   3.420  0.2841 -0.4910  0.1026
 6310TIP3    H240422   3.701   6.278   3.528 -1.6011 -1.8859 -1.7398
 6311TIP3   OH240423   5.601   0.125  15.526  0.0814 -0.2611 -0.1804
 6311TIP3    H140424   5.568   0.076  15.601 -2.2198  0.5712 -0.5728
 6311TIP3    H240425   5.678   0.076  15.497 -0.1096 -1.6668  1.5164
 6312TIP3   OH240426   1.201   4.384   6.040 -0.6326 -0.2647  0.3309
 6312TIP3    H140427   1.260   4.415   6.108  0.3792 -1.3066 -0.0545
 6312TIP3    H240428   1.150   4.462   6.017 -0.8564  0.1570  2.1022
 6313TIP3   OH240429   0.167   5.392  16.059  0.4244  0.8336 -0.0614
 6313TIP3    H140430   0.184   5.483  16.083 -0.1381  1.2828 -1.2814
 6313TIP3    H240431   0.075   5.379  16.078 -0.1049  1.2821 -2.1052
 6314TIP3   OH240432   5.819   6.435  13.696  0.1251  0.5643  0.7602
 6314TIP3    H140433   5.891   6.420  13.634 -0.8937  0.5036 -0.4649
 6314TIP3    H240434   5.785   6.521  13.672 -1.6450 -0.3548 -0.2379
 6315TIP3   OH240435   0.711   0.290  17.209  0.7572  0.0567  0.2607
 6315TIP3    H140436   0.631   0.343  17.217  1.0525  0.5768 -0.2009
 6315TIP3    H240437   0.748   0.316  17.125  1.3607 -0.2614  0.4273
 6316TIP3   OH240438   2.341   5.907   6.534 -0.2219 -0.1244 -0.6459
 6316TIP3    H140439   2.269   5.955   6.494 -0.3716  1.4554  1.3360
 6316TIP3    H240440   2.419   5.935   6.485 -0.5723  0.5717 -0.8159
 6317TIP3   OH240441   2.043   1.229   0.084  0.0636 -0.3779 -0.6028
 6317TIP3    H140442   2.129   1.248   0.122 -0.5633 -0.7985  1.1438
 6317TIP3    H240443   2.019   1.309   0.038  1.4311 -0.3002 -1.2532
 6318TIP3   OH240444   0.528   6.226  12.128 -0.5610  0.3923 -0.1444
 6318TIP3    H140445   0.541   6.262  12.040 -0.2284  2.5567  0.7112
 6318TIP3    H240446   0.541   6.132  12.118  2.1679  0.8249 -1.9596
 6319TIP3   OH240447   4.022   3.450  15.160  0.4181  0.7684  0.1020
 6319TIP3    H140448   4.064   3.528  15.124 -1.4375  1.2478 -1.1636
 6319TIP3    H240449   3.930   3.458  15.134 -0.3651 -0.5292  2.2203
 6320TIP3   OH240450   3.030   1.157   0.535 -0.3341 -0.4572 -0.5329
 6320TIP3    H140451   2.970   1.184   0.466 -2.7013 -1.4061  1.0105
 6320TIP3    H240452   3.019   1.223   0.603 -2.7981 -2.6279  1.4086
 6321TIP3   OH240453   3.564   4.774   1.870  0.3442 -0.3022 -0.1290
 6321TIP3    H140454   3.616   4.694   1.882  0.3589 -0.3489 -0.4714
 6321TIP3    H240455   3.497   4.748   1.807 -1.8129 -1.0323  2.3285
 6322TIP3   OH240456   4.725   5.053  16.959  0.7092 -0.8176 -0.5807
 6322TIP3    H140457   4.660   5.123  16.959 -0.7982 -2.1567  0.7850
 6322TIP3    H240458   4.778   5.069  17.037  0.8094 -0.8252 -0.6469
 6323TIP3   OH240459   6.581   0.446  12.880  0.2869 -0.3101 -0.3335
 6323TIP3    H140460   6.534   0.394  12.815  0.9224 -0.3513 -0.7695
 6323TIP3    H240461   6.667   0.463  12.840  0.5361  0.0171  0.3211
 6324TIP3   OH240462   4.583   0.463   3.833 -0.1487  0.0586 -0.6015
 6324TIP3    H140463   4.539   0.508   3.761  2.5937  0.6914 -2.0353
 6324TIP3    H240464   4.650   0.410   3.790  1.1792 -0.0200  1.4356
 6325TIP3   OH240465   6.544   4.368   3.758  0.0547 -0.2639  0.1301
 6325TIP3    H140466   6.516   4.427   3.827  2.4440  3.4753 -1.7883
 6325TIP3    H240467   6.592   4.299   3.803  0.4476  1.3406  2.3113
 6326TIP3   OH240468   5.316   2.463   1.463 -0.1434  0.5595  1.0692
 6326TIP3    H140469   5.279   2.519   1.395  1.3818  0.6390  0.2558
 6326TIP3    H240470   5.390   2.513   1.498  1.3387 -0.9530  0.2264
 6327TIP3   OH240471   0.326   1.509   4.884  0.1149 -0.1990 -0.2347
 6327TIP3    H140472   0.272   1.493   4.806 -0.2571  2.3494 -0.5900
 6327TIP3    H240473   0.270   1.559   4.942  1.1879  0.0269  0.6405
 6328TIP3   OH240474   6.487   0.751   5.966 -0.1921 -0.6159  0.6515
 6328TIP3    H140475   6.504   0.665   5.928  0.5631 -0.7653  1.3096
 6328TIP3    H240476   6.458   0.732   6.055  0.0533 -0.1762  0.8232
 6329TIP3   OH240477   5.414   3.634   3.468  0.1516 -0.2277 -0.5963
 6329TIP3    H140478   5.347   3.567   3.451  1.3452 -0.9795 -2.6773
 6329TIP3    H240479   5.376   3.689   3.536 -1.7795 -1.7475 -0.3571
 6330TIP3   OH240480   0.447   4.568  14.827 -0.2793  0.1664 -0.1167
 6330TIP3    H140481   0.498   4.560  14.907  0.8038  0.4158 -0.7626
 6330TIP3    H240482   0.357   4.547  14.854 -0.4635  2.8441  1.7249
 6331TIP3   OH240483   1.020   4.209  13.596  0.4751  0.2536 -0.0876
 6331TIP3    H140484   0.988   4.233  13.682  1.2145  1.1583 -0.0571
 6331TIP3    H240485   0.955   4.244  13.535 -0.0746 -0.4313  0.0843
 6332TIP3   OH240486   5.873   4.231   2.196  0.1394 -0.5911  0.3327
 6332TIP3    H140487   5.966   4.214   2.186 -0.0636 -0.6835 -1.9394
 6332TIP3    H240488   5.836   4.148   2.226  0.4705 -1.4176 -1.3995
 6333TIP3   OH240489   6.704   0.449  11.227  0.1046  0.2133  0.1666
 6333TIP3    H140490   6.768   0.516  11.251 -1.2680  1.4847  0.4109
 6333TIP3    H240491   6.623   0.498  11.209 -1.2389 -1.4359  1.3752
 6334TIP3   OH240492   0.055   1.576  16.533 -0.0574 -0.1974 -0.1853
 6334TIP3    H140493   0.103   1.650  16.569  1.5294 -1.4077  0.2645
 6334TIP3    H240494   0.122   1.516  16.502 -1.3136 -1.3407 -0.7841
 6335TIP3   OH240495   4.524   2.299   0.919  0.0825  0.2502 -0.6663
 6335TIP3    H140496   4.615   2.327   0.923  0.1108  0.2864 -1.3837
 6335TIP3    H240497   4.514   2.262   0.831  0.2104 -2.5731  0.4069
 6336TIP3   OH240498   6.076   2.112  11.222  0.1329  0.1124  0.2582
 6336TIP3    H140499   6.079   2.068  11.137 -0.9276  0.9490 -0.2404
 6336TIP3    H240500   6.162   2.153  11.232  0.7827 -1.1963  0.2792
 6337TIP3   OH240501   1.383   0.164  13.666  0.6852 -0.0022 -0.3639
 6337TIP3    H140502   1.343   0.193  13.748  1.8625  1.5621 -0.2847
 6337TIP3    H240503   1.441   0.236  13.641  2.6877 -1.7134 -0.9820
 6338TIP3   OH240504   1.492   5.990   1.167  0.7873 -0.3753  0.1474
 6338TIP3    H140505   1.447   6.025   1.244 -1.1867 -0.4494 -0.9168
 6338TIP3    H240506   1.571   5.950   1.203 -0.4067 -1.0356  2.2661
 6339TIP3   OH240507   6.128   1.391   2.312  0.6730  0.1686 -0.0843
 6339TIP3    H140508   6.172   1.336   2.377  0.7593  1.1913  0.7526
 6339TIP3    H240509   6.169   1.477   2.323 -0.9345  0.9303  0.1009
 6340TIP3   OH240510   3.433   2.033   1.200 -0.3309 -0.3596 -0.0663
 6340TIP3    H140511   3.347   1.995   1.214  0.1102 -0.9043  1.3603
 6340TIP3    H240512   3.457   2.071   1.284  0.5889  0.2634 -0.5876
 6341TIP3   OH240513   4.406   2.944   4.766 -0.1568  0.1865  0.0560
 6341TIP3    H140514   4.401   2.929   4.672  0.3300 -0.6264  0.1488
 6341TIP3    H240515   4.468   2.878   4.798 -0.2015  0.5457  0.9246
 6342TIP3   OH240516   1.064   4.425  15.671  0.0892 -0.1349 -0.0588
 6342TIP3    H140517   1.137   4.464  15.719  0.0139 -1.3451  1.0787
 6342TIP3    H240518   1.106   4.365  15.608  0.1056 -0.5674  0.3562
 6343TIP3   OH240519   5.901   0.865  12.060  0.4300 -0.4252 -0.2921
 6343TIP3    H140520   5.837   0.882  12.129 -1.6689 -1.2080 -1.9293
 6343TIP3    H240521   5.907   0.770  12.057  1.4409 -0.3639 -0.4001
 6344TIP3   OH240522   6.000   5.594  15.744  0.0647 -0.0308  0.1510
 6344TIP3    H140523   5.936   5.627  15.807  0.1816 -1.2329  0.9394
 6344TIP3    H240524   6.064   5.547  15.797  1.9463  1.6139 -0.5665
 6345TIP3   OH240525   0.476   3.897   1.224  0.4733 -0.4818 -0.5222
 6345TIP3    H140526   0.478   3.820   1.168 -0.4118 -0.1373 -1.0631
 6345TIP3    H240527   0.420   3.959   1.176  1.2684  0.5416 -0.1657
 6346TIP3   OH240528   0.174   1.799  14.953 -0.0012 -0.3340 -0.4696
 6346TIP3    H140529   0.267   1.797  14.973 -0.1330 -2.4702  0.1416
 6346TIP3    H240530   0.144   1.884  14.986  1.5477  0.0227  0.0959
 6347TIP3   OH240531   3.430   5.111   4.807 -0.3514 -0.3706  0.4338
 6347TIP3    H140532   3.484   5.035   4.825 -0.4689 -0.6623 -0.4040
 6347TIP3    H240533   3.492   5.180   4.782 -0.1318  0.2254  2.4422
 6348TIP3   OH240534   2.303   1.948   1.260 -0.2916  0.0659 -0.3441
 6348TIP3    H140535   2.228   1.892   1.239  0.0488 -0.3862 -0.3878
 6348TIP3    H240536   2.364   1.890   1.307 -0.1138  0.5122 -0.0123
 6349TIP3   OH240537   6.119   3.729   4.046  0.1046  0.1640 -0.4581
 6349TIP3    H140538   6.133   3.664   3.977  0.3399 -0.2363 -0.0369
 6349TIP3    H240539   6.026   3.750   4.040 -0.6973 -2.3989  1.2584
 6350TIP3   OH240540   6.156   2.438  15.964 -0.6698  0.0243  0.4556
 6350TIP3    H140541   6.215   2.504  16.001 -1.9538  0.4545  1.8052
 6350TIP3    H240542   6.170   2.444  15.869  2.2527 -0.6825  0.7589
 6351TIP3   OH240543   6.527   2.801   0.402 -0.0814  0.4187  0.0440
 6351TIP3    H140544   6.485   2.879   0.366  1.4897  1.0062 -0.5907
 6351TIP3    H240545   6.545   2.824   0.493  1.8149  1.4685 -0.5431
 6352TIP3   OH240546   4.766   2.625  12.486 -0.5764 -0.0251  0.1704
 6352TIP3    H140547   4.676   2.657  12.481 -0.2621  0.9795  0.6918
 6352TIP3    H240548   4.808   2.656  12.406 -0.5894 -0.1791  0.1031
 6353TIP3   OH240549   3.835   2.959  13.146 -0.2303 -0.0475 -0.3344
 6353TIP3    H140550   3.900   2.928  13.209  0.0684  1.4754  0.1439
 6353TIP3    H240551   3.838   2.895  13.075  0.1992 -1.2098  0.6919
 6354TIP3   OH240552   1.353   5.405   4.017  0.4957 -0.0803  0.1472
 6354TIP3    H140553   1.372   5.360   4.099  0.3891  0.9979  0.7776
 6354TIP3    H240554   1.342   5.497   4.042  0.0700  0.1989 -1.0148
 6355TIP3   OH240555   3.806   2.653   2.980  0.8461  0.1402  0.2019
 6355TIP3    H140556   3.760   2.578   2.943  1.8191  0.1978 -1.2374
 6355TIP3    H240557   3.778   2.657   3.071 -1.8893  0.1171 -0.5429
 6356TIP3   OH240558   6.484   5.795  13.919 -0.4135  0.6417 -0.1382
 6356TIP3    H140559   6.477   5.701  13.939  0.0453  1.1369  2.9486
 6356TIP3    H240560   6.394   5.826  13.920 -0.4398  0.6832  2.0001
 6357TIP3   OH240561   1.520   2.049  13.911 -0.1743  0.2470  0.0753
 6357TIP3    H140562   1.522   1.976  13.850 -0.7307  1.1660 -1.0744
 6357TIP3    H240563   1.611   2.078  13.917 -0.0356 -0.1870  0.1138
 6358TIP3   OH240564   3.185   1.610  12.709  0.1060  0.2633  0.1011
 6358TIP3    H140565   3.094   1.581  12.712 -0.3139  1.4955  0.0220
 6358TIP3    H240566   3.199   1.654  12.793  0.2541  1.0918 -0.3398
 6359TIP3   OH240567   6.208   6.448  11.747  0.0108  0.0037 -0.0744
 6359TIP3    H140568   6.250   6.483  11.826  1.6561  0.1983 -0.9879
 6359TIP3    H240569   6.177   6.361  11.773  2.2986 -0.7759  0.2919
 6360TIP3   OH240570   5.882   3.205  16.891  0.0279 -1.3510 -0.0515
 6360TIP3    H140571   5.943   3.245  16.953 -0.9419 -0.4776  0.3796
 6360TIP3    H240572   5.843   3.279  16.844 -0.3670 -1.9116 -0.6294
 6361TIP3   OH240573   2.449   3.299   6.043  0.1854 -0.1759 -0.2387
 6361TIP3    H140574   2.386   3.368   6.066 -0.1296 -0.5798  0.1287
 6361TIP3    H240575   2.510   3.342   5.982 -0.1928  0.3365 -0.2669
 6362TIP3   OH240576   0.098   4.663   6.402  0.2858  0.6309 -0.0835
 6362TIP3    H140577   0.171   4.692   6.346  0.8183  1.7226  1.1365
 6362TIP3    H240578   0.130   4.676   6.491 -1.1920  0.5607  0.4773
 6363TIP3   OH240579   0.675   3.551   3.420 -0.2768  0.3372  0.3014
 6363TIP3    H140580   0.583   3.571   3.401 -0.4077 -1.2534 -0.9226
 6363TIP3    H240581   0.675   3.458   3.441  1.2306  0.0395 -0.8938
 6364TIP3   OH240582   5.251   4.768   2.277 -0.0676 -0.1267  0.4658
 6364TIP3    H140583   5.238   4.858   2.305  0.1891 -0.5864  2.1852
 6364TIP3    H240584   5.285   4.775   2.188  1.3572  1.5450  1.0894
 6365TIP3   OH240585   3.854   2.638   1.601  0.2733  0.0739 -0.0044
 6365TIP3    H140586   3.865   2.571   1.669  0.1422  0.3688  0.3098
 6365TIP3    H240587   3.881   2.719   1.644 -1.7664  0.6087  0.3559
 6366TIP3   OH240588   2.397   3.223   2.024 -0.3279  0.5914  0.4399
 6366TIP3    H140589   2.399   3.240   2.119 -1.6593  0.1067  0.5756
 6366TIP3    H240590   2.458   3.150   2.012 -1.8854 -0.9562  1.3209
 6367TIP3   OH240591   3.403   1.444  15.340 -0.4828  0.1977 -0.4522
 6367TIP3    H140592   3.418   1.537  15.322  0.1094  0.5145  1.4744
 6367TIP3    H240593   3.490   1.409  15.359 -0.9212 -0.3305  0.6414
 6368TIP3   OH240594   6.556   1.785   5.511  0.1776  0.1363 -0.3672
 6368TIP3    H140595   6.514   1.871   5.507 -0.1748 -0.0609 -1.1397
 6368TIP3    H240596   6.484   1.724   5.530 -0.0660 -0.3024 -2.5014
 6369TIP3   OH240597   2.847   2.288   2.665 -0.5230  0.0986 -0.4148
 6369TIP3    H140598   2.882   2.243   2.742 -0.9377  0.2831 -0.1073
 6369TIP3    H240599   2.883   2.376   2.670  1.0040 -0.4325 -1.5068
 6370TIP3   OH240600   6.636   6.142  16.804 -0.6772 -1.2027  0.4282
 6370TIP3    H140601   6.726   6.133  16.838 -0.6542  1.5651  1.3396
 6370TIP3    H240602   6.581   6.133  16.881 -0.9117  0.6366  0.5181
 6371TIP3   OH240603   4.076   3.068   1.247 -0.1342  0.8571 -0.0553
 6371TIP3    H140604   4.000   3.047   1.301 -0.4454 -0.6926 -1.0172
 6371TIP3    H240605   4.064   3.159   1.222 -1.8602  0.5387 -0.4659
 6372TIP3   OH240606   3.207   3.588   4.320 -0.2830 -0.4455 -0.3613
 6372TIP3    H140607   3.179   3.637   4.398 -2.3475 -1.0203 -0.6796
 6372TIP3    H240608   3.292   3.552   4.344  0.6803  2.1013  0.3879
 6373TIP3   OH240609   0.802   6.734  16.957 -0.0987  0.4557  0.3202
 6373TIP3    H140610   0.746   6.802  16.992  0.2045  0.5420  0.6476
 6373TIP3    H240611   0.800   6.664  17.023  0.3033  0.5276  0.4147
 6374TIP3   OH240612   6.447   4.712  15.494  0.9723  0.3735 -0.5885
 6374TIP3    H140613   6.413   4.679  15.410 -0.0405 -0.1245 -0.0016
 6374TIP3    H240614   6.369   4.740  15.542  1.5139  0.3791  0.3113
 6375TIP3   OH240615   3.955   4.523  16.451  0.0727  0.1587  0.4464
 6375TIP3    H140616   4.033   4.476  16.480 -0.6466 -1.2593  0.1502
 6375TIP3    H240617   3.960   4.607  16.497  0.5832 -0.7966  2.2315
 6376TIP3   OH240618   6.155   0.780  11.584 -0.2708  0.0239 -0.4810
 6376TIP3    H140619   6.070   0.752  11.550  0.5565 -0.5767 -2.1699
 6376TIP3    H240620   6.163   0.736  11.669 -2.0438  0.8835  0.1839
 6377TIP3   OH240621   0.142   6.655   3.400 -0.3488  0.7169  0.4199
 6377TIP3    H140622   0.215   6.717   3.415  0.2140  0.1347  0.1256
 6377TIP3    H240623   0.130   6.655   3.305  0.5539 -0.6226  0.2857
 6378TIP3   OH240624   5.765   1.994  14.280 -0.4868 -0.4933  0.6877
 6378TIP3    H140625   5.790   1.977  14.371  2.1775  0.0486  0.1365
 6378TIP3    H240626   5.779   1.911  14.235 -1.4559 -0.6612  0.6642
 6379TIP3   OH240627   5.244   6.419   1.039 -0.2329 -0.2914 -0.1246
 6379TIP3    H140628   5.149   6.417   1.028 -0.2988  0.1731  0.3186
 6379TIP3    H240629   5.275   6.480   0.971 -0.2292 -0.5933 -0.3963
 6380TIP3   OH240630   6.467   1.496   5.773  0.0957  0.0757 -0.2603
 6380TIP3    H140631   6.544   1.440   5.763  1.0584  1.3326 -0.0038
 6380TIP3    H240632   6.448   1.494   5.867  0.6919  0.8875 -0.1121
 6381TIP3   OH240633   6.314   3.582   0.690  0.2263  0.0482  0.4285
 6381TIP3    H140634   6.224   3.550   0.684 -0.2372  1.4793 -1.3811
 6381TIP3    H240635   6.305   3.670   0.728  0.7497  0.4647 -0.3830
 6382TIP3   OH240636   3.803   1.627  15.338 -0.1036  0.6146  0.1210
 6382TIP3    H140637   3.869   1.605  15.273  0.5548  2.9404 -0.0881
 6382TIP3    H240638   3.734   1.671  15.288 -1.5652 -1.1870  0.4375
 6383TIP3   OH240639   1.859   2.472  13.301  0.2679 -0.6818  0.3081
 6383TIP3    H140640   1.833   2.385  13.270 -0.7638  0.2193 -1.5049
 6383TIP3    H240641   1.855   2.466  13.397 -2.0208 -1.9729  0.1822
 6384TIP3   OH240642   1.990   0.584  13.690 -0.2320 -0.0324 -0.6675
 6384TIP3    H140643   2.069   0.626  13.657  0.7982 -1.4960 -0.1619
 6384TIP3    H240644   1.988   0.606  13.784  0.7610 -1.7036 -0.2181
 6385TIP3   OH240645   5.925   2.625  13.778  0.2475 -0.1469  0.5610
 6385TIP3    H140646   5.993   2.634  13.845  1.6563 -0.5649 -0.7543
 6385TIP3    H240647   5.878   2.546  13.802  0.0210  0.3055  1.6516
 6386TIP3   OH240648   1.430   2.096  16.342  0.3773  0.2133  0.1313
 6386TIP3    H140649   1.365   2.032  16.312 -0.1870  0.9698 -0.2875
 6386TIP3    H240650   1.404   2.115  16.432  0.1155  0.3915  0.0193
 6387TIP3   OH240651   2.573   4.014   4.781  0.2909 -0.8125  0.3537
 6387TIP3    H140652   2.620   3.976   4.707 -1.9153  2.7655 -3.2562
 6387TIP3    H240653   2.497   4.057   4.743 -1.1179  1.2553  4.7552
 6388TIP3   OH240654   2.186   0.210  12.279 -0.4318  0.3370  0.8511
 6388TIP3    H140655   2.209   0.238  12.367 -0.3331 -1.0553  1.3013
 6388TIP3    H240656   2.107   0.158  12.290 -2.0265  2.3783 -0.2609
 6389TIP3   OH240657   1.935   5.111  17.171  0.4745 -0.2515  0.0761
 6389TIP3    H140658   1.909   5.171  17.241 -1.2427 -0.6447 -0.1770
 6389TIP3    H240659   1.987   5.044  17.215 -0.7732 -0.6205  1.0472
 6390TIP3   OH240660   2.449   5.252   5.046 -0.3171  0.2361 -0.0008
 6390TIP3    H140661   2.440   5.323   4.982 -2.0779  0.4322  0.4388
 6390TIP3    H240662   2.459   5.173   4.992  1.1857  0.7077 -0.4859
 6391TIP3   OH240663   2.495   0.811  15.682 -0.3520 -0.1111 -0.0959
 6391TIP3    H140664   2.430   0.815  15.752 -0.5064 -1.9171 -0.1008
 6391TIP3    H240665   2.572   0.854  15.718 -0.9923  0.5565  0.5186
 6392TIP3   OH240666   1.402   1.416  11.881 -0.0012 -0.1762 -0.0933
 6392TIP3    H140667   1.342   1.411  11.955 -1.7078 -0.5286 -1.4350
 6392TIP3    H240668   1.359   1.366  11.812  1.8751 -0.4607 -1.1242
 6393TIP3   OH240669   3.241   6.012  13.364 -0.2153 -0.3547  0.1554
 6393TIP3    H140670   3.313   6.010  13.427 -0.7772 -0.4268  0.7963
 6393TIP3    H240671   3.208   5.922  13.361 -1.6459  0.0946  1.4642
 6394TIP3   OH240672   2.714   1.646   5.566 -0.2845  0.1843  0.8046
 6394TIP3    H140673   2.624   1.667   5.590 -0.4825 -0.4209  0.5880
 6394TIP3    H240674   2.742   1.719   5.511 -1.6354 -1.0193 -1.6158
 6395TIP3   OH240675   1.942   6.264  11.482  0.5178  0.0273  0.8018
 6395TIP3    H140676   1.979   6.341  11.526  1.5523 -1.3662  2.5271
 6395TIP3    H240677   2.015   6.226  11.434  0.4272 -0.7209  1.2370
 6396TIP3   OH240678   2.006   1.619   1.501 -0.0271 -0.1871 -0.5683
 6396TIP3    H140679   1.977   1.710   1.497  1.9930  0.4855 -0.8516
 6396TIP3    H240680   2.088   1.622   1.550 -1.2060 -2.2344  1.7313
 6397TIP3   OH240681   2.406   3.364   4.782  0.0291  0.0229  0.0386
 6397TIP3    H140682   2.365   3.306   4.847 -0.0584 -0.8889 -0.8067
 6397TIP3    H240683   2.332   3.406   4.738  0.0986  1.0550  0.8740
 6398TIP3   OH240684   3.993   5.101   4.798 -0.0232  0.0708  0.0302
 6398TIP3    H140685   4.058   5.131   4.862 -0.2093 -1.6804  1.1263
 6398TIP3    H240686   3.909   5.126   4.836 -0.1049 -0.4046  0.1748
 6399TIP3   OH240687   6.768   5.396  14.881  0.3008 -0.0458  0.0281
 6399TIP3    H140688   6.816   5.470  14.845  1.7664 -0.6738  0.5910
 6399TIP3    H240689   6.813   5.376  14.963 -0.8978 -0.7225  0.5440
 6400TIP3   OH240690   2.419   2.282   0.610 -0.3342 -0.1011 -0.4504
 6400TIP3    H140691   2.510   2.268   0.638  1.0133  2.6612 -2.9053
 6400TIP3    H240692   2.410   2.229   0.531 -0.6401  0.1948 -0.6120
 6401TIP3   OH240693   3.310   5.331  15.101  0.1300  0.0037 -0.1418
 6401TIP3    H140694   3.385   5.272  15.091  0.5888  0.3083  1.2459
 6401TIP3    H240695   3.234   5.272  15.104  0.6563 -0.6880  2.2016
 6402TIP3   OH240696   5.831   4.612  15.136 -0.0732  0.5539  0.2334
 6402TIP3    H140697   5.818   4.649  15.223  0.1114  0.4812  0.2912
 6402TIP3    H240698   5.742   4.591  15.106 -0.1666  0.9278  0.2490
 6403TIP3   OH240699   2.825   2.328   4.408 -0.5786 -0.2067 -0.1982
 6403TIP3    H140700   2.743   2.375   4.390 -1.1719 -1.4558 -0.8814
 6403TIP3    H240701   2.827   2.319   4.503 -1.4753 -0.5745 -0.2086
 6404TIP3   OH240702   0.739   6.297  10.751  0.4692 -0.4058 -0.0988
 6404TIP3    H140703   0.807   6.263  10.809  1.6764  0.3720 -1.0175
 6404TIP3    H240704   0.776   6.287  10.663  1.0078  3.3797 -0.4474
 6405TIP3   OH240705   2.187   2.458   4.523  0.2649 -0.4800  0.1734
 6405TIP3    H140706   2.230   2.503   4.450  1.1139 -0.1450  0.8752
 6405TIP3    H240707   2.192   2.520   4.596 -1.2280 -0.5096  0.3346
 6406TIP3   OH240708   2.202   6.820  13.726 -0.3578  0.6757  0.4346
 6406TIP3    H140709   2.297   6.811  13.715 -0.2658  1.8795  0.1238
 6406TIP3    H240710   2.167   6.822  13.637 -0.6045  0.8841  0.5338
 6407TIP3   OH240711   1.101   1.180  12.150  0.2276  0.3304 -0.9156
 6407TIP3    H140712   1.133   1.154  12.236  0.6328 -0.5814 -1.3212
 6407TIP3    H240713   1.152   1.258  12.127  1.9459 -0.8794 -1.3897
 6408TIP3   OH240714   3.419   0.514   0.656  0.0928 -0.4089 -0.1874
 6408TIP3    H140715   3.449   0.515   0.747 -1.6295  0.4231  0.4044
 6408TIP3    H240716   3.485   0.565   0.608  0.1344  0.5901  0.8992
 6409TIP3   OH240717   0.220   4.315  14.188  0.2429  0.0512  0.3437
 6409TIP3    H140718   0.297   4.308  14.133  0.5911  0.2283  0.7971
 6409TIP3    H240719   0.198   4.408  14.188  0.9923  0.2490  1.4855
 6410TIP3   OH240720   4.451   3.899  11.861  0.3062 -0.2111  0.3234
 6410TIP3    H140721   4.425   3.807  11.866  0.0143 -0.1015  0.9506
 6410TIP3    H240722   4.453   3.918  11.767  0.9187 -1.0028  0.1547
 6411TIP3   OH240723   4.820   5.579   3.090 -0.6884 -0.0778 -0.4818
 6411TIP3    H140724   4.787   5.616   3.009  0.1240 -0.3684 -0.9619
 6411TIP3    H240725   4.816   5.484   3.076 -0.7884 -0.1363 -0.0776
 6412TIP3   OH240726   3.656   3.744  16.405 -0.0654  0.4583 -0.1184
 6412TIP3    H140727   3.652   3.761  16.499  0.8006  0.4558 -0.0740
 6412TIP3    H240728   3.657   3.830  16.364 -2.8611  0.5112 -0.2847
 6413TIP3   OH240729   6.688   5.498   3.982  0.7976  0.5096 -0.4607
 6413TIP3    H140730   6.630   5.422   3.983  1.5626 -0.0857 -0.4171
 6413TIP3    H240731   6.689   5.529   4.073  1.2896 -0.0553 -0.2713
 6414TIP3   OH240732   1.740   6.651   5.987  0.3684  0.1915  0.0286
 6414TIP3    H140733   1.693   6.673   5.906 -0.8799 -2.6373 -0.1592
 6414TIP3    H240734   1.673   6.610   6.043  1.8186 -0.5469  1.3028
 6415TIP3   OH240735   3.603   1.893   6.112  0.2032 -0.1275 -0.6330
 6415TIP3    H140736   3.549   1.972   6.101 -0.8564 -0.6139  0.6744
 6415TIP3    H240737   3.571   1.855   6.194  0.9389 -1.7288 -1.0661
 6416TIP3   OH240738   1.338   6.073  15.813 -0.0572 -0.0059 -0.3094
 6416TIP3    H140739   1.264   6.077  15.874  1.2192  0.7221  1.2741
 6416TIP3    H240740   1.366   5.981  15.816  0.0156  0.0287  0.2511
 6417TIP3   OH240741   5.521   4.880  11.815  0.2417  0.7784  0.7777
 6417TIP3    H140742   5.554   4.816  11.878 -0.2345  0.1413  0.3966
 6417TIP3    H240743   5.599   4.914  11.772  0.4459 -1.8783 -1.2468
 6418TIP3   OH240744   5.401   4.121   3.287  0.3628 -0.0143 -0.1584
 6418TIP3    H140745   5.399   4.076   3.203 -1.3775  1.2287 -0.8383
 6418TIP3    H240746   5.331   4.080   3.338 -0.0007  0.6410 -0.1138
 6419TIP3   OH240747   0.340   3.860  12.007  0.0461  0.1191 -0.4792
 6419TIP3    H140748   0.306   3.775  12.036 -0.7434  0.3985 -0.5704
 6419TIP3    H240749   0.299   3.874  11.921  0.3892  0.4665 -0.5897
 6420TIP3   OH240750   4.816   4.633   4.513 -0.4384  0.1017  0.3949
 6420TIP3    H140751   4.837   4.726   4.517 -1.2907  0.3241 -0.0811
 6420TIP3    H240752   4.818   4.604   4.604 -2.7476  1.1872  0.8559
 6421TIP3   OH240753   2.793   4.297   5.375  0.0510 -0.5309  0.1773
 6421TIP3    H140754   2.723   4.236   5.350  0.7549 -1.0597 -0.5366
 6421TIP3    H240755   2.826   4.331   5.292  0.0222  0.4319  0.5494
 6422TIP3   OH240756   2.179   3.599  11.385  0.5284  0.3317  0.2589
 6422TIP3    H140757   2.142   3.606  11.297  0.1834 -0.6746  0.3190
 6422TIP3    H240758   2.268   3.634  11.376  0.6235 -0.0879 -0.5749
 6423TIP3   OH240759   3.925   6.568   1.656  0.3222 -0.0294 -0.0970
 6423TIP3    H140760   3.842   6.536   1.691  0.4069  1.3175  1.4439
 6423TIP3    H240761   3.990   6.504   1.686 -0.0667 -0.7961 -0.8506
 6424TIP3   OH240762   4.659   0.338   0.703  0.4688 -0.0727 -0.2905
 6424TIP3    H140763   4.572   0.374   0.688 -0.1121 -1.8303 -1.3953
 6424TIP3    H240764   4.717   0.414   0.697 -0.9099  1.0303 -0.1322
 6425TIP3   OH240765   0.571   2.549  16.738  0.2148 -0.1076  0.0216
 6425TIP3    H140766   0.555   2.627  16.686 -0.8525 -0.4186 -0.1355
 6425TIP3    H240767   0.547   2.476  16.681 -1.9556 -0.4300  1.2282
 6426TIP3   OH240768   4.840   6.311  15.154 -0.6634  0.2051 -0.6121
 6426TIP3    H140769   4.830   6.406  15.159  0.8450  0.3732 -0.2206
 6426TIP3    H240770   4.890   6.288  15.233 -1.9365 -1.0674 -0.1350
 6427TIP3   OH240771   5.823   3.162  15.852 -0.2413  0.3891  0.1218
 6427TIP3    H140772   5.904   3.191  15.810  0.2289  0.8618  1.3334
 6427TIP3    H240773   5.800   3.082  15.804  1.5470 -0.3866  0.4655
 6428TIP3   OH240774   0.909   2.610  11.964 -0.3229 -0.1187  0.7559
 6428TIP3    H140775   0.813   2.612  11.961 -0.3158  0.2494  0.7912
 6428TIP3    H240776   0.932   2.674  12.031  0.0297  1.3576 -0.7105
 6429TIP3   OH240777   2.785   0.650  11.678  0.2858 -0.4867  0.4836
 6429TIP3    H140778   2.702   0.621  11.641  0.2103  0.2165  0.0840
 6429TIP3    H240779   2.762   0.689  11.762  0.3791 -1.4884  0.9905
 6430TIP3   OH240780   5.635   0.343  15.720 -0.7337 -0.2791  0.5311
 6430TIP3    H140781   5.705   0.298  15.672 -0.4951  1.0096 -0.3697
 6430TIP3    H240782   5.555   0.304  15.686 -0.5142 -0.4301  0.1784
 6431TIP3   OH240783   4.199   3.660  11.564  0.4895 -1.0128 -0.1439
 6431TIP3    H140784   4.164   3.575  11.540  0.0287 -0.8410 -0.0830
 6431TIP3    H240785   4.182   3.667  11.658  1.7394 -1.4260  0.1331
 6432TIP3   OH240786   1.250   2.254   5.211 -0.4118  0.6112  0.5442
 6432TIP3    H140787   1.258   2.227   5.303  3.2844 -0.4999  0.0439
 6432TIP3    H240788   1.286   2.342   5.209  1.0959  0.0194 -0.0157
 6433TIP3   OH240789   1.877   4.100   1.273  0.0938 -0.6847 -0.5047
 6433TIP3    H140790   1.785   4.122   1.261  0.3837  0.2611 -1.1007
 6433TIP3    H240791   1.905   4.151   1.348  0.2770 -0.5291 -0.6777
 6434TIP3   OH240792   2.407   2.885   5.200 -0.1008  0.6058  0.6671
 6434TIP3    H140793   2.478   2.944   5.176  2.1731 -2.6261 -1.2971
 6434TIP3    H240794   2.343   2.894   5.129 -1.3758  2.8274  1.9687
 6435TIP3   OH240795   2.368   3.967  16.850 -0.3812  0.2141 -0.0564
 6435TIP3    H140796   2.407   3.947  16.765  1.4801 -0.9086  0.9963
 6435TIP3    H240797   2.418   3.915  16.912 -1.9336  0.7270  1.7122
 6436TIP3   OH240798   4.345   5.735  11.659 -0.4289 -0.0152 -0.0788
 6436TIP3    H140799   4.386   5.820  11.673 -0.2491  0.3246 -2.1981
 6436TIP3    H240800   4.418   5.675  11.643 -0.4762 -0.9067  2.5628
 6437TIP3   OH240801   5.962   3.989  14.834  0.0605 -0.1935  0.4916
 6437TIP3    H140802   5.936   3.967  14.923 -1.0282 -1.3728 -0.0828
 6437TIP3    H240803   6.057   3.977  14.832  0.0340 -0.5547  1.3728
 6438TIP3   OH240804   1.250   5.346   1.872 -0.3221  0.9202 -0.3851
 6438TIP3    H140805   1.308   5.408   1.917 -1.1561  0.4687  1.3995
 6438TIP3    H240806   1.228   5.281   1.939 -1.5706  0.1595 -1.4849
 6439TIP3   OH240807   1.733   6.386  16.679  0.3637  0.5164  0.3370
 6439TIP3    H140808   1.638   6.400  16.680  0.1881 -0.5749  1.5555
 6439TIP3    H240809   1.759   6.392  16.771  1.6291  1.6522 -0.0674
 6440TIP3   OH240810   2.648   1.653  15.447  0.4746  0.2400 -0.2589
 6440TIP3    H140811   2.627   1.689  15.361 -0.4562 -0.5980 -0.4039
 6440TIP3    H240812   2.628   1.723  15.509 -0.1716  0.3720 -0.6188
 6441TIP3   OH240813   6.281   3.123  12.843 -0.0434 -0.0244  0.6283
 6441TIP3    H140814   6.269   3.079  12.759 -0.6518  2.2285 -0.5729
 6441TIP3    H240815   6.193   3.122  12.882 -0.3722  1.1452 -0.0078
 6442TIP3   OH240816   3.796   4.655  13.388 -0.1612  0.1649 -0.6715
 6442TIP3    H140817   3.817   4.638  13.296 -2.7726 -1.2900 -1.0957
 6442TIP3    H240818   3.708   4.692  13.387 -0.6137 -0.7114  1.2573
 6443TIP3   OH240819   0.225   4.833  15.413  0.2683  0.8536 -0.5154
 6443TIP3    H140820   0.224   4.746  15.452  1.3545  1.2192  0.3974
 6443TIP3    H240821   0.166   4.885  15.467  0.6868  1.0099 -0.1970
 6444TIP3   OH240822   6.469   1.832  14.017  0.0669  0.1979 -0.0579
 6444TIP3    H140823   6.374   1.823  14.011  0.1670  0.1679 -2.0121
 6444TIP3    H240824   6.490   1.907  13.962  1.0949  0.8883  1.2259
 6445TIP3   OH240825   5.190   3.469  13.344 -0.0090 -0.0269  0.5159
 6445TIP3    H140826   5.158   3.450  13.256 -0.5489  0.9373  0.4878
 6445TIP3    H240827   5.128   3.424  13.402 -0.5547  0.5981  0.4280
 6446TIP3   OH240828   4.486   6.414  15.772 -0.0612 -0.1489  0.0725
 6446TIP3    H140829   4.424   6.467  15.821 -0.7481 -0.5537 -0.3391
 6446TIP3    H240830   4.492   6.332  15.822  1.1855  0.3811  0.8439
 6447TIP3   OH240831   2.044   4.655   4.367 -0.3181 -0.3497  0.1869
 6447TIP3    H140832   2.031   4.560   4.365 -0.9811 -0.2913  1.2050
 6447TIP3    H240833   1.956   4.692   4.364 -0.1276  0.2031  0.9549
 6448TIP3   OH240834   0.374   2.304   2.909  0.1857 -0.5075  0.5815
 6448TIP3    H140835   0.403   2.275   2.996  2.5038  1.1155  0.4350
 6448TIP3    H240836   0.420   2.246   2.848 -0.8686 -1.1648  0.3783
 6449TIP3   OH240837   0.129   1.315   5.053 -0.5153 -0.2291 -0.4840
 6449TIP3    H140838   0.064   1.361   5.107  2.0688  1.3903  1.4855
 6449TIP3    H240839   0.106   1.223   5.061 -0.9256  0.0506  2.5572
 6450TIP3   OH240840   2.750   1.928   0.582  0.0260  0.9626 -0.4294
 6450TIP3    H140841   2.694   1.880   0.522  1.4260 -0.0465 -0.9772
 6450TIP3    H240842   2.695   1.946   0.658 -1.3237  0.9238 -1.3757
 6451TIP3   OH240843   5.730   0.958  15.106  0.5393 -0.5449  0.3421
 6451TIP3    H140844   5.763   0.938  15.194  0.4015 -0.5838  0.3865
 6451TIP3    H240845   5.808   0.972  15.053  0.6749 -1.9223  0.1333
 6452TIP3   OH240846   1.823   4.457   1.389  0.1457  0.3818  0.1543
 6452TIP3    H140847   1.730   4.445   1.405 -0.0741  1.5271 -0.1758
 6452TIP3    H240848   1.830   4.466   1.293  1.0088 -2.8723 -0.1891
 6453TIP3   OH240849   1.871   0.486   5.300  0.5778 -0.1290  0.0990
 6453TIP3    H140850   1.869   0.409   5.357 -0.0298 -0.4806 -0.3945
 6453TIP3    H240851   1.964   0.496   5.277  0.4733 -1.6451 -1.0904
 6454TIP3   OH240852   6.290   4.410  13.822  0.7023  0.0325  0.2850
 6454TIP3    H140853   6.376   4.444  13.849 -0.5621  3.5759  0.3316
 6454TIP3    H240854   6.227   4.468  13.865 -1.6799 -1.0343 -1.5613
 6455TIP3   OH240855   0.393   4.758   3.918 -0.1932 -0.7345 -0.7177
 6455TIP3    H140856   0.433   4.746   3.832 -0.4648  0.1878 -0.9859
 6455TIP3    H240857   0.309   4.799   3.900 -0.5203 -1.0835 -0.0447
 6456TIP3   OH240858   6.618   4.246   2.923 -0.3985 -0.5953  0.1264
 6456TIP3    H140859   6.666   4.198   2.991 -0.5950 -0.1469  0.5901
 6456TIP3    H240860   6.569   4.178   2.876  0.9944 -1.1210 -0.6253
 6457TIP3   OH240861   1.912   0.107  12.320  0.2282 -0.2649  0.3779
 6457TIP3    H140862   1.844   0.140  12.379  1.0539  0.9144  0.7060
 6457TIP3    H240863   1.921   0.015  12.343  0.8019  0.2448  2.4144
 6458TIP3   OH240864   4.728   5.360  14.877 -0.2750 -0.1140  0.0740
 6458TIP3    H140865   4.817   5.390  14.859 -0.1435 -0.6403 -0.1570
 6458TIP3    H240866   4.735   5.312  14.959  0.1821 -2.4476 -1.2525
 6459TIP3   OH240867   4.046   2.519   0.807 -0.1587 -0.1812 -0.2035
 6459TIP3    H140868   3.961   2.499   0.847  1.1437 -1.1935  2.3169
 6459TIP3    H240869   4.093   2.435   0.808  1.1573  0.5194 -0.7921
 6460TIP3   OH240870   4.072   2.035   1.047  0.1591 -0.2123 -0.1310
 6460TIP3    H140871   4.117   1.951   1.038  0.4635  0.0632 -1.4699
 6460TIP3    H240872   4.113   2.076   1.124  0.8086 -0.8136 -0.1459
 6461TIP3   OH240873   0.682   5.328   2.193 -0.7045  0.3080 -0.1798
 6461TIP3    H140874   0.606   5.310   2.248  0.5644 -1.8997  0.9915
 6461TIP3    H240875   0.757   5.301   2.246  0.7701  0.7191 -1.9544
 6462TIP3   OH240876   5.160   1.040  15.145 -0.1763 -0.1963  0.3062
 6462TIP3    H140877   5.249   1.042  15.181 -0.2786 -1.0159  0.6110
 6462TIP3    H240878   5.119   1.119  15.182  0.0498 -0.4539  1.1382
 6463TIP3   OH240879   6.299   1.680   3.814 -0.5059  0.4057 -0.2931
 6463TIP3    H140880   6.334   1.726   3.890 -1.7118 -0.8340  1.0709
 6463TIP3    H240881   6.337   1.592   3.820 -1.6488 -0.1027 -0.3694
 6464TIP3   OH240882   0.278   2.037   1.691 -0.3190  0.1638  0.1538
 6464TIP3    H140883   0.332   2.114   1.675  0.8041 -0.9841 -1.8582
 6464TIP3    H240884   0.225   2.028   1.613  0.1201 -1.5347  0.0185
 6465TIP3   OH240885   6.776   3.845   3.381  0.1038 -0.5414  0.1914
 6465TIP3    H140886   6.750   3.757   3.353 -1.2942 -0.4024  0.9597
 6465TIP3    H240887   6.697   3.882   3.421  1.0930  0.5116  1.2404
 6466TIP3   OH240888   2.908   6.703   0.174 -0.5252 -0.4412 -0.5379
 6466TIP3    H140889   2.938   6.634   0.116 -0.6674 -0.9582 -0.0104
 6466TIP3    H240890   2.919   6.667   0.262 -2.7914 -0.7159 -0.3037
 6467TIP3   OH240891   2.359   0.691  15.455 -0.3146  0.3276 -0.0960
 6467TIP3    H140892   2.383   0.746  15.529 -0.6980  0.8941 -0.3815
 6467TIP3    H240893   2.358   0.751  15.380 -0.4376 -0.1314 -0.4684
 6468TIP3   OH240894   2.894   6.789   0.710  0.5266 -0.2617 -0.5483
 6468TIP3    H140895   2.863   6.782   0.800  0.0548  1.0629 -0.5938
 6468TIP3    H240896   2.816   6.779   0.656  0.2734  1.9230 -0.6924
 6469TIP3   OH240897   0.865   6.022  14.890 -0.1965 -0.2414  0.1765
 6469TIP3    H140898   0.820   5.977  14.818  0.0096  0.0263 -0.1273
 6469TIP3    H240899   0.824   6.109  14.893  1.2360  0.5317 -1.0576
 6470TIP3   OH240900   3.148   2.430   3.823 -0.6215 -0.2338  0.1949
 6470TIP3    H140901   3.108   2.436   3.736  0.6155  0.1631 -0.3579
 6470TIP3    H240902   3.177   2.339   3.830 -2.9510 -0.9852  1.2380
 6471TIP3   OH240903   4.138   6.701  10.979 -0.4295 -0.5001 -0.1430
 6471TIP3    H140904   4.175   6.702  10.891  1.5956  0.9597  0.6430
 6471TIP3    H240905   4.209   6.669  11.035 -1.2574 -0.2561  1.1020
 6472TIP3   OH240906   0.956   4.328  16.320 -0.1503  0.2592  0.4512
 6472TIP3    H140907   0.871   4.287  16.327  0.6031 -1.3513  0.5195
 6472TIP3    H240908   0.964   4.353  16.228 -0.5566  0.1264  0.3829
 6473TIP3   OH240909   1.990   0.777  12.361 -0.5055  0.3805  0.3780
 6473TIP3    H140910   1.995   0.827  12.279 -0.1750 -0.2505  0.0007
 6473TIP3    H240911   2.019   0.838  12.428  1.9169  0.1467 -0.3353
 6474TIP3   OH240912   6.210   4.387   3.760  0.0272  0.0549  0.3155
 6474TIP3    H140913   6.247   4.388   3.671 -1.0223 -1.0556 -0.1728
 6474TIP3    H240914   6.235   4.302   3.796 -0.6153 -0.0296  0.5898
 6475TIP3   OH240915   3.323   0.092  15.347  0.5033 -0.1780  0.4468
 6475TIP3    H140916   3.327   0.182  15.379  1.3136 -0.1890  0.4035
 6475TIP3    H240917   3.389   0.046  15.399 -1.9100 -1.4590  2.5980
 6476TIP3   OH240918   3.361   3.406   5.167 -0.4837  0.2111 -0.2972
 6476TIP3    H140919   3.413   3.331   5.138  0.0340  0.3409  0.2792
 6476TIP3    H240920   3.412   3.444   5.239 -0.1620  1.8004 -1.3198
 6477TIP3   OH240921   5.675   0.538  11.405 -0.1581  0.1674 -0.3217
 6477TIP3    H140922   5.754   0.490  11.377 -0.5286 -0.9325  0.4569
 6477TIP3    H240923   5.614   0.529  11.331  0.0232  0.0312 -0.4565
 6478TIP3   OH240924   5.521   2.662  15.710 -0.5500  0.4104 -0.2819
 6478TIP3    H140925   5.548   2.750  15.684 -0.1535  0.1978 -0.5950
 6478TIP3    H240926   5.495   2.620  15.629  2.0328 -0.7329 -0.6009
 6479TIP3   OH240927   6.617   1.068  13.012 -0.3822 -0.0127 -0.3473
 6479TIP3    H140928   6.563   1.135  12.969  0.3528  0.2774 -0.8321
 6479TIP3    H240929   6.679   1.040  12.944 -1.1267 -1.7179 -0.3855
 6480TIP3   OH240930   1.081   5.375   4.325  0.2769 -0.0677 -0.5396
 6480TIP3    H140931   1.032   5.451   4.355 -0.4344  0.2812 -2.4282
 6480TIP3    H240932   1.047   5.358   4.237  0.1962 -2.7828 -0.0658
 6481TIP3   OH240933   1.527   1.034  11.854  0.1627  0.2543 -0.1152
 6481TIP3    H140934   1.487   1.009  11.771  0.0477 -1.2102  0.3590
 6481TIP3    H240935   1.452   1.054  11.911  0.2440  1.3661 -0.3772
 6482TIP3   OH240936   1.757   5.909   1.588  0.3195  0.2316  0.3414
 6482TIP3    H140937   1.811   5.947   1.657 -0.1175  0.7362  0.4053
 6482TIP3    H240938   1.699   5.848   1.634 -0.0712  0.6765  0.4383
 6483TIP3   OH240939   0.129   1.085   0.150 -0.2603 -0.2635 -0.6595
 6483TIP3    H140940   0.163   0.997   0.131  0.1331 -0.2320 -0.1337
 6483TIP3    H240941   0.198   1.126   0.201  0.6550  1.2247 -2.9104
 6484TIP3   OH240942   1.135   0.444  16.973  0.1661 -0.1615  0.2380
 6484TIP3    H140943   1.207   0.507  16.961 -0.0587  0.1009  0.2637
 6484TIP3    H240944   1.176   0.370  17.018  0.3265  0.1814  0.6681
 6485TIP3   OH240945   6.818   3.676   1.225  0.1422  0.1657  0.0420
 6485TIP3    H140946   6.887   3.709   1.282  2.7724 -1.2979 -2.0607
 6485TIP3    H240947   6.805   3.586   1.252 -0.8920  0.3844  0.3188
 6486TIP3   OH240948   4.535   5.435  13.213  0.5102  0.3737  0.2079
 6486TIP3    H140949   4.556   5.528  13.211 -0.7927  0.6759  0.0704
 6486TIP3    H240950   4.472   5.426  13.285 -0.3102 -0.1818 -0.5635
 6487TIP3   OH240951   6.176   2.393  14.640  0.0602  0.5178  0.6172
 6487TIP3    H140952   6.229   2.385  14.561  0.4319 -1.0159  0.9771
 6487TIP3    H240953   6.147   2.303  14.658  0.1114  0.8039  2.2971
 6488TIP3   OH240954   4.610   4.183   3.058 -0.2845  0.0362  0.1609
 6488TIP3    H140955   4.683   4.206   3.000  1.2344 -0.4548  1.7668
 6488TIP3    H240956   4.577   4.100   3.024  1.9756 -1.3541  1.1213
 6489TIP3   OH240957   6.186   4.626  16.131 -0.3382 -0.1029  0.2427
 6489TIP3    H140958   6.190   4.721  16.123 -1.8869 -0.0413 -0.1231
 6489TIP3    H240959   6.109   4.610  16.185  0.1134 -1.1430  0.5995
 6490TIP3   OH240960   6.119   2.595   3.795 -0.2004 -0.2033 -0.6350
 6490TIP3    H140961   6.051   2.657   3.766  0.3196  0.3237 -0.7443
 6490TIP3    H240962   6.129   2.613   3.888 -0.7223 -0.7899 -0.4539
 6491TIP3   OH240963   4.395   3.869  11.600 -0.0323 -0.5907 -0.0965
 6491TIP3    H140964   4.416   3.931  11.531 -3.7172  0.6887 -0.2837
 6491TIP3    H240965   4.324   3.816  11.564 -1.0865 -0.8400  2.1636
 6492TIP3   OH240966   3.457   1.848  12.279 -0.2719  0.2795  0.4732
 6492TIP3    H140967   3.416   1.919  12.329 -0.1572  0.9090 -0.3028
 6492TIP3    H240968   3.449   1.771  12.336 -1.4336  0.6522  0.8556
 6493TIP3   OH240969   4.422   5.392   0.619  0.8095 -0.2834 -0.2649
 6493TIP3    H140970   4.411   5.461   0.554 -0.5213  0.8552  1.0788
 6493TIP3    H240971   4.509   5.357   0.603  0.6422  0.1688 -2.4226
 6494TIP3   OH240972   6.296   1.473  15.319  0.7784 -0.8134  1.0552
 6494TIP3    H140973   6.331   1.493  15.232 -1.3050  1.1638  0.5907
 6494TIP3    H240974   6.333   1.541  15.376  0.2533 -0.6407  1.1987
 6495TIP3   OH240975   0.228   4.613   4.195 -0.1189  0.0963 -0.5426
 6495TIP3    H140976   0.193   4.552   4.260  0.0794  0.0453 -0.4844
 6495TIP3    H240977   0.173   4.600   4.118 -0.8668  0.7139 -0.1374
 6496TIP3   OH240978   4.148   2.625   3.558  0.5426 -0.4564 -0.1766
 6496TIP3    H140979   4.208   2.573   3.611  1.0110 -0.7584 -0.9796
 6496TIP3    H240980   4.205   2.681   3.505  0.0699  0.2414  0.0293
 6497TIP3   OH240981   6.426   4.589   3.185  0.3714  0.4223 -0.6930
 6497TIP3    H140982   6.410   4.585   3.279  0.6141  1.9810 -0.5467
 6497TIP3    H240983   6.434   4.498   3.157 -0.7648 -0.1077  0.6022
 6498TIP3   OH240984   3.161   4.000  11.702  0.3775 -0.8392  0.5535
 6498TIP3    H140985   3.108   3.921  11.703 -0.0021 -0.5985  0.2049
 6498TIP3    H240986   3.207   3.997  11.618  1.0930 -1.1549  0.9494
 6499TIP3   OH240987   4.454   5.111  12.722  0.0609 -0.2951 -0.1571
 6499TIP3    H140988   4.450   5.143  12.811 -1.3953 -2.2951  0.5713
 6499TIP3    H240989   4.364   5.113  12.691  0.3356 -0.9271 -1.0630
 6500TIP3   OH240990   3.611   3.384  13.433 -0.3042  0.4440  0.2599
 6500TIP3    H140991   3.670   3.392  13.507  0.6711  1.0910 -0.5611
 6500TIP3    H240992   3.544   3.322  13.462  1.8626 -1.9316  0.5270
 6501TIP3   OH240993   1.197   0.654   0.869 -0.3601  0.1478 -0.3723
 6501TIP3    H140994   1.202   0.592   0.942  0.6214 -0.2603 -0.7653
 6501TIP3    H240995   1.272   0.713   0.882 -2.1952  2.3692  0.9361
 6502TIP3   OH240996   6.747   3.652  16.609  0.2922 -0.2883  0.0440
 6502TIP3    H140997   6.794   3.608  16.680  0.4321 -1.8441 -0.9835
 6502TIP3    H240998   6.789   3.621  16.529 -1.0123  0.0541 -0.8045
 6503TIP3   OH240999   5.596   1.565   1.533 -0.1860  0.5707 -0.5903
 6503TIP3    H141000   5.623   1.503   1.601  1.3031  0.6965 -1.0358
 6503TIP3    H241001   5.627   1.650   1.564 -0.3903  0.7821 -0.9590
 6504TIP3   OH241002   1.853   3.607   5.007 -0.0344 -0.3618 -0.0117
 6504TIP3    H141003   1.765   3.571   4.999  0.0638 -0.9192  1.1915
 6504TIP3    H241004   1.911   3.533   4.988  0.1668 -0.7295  1.8524
 6505TIP3   OH241005   4.361   2.215  11.208  0.0616  0.0175  0.0652
 6505TIP3    H141006   4.288   2.239  11.265  0.0547 -1.5085  0.7560
 6505TIP3    H241007   4.330   2.236  11.120 -1.6432 -1.4600  0.2472
 6506TIP3   OH241008   4.274   0.288  15.589  1.3947 -0.2792  0.2918
 6506TIP3    H141009   4.243   0.365  15.542  0.4810 -0.5098  0.5005
 6506TIP3    H241010   4.321   0.237  15.523  0.6168 -0.3177 -0.2480
 6507TIP3   OH241011   1.838   1.207  12.532  0.1732 -0.4511  0.4204
 6507TIP3    H141012   1.764   1.224  12.590  0.9055  1.7096  0.7684
 6507TIP3    H241013   1.915   1.208  12.589  0.6467 -1.0180 -0.1930
 6508TIP3   OH241014   1.494   2.926   1.416 -0.0580 -0.0340  0.3922
 6508TIP3    H141015   1.550   2.965   1.484 -0.6056 -0.1528  0.9167
 6508TIP3    H241016   1.471   3.000   1.359  1.8956 -0.2384 -0.7596
 6509TIP3   OH241017   3.762   0.026  12.778  0.3817 -0.3378 -0.1853
 6509TIP3    H141018   3.785   0.102  12.725 -1.1348 -0.1142 -0.5897
 6509TIP3    H241019   3.675  -0.000  12.745 -1.0298  0.3103  2.6969
 6510TIP3   OH241020   4.203   5.465   3.761  0.0002 -0.2076 -0.5837
 6510TIP3    H141021   4.133   5.400   3.764 -0.3636  0.1982  1.2177
 6510TIP3    H241022   4.282   5.415   3.785 -0.1041 -0.2026 -0.2168
 6511TIP3   OH241023   1.493   6.705  15.461 -0.3960  0.0420 -0.0609
 6511TIP3    H141024   1.402   6.724  15.485 -0.7494 -0.8558 -0.6375
 6511TIP3    H241025   1.532   6.791  15.444 -0.3843  0.6779  2.7352
 6512TIP3   OH241026   5.673   4.254  15.854 -0.0043  0.3147 -0.2927
 6512TIP3    H141027   5.705   4.244  15.943  1.6064  1.7422 -0.6680
 6512TIP3    H241028   5.597   4.196  15.849  1.6083 -2.1067  1.1008
 6513TIP3   OH241029   0.439   5.268   3.936  0.3099  0.2842 -0.1718
 6513TIP3    H141030   0.416   5.329   3.866  0.4350  0.7087  0.1538
 6513TIP3    H241031   0.529   5.241   3.916 -0.1501 -0.7086 -0.9662
 6514TIP3   OH241032   3.637   4.130  16.812  0.3515  0.2314 -0.2122
 6514TIP3    H141033   3.571   4.104  16.747 -0.3622 -0.9012  0.9372
 6514TIP3    H241034   3.660   4.219  16.787 -0.0707 -0.0888 -1.8896
 6515TIP3   OH241035   0.947   4.994   5.954 -0.5037  0.1860  0.2147
 6515TIP3    H141036   0.859   4.969   5.981 -1.5228 -0.0759 -2.9313
 6515TIP3    H241037   0.986   5.033   6.032 -3.5356  0.7305  1.6092
 6516TIP3   OH241038   4.611   4.967  14.473 -0.5929  0.3949 -0.8458
 6516TIP3    H141039   4.624   5.045  14.419  1.5672  2.1180  1.8786
 6516TIP3    H241040   4.525   4.980  14.514 -0.6447  0.8713 -1.1018
 6517TIP3   OH241041   0.845   4.427  16.089  0.4347 -0.2043  0.2347
 6517TIP3    H141042   0.902   4.362  16.048  0.1836 -0.5244  0.3909
 6517TIP3    H241043   0.762   4.381  16.102 -0.1111  0.4873 -0.6963
 6518TIP3   OH241044   6.373   5.325  16.531 -0.3646 -0.3841 -0.9670
 6518TIP3    H141045   6.285   5.340  16.566  0.2642  0.0603  0.5111
 6518TIP3    H241046   6.362   5.256  16.465 -1.6078 -1.3446  0.1902
 6519TIP3   OH241047   6.474   4.394   1.345 -0.1533  0.2675 -0.1421
 6519TIP3    H141048   6.426   4.364   1.268 -0.8680 -0.6224  0.6120
 6519TIP3    H241049   6.476   4.489   1.337 -3.3801  0.5004  0.4865
 6520TIP3   OH241050   2.806   0.301  11.925 -0.0911  0.0729  0.0091
 6520TIP3    H141051   2.762   0.217  11.939  1.0222 -0.6069 -0.4588
 6520TIP3    H241052   2.738   0.367  11.944 -1.0610 -0.9229  0.1100
 6521TIP3   OH241053   5.398   1.899   4.570  0.7224  0.9983 -0.1448
 6521TIP3    H141054   5.473   1.957   4.587  0.3511  1.2800  0.6227
 6521TIP3    H241055   5.437   1.815   4.546  1.2849  1.1883  0.0815
 6522TIP3   OH241056   6.458   5.330   5.738  0.3994  0.0491  0.3811
 6522TIP3    H141057   6.444   5.423   5.754 -2.2069 -0.6070  2.9604
 6522TIP3    H241058   6.393   5.307   5.671  2.1141  0.3010 -1.4390
 6523TIP3   OH241059   1.267   3.098   0.773  0.4837  0.4959 -0.2264
 6523TIP3    H141060   1.312   3.146   0.703  0.0755  0.7788 -0.2947
 6523TIP3    H241061   1.179   3.083   0.739 -0.0143  1.4599  0.5911
 6524TIP3   OH241062   3.710   6.567  11.199 -0.1157  0.4407  0.2808
 6524TIP3    H141063   3.669   6.482  11.216  0.2272  0.1248 -0.4715
 6524TIP3    H241064   3.769   6.552  11.126 -0.2581  1.3906 -0.0467
 6525TIP3   OH241065   5.907   0.717  11.463  0.4956 -0.0218  0.2266
 6525TIP3    H141066   5.892   0.788  11.400 -0.7293  0.1301  0.6589
 6525TIP3    H241067   5.894   0.637  11.413  0.4367  0.0811  0.0776
 6526TIP3   OH241068   3.257   5.905  16.745 -0.0800 -0.1929  0.5830
 6526TIP3    H141069   3.347   5.904  16.712 -0.5714  0.0244 -0.8426
 6526TIP3    H241070   3.255   5.980  16.806  0.5517  0.1636  0.1769
 6527TIP3   OH241071   4.102   0.449  12.256  0.6448 -0.1527  0.6765
 6527TIP3    H141072   4.127   0.380  12.194  0.6780  0.2947  0.1856
 6527TIP3    H241073   4.059   0.402  12.328  0.7834 -0.6967  0.4128
 6528TIP3   OH241074   6.199   2.812  15.856 -0.2306  0.0116  0.2618
 6528TIP3    H141075   6.239   2.750  15.917 -2.5341  0.8457  2.8213
 6528TIP3    H241076   6.105   2.792  15.859 -0.8662  2.5774 -0.0112
 6529TIP3   OH241077   6.251   6.778   5.194  0.9235  0.1173 -0.2280
 6529TIP3    H141078   6.185   6.832   5.152  1.5217  0.3811 -0.8509
 6529TIP3    H241079   6.274   6.712   5.128 -0.1059 -1.1967  0.6684
 6530TIP3   OH241080   1.610   4.079   6.258 -0.6187  0.3431 -0.2979
 6530TIP3    H141081   1.555   4.143   6.304  0.6240  1.4111 -0.2550
 6530TIP3    H241082   1.652   4.129   6.189 -0.3029 -0.6381 -0.8288
 6531TIP3   OH241083   5.621   6.661   0.496  0.3557 -0.0916  0.7545
 6531TIP3    H141084   5.619   6.634   0.404 -0.2338 -1.3438  1.0963
 6531TIP3    H241085   5.681   6.735   0.499 -0.3672  0.6027 -0.7974
 6532TIP3   OH241086   4.809   5.332  12.314  0.0674  0.8678 -0.2686
 6532TIP3    H141087   4.726   5.375  12.334 -0.6887 -0.4395 -0.4625
 6532TIP3    H241088   4.868   5.358  12.385  0.1330  3.3903 -1.1706
 6533TIP3   OH241089   2.013   5.655   3.344 -0.2462  0.1260  0.4786
 6533TIP3    H141090   2.079   5.686   3.282  1.3294 -1.2591  1.3969
 6533TIP3    H241091   1.936   5.638   3.290  1.0928 -1.1335 -1.1542
 6534TIP3   OH241092   0.592   2.696  11.561  0.0328  0.7615  0.5876
 6534TIP3    H141093   0.497   2.706  11.556  0.1599  1.4146 -1.7648
 6534TIP3    H241094   0.612   2.625  11.500  1.0148  0.2657  1.4616
 6535TIP3   OH241095   5.633   1.687   1.912  0.2572 -0.3449 -0.3201
 6535TIP3    H141096   5.575   1.737   1.970  0.8936  0.3682 -0.2896
 6535TIP3    H241097   5.574   1.625   1.868 -0.2737 -0.7148  0.8764
 6536TIP3   OH241098   0.927   5.579   4.617  0.3536 -0.3760 -0.2710
 6536TIP3    H141099   0.932   5.656   4.561  1.0323 -0.8670 -0.9013
 6536TIP3    H241100   0.838   5.546   4.604  1.1625 -1.7851 -2.8608
 6537TIP3   OH241101   5.194   2.701  13.116  0.0427  0.4556 -0.3292
 6537TIP3    H141102   5.191   2.703  13.211 -0.5214 -0.6309 -0.3035
 6537TIP3    H241103   5.282   2.670  13.096  0.2684  0.9878 -0.1764
 6538TIP3   OH241104   3.778   4.511   4.630 -0.1886  0.0694  0.6786
 6538TIP3    H141105   3.683   4.509   4.640 -0.0522 -0.8635  1.9898
 6538TIP3    H241106   3.812   4.503   4.719  1.1325 -1.4711  0.0801
 6539TIP3   OH241107   0.959   5.265  11.230  0.1080 -0.7137 -0.4699
 6539TIP3    H141108   1.021   5.193  11.237  0.8811  0.0775  1.7454
 6539TIP3    H241109   0.992   5.318  11.158  0.6365 -1.5396 -0.8499
 6540TIP3   OH241110   0.398   6.458   3.574  0.4665 -0.4363 -0.2311
 6540TIP3    H141111   0.316   6.481   3.529 -0.5925  0.0835  1.8545
 6540TIP3    H241112   0.442   6.542   3.587  0.9617 -0.6318 -0.6245
 6541TIP3   OH241113   2.528   2.831   4.271  0.1144 -0.3589  0.8452
 6541TIP3    H141114   2.475   2.911   4.269 -0.5116 -0.7375 -1.8114
 6541TIP3    H241115   2.608   2.854   4.224 -1.3242 -1.9058 -2.8180
 6542TIP3   OH241116   2.100   0.781  11.708  0.0315  0.2408  0.3807
 6542TIP3    H141117   2.082   0.853  11.647 -2.2601  0.3437  1.0794
 6542TIP3    H241118   2.088   0.702  11.654  1.9923  0.3282 -0.2461
 6543TIP3   OH241119   2.420   3.037  13.752  0.6530 -0.2992  0.1293
 6543TIP3    H141120   2.386   2.986  13.678  0.4652 -0.6640  0.4646
 6543TIP3    H241121   2.419   3.128  13.721  0.4026 -0.4281 -0.2494
 6544TIP3   OH241122   2.045   0.851   3.075 -0.7760 -0.3965  0.5023
 6544TIP3    H141123   2.130   0.822   3.043 -0.5490  1.6228 -0.9181
 6544TIP3    H241124   2.060   0.873   3.167  0.4670  0.7160  0.0588
 6545TIP3   OH241125   3.387   0.241   0.683  0.2655 -0.1688  0.9404
 6545TIP3    H141126   3.337   0.317   0.652 -0.9743 -1.1521  0.4685
 6545TIP3    H241127   3.411   0.263   0.773  0.9321  1.2581  0.4539
 6546TIP3   OH241128   3.959   1.670  11.565  0.4850  0.3197 -0.0552
 6546TIP3    H141129   3.911   1.604  11.514  1.8221  1.2932 -2.7851
 6546TIP3    H241130   3.899   1.744  11.570  0.4104  0.2817 -0.3580
 6547TIP3   OH241131   5.316   2.898   3.607  0.1741 -0.6078 -0.0575
 6547TIP3    H141132   5.363   2.841   3.669  0.3611 -1.1893 -0.7179
 6547TIP3    H241133   5.239   2.847   3.582 -0.7509  0.2809  0.8967
 6548TIP3   OH241134   5.063   5.849   1.098  0.3580 -0.8255 -0.0939
 6548TIP3    H141135   5.067   5.860   1.003  0.2794  0.2717  0.0154
 6548TIP3    H241136   5.117   5.772   1.115  0.0517 -1.2815 -1.0617
 6549TIP3   OH241137   0.586   4.772  12.242  0.0009  0.0568 -0.5136
 6549TIP3    H141138   0.540   4.689  12.235  0.6696 -0.3726  0.0058
 6549TIP3    H241139   0.633   4.766  12.325 -1.8824  1.9442  0.8133
 6550TIP3   OH241140   5.880   4.558   3.359  0.4041 -0.3822 -0.4294
 6550TIP3    H141141   5.914   4.618   3.292 -1.1748  1.4929  0.3403
 6550TIP3    H241142   5.791   4.538   3.329  0.8379 -2.2474 -0.5618
 6551TIP3   OH241143   2.641   0.354   0.099 -0.3950 -0.1667 -0.3932
 6551TIP3    H141144   2.548   0.332   0.111 -0.3080 -0.9397 -1.0831
 6551TIP3    H241145   2.688   0.273   0.121  0.1473  0.2988  0.2287
 6552TIP3   OH241146   5.946   1.818   6.679 -0.1872  0.3130  0.3659
 6552TIP3    H141147   6.003   1.825   6.755  0.1696 -0.8237  0.2230
 6552TIP3    H241148   5.924   1.908   6.656 -0.3251  0.6695  1.8305
 6553TIP3   OH241149   4.057   0.568  10.473  0.1234 -0.1833 -0.0093
 6553TIP3    H141150   4.120   0.557  10.402 -0.6575 -1.0264 -0.5924
 6553TIP3    H241151   4.038   0.479  10.503 -2.0567 -0.1304 -0.9998
 6554TIP3   OH241152   6.171   6.394  12.614  0.1525 -0.2197  0.3180
 6554TIP3    H141153   6.175   6.412  12.708  0.0965 -1.3586  0.5481
 6554TIP3    H241154   6.263   6.386  12.587  0.1491 -1.1878  0.5500
 6555TIP3   OH241155   4.618   3.455  11.463  0.1451 -0.3636  0.0071
 6555TIP3    H141156   4.609   3.478  11.371  1.8645 -1.4269 -0.4707
 6555TIP3    H241157   4.610   3.538  11.510  3.0291  0.8177 -1.3923
 6556TIP3   OH241158   4.117   4.224   4.163 -0.8867  0.3302  0.0004
 6556TIP3    H141159   4.073   4.196   4.083 -0.8109  1.1524 -0.3373
 6556TIP3    H241160   4.171   4.298   4.137  1.7017 -1.3681  0.1231
 6557TIP3   OH241161   1.203   5.586  13.440 -0.1529 -0.4933 -1.1054
 6557TIP3    H141162   1.207   5.576  13.345  4.3972 -1.7706 -1.0078
 6557TIP3    H241163   1.142   5.518  13.469 -3.0133  1.0402 -3.0379
 6558TIP3   OH241164   6.098   2.511   2.418 -0.2976 -0.7095 -0.1980
 6558TIP3    H141165   6.136   2.426   2.398 -0.1981 -0.6748 -0.1572
 6558TIP3    H241166   6.037   2.493   2.489  1.4234 -0.3821  1.4565
 6559TIP3   OH241167   0.046   4.815  15.172 -0.2718  0.9398  0.0320
 6559TIP3    H141168   0.131   4.805  15.215  0.1525 -1.5505 -1.2034
 6559TIP3    H241169  -0.011   4.852  15.239  1.2756  0.7232  1.5289
 6560TIP3   OH241170   0.973   0.389  13.784 -0.1846 -0.0287 -0.0494
 6560TIP3    H141171   0.940   0.308  13.825 -2.5832  0.1470 -1.4287
 6560TIP3    H241172   0.971   0.454  13.855  0.8951 -0.9420  0.8471
 6561TIP3   OH241173   1.617   0.236   4.771 -0.1886  0.1696  0.7744
 6561TIP3    H141174   1.595   0.281   4.852  2.7482  0.7051  1.3832
 6561TIP3    H241175   1.694   0.282   4.737 -0.0272 -1.3726 -1.1848
 6562TIP3   OH241176   3.795   5.621  15.242  0.4894  0.1364  0.4214
 6562TIP3    H141177   3.833   5.536  15.221  1.4488  0.6687 -0.0944
 6562TIP3    H241178   3.716   5.627  15.190  1.6484  0.5070 -1.3772
 6563TIP3   OH241179   4.147   6.365  15.898 -0.3938 -0.0264  0.5830
 6563TIP3    H141180   4.155   6.328  15.810  0.1212 -0.7475  0.9225
 6563TIP3    H241181   4.238   6.372  15.929 -0.5271  0.8838  0.7895
 6564TIP3   OH241182   4.925   2.878   4.462 -0.0740  0.4034  0.1459
 6564TIP3    H141183   4.947   2.846   4.550 -1.9779  0.8374  0.8355
 6564TIP3    H241184   4.971   2.962   4.455  2.2073 -0.8169 -0.3511
 6565TIP3   OH241185   2.010   6.052  11.689  0.4517  0.1750 -0.3492
 6565TIP3    H141186   2.046   5.982  11.635 -1.4580  0.3338 -1.9880
 6565TIP3    H241187   1.986   6.120  11.626 -0.1184  1.2005  0.9256
 6566TIP3   OH241188   2.815   4.229   6.702  0.3091  0.0935 -0.6090
 6566TIP3    H141189   2.854   4.155   6.748  0.7735  0.0075 -1.1359
 6566TIP3    H241190   2.863   4.235   6.620 -1.3943 -0.6089 -1.7152
 6567TIP3   OH241191   6.237   1.092  11.724 -0.2576 -0.2368  0.5522
 6567TIP3    H141192   6.165   1.155  11.725  0.1458  0.2184  0.9696
 6567TIP3    H241193   6.194   1.007  11.739 -0.7099  0.0235  0.7562
 6568TIP3   OH241194   2.437   1.947   4.769 -0.2415  0.0884 -0.1527
 6568TIP3    H141195   2.421   2.032   4.809 -0.7127 -0.3363  0.6007
 6568TIP3    H241196   2.384   1.948   4.690 -1.1738  0.0761  0.4505
 6569TIP3   OH241197   2.838   1.442  14.541  0.1904  0.2180  0.3671
 6569TIP3    H141198   2.858   1.384  14.468 -0.8828  0.7603 -0.3836
 6569TIP3    H241199   2.899   1.416  14.610  2.2102  0.6172 -1.1728
 6570TIP3   OH241200   4.684   5.780  15.924  0.2509  0.1611  0.3756
 6570TIP3    H141201   4.612   5.828  15.882 -1.4969 -2.0139  0.6991
 6570TIP3    H241202   4.707   5.833  16.001 -2.1864  0.1461  1.1999
 6571TIP3   OH241203   0.240   0.253  16.966 -0.3817 -0.2532  0.0189
 6571TIP3    H141204   0.156   0.215  16.942 -0.3312 -0.9212  0.8723
 6571TIP3    H241205   0.239   0.257  17.061 -0.3412  1.8282 -0.0154
 6572TIP3   OH241206   3.592   1.204  15.228  0.2044 -0.6093  0.3060
 6572TIP3    H141207   3.610   1.231  15.318  1.2933  0.8770 -0.3127
 6572TIP3    H241208   3.604   1.284  15.176 -0.2803 -1.4566 -1.1838
 6573TIP3   OH241209   2.134   4.078  15.878  0.1083 -0.8169 -0.1781
 6573TIP3    H141210   2.040   4.081  15.898  0.0679 -0.8984 -0.3495
 6573TIP3    H241211   2.166   4.166  15.897 -0.2106 -0.4872 -1.1389
 6574TIP3   OH241212   2.232   3.852  12.989  0.6968  0.2197  0.5751
 6574TIP3    H141213   2.237   3.919  13.057  0.3962 -1.1100  1.9582
 6574TIP3    H241214   2.322   3.840  12.960  0.8747  0.5721  0.9733
 6575TIP3   OH241215   2.138   0.900   0.854 -0.1819 -0.0218 -0.6785
 6575TIP3    H141216   2.199   0.829   0.837 -0.0592 -0.5194  1.4949
 6575TIP3    H241217   2.053   0.857   0.865 -0.0136  0.0353  1.1895
 6576TIP3   OH241218   4.596   3.903   2.980  0.3609  0.0990  0.2514
 6576TIP3    H141219   4.689   3.885   2.968  0.5080 -0.1147  1.6213
 6576TIP3    H241220   4.562   3.827   3.026 -0.7300 -0.3019 -1.1389
 6577TIP3   OH241221   3.065   3.148   2.058  0.2918 -0.0149 -0.2545
 6577TIP3    H141222   3.006   3.190   2.121  0.2794  1.1358 -1.0038
 6577TIP3    H241223   3.034   3.178   1.972  0.0750 -1.8470 -0.8643
 6578TIP3   OH241224   2.932   5.791  14.219  1.0397  0.8488  0.4185
 6578TIP3    H141225   2.895   5.705  14.239 -1.2184  1.4669 -0.8021
 6578TIP3    H241226   2.971   5.780  14.132  1.0640  0.9710  0.4138
 6579TIP3   OH241227   4.756   3.981   5.530 -0.7330  0.4791  0.0646
 6579TIP3    H141228   4.753   4.012   5.621 -1.4444 -0.2564  0.3049
 6579TIP3    H241229   4.848   3.988   5.505 -0.4082  0.0480  1.0781
 6580TIP3   OH241230   0.304   1.623   2.818  0.1592  0.4617  0.1362
 6580TIP3    H141231   0.371   1.652   2.756  0.2219 -0.8224 -0.4173
 6580TIP3    H241232   0.337   1.540   2.853  0.1096  1.1279  1.8921
 6581TIP3   OH241233   1.444   3.728  13.112  0.3423  0.0658 -0.1693
 6581TIP3    H141234   1.407   3.809  13.077  1.3202  0.7840  0.4081
 6581TIP3    H241235   1.515   3.705  13.052  0.3748 -0.1004 -0.0708
 6582TIP3   OH241236   2.988   2.534  13.705 -0.1963 -0.4307  0.1854
 6582TIP3    H141237   3.009   2.440  13.712 -1.2411 -0.7227 -0.3976
 6582TIP3    H241238   2.968   2.547  13.613  0.2542  0.4484  0.2068
 6583TIP3   OH241239   4.203   6.689   2.520  0.0060  0.1013 -0.2557
 6583TIP3    H141240   4.147   6.752   2.566  1.0060  1.2285 -0.5544
 6583TIP3    H241241   4.221   6.621   2.586  0.7152  1.2538  0.7749
 6584TIP3   OH241242   1.861   3.307   0.946 -0.2030  0.5459 -0.3541
 6584TIP3    H141243   1.955   3.294   0.935 -0.3615 -0.6851 -0.4562
 6584TIP3    H241244   1.847   3.304   1.040 -0.1168  0.8924 -0.3311
 6585TIP3   OH241245   3.862   5.599  16.796 -0.1721 -0.6609 -0.1702
 6585TIP3    H141246   3.907   5.568  16.718  3.3031 -0.5259  1.5983
 6585TIP3    H241247   3.774   5.622  16.765  1.9652  2.8311 -4.8275
 6586TIP3   OH241248   5.735   5.097  12.855 -0.2731 -0.8446  0.2630
 6586TIP3    H141249   5.707   5.159  12.922 -1.2266 -2.2251  1.2141
 6586TIP3    H241250   5.787   5.032  12.903  0.8267 -0.7310 -0.7310
 6587TIP3   OH241251   5.765   0.303  16.014  0.0108 -0.3536  0.0871
 6587TIP3    H141252   5.722   0.300  15.929 -1.2926 -0.4273  0.7306
 6587TIP3    H241253   5.719   0.238  16.068  0.8596 -0.3663  0.8356
 6588TIP3   OH241254   0.492   0.330  10.491  0.0696 -0.3666 -0.7868
 6588TIP3    H141255   0.541   0.370  10.419  0.2849 -0.1737 -0.5345
 6588TIP3    H241256   0.541   0.354  10.570 -1.5483  1.5850 -0.3023
 6589TIP3   OH241257   3.435   2.598  14.319 -0.2752 -0.6306 -0.5957
 6589TIP3    H141258   3.406   2.567  14.404  0.7566  0.9027  0.3638
 6589TIP3    H241259   3.354   2.611  14.270 -0.8862 -1.4509  0.1572
 6590TIP3   OH241260   1.112   5.151  16.823  0.1609  1.0355 -0.1267
 6590TIP3    H141261   1.104   5.231  16.875  1.4991  0.1188  1.5895
 6590TIP3    H241262   1.123   5.081  16.888 -0.3159 -0.4683 -1.5974
 6591TIP3   OH241263   1.634   5.747   1.745  0.8508 -0.2205  0.1059
 6591TIP3    H141264   1.607   5.655   1.748  2.2348 -0.6362  0.4204
 6591TIP3    H241265   1.674   5.763   1.831  1.1719  0.4970 -0.1705
 6592TIP3   OH241266   3.189   6.698   6.672  0.1473 -0.3441 -0.2045
 6592TIP3    H141267   3.111   6.678   6.724  0.8712 -0.5851  0.8363
 6592TIP3    H241268   3.204   6.619   6.619  0.1022 -0.5877  0.1415
 6593TIP3   OH241269   4.753   5.250  12.733 -0.3913 -0.1861 -0.3590
 6593TIP3    H141270   4.778   5.161  12.756 -0.6133 -1.1001 -3.2617
 6593TIP3    H241271   4.742   5.248  12.638 -2.3281  2.4719 -0.2935
 6594TIP3   OH241272   5.313   2.718   2.386  0.4737  0.0962 -0.2169
 6594TIP3    H141273   5.315   2.753   2.296 -0.4424  0.4294 -0.1244
 6594TIP3    H241274   5.404   2.721   2.415  0.8338 -0.3378 -1.2561
 6595TIP3   OH241275   4.373   0.934  13.670 -0.0112 -0.7811 -0.6839
 6595TIP3    H141276   4.319   0.966  13.742  1.2108 -1.8580  0.7719
 6595TIP3    H241277   4.463   0.956  13.695  0.3279  0.7402 -2.9270
 6596TIP3   OH241278   3.334   0.083   5.873  0.1076  0.1668 -0.0037
 6596TIP3    H141279   3.341   0.143   5.947  1.8325  0.2732 -0.2083
 6596TIP3    H241280   3.335   0.139   5.796  0.9755 -0.0651 -0.1720
 6597TIP3   OH241281   4.149   0.694   0.326  0.0057 -0.0401  0.0205
 6597TIP3    H141282   4.232   0.670   0.285 -0.2561 -1.1401  0.1163
 6597TIP3    H241283   4.142   0.789   0.311  1.9661  0.3755  1.2641
 6598TIP3   OH241284   0.334   1.927  16.793  0.4895  0.5722 -0.5338
 6598TIP3    H141285   0.405   1.984  16.763  2.2450 -0.0395  2.1069
 6598TIP3    H241286   0.273   1.985  16.837  0.4970  0.8369 -0.8728
 6599TIP3   OH241287   5.542   4.691  14.042 -0.1512 -0.2422  0.5560
 6599TIP3    H141288   5.596   4.671  13.965 -0.8836 -0.1742  0.0055
 6599TIP3    H241289   5.460   4.724  14.005 -0.9563 -1.2841  1.3357
 6600TIP3   OH241290   4.068   3.820  13.687 -1.2096 -0.6001  0.0592
 6600TIP3    H141291   3.980   3.849  13.712 -1.6486 -3.2943  2.0690
 6600TIP3    H241292   4.113   3.804  13.770  1.0703  0.2678 -0.9322
 6601TIP3   OH241293   4.009   1.957  15.608  0.0471 -0.0077  0.0899
 6601TIP3    H141294   3.935   1.899  15.594 -1.1199  1.4961 -0.2228
 6601TIP3    H241295   4.036   1.940  15.699 -1.5709  0.3838  0.6751
 6602TIP3   OH241296   4.202   0.414  13.586 -0.3140  0.2749  0.3342
 6602TIP3    H141297   4.239   0.502  13.599  1.4330 -0.4591  0.6913
 6602TIP3    H241298   4.135   0.406  13.653  0.9868  0.5885  1.7249
 6603TIP3   OH241299   6.235   2.252  12.247  0.0306 -0.4025 -0.5925
 6603TIP3    H141300   6.258   2.172  12.201  1.3528 -0.1311 -0.4668
 6603TIP3    H241301   6.264   2.323  12.189  2.6192 -0.0536  0.9460
 6604TIP3   OH241302   2.497   2.033  14.947 -0.0314  0.0860 -0.0568
 6604TIP3    H141303   2.478   2.071  15.032  0.3894  0.2166 -0.0156
 6604TIP3    H241304   2.520   1.942  14.966  0.6384  0.2661  0.0448
 6605TIP3   OH241305   4.616   4.091   5.777  0.2457  0.2052 -0.4172
 6605TIP3    H141306   4.692   4.043   5.808 -0.2926 -1.3217 -1.3139
 6605TIP3    H241307   4.561   4.102   5.854  1.0004  0.6027  0.0710
 6606TIP3   OH241308   0.688   6.607   4.358  0.5914 -0.0567 -0.2436
 6606TIP3    H141309   0.600   6.596   4.391  0.4730  1.8809  0.2187
 6606TIP3    H241310   0.700   6.536   4.295 -1.3956 -0.1884 -0.5229
 6607TIP3   OH241311   1.573   5.963   5.092  0.0986 -0.6380  0.8029
 6607TIP3    H141312   1.666   5.976   5.072 -0.1997  0.7927  0.1325
 6607TIP3    H241313   1.535   5.934   5.009  0.0118 -1.6494  1.1895
 6608TIP3   OH241314   6.333   1.185  16.024 -0.9180 -0.5205 -0.6024
 6608TIP3    H141315   6.321   1.097  16.059  2.0987 -0.2822  1.3799
 6608TIP3    H241316   6.367   1.236  16.098 -1.5815  2.0825 -1.9618
 6609TIP3   OH241317   5.543   6.051  11.625 -0.3488 -0.1413  0.1181
 6609TIP3    H141318   5.553   5.972  11.678  0.3038  0.1847  0.4888
 6609TIP3    H241319   5.620   6.053  11.569  0.5360  1.1053  1.2975
 6610TIP3   OH241320   1.605   1.328   4.948  0.2055  0.1459 -0.1440
 6610TIP3    H141321   1.542   1.304   5.017 -1.1024 -0.1954 -1.4113
 6610TIP3    H241322   1.551   1.343   4.870  1.6063  0.9811 -0.9954
 6611TIP3   OH241323   5.870   6.759  11.667  0.2090  0.1066  0.3521
 6611TIP3    H141324   5.865   6.844  11.623 -0.3005  0.2200  0.6252
 6611TIP3    H241325   5.934   6.709  11.616 -1.5070 -0.3300 -1.4976
 6612TIP3   OH241326   1.014   5.134  16.541 -0.1004 -0.1732  0.2814
 6612TIP3    H141327   1.021   5.141  16.637 -0.4116 -0.5036  0.3285
 6612TIP3    H241328   0.947   5.198  16.517 -0.7490 -0.7967  0.3934
 6613TIP3   OH241329   2.345   4.794  14.096 -0.6947 -0.1990  0.2760
 6613TIP3    H141330   2.417   4.830  14.148  1.3003 -2.7916 -0.4988
 6613TIP3    H241331   2.338   4.853  14.020 -0.1692  0.7013  0.9122
 6614TIP3   OH241332   4.305   2.586   1.827 -0.4728  0.1153  1.0720
 6614TIP3    H141333   4.306   2.632   1.743  0.4074 -0.6440  0.6515
 6614TIP3    H241334   4.288   2.495   1.805  0.7250 -0.2590  1.6090
 6615TIP3   OH241335   5.593   0.568   4.497 -0.6953 -0.2072 -0.3110
 6615TIP3    H141336   5.561   0.654   4.471 -0.8707 -0.7044 -1.8463
 6615TIP3    H241337   5.688   0.573   4.484 -0.5628  0.0902  0.6800
 6616TIP3   OH241338   4.150   5.015  17.236  0.0844  0.5150  0.3869
 6616TIP3    H141339   4.230   5.059  17.206  0.3947 -0.9148 -1.0286
 6616TIP3    H241340   4.082   5.047  17.178  0.2575 -0.5968 -0.4634
 6617TIP3   OH241341   4.733   4.123  16.176  0.1379  0.4126 -0.5013
 6617TIP3    H141342   4.695   4.188  16.116  0.1339 -1.1080 -2.2402
 6617TIP3    H241343   4.667   4.055  16.184  0.5690  0.0859  0.4133
 6618TIP3   OH241344   5.287   1.160   2.302 -0.4359 -0.0781  0.1590
 6618TIP3    H141345   5.343   1.147   2.226 -0.2198 -0.0250  0.3090
 6618TIP3    H241346   5.340   1.212   2.362 -0.4234 -0.5336  0.5474
 6619TIP3   OH241347   1.871   0.748  15.731  0.6683  0.4981 -0.5162
 6619TIP3    H141348   1.783   0.738  15.767 -0.1439  0.9914 -2.2502
 6619TIP3    H241349   1.916   0.668  15.756 -1.1788 -1.0885 -1.9510
 6620TIP3   OH241350   0.336   3.661  13.644 -0.0266 -0.4567 -0.0959
 6620TIP3    H141351   0.321   3.602  13.718  2.1434 -1.1444 -0.1360
 6620TIP3    H241352   0.286   3.739  13.665 -1.8244 -1.7489  0.6560
 6621TIP3   OH241353   4.495   4.933   2.637  0.1703 -0.1866 -0.0733
 6621TIP3    H141354   4.511   4.987   2.714 -0.6697  3.2613 -2.1243
 6621TIP3    H241355   4.406   4.899   2.650 -0.1838  0.8316  0.2288
 6622TIP3   OH241356   6.354   1.588   5.547  0.1021 -0.0215  0.4223
 6622TIP3    H141357   6.371   1.515   5.488  0.6784  0.4015  0.0629
 6622TIP3    H241358   6.368   1.552   5.634 -2.4273 -1.1483  0.4757
 6623TIP3   OH241359   6.731   5.901   3.271 -0.4193 -0.4024 -0.3203
 6623TIP3    H141360   6.803   5.860   3.319  1.0737  0.7581 -1.4772
 6623TIP3    H241361   6.760   5.991   3.256 -2.7931  0.5597  0.4944
 6624TIP3   OH241362   0.058   5.269  15.498  0.0870 -0.0293 -0.7144
 6624TIP3    H141363   0.121   5.288  15.568 -0.1605 -0.1890 -0.4472
 6624TIP3    H241364   0.063   5.174  15.487 -1.5145 -0.3222  0.6610
 6625TIP3   OH241365   0.899   2.019  16.712  0.3652  0.5233 -0.2041
 6625TIP3    H141366   0.941   1.933  16.709  0.5747  0.6544 -1.4147
 6625TIP3    H241367   0.912   2.055  16.625  1.4456  2.3691  0.6642
 6626TIP3   OH241368   2.549   0.360  10.975  0.7501  0.2529  0.5840
 6626TIP3    H141369   2.596   0.433  10.936 -2.1611  2.2086  0.4041
 6626TIP3    H241370   2.516   0.310  10.901  0.2135  0.5253  0.6331
 6627TIP3   OH241371   1.124   1.453  11.616 -0.2632 -0.2345 -0.1128
 6627TIP3    H141372   1.197   1.396  11.643 -0.8692 -1.1698 -0.4013
 6627TIP3    H241373   1.046   1.409  11.649 -0.6998  0.8485  0.3335
 6628TIP3   OH241374   6.211   1.410  16.380  0.2634 -0.2598 -0.2395
 6628TIP3    H141375   6.155   1.486  16.360  1.2487  0.1815 -1.4206
 6628TIP3    H241376   6.151   1.346  16.417 -0.5427  1.2325  1.2150
 6629TIP3   OH241377   3.110   4.771  15.906 -0.2820  0.6807  0.4861
 6629TIP3    H141378   3.045   4.829  15.865  0.3390  0.4713 -0.8359
 6629TIP3    H241379   3.085   4.683  15.877  0.8584  0.6434 -0.4209
 6630TIP3   OH241380   5.126   0.476   4.454 -0.7775 -0.5473  0.3777
 6630TIP3    H141381   5.036   0.501   4.477 -0.7154 -0.1069  0.1568
 6630TIP3    H241382   5.147   0.405   4.514 -0.8547  0.1303  1.2309
 6631TIP3   OH241383   5.142   1.226  15.934 -0.0135  0.7502 -0.0788
 6631TIP3    H141384   5.097   1.304  15.966  0.2399  1.3947 -1.2541
 6631TIP3    H241385   5.074   1.176  15.888  0.0244  0.6950 -0.0755
 6632TIP3   OH241386   6.105   1.825   0.016 -0.2767 -0.3503  0.4807
 6632TIP3    H141387   6.016   1.821  -0.020 -0.1417 -2.2713  0.2202
 6632TIP3    H241388   6.098   1.783   0.102  0.1486  0.6546  1.0217
 6633TIP3   OH241389   3.733   4.114   4.103 -0.1597 -0.0349  0.9580
 6633TIP3    H141390   3.650   4.099   4.059  1.2706 -1.1527 -1.5624
 6633TIP3    H241391   3.767   4.027   4.122  2.0538  0.1582 -1.4841
 6634TIP3   OH241392   3.991   6.148  14.323 -0.5216 -0.2721 -0.1263
 6634TIP3    H141393   4.033   6.217  14.374  0.6509 -0.8963 -0.2081
 6634TIP3    H241394   3.999   6.069  14.378  1.4781 -1.1397 -1.5318
 6635TIP3   OH241395   5.584   1.486   3.576 -0.5200  0.4446 -0.6233
 6635TIP3    H141396   5.556   1.478   3.485 -0.3514  0.2372 -0.6586
 6635TIP3    H241397   5.512   1.448   3.626 -0.2627 -0.1915 -0.7205
 6636TIP3   OH241398   2.961   5.111  14.474  0.9315 -0.3605  0.1771
 6636TIP3    H141399   2.991   5.024  14.498  1.1265 -0.8275 -1.6035
 6636TIP3    H241400   3.036   5.168  14.493  0.7356 -0.5130  1.5241
 6637TIP3   OH241401   1.847   1.824   5.346  0.0637 -1.0114 -0.5384
 6637TIP3    H141402   1.776   1.768   5.379  0.3911  0.8769  4.1697
 6637TIP3    H241403   1.927   1.780   5.373  0.5828 -1.0979 -2.1366
 6638TIP3   OH241404   1.639   5.644   1.457  0.0375  0.1702 -0.1163
 6638TIP3    H141405   1.555   5.670   1.496 -0.2728 -2.0552  0.8686
 6638TIP3    H241406   1.700   5.643   1.531  0.2520 -0.8925 -0.3002
 6639TIP3   OH241407   4.729   3.003  15.576  0.3815 -0.4261 -0.6763
 6639TIP3    H141408   4.651   2.947  15.572  0.2232 -0.1986 -0.8525
 6639TIP3    H241409   4.771   2.980  15.659  1.1674 -1.8911 -1.4538
 6640TIP3   OH241410   1.388   2.975   0.983  0.8197  0.3853 -0.3116
 6640TIP3    H141411   1.405   3.031   1.059  0.4671 -0.3346  0.3071
 6640TIP3    H241412   1.336   3.030   0.924  2.0701  1.3486 -0.5742
 6641TIP3   OH241413   0.356   1.832   3.009  0.2503  0.0335  0.6104
 6641TIP3    H141414   0.439   1.787   3.024 -0.7153 -2.5234 -0.9566
 6641TIP3    H241415   0.313   1.781   2.940 -1.1101  3.3410 -1.2244
 6642TIP3   OH241416   5.258   5.810   4.568 -0.0039 -0.3918  0.1672
 6642TIP3    H141417   5.297   5.833   4.483 -0.1566  0.9838  0.4406
 6642TIP3    H241418   5.325   5.759   4.612  1.3237  1.4564  0.4078
 6643TIP3   OH241419   1.741   6.633  13.983  0.0267  0.0221  0.0744
 6643TIP3    H141420   1.725   6.600  13.895 -3.0590 -2.1880  1.2692
 6643TIP3    H241421   1.815   6.581  14.015 -0.8986 -1.5122 -0.1745
 6644TIP3   OH241422   0.327   5.795   2.065  0.3301 -0.1033 -0.4125
 6644TIP3    H141423   0.379   5.740   2.006  0.3970  0.9769 -1.3941
 6644TIP3    H241424   0.282   5.857   2.007 -0.6259  0.1552  0.5781
 6645TIP3   OH241425   1.237   6.686  15.864  0.0781  0.0618  0.6341
 6645TIP3    H141426   1.196   6.665  15.948 -0.5530  3.8172  1.4350
 6645TIP3    H241427   1.287   6.766  15.880 -0.1742  1.0093 -2.5589
 6646TIP3   OH241428   1.723   3.220  16.960  0.0878  0.4794 -0.3451
 6646TIP3    H141429   1.736   3.191  17.050  0.3662  0.5504 -0.3624
 6646TIP3    H241430   1.704   3.313  16.967  0.8114  0.6378 -0.4099
 6647TIP3   OH241431   0.774   3.741   1.766 -0.1363  0.6291 -0.0996
 6647TIP3    H141432   0.792   3.827   1.804 -2.6604  0.5827  1.3800
 6647TIP3    H241433   0.707   3.758   1.699 -1.0699 -0.2193  0.5911
 6648TIP3   OH241434   0.356   1.882   3.351 -0.1365 -0.0085  0.0548
 6648TIP3    H141435   0.426   1.849   3.408 -1.5535 -3.7612 -0.1156
 6648TIP3    H241436   0.387   1.864   3.262 -1.2236 -1.6845 -0.0192
 6649TIP3   OH241437   3.692   4.687   0.865  0.0556  0.1669 -0.4655
 6649TIP3    H141438   3.646   4.702   0.783  0.0939  0.6064 -0.4126
 6649TIP3    H241439   3.623   4.665   0.928 -0.1455  1.2783 -0.2807
 6650TIP3   OH241440   1.457   1.021   4.632  0.1103  0.5875  0.0050
 6650TIP3    H141441   1.498   1.085   4.690 -0.7476  1.8379 -0.7132
 6650TIP3    H241442   1.365   1.044   4.632 -0.1896 -0.5450 -0.4279
 6651TIP3   OH241443   6.305   5.537   4.966 -0.0606 -0.1684 -0.1149
 6651TIP3    H141444   6.283   5.452   5.004 -1.6101 -0.6077 -1.8480
 6651TIP3    H241445   6.220   5.575   4.943  0.7315  0.2616 -2.6188
 6652TIP3   OH241446   6.151   3.897   0.230 -0.3995 -0.3641 -0.0313
 6652TIP3    H141447   6.130   3.981   0.271 -0.0375  0.3419 -1.2486
 6652TIP3    H241448   6.235   3.912   0.187 -0.0398 -1.5428  0.2306
 6653TIP3   OH241449   1.983   3.487  13.765  0.6668  0.1335  0.0168
 6653TIP3    H141450   1.973   3.409  13.710  1.1477  0.4072 -0.4749
 6653TIP3    H241451   1.897   3.501  13.804  1.3287 -2.6260  2.8672
 6654TIP3   OH241452   1.776   6.254  12.627 -0.2411 -0.1470  0.3174
 6654TIP3    H141453   1.800   6.238  12.718 -0.1583  3.3586  1.0298
 6654TIP3    H241454   1.685   6.282  12.630 -0.3311 -0.2726 -0.7393
 6655TIP3   OH241455   1.105   0.047   2.685 -0.2115  0.1408  0.2253
 6655TIP3    H141456   1.181   0.022   2.736 -0.4088 -1.4556 -0.2037
 6655TIP3    H241457   1.053   0.102   2.744  0.2944 -0.4093  1.2108
 6656TIP3   OH241458   2.226   2.359  12.856  0.4091 -0.5655  0.0889
 6656TIP3    H141459   2.138   2.349  12.893  0.3668  0.9482  0.4351
 6656TIP3    H241460   2.226   2.301  12.780 -0.3413 -1.8070  0.9963
 6657TIP3   OH241461   0.005   1.588   4.836 -0.4575 -0.5814  0.1725
 6657TIP3    H141462   0.010   1.493   4.840 -3.6574 -0.8890 -0.5577
 6657TIP3    H241463   0.002   1.616   4.927 -2.6132 -1.5114  0.4494
 6658TIP3   OH241464   0.048   4.126   5.139 -0.3370  0.6120 -0.2980
 6658TIP3    H141465  -0.019   4.180   5.181 -0.1938  1.0959 -0.6664
 6658TIP3    H241466   0.129   4.177   5.149 -0.3573  0.8881 -1.4082
 6659TIP3   OH241467   3.483   4.499  16.045  0.4922  0.7238 -0.3085
 6659TIP3    H141468   3.422   4.506  16.118  2.8365 -2.5975  2.2245
 6659TIP3    H241469   3.430   4.463  15.973 -0.5323 -3.0123  2.0758
 6660TIP3   OH241470   3.366   0.947   6.350  0.0804 -0.1830 -0.0286
 6660TIP3    H141471   3.450   0.902   6.352 -1.2462 -2.9260  2.5462
 6660TIP3    H241472   3.304   0.885   6.389 -3.6716  0.7662 -3.6507
 6661TIP3   OH241473   0.486   5.105  14.215  0.4028 -0.0729 -0.3224
 6661TIP3    H141474   0.538   5.174  14.256 -0.5960  0.9006 -0.6298
 6661TIP3    H241475   0.436   5.151  14.147 -1.1847 -0.8656  0.2650
 6662TIP3   OH241476   4.826   5.805  15.413 -0.0144 -0.0883 -0.2602
 6662TIP3    H141477   4.908   5.760  15.395  1.3225  2.1384 -0.0410
 6662TIP3    H241478   4.850   5.877  15.472 -2.3058 -0.0279  0.7002
 6663TIP3   OH241479   0.991   4.564   4.463 -0.6217 -0.3887 -0.3299
 6663TIP3    H141480   1.001   4.658   4.478 -0.7508 -0.4723  0.3171
 6663TIP3    H241481   0.933   4.534   4.534 -1.0656 -0.8519 -0.8734
 6664TIP3   OH241482   3.506   4.670   4.502 -0.1343 -0.2190 -0.2071
 6664TIP3    H141483   3.554   4.743   4.539  0.8809 -1.1208  0.3048
 6664TIP3    H241484   3.493   4.609   4.575 -0.8756 -0.6047 -0.6395
 6665TIP3   OH241485   4.886   6.373   2.946  0.4681 -0.2517  0.2805
 6665TIP3    H141486   4.857   6.311   2.878  0.0216 -0.4989  0.6943
 6665TIP3    H241487   4.877   6.459   2.905 -3.2204 -0.0737  1.1742
 6666TIP3   OH241488   0.109   4.913  14.248  0.0395 -0.1915  0.3919
 6666TIP3    H141489   0.088   4.819  14.252  0.5036 -0.2909  0.5411
 6666TIP3    H241490   0.090   4.945  14.336 -0.9734  0.0461  0.1032
 6667TIP3   OH241491   2.386   1.611  15.969 -0.6016  0.3470 -0.1985
 6667TIP3    H141492   2.354   1.597  15.880 -1.6321  1.4754 -0.0243
 6667TIP3    H241493   2.331   1.681  16.004  0.7801  0.9584  0.8165
 6668TIP3   OH241494   0.721   1.287   5.539  0.7099  0.0769 -0.4952
 6668TIP3    H141495   0.783   1.353   5.571 -0.2056  1.5419 -1.6180
 6668TIP3    H241496   0.649   1.289   5.602  0.6148  0.2588 -0.6094
 6669TIP3   OH241497   6.529   2.333   3.634  0.3414  0.5075 -0.2916
 6669TIP3    H141498   6.562   2.363   3.719 -1.4268 -0.7720  0.9295
 6669TIP3    H241499   6.463   2.398   3.609  1.5704  1.4400 -1.2482
 6670TIP3   OH241500   3.542   3.750   4.792  0.1247 -0.4157 -0.4488
 6670TIP3    H141501   3.525   3.659   4.817 -0.6607 -0.0232  0.5458
 6670TIP3    H241502   3.570   3.792   4.873  1.9861 -0.0931 -1.2181
 6671TIP3   OH241503   3.392   2.142  16.808 -0.3030  0.0030  0.5403
 6671TIP3    H141504   3.311   2.186  16.785 -0.8047 -0.9933  0.3529
 6671TIP3    H241505   3.443   2.209  16.854  0.1276  1.6373 -2.1009
 6672TIP3   OH241506   1.032   5.992  12.663  0.1929 -0.4587 -0.0579
 6672TIP3    H141507   0.967   6.027  12.602  0.6732 -2.1430 -1.6265
 6672TIP3    H241508   1.106   6.052  12.657 -0.3534  0.2350  0.0570
 6673TIP3   OH241509   3.747   3.043  16.424 -0.2613  0.6647 -0.5439
 6673TIP3    H141510   3.807   3.035  16.498 -1.0309 -1.2475 -0.0502
 6673TIP3    H241511   3.804   3.038  16.347  0.3936  0.8474 -0.0828
 6674TIP3   OH241512   0.011   4.445  14.596  0.3675  0.0830 -0.3785
 6674TIP3    H141513  -0.082   4.466  14.606  0.0942 -1.5634  1.1877
 6674TIP3    H241514   0.055   4.501  14.659  0.4704  0.9250 -1.1812
 6675TIP3   OH241515   1.597   5.220  14.446  0.4243  0.0577 -0.2849
 6675TIP3    H141516   1.598   5.265  14.530 -0.5849  1.0209 -0.7438
 6675TIP3    H241517   1.675   5.253  14.400  0.7903 -0.2115  0.1427
 6676TIP3   OH241518   5.424   1.028  15.200 -0.0292 -0.1473 -0.0334
 6676TIP3    H141519   5.415   0.934  15.188  0.3446 -0.2421  0.4049
 6676TIP3    H241520   5.518   1.044  15.196 -0.0853  0.1952 -0.0181
 6677TIP3   OH241521   0.738   5.403  15.500 -0.1610 -0.1463  1.0143
 6677TIP3    H141522   0.657   5.428  15.456  0.2080 -0.0328  0.3942
 6677TIP3    H241523   0.725   5.311  15.524 -0.3998 -0.1832  0.7559
 6678TIP3   OH241524   6.301   5.646   2.407  0.5099  0.4806  0.0281
 6678TIP3    H141525   6.323   5.609   2.322  0.2197 -2.6559  1.1823
 6678TIP3    H241526   6.374   5.621   2.464 -0.8220 -0.4041  1.4179
 6679TIP3   OH241527   4.383   1.572   4.906  0.6918 -0.2245 -0.5198
 6679TIP3    H141528   4.405   1.624   4.829  0.8334  0.2852 -0.1413
 6679TIP3    H241529   4.442   1.604   4.975  1.0774 -1.1883 -0.3953
 6680TIP3   OH241530   4.572   3.505  12.154 -0.3464  0.5017 -0.4198
 6680TIP3    H141531   4.623   3.428  12.130 -1.0351 -0.1340  0.1288
 6680TIP3    H241532   4.628   3.553  12.216  0.2089  0.6197 -0.9995
 6681TIP3   OH241533   6.800   1.893   0.553 -0.3310  0.3495 -0.4851
 6681TIP3    H141534   6.832   1.868   0.467 -2.2146 -3.1628 -0.3528
 6681TIP3    H241535   6.872   1.943   0.592  1.1650  0.7090 -3.4528
 6682TIP3   OH241536   0.079   2.305  14.951  0.0970  0.1321 -0.5723
 6682TIP3    H141537   0.015   2.360  14.905 -0.0926  0.6795  0.3025
 6682TIP3    H241538   0.120   2.252  14.883  0.3728  1.4585 -1.4645
 6683TIP3   OH241539   1.564   3.671  15.362  0.2548  0.3224  0.1430
 6683TIP3    H141540   1.605   3.721  15.291  0.8635  0.5698  0.6649
 6683TIP3    H241541   1.636   3.618  15.398  0.0170  0.4415  0.7866
 6684TIP3   OH241542   3.435   5.133  14.288 -0.4624  0.3258  0.5519
 6684TIP3    H141543   3.416   5.103  14.377  0.2891  0.2057  0.6720
 6684TIP3    H241544   3.414   5.227  14.290 -3.0683 -0.1535  0.1004
 6685TIP3   OH241545   2.757   0.511  14.144  0.6405 -0.5624  0.5716
 6685TIP3    H141546   2.664   0.520  14.122  0.5216 -0.7327  0.9992
 6685TIP3    H241547   2.772   0.417  14.147  0.8555 -0.5337  0.3885
 6686TIP3   OH241548   4.371   2.560  16.226 -0.2147 -0.4843  0.5643
 6686TIP3    H141549   4.315   2.573  16.150  1.5213  3.3853 -0.2672
 6686TIP3    H241550   4.311   2.531  16.295 -2.5692 -0.0328 -1.1730
 6687TIP3   OH241551   3.354   5.336  12.427 -0.7122  0.7986 -0.2129
 6687TIP3    H141552   3.433   5.283  12.418 -1.1448  0.2275 -0.7311
 6687TIP3    H241553   3.381   5.411  12.480  0.3596  0.9978 -1.0090
 6688TIP3   OH241554   1.063   5.031   4.719  0.6384  0.5123 -0.0023
 6688TIP3    H141555   0.982   5.049   4.766 -0.4646 -1.1061 -1.2004
 6688TIP3    H241556   1.131   5.032   4.786 -0.5412  0.6881  1.2162
 6689TIP3   OH241557   0.961   6.315   5.955  0.3779  0.7608 -0.0772
 6689TIP3    H141558   0.979   6.387   6.016  0.7348  1.6925 -1.2533
 6689TIP3    H241559   1.007   6.240   5.993 -1.1162  0.7487  1.9040
 6690TIP3   OH241560   2.492   1.646   1.497  0.2992  0.2409 -0.8812
 6690TIP3    H141561   2.502   1.563   1.544 -0.4167  0.2344 -0.7383
 6690TIP3    H241562   2.563   1.645   1.432  1.1212  0.1184 -0.0090
 6691TIP3   OH241563   0.146   5.249   5.561 -0.4658 -0.6100 -0.3249
 6691TIP3    H141564   0.199   5.263   5.639  1.4008  0.1187 -1.6566
 6691TIP3    H241565   0.078   5.316   5.567 -0.6060 -0.8293  0.8582
 6692TIP3   OH241566   5.195   1.437   1.971  0.2779 -0.0176  0.7159
 6692TIP3    H141567   5.197   1.481   1.886  2.3642  0.2970  0.8879
 6692TIP3    H241568   5.196   1.344   1.950 -2.0461 -0.0207  0.3912
 6693TIP3   OH241569   0.964   4.861   4.498 -0.0177  0.4828 -0.6932
 6693TIP3    H141570   1.009   4.885   4.579  0.3088  2.0843 -1.3051
 6693TIP3    H241571   0.872   4.878   4.516  0.0922  1.1810 -0.7534
 6694TIP3   OH241572   2.102   4.427  16.769  0.2069 -0.5190 -0.0493
 6694TIP3    H141573   2.121   4.459  16.680 -1.2956 -0.2360 -0.2973
 6694TIP3    H241574   2.109   4.505  16.824 -1.1313 -0.2054 -0.2926
 6695TIP3   OH241575   6.104   1.509   5.722 -0.0985 -0.3146  0.4363
 6695TIP3    H141576   6.072   1.566   5.651 -1.6557  0.4556  1.6935
 6695TIP3    H241577   6.133   1.429   5.678 -1.3661  0.0001 -1.0294
 6696TIP3   OH241578   1.769   4.573   2.694  0.1617  0.3465 -0.3709
 6696TIP3    H141579   1.697   4.617   2.650 -0.2552  0.8956  0.8395
 6696TIP3    H241580   1.728   4.501   2.743  0.6467 -0.4047 -1.0354
 6697TIP3   OH241581   5.752   4.710   2.467  0.2627 -0.1745 -0.3542
 6697TIP3    H141582   5.762   4.693   2.374 -0.5868 -1.8021 -0.1910
 6697TIP3    H241583   5.688   4.781   2.472  1.2785  0.8222 -1.0111
 6698TIP3   OH241584   2.598   0.964   4.530  0.4790  0.1806  0.1044
 6698TIP3    H141585   2.644   1.047   4.544 -1.8858  1.4746  0.6339
 6698TIP3    H241586   2.563   0.970   4.442  0.1678 -0.1900  0.1990
 6699TIP3   OH241587   6.713   0.013   3.273  0.9246 -0.1102  0.1512
 6699TIP3    H141588   6.786  -0.027   3.226  0.7545  1.5242 -1.6647
 6699TIP3    H241589   6.642   0.016   3.208 -0.7760 -1.5623  1.8267
 6700TIP3   OH241590   5.066   3.862   1.125  0.0557 -0.2445 -0.4675
 6700TIP3    H141591   5.143   3.913   1.098 -0.4369  0.0065 -1.4270
 6700TIP3    H241592   5.095   3.816   1.203  1.3858 -0.6096 -1.1392
 6701TIP3   OH241593   2.624   3.752  16.114  0.1896  0.0620  0.4186
 6701TIP3    H141594   2.617   3.666  16.073  0.0088 -0.3209  1.2397
 6701TIP3    H241595   2.717   3.772  16.112  0.3947 -0.7162  1.3366
 6702TIP3   OH241596   6.783   0.660  13.936  0.2416  0.1584  0.0932
 6702TIP3    H141597   6.741   0.745  13.952 -0.7423 -0.2925 -0.0190
 6702TIP3    H241598   6.720   0.596  13.969 -0.1802 -0.6316 -2.0651
 6703TIP3   OH241599   4.403   4.062   3.638 -0.5821 -0.3715 -0.1031
 6703TIP3    H141600   4.439   4.088   3.723  0.2208  1.1151 -0.8580
 6703TIP3    H241601   4.315   4.099   3.637 -0.3127  0.2735 -0.2169
 6704TIP3   OH241602   4.971   3.947   3.778 -0.1608  0.0449  0.2913
 6704TIP3    H141603   4.976   3.910   3.867  0.7316 -0.7530 -0.0762
 6704TIP3    H241604   5.049   4.001   3.771 -0.2165  0.0825 -0.0219
 6705TIP3   OH241605   4.353   4.613  14.418 -0.0253 -0.5321  0.0693
 6705TIP3    H141606   4.425   4.561  14.455  0.2798 -0.2447 -0.1222
 6705TIP3    H241607   4.275   4.578  14.462  0.0459 -1.8262 -0.7627
 6706TIP3   OH241608   2.345   1.451   3.174 -0.5257 -0.0771 -0.2001
 6706TIP3    H141609   2.283   1.436   3.245  0.3140  0.2686  0.6346
 6706TIP3    H241610   2.431   1.435   3.213 -0.0301  0.2796 -1.0984
 6707TIP3   OH241611   6.503   0.111   5.994 -0.8286 -0.3813  0.0333
 6707TIP3    H141612   6.509   0.117   6.090  0.4598  1.2346 -0.1144
 6707TIP3    H241613   6.409   0.121   5.976 -1.4557 -3.2496  1.2150
 6708TIP3   OH241614   0.100   0.611   1.964  0.4580  0.3285 -0.4477
 6708TIP3    H141615   0.063   0.526   1.986 -1.4443  1.1950 -0.0803
 6708TIP3    H241616   0.045   0.643   1.892 -0.2777  2.1196  0.8254
 6709TIP3   OH241617   5.392   0.876   5.186  0.9199 -0.0723  0.0846
 6709TIP3    H141618   5.417   0.968   5.186  1.7762 -0.2788  1.0018
 6709TIP3    H241619   5.318   0.872   5.247  1.6972 -0.1631  1.0568
 6710TIP3   OH241620   5.404   0.831  16.639  0.7833  0.1602 -0.5056
 6710TIP3    H141621   5.378   0.881  16.562 -3.0894 -1.3765 -0.3894
 6710TIP3    H241622   5.358   0.874  16.712  0.2706 -1.4153  0.1351
 6711TIP3   OH241623   3.919   1.566  15.106  0.0270  0.2400 -0.1578
 6711TIP3    H141624   3.949   1.625  15.037 -0.4061  0.2172 -0.3664
 6711TIP3    H241625   3.934   1.478  15.069 -0.8761  0.2281 -0.5219
 6712TIP3   OH241626   2.605   4.478   3.203  0.0750 -0.0124  0.7071
 6712TIP3    H141627   2.648   4.486   3.288  0.8706 -0.3068  0.3462
 6712TIP3    H241628   2.514   4.502   3.219  0.4028  0.7688  1.4695
 6713TIP3   OH241629   5.583   2.758   1.847 -0.1231 -0.5927 -0.0208
 6713TIP3    H141630   5.668   2.723   1.873  0.0949  0.4304  0.7182
 6713TIP3    H241631   5.602   2.846   1.815 -1.0500  0.2479  1.6043
 6714TIP3   OH241632   1.183   6.059   2.120 -0.4972  0.2471  0.3650
 6714TIP3    H141633   1.203   6.141   2.075  1.3941 -0.4771 -0.1955
 6714TIP3    H241634   1.248   6.055   2.191  0.2722 -1.3331 -0.3817
 6715TIP3   OH241635   2.027   6.653   1.070 -0.4884  0.0279  0.3043
 6715TIP3    H141636   1.973   6.660   1.149 -0.8859  1.8945 -0.0614
 6715TIP3    H241637   2.104   6.706   1.089  0.1771 -0.8176  0.0076
 6716TIP3   OH241638   2.562   1.915   3.516 -0.1391  0.0468  0.0766
 6716TIP3    H141639   2.473   1.948   3.513 -0.2872 -0.4069 -0.9903
 6716TIP3    H241640   2.553   1.820   3.505  0.3364 -0.3015  2.2108
 6717TIP3   OH241641   6.122   1.693  14.349  0.1662  0.2080 -0.2495
 6717TIP3    H141642   6.160   1.766  14.300 -1.9303  0.5637 -1.4960
 6717TIP3    H241643   6.183   1.677  14.421  1.5649  2.0136 -0.9617
 6718TIP3   OH241644   0.137   2.571  11.972 -0.0792 -0.5405  0.2910
 6718TIP3    H141645   0.154   2.665  11.975 -0.3566 -0.5113  1.3539
 6718TIP3    H241646   0.098   2.551  12.057 -0.2616 -1.5739 -0.0204
 6719TIP3   OH241647   3.838   2.582  13.180 -0.3000  0.0155 -0.3961
 6719TIP3    H141648   3.864   2.662  13.135  1.0001 -0.8152 -1.2222
 6719TIP3    H241649   3.891   2.580  13.260 -0.1498 -0.1196 -0.4957
 6720TIP3   OH241650   3.844   4.039  10.498  0.6317  0.4361 -0.1604
 6720TIP3    H141651   3.851   3.957  10.546  1.2703  0.1657 -0.6896
 6720TIP3    H241652   3.913   4.034  10.431 -1.2082  0.0768 -2.1632
 6721TIP3   OH241653   1.051   5.354   1.446 -0.0182 -0.1689  0.0334
 6721TIP3    H141654   1.083   5.265   1.440  2.1163  0.6168 -1.4012
 6721TIP3    H241655   1.031   5.379   1.355 -1.0292  0.6733  0.4620
 6722TIP3   OH241656   1.569   2.024   2.900  0.3851 -0.3412 -0.6279
 6722TIP3    H141657   1.558   1.931   2.881 -0.4090 -0.0116 -1.9932
 6722TIP3    H241658   1.627   2.056   2.831  2.9106 -0.2954  1.3848
 6723TIP3   OH241659   6.609   4.740  17.103  0.5751  0.2597 -0.6780
 6723TIP3    H141660   6.590   4.826  17.066 -1.3371 -0.1414 -0.7457
 6723TIP3    H241661   6.657   4.759  17.184 -0.5771  1.4469 -0.2379
 6724TIP3   OH241662   4.002   3.394   5.769 -0.0871 -0.7584  0.3158
 6724TIP3    H141663   4.052   3.312   5.762  0.4604 -0.4630  0.6568
 6724TIP3    H241664   4.007   3.417   5.862  2.9037  1.5585 -0.2437
 6725TIP3   OH241665   4.402   6.119   1.691 -0.8405  0.1326 -0.7096
 6725TIP3    H141666   4.393   6.215   1.692 -1.5047  0.0756  0.1976
 6725TIP3    H241667   4.316   6.088   1.663 -1.0420 -0.2231  0.2718
 6726TIP3   OH241668   1.592   1.746   1.781  0.1644 -0.3885  0.7308
 6726TIP3    H141669   1.652   1.682   1.818  0.6473  0.5953  1.7194
 6726TIP3    H241670   1.510   1.699   1.769  1.5978 -2.3827 -2.6452
 6727TIP3   OH241671   4.868   5.093   0.822  0.4433 -0.1853 -0.1079
 6727TIP3    H141672   4.801   5.106   0.889  1.1987  0.6188  0.5209
 6727TIP3    H241673   4.928   5.029   0.860  0.4771 -0.2814 -0.3218
 6728TIP3   OH241674   5.118   4.879  15.112 -0.7749  0.0354 -0.2782
 6728TIP3    H141675   5.141   4.879  15.205 -2.6579 -1.6021  0.2530
 6728TIP3    H241676   5.137   4.968  15.083  2.7197 -0.1820  0.8469
 6729TIP3   OH241677   1.584   0.740   5.998  0.0431  0.6892  0.0123
 6729TIP3    H141678   1.527   0.784   6.060 -0.1238  0.5991 -0.0763
 6729TIP3    H241679   1.538   0.659   5.976 -0.3773  1.1864 -0.9949
 6730TIP3   OH241680   6.185   3.855  17.095 -0.3791  0.3249  0.3986
 6730TIP3    H141681   6.209   3.861  17.187  0.6577 -0.4204  0.1966
 6730TIP3    H241682   6.268   3.861  17.048 -0.8541  0.3103 -0.4711
 6731TIP3   OH241683   4.495   5.891   4.777  0.4229  0.0326  0.2209
 6731TIP3    H141684   4.521   5.857   4.691 -0.5298  2.2230 -1.0100
 6731TIP3    H241685   4.404   5.863   4.788  0.6934 -0.6559  0.7587
 6732TIP3   OH241686   1.996   5.440  16.357  0.2135  0.3696 -0.0906
 6732TIP3    H141687   1.956   5.357  16.383  1.3596 -1.1779 -2.8053
 6732TIP3    H241688   2.008   5.432  16.262  1.5785  3.1312 -0.2504
 6733TIP3   OH241689   5.350   5.226  11.989 -0.0732 -0.6425 -0.4444
 6733TIP3    H141690   5.279   5.165  11.969 -0.0539 -0.6552 -0.4740
 6733TIP3    H241691   5.369   5.269  11.906 -0.4991 -0.1597 -0.2935
 6734TIP3   OH241692   2.947   0.547   5.680 -0.4232 -0.3305  0.0070
 6734TIP3    H141693   3.002   0.471   5.663 -0.6736 -0.0789 -2.2072
 6734TIP3    H241694   2.969   0.573   5.769  1.4600 -1.5222 -0.0553
 6735TIP3   OH241695   1.647   1.245  14.137  0.0184  0.3179  0.0939
 6735TIP3    H141696   1.612   1.210  14.055  1.1393 -0.2467 -0.1499
 6735TIP3    H241697   1.723   1.191  14.157 -0.6454 -0.0112  1.8997
 6736TIP3   OH241698   6.552   6.784   1.816 -0.2540  0.2592  0.3971
 6736TIP3    H141699   6.622   6.828   1.768 -0.6481  1.7448  1.1271
 6736TIP3    H241700   6.523   6.714   1.758  1.1414  0.2731 -0.3381
 6737TIP3   OH241701   6.212   0.172   3.658  0.1261 -0.2031 -0.4473
 6737TIP3    H141702   6.272   0.173   3.584  0.1727 -0.5331 -0.4196
 6737TIP3    H241703   6.264   0.134   3.730 -0.0024 -0.1489 -0.3240
 6738TIP3   OH241704   3.841   2.419   6.444 -0.0971 -0.1933 -0.1956
 6738TIP3    H141705   3.876   2.479   6.379 -1.0346  0.9369  0.3099
 6738TIP3    H241706   3.878   2.449   6.527 -2.1391  0.9871  0.3398
 6739TIP3   OH241707   0.610   1.690   0.269  0.3762 -0.7609  0.0694
 6739TIP3    H141708   0.599   1.782   0.290 -0.2602 -0.9875  0.7895
 6739TIP3    H241709   0.645   1.651   0.350 -1.7238 -1.5840  0.6533
 6740TIP3   OH241710   4.459   4.361  13.016 -0.2958 -0.5396 -0.6667
 6740TIP3    H141711   4.394   4.430  13.027  1.4360  1.1307 -0.1973
 6740TIP3    H241712   4.470   4.352  12.922  0.1127  0.5120 -0.7310
 6741TIP3   OH241713   6.306   0.987  15.693 -0.6315  0.4174  0.1329
 6741TIP3    H141714   6.245   1.059  15.709 -1.0958  0.7731 -2.7938
 6741TIP3    H241715   6.392   1.024  15.713 -0.7538  2.2044 -2.1984
 6742TIP3   OH241716   6.399   4.689   4.202  0.3465  0.1429  0.0246
 6742TIP3    H141717   6.351   4.666   4.282  1.0796  1.6373  0.9375
 6742TIP3    H241718   6.386   4.784   4.193  1.8809  0.3244 -0.5340
 6743TIP3   OH241719   2.911   4.540   5.484  0.3569 -0.4908  0.8110
 6743TIP3    H141720   2.975   4.536   5.413 -2.2049  2.0776 -1.9128
 6743TIP3    H241721   2.868   4.454   5.482 -0.3770 -0.1347 -1.5888
 6744TIP3   OH241722   3.712   5.585   3.980  0.3431 -0.1040 -0.2069
 6744TIP3    H141723   3.721   5.643   3.905 -2.4450  0.5190 -0.1575
 6744TIP3    H241724   3.723   5.497   3.944  0.8705  0.2677 -0.9742
 6745TIP3   OH241725   6.759   2.883   6.673 -0.3192 -0.0715 -0.0624
 6745TIP3    H141726   6.723   2.953   6.728  0.8445  1.3121 -0.9711
 6745TIP3    H241727   6.688   2.861   6.613 -0.7978  0.1242  0.4247
 6746TIP3   OH241728   1.201   3.718  11.087  0.5474  0.0274  0.7804
 6746TIP3    H141729   1.160   3.632  11.086 -0.5752  0.5394  0.6453
 6746TIP3    H241730   1.219   3.738  10.994  0.3373  0.1501  0.7656
 6747TIP3   OH241731   0.608   1.173  17.102  0.5037 -0.4711  0.2355
 6747TIP3    H141732   0.658   1.253  17.084  1.0820 -1.3097 -2.3276
 6747TIP3    H241733   0.520   1.192  17.070  0.6119 -0.8245 -0.2686
 6748TIP3   OH241734   3.998   3.289  10.809 -0.0057 -0.2907  0.1748
 6748TIP3    H141735   4.005   3.197  10.782 -1.6734 -0.4149  0.0624
 6748TIP3    H241736   3.962   3.333  10.732 -1.6019 -0.0256  1.0405
 6749TIP3   OH241737   5.931   6.283   4.050  0.0574  0.0441  0.1646
 6749TIP3    H141738   5.899   6.363   4.009 -0.8895 -0.6489 -0.5077
 6749TIP3    H241739   5.974   6.313   4.130 -0.7438  1.1838  0.2007
 6750TIP3   OH241740   0.776   6.013   5.352 -0.4085 -0.4491  0.2718
 6750TIP3    H141741   0.791   5.929   5.308 -0.5519 -0.7938  0.8700
 6750TIP3    H241742   0.690   6.041   5.322 -0.5084 -0.6887  0.3305
 6751TIP3   OH241743   6.495   3.984  16.440 -0.0915  0.0025  0.5910
 6751TIP3    H141744   6.484   4.032  16.358 -0.0266  0.7791  1.0211
 6751TIP3    H241745   6.586   3.953  16.438  0.0768  0.4819  0.5958
 6752TIP3   OH241746   2.789   2.589   4.057 -0.0145 -0.2128  0.5869
 6752TIP3    H141747   2.877   2.616   4.083 -0.1587  0.2796  0.5806
 6752TIP3    H241748   2.749   2.669   4.023 -0.3311 -0.5226  0.2310
 6753TIP3   OH241749   2.947   2.284  11.580 -0.1317 -0.0069  0.9487
 6753TIP3    H141750   2.889   2.209  11.587 -0.3378 -0.1832 -1.6491
 6753TIP3    H241751   2.889   2.357  11.559  0.4205  0.0299 -0.5691
 6754TIP3   OH241752   2.458   1.496   4.903  0.3622 -0.2656  0.0764
 6754TIP3    H141753   2.376   1.478   4.857  0.5540 -1.4452  0.1641
 6754TIP3    H241754   2.456   1.438   4.979  1.1068 -0.0365  0.2773
 6755TIP3   OH241755   4.412   4.202   5.976  0.2272  0.4876  0.4998
 6755TIP3    H141756   4.378   4.241   5.896  2.7978 -0.7916 -1.3739
 6755TIP3    H241757   4.441   4.277   6.029  0.0834  1.3032 -0.5417
 6756TIP3   OH241758   4.386   2.594   0.424  0.2792 -0.8723  0.1070
 6756TIP3    H141759   4.319   2.652   0.461  1.2040  0.0718  0.3628
 6756TIP3    H241760   4.408   2.533   0.495  1.1432  0.1282  0.7300
 6757TIP3   OH241761   1.513   3.465   5.158 -0.2363  0.0611  0.1310
 6757TIP3    H141762   1.473   3.468   5.244  0.4838  0.3510  0.4674
 6757TIP3    H241763   1.481   3.544   5.113 -0.3833  0.0632  0.2420
 6758TIP3   OH241764   0.501   0.798   1.913 -0.0827  0.2223  0.4515
 6758TIP3    H141765   0.577   0.786   1.856 -0.7000 -0.6627 -0.2040
 6758TIP3    H241766   0.514   0.885   1.952  0.6653  0.5875 -0.5682
 6759TIP3   OH241767   6.654   2.307  12.407  0.3452  0.8776  0.6969
 6759TIP3    H141768   6.636   2.244  12.477 -0.4597  1.9297  1.4775
 6759TIP3    H241769   6.623   2.390  12.442 -0.4822  1.3552 -1.0916
 6760TIP3   OH241770   6.026   4.856  15.790 -0.0858  0.1420 -0.2140
 6760TIP3    H141771   5.973   4.781  15.815  0.1153  0.5001  1.3655
 6760TIP3    H241772   5.972   4.932  15.814  0.0231  0.5117 -1.1005
 6761TIP3   OH241773   6.293   3.895   5.538 -0.2421  0.1876  0.2520
 6761TIP3    H141774   6.203   3.867   5.550 -0.6039  0.6438 -1.2053
 6761TIP3    H241775   6.288   3.968   5.477  1.2289 -0.7454 -1.0856
 6762TIP3   OH241776   4.866   3.820   1.618  0.2232 -0.1337 -0.1073
 6762TIP3    H141777   4.866   3.885   1.548 -1.4714  1.4135  1.1987
 6762TIP3    H241778   4.934   3.850   1.678  0.0736 -0.0752  0.0364
 6763TIP3   OH241779   0.377   1.490  12.438 -0.7153 -0.5898 -0.0141
 6763TIP3    H141780   0.379   1.489  12.343 -3.4364 -0.6660 -0.1257
 6763TIP3    H241781   0.406   1.579  12.462  1.5118 -1.0457 -0.7707
 6764TIP3   OH241782   0.716   1.134  15.587 -0.1326  0.1455 -0.4232
 6764TIP3    H141783   0.794   1.079  15.591 -0.0149  0.2516 -1.0892
 6764TIP3    H241784   0.682   1.136  15.677 -0.7534 -1.8940 -0.5717
 6765TIP3   OH241785   4.081   3.194   6.720 -0.5809  0.3319 -0.2952
 6765TIP3    H141786   4.082   3.277   6.673  0.4359 -0.2254 -1.2952
 6765TIP3    H241787   4.118   3.130   6.659  2.1763 -0.1671  1.6868
 6766TIP3   OH241788   1.295   2.115  11.177  0.3470 -0.1099  0.4347
 6766TIP3    H141789   1.381   2.147  11.205  0.7881 -1.1059  0.2430
 6766TIP3    H241790   1.236   2.141  11.248  0.5613  1.6441  0.0299
 6767TIP3   OH241791   3.112   2.447   3.048  0.0211  0.8106  0.1991
 6767TIP3    H141792   3.204   2.454   3.020 -1.0052  1.0690 -3.7199
 6767TIP3    H241793   3.062   2.485   2.975 -3.3748 -2.4289  0.5445
 6768TIP3   OH241794   4.132   3.507  11.182 -0.0250  0.2710  0.2586
 6768TIP3    H141795   4.050   3.549  11.159  0.3752  1.2645  0.6162
 6768TIP3    H241796   4.200   3.569  11.154  0.6107 -0.5501 -0.0809
 6769TIP3   OH241797   0.430   2.523  11.206  0.2210  0.0250  0.3597
 6769TIP3    H141798   0.404   2.442  11.163  0.3160 -0.2983  0.8997
 6769TIP3    H241799   0.369   2.589  11.172  0.4796 -0.1581 -0.4791
 6770TIP3   OH241800   0.874   0.354   6.194 -0.5228 -0.2247  0.2415
 6770TIP3    H141801   0.968   0.375   6.194 -0.9068  1.9573 -1.9054
 6770TIP3    H241802   0.834   0.427   6.242 -1.3250  0.4293 -1.3562
 6771TIP3   OH241803   6.475   1.572   4.511 -0.4761 -0.1816  0.2007
 6771TIP3    H141804   6.530   1.494   4.517 -1.3758 -1.0578 -1.8027
 6771TIP3    H241805   6.535   1.645   4.524  0.7526 -1.1574  0.2049
 6772TIP3   OH241806   4.166   2.263   0.657 -0.0797  0.0720  0.0846
 6772TIP3    H141807   4.134   2.251   0.568 -2.8675  1.2190  0.8144
 6772TIP3    H241808   4.187   2.175   0.688  0.1355 -0.4246 -1.4177
 6773TIP3   OH241809   2.609   5.215  12.706  0.1379 -0.2050  0.7204
 6773TIP3    H141810   2.701   5.224  12.682 -0.0735 -1.6440 -0.7975
 6773TIP3    H241811   2.611   5.194  12.799  1.2521  0.9237  0.9883
 6774TIP3   OH241812   0.282   2.563   5.196 -0.3622  0.4330  0.3245
 6774TIP3    H141813   0.221   2.499   5.160 -1.2034  0.3532  1.8431
 6774TIP3    H241814   0.324   2.518   5.269  0.8490  0.8116 -0.1063
 6775TIP3   OH241815   4.097   4.254  15.038 -0.1575 -0.1607  1.2759
 6775TIP3    H141816   4.118   4.291  15.123 -0.7970 -0.3634  1.5259
 6775TIP3    H241817   4.171   4.197  15.017  1.0607  1.5308  0.6997
 6776TIP3   OH241818   5.047   4.941  13.292 -0.0348 -0.2432 -0.4504
 6776TIP3    H141819   5.140   4.927  13.310 -0.0826  0.8321  0.7431
 6776TIP3    H241820   5.002   4.872  13.340  0.0116  0.9348  1.3823
 6777TIP3   OH241821   6.751   4.812   6.094 -0.4040  0.4752 -0.7116
 6777TIP3    H141822   6.803   4.892   6.086 -2.1213  1.5535 -1.5215
 6777TIP3    H241823   6.662   4.842   6.110 -1.1315 -1.2810 -1.1943
 6778TIP3   OH241824   3.717   3.044  12.232  0.5028  0.2385 -0.1585
 6778TIP3    H141825   3.740   2.956  12.263  1.4597 -0.7936 -3.4208
 6778TIP3    H241826   3.644   3.029  12.171  1.2807  1.5547 -1.4707
 6779TIP3   OH241827   1.737   5.625   2.623  0.1177  0.4782 -0.2882
 6779TIP3    H141828   1.648   5.648   2.597  0.2174  0.7370 -0.4033
 6779TIP3    H241829   1.746   5.532   2.599  0.1055  0.6300 -0.8929
 6780TIP3   OH241830   0.422   0.972   6.672  0.8857  0.2430  0.3289
 6780TIP3    H141831   0.477   1.050   6.667 -0.5002  1.3035  0.9602
 6780TIP3    H241832   0.461   0.911   6.609  0.9079  2.1394 -1.6183
 6781TIP3   OH241833   5.640   2.916  16.793 -0.1001 -0.3650  0.1855
 6781TIP3    H141834   5.549   2.887  16.781 -0.4359  1.0427 -0.9168
 6781TIP3    H241835   5.683   2.841  16.835 -1.0622 -2.2462 -1.9389
 6782TIP3   OH241836   2.639   4.324  10.724  0.8187  0.1081 -0.4923
 6782TIP3    H141837   2.651   4.262  10.651  1.1246  0.9043 -1.1328
 6782TIP3    H241838   2.602   4.402  10.683 -0.5696 -0.0105  0.4786
 6783TIP3   OH241839   3.684   0.640   0.176 -0.5588  0.2820  0.1966
 6783TIP3    H141840   3.621   0.645   0.249 -2.6142 -1.7863 -1.2771
 6783TIP3    H241841   3.689   0.547   0.156  1.5448  0.6095 -1.0347
 6784TIP3   OH241842   5.431   0.512   5.500 -0.3404  0.3510  0.2725
 6784TIP3    H141843   5.400   0.503   5.409 -1.1159 -0.8923  0.6396
 6784TIP3    H241844   5.480   0.595   5.500 -0.6076  0.5434 -1.1966
 6785TIP3   OH241845   1.199   6.076   1.780  0.4311 -0.2874  0.0533
 6785TIP3    H141846   1.290   6.049   1.771  0.6171  0.5155 -0.5375
 6785TIP3    H241847   1.200   6.143   1.847  0.0607 -1.2462  1.0481
 6786TIP3   OH241848   6.478   3.217  12.493 -0.2457  0.1886  0.2821
 6786TIP3    H141849   6.567   3.206  12.460  0.3921 -2.4287  2.4876
 6786TIP3    H241850   6.424   3.164  12.434  0.1262 -0.4268  0.4775
 6787TIP3   OH241851   0.270   5.902  14.188 -0.0763 -0.3105  0.2271
 6787TIP3    H141852   0.176   5.917  14.200 -0.2136 -1.4407  0.6759
 6787TIP3    H241853   0.276   5.844  14.112  0.3243  0.3556 -0.2724
 6788TIP3   OH241854   1.937   0.380  14.843 -0.1332 -0.5693  0.4757
 6788TIP3    H141855   1.872   0.348  14.906 -0.3839  0.9947  1.0381
 6788TIP3    H241856   2.019   0.383  14.893  0.1373 -1.3869  0.1013
 6789TIP3   OH241857   4.471   4.810  14.738  0.0225  0.0207  0.5724
 6789TIP3    H141858   4.483   4.717  14.723 -0.6112 -0.0858  0.7102
 6789TIP3    H241859   4.496   4.824  14.829  2.2600  0.3817 -0.0340
 6790TIP3   OH241860   0.150   6.725  13.603 -0.7231  0.1678  0.3591
 6790TIP3    H141861   0.139   6.737  13.698 -1.9036  0.9976  0.1425
 6790TIP3    H241862   0.073   6.767  13.565 -1.3950 -1.9982 -0.8841
 6791TIP3   OH241863   6.207   1.640  12.653 -0.2081 -0.5734 -0.4825
 6791TIP3    H141864   6.171   1.565  12.606 -0.9550 -1.5236  1.5214
 6791TIP3    H241865   6.242   1.604  12.734 -1.2932  1.3117  0.9015
 6792TIP3   OH241866   4.655   0.063   0.019  0.2641 -0.5585  0.4135
 6792TIP3    H141867   4.719   0.014   0.071 -0.8564 -2.4419  0.1011
 6792TIP3    H241868   4.590   0.094   0.082 -1.0147 -2.7173  0.2469
 6793TIP3   OH241869   2.245   0.932  16.390  0.6978  0.3387  0.3710
 6793TIP3    H141870   2.226   0.994  16.320  0.0063 -1.0829 -0.7391
 6793TIP3    H241871   2.160   0.891  16.409  0.7336  1.0644  2.4577
 6794TIP3   OH241872   1.202   3.967   0.152  0.0657 -0.3387 -0.3593
 6794TIP3    H141873   1.255   4.036   0.112 -0.7002 -0.0531 -0.8801
 6794TIP3    H241874   1.122   3.965   0.101  0.2522 -1.9193 -0.6238
 6795TIP3   OH241875   1.866   6.081   5.085 -0.6259  0.1375  0.4440
 6795TIP3    H141876   1.960   6.067   5.099 -0.3920  1.9709  1.0423
 6795TIP3    H241877   1.857   6.177   5.080 -2.5306  0.0185  0.9462
 6796TIP3   OH241878   3.911   0.520  16.176 -0.0030 -0.0567  0.6925
 6796TIP3    H141879   3.892   0.614  16.167  2.9894  1.0302  3.7563
 6796TIP3    H241880   3.977   0.503  16.109  0.5111  0.3931  1.0823
 6797TIP3   OH241881   0.864   5.815  12.890  0.0194 -0.2717 -0.2257
 6797TIP3    H141882   0.896   5.803  12.979  0.1090  0.6435 -0.1271
 6797TIP3    H241883   0.770   5.801  12.895 -0.1657  0.9893  0.2675
 6798TIP3   OH241884   0.481   3.087  14.786 -0.2399 -0.7082  0.0713
 6798TIP3    H141885   0.521   3.042  14.712  1.2561 -0.1207  0.4863
 6798TIP3    H241886   0.391   3.103  14.759  0.4689  0.1914 -1.9355
 6799TIP3   OH241887   6.343   5.037  13.068 -0.4195  0.2018  0.1669
 6799TIP3    H141888   6.392   5.084  13.001 -0.2324 -1.4164 -0.8933
 6799TIP3    H241889   6.252   5.065  13.056 -0.3750 -0.0093 -0.7296
 6800TIP3   OH241890   6.487   4.268  16.530  0.7123 -0.2868  0.3380
 6800TIP3    H141891   6.493   4.316  16.447  2.4067 -0.1708  0.4851
 6800TIP3    H241892   6.463   4.179  16.505 -0.0723  0.0597 -0.1597
 6801TIP3   OH241893   1.661   3.964  16.445 -0.2408  0.5967 -0.0396
 6801TIP3    H141894   1.738   4.013  16.473 -1.7891  3.3944 -0.3462
 6801TIP3    H241895   1.635   3.914  16.522  0.1967  1.9170  0.9976
 6802TIP3   OH241896   0.484   6.264  10.883 -0.4310  0.4065  0.5222
 6802TIP3    H141897   0.571   6.256  10.846 -0.5310  0.4697  0.2690
 6802TIP3    H241898   0.435   6.190  10.846  0.0174 -0.7667  2.1307
 6803TIP3   OH241899   3.349   6.441  12.346  0.2794  0.5309  0.1531
 6803TIP3    H141900   3.325   6.526  12.309 -0.9221  1.0581  1.9904
 6803TIP3    H241901   3.270   6.412  12.393  1.0888 -0.9785  0.6589
 6804TIP3   OH241902   1.806   3.566   0.732  0.1011  0.0974 -0.6851
 6804TIP3    H141903   1.827   3.593   0.642 -1.5748  0.5738 -0.9775
 6804TIP3    H241904   1.748   3.636   0.765 -1.3221 -1.2803 -0.1400
 6805TIP3   OH241905   3.858   0.097   5.081 -0.3617  0.0682 -0.1957
 6805TIP3    H141906   3.946   0.101   5.044 -0.6780  0.5378 -0.9121
 6805TIP3    H241907   3.871   0.116   5.174  0.1966  1.0134 -0.4492
 6806TIP3   OH241908   2.248   5.029   1.009  0.2038 -0.3479 -0.4264
 6806TIP3    H141909   2.337   5.008   0.980  0.4738 -1.0017  0.8297
 6806TIP3    H241910   2.216   4.948   1.049 -1.0006 -0.1419 -0.9202
 6807TIP3   OH241911   4.503   4.972   4.887  0.1328  0.6449  0.0686
 6807TIP3    H141912   4.436   5.004   4.947  0.4957 -0.2991  0.9981
 6807TIP3    H241913   4.562   5.047   4.875 -0.6134  1.2137 -0.0999
 6808TIP3   OH241914   2.908   4.859   2.093  0.1962  0.3088 -0.3678
 6808TIP3    H141915   2.860   4.933   2.056  0.2803 -0.5263 -2.3097
 6808TIP3    H241916   2.999   4.874   2.066  0.3227 -0.1572 -0.2189
 6809TIP3   OH241917   3.174   5.485  12.284 -0.5160 -0.3747  0.4107
 6809TIP3    H141918   3.229   5.412  12.312 -0.2541  0.1619  1.3731
 6809TIP3    H241919   3.231   5.537  12.227 -0.1554 -0.0449  1.0644
 6810TIP3   OH241920   5.412   1.106   2.701  0.0508  0.9269 -0.8894
 6810TIP3    H141921   5.423   1.067   2.788 -0.8891  0.6213 -0.8974
 6810TIP3    H241922   5.466   1.053   2.643  0.4147  0.9241 -0.5555
 6811TIP3   OH241923   5.314   5.072  17.183  0.4073  0.2451 -0.3846
 6811TIP3    H141924   5.371   5.013  17.232  1.1736  1.0803 -0.2666
 6811TIP3    H241925   5.254   5.108  17.248 -1.7041 -2.1832 -0.7872
 6812TIP3   OH241926   2.012   1.116   4.162  0.4276 -0.0246  0.0114
 6812TIP3    H141927   2.012   1.047   4.229 -1.3058 -1.1054 -1.0318
 6812TIP3    H241928   2.102   1.149   4.162  0.7031 -0.5579  2.2657
 6813TIP3   OH241929   3.303   1.728   4.206  0.1272 -0.6622 -0.2886
 6813TIP3    H141930   3.375   1.730   4.144  0.8418  0.3740  0.5351
 6813TIP3    H241931   3.321   1.800   4.267 -0.5351 -1.6243  1.1222
 6814TIP3   OH241932   2.523   5.750   4.889  0.0978  0.4737  0.2628
 6814TIP3    H141933   2.461   5.814   4.855  0.2024 -0.8217 -2.6866
 6814TIP3    H241934   2.582   5.732   4.815  2.3240 -0.3507  2.1218
 6815TIP3   OH241935   0.363   0.633  12.860  0.6859  0.1013  0.1385
 6815TIP3    H141936   0.350   0.624  12.954 -1.5412  2.5583  0.1747
 6815TIP3    H241937   0.326   0.553  12.823  0.5113 -0.3544  1.2701
 6816TIP3   OH241938   1.588   1.779  12.721  0.1565  0.3282  0.0365
 6816TIP3    H141939   1.583   1.709  12.657  1.4453 -0.6552  0.9496
 6816TIP3    H241940   1.667   1.828  12.696 -0.0541  0.7090  0.1191
 6817TIP3   OH241941   1.869   4.024  14.698  0.1179  0.3165 -0.1958
 6817TIP3    H141942   1.957   4.043  14.665 -0.6222  0.3659 -2.3394
 6817TIP3    H241943   1.820   4.105  14.683 -0.4950  0.0221  0.1861
 6818TIP3   OH241944   5.103   1.833   2.150  0.0343  0.3990  0.3007
 6818TIP3    H141945   5.131   1.826   2.058 -0.1725  1.1865  0.1698
 6818TIP3    H241946   5.069   1.922   2.158 -0.0715  0.2937  1.1143
 6819TIP3   OH241947   3.689   4.404  16.427  0.0960  0.1207 -0.8289
 6819TIP3    H141948   3.641   4.486  16.412 -0.3411  0.0050 -0.1537
 6819TIP3    H241949   3.780   4.426  16.411  0.2567  1.3059  1.2434
 6820TIP3   OH241950   2.075   2.780  14.441 -0.6760  0.0272 -0.0173
 6820TIP3    H141951   2.022   2.815  14.513  1.0073  0.2000  1.2121
 6820TIP3    H241952   2.107   2.858  14.395 -0.5453 -0.0430 -0.0445
 6821TIP3   OH241953   4.994   1.156   5.807 -0.0526 -0.0205 -0.0981
 6821TIP3    H141954   5.030   1.180   5.722 -2.5492  1.1460 -0.9295
 6821TIP3    H241955   4.902   1.182   5.803 -0.0925  0.9168  3.2685
 6822TIP3   OH241956   2.665   0.360  16.413 -0.2676  0.0004 -0.7622
 6822TIP3    H141957   2.623   0.409  16.342 -0.3026 -0.1108 -0.8186
 6822TIP3    H241958   2.661   0.419  16.489 -0.3342  0.0733 -0.8229
 6823TIP3   OH241959   1.834   2.649  15.656  0.1074  0.2417  0.3230
 6823TIP3    H141960   1.797   2.561  15.663 -0.8910  0.6451  0.2025
 6823TIP3    H241961   1.759   2.706  15.638  0.7475  1.1137  0.3412
 6824TIP3   OH241962   5.260   0.534  15.044  0.0145 -0.1907  0.6363
 6824TIP3    H141963   5.169   0.548  15.017  0.2349 -0.2852 -0.1950
 6824TIP3    H241964   5.283   0.449  15.006  0.4395 -0.1767  0.8608
 6825TIP3   OH241965   1.711   2.992   1.573  0.0015 -0.3770  0.0638
 6825TIP3    H141966   1.770   3.041   1.630 -0.0021  0.2091 -0.4206
 6825TIP3    H241967   1.759   2.913   1.551  1.2767  0.7860 -1.5735
 6826TIP3   OH241968   5.150   6.785  14.517 -0.0762 -0.6887 -0.1040
 6826TIP3    H141969   5.140   6.860  14.575 -0.2523 -0.3477 -0.5687
 6826TIP3    H241970   5.205   6.724  14.566 -2.6072 -1.7127  1.6585
 6827TIP3   OH241971   5.083   1.342   3.934  0.0479  0.4555  0.4294
 6827TIP3    H141972   5.079   1.375   3.844 -0.4328 -0.8649 -0.0680
 6827TIP3    H241973   5.009   1.281   3.940 -1.0994  1.9225  2.3360
 6828TIP3   OH241974   3.611   6.419  13.307  0.1864 -0.4017  0.2311
 6828TIP3    H141975   3.686   6.360  13.297 -1.4519 -2.4587 -0.6352
 6828TIP3    H241976   3.611   6.470  13.226  0.3765 -0.7189  0.0283
 6829TIP3   OH241977   5.913   3.395  14.822 -0.2559 -0.1489  0.0090
 6829TIP3    H141978   5.969   3.376  14.898  1.0899 -0.3051 -0.9861
 6829TIP3    H241979   5.944   3.480  14.791 -0.1748 -0.5040 -0.9020
 6830TIP3   OH241980   3.684   4.040  10.826  0.1658  0.1628  0.0564
 6830TIP3    H141981   3.623   4.112  10.810 -0.0129  0.1605  0.6838
 6830TIP3    H241982   3.647   3.966  10.777 -1.6802 -0.5010  2.2697
 6831TIP3   OH241983   3.637   3.058  13.365 -0.4012 -0.2498 -0.1870
 6831TIP3    H141984   3.706   3.125  13.363 -0.9853  0.5138  2.2472
 6831TIP3    H241985   3.675   2.986  13.415 -1.1130 -0.0663  0.6481
 6832TIP3   OH241986   6.101   0.158  14.634  0.4751 -0.3823 -0.6169
 6832TIP3    H141987   6.189   0.125  14.647  0.2762 -0.5063  0.4961
 6832TIP3    H241988   6.051   0.125  14.708 -0.9023 -1.6358 -2.0326
 6833TIP3   OH241989   5.915   2.788   6.585 -0.7879  0.4573 -0.3623
 6833TIP3    H141990   5.888   2.723   6.650 -1.3613  0.6143 -0.4367
 6833TIP3    H241991   5.919   2.870   6.634 -1.4241  0.6138 -0.5641
 6834TIP3   OH241992   4.598   5.697   2.613  0.0330  0.2166  0.0017
 6834TIP3    H141993   4.521   5.753   2.619  0.9050  1.4713  0.0088
 6834TIP3    H241994   4.633   5.715   2.525 -0.2381 -1.0980 -0.3850
 6835TIP3   OH241995   3.849   1.765   5.639  0.5019 -0.9570  0.2953
 6835TIP3    H141996   3.806   1.747   5.723  2.4080 -2.1854  1.0795
 6835TIP3    H241997   3.889   1.851   5.651 -2.6473  0.8373 -0.9110
 6836TIP3   OH241998   4.723   0.320  13.965  0.2112  0.2344  0.5555
 6836TIP3    H141999   4.684   0.397  14.006 -0.5705  0.0553  0.1490
 6836TIP3    H242000   4.725   0.255  14.035  0.2849  0.4137  0.7230
 6837TIP3   OH242001   3.161   5.676   1.544  0.2287  0.4366 -0.0115
 6837TIP3    H142002   3.108   5.672   1.465  0.4123  0.5871 -0.1445
 6837TIP3    H242003   3.098   5.685   1.616  0.0359 -0.3051 -0.0862
 6838TIP3   OH242004   1.002   5.712  13.812 -0.0991  0.0530 -0.4015
 6838TIP3    H142005   1.060   5.758  13.873 -0.1411 -1.0459  0.5079
 6838TIP3    H242006   1.003   5.766  13.733  2.7573 -0.3155 -0.7235
 6839TIP3   OH242007   4.812   1.769   4.696  0.1154  0.6733  0.4323
 6839TIP3    H142008   4.781   1.819   4.621 -1.8423 -1.6718 -0.4733
 6839TIP3    H242009   4.742   1.705   4.711  1.7068 -0.6526  2.5511
 6840TIP3   OH242010   4.673   4.647  11.819 -0.3179 -0.2443 -0.0297
 6840TIP3    H142011   4.664   4.658  11.724 -1.8695 -1.5553 -0.0916
 6840TIP3    H242012   4.583   4.655  11.852  0.1656 -0.1255  1.2925
 6841TIP3   OH242013   6.458   3.696   1.596  0.6459 -0.2680 -0.0274
 6841TIP3    H142014   6.518   3.762   1.631  1.7228 -1.5591  0.6727
 6841TIP3    H242015   6.380   3.702   1.651  0.6747  0.4985 -0.0609
 6842TIP3   OH242016   0.928   1.518   3.179 -0.0133 -0.1646  0.4274
 6842TIP3    H142017   0.869   1.461   3.132 -0.7696 -0.5576  1.7986
 6842TIP3    H242018   0.915   1.605   3.140 -1.9279 -0.1267  1.0603
 6843TIP3   OH242019   2.126   2.206  15.918 -0.1087  0.5937 -0.3351
 6843TIP3    H142020   2.119   2.208  15.822  0.7632 -0.8822 -0.4584
 6843TIP3    H242021   2.038   2.227  15.948 -1.1496 -1.6468 -1.5448
 6844TIP3   OH242022   6.712   4.231   5.736  0.3112  0.0510  0.1474
 6844TIP3    H142023   6.713   4.323   5.709  4.1144  0.1533  0.2054
 6844TIP3    H242024   6.747   4.231   5.825  0.9514 -1.4878 -0.0762
 6845TIP3   OH242025   3.869   5.874  15.844 -0.2371  0.2777 -0.5353
 6845TIP3    H142026   3.803   5.879  15.914 -0.4549 -1.2804 -0.6049
 6845TIP3    H242027   3.818   5.870  15.763 -0.0713 -0.7928 -0.5984
 6846TIP3   OH242028   6.154   4.442  11.869  0.2841 -0.4064 -0.6245
 6846TIP3    H142029   6.145   4.536  11.848 -1.2089 -0.7016 -1.4418
 6846TIP3    H242030   6.070   4.404  11.845 -0.0873 -1.5510  2.1230
 6847TIP3   OH242031   3.043   1.968  12.552 -0.1705 -0.0328  0.1065
 6847TIP3    H142032   2.990   1.889  12.541 -0.8278  0.1335  1.7192
 6847TIP3    H242033   2.979   2.038  12.567  0.4305  0.0304  2.9037
 6848TIP3   OH242034   3.683   1.602  12.836  0.4576 -0.1858 -0.3605
 6848TIP3    H142035   3.616   1.657  12.795 -0.2268 -2.2984 -2.3519
 6848TIP3    H242036   3.699   1.642  12.921 -2.6114  0.9841 -0.2119
 6849TIP3   OH242037   5.313   0.035   4.945 -0.4598 -0.1390  0.8723
 6849TIP3    H142038   5.387   0.015   4.887 -1.3009 -0.5590 -0.0725
 6849TIP3    H242039   5.336   0.120   4.982 -0.6752  1.0276 -1.4437
 6850TIP3   OH242040   2.198   2.384  10.637  0.8382 -0.4098  0.0201
 6850TIP3    H142041   2.129   2.325  10.666  0.0837 -0.5112 -1.8537
 6850TIP3    H242042   2.163   2.472  10.651  1.2082 -0.4205  1.0621
 6851TIP3   OH242043   5.727   1.714   1.215 -0.1278  0.0237  0.1030
 6851TIP3    H142044   5.765   1.802   1.212 -0.8986  0.3286 -1.0156
 6851TIP3    H242045   5.649   1.719   1.160 -0.6037 -1.1687  0.6325
 6852TIP3   OH242046   5.458   5.971   5.176  0.3548 -0.2983  0.1059
 6852TIP3    H142047   5.532   6.002   5.228  0.6507 -1.3059  0.3083
 6852TIP3    H242048   5.396   5.937   5.240 -0.0554  0.0690 -0.0962
 6853TIP3   OH242049   0.136   4.143  15.933  0.0566  0.3332  0.2287
 6853TIP3    H142050   0.190   4.110  15.860  0.0741  2.9194 -1.0230
 6853TIP3    H242051   0.068   4.195  15.890 -1.7184 -0.4491  1.9582
 6854TIP3   OH242052   5.724   2.106   3.470  0.2880  0.6759 -0.5912
 6854TIP3    H142053   5.709   2.175   3.535 -0.1806 -0.7776  0.9037
 6854TIP3    H242054   5.819   2.094   3.469  0.3442  1.0938 -0.6064
 6855TIP3   OH242055   3.716   0.967  10.969 -0.0611  0.2921  0.2890
 6855TIP3    H142056   3.703   0.901  10.901  1.0963 -0.6281  0.9155
 6855TIP3    H242057   3.630   0.980  11.008 -0.3392 -0.7085  0.0238
 6856TIP3   OH242058   4.172   0.083   1.206  0.0558 -0.9228  0.2071
 6856TIP3    H142059   4.119   0.163   1.207 -0.2261 -1.1110  0.5238
 6856TIP3    H242060   4.262   0.114   1.211 -0.0576 -0.6285  0.4671
 6857TIP3   OH242061   6.074   1.927   4.120  0.3665 -0.2853  0.3563
 6857TIP3    H142062   6.102   1.894   4.034 -0.2570 -2.1310  0.8245
 6857TIP3    H242063   5.985   1.894   4.130 -0.6067  2.1744  0.6013
 6858TIP3   OH242064   5.198   2.340   4.215 -0.1900  0.3488 -0.1884
 6858TIP3    H142065   5.184   2.412   4.154 -0.8487  0.9729  0.6567
 6858TIP3    H242066   5.109   2.308   4.234 -0.1033  0.8494  1.2040
 6859TIP3   OH242067   6.541   5.726  13.449  0.3409  0.0876 -0.1374
 6859TIP3    H142068   6.547   5.797  13.513 -0.9414  0.7744 -0.7373
 6859TIP3    H242069   6.605   5.661  13.478 -0.4267  0.2321  2.0157
 6860TIP3   OH242070   0.453   1.219   1.270  0.1941 -0.2807  0.0289
 6860TIP3    H142071   0.430   1.206   1.178 -0.5579 -0.3967  0.2228
 6860TIP3    H242072   0.507   1.298   1.271  3.4093 -2.2681 -0.9762
 6861TIP3   OH242073   2.483   2.039  11.323 -0.0400  0.0614  0.0062
 6861TIP3    H142074   2.497   2.131  11.347 -0.8028  0.0313  0.6488
 6861TIP3    H242075   2.554   2.018  11.262  0.1198  1.0871 -0.1798
 6862TIP3   OH242076   3.223   4.042   4.176 -0.3769  0.0466 -0.3472
 6862TIP3    H142077   3.224   4.100   4.253  0.6256 -1.5119  0.8846
 6862TIP3    H242078   3.144   3.989   4.188 -0.6489  0.3252 -0.8463
 6863TIP3   OH242079   0.664   5.919  12.162  0.4848 -0.6550  0.1761
 6863TIP3    H142080   0.658   5.915  12.067  0.7121 -3.1503  0.1923
 6863TIP3    H242081   0.752   5.952  12.179  0.3379  0.0866 -0.4573
 6864TIP3   OH242082   2.426   6.448  13.145 -0.3508  0.2313 -0.2435
 6864TIP3    H142083   2.449   6.520  13.087  0.9044 -1.8520 -2.5547
 6864TIP3    H242084   2.345   6.475  13.187  0.2579  3.0800 -0.7367
 6865TIP3   OH242085   2.207   5.018  17.096 -0.5095  0.0641  0.0511
 6865TIP3    H142086   2.150   5.031  17.019 -2.0414 -0.4748  1.0322
 6865TIP3    H242087   2.199   5.099  17.146  0.4170  0.3801 -0.3049
 6866TIP3   OH242088   3.836   0.741  11.851  0.1332 -0.4130 -0.0480
 6866TIP3    H142089   3.812   0.794  11.776  2.0202 -0.6807 -0.8836
 6866TIP3    H242090   3.906   0.790  11.894  0.3613 -1.1546  0.4509
 6867TIP3   OH242091   2.596   5.082  11.945  0.1076  0.6254  0.6411
 6867TIP3    H142092   2.605   5.002  11.894 -0.4514  1.0291 -0.1126
 6867TIP3    H242093   2.684   5.100  11.978  0.1673 -0.5007  1.1565
 6868TIP3   OH242094   6.330   0.328   6.427 -0.3860 -0.2531 -0.1102
 6868TIP3    H142095   6.351   0.368   6.343  0.6550 -0.2543  0.1303
 6868TIP3    H242096   6.316   0.402   6.486 -0.8637 -0.2518 -0.2242
 6869TIP3   OH242097   2.481   0.596   2.483 -0.2127  0.1372 -0.2945
 6869TIP3    H142098   2.485   0.634   2.571  1.5324  0.5965 -0.5391
 6869TIP3    H242099   2.572   0.593   2.454 -0.7018 -0.5834 -1.8522
 6870TIP3   OH242100   0.047   4.801  14.892  0.5438  0.4666 -0.1771
 6870TIP3    H142101   0.069   4.710  14.876  0.3734  0.2815  0.6141
 6870TIP3    H242102   0.045   4.809  14.987 -0.2377  1.0962 -0.2396
 6871TIP3   OH242103   4.371   4.349   2.468  0.1541  0.4653 -0.7063
 6871TIP3    H142104   4.302   4.409   2.496  1.8955  1.9297  0.6986
 6871TIP3    H242105   4.445   4.405   2.446  1.5480 -1.1078 -0.3108
 6872TIP3   OH242106   2.367   3.124  16.336  0.2732  0.2215  0.4097
 6872TIP3    H142107   2.287   3.121  16.389  1.4740 -0.7259  2.2939
 6872TIP3    H242108   2.336   3.137  16.247 -2.4013 -4.5381  0.2934
 6873TIP3   OH242109   4.968   2.430  15.849 -0.5994  0.0525 -0.1195
 6873TIP3    H142110   4.936   2.452  15.761  1.0008  0.0984 -0.7210
 6873TIP3    H242111   5.049   2.480  15.858  1.0550 -2.4676  0.0298
 6874TIP3   OH242112   1.439   5.288  14.867  0.4445  0.0551 -0.0507
 6874TIP3    H142113   1.449   5.211  14.811 -1.3964  1.3041 -2.2318
 6874TIP3    H242114   1.456   5.255  14.955 -0.3754 -2.9058 -0.8744
 6875TIP3   OH242115   0.657   4.775   2.197 -0.0169 -0.2411  0.3436
 6875TIP3    H142116   0.582   4.728   2.233  0.3849 -0.0517  1.4516
 6875TIP3    H242117   0.641   4.775   2.102 -0.8657 -1.1368  0.4626
 6876TIP3   OH242118   0.424   3.171  13.550  0.2978  0.0553  0.1520
 6876TIP3    H142119   0.494   3.107  13.565 -1.0057 -1.3976  0.2704
 6876TIP3    H242120   0.444   3.243  13.610  1.8177 -0.2060 -0.0081
 6877TIP3   OH242121   3.105   3.183  15.528 -0.3300  0.1211 -0.2946
 6877TIP3    H142122   3.058   3.143  15.456 -0.3188  0.3037 -0.4036
 6877TIP3    H242123   3.047   3.251  15.561 -0.0470  0.5005 -0.5787
 6878TIP3   OH242124   5.895   1.384   3.281  0.0889 -0.0572 -0.0959
 6878TIP3    H142125   5.973   1.381   3.337  0.0999  0.4767 -0.0829
 6878TIP3    H242126   5.858   1.471   3.295  0.2951  0.2283 -1.1762
 6879TIP3   OH242127   0.692   6.261  12.323 -0.0173  0.0574 -0.6353
 6879TIP3    H142128   0.761   6.292  12.264 -1.3009 -0.3255 -2.4364
 6879TIP3    H242129   0.620   6.239  12.265 -1.1569 -0.9196  1.0732
 6880TIP3   OH242130   0.362   0.025   3.981  0.4858 -0.4059 -0.0599
 6880TIP3    H142131   0.374  -0.055   3.930 -1.1587 -1.7221  1.4426
 6880TIP3    H242132   0.370  -0.004   4.072 -2.1927  0.6623  0.6092
 6881TIP3   OH242133   4.533   1.073   4.935  0.4084 -0.0230 -0.7701
 6881TIP3    H142134   4.599   1.143   4.933  0.6857 -0.2721 -2.9929
 6881TIP3    H242135   4.516   1.059   5.028  3.2681  0.2514 -0.1010
 6882TIP3   OH242136   2.739   3.025   6.098  0.1703  0.1115  0.7413
 6882TIP3    H142137   2.808   2.988   6.153  0.4070 -0.2256  0.2200
 6882TIP3    H242138   2.678   3.064   6.160  0.3166 -0.4644  1.2597
 6883TIP3   OH242139   5.046   1.560  13.736 -0.0081 -0.0350  0.7351
 6883TIP3    H142140   5.024   1.490  13.796  1.7148 -2.1327 -0.8965
 6883TIP3    H242141   5.103   1.618  13.787  2.5208 -2.4667  0.9395
 6884TIP3   OH242142   0.229   5.083   2.067  0.5474  0.6269 -0.9478
 6884TIP3    H142143   0.264   5.167   2.097 -1.0047  1.4992 -1.4532
 6884TIP3    H242144   0.281   5.017   2.113  1.6628  1.8609 -0.3843
 6885TIP3   OH242145   1.617   2.591  15.923 -0.2346 -0.2872 -0.1910
 6885TIP3    H142146   1.567   2.632  15.993 -1.5152 -1.6987 -0.2361
 6885TIP3    H242147   1.555   2.584  15.850 -0.4088 -3.1270  0.1265
 6886TIP3   OH242148   3.486   3.596  14.281 -0.1994 -0.1709 -0.4894
 6886TIP3    H142149   3.484   3.660  14.210  1.0518  1.6852  1.0265
 6886TIP3    H242150   3.415   3.624  14.339  0.6866  0.2000  0.4424
 6887TIP3   OH242151   2.299   2.978  12.349 -0.7573  0.5034  0.5465
 6887TIP3    H142152   2.370   2.944  12.296 -1.1113  1.7742 -0.8271
 6887TIP3    H242153   2.334   2.980  12.438 -0.1642 -1.7315  0.4183
 6888TIP3   OH242154   4.811   0.445   1.059 -0.3079  0.3472 -0.0609
 6888TIP3    H142155   4.846   0.480   1.141 -1.0953  1.5863 -0.2253
 6888TIP3    H242156   4.884   0.452   0.997  0.1062 -0.0367  0.3739
 6889TIP3   OH242157   4.375   6.437  11.639  0.0109  0.6710 -0.3512
 6889TIP3    H142158   4.360   6.429  11.545  1.1495  0.9263 -0.5677
 6889TIP3    H242159   4.469   6.449  11.648 -0.0540  0.4734  0.8418
 6890TIP3   OH242160   1.017   3.744   6.365 -0.7737  0.2362  0.5255
 6890TIP3    H142161   1.013   3.736   6.269 -2.6855  0.6759  0.5243
 6890TIP3    H242162   1.087   3.684   6.391 -1.1463 -0.9471 -1.0549
 6891TIP3   OH242163   1.586   2.007   3.538  0.2015  0.2082 -0.0305
 6891TIP3    H142164   1.586   2.102   3.550  1.0765  0.3027 -0.7018
 6891TIP3    H242165   1.578   1.972   3.626  0.3155  0.9048  0.2634
 6892TIP3   OH242166   2.051   0.818   6.587  0.2727 -0.1028  0.4307
 6892TIP3    H142167   2.143   0.837   6.567 -0.1552 -0.2705 -2.1606
 6892TIP3    H242168   2.034   0.735   6.542 -1.8636  1.3963 -1.7915
 6893TIP3   OH242169   5.780   3.528  12.618 -0.0363  0.3413  0.2928
 6893TIP3    H142170   5.822   3.564  12.697  2.2955 -2.2352  0.4063
 6893TIP3    H242171   5.854   3.503  12.562 -1.5288 -1.2711 -1.0604
 6894TIP3   OH242172   0.214   4.683  16.905  0.1053  0.4524  0.2184
 6894TIP3    H142173   0.248   4.595  16.922  0.4954 -0.1808 -3.1347
 6894TIP3    H242174   0.119   4.672  16.900  0.0313  0.5442  1.2144
 6895TIP3   OH242175   6.141   1.947  15.141  0.3953 -0.3426  0.0069
 6895TIP3    H142176   6.151   2.042  15.143 -0.2543 -0.2130 -1.6544
 6895TIP3    H242177   6.063   1.930  15.195 -0.3358  0.2124 -0.8500
 6896TIP3   OH242178   1.224   1.134  16.612  0.3047 -0.2794 -0.1096
 6896TIP3    H142179   1.203   1.074  16.540 -0.5059 -0.2797  0.1082
 6896TIP3    H242180   1.140   1.145  16.658  0.5328  0.6885  0.0996
 6897TIP3   OH242181   1.697   2.567   5.268  0.0325 -0.3844 -0.2564
 6897TIP3    H142182   1.738   2.489   5.231  1.2766 -0.2793  0.8098
 6897TIP3    H242183   1.651   2.536   5.346 -1.9196 -0.4834 -1.4021
 6898TIP3   OH242184   6.339   4.135   1.534 -0.1671 -0.3685 -0.3889
 6898TIP3    H142185   6.378   4.222   1.528  0.2858 -0.5887 -0.7208
 6898TIP3    H242186   6.270   4.135   1.467  1.0799 -0.8830 -1.7454
 6899TIP3   OH242187   6.135   2.594  14.418 -0.0408 -0.2883 -0.2410
 6899TIP3    H142188   6.119   2.586  14.512 -0.6074 -0.3453 -0.3343
 6899TIP3    H242189   6.186   2.516  14.395 -0.2215 -0.4640 -0.0475
 6900TIP3   OH242190   3.598   0.300   3.192  0.2687  0.7183 -1.1757
 6900TIP3    H142191   3.538   0.306   3.118  0.7015 -0.4050 -1.6370
 6900TIP3    H242192   3.541   0.284   3.268 -0.0088 -1.0004 -1.7035
 6901TIP3   OH242193   2.707   0.797   5.149  0.0769 -0.4095  0.1173
 6901TIP3    H142194   2.775   0.833   5.092 -0.8413 -0.9940 -1.4252
 6901TIP3    H242195   2.671   0.723   5.099 -2.4111  0.5430  0.3455
 6902TIP3   OH242196   2.060   4.146   1.085 -0.1762 -0.2002  0.3717
 6902TIP3    H142197   2.028   4.218   1.032 -0.2176 -0.6203 -0.1833
 6902TIP3    H242198   1.984   4.119   1.137 -0.5785 -0.8292 -0.5319
 6903TIP3   OH242199   6.532   3.696  14.512  0.1348 -0.0162  0.1284
 6903TIP3    H142200   6.467   3.705  14.442  0.8735 -1.3773 -0.7836
 6903TIP3    H242201   6.595   3.766  14.496 -0.1072  0.1531 -0.0972
 6904TIP3   OH242202   6.481   3.420  16.161 -0.0570 -0.6618  0.4643
 6904TIP3    H142203   6.419   3.439  16.232 -0.5028  0.5325 -0.2175
 6904TIP3    H242204   6.446   3.468  16.086  1.4361 -0.3661 -0.0639
 6905TIP3   OH242205   2.424   2.876   1.756 -0.1667 -0.6122  0.1497
 6905TIP3    H142206   2.338   2.836   1.744 -0.5417  0.0769  0.5068
 6905TIP3    H242207   2.406   2.964   1.787  0.4440  1.3118 -4.1460
 6906TIP3   OH242208   1.424   3.096  15.036  0.3926  0.1416  0.2277
 6906TIP3    H142209   1.516   3.111  15.011 -0.1279 -0.4175 -2.3466
 6906TIP3    H242210   1.386   3.183  15.042  0.8676  0.3465  0.3025
 6907TIP3   OH242211   5.950   3.051  13.313  0.6463 -0.2054 -0.0275
 6907TIP3    H142212   5.950   2.959  13.340 -0.8988 -0.0649  0.5377
 6907TIP3    H242213   5.974   3.099  13.392 -0.1212 -0.0349  0.1092
 6908TIP3   OH242214   1.580   6.601   3.334  0.1791 -0.2432  0.2285
 6908TIP3    H142215   1.525   6.546   3.389 -0.2855 -2.0303 -1.8878
 6908TIP3    H242216   1.617   6.542   3.269  1.7061  1.5427 -0.6568
 6909TIP3   OH242217   1.893   2.695   1.067  0.2321  0.1041 -0.5382
 6909TIP3    H142218   1.978   2.708   1.109 -0.5106  0.5191  0.9087
 6909TIP3    H242219   1.853   2.782   1.066 -0.9902 -0.3989  0.6855
 6910TIP3   OH242220   4.130   4.508   1.106 -0.6333  0.3186  0.4752
 6910TIP3    H142221   4.200   4.522   1.043  0.1651  2.1850  1.7115
 6910TIP3    H242222   4.051   4.498   1.052  0.2702  0.1363 -0.8577
 6911TIP3   OH242223   5.645   0.385  13.743 -0.6003 -0.0994  0.6136
 6911TIP3    H142224   5.621   0.296  13.766  0.2922 -1.0650 -1.7532
 6911TIP3    H242225   5.732   0.376  13.703 -0.2030  1.9347  0.9060
 6912TIP3   OH242226   0.955   3.992  16.156  0.5498  0.1526 -0.6270
 6912TIP3    H142227   0.982   3.909  16.196 -0.9370  0.0929  0.3390
 6912TIP3    H242228   0.873   3.971  16.111 -1.1488  1.5010  1.5913
 6913TIP3   OH242229   0.772   3.792  11.916 -0.4440 -0.2173  0.7351
 6913TIP3    H142230   0.748   3.715  11.866 -0.2256  0.7164 -0.8905
 6913TIP3    H242231   0.857   3.818  11.880 -0.5248  0.7851  1.2286
 6914TIP3   OH242232   1.873   1.631   0.488  0.2221  0.4246 -0.0027
 6914TIP3    H142233   1.861   1.549   0.439 -1.0431  0.8445 -0.4389
 6914TIP3    H242234   1.945   1.612   0.548  1.7599 -0.1284 -1.9422
 6915TIP3   OH242235   0.043   1.311  13.501 -0.6443 -0.2502  0.4801
 6915TIP3    H142236   0.069   1.230  13.543  0.4597  1.1374  2.6254
 6915TIP3    H242237   0.125   1.351  13.472 -1.1363  0.2758 -0.2234
 6916TIP3   OH242238   0.321   1.164  13.650  0.2394  0.2255 -0.2933
 6916TIP3    H142239   0.338   1.126  13.736  1.5762  1.9627  0.2460
 6916TIP3    H242240   0.347   1.095  13.588  0.7770 -0.4582  0.6634
 6917TIP3   OH242241   0.863   2.829  17.024  0.3472 -0.2787  0.2334
 6917TIP3    H142242   0.788   2.768  17.023 -0.8453  1.1100 -1.4418
 6917TIP3    H242243   0.840   2.896  16.960  2.7089  0.6480  0.2568
 6918TIP3   OH242244   2.451   1.701   6.594 -0.6693  0.0251  0.6612
 6918TIP3    H142245   2.511   1.734   6.661  0.9428 -0.5187 -0.4572
 6918TIP3    H242246   2.394   1.640   6.640  0.0466  0.0803  1.6454
 6919TIP3   OH242247   5.541   5.800  12.260  0.2167 -0.0950 -0.2854
 6919TIP3    H142248   5.635   5.797  12.244  0.4291 -0.3141  0.9313
 6919TIP3    H242249   5.502   5.808  12.173  1.4407  2.3940 -0.6671
 6920TIP3   OH242250   6.225   1.269   2.958 -0.2656  0.4887  0.1394
 6920TIP3    H142251   6.136   1.282   2.991 -0.0214 -0.4834  1.2241
 6920TIP3    H242252   6.225   1.180   2.923  0.1101  0.7159 -0.4673
 6921TIP3   OH242253   1.479   1.705  11.302 -0.6645 -0.0208 -0.1309
 6921TIP3    H142254   1.431   1.759  11.364 -1.5273 -1.5147  0.5600
 6921TIP3    H242255   1.569   1.704  11.335 -0.2294  2.2671 -1.0711
 6922TIP3   OH242256   3.390   5.918  15.669  0.1557 -0.7324  0.3351
 6922TIP3    H142257   3.451   5.854  15.704  0.5874  0.0634  1.0944
 6922TIP3    H242258   3.419   6.002  15.706 -0.7899 -0.1935 -0.0879
 6923TIP3   OH242259   5.834   1.814   4.944 -0.1276 -0.8026 -0.0027
 6923TIP3    H142260   5.826   1.904   4.975  2.3468 -1.0303  1.6031
 6923TIP3    H242261   5.928   1.802   4.929 -0.6411 -2.4205 -2.5580
 6924TIP3   OH242262   3.177   3.743  11.356  0.2474  0.0596 -0.0149
 6924TIP3    H142263   3.242   3.805  11.388  1.9071 -2.1337  1.1333
 6924TIP3    H242264   3.096   3.794  11.350  1.0019  1.8522  2.9092
 6925TIP3   OH242265   2.689   5.898  14.983  0.0793  0.5282  0.4393
 6925TIP3    H142266   2.638   5.925  15.059 -0.4623  1.2557 -0.1793
 6925TIP3    H242267   2.665   5.960  14.914  0.3803 -0.2670 -0.3986
 6926TIP3   OH242268   3.166   5.170   1.947 -0.1239 -0.0354 -0.0545
 6926TIP3    H142269   3.142   5.259   1.920  1.2464  0.5401  0.5506
 6926TIP3    H242270   3.252   5.179   1.987 -1.0195 -1.2294  2.3414
 6927TIP3   OH242271   5.977   3.551   0.368  0.4757  0.2024 -0.5095
 6927TIP3    H142272   5.896   3.588   0.335  1.0502  0.8635 -1.2255
 6927TIP3    H242273   6.026   3.627   0.400  0.7163 -0.2155  0.1451
 6928TIP3   OH242274   3.275   2.182   4.124  0.3235 -0.3214  0.0042
 6928TIP3    H142275   3.306   2.211   4.038 -2.5816  0.6682 -0.8283
 6928TIP3    H242276   3.321   2.238   4.186  0.6707  0.6472 -1.0854
 6929TIP3   OH242277   1.516   0.190   5.652  0.2932  0.5846  0.0170
 6929TIP3    H142278   1.585   0.244   5.614 -0.6951  1.9136  0.0245
 6929TIP3    H242279   1.507   0.221   5.742 -0.6096  0.7591 -0.1175
 6930TIP3   OH242280   4.565   2.731  15.829  0.3625 -0.1003  0.2880
 6930TIP3    H142281   4.615   2.676  15.890  1.1004  1.0053  0.7143
 6930TIP3    H242282   4.508   2.784  15.886  0.5099  0.4110 -0.0337
 6931TIP3   OH242283   3.006   6.710   6.085  0.0170 -0.2377 -0.3622
 6931TIP3    H142284   2.971   6.680   6.168  0.3844  0.7697  0.1680
 6931TIP3    H242285   2.947   6.779   6.056 -0.7322 -1.2970 -1.4994
 6932TIP3   OH242286   0.857   2.661  12.522  0.3459  0.2408 -0.5345
 6932TIP3    H142287   0.783   2.617  12.564  0.2652  0.9298  0.0770
 6932TIP3    H242288   0.884   2.602  12.452 -0.9366  0.0928 -0.9277
 6933TIP3   OH242289   4.179   4.906  11.191 -0.0609  0.0063  0.6618
 6933TIP3    H142290   4.242   4.834  11.193  0.5295  0.5403  1.3288
 6933TIP3    H242291   4.202   4.961  11.265 -1.2429  0.2758  0.8458
 6934TIP3   OH242292   6.441   4.976   3.012  0.3531  0.0337  0.4671
 6934TIP3    H142293   6.460   5.057   3.058 -2.9580  1.3647 -0.3018
 6934TIP3    H242294   6.528   4.942   2.988  1.8818  3.4030  0.6333
 6935TIP3   OH242295   0.336   3.406  15.701  0.0689 -0.0760 -0.3529
 6935TIP3    H142296   0.273   3.477  15.713 -0.6006 -0.4624 -1.4739
 6935TIP3    H242297   0.417   3.450  15.674 -0.3545  0.2804 -1.0822
 6936TIP3   OH242298   0.743   4.263   4.395  0.1867  0.7844  0.3471
 6936TIP3    H142299   0.711   4.350   4.418  2.4298  2.1860 -1.4007
 6936TIP3    H242300   0.668   4.206   4.407 -1.7336  3.1532  0.4081
 6937TIP3   OH242301   0.407   3.292  15.304  0.1385  0.5285 -0.4410
 6937TIP3    H142302   0.456   3.256  15.230 -0.2090 -0.2960 -0.2759
 6937TIP3    H242303   0.439   3.245  15.380 -0.9067 -0.0347 -0.3291
 6938TIP3   OH242304   3.235   0.666  13.268 -0.5610  0.2358 -0.4047
 6938TIP3    H142305   3.260   0.759  13.267 -2.3911  0.8377  1.2182
 6938TIP3    H242306   3.139   0.668  13.265 -0.7671 -1.4320  2.1353
 6939TIP3   OH242307   1.485   0.046  14.418  0.4914 -0.4028 -0.2310
 6939TIP3    H142308   1.448   0.104  14.352  0.7791  1.6696  1.3304
 6939TIP3    H242309   1.417   0.039  14.486  1.1002 -0.5300  0.3798
 6940TIP3   OH242310   3.269   3.786  15.303 -0.0692 -0.0006  0.2982
 6940TIP3    H142311   3.347   3.809  15.353 -1.1093  2.0089  1.1297
 6940TIP3    H242312   3.224   3.720  15.356  0.0748  0.2884  0.7748
 6941TIP3   OH242313   5.993   0.060  14.370  0.0263  0.0065  0.2116
 6941TIP3    H142314   6.018   0.087  14.458  0.7590  1.2247 -0.3417
 6941TIP3    H242315   5.903   0.089  14.361 -0.5177 -1.3336  1.0100
 6942TIP3   OH242316   4.544   3.035  12.144 -0.3558 -0.3710 -0.4903
 6942TIP3    H142317   4.606   3.016  12.074  0.6571  1.0163 -0.0173
 6942TIP3    H242318   4.485   3.101  12.107 -0.2775 -0.1885 -0.2971
 6943TIP3   OH242319   6.571   2.230  12.976  0.2019 -0.0711 -0.6270
 6943TIP3    H142320   6.521   2.291  13.030 -0.2735  0.2694 -1.4313
 6943TIP3    H242321   6.603   2.164  13.037  0.6241  0.9146  0.2453
 6944TIP3   OH242322   1.391   4.547  15.406 -0.4147 -0.2652  0.7345
 6944TIP3    H142323   1.399   4.460  15.445  4.0780 -0.5773 -0.3053
 6944TIP3    H242324   1.351   4.532  15.321  0.6550 -1.4614  0.4060
 6945TIP3   OH242325   0.679   1.966  13.872 -0.5941  0.4496 -0.6246
 6945TIP3    H142326   0.597   2.010  13.892 -0.6971  0.3257 -0.7782
 6945TIP3    H242327   0.672   1.941  13.780 -0.7160 -0.2683 -0.4277
 6946TIP3   OH242328   4.264   6.347   4.293  0.0167  0.4226  0.7005
 6946TIP3    H142329   4.313   6.322   4.215  1.4651  0.0855  1.6833
 6946TIP3    H242330   4.174   6.319   4.274  0.4671 -0.2710 -0.5648
 6947TIP3   OH242331   6.208   5.167   3.593  0.0118 -0.1529  0.6205
 6947TIP3    H142332   6.282   5.155   3.533  0.5332  2.0439  0.7269
 6947TIP3    H242333   6.248   5.166   3.680 -0.2627 -0.1733  0.7479
 6948TIP3   OH242334   5.827   2.138   2.292  0.0701  0.1836  0.4406
 6948TIP3    H142335   5.902   2.083   2.268 -0.1423  0.3194 -0.5785
 6948TIP3    H242336   5.836   2.150   2.386  0.9453 -0.3753  0.4451
 6949TIP3   OH242337   1.258   6.554   5.970 -0.0842  0.4358  0.0219
 6949TIP3    H142338   1.198   6.519   6.036  0.0852  0.5603  0.2420
 6949TIP3    H242339   1.219   6.638   5.944 -0.8684 -0.2106 -1.0162
 6950TIP3   OH242340   5.818   6.555   3.881 -1.0217 -0.3080 -0.0913
 6950TIP3    H142341   5.723   6.570   3.886 -1.3466 -1.8709 -0.8337
 6950TIP3    H242342   5.833   6.527   3.791  0.0005 -0.9210  0.2548
 6951TIP3   OH242343   6.304   2.474  14.907  0.4143  0.4376 -0.4827
 6951TIP3    H142344   6.343   2.558  14.931 -0.4906  0.9198 -0.6699
 6951TIP3    H242345   6.337   2.456  14.819  1.2943  0.1648 -0.1069
 6952TIP3   OH242346   4.592   4.363   5.214 -0.4431  0.0016  0.4977
 6952TIP3    H142347   4.523   4.403   5.268 -0.1503 -0.1272  0.9723
 6952TIP3    H242348   4.551   4.284   5.179 -0.3577 -0.3948  1.2621
 6953TIP3   OH242349   6.255   0.056  16.223 -0.1549 -0.2132 -0.0500
 6953TIP3    H142350   6.223  -0.020  16.174  2.0018 -1.6930  0.6930
 6953TIP3    H242351   6.335   0.026  16.265  0.4374  2.3123  0.8286
 6954TIP3   OH242352   5.171   5.572   2.522  0.0639  0.4684  0.1919
 6954TIP3    H142353   5.241   5.634   2.499 -0.6357  1.5509  0.8619
 6954TIP3    H242354   5.106   5.584   2.453  0.6841 -0.8409 -0.6626
 6955TIP3   OH242355   4.940   2.561   1.337 -0.1526  0.2116 -0.4920
 6955TIP3    H142356   5.026   2.534   1.304  0.1910  1.4932 -0.6876
 6955TIP3    H242357   4.884   2.484   1.325  0.2089  0.2920 -3.1834
 6956TIP3   OH242358   2.416   0.812   5.425 -0.0377  0.6144  0.3493
 6956TIP3    H142359   2.389   0.846   5.510  0.8696  2.8509 -0.1876
 6956TIP3    H242360   2.511   0.819   5.425 -0.0187  0.5695 -0.8224
 6957TIP3   OH242361   2.989   3.093   4.742  0.5844 -0.3443 -0.0653
 6957TIP3    H142362   3.075   3.061   4.716  0.0034 -2.0271 -0.0679
 6957TIP3    H242363   2.947   3.018   4.784 -0.2717  0.9188  1.4592
 6958TIP3   OH242364   2.714   3.278  11.288 -0.1468  0.9528 -0.0358
 6958TIP3    H142365   2.628   3.280  11.247 -0.1503  3.5249 -0.0182
 6958TIP3    H242366   2.775   3.269  11.215 -0.3449  0.0185 -0.1092
 6959TIP3   OH242367   3.347   5.772   1.291  0.0966 -0.0815  0.3321
 6959TIP3    H142368   3.264   5.732   1.316  0.7891 -1.7377  0.1479
 6959TIP3    H242369   3.359   5.746   1.199  0.5489  0.6112  0.1911
 6960TIP3   OH242370   1.347   0.831   3.679  0.1370 -0.3507 -0.1709
 6960TIP3    H142371   1.410   0.891   3.640  0.9230 -0.2096  1.2733
 6960TIP3    H242372   1.354   0.751   3.626  0.4165  0.1845 -0.9567
 6961TIP3   OH242373   3.362   6.372   4.474 -0.6823 -0.5971  0.2323
 6961TIP3    H142374   3.353   6.350   4.567  1.6320 -1.1701  0.3790
 6961TIP3    H242375   3.381   6.288   4.431 -1.3655 -0.2812 -0.7215
 6962TIP3   OH242376   0.877   3.309  14.545  0.1029  0.1658  0.1446
 6962TIP3    H142377   0.804   3.309  14.483 -0.7298 -0.6198  1.0844
 6962TIP3    H242378   0.836   3.293  14.630  1.2232  1.1674  0.8964
 6963TIP3   OH242379   4.995   1.513  14.458 -0.7127  0.8216 -0.4650
 6963TIP3    H142380   5.005   1.554  14.544  2.7289  0.6054 -0.6230
 6963TIP3    H242381   4.901   1.504  14.447 -1.3370  1.8224  2.8099
 6964TIP3   OH242382   4.205   5.815  16.970 -0.6356 -0.1511 -0.2898
 6964TIP3    H142383   4.183   5.725  16.946 -1.8710  0.6547 -2.3613
 6964TIP3    H242384   4.137   5.868  16.931  0.0920  1.7263  0.8681
 6965TIP3   OH242385   6.024   3.423   2.438  0.5944 -0.0297 -0.2939
 6965TIP3    H142386   5.929   3.429   2.446  0.5865 -0.9002  0.5391
 6965TIP3    H242387   6.054   3.514   2.431 -0.3579  0.2061 -1.5267
 6966TIP3   OH242388   5.235   3.812  11.003  0.0117  0.3519  0.0519
 6966TIP3    H142389   5.204   3.817  10.912  1.0776  1.2270 -0.2879
 6966TIP3    H242390   5.176   3.750  11.045 -1.1512  0.7163 -0.9767
 6967TIP3   OH242391   3.921   4.162   5.285  0.2014 -0.3335  0.1421
 6967TIP3    H142392   3.992   4.188   5.345  0.2677 -1.7118  0.6977
 6967TIP3    H242393   3.960   4.093   5.231 -0.0534  0.4624 -1.0863
 6968TIP3   OH242394   1.530   4.448   1.700  0.2550  0.4132  0.4372
 6968TIP3    H142395   1.598   4.507   1.668 -0.5951  0.7222 -0.9238
 6968TIP3    H242396   1.453   4.470   1.647 -0.5562 -0.7682  1.0710
 6969TIP3   OH242397   5.356   1.792  11.295 -0.0236  0.7193  0.3393
 6969TIP3    H142398   5.355   1.792  11.199 -0.6281  1.7610  0.3237
 6969TIP3    H242399   5.428   1.734  11.319  0.3703  0.7431 -0.7469
 6970TIP3   OH242400   3.426   0.818  14.455 -0.4146 -0.0597 -0.2090
 6970TIP3    H142401   3.483   0.744  14.477 -1.1358 -1.3153 -2.2615
 6970TIP3    H242402   3.469   0.894  14.493  1.5301 -1.2353  0.0899
 6971TIP3   OH242403   3.536   5.719  13.258  0.5372  0.3087 -0.1494
 6971TIP3    H142404   3.585   5.800  13.243  1.9373  0.1089  2.6939
 6971TIP3    H242405   3.554   5.697  13.350 -3.0939 -1.0279  0.4123
 6972TIP3   OH242406   0.830   6.113  12.542 -0.1779  0.1080 -0.3418
 6972TIP3    H142407   0.806   6.177  12.475 -1.1487  1.9606  1.6730
 6972TIP3    H242408   0.747   6.090  12.584  0.3832 -1.2399  0.0890
 6973TIP3   OH242409   6.768   5.856  12.545 -0.0940 -0.3307  0.2389
 6973TIP3    H142410   6.781   5.865  12.451  0.5088  0.1756  0.3681
 6973TIP3    H242411   6.833   5.791  12.573 -1.3196 -1.6937  0.0700
 6974TIP3   OH242412   3.821   1.439  16.816  0.3524 -0.8608  0.6107
 6974TIP3    H142413   3.842   1.346  16.821  0.4774 -0.8315  0.6344
 6974TIP3    H242414   3.816   1.457  16.722  0.0704 -0.9491  0.6093
 6975TIP3   OH242415   6.003   6.106  13.999  0.3544  0.5756  0.0758
 6975TIP3    H142416   6.043   6.189  13.975 -0.2277  1.0079  0.5672
 6975TIP3    H242417   5.935   6.093  13.933  1.4268 -0.2789 -0.9041
 6976TIP3   OH242418   0.497   2.738  13.582  0.0796 -0.0991 -0.1591
 6976TIP3    H142419   0.467   2.725  13.672 -0.3611 -0.4207 -0.3496
 6976TIP3    H242420   0.435   2.688  13.529  0.6946 -0.4061 -0.5981
 6977TIP3   OH242421   2.381   3.548  16.425 -0.7676  0.2653  0.2014
 6977TIP3    H142422   2.299   3.499  16.429 -1.2720  1.0591 -0.1458
 6977TIP3    H242423   2.375   3.600  16.345  0.7630 -0.8309 -0.6818
 6978TIP3   OH242424   3.306   3.165   2.522 -0.7736 -0.5893  0.6624
 6978TIP3    H142425   3.312   3.072   2.543 -0.7252 -0.6109  0.5573
 6978TIP3    H242426   3.288   3.167   2.428  1.0084 -0.4767  0.2897
 6979TIP3   OH242427   6.175   4.253  13.102 -0.4501  0.0294 -0.3949
 6979TIP3    H142428   6.250   4.291  13.146  0.5107  0.5228 -2.3338
 6979TIP3    H242429   6.133   4.327  13.057 -1.9871 -0.2742  0.4602
 6980TIP3   OH242430   4.167   1.086  12.122 -0.1273  0.0546 -0.3006
 6980TIP3    H142431   4.243   1.142  12.139 -0.7299  0.8440 -0.1326
 6980TIP3    H242432   4.105   1.108  12.191 -0.3753 -0.8501 -0.2198
 6981TIP3   OH242433   3.758   0.386   3.502 -0.0010 -0.1562 -0.0758
 6981TIP3    H142434   3.811   0.373   3.423  0.2709  1.9237 -0.2923
 6981TIP3    H242435   3.685   0.441   3.474 -1.4381 -1.6424  0.5764
 6982TIP3   OH242436   3.329   1.131  15.573  0.0910 -0.1125 -0.7287
 6982TIP3    H142437   3.355   1.087  15.492 -1.3090 -1.4391 -0.5082
 6982TIP3    H242438   3.337   1.224  15.553 -0.2003 -0.4103 -2.3919
 6983TIP3   OH242439   1.424   4.670   6.889  0.5267 -0.6664  0.1468
 6983TIP3    H142440   1.499   4.624   6.926  0.5196 -1.4982 -0.8226
 6983TIP3    H242441   1.361   4.600   6.868  1.0539 -0.4070 -2.6066
 6984TIP3   OH242442   0.735   6.075  14.650 -0.2236  0.0858 -0.6955
 6984TIP3    H142443   0.688   6.012  14.596  0.2754 -1.1859  0.3091
 6984TIP3    H242444   0.701   6.160  14.623 -2.0395 -0.7005 -1.0014
 6985TIP3   OH242445   6.301   0.290  15.322  0.0350 -0.0664  0.4476
 6985TIP3    H142446   6.255   0.337  15.252 -1.4220 -2.9376 -0.6881
 6985TIP3    H242447   6.392   0.288  15.294 -0.0477  1.0921  0.0196
 6986TIP3   OH242448   2.549   6.155  17.219 -0.1586  0.3690 -0.4847
 6986TIP3    H142449   2.605   6.227  17.189 -0.6369  0.5479 -0.9608
 6986TIP3    H242450   2.470   6.162  17.166 -0.9358  0.5605  0.6573
 6987TIP3   OH242451   1.103   1.768  12.300  0.4903  0.9040  0.4515
 6987TIP3    H142452   1.016   1.736  12.324 -0.2455  2.1607 -0.4186
 6987TIP3    H242453   1.089   1.816  12.218  1.9305  1.4908  0.5225
 6988TIP3   OH242454   5.205   3.699  15.193 -0.4548 -0.0024 -0.2129
 6988TIP3    H142455   5.253   3.752  15.257 -1.1744 -0.7983  1.0395
 6988TIP3    H242456   5.273   3.657  15.141  0.1352  1.4538 -0.6610
 6989TIP3   OH242457   1.472   2.659   3.630 -0.0435 -0.1055 -0.8587
 6989TIP3    H142458   1.520   2.695   3.704  0.3013  0.3533 -1.3007
 6989TIP3    H242459   1.395   2.716   3.621 -0.3290 -0.4396 -0.5682
 6990TIP3   OH242460   5.897   1.907  14.945  0.2680  0.3046 -1.1456
 6990TIP3    H142461   5.836   1.863  15.004  0.3828  0.2221 -1.0883
 6990TIP3    H242462   5.979   1.914  14.995  0.5131 -0.2018 -1.4693
 6991TIP3   OH242463   2.786   0.690  14.358 -0.5088 -0.4990  0.3487
 6991TIP3    H142464   2.772   0.617  14.297  1.0984 -0.2886 -0.3215
 6991TIP3    H242465   2.757   0.768  14.309  2.3360 -0.1062 -0.9098
 6992TIP3   OH242466   5.076   6.590   4.085  0.0774 -0.1420 -0.5209
 6992TIP3    H142467   5.151   6.605   4.027 -0.6826 -0.6834 -1.6799
 6992TIP3    H242468   5.032   6.675   4.089 -0.1880 -0.2373 -1.2290
 6993TIP3   OH242469   4.694   3.633   2.377 -0.1322  0.5075 -0.0677
 6993TIP3    H142470   4.697   3.719   2.419  0.6232 -0.3586  1.7720
 6993TIP3    H242471   4.786   3.604   2.375 -0.3161 -0.0664 -1.0938
 6994TIP3   OH242472   3.320   0.781  12.147 -0.4267  0.2363 -0.7013
 6994TIP3    H142473   3.232   0.820  12.144 -0.4887  0.2911  0.9686
 6994TIP3    H242474   3.371   0.834  12.085 -1.7873 -0.4594 -2.5016
 6995TIP3   OH242475   5.077   0.201   4.997 -0.3117 -0.0815  0.0566
 6995TIP3    H142476   5.115   0.254   4.928 -0.0649 -0.6468 -0.2501
 6995TIP3    H242477   5.119   0.115   4.988 -0.1046 -0.0967  1.0490
 6996TIP3   OH242478   1.830   3.781   2.210 -0.0227 -0.1775 -0.1240
 6996TIP3    H142479   1.879   3.852   2.251 -1.6585  1.8842 -1.5180
 6996TIP3    H242480   1.762   3.758   2.273  0.5978 -0.6082  0.3901
 6997TIP3   OH242481   0.279   2.804   3.900 -0.3753 -0.6381  0.2328
 6997TIP3    H142482   0.263   2.860   3.824 -1.8809  0.3548  1.2208
 6997TIP3    H242483   0.374   2.796   3.904 -0.0458  2.2349  0.2673
 6998TIP3   OH242484   2.725   1.705   1.345  0.1602 -0.1339  0.0895
 6998TIP3    H142485   2.680   1.683   1.264 -2.3870 -0.0244  1.3562
 6998TIP3    H242486   2.754   1.795   1.334  1.0967 -0.5615 -1.1689
 6999TIP3   OH242487   2.275   0.610   0.533  0.3566 -0.2494  0.3653
 6999TIP3    H142488   2.347   0.552   0.509 -1.3084 -1.9980 -0.6913
 6999TIP3    H242489   2.221   0.616   0.453 -0.5260  1.2457  1.0276
 7000TIP3   OH242490   4.445   5.621  13.560 -0.1231 -0.0208  0.2862
 7000TIP3    H142491   4.448   5.651  13.469 -0.0518  0.2647  0.3816
 7000TIP3    H242492   4.433   5.700  13.612  0.3018 -0.1246  0.5570
 7001TIP3   OH242493   2.120   3.508  16.779 -0.7139 -0.6948 -0.4898
 7001TIP3    H142494   2.193   3.553  16.736 -0.0769 -1.3323 -0.1155
 7001TIP3    H242495   2.148   3.416  16.785 -1.0398 -0.7438  0.6890
 7002TIP3   OH242496   2.556   4.222  14.206 -0.0024  0.0723  0.2001
 7002TIP3    H142497   2.475   4.255  14.245 -1.9115 -0.9108 -2.6020
 7002TIP3    H242498   2.546   4.127  14.206  1.1250 -0.0653 -0.2894
 7003TIP3   OH242499   4.995   4.219  16.103 -0.1964  0.3428 -0.4230
 7003TIP3    H142500   4.977   4.309  16.130  0.1007  0.2467  0.1032
 7003TIP3    H242501   4.909   4.177  16.104 -0.5474  0.9765 -2.0531
 7004TIP3   OH242502   3.799   2.858  13.499  0.0031  0.1574 -0.1011
 7004TIP3    H142503   3.877   2.896  13.460  0.0881 -0.0388 -0.1242
 7004TIP3    H242504   3.832   2.795  13.563 -0.1354  0.3158  0.1289
 7005TIP3   OH242505   0.344   0.544   1.898 -0.1721 -0.2673  0.4305
 7005TIP3    H142506   0.390   0.619   1.934  0.7352  0.0702 -1.3068
 7005TIP3    H242507   0.251   0.568   1.905  0.0935  0.9737  0.0165
 7006TIP3   OH242508   4.008   6.821   1.543  0.1258 -0.6611  0.0671
 7006TIP3    H142509   3.964   6.866   1.472  1.9288 -0.1887 -0.8238
 7006TIP3    H242510   3.955   6.742   1.558 -0.8549 -0.2544 -1.0895
 7007TIP3   OH242511   3.474   2.038   3.817  0.3810 -0.4008  0.2041
 7007TIP3    H142512   3.540   2.043   3.748  0.2481 -2.2012 -0.0948
 7007TIP3    H242513   3.458   2.129   3.842  1.8552  0.1529 -0.7738
 7008TIP3   OH242514   4.492   1.612  12.732  0.1698 -0.0156 -0.1146
 7008TIP3    H142515   4.397   1.621  12.732  0.1641  0.0582  1.0334
 7008TIP3    H242516   4.514   1.591  12.641 -0.8329  1.0013 -0.6141
 7009TIP3   OH242517   4.500   5.485   4.216  0.0623 -0.0471 -0.4786
 7009TIP3    H142518   4.513   5.578   4.198  0.9287 -0.2651 -1.0478
 7009TIP3    H242519   4.515   5.476   4.310  2.2479  0.0314 -0.7877
 7010TIP3   OH242520   3.437   6.488  15.684 -0.4930 -0.2115  0.2886
 7010TIP3    H142521   3.438   6.413  15.744 -0.4175  0.0806  0.6570
 7010TIP3    H242522   3.431   6.449  15.597 -1.9593 -0.6172  0.5419
 7011TIP3   OH242523   1.613   2.755   2.665 -0.2825  0.0768 -0.1254
 7011TIP3    H142524   1.603   2.841   2.623 -0.2442  0.2856  0.2828
 7011TIP3    H242525   1.526   2.716   2.660  0.0614 -0.5346 -1.7334
 7012TIP3   OH242526   0.722   4.413  14.142 -0.5414  0.1686  0.1043
 7012TIP3    H142527   0.693   4.330  14.105 -1.0776  0.9408 -1.2512
 7012TIP3    H242528   0.651   4.474  14.125 -0.5188  0.7511  1.8168
 7013TIP3   OH242529   1.047   3.431   5.534  0.8650  0.6623 -0.2913
 7013TIP3    H142530   1.095   3.350   5.554 -2.3942 -1.9758 -2.0420
 7013TIP3    H242531   0.995   3.449   5.612  0.5086  0.1704 -0.4110
 7014TIP3   OH242532   6.423   4.891   4.814 -0.1012 -0.3738 -0.4075
 7014TIP3    H142533   6.427   4.811   4.867 -0.1784 -1.0122 -1.3485
 7014TIP3    H242534   6.349   4.939   4.850 -0.4918 -1.0506 -0.2826
 7015TIP3   OH242535   0.268   5.184   1.106  0.2492 -0.3384 -0.0808
 7015TIP3    H142536   0.362   5.204   1.097  0.0443  0.4798 -0.5273
 7015TIP3    H242537   0.231   5.263   1.146 -0.3550 -0.4038 -0.5010
 7016TIP3   OH242538   4.103   0.212   4.242  0.2880 -0.1992 -0.0887
 7016TIP3    H142539   4.076   0.242   4.156  0.4771  1.3322  0.3579
 7016TIP3    H242540   4.183   0.161   4.225 -0.7663 -1.6442 -0.9962
 7017TIP3   OH242541   6.702   0.267   5.467  0.1999  0.3361  0.1555
 7017TIP3    H142542   6.767   0.273   5.536 -0.5885 -1.4305  1.1068
 7017TIP3    H242543   6.752   0.248   5.388  0.7847 -3.8998  1.3282
 7018TIP3   OH242544   5.683   0.291  11.659  0.3956 -0.0267  0.4716
 7018TIP3    H142545   5.764   0.245  11.681  1.1534  1.5944  1.2317
 7018TIP3    H242546   5.711   0.380  11.637 -1.1660  0.5538  0.6964
 7019TIP3   OH242547   2.857   1.805  13.854  0.5564  0.1071  0.5185
 7019TIP3    H142548   2.934   1.750  13.838  2.1118  2.3673 -0.1175
 7019TIP3    H242549   2.874   1.845  13.940 -0.0909  0.3428  0.5387
 7020TIP3   OH242550   0.147   3.598  14.548 -0.2104  0.0257  0.7706
 7020TIP3    H142551   0.090   3.670  14.520  0.9584  1.7127  2.5125
 7020TIP3    H242552   0.210   3.589  14.477 -0.2339  0.8776  0.6332
 7021TIP3   OH242553   2.093   0.308   0.704 -0.5446 -0.2558 -0.3818
 7021TIP3    H142554   2.066   0.374   0.641 -0.9543 -0.6839 -0.6630
 7021TIP3    H242555   2.079   0.225   0.658 -0.4137 -0.5526  0.1123
 7022TIP3   OH242556   5.941   5.028   1.933 -1.0279  0.1522 -0.0260
 7022TIP3    H142557   5.988   5.056   2.012  0.2150 -2.3728  0.2155
 7022TIP3    H242558   5.993   5.064   1.861  0.3023 -1.0419  0.2836
 7023TIP3   OH242559   5.474   1.018  13.633 -0.1244  0.1960  0.0564
 7023TIP3    H142560   5.482   1.108  13.601  1.3281  0.1369  0.1794
 7023TIP3    H242561   5.426   0.972  13.564 -3.2965  1.5896  1.1446
 7024TIP3   OH242562   1.738   4.449   0.536 -0.1177  0.2433 -0.0755
 7024TIP3    H142563   1.762   4.372   0.588  0.3282  2.2101  2.8506
 7024TIP3    H242564   1.667   4.418   0.479  0.7350 -2.5456  0.1938
 7025TIP3   OH242565   4.419   4.346  15.671  0.5558  0.0173 -0.3282
 7025TIP3    H142566   4.449   4.430  15.706 -0.2787 -0.1945  0.9823
 7025TIP3    H242567   4.337   4.367  15.627  0.1314 -0.1489  0.3591
 7026TIP3   OH242568   0.658   3.287   4.596 -0.0703 -0.4032  0.8208
 7026TIP3    H142569   0.681   3.350   4.528 -0.7446 -1.9908 -0.9649
 7026TIP3    H242570   0.741   3.269   4.641  0.6615 -0.2492 -0.4172
 7027TIP3   OH242571   6.338   2.187  13.995  0.0096 -0.1138 -0.1209
 7027TIP3    H142572   6.276   2.115  13.986  1.3753 -1.2026 -1.4939
 7027TIP3    H242573   6.376   2.176  14.082  1.3347 -2.0851 -0.8710
 7028TIP3   OH242574   6.357   1.755  14.755  0.4844 -0.2523  0.8853
 7028TIP3    H142575   6.308   1.690  14.805 -0.9368  0.2965  0.2461
 7028TIP3    H242576   6.448   1.725  14.759  0.0203 -1.6258  1.5826
 7029TIP3   OH242577   1.529   1.218   5.214 -0.8237  0.4776 -0.1847
 7029TIP3    H142578   1.609   1.171   5.194 -0.4167  1.2683 -0.4760
 7029TIP3    H242579   1.484   1.164   5.279 -1.4288 -1.3938 -2.0511
 7030TIP3   OH242580   0.375   0.559   0.587 -0.2839 -0.0765 -0.4039
 7030TIP3    H142581   0.400   0.576   0.496 -1.9714 -0.4679 -0.9739
 7030TIP3    H242582   0.333   0.473   0.585 -2.0598  0.7319  0.3744
 7031TIP3   OH242583   0.772   0.924  12.301  0.1528  0.4733 -0.3170
 7031TIP3    H142584   0.713   0.982  12.348 -0.0742  0.6908 -0.8611
 7031TIP3    H242585   0.718   0.849  12.276  0.8503 -0.9207  1.9903
 7032TIP3   OH242586   3.616   6.046  14.498  0.5218 -0.2390 -0.2427
 7032TIP3    H142587   3.627   6.038  14.404  0.6965 -2.0866 -0.0933
 7032TIP3    H242588   3.610   5.956  14.530  0.8903  0.3298  1.5638
 7033TIP3   OH242589   1.649   3.619  16.085 -0.0256 -0.1519 -0.0801
 7033TIP3    H142590   1.694   3.544  16.046  0.2627  0.3256 -0.6880
 7033TIP3    H242591   1.591   3.650  16.015 -2.5045 -1.6991  1.1602
 7034TIP3   OH242592   6.649   1.661  17.109 -0.1233  0.3753  0.2230
 7034TIP3    H142593   6.681   1.666  17.019  0.7518  2.1799  0.5774
 7034TIP3    H242594   6.611   1.747  17.126 -1.1209 -0.2436  1.2896
 7035TIP3   OH242595   5.118   6.797  16.480 -0.5453  0.1675  0.0703
 7035TIP3    H142596   5.094   6.839  16.562  1.0332 -0.4855  0.9224
 7035TIP3    H242597   5.166   6.719  16.506 -1.3904 -0.9264 -1.4895
 7036TIP3   OH242598   0.421   5.040   5.119 -0.2606 -0.1902 -0.1717
 7036TIP3    H142599   0.468   5.040   5.202  1.4921 -2.3212 -1.0826
 7036TIP3    H242600   0.329   5.027   5.144  0.0533  0.5230  1.4705
 7037TIP3   OH242601   0.617   0.906  14.937  0.0281 -0.4140 -0.0447
 7037TIP3    H142602   0.623   0.824  14.986  1.5078 -0.0272  0.4647
 7037TIP3    H242603   0.567   0.964  14.995  0.5022 -0.4193  0.3826
 7038TIP3   OH242604   0.778   1.941   1.222  0.2367 -0.2873  0.0168
 7038TIP3    H142605   0.683   1.933   1.225  0.0473  1.5847  1.0324
 7038TIP3    H242606   0.809   1.856   1.192 -1.7939 -0.6551 -1.2117
 7039TIP3   OH242607   2.260   1.140  15.349 -0.1553 -0.3079  0.3139
 7039TIP3    H142608   2.329   1.112  15.288 -1.2753  0.4267 -1.3553
 7039TIP3    H242609   2.306   1.154  15.432  1.1533 -2.9107  0.1380
 7040TIP3   OH242610   3.494   5.375  12.710 -0.0218 -0.1210 -0.2953
 7040TIP3    H142611   3.452   5.460  12.703  0.5596  0.4058  1.8009
 7040TIP3    H242612   3.583   5.390  12.678  0.0562  0.0638 -0.0030
 7041TIP3   OH242613   1.238   0.484  14.436  0.0849 -0.4008 -0.4989
 7041TIP3    H142614   1.160   0.461  14.486  0.6740  0.6707  0.9851
 7041TIP3    H242615   1.307   0.427  14.471  0.1714 -0.7926 -1.2624
 7042TIP3   OH242616   2.901   0.493  17.074  0.1058  0.7572  0.2597
 7042TIP3    H142617   2.928   0.433  17.144 -0.1653  1.1250  0.6864
 7042TIP3    H242618   2.917   0.580  17.110 -2.2147  1.0241  0.7954
 7043TIP3   OH242619   2.533   0.923   2.591 -0.5562 -0.1174  0.0070
 7043TIP3    H142620   2.514   1.017   2.597 -0.6741 -0.1000 -0.5366
 7043TIP3    H242621   2.476   0.883   2.657  0.7876  0.3410  1.5033
 7044TIP3   OH242622   1.371   1.600   1.728 -0.5013 -0.2264 -0.3312
 7044TIP3    H142623   1.321   1.678   1.704 -1.6862 -1.0454 -0.5884
 7044TIP3    H242624   1.310   1.548   1.781  0.5867 -0.5514  0.6528
 7045TIP3   OH242625   4.350   4.821   3.419  0.2275 -0.1160 -1.1689
 7045TIP3    H142626   4.366   4.741   3.368  0.7741 -0.5586 -0.3061
 7045TIP3    H242627   4.255   4.833   3.413 -0.5227 -3.0891  1.9422
 7046TIP3   OH242628   1.896   2.641   3.740  0.6980 -0.2215  0.1232
 7046TIP3    H142629   1.959   2.640   3.668  0.6275  1.5376 -0.0100
 7046TIP3    H242630   1.925   2.714   3.796 -1.3444  0.7978 -0.0694
 7047TIP3   OH242631   1.544   6.510  11.038  0.4782 -0.2021  0.0726
 7047TIP3    H142632   1.539   6.598  11.001 -0.6585 -0.6392 -0.8656
 7047TIP3    H242633   1.592   6.522  11.120 -0.2011  1.3929  0.2846
 7048TIP3   OH242634   3.165   3.314   5.731  0.0488  0.0698 -0.0912
 7048TIP3    H142635   3.140   3.406   5.721 -0.5752 -0.0577  0.2763
 7048TIP3    H242636   3.087   3.265   5.706  0.1958 -0.3509  0.2741
 7049TIP3   OH242637   5.498   6.762  11.330 -0.1109  0.4931  0.5700
 7049TIP3    H142638   5.463   6.844  11.365 -1.7836 -0.4997  1.3314
 7049TIP3    H242639   5.458   6.694  11.384  2.4510 -0.7915  0.9667
 7050TIP3   OH242640   4.823   6.358  13.834  1.1519  0.4264  0.7306
 7050TIP3    H142641   4.815   6.342  13.928  0.7199  0.4022  0.6946
 7050TIP3    H242642   4.773   6.438  13.819  1.8252  0.8343  0.6335
 7051TIP3   OH242643   0.410   5.204  17.134  0.1083 -0.9373 -0.0244
 7051TIP3    H142644   0.331   5.193  17.081 -0.3693 -1.2487  0.7422
 7051TIP3    H242645   0.457   5.275  17.091 -1.0932 -0.0286  0.1148
 7052TIP3   OH242646   3.711   4.321  12.574 -0.0256  0.1147  0.2435
 7052TIP3    H142647   3.807   4.329  12.578  0.1745 -0.2121 -2.3235
 7052TIP3    H242648   3.679   4.384  12.639  1.9159  0.6799  0.7205
 7053TIP3   OH242649   6.651   5.886  15.395 -0.2117  0.2363 -0.2194
 7053TIP3    H142650   6.635   5.939  15.316 -1.8523  0.4365  0.2075
 7053TIP3    H242651   6.722   5.931  15.440 -0.3748  1.0640 -0.7662
 7054TIP3   OH242652   2.955   3.944   0.114  0.7519 -0.0622 -0.7997
 7054TIP3    H142653   2.866   3.908   0.112  0.9788 -0.6130 -1.0518
 7054TIP3    H242654   2.957   4.004   0.039  0.8659 -0.7235 -1.3410
 7055TIP3   OH242655   2.724   3.180   2.044  0.0778  0.3115  0.6687
 7055TIP3    H142656   2.673   3.114   1.998  0.0881 -0.4971  1.7871
 7055TIP3    H242657   2.714   3.158   2.137  0.6765  1.4471  1.0233
 7056TIP3   OH242658   1.015   3.637   0.548 -0.2820 -0.0631  0.2333
 7056TIP3    H142659   1.050   3.663   0.463 -0.1425  0.7581  0.5238
 7056TIP3    H242660   1.061   3.556   0.570 -0.5879 -0.4750 -0.6305
 7057TIP3   OH242661   6.686   0.270  16.055 -0.3232 -0.3585  0.2411
 7057TIP3    H142662   6.593   0.280  16.073 -0.0685 -0.1762  1.5699
 7057TIP3    H242663   6.727   0.344  16.100  0.4814 -0.5529 -0.1538
 7058TIP3   OH242664   3.514   2.503  15.058 -0.2931 -0.1963 -0.3111
 7058TIP3    H142665   3.530   2.482  14.966 -0.9254 -1.5941 -0.1244
 7058TIP3    H242666   3.448   2.440  15.086 -0.7358  0.7608  0.8794
 7059TIP3   OH242667   1.126   4.039  16.984  0.6350  0.2018  0.6487
 7059TIP3    H142668   1.111   4.060  16.892 -0.6784 -0.8353  0.5919
 7059TIP3    H242669   1.216   4.008  16.988  1.4443  2.3252  0.1341
 7060TIP3   OH242670   3.233   2.873   0.062  0.5165 -0.4969 -0.1274
 7060TIP3    H142671   3.221   2.892  -0.031  1.2513  0.0229 -0.1241
 7060TIP3    H242672   3.305   2.929   0.089 -0.3949  0.1664  1.0213
 7061TIP3   OH242673   2.633   0.950   0.786 -0.3583  0.3877 -0.0371
 7061TIP3    H142674   2.690   0.934   0.711 -0.5880 -0.6450 -0.0176
 7061TIP3    H242675   2.545   0.951   0.748 -0.4160  0.6957  0.1057
 7062TIP3   OH242676   4.515   2.021   3.856 -0.5002  0.4513  0.4061
 7062TIP3    H142677   4.442   2.023   3.918  0.7537 -0.3291  1.9548
 7062TIP3    H242678   4.543   2.113   3.850  0.4160  0.3457  2.3330
 7063TIP3   OH242679   5.101   6.366  14.610 -0.7253  0.2836  0.3689
 7063TIP3    H142680   5.011   6.345  14.584 -1.0982  0.3692  1.5109
 7063TIP3    H242681   5.091   6.439  14.672  0.2144  0.9356 -0.2225
 7064TIP3   OH242682   5.968   0.896  13.914 -0.0519  0.8838  0.1105
 7064TIP3    H142683   5.934   0.974  13.957 -0.0693  1.0258 -0.1619
 7064TIP3    H242684   5.976   0.831  13.985 -2.2442  0.3701 -0.0523
 7065TIP3   OH242685   0.440   2.966  13.953 -0.1099 -0.3720  0.3281
 7065TIP3    H142686   0.526   2.980  13.913 -0.6669  0.3683 -0.6576
 7065TIP3    H242687   0.428   3.041  14.012  0.4931 -1.2011  1.5571
 7066TIP3   OH242688   4.440   5.467  12.731 -0.2836  0.1159  0.4476
 7066TIP3    H142689   4.468   5.396  12.789 -0.0852  1.3079  1.8616
 7066TIP3    H242690   4.348   5.481  12.753 -0.0121  1.0681  1.0336
 7067TIP3   OH242691   2.308   0.581   1.584 -0.2474  0.0610 -0.3528
 7067TIP3    H142692   2.254   0.570   1.663 -1.4186 -1.3935 -1.3079
 7067TIP3    H242693   2.397   0.592   1.617 -0.8676  0.7322  1.2049
 7068TIP3   OH242694   2.743   0.802  11.360  0.1604  0.0926  0.0688
 7068TIP3    H142695   2.763   0.865  11.292 -0.7184 -1.3824 -1.6428
 7068TIP3    H242696   2.809   0.734  11.350 -0.3162 -0.4194  0.3147
 7069TIP3   OH242697   0.533   1.727   2.644  0.4322  0.3679  0.0352
 7069TIP3    H142698   0.584   1.799   2.606 -0.4127  0.9190 -0.0831
 7069TIP3    H242699   0.599   1.667   2.678  1.1673  0.9066 -0.4001
 7070TIP3   OH242700   2.211   0.526   2.538  0.4732 -0.1376 -0.6781
 7070TIP3    H142701   2.149   0.591   2.506  0.9036  0.3355 -0.5654
 7070TIP3    H242702   2.297   0.568   2.529  0.5729  0.3839  1.9071
 7071TIP3   OH242703   1.347   4.611  12.957  0.7778 -0.4668  0.1650
 7071TIP3    H142704   1.317   4.525  12.987  1.5057 -1.0814 -0.8012
 7071TIP3    H242705   1.373   4.596  12.866  0.3026  0.9305 -0.2253
 7072TIP3   OH242706   0.848   1.520  12.808 -0.0753 -0.2330  0.3932
 7072TIP3    H142707   0.910   1.583  12.771 -0.2401  1.0574  2.1923
 7072TIP3    H242708   0.781   1.509  12.741  1.7401 -1.2408 -1.3803
 7073TIP3   OH242709   5.936   2.813   0.696  0.1403 -0.1422  0.6948
 7073TIP3    H142710   6.015   2.856   0.663 -0.3531  0.0364 -0.3166
 7073TIP3    H242711   5.966   2.757   0.767  1.4920 -1.5037 -0.8499
 7074TIP3   OH242712   3.062   6.798  15.318  0.4094 -0.2282  0.0762
 7074TIP3    H142713   3.133   6.862  15.326  0.5095 -0.1124 -1.4645
 7074TIP3    H242714   3.105   6.714  15.331  0.6608 -0.0990  0.0977
 7075TIP3   OH242715   6.113   1.263   3.735  0.4921 -0.0118 -0.6891
 7075TIP3    H142716   6.122   1.331   3.669 -0.5047  0.1308 -0.6964
 7075TIP3    H242717   6.157   1.298   3.813  0.2146  0.5266 -0.7758
 7076TIP3   OH242718   4.935   5.433  12.802 -0.0192  0.0253  0.1615
 7076TIP3    H142719   4.872   5.360  12.810 -0.0397 -0.0145 -0.3042
 7076TIP3    H242720   4.925   5.462  12.711  0.5389  0.1107  0.1267
 7077TIP3   OH242721   2.968   4.635   3.294  0.2313 -0.0253 -0.6368
 7077TIP3    H142722   3.034   4.694   3.331  0.1227  0.2983 -0.9518
 7077TIP3    H242723   2.945   4.577   3.366  1.0218 -0.2854 -0.5832
 7078TIP3   OH242724   3.114   5.742  13.402 -0.1183 -0.3345 -0.2372
 7078TIP3    H142725   3.173   5.668  13.386  0.4393 -0.1362  0.7771
 7078TIP3    H242726   3.048   5.736  13.334 -0.8822 -2.5733  0.6086
 7079TIP3   OH242727   0.753   2.164  11.239 -0.3727 -0.6573  0.3463
 7079TIP3    H142728   0.664   2.173  11.204 -0.3746 -1.0359  0.2542
 7079TIP3    H242729   0.797   2.243  11.210 -0.7634 -0.3240  0.6420
 7080TIP3   OH242730   5.647   3.123  13.549  0.1181  0.4672  0.1656
 7080TIP3    H142731   5.640   3.165  13.634 -0.1988 -2.5821  1.7851
 7080TIP3    H242732   5.720   3.061  13.558 -1.2989 -1.4966 -0.9858
 7081TIP3   OH242733   4.139   2.017   4.602 -0.0072  0.0960 -0.1901
 7081TIP3    H142734   4.087   1.937   4.597  0.2544 -0.1165  0.3896
 7081TIP3    H242735   4.163   2.024   4.695  0.1438  0.7331 -0.2720
 7082TIP3   OH242736   2.603   6.193   3.227 -0.3579  0.5429  0.5147
 7082TIP3    H142737   2.689   6.171   3.190 -1.4969 -2.6958 -0.5284
 7082TIP3    H242738   2.621   6.217   3.317  1.6508 -0.2281  0.3664
 7083TIP3   OH242739   6.249   5.932   0.772 -0.2161 -0.0824 -0.6140
 7083TIP3    H142740   6.169   5.884   0.793 -0.8333  1.2515  0.2204
 7083TIP3    H242741   6.318   5.866   0.776 -1.0505 -0.9431  0.3564
 7084TIP3   OH242742   4.809   0.769  13.373  0.1182 -0.5577 -0.0997
 7084TIP3    H142743   4.746   0.730  13.434  0.0481  0.4196  0.4646
 7084TIP3    H242744   4.794   0.722  13.291  0.9823 -2.6986  0.8706
 7085TIP3   OH242745   0.370   0.301   1.141  0.8456  0.2097  0.0264
 7085TIP3    H142746   0.435   0.317   1.072 -0.1796  2.0470 -0.5900
 7085TIP3    H242747   0.286   0.303   1.096  0.2346 -0.0025  1.1236
 7086TIP3   OH242748   4.049   5.319   4.332  0.2690  0.2742 -0.3080
 7086TIP3    H142749   4.067   5.403   4.289  2.2215  1.0209  1.8050
 7086TIP3    H242750   3.967   5.333   4.378  0.5862  1.0624  0.0421
 7087TIP3   OH242751   5.513   3.921   5.464 -0.4937  0.1448  0.2106
 7087TIP3    H142752   5.526   3.897   5.372 -0.7238  1.5643 -0.2106
 7087TIP3    H242753   5.562   4.002   5.475  1.0607 -0.9574  1.8497
 7088TIP3   OH242754   6.157   5.176  13.983 -0.7018 -0.3320  0.9842
 7088TIP3    H142755   6.176   5.270  13.991 -1.7774 -0.2060  2.6674
 7088TIP3    H242756   6.231   5.133  14.026 -0.1463 -0.2773  0.1005
 7089TIP3   OH242757   6.035   6.233  13.203  0.1037 -0.2068 -0.0969
 7089TIP3    H142758   6.044   6.246  13.108 -0.1550 -1.2630 -0.2794
 7089TIP3    H242759   5.954   6.183  13.212 -0.1873  0.3925  0.7382
 7090TIP3   OH242760   3.037   2.257  13.628 -0.6110 -0.6277  0.1232
 7090TIP3    H142761   3.024   2.204  13.707  0.9272 -2.5235 -0.7867
 7090TIP3    H242762   3.130   2.278  13.629  0.1068 -3.0285 -2.4235
 7091TIP3   OH242763   5.012   0.177   4.478  0.5143  0.3811 -0.0092
 7091TIP3    H142764   5.053   0.172   4.392  1.1747  0.3599  0.2977
 7091TIP3    H242765   5.075   0.136   4.537  0.7873  1.7984  0.7342
 7092TIP3   OH242766   2.733   6.199  11.555 -0.6892  0.3893  0.9993
 7092TIP3    H142767   2.753   6.211  11.648 -1.9032  0.3820  1.2793
 7092TIP3    H242768   2.708   6.286  11.524  0.7305  0.6162  0.3871
 7093TIP3   OH242769   1.114   0.436  16.344  0.5417 -0.2544 -0.4050
 7093TIP3    H142770   1.082   0.472  16.426  0.1506 -0.9818 -0.2265
 7093TIP3    H242771   1.083   0.497  16.277 -0.1781 -0.2959 -0.1176
 7094TIP3   OH242772   4.736   1.323   1.110 -0.5631 -0.5630  0.2596
 7094TIP3    H142773   4.816   1.273   1.125 -0.4313 -0.1373  1.0462
 7094TIP3    H242774   4.755   1.377   1.033 -0.5591 -1.4000 -0.3353
 7095TIP3   OH242775   3.429   4.397  11.940 -0.4310  0.3031 -0.5253
 7095TIP3    H142776   3.372   4.408  11.864 -2.3761 -0.1293  0.7714
 7095TIP3    H242777   3.471   4.483  11.952  0.8496  0.0469 -2.7156
 7096TIP3   OH242778   5.326   2.364  13.003 -0.6001 -0.7471 -0.1065
 7096TIP3    H142779   5.384   2.431  13.039 -1.1794 -0.6272  0.6253
 7096TIP3    H242780   5.384   2.290  12.986 -0.6557 -2.1028  4.2477
 7097TIP3   OH242781   6.042   6.769  15.457 -0.1240 -0.1089 -0.2529
 7097TIP3    H142782   6.107   6.825  15.498 -1.6415  0.7031  1.1518
 7097TIP3    H242783   6.081   6.681  15.459  1.9490  0.6965 -1.7841
 7098TIP3   OH242784   5.038   1.563  13.431 -0.2921  0.5406 -0.5799
 7098TIP3    H142785   5.069   1.623  13.499 -0.2061 -0.1972  0.0502
 7098TIP3    H242786   5.075   1.597  13.350  1.1790  0.3581 -0.0030
 7099TIP3   OH242787   4.697   6.594  12.942  0.2427 -0.1452  0.5043
 7099TIP3    H142788   4.752   6.664  12.975  1.8512 -0.7483 -0.7750
 7099TIP3    H242789   4.685   6.535  13.017  1.0030  0.1949  0.8994
 7100TIP3   OH242790   3.401   0.378  14.928  0.1922 -0.1057  0.3806
 7100TIP3    H142791   3.310   0.389  14.957 -0.1669 -1.1488 -0.2644
 7100TIP3    H242792   3.400   0.403  14.836  0.5737 -0.0797  0.3823
 7101TIP3   OH242793   0.344   5.509   4.792 -0.2384  0.4181 -0.2759
 7101TIP3    H142794   0.351   5.432   4.848  0.1104 -1.1596 -2.3516
 7101TIP3    H242795   0.379   5.581   4.845  0.0912 -0.9755  1.4855
 7102TIP3   OH242796   2.057   0.819   0.444  0.1878 -0.1484 -0.5448
 7102TIP3    H142797   1.979   0.861   0.481 -2.0249 -2.1334 -2.6690
 7102TIP3    H242798   2.120   0.891   0.434 -2.2142  2.0411 -0.9862
 7103TIP3   OH242799   2.604   6.592  15.093 -0.7320 -0.4708 -0.6378
 7103TIP3    H142800   2.605   6.655  15.164  0.5826  1.0661 -1.9403
 7103TIP3    H242801   2.696   6.567  15.081 -0.9388 -0.7709 -1.7332
 7104TIP3   OH242802   4.305   2.506  16.777 -0.1624  0.2959 -0.2095
 7104TIP3    H142803   4.369   2.547  16.835  1.9458 -0.2777 -1.9571
 7104TIP3    H242804   4.333   2.531  16.689 -1.8910 -0.6724 -1.0917
 7105TIP3   OH242805   2.965   0.749   2.956  0.3111  0.0871  0.0302
 7105TIP3    H142806   2.916   0.681   3.001  0.5609  0.5670  1.0638
 7105TIP3    H242807   2.903   0.786   2.893 -0.3133 -0.0482  0.5580
 7106TIP3   OH242808   1.945   5.324   2.119 -0.2955  0.2276 -0.0296
 7106TIP3    H142809   2.035   5.346   2.093 -0.2938 -1.3211 -1.5418
 7106TIP3    H242810   1.952   5.238   2.160 -1.2923 -1.1095 -2.4086
 7107TIP3   OH242811   0.189   5.704  11.272 -0.1261 -0.1079  0.2001
 7107TIP3    H142812   0.103   5.691  11.311  0.0022  3.7627  2.2366
 7107TIP3    H242813   0.170   5.732  11.182 -1.1516  1.9736  1.0083
 7108TIP3   OH242814   6.455   3.184  14.878 -0.3630 -0.0915 -0.2343
 7108TIP3    H142815   6.383   3.248  14.887  1.2116  1.7284  0.1617
 7108TIP3    H242816   6.458   3.165  14.785  0.0577  1.6263 -0.6201
 7109TIP3   OH242817   4.320   6.051  16.685 -0.8489  0.5579 -0.5793
 7109TIP3    H142818   4.304   6.114  16.756 -1.6922  0.1524 -0.3955
 7109TIP3    H242819   4.285   6.094  16.607 -1.7019  0.2029 -0.4014
 7110TIP3   OH242820   1.031   0.286  15.985  0.6796  0.0093 -0.6824
 7110TIP3    H142821   0.970   0.243  16.045  0.2256 -1.1693 -1.9255
 7110TIP3    H242822   1.116   0.274  16.026  0.3309 -0.3670 -0.0396
 7111TIP3   OH242823   1.125   6.080   4.449  0.4401 -0.2433  0.7077
 7111TIP3    H142824   1.220   6.087   4.435  0.4423 -0.6522  0.5072
 7111TIP3    H242825   1.086   6.120   4.371  0.4401  0.1538  0.9035
 7112TIP3   OH242826   4.585   2.153   4.907 -0.3831  0.3462  0.0091
 7112TIP3    H142827   4.591   2.245   4.878 -0.2313  0.4179  0.2665
 7112TIP3    H242828   4.601   2.157   5.001 -2.4967  0.2999  0.4012
 7113TIP3   OH242829   5.293   6.327   2.668 -0.0878  0.4019  0.0514
 7113TIP3    H142830   5.255   6.312   2.581 -0.5217  0.9307  0.1458
 7113TIP3    H242831   5.356   6.255   2.679 -0.6590 -0.1736 -0.3345
 7114TIP3   OH242832   4.291   2.284   4.756  0.0430 -0.2057  0.2838
 7114TIP3    H142833   4.271   2.211   4.816  1.4680  0.2214  1.3476
 7114TIP3    H242834   4.353   2.247   4.693  1.1222  0.1616  1.0967
 7115TIP3   OH242835   1.011   0.218  14.155  0.5561 -0.0223  0.5104
 7115TIP3    H142836   1.056   0.301  14.140 -0.3984  0.1074 -2.1565
 7115TIP3    H242837   1.055   0.156  14.098 -0.3718 -0.7372  0.5372
 7116TIP3   OH242838   6.789   1.415   4.223 -0.3836 -0.2168 -0.4568
 7116TIP3    H142839   6.719   1.377   4.276  1.8031 -1.4003  1.7784
 7116TIP3    H242840   6.817   1.343   4.165  1.2248 -0.9181  1.1110
 7117TIP3   OH242841   3.804   6.590  17.048 -0.4694 -0.3085 -0.3596
 7117TIP3    H142842   3.844   6.524  17.105 -3.0553  0.1303  2.1658
 7117TIP3    H242843   3.837   6.673  17.081  2.8769 -0.0682 -3.6059
 7118TIP3   OH242844   3.373   3.960   5.022  0.3102 -0.2288 -0.1116
 7118TIP3    H142845   3.319   4.011   5.082  1.6028  1.2775 -0.1514
 7118TIP3    H242846   3.314   3.893   4.986 -1.6354  1.6187 -0.5222
 7119TIP3   OH242847   2.277   5.422   0.799 -0.2097  0.5869 -0.2351
 7119TIP3    H142848   2.286   5.408   0.893 -0.1636  0.1896 -0.3008
 7119TIP3    H242849   2.248   5.513   0.792 -2.7484 -0.1036  0.3167
 7120TIP3   OH242850   5.266   6.339   3.548 -0.4668  0.2013  0.1442
 7120TIP3    H142851   5.243   6.293   3.629 -1.8319 -1.1762 -0.9566
 7120TIP3    H242852   5.185   6.340   3.497  0.0791  2.0120 -0.7659
 7121TIP3   OH242853   3.559   3.311   3.780 -0.8037  0.1038 -0.0663
 7121TIP3    H142854   3.620   3.295   3.852 -0.5910  0.8688 -0.0655
 7121TIP3    H242855   3.608   3.289   3.701 -1.8083 -3.1728  0.0579
 7122TIP3   OH242856   1.080   5.214  10.168  0.3801 -0.2440  0.1566
 7122TIP3    H142857   1.032   5.252  10.242  2.6412 -1.0652  2.2022
 7122TIP3    H242858   1.164   5.261  10.168  1.3016 -1.8168 -0.4051
 7123TIP3   OH242859   1.796   5.801  15.454 -0.1893  0.4001  0.1723
 7123TIP3    H142860   1.814   5.776  15.545  0.7248 -1.1570 -0.4089
 7123TIP3    H242861   1.809   5.896  15.452 -0.3086  0.4697  1.6806
 7124TIP3   OH242862   3.197   3.548  13.584  0.0260 -0.1350 -0.0095
 7124TIP3    H142863   3.168   3.483  13.648  0.8250 -1.2865 -0.7849
 7124TIP3    H242864   3.140   3.533  13.508 -0.1187  0.4279 -0.0205
 7125TIP3   OH242865   6.124   3.595  17.118 -0.8035  0.6420 -0.6434
 7125TIP3    H142866   6.173   3.676  17.106 -0.4304  0.3610 -1.0303
 7125TIP3    H242867   6.063   3.615  17.190 -2.7835  2.2379 -2.6101
 7126TIP3   OH242868   4.224   3.506  14.403  0.1788 -0.3877  0.5376
 7126TIP3    H142869   4.171   3.466  14.471 -0.0756 -0.7924  0.1080
 7126TIP3    H242870   4.296   3.548  14.450 -1.0107  0.9965  1.2079
 7127TIP3   OH242871   3.063   4.638  14.424  0.4634 -0.3860 -0.0023
 7127TIP3    H142872   3.065   4.720  14.474  0.9650 -0.7940  0.6569
 7127TIP3    H242873   3.155   4.619  14.407  0.3529 -0.8889 -0.0295
 7128TIP3   OH242874   1.575   4.179  16.280  0.0959  0.2774 -0.2115
 7128TIP3    H142875   1.597   4.158  16.189  1.6390  0.5102  0.0944
 7128TIP3    H242876   1.598   4.101  16.329 -2.4327 -0.5619 -0.1943
 7129TIP3   OH242877   2.416   6.265  14.318  0.6454  0.1485  0.0684
 7129TIP3    H142878   2.421   6.310  14.234  0.1565 -0.3674 -0.2410
 7129TIP3    H242879   2.432   6.173  14.298 -0.3813 -0.1183  0.3955
 7130TIP3   OH242880   5.291   3.089  11.421  0.7428 -0.1932 -0.8145
 7130TIP3    H142881   5.286   3.178  11.387 -2.1546 -0.1506 -0.5831
 7130TIP3    H242882   5.348   3.095  11.498  1.2105  1.2903 -1.2569
 7131TIP3   OH242883   1.694   3.505   0.078  0.0323  0.1932 -0.1276
 7131TIP3    H142884   1.635   3.474   0.147  0.8627 -1.7036 -0.2340
 7131TIP3    H242885   1.781   3.481   0.108  0.4948  0.2289 -1.3949
 7132TIP3   OH242886   1.095   5.769  11.411  0.2108  0.4419  0.2668
 7132TIP3    H142887   1.021   5.738  11.463 -0.8530  0.3943 -1.1865
 7132TIP3    H242888   1.069   5.856  11.381  0.8496  0.5277 -0.0643
 7133TIP3   OH242889   5.591   1.362  14.224 -0.0730  0.6364  0.2732
 7133TIP3    H142890   5.590   1.282  14.170  0.0728 -0.4138  1.7696
 7133TIP3    H242891   5.500   1.374  14.250  0.1491 -0.0744  1.4664
 7134TIP3   OH242892   4.811   1.834  15.983 -0.1476  0.2191  0.4646
 7134TIP3    H142893   4.809   1.804  16.074  1.0834  1.6954  1.0180
 7134TIP3    H242894   4.856   1.763  15.936  2.1952  0.8072  1.6332
 7135TIP3   OH242895   2.957   4.381  17.026  0.0199  0.4972  0.0418
 7135TIP3    H142896   2.905   4.438  16.970  0.5259  0.5508 -0.3823
 7135TIP3    H242897   3.045   4.386  16.990 -0.0601 -1.1170 -0.4664
 7136TIP3   OH242898   3.587   1.532  11.287  0.8226  0.3496 -0.5657
 7136TIP3    H142899   3.555   1.573  11.207  1.6587  0.8780 -0.6347
 7136TIP3    H242900   3.582   1.438  11.269  1.5250  0.4647 -1.4564
 7137TIP3   OH242901   2.571   5.254  13.247 -0.3171 -0.6217  0.1252
 7137TIP3    H142902   2.622   5.286  13.321 -0.9511 -1.1314  0.8082
 7137TIP3    H242903   2.492   5.217  13.287 -0.9262 -0.4137 -0.8543
 7138TIP3   OH242904   3.663   3.421  15.866 -0.0109  0.5433 -0.3089
 7138TIP3    H142905   3.587   3.370  15.837  0.0843  0.3517 -0.2261
 7138TIP3    H242906   3.667   3.406  15.960  2.7287 -3.1256 -0.7553
 7139TIP3   OH242907   1.084   2.722   5.202 -0.4384  0.4392 -0.1391
 7139TIP3    H142908   1.060   2.740   5.293  0.1472  1.9058 -0.2330
 7139TIP3    H242909   1.037   2.789   5.152  0.0333  0.2784 -0.8014
 7140TIP3   OH242910   5.401   2.946   0.447 -0.0478  0.5172 -0.4148
 7140TIP3    H142911   5.315   2.986   0.448 -0.9861 -1.4021  0.1477
 7140TIP3    H242912   5.437   2.960   0.534 -0.7897 -0.6530  0.1014
 7141TIP3   OH242913   3.497   2.306   0.661 -0.2622 -0.1658  0.1266
 7141TIP3    H142914   3.463   2.372   0.722  0.2384 -0.3409  0.5966
 7141TIP3    H242915   3.505   2.226   0.713  1.5474  0.0457  0.2360
 7142TIP3   OH242916   2.008   5.380   4.308  0.0608 -0.1495 -0.0055
 7142TIP3    H142917   1.949   5.316   4.268 -0.1365  0.3486 -0.5244
 7142TIP3    H242918   2.036   5.436   4.235 -0.6910  1.0790  0.6225
 7143TIP3   OH242919   6.199   5.796   1.113  0.3165  0.1853  0.4426
 7143TIP3    H142920   6.173   5.815   1.023 -1.1780 -2.2883  0.2413
 7143TIP3    H242921   6.137   5.845   1.167  0.0693  0.2719  0.0831
 7144TIP3   OH242922   2.204   2.404  12.249 -0.4597  0.6652  0.4709
 7144TIP3    H142923   2.195   2.321  12.296 -0.1734 -0.2555 -1.0551
 7144TIP3    H242924   2.114   2.432  12.232 -0.5630  0.8720  1.3070
 7145TIP3   OH242925   3.558   1.008  15.906  0.3452 -0.4761 -0.0755
 7145TIP3    H142926   3.626   1.029  15.970  0.1266  1.9409 -0.5511
 7145TIP3    H242927   3.476   1.023  15.953  0.1712 -0.4457 -0.3896
 7146TIP3   OH242928   4.609   3.386   2.928 -0.5018  0.6207  0.6476
 7146TIP3    H142929   4.619   3.465   2.875  1.6303  0.0488  0.0624
 7146TIP3    H242930   4.620   3.415   3.018  2.6959  0.8174  0.3362
 7147TIP3   OH242931   4.210   1.853  15.224 -0.6493  0.1626 -0.5187
 7147TIP3    H142932   4.121   1.885  15.240 -0.7935  0.1493 -1.2518
 7147TIP3    H242933   4.263   1.933  15.220 -0.2530  0.1014  1.9080
 7148TIP3   OH242934   2.984   2.843   1.922 -0.2033  0.2502 -0.4085
 7148TIP3    H142935   2.946   2.790   1.992  2.5340 -1.0582  0.2327
 7148TIP3    H242936   2.967   2.933   1.948 -2.3160 -0.2215  0.0464
 7149TIP3   OH242937   6.456   0.791  11.033  0.0802  0.3007 -0.0037
 7149TIP3    H142938   6.471   0.874  10.989 -1.0232  0.2655 -0.4807
 7149TIP3    H242939   6.474   0.724  10.967  0.8983  0.1483  0.3583
 7150TIP3   OH242940   3.468   1.576   5.154  0.0261  0.0701 -0.3862
 7150TIP3    H142941   3.491   1.605   5.066 -0.5515  0.3418 -0.4517
 7150TIP3    H242942   3.476   1.655   5.208 -1.3615  0.3319 -0.5281
 7151TIP3   OH242943   5.145   4.968  11.474 -0.7446  0.3863  0.5287
 7151TIP3    H142944   5.165   4.904  11.406 -1.1844  0.1741  0.5932
 7151TIP3    H242945   5.132   5.050  11.427  0.9271  0.6973  0.5429
 7152TIP3   OH242946   1.348   2.239   2.238  0.2223 -0.2223  0.1523
 7152TIP3    H142947   1.260   2.267   2.264  0.9040  2.6846 -0.3238
 7152TIP3    H242948   1.364   2.159   2.288 -1.7960  0.4722  2.0461
 7153TIP3   OH242949   6.219   5.942   2.112  0.3116  0.0360 -0.4441
 7153TIP3    H142950   6.215   5.851   2.082 -0.6846  0.0660 -0.4307
 7153TIP3    H242951   6.222   5.935   2.207 -0.5911  0.0158 -0.4025
 7154TIP3   OH242952   4.327   0.670  17.145 -0.3709  0.4770  0.3610
 7154TIP3    H142953   4.289   0.621  17.071 -0.1091  1.4872 -0.4644
 7154TIP3    H242954   4.286   0.757  17.139  1.2626  1.2635  0.0831
 7155TIP3   OH242955   1.701   1.672  10.678 -0.2689  0.4812  0.0504
 7155TIP3    H142956   1.676   1.632  10.595 -0.2345  1.0005 -0.2180
 7155TIP3    H242957   1.797   1.672  10.676 -0.2018 -1.5965  1.1198
 7156TIP3   OH242958   4.536   1.691  16.953  0.3371 -0.4539  0.2293
 7156TIP3    H142959   4.580   1.606  16.949  0.3686 -0.5694  2.2606
 7156TIP3    H242960   4.463   1.683  16.892 -0.2547 -2.3197  1.1128
 7157TIP3   OH242961   5.207   2.389  12.743  0.2788  0.4930 -0.1762
 7157TIP3    H142962   5.261   2.337  12.683  1.2774  1.6321 -0.2864
 7157TIP3    H242963   5.247   2.376  12.829 -1.1118 -1.0855  0.2905
 7158TIP3   OH242964   5.081   2.406   3.148 -0.1531  0.4594 -0.6384
 7158TIP3    H142965   5.046   2.350   3.216  0.0431  2.5969  1.3341
 7158TIP3    H242966   5.154   2.356   3.111  0.6893 -0.2093  1.7442
 7159TIP3   OH242967   1.687   6.305  11.568 -0.3201  0.0368 -0.1517
 7159TIP3    H142968   1.765   6.252  11.552  0.4843  1.1559 -0.0439
 7159TIP3    H242969   1.716   6.395  11.554 -1.6026  0.4678 -0.1185
 7160TIP3   OH242970   2.073   2.384   4.869 -0.8919 -0.5659  0.2876
 7160TIP3    H142971   2.035   2.457   4.819  0.4062 -1.2085 -1.7770
 7160TIP3    H242972   2.112   2.426   4.946 -0.3543  0.9494 -0.7385
 7161TIP3   OH242973   4.812   2.173   2.330 -0.3388 -0.1093 -0.1703
 7161TIP3    H142974   4.719   2.187   2.310 -0.1567 -0.8819 -1.6931
 7161TIP3    H242975   4.813   2.089   2.375 -0.7202  1.5147  3.1488
 7162TIP3   OH242976   4.752   5.019  16.335  0.3113  0.6784 -0.0027
 7162TIP3    H142977   4.660   5.022  16.308  0.3483  1.1135 -0.0793
 7162TIP3    H242978   4.751   4.967  16.416 -0.1148  1.3384  0.4312
 7163TIP3   OH242979   3.200   2.475   5.628 -0.3023 -0.2454 -0.2469
 7163TIP3    H142980   3.246   2.551   5.592 -1.7835  1.1546  0.6300
 7163TIP3    H242981   3.213   2.406   5.564  1.3678  0.6465 -0.9398
 7164TIP3   OH242982   5.562   4.933   2.457 -0.0812  0.1862 -0.0867
 7164TIP3    H142983   5.617   4.908   2.383  1.1630  1.1380  0.4772
 7164TIP3    H242984   5.476   4.949   2.419  0.6453  1.1089 -1.4135
 7165TIP3   OH242985   4.122   4.781   5.544 -0.1005  0.6243  0.3312
 7165TIP3    H142986   4.049   4.838   5.566 -0.5087  0.0665  0.4495
 7165TIP3    H242987   4.102   4.698   5.588  0.9216  0.6658  0.9054
 7166TIP3   OH242988   1.181   3.672   1.929  0.2153 -0.3993 -0.2835
 7166TIP3    H142989   1.112   3.607   1.941  1.6936 -1.7700  1.4904
 7166TIP3    H242990   1.258   3.621   1.905  1.0612  0.8626 -0.3416
 7167TIP3   OH242991   4.634   6.568   2.438  0.3782  0.2897 -0.1671
 7167TIP3    H142992   4.580   6.559   2.360  1.0001 -0.6303 -0.5165
 7167TIP3    H242993   4.662   6.659   2.438 -1.2080  0.8076  0.0665
 7168TIP3   OH242994   3.453   0.170   1.396 -0.2055  0.0477 -0.1241
 7168TIP3    H142995   3.525   0.113   1.372  0.6034  0.5243  1.0858
 7168TIP3    H242996   3.379   0.139   1.344  0.2829 -1.8836  0.2731
 7169TIP3   OH242997   6.312   4.682   1.552 -0.1963 -0.4035 -0.2126
 7169TIP3    H142998   6.335   4.630   1.629  0.0295 -0.4420 -0.3054
 7169TIP3    H242999   6.309   4.772   1.584 -0.8625 -0.5039  0.0089
 7170TIP3   OH243000   5.865   1.412  14.957 -0.3978 -0.3169 -0.3086
 7170TIP3    H143001   5.866   1.495  14.908 -2.1856 -0.2747 -0.3212
 7170TIP3    H243002   5.958   1.391  14.970  0.0969  1.6421 -0.3734
 7171TIP3   OH243003   1.591   2.045  15.857  0.1535 -0.2591  0.0492
 7171TIP3    H143004   1.603   2.054  15.762  0.5262  0.1890  0.1321
 7171TIP3    H243005   1.497   2.034  15.869  0.1650 -0.9577 -0.4187
 7172TIP3   OH243006   3.899   6.564  12.608  0.2653 -0.0072  0.4727
 7172TIP3    H143007   3.953   6.521  12.542 -0.2314 -1.1823  0.8182
 7172TIP3    H243008   3.961   6.616  12.659  0.7067  0.6614 -0.6862
 7173TIP3   OH243009   0.983   0.857   4.131  0.0748  0.0548  0.3648
 7173TIP3    H143010   0.927   0.780   4.140  0.9316 -0.4686  1.4108
 7173TIP3    H243011   1.038   0.856   4.209  0.0992  1.7370  0.4039
 7174TIP3   OH243012   3.986   1.022  10.365 -0.2845 -0.3389 -0.5360
 7174TIP3    H143013   3.964   1.057  10.451 -1.9656 -0.5951 -0.8180
 7174TIP3    H243014   4.061   0.965  10.380 -1.6660 -1.8326  1.1350
 7175TIP3   OH243015   6.052   2.333   3.121  0.3596 -0.1938 -0.5437
 7175TIP3    H143016   6.055   2.277   3.198 -0.2491 -0.5111 -0.7463
 7175TIP3    H243017   6.134   2.316   3.075  0.6695 -0.0920 -0.0267
 7176TIP3   OH243018   0.651   2.654  11.845  0.4892  0.5590 -0.0465
 7176TIP3    H143019   0.648   2.677  11.752 -0.0307  0.4873 -0.0493
 7176TIP3    H243020   0.559   2.646  11.871  0.5607 -2.3256 -0.2658
 7177TIP3   OH243021   3.673   4.361   3.995  0.1697  0.5699  0.8522
 7177TIP3    H143022   3.586   4.382   4.030 -0.1568 -1.4198  1.4014
 7177TIP3    H243023   3.691   4.273   4.030  1.1067 -0.3193 -1.6503
 7178TIP3   OH243024   3.087   0.365  15.364 -0.3932 -0.7948  0.3295
 7178TIP3    H143025   3.115   0.386  15.275 -0.7150 -0.9377  0.1944
 7178TIP3    H243026   3.010   0.419  15.379 -0.6370 -1.1393  0.3396
 7179TIP3   OH243027   5.636   4.599   0.779 -0.6737 -0.0682 -0.1830
 7179TIP3    H143028   5.629   4.690   0.809  2.2665  0.6196 -1.2429
 7179TIP3    H243029   5.636   4.605   0.684  2.7690 -0.6448 -0.3792
 7180TIP3   OH243030   6.308   5.980   4.189 -0.5625 -0.2331  0.0910
 7180TIP3    H143031   6.270   5.981   4.276 -0.6390 -1.5132  0.0946
 7180TIP3    H243032   6.377   6.046   4.192  0.0096 -0.8456  1.3991
 7181TIP3   OH243033   1.403   4.196   3.270 -0.4573  0.0006 -0.8097
 7181TIP3    H143034   1.462   4.235   3.335 -0.7447  0.5063 -0.8478
 7181TIP3    H243035   1.461   4.146   3.212 -0.1543 -0.1389 -0.3986
 7182TIP3   OH243036   2.859   2.068  15.815  0.1912  0.6052  0.6067
 7182TIP3    H143037   2.774   2.070  15.771  0.7297 -0.3195 -0.5453
 7182TIP3    H243038   2.840   2.032  15.902 -0.6126  0.4862  0.3886
 7183TIP3   OH243039   1.331   1.107  11.457  0.1361 -0.6794  0.4328
 7183TIP3    H143040   1.306   1.051  11.383 -0.7122 -1.4875  1.2912
 7183TIP3    H243041   1.419   1.078  11.479  1.1231  0.7605 -1.3108
 7184TIP3   OH243042   5.484   4.585  15.108  0.6005  0.4429 -0.3644
 7184TIP3    H143043   5.425   4.520  15.146 -0.3643  1.2464 -0.4708
 7184TIP3    H243044   5.453   4.597  15.019 -0.6133  2.6393  0.2976
 7185TIP3   OH243045   4.325   4.033   1.436  0.5651 -0.2925  0.0407
 7185TIP3    H143046   4.360   4.022   1.348  0.1728  0.7595 -0.2634
 7185TIP3    H243047   4.326   3.945   1.474  3.3040 -0.3896 -0.0170
 7186TIP3   OH243048   3.140   3.015  16.004  0.7858 -0.1732 -1.0509
 7186TIP3    H143049   3.157   3.096  15.957  0.6918  0.1764 -0.5017
 7186TIP3    H243050   3.220   2.964  15.995  1.5381  0.7548  0.1257
 7187TIP3   OH243051   2.899   0.710  14.048  0.4254  0.3010 -0.1227
 7187TIP3    H143052   2.853   0.693  13.966  1.9458 -2.4470 -0.5177
 7187TIP3    H243053   2.870   0.640  14.107 -0.0115  1.7415  1.4701
 7188TIP3   OH243054   1.944   0.246   2.316 -0.3599  0.3248 -0.1771
 7188TIP3    H143055   1.974   0.324   2.268  1.8272 -1.1581 -1.4118
 7188TIP3    H243056   2.009   0.236   2.386  0.5926 -1.4432 -1.2469
 7189TIP3   OH243057   0.811   1.639  13.913 -1.3091  0.4193 -0.4050
 7189TIP3    H143058   0.889   1.695  13.914  0.3094 -1.7277 -0.2505
 7189TIP3    H243059   0.761   1.669  13.836  0.7069  0.5199 -1.7355
 7190TIP3   OH243060   6.742   4.299  15.840  0.7891  0.5731 -0.3157
 7190TIP3    H143061   6.755   4.378  15.893  1.2003  0.2086  0.1407
 7190TIP3    H243062   6.720   4.331  15.753 -1.1747  1.1938  0.3576
 7191TIP3   OH243063   1.056   1.367   3.339 -0.1142  0.1621 -0.5171
 7191TIP3    H143064   1.140   1.399   3.371  0.2564 -0.6672 -0.6335
 7191TIP3    H243065   1.020   1.440   3.289  0.2764  0.7172 -0.0038
 7192TIP3   OH243066   0.104   4.503  14.896  0.1341  0.1532  0.0370
 7192TIP3    H143067   0.126   4.413  14.875 -0.3014  0.3053 -1.1459
 7192TIP3    H243068   0.081   4.501  14.989 -0.5273 -1.0817 -0.1363
 7193TIP3   OH243069   3.203   2.604   0.164 -0.1452 -0.1452 -0.2154
 7193TIP3    H143070   3.249   2.531   0.123  0.1344  0.7137 -1.4791
 7193TIP3    H243071   3.226   2.680   0.111 -1.6468  0.6049  0.1583
 7194TIP3   OH243072   1.518   2.583  11.900  0.4288  0.5797 -0.3726
 7194TIP3    H143073   1.598   2.597  11.951 -0.5159 -0.1972  1.3927
 7194TIP3    H243074   1.455   2.546  11.962 -0.7797 -0.4750 -2.1226
 7195TIP3   OH243075   5.088   3.669   4.397 -0.2037  0.5072 -0.3475
 7195TIP3    H143076   5.181   3.650   4.406  0.0264  1.7930  0.1471
 7195TIP3    H243077   5.061   3.622   4.318  1.2313  1.4198 -1.4169
 7196TIP3   OH243078   6.240   0.107   0.950 -0.1722 -0.4631  0.0142
 7196TIP3    H143079   6.251   0.013   0.932 -1.3011 -0.8882  1.3565
 7196TIP3    H243080   6.180   0.138   0.883 -0.2737 -0.8349 -0.0695
 7197TIP3   OH243081   3.325   2.668  12.509  0.3738  0.2770  0.1989
 7197TIP3    H143082   3.314   2.762  12.495 -1.3016  0.1126  0.2462
 7197TIP3    H243083   3.336   2.632  12.420 -0.3066  0.3782  0.0680
 7198TIP3   OH243084   4.644   5.693  12.175 -0.1552  0.4571  0.4551
 7198TIP3    H143085   4.735   5.700  12.144  1.4678 -1.4573  4.1455
 7198TIP3    H243086   4.622   5.600  12.165 -0.7697  0.4370  1.8341
 7199TIP3   OH243087   6.296   0.875   3.926 -0.1056  0.5921  0.4637
 7199TIP3    H143088   6.316   0.943   3.861  0.9785  1.2768  1.4725
 7199TIP3    H243089   6.355   0.803   3.905 -0.5314  0.3555  0.0363
 7200TIP3   OH243090   3.281   3.397  14.670 -0.4186  0.0372 -0.7276
 7200TIP3    H143091   3.357   3.362  14.622 -0.0679  0.1844 -0.2813
 7200TIP3    H243092   3.318   3.432  14.751 -0.9071  0.5312 -0.7165
 7201TIP3   OH243093   4.608   2.237   5.187 -1.2233  0.1080 -0.1939
 7201TIP3    H143094   4.517   2.210   5.199 -1.3480  0.3562 -0.5592
 7201TIP3    H243095   4.619   2.313   5.244 -0.3573 -1.7267  2.2565
 7202TIP3   OH243096   5.329   4.404  15.249 -0.4509  0.1465 -0.4890
 7202TIP3    H143097   5.347   4.401  15.343 -1.2867 -0.2017 -0.3303
 7202TIP3    H243098   5.233   4.406  15.243 -0.3858  1.4912 -1.3085
 7203TIP3   OH243099   1.886   4.234  13.470 -0.5929  0.7662 -0.4494
 7203TIP3    H143100   1.901   4.163  13.408 -1.0213 -0.0053  0.3038
 7203TIP3    H243101   1.790   4.243  13.473 -0.6281  0.1250  0.8139
 7204TIP3   OH243102   6.253   4.627   1.022 -0.9772  0.2636 -0.3096
 7204TIP3    H143103   6.309   4.705   1.017  0.1586 -0.4514  0.6901
 7204TIP3    H243104   6.246   4.597   0.931 -2.8004  2.4175 -0.9589
 7205TIP3   OH243105   5.130   2.409  15.192  0.0903 -0.1251 -0.0380
 7205TIP3    H143106   5.175   2.436  15.272  2.0283 -1.8354 -0.4657
 7205TIP3    H243107   5.049   2.460  15.192  0.8269  1.2020  2.1043
 7206TIP3   OH243108   0.843   1.269  13.124  0.0905  1.0696  0.8862
 7206TIP3    H143109   0.795   1.348  13.099 -0.1435  0.8406  0.6058
 7206TIP3    H243110   0.902   1.298  13.193  2.7511  2.3760 -1.7047
 7207TIP3   OH243111   1.366   5.644   2.011 -0.2543 -0.2198  0.2648
 7207TIP3    H143112   1.281   5.678   1.983 -0.1647 -0.4407 -0.2954
 7207TIP3    H243113   1.357   5.629   2.105 -1.9376 -3.3401 -0.2491
 7208TIP3   OH243114   2.514   0.337  13.219 -0.2794  0.2673  0.0934
 7208TIP3    H143115   2.571   0.315  13.145 -2.0959 -2.2341 -0.6906
 7208TIP3    H243116   2.430   0.295  13.198 -1.9398  2.4179  1.9626
 7209TIP3   OH243117   5.401   1.337   4.925  0.3885 -0.6083  0.1370
 7209TIP3    H143118   5.331   1.282   4.892  0.8282 -0.1064 -1.7985
 7209TIP3    H243119   5.358   1.403   4.979 -0.3026 -1.8922  1.1791
 7210TIP3   OH243120   0.642   3.934   2.214 -0.3721 -0.6353 -0.7150
 7210TIP3    H143121   0.681   3.987   2.283 -0.0256 -1.0285 -0.6104
 7210TIP3    H243122   0.612   3.998   2.149 -1.2773 -0.2273  0.0894
 7211TIP3   OH243123   6.085   2.428   1.507 -0.5814 -0.2697 -0.1436
 7211TIP3    H143124   6.071   2.335   1.488 -0.8903 -1.1245  3.4292
 7211TIP3    H243125   6.180   2.440   1.496 -0.5227 -1.0379 -0.5521
 7212TIP3   OH243126   0.355   6.824  15.985 -0.0343 -0.4133 -0.0015
 7212TIP3    H143127   0.375   6.733  16.006 -1.2593 -0.2895  1.8906
 7212TIP3    H243128   0.353   6.868  16.070  0.4385  1.3684 -0.8776
 7213TIP3   OH243129   3.851   0.840   1.291  0.2959 -0.1602  0.1525
 7213TIP3    H143130   3.933   0.791   1.286  0.7929  0.6775 -0.1670
 7213TIP3    H243131   3.811   0.829   1.205 -0.1271 -0.9052  0.4434
 7214TIP3   OH243132   1.423   2.557  16.415  1.0583 -0.0658 -0.3037
 7214TIP3    H143133   1.381   2.497  16.354  0.4309 -0.5135  0.5459
 7214TIP3    H243134   1.382   2.642  16.397 -2.4667 -0.9628  2.3946
 7215TIP3   OH243135   2.722   0.364   3.881 -0.2568  0.0550  0.1259
 7215TIP3    H143136   2.726   0.452   3.845 -1.8764  0.1567  0.1526
 7215TIP3    H243137   2.705   0.377   3.974  0.0239 -0.2929  0.2315
 7216TIP3   OH243138   5.665   1.200  13.773 -0.1161  0.1965 -0.4487
 7216TIP3    H143139   5.578   1.229  13.745 -1.1314 -0.5913  1.6723
 7216TIP3    H243140   5.691   1.136  13.707 -1.7867 -0.5820 -0.4171
 7217TIP3   OH243141   6.224   6.597  10.931 -0.2179  0.2707 -0.6356
 7217TIP3    H143142   6.195   6.665  10.870 -1.2985  0.8798  0.5237
 7217TIP3    H243143   6.207   6.515  10.884 -1.6305  0.7033 -0.9470
 7218TIP3   OH243144   5.452   2.217  14.900  0.7401 -0.3936  0.1850
 7218TIP3    H143145   5.400   2.147  14.939  0.1521 -0.0657  0.0113
 7218TIP3    H243146   5.461   2.282  14.970 -0.7261  0.4139 -0.3353
 7219TIP3   OH243147   1.038   3.612   0.872  0.2691  0.4185  0.1972
 7219TIP3    H143148   1.043   3.518   0.853 -0.5063  0.6578 -1.3348
 7219TIP3    H243149   1.129   3.641   0.875  0.5406 -0.5143  1.4478
 7220TIP3   OH243150   3.142   5.956  11.685  0.2057  0.3998  0.8922
 7220TIP3    H143151   3.154   6.047  11.657  0.2601 -0.4432 -2.2457
 7220TIP3    H243152   3.098   5.915  11.611  1.4043 -2.4572  1.6615
 7221TIP3   OH243153   0.970   1.518   3.578 -0.0911 -0.2795  0.2933
 7221TIP3    H143154   0.987   1.611   3.596  0.6085 -0.7429  2.2233
 7221TIP3    H243155   1.055   1.476   3.587 -0.4800 -1.1899 -0.1768
 7222TIP3   OH243156   5.553   2.750  14.596 -0.1349  0.8714 -0.5732
 7222TIP3    H143157   5.543   2.687  14.525  0.1406  0.3339 -0.1509
 7222TIP3    H243158   5.509   2.709  14.670 -1.4055  1.9364 -0.7182
 7223TIP3   OH243159   2.838   2.387  13.278  0.9016 -0.8453 -0.3093
 7223TIP3    H143160   2.747   2.403  13.250  0.7488  2.2395  1.4705
 7223TIP3    H243161   2.837   2.298  13.312 -1.0645 -1.4428 -1.7390
 7224TIP3   OH243162   0.722   0.039  13.662 -0.2464 -0.2338 -0.1884
 7224TIP3    H143163   0.743  -0.054  13.674  0.4420  0.0991  1.3229
 7224TIP3    H243164   0.805   0.080  13.639 -0.5371  0.0386 -0.7844
 7225TIP3   OH243165   6.403   0.084  13.690 -0.6101  0.0974 -0.4327
 7225TIP3    H143166   6.474   0.033  13.730 -1.3301 -0.6530 -0.0903
 7225TIP3    H243167   6.447   0.163  13.657  0.4176 -0.4366 -0.3992
 7226TIP3   OH243168   4.189   2.515   0.206  0.0588 -0.1752 -0.0920
 7226TIP3    H143169   4.251   2.544   0.274  1.6532  0.6745 -1.8016
 7226TIP3    H243170   4.106   2.504   0.252  0.8153  1.4140  1.7989
 7227TIP3   OH243171   4.714   3.425   0.377 -0.0563  0.0051  0.0865
 7227TIP3    H143172   4.654   3.454   0.308  0.5512 -1.6993 -1.2347
 7227TIP3    H243173   4.793   3.476   0.362  0.7032 -1.5591 -1.6794
 7228TIP3   OH243174   1.154   6.330  14.727 -0.2774 -0.1537  0.3434
 7228TIP3    H143175   1.135   6.336  14.634 -1.0741  0.2900  0.5262
 7228TIP3    H243176   1.123   6.243  14.752 -1.4326  0.2845  0.4857
 7229TIP3   OH243177   5.192   0.024  16.905 -0.3407  0.2089  0.2593
 7229TIP3    H143178   5.197   0.103  16.851 -1.2439 -1.3834 -2.3526
 7229TIP3    H243179   5.281   0.011  16.937  0.0607  1.6604 -0.1620
 7230TIP3   OH243180   6.282   4.709   2.982 -0.2541  0.7556 -0.0347
 7230TIP3    H143181   6.332   4.691   3.062  0.3058  0.3926 -0.4584
 7230TIP3    H243182   6.243   4.795   2.998 -2.8789 -0.6510  1.9708
 7231TIP3   OH243183   6.624   4.445  14.959 -0.2989 -0.5098 -0.5920
 7231TIP3    H143184   6.686   4.458  15.030 -1.4157 -2.4394  0.8561
 7231TIP3    H243185   6.673   4.467  14.879  0.9511  1.8651  0.7225
 7232TIP3   OH243186   3.384   6.560   3.932 -0.1470 -0.5878  0.1161
 7232TIP3    H143187   3.320   6.507   3.978 -0.7297  0.5548  0.6608
 7232TIP3    H243188   3.333   6.610   3.868  0.0941  0.6831  0.8726
 7233TIP3   OH243189   3.192   1.963   6.012 -0.0704  0.2265  0.3818
 7233TIP3    H143190   3.235   1.966   5.927 -0.8488 -0.2701 -0.0380
 7233TIP3    H243191   3.102   1.937   5.993  0.0220 -0.9631  1.4680
 7234TIP3   OH243192   5.745   1.078  14.676  0.0021 -0.4641 -0.3850
 7234TIP3    H143193   5.656   1.111  14.690 -0.3332 -1.3171 -0.4409
 7234TIP3    H243194   5.801   1.155  14.686 -0.8734  0.4440 -1.9967
 7235TIP3   OH243195   3.372   3.841   2.998 -0.7907  0.2382  0.1392
 7235TIP3    H143196   3.386   3.891   2.916  0.0930  0.6081  0.4985
 7235TIP3    H243197   3.285   3.866   3.026 -0.6293  1.0676 -0.0580
 7236TIP3   OH243198   6.447   5.869   3.294 -0.1981 -0.0892 -0.1605
 7236TIP3    H143199   6.542   5.878   3.287 -0.4736  3.0174 -1.4101
 7236TIP3    H243200   6.429   5.878   3.388  0.6666  0.5192 -0.0455
 7237TIP3   OH243201   0.722   5.028   3.710  0.1445  0.2251  0.1814
 7237TIP3    H143202   0.815   5.012   3.692 -0.6849 -2.6346 -2.4337
 7237TIP3    H243203   0.697   4.959   3.772 -0.5359  0.1219 -0.2010
 7238TIP3   OH243204   0.923   4.116   3.341 -0.6549 -0.1851  0.1283
 7238TIP3    H143205   1.014   4.134   3.366 -0.6736 -0.7970  0.6899
 7238TIP3    H243206   0.929   4.037   3.286 -1.1083 -2.5101  3.1294
 7239TIP3   OH243207   5.258   2.315   4.980  0.1823 -0.3001  0.1100
 7239TIP3    H143208   5.297   2.400   5.001 -0.9046  0.0400  0.8214
 7239TIP3    H243209   5.331   2.253   4.985  0.7231  0.3826  0.9663
 7240TIP3   OH243210   6.642   3.064  17.158  0.5436 -0.2350  0.0662
 7240TIP3    H143211   6.613   3.001  17.224 -0.6191 -0.5539 -0.7242
 7240TIP3    H243212   6.727   3.094  17.190 -0.2683  0.1194  2.0579
 7241TIP3   OH243213   2.461   6.330   4.680 -0.2348  0.3234  0.5200
 7241TIP3    H143214   2.492   6.406   4.730  2.6028 -0.5187  0.2421
 7241TIP3    H243215   2.459   6.259   4.744  4.0416 -0.9197 -0.3590
 7242TIP3   OH243216   0.724   4.828  12.493 -0.0522 -0.6487 -0.0272
 7242TIP3    H143217   0.801   4.847  12.546  0.6213 -1.1019 -0.8207
 7242TIP3    H243218   0.650   4.845  12.551  0.5807  1.3061  0.2685
 7243TIP3   OH243219   5.083   3.861  11.788 -0.6220 -0.0974 -0.1536
 7243TIP3    H143220   5.102   3.926  11.855  1.5676 -0.4746 -0.3261
 7243TIP3    H243221   5.001   3.820  11.816 -0.3509  0.5382  1.6793
 7244TIP3   OH243222   4.523   2.006   3.423  0.5474  0.1363 -0.3296
 7244TIP3    H143223   4.440   2.027   3.466  0.1765  1.2943 -1.5203
 7244TIP3    H243224   4.590   2.035   3.485  0.0940 -0.9532  0.7150
 7245TIP3   OH243225   2.104   6.237  17.249  0.6905 -0.2758 -0.0303
 7245TIP3    H143226   2.180   6.226  17.191  0.6303  2.7274 -0.8083
 7245TIP3    H243227   2.129   6.307  17.309 -0.6448 -0.8254  1.2416
 7246TIP3   OH243228   5.889   4.518  13.329  0.5643 -0.4535  0.0437
 7246TIP3    H143229   5.860   4.443  13.277 -0.3387 -0.7168  0.8894
 7246TIP3    H243230   5.984   4.509  13.334  0.4995 -1.3217 -0.1770
 7247TIP3   OH243231   1.070   6.278  13.678 -0.2059 -0.1390 -0.3848
 7247TIP3    H143232   1.023   6.361  13.671  1.5458  0.8544 -0.7298
 7247TIP3    H243233   1.105   6.278  13.767  0.1333 -0.3291 -0.5193
 7248TIP3   OH243234   4.989   1.987  15.768  0.0635 -0.1211  0.0851
 7248TIP3    H143235   4.934   1.996  15.845  0.1567  1.0533  0.0338
 7248TIP3    H243236   5.078   2.002  15.800  0.0914  0.4802 -0.2573
 7249TIP3   OH243237   0.105   5.378  15.105 -0.9038  0.4168 -0.2715
 7249TIP3    H143238   0.164   5.450  15.082 -2.1977  2.5357  2.4932
 7249TIP3    H243239   0.159   5.319  15.159 -0.3671  0.3689 -0.8504
 7250TIP3   OH243240   4.794   2.357   3.678 -0.1343  0.3658  0.0107
 7250TIP3    H143241   4.787   2.356   3.582  1.5551  0.8646 -0.1503
 7250TIP3    H243242   4.808   2.450   3.699  2.7156 -0.0567  0.4102
 7251TIP3   OH243243   4.722   4.343   6.336 -0.6608 -0.2867 -0.4190
 7251TIP3    H143244   4.815   4.360   6.318 -0.8471 -2.1287 -4.0838
 7251TIP3    H243245   4.676   4.414   6.292 -1.0205 -0.3606 -0.1624
 7252TIP3   OH243246   6.285   5.059   0.309  0.0683 -0.2610 -0.3227
 7252TIP3    H143247   6.212   5.095   0.259  0.0378 -1.2209 -0.9981
 7252TIP3    H243248   6.254   4.973   0.338 -0.1857  0.5601  1.9889
 7253TIP3   OH243249   2.555   2.031  15.781  0.0073  0.1933 -0.0192
 7253TIP3    H143250   2.531   2.092  15.712 -1.4685  0.3845  0.6234
 7253TIP3    H243251   2.481   2.034  15.842  1.9438  1.2780  2.4453
 7254TIP3   OH243252   0.410   2.283  17.194  0.3802  0.0182  0.4637
 7254TIP3    H143253   0.476   2.324  17.137  0.2174  1.7932  1.4807
 7254TIP3    H243254   0.414   2.190  17.172  2.9415  0.1168  0.1891
 7255TIP3   OH243255   6.214   6.241  15.799 -0.2001 -0.3863  0.0856
 7255TIP3    H143256   6.213   6.204  15.710 -1.1514 -1.6334  0.5952
 7255TIP3    H243257   6.140   6.302  15.800  0.6606  0.7163 -0.3840
 7256TIP3   OH243258   1.205   0.405   2.263 -0.0618  0.2853 -0.0001
 7256TIP3    H143259   1.174   0.445   2.345  0.6624 -3.5813  2.4094
 7256TIP3    H243260   1.300   0.403   2.272  0.4290  3.2217 -2.8706
 7257TIP3   OH243261   4.531   5.340   3.640  0.2481  0.3001 -0.0171
 7257TIP3    H143262   4.611   5.390   3.658  1.4569 -1.4232 -0.3240
 7257TIP3    H243263   4.550   5.253   3.674 -1.6512 -0.0810  0.1752
 7258TIP3   OH243264   3.266   3.244   0.026  0.1118  0.0565  0.1331
 7258TIP3    H143265   3.206   3.182   0.068 -0.9462  0.4868 -0.6768
 7258TIP3    H243266   3.215   3.279  -0.047  1.1101  1.0069 -0.1197
 7259TIP3   OH243267   0.562   0.076   3.646 -0.4311 -0.0322  0.6386
 7259TIP3    H143268   0.613   0.088   3.566 -1.3880 -0.0699 -0.0002
 7259TIP3    H243269   0.558   0.163   3.686  0.4107 -0.0985  0.8795
 7260TIP3   OH243270   2.699   3.467   2.516  0.4872  0.4853  0.1922
 7260TIP3    H143271   2.655   3.438   2.596  0.1312  1.4090  0.3398
 7260TIP3    H243272   2.755   3.539   2.545 -0.2995  1.4057 -0.5298
 7261TIP3   OH243273   4.020   1.753   0.684  0.1504 -0.3027 -0.2235
 7261TIP3    H143274   3.980   1.677   0.641 -0.3980 -1.2371  1.8338
 7261TIP3    H243275   3.949   1.816   0.692  0.5241  0.3532 -1.6160
 7262TIP3   OH243276   5.047   1.857   4.127  0.3843  0.3236 -0.2427
 7262TIP3    H143277   4.967   1.820   4.164  1.8100 -1.3021  1.3822
 7262TIP3    H243278   5.031   1.857   4.032 -1.4023 -0.2461  0.0191
 7263TIP3   OH243279   3.413   4.288   2.512 -0.6424  0.1505  0.5094
 7263TIP3    H143280   3.394   4.236   2.590 -0.1282  0.6179  0.9644
 7263TIP3    H243281   3.494   4.335   2.534  1.6073 -2.3559 -1.6130
 7264TIP3   OH243282   3.368   6.754  11.530  0.1369  0.6667  0.4861
 7264TIP3    H143283   3.335   6.826  11.477 -0.3916 -0.1095 -0.2539
 7264TIP3    H243284   3.402   6.691  11.467 -0.4390 -0.2468  1.0665
 7265TIP3   OH243285   4.465   2.846   0.317 -0.2800 -0.3508 -0.3764
 7265TIP3    H143286   4.481   2.873   0.408 -0.9020 -0.0156 -0.3611
 7265TIP3    H243287   4.438   2.755   0.324 -0.7043 -0.2154 -0.1793
 7266TIP3   OH243288   4.456   1.123   0.461 -0.0220  0.6273 -0.3240
 7266TIP3    H143289   4.461   1.114   0.556 -0.2861  1.2753 -0.2477
 7266TIP3    H243290   4.420   1.210   0.447  1.6246  1.2045 -1.0576
 7267TIP3   OH243291   0.155   6.415   2.738  0.1692 -0.0820 -0.3568
 7267TIP3    H143292   0.186   6.327   2.760  1.1454  0.3765  0.1520
 7267TIP3    H243293   0.198   6.435   2.655 -0.0752 -0.0869 -0.4863
 7268TIP3   OH243294   2.329   4.096  13.641 -0.2868  0.4407 -0.1102
 7268TIP3    H143295   2.328   4.016  13.693 -1.4159 -0.8668 -2.0294
 7268TIP3    H243296   2.406   4.087  13.585 -0.4816  0.6548 -0.4144
 7269TIP3   OH243297   0.782   2.296   4.318  0.1910  0.1788 -0.0121
 7269TIP3    H143298   0.828   2.289   4.402  0.1675 -0.6475 -0.0591
 7269TIP3    H243299   0.770   2.390   4.305  1.8029  0.4260  0.0465
 7270TIP3   OH243300   4.341   4.459   4.545 -0.5656 -0.2459 -0.7132
 7270TIP3    H143301   4.284   4.402   4.494 -0.3061 -0.8165 -0.3664
 7270TIP3    H243302   4.287   4.537   4.561 -0.7772 -0.2127 -1.5322
 7271TIP3   OH243303   1.719   0.587   1.734 -0.1383  0.5587  0.1615
 7271TIP3    H143304   1.627   0.600   1.712  0.2243 -0.5520 -2.3555
 7271TIP3    H243305   1.760   0.564   1.651  2.3686  0.7204  1.2771
 7272TIP3   OH243306   5.688   4.784  12.521  0.3891  0.3940  0.6323
 7272TIP3    H143307   5.731   4.792  12.436  0.9981  0.1845  0.9147
 7272TIP3    H243308   5.635   4.704  12.514  0.0078  0.6686  0.2748
 7273TIP3   OH243309   6.468   5.954   5.172 -0.2769 -0.3449 -0.3411
 7273TIP3    H143310   6.493   6.046   5.157 -1.8966 -0.2284 -3.1299
 7273TIP3    H243311   6.542   5.904   5.137  0.8915 -0.1767  1.7559
 7274TIP3   OH243312   6.742   0.581   2.869  0.3144  0.3123  0.4258
 7274TIP3    H143313   6.824   0.582   2.918  0.7234 -3.3737  0.1313
 7274TIP3    H243314   6.676   0.559   2.934 -0.3002  2.1010  0.4445
 7275TIP3   OH243315   3.424   0.362   5.669 -0.1237 -0.1593  0.5910
 7275TIP3    H143316   3.508   0.403   5.690 -0.4032  1.3056 -0.9393
 7275TIP3    H243317   3.448   0.284   5.618  0.3386  0.7895 -0.7192
 7276TIP3   OH243318   1.037   6.726  12.133 -0.1668 -0.0625 -0.4466
 7276TIP3    H143319   1.092   6.661  12.176 -0.1547 -0.6293 -1.3065
 7276TIP3    H243320   1.019   6.790  12.202 -0.3402 -1.0640  0.4784
 7277TIP3   OH243321   0.379   2.537  11.849  0.0724 -0.0174 -0.3854
 7277TIP3    H143322   0.376   2.604  11.781 -0.3398 -0.1156 -0.4669
 7277TIP3    H243323   0.304   2.558  11.905 -0.9049 -1.2263 -1.1861
 7278TIP3   OH243324   2.149   3.940  17.085 -0.5066  0.1240 -0.5620
 7278TIP3    H143325   2.243   3.957  17.085 -0.3427 -0.7617 -0.4070
 7278TIP3    H243326   2.109   4.027  17.090  0.3117  0.4391  0.9118
 7279TIP3   OH243327   1.262   5.198   3.104 -0.1997 -0.4211 -0.0473
 7279TIP3    H143328   1.234   5.209   3.195 -1.5645 -1.2257 -0.3536
 7279TIP3    H243329   1.289   5.107   3.098  1.4753  0.0472 -0.0570
 7280TIP3   OH243330   1.147   6.667  13.717 -0.0170  0.5968 -0.0312
 7280TIP3    H143331   1.097   6.586  13.715 -1.0520  1.2162 -0.0869
 7280TIP3    H243332   1.216   6.651  13.781 -2.1740  0.7797  2.5097
 7281TIP3   OH243333   0.324   6.573  12.493 -0.4608  0.4145 -0.3299
 7281TIP3    H143334   0.364   6.660  12.497 -0.9834  0.6621 -0.4539
 7281TIP3    H243335   0.382   6.524  12.435 -0.2138  0.7060 -0.3387
 7282TIP3   OH243336   2.367   2.934  14.861  0.0649  0.3897 -0.1054
 7282TIP3    H143337   2.459   2.927  14.884 -0.0525  1.5170  0.8102
 7282TIP3    H243338   2.339   2.844  14.847  1.7307  0.1520 -2.2625
 7283TIP3   OH243339   3.899   2.290  13.805  0.2187 -0.3372 -0.0553
 7283TIP3    H143340   3.857   2.355  13.748  1.4141 -0.0448 -0.6300
 7283TIP3    H243341   3.895   2.330  13.893  0.0416  0.0627 -0.2399
 7284TIP3   OH243342   4.574   3.909  14.461 -0.2469 -0.0512  0.6186
 7284TIP3    H143343   4.580   3.966  14.384 -0.8116  0.0944  0.6791
 7284TIP3    H243344   4.502   3.945  14.513 -1.7739 -1.7732 -0.1569
 7285TIP3   OH243345   0.684   2.660  14.027 -0.2225  0.1212  0.1319
 7285TIP3    H143346   0.698   2.629  14.117 -1.1737 -1.0389 -0.0916
 7285TIP3    H243347   0.771   2.662  13.989  0.1821  0.4876  1.0363
 7286TIP3   OH243348   4.388   6.798   2.327 -0.5518 -0.5756  0.0058
 7286TIP3    H143349   4.325   6.749   2.380 -1.6345 -1.3734 -1.9299
 7286TIP3    H243350   4.351   6.798   2.239  1.0886  0.8680 -0.7499
 7287TIP3   OH243351   0.860   0.394  16.997  0.5551  0.3196 -0.2172
 7287TIP3    H143352   0.811   0.414  16.918  1.7375  0.2175 -1.0086
 7287TIP3    H243353   0.952   0.406  16.972  1.0185 -0.8137  0.8161
 7288TIP3   OH243354   6.638   1.808   4.560  0.1152  0.0378  1.0917
 7288TIP3    H143355   6.692   1.788   4.484  1.6534  1.5868  1.7149
 7288TIP3    H243356   6.580   1.879   4.530 -0.4756 -0.5110  0.9017
 7289TIP3   OH243357   1.764   6.151  14.181  0.2049  0.2282  0.6356
 7289TIP3    H143358   1.845   6.190  14.214  0.7746 -0.6050  0.2448
 7289TIP3    H243359   1.772   6.157  14.085 -0.5983  0.9460  0.6016
 7290TIP3   OH243360   4.395   6.225   2.305  0.3085  0.4864  0.0283
 7290TIP3    H143361   4.309   6.185   2.291  1.0551 -0.8338 -0.8736
 7290TIP3    H243362   4.392   6.255   2.396 -1.3112  0.9962 -0.1560
 7291TIP3   OH243363   2.809   2.642  11.120  0.1149 -0.2217 -0.0217
 7291TIP3    H143364   2.751   2.696  11.173 -1.7511 -0.0480 -2.0663
 7291TIP3    H243365   2.871   2.603  11.182 -1.2983  0.7390  2.0777
 7292TIP3   OH243366   1.626   3.909  10.541 -0.0665 -0.4337  0.1271
 7292TIP3    H143367   1.691   3.844  10.514  0.6809  0.6518 -0.7557
 7292TIP3    H243368   1.542   3.864  10.530  0.3028 -0.6930 -2.3356
 7293TIP3   OH243369   2.563   6.569  16.048  0.2016  0.0291 -0.3785
 7293TIP3    H143370   2.512   6.518  16.111  0.3802 -0.1513 -0.3770
 7293TIP3    H243371   2.645   6.520  16.040 -0.8057 -1.4263 -2.7465
 7294TIP3   OH243372   5.049   5.297  16.640 -0.4355 -0.7239 -0.0235
 7294TIP3    H143373   5.117   5.364  16.644  0.2572 -1.2269 -1.9195
 7294TIP3    H243374   4.969   5.345  16.617  0.0452 -0.4955 -1.3188
 7295TIP3   OH243375   3.977   0.503  11.897 -0.4571  0.2101  0.0472
 7295TIP3    H143376   3.955   0.589  11.934 -0.1164 -0.0980  0.9693
 7295TIP3    H243377   3.972   0.517  11.802  1.0467  1.6571  0.1179
 7296TIP3   OH243378   4.678   0.963  15.576  0.1897 -0.2602 -0.3046
 7296TIP3    H143379   4.746   0.913  15.531 -0.5178  0.2897 -2.0655
 7296TIP3    H243380   4.715   1.050  15.587  0.3693 -0.3988  0.2422
 7297TIP3   OH243381   4.612   4.980  13.749 -0.4468  0.2596 -0.5235
 7297TIP3    H143382   4.538   4.923  13.766 -0.0774 -0.5184 -1.4644
 7297TIP3    H243383   4.601   5.009  13.659  0.3789  0.1333 -0.6801
 7298TIP3   OH243384   0.237   5.489  16.707  0.1231 -0.1326 -0.6495
 7298TIP3    H143385   0.209   5.528  16.789  0.4355 -1.0760 -0.0801
 7298TIP3    H243386   0.261   5.399  16.730 -0.3305 -0.5883 -1.8736
 7299TIP3   OH243387   4.306   3.369   1.011 -0.2531  0.0143 -0.5787
 7299TIP3    H143388   4.214   3.372   0.984 -0.2831  0.0755 -0.4711
 7299TIP3    H243389   4.353   3.411   0.940 -0.2584 -0.4236 -0.8477
 7300TIP3   OH243390   5.906   3.610  14.200  0.3855  0.1475 -0.1528
 7300TIP3    H143391   5.876   3.561  14.123  1.4809  0.9185 -1.1197
 7300TIP3    H243392   5.885   3.701  14.179 -1.2350  0.1844  1.4302
 7301TIP3   OH243393   2.631   0.593   5.565 -0.3375  0.0614 -0.4462
 7301TIP3    H143394   2.670   0.613   5.479  1.0391 -0.7557 -0.0499
 7301TIP3    H243395   2.662   0.505   5.585  1.9644  1.2956  2.2179
 7302TIP3   OH243396   2.080   4.336  13.294  0.0759 -0.4969 -0.0222
 7302TIP3    H143397   2.098   4.257  13.345 -0.9129  0.9021  2.7077
 7302TIP3    H243398   2.007   4.378  13.339  1.0040  2.3430 -0.9195
 7303TIP3   OH243399   6.312   6.021   5.414 -0.3418  0.1950 -0.0265
 7303TIP3    H143400   6.308   5.998   5.321  1.0767 -0.4112  0.0401
 7303TIP3    H243401   6.405   6.023   5.434 -0.6404 -1.0387  1.7120
 7304TIP3   OH243402   0.240   5.504  13.581  0.1706 -0.0341  0.6256
 7304TIP3    H143403   0.284   5.426  13.545 -0.6088  0.4187 -1.4906
 7304TIP3    H243404   0.214   5.553  13.503 -1.3125  1.2453  1.8879
 7305TIP3   OH243405   3.410   1.341   5.943  0.3541 -0.4324 -0.5616
 7305TIP3    H143406   3.438   1.266   5.995 -0.8823 -0.7644 -0.3333
 7305TIP3    H243407   3.470   1.412   5.967  0.7788 -1.0166  0.1175
 7306TIP3   OH243408   1.197   1.904   0.400  0.3758 -0.0858  0.0751
 7306TIP3    H143409   1.287   1.902   0.432  1.8986 -2.3769 -3.6715
 7306TIP3    H243410   1.175   1.812   0.384 -1.2620  0.6177 -2.3826
 7307TIP3   OH243411   4.927   0.713   5.003 -0.2375 -0.2444 -0.1774
 7307TIP3    H143412   4.898   0.802   4.985  0.1525 -0.4658 -2.0336
 7307TIP3    H243413   4.947   0.675   4.918  1.0292 -1.6306  0.6665
 7308TIP3   OH243414   0.168   0.493  13.828 -0.0181  0.0886 -0.0186
 7308TIP3    H143415   0.128   0.449  13.754  1.5891  1.2791 -1.6831
 7308TIP3    H243416   0.104   0.560  13.853 -1.0424 -1.0113  0.4351
 7309TIP3   OH243417   1.814   0.211  15.974  0.0454  0.2736 -0.0601
 7309TIP3    H143418   1.900   0.188  15.940 -0.1791  1.1312 -1.3007
 7309TIP3    H243419   1.810   0.307  15.965 -1.2851  0.1873 -0.6938
 7310TIP3   OH243420   4.258   4.525   2.202 -0.7204  0.0014  0.0052
 7310TIP3    H143421   4.319   4.453   2.219  0.0378  0.4990 -0.5636
 7310TIP3    H243422   4.313   4.602   2.196 -1.2223  0.2539 -1.9703
 7311TIP3   OH243423   0.888   6.312   2.569  0.2956 -0.8910 -0.5136
 7311TIP3    H143424   0.862   6.272   2.652 -0.5400 -0.3386 -0.4932
 7311TIP3    H243425   0.872   6.244   2.504 -0.9357 -0.6809 -0.4557
 7312TIP3   OH243426   1.905   4.438  14.484  0.3229  0.2949 -0.2096
 7312TIP3    H143427   1.824   4.447  14.535  0.5289  1.4365 -0.0611
 7312TIP3    H243428   1.900   4.350  14.447 -0.5982  0.0421  0.4687
 7313TIP3   OH243429   1.036   2.470   2.216 -0.0673 -0.3558  0.4884
 7313TIP3    H143430   1.078   2.477   2.302  1.7434 -0.8667 -0.3094
 7313TIP3    H243431   1.106   2.492   2.154 -1.9186  2.4080 -0.8243
 7314TIP3   OH243432   0.542   2.993   3.465  0.2623  0.2663 -0.3410
 7314TIP3    H143433   0.528   2.920   3.405  0.4538  0.3814 -0.5318
 7314TIP3    H243434   0.595   2.956   3.535  1.6052  0.5504 -1.1660
 7315TIP3   OH243435   5.257   2.349   0.487  0.2183  0.6583  0.2969
 7315TIP3    H143436   5.253   2.253   0.494 -0.8757  0.7702  1.6309
 7315TIP3    H243437   5.236   2.368   0.396 -1.3287 -0.3069  0.4258
 7316TIP3   OH243438   2.237   5.713  12.351 -0.5180 -0.2354  0.3869
 7316TIP3    H143439   2.178   5.758  12.411 -1.5056  0.9856 -1.3846
 7316TIP3    H243440   2.179   5.680  12.281  0.8889  1.4588 -1.6902
 7317TIP3   OH243441   2.081   0.092  15.094  0.0443 -0.7015 -0.4489
 7317TIP3    H143442   2.105   0.039  15.019  1.6375 -0.2360 -0.2950
 7317TIP3    H243443   2.164   0.127  15.128 -0.7531  0.1837  0.7129
 7318TIP3   OH243444   3.935   2.288   2.386  0.0726  0.1897  0.0634
 7318TIP3    H143445   3.960   2.373   2.350  0.8671 -0.6833 -1.5385
 7318TIP3    H243446   3.947   2.227   2.314  0.8070 -1.5223  1.5556
 7319TIP3   OH243447   4.716   6.097  11.233  0.8213 -0.6991  0.2762
 7319TIP3    H143448   4.658   6.021  11.241  2.1536 -1.7406  0.3525
 7319TIP3    H243449   4.711   6.120  11.140 -0.2892 -0.2780  0.4195
 7320TIP3   OH243450   3.665   4.751   1.216 -0.6573 -0.0049 -0.4224
 7320TIP3    H143451   3.635   4.814   1.150 -1.4712  0.3274  0.2422
 7320TIP3    H243452   3.613   4.672   1.200 -0.3279 -0.1804 -0.6405
 7321TIP3   OH243453   1.033   1.253  16.776 -0.1127 -0.0676  0.0528
 7321TIP3    H143454   1.043   1.335  16.826 -0.3541 -0.0671  0.1032
 7321TIP3    H243455   0.990   1.193  16.837  0.6010 -0.4237  0.2126
 7322TIP3   OH243456   6.479   2.458  16.191  0.1614 -0.1349 -0.4526
 7322TIP3    H143457   6.426   2.391  16.235 -0.1234  0.5067  0.1950
 7322TIP3    H243458   6.568   2.443  16.223  0.5196 -1.5582 -1.9501
 7323TIP3   OH243459   1.403   5.721   1.531  0.3269  0.4848 -0.2788
 7323TIP3    H143460   1.329   5.662   1.544  1.2839 -0.3900  1.5042
 7323TIP3    H243461   1.366   5.797   1.485 -0.9152 -1.4926 -2.7909
 7324TIP3   OH243462   5.057   2.843  15.612  0.1251  0.3592  0.0503
 7324TIP3    H143463   5.027   2.766  15.565 -0.2929 -0.9268  2.2620
 7324TIP3    H243464   5.151   2.829  15.623 -0.0702 -0.2438  1.0857
 7325TIP3   OH243465   4.022   3.199  14.650 -0.5245  0.1457  0.0364
 7325TIP3    H143466   4.023   3.172  14.742  3.0696  3.7859  1.3961
 7325TIP3    H243467   4.024   3.295  14.654 -1.4300  0.4907 -3.9268
 7326TIP3   OH243468   5.815   3.294   3.706  0.5448  0.2294 -0.0045
 7326TIP3    H143469   5.898   3.313   3.663 -0.1042  1.7121 -0.6589
 7326TIP3    H243470   5.789   3.376   3.749 -0.8706 -0.0130 -0.3231
 7327TIP3   OH243471   3.483   4.457   4.672  0.8375 -0.0094 -0.0091
 7327TIP3    H143472   3.414   4.393   4.655  3.1084 -1.9547 -2.9989
 7327TIP3    H243473   3.506   4.444   4.764 -1.5241 -0.5575  0.5517
 7328TIP3   OH243474   4.873   6.393   5.245 -0.1209 -0.2536 -0.7541
 7328TIP3    H143475   4.891   6.355   5.331  2.0921  0.6933 -0.7264
 7328TIP3    H243476   4.794   6.349   5.215 -1.3236 -0.1969  2.0018
 7329TIP3   OH243477   3.309   2.940   3.700 -0.2888  0.1705 -0.5062
 7329TIP3    H143478   3.347   2.860   3.664 -0.7165  0.0447 -0.6933
 7329TIP3    H243479   3.306   3.001   3.626  2.0897  1.1530  0.1375
 7330TIP3   OH243480   6.195   5.278   4.974 -0.7321  0.7255  0.0601
 7330TIP3    H143481   6.192   5.194   4.927 -0.5473 -0.3143  1.8161
 7330TIP3    H243482   6.105   5.290   5.006 -0.9173  1.5529 -0.7232
 7331TIP3   OH243483   4.768   0.282  12.363  0.2181  0.2197  0.2913
 7331TIP3    H143484   4.856   0.247  12.349  0.3052  1.6882 -4.2101
 7331TIP3    H243485   4.778   0.342  12.437  2.7013 -0.4895  0.6261
 7332TIP3   OH243486   0.491   6.719  12.903  0.1813 -0.1788  0.1252
 7332TIP3    H143487   0.497   6.705  12.998 -0.4813 -0.8190  0.0752
 7332TIP3    H243488   0.543   6.648  12.865 -0.2530 -0.4228 -0.0159
 7333TIP3   OH243489   6.224   3.154  15.369 -0.0886 -0.1330  0.3685
 7333TIP3    H143490   6.133   3.183  15.379  0.1730  0.6980  0.4375
 7333TIP3    H243491   6.276   3.225  15.407  0.6042 -0.4938  0.1134
 7334TIP3   OH243492   6.580   1.211   2.530 -0.2656  0.8239 -0.4094
 7334TIP3    H143493   6.558   1.290   2.578  0.6658  1.9500 -1.7617
 7334TIP3    H243494   6.570   1.235   2.438  1.3542 -0.1994 -0.8955
 7335TIP3   OH243495   2.847   4.350   4.824 -0.1306 -0.3088  0.6327
 7335TIP3    H143496   2.798   4.430   4.841  0.0152 -0.3403  1.1961
 7335TIP3    H243497   2.798   4.282   4.870  0.2588 -0.3941  0.9226
 7336TIP3   OH243498   0.731   4.632  12.873  0.2315 -0.0563 -0.3646
 7336TIP3    H143499   0.823   4.656  12.887  0.5030 -1.7092  1.1793
 7336TIP3    H243500   0.695   4.625  12.961 -1.8387  2.0198 -0.9773
 7337TIP3   OH243501   0.879   5.204   4.850 -0.1239  0.0381 -0.5611
 7337TIP3    H143502   0.864   5.254   4.930  0.4112 -0.2898 -0.2490
 7337TIP3    H243503   0.939   5.257   4.798  0.2623 -0.1670 -0.3311
 7338TIP3   OH243504   2.145   4.874   5.677  0.3213 -0.1702  0.2573
 7338TIP3    H143505   2.112   4.815   5.745  0.3629 -1.3056 -0.6712
 7338TIP3    H243506   2.237   4.850   5.667  0.5654  0.6450  0.4493
 7339TIP3   OH243507   0.940   3.588   4.531  0.6609 -0.5262 -0.4106
 7339TIP3    H143508   0.982   3.612   4.613  1.1176  1.2905 -1.1280
 7339TIP3    H243509   0.984   3.641   4.465 -1.4864  0.0835 -1.4499
 7340TIP3   OH243510   0.918   3.114  13.646  0.3955  0.2010  0.0162
 7340TIP3    H143511   0.828   3.129  13.617  0.2430  0.6048  0.6609
 7340TIP3    H243512   0.973   3.149  13.576  0.0420  1.2069  0.2264
 7341TIP3   OH243513   1.914   5.057  14.212 -0.0157 -0.0751 -0.0025
 7341TIP3    H143514   1.842   5.120  14.204  0.8237  0.8685 -0.3687
 7341TIP3    H243515   1.890   4.985  14.153 -1.9462 -1.0885  1.9043
 7342TIP3   OH243516   5.389   3.084  15.765  0.1617  0.5548 -0.5362
 7342TIP3    H143517   5.414   3.176  15.767  2.5778 -0.0579  0.4315
 7342TIP3    H243518   5.339   3.071  15.846  0.1996  0.9200 -0.4538
 7343TIP3   OH243519   2.194   1.151   2.362 -0.4831  0.0603 -0.7596
 7343TIP3    H143520   2.159   1.171   2.275  1.5899  1.7949 -1.2874
 7343TIP3    H243521   2.175   1.229   2.414  1.7274  0.7265 -0.8469
 7344TIP3   OH243522   1.377   2.414   1.689 -0.2377  0.7748 -0.1398
 7344TIP3    H143523   1.464   2.374   1.697 -0.7998 -1.3645 -3.1309
 7344TIP3    H243524   1.394   2.504   1.662  1.2205 -0.4901 -4.1483
 7345TIP3   OH243525   3.717   4.801   2.191  0.3904 -0.1168  0.2224
 7345TIP3    H143526   3.623   4.803   2.173  0.3408  1.1127  0.5510
 7345TIP3    H243527   3.750   4.886   2.161  1.3241 -0.3638  0.4979
 7346TIP3   OH243528   2.529   2.703  11.719 -0.3575 -0.0754  0.6895
 7346TIP3    H143529   2.585   2.677  11.647  0.6507  0.6430  1.1891
 7346TIP3    H243530   2.470   2.770  11.682 -1.6700 -1.6146 -0.1068
 7347TIP3   OH243531   5.168   6.451   4.565  0.1910  0.2295 -0.5156
 7347TIP3    H143532   5.080   6.418   4.585  0.1557  0.6759  0.1152
 7347TIP3    H243533   5.179   6.436   4.472 -0.2697 -0.5127 -0.4577
 7348TIP3   OH243534   3.938   3.113   5.312 -0.6649  0.4330 -0.1280
 7348TIP3    H143535   3.925   3.159   5.229 -3.0621  4.3639  2.1279
 7348TIP3    H243536   3.864   3.053   5.317  1.4958 -2.7644 -2.2545
 7349TIP3   OH243537   3.923   1.872  14.771 -0.0638 -0.2719  0.3976
 7349TIP3    H143538   3.913   1.938  14.839  1.2562  0.7395 -0.3391
 7349TIP3    H243539   3.969   1.800  14.813  1.5841  0.7309  0.3934
 7350TIP3   OH243540   2.623   2.797  15.949  0.3743  0.4799  0.4436
 7350TIP3    H143541   2.633   2.728  16.015  0.9741  0.5881  0.4659
 7350TIP3    H243542   2.707   2.842  15.948  0.1824  0.8347  0.0010
 7351TIP3   OH243543   5.171   4.795  14.353 -0.0794 -0.1308  0.3870
 7351TIP3    H143544   5.261   4.828  14.350  1.0739 -3.0146 -0.1751
 7351TIP3    H243545   5.149   4.778  14.261  0.4985 -3.3980  0.7562
 7352TIP3   OH243546   1.384   2.783   2.376  0.0597 -0.4493  0.1237
 7352TIP3    H143547   1.360   2.733   2.453 -0.9581  1.2044  0.9306
 7352TIP3    H243548   1.312   2.844   2.362  1.5557  1.3261 -0.3279
 7353TIP3   OH243549   3.951   3.199   6.958  0.3310  0.0137  0.2271
 7353TIP3    H143550   4.003   3.206   6.878  1.9468  0.5534  1.2612
 7353TIP3    H243551   3.936   3.290   6.984 -0.1312 -0.1576  0.5608
 7354TIP3   OH243552   1.589   0.039   4.492 -0.2131  0.0444 -0.4952
 7354TIP3    H143553   1.566   0.106   4.556 -2.0888 -0.0232 -1.0459
 7354TIP3    H243554   1.529  -0.033   4.510  1.3936 -1.2804 -0.2897
 7355TIP3   OH243555   2.450   5.196  13.614  0.2996 -0.1834  0.0830
 7355TIP3    H143556   2.478   5.273  13.564 -0.5220 -0.0429 -0.1745
 7355TIP3    H243557   2.514   5.189  13.685 -0.3326  1.5266  0.8800
 7356TIP3   OH243558   3.441   1.641   5.690 -0.0709 -0.4714  0.2532
 7356TIP3    H143559   3.508   1.707   5.708 -0.3229  0.5384 -2.1541
 7356TIP3    H243560   3.484   1.557   5.706  1.6306  0.1706 -0.7423
 7357TIP3   OH243561   3.208   0.231   4.266 -0.1541 -0.9153  0.0693
 7357TIP3    H143562   3.261   0.310   4.270 -2.7990  0.9441  1.1634
 7357TIP3    H243563   3.254   0.168   4.321  0.1328  1.1551  2.3440
 7358TIP3   OH243564   1.401   5.900   5.291 -0.1112  0.2794  0.2862
 7358TIP3    H143565   1.471   5.924   5.230 -2.1589  1.1384 -1.8799
 7358TIP3    H243566   1.429   5.936   5.375  2.1755  0.2883 -0.4092
 7359TIP3   OH243567   3.446   2.806   2.077 -0.0206 -0.3405 -0.2026
 7359TIP3    H143568   3.467   2.780   1.987 -1.3210 -0.3648 -0.5112
 7359TIP3    H243569   3.352   2.793   2.085  0.2475 -1.4866  1.5605
 7360TIP3   OH243570   6.823   6.795  16.273 -0.5429 -0.2948  0.8698
 7360TIP3    H143571   6.732   6.771  16.254 -0.6756 -0.1669  1.3232
 7360TIP3    H243572   6.816   6.878  16.321 -0.2191 -0.5630  1.3848
 7361TIP3   OH243573   2.487   3.270  13.367 -0.0967  0.5160 -0.5079
 7361TIP3    H143574   2.539   3.301  13.442 -0.1816  1.9816 -1.0043
 7361TIP3    H243575   2.537   3.197  13.332 -0.2200 -0.4113  1.1516
 7362TIP3   OH243576   3.377   3.597  12.124  0.5665  0.2641  0.1002
 7362TIP3    H143577   3.389   3.643  12.041  0.8221 -0.3904 -0.2321
 7362TIP3    H243578   3.301   3.639  12.164 -1.4434 -1.2823 -1.8135
 7363TIP3   OH243579   5.077   0.213   2.252 -0.0972  0.4560  0.1813
 7363TIP3    H143580   5.020   0.162   2.195  0.7426 -1.0960  0.6949
 7363TIP3    H243581   5.061   0.180   2.340  1.2026  0.3311  0.3962
 7364TIP3   OH243582   4.619   5.201  14.335  0.6889  0.4828 -0.1697
 7364TIP3    H143583   4.529   5.229  14.351  0.2808 -1.0188  0.3530
 7364TIP3    H243584   4.663   5.279  14.303 -0.7859  1.2657 -0.3897
 7365TIP3   OH243585   3.966   4.140   3.936  0.0880  0.4563 -0.1103
 7365TIP3    H143586   3.898   4.159   4.002  0.3471 -1.0848  0.6579
 7365TIP3    H243587   3.920   4.145   3.852 -0.9394 -0.2929  0.3779
 7366TIP3   OH243588   2.599   4.010   0.783  0.2266  0.1093  0.1084
 7366TIP3    H143589   2.506   3.987   0.779 -0.0372  1.1808 -2.8891
 7366TIP3    H243590   2.638   3.943   0.839 -2.3653 -0.1752  1.7530
 7367TIP3   OH243591   0.228   2.652   3.192 -0.3193  0.0626  0.2374
 7367TIP3    H143592   0.157   2.713   3.214 -2.4570 -2.0052 -0.5272
 7367TIP3    H243593   0.223   2.585   3.260 -0.1465 -0.9226 -0.7053
 7368TIP3   OH243594   1.738   6.223   2.389  0.0815  0.0793 -0.5436
 7368TIP3    H143595   1.808   6.224   2.323  0.4201 -1.2283 -0.2430
 7368TIP3    H243596   1.687   6.301   2.371  0.9098  0.4144 -1.5580
 7369TIP3   OH243597   6.092   4.244  16.506  0.3152 -0.2775  0.1282
 7369TIP3    H143598   6.122   4.224  16.595 -0.1782  1.9237  0.8657
 7369TIP3    H243599   6.081   4.159  16.464  2.2084 -1.3238  1.5990
 7370TIP3   OH243600   0.137   5.190  13.106 -0.2268 -0.3249  0.2737
 7370TIP3    H143601   0.155   5.102  13.073  0.2731 -0.1137 -0.0378
 7370TIP3    H243602   0.161   5.248  13.034  1.5628  0.1922  1.2200
 7371TIP3   OH243603   1.185   5.449  15.712 -0.5642 -0.4885  0.2329
 7371TIP3    H143604   1.135   5.417  15.636 -0.0613 -3.0537  0.8930
 7371TIP3    H243605   1.273   5.465  15.677 -0.8884  0.4971 -0.1635
 7372TIP3   OH243606   0.622   2.023  16.322 -0.1401 -0.2185  1.3546
 7372TIP3    H143607   0.697   2.029  16.381  0.7617  2.0153  0.0680
 7372TIP3    H243608   0.557   2.082  16.360 -0.1041  0.1346  0.8694
 7373TIP3   OH243609   3.502   5.458   4.823 -0.2427 -0.5741  0.0924
 7373TIP3    H143610   3.551   5.378   4.843  0.4186 -0.6868 -1.7663
 7373TIP3    H243611   3.546   5.526   4.874 -0.9944 -1.3995  1.9242
 7374TIP3   OH243612   0.948   2.831  14.281  0.0566  0.4538 -0.0774
 7374TIP3    H143613   0.891   2.893  14.236 -1.1176 -0.8345 -0.4263
 7374TIP3    H243614   1.008   2.800  14.213 -0.4001  0.0122 -0.2785
 7375TIP3   OH243615   1.277   4.498   4.906  0.3450 -0.5662 -0.1618
 7375TIP3    H143616   1.216   4.556   4.860 -0.2663 -1.4097 -0.4443
 7375TIP3    H243617   1.224   4.423   4.931  0.5165  0.0442  2.3862
 7376TIP3   OH243618   0.667   1.123  10.663 -0.3439  0.3729  0.4706
 7376TIP3    H143619   0.579   1.140  10.630 -0.8828  0.5248  1.9101
 7376TIP3    H243620   0.705   1.061  10.601 -1.6507 -0.0764  0.0983
 7377TIP3   OH243621   3.797   2.836   2.229 -0.2855  0.1148  0.5815
 7377TIP3    H143622   3.790   2.897   2.155 -0.7111 -0.3050  0.2691
 7377TIP3    H243623   3.863   2.875   2.286 -1.8799  1.8803  1.3413
 7378TIP3   OH243624   1.163   5.440   0.325 -0.1248 -0.1029 -0.1067
 7378TIP3    H143625   1.236   5.456   0.385  0.1427 -1.8979  0.0838
 7378TIP3    H243626   1.095   5.400   0.380 -1.3936  1.7509 -0.2275
 7379TIP3   OH243627   6.273   1.547   1.821  0.1330 -0.0509 -0.2828
 7379TIP3    H143628   6.229   1.467   1.792  0.3278  0.3440 -1.7365
 7379TIP3    H243629   6.202   1.611   1.832  0.0744 -0.1559 -0.0557
 7380TIP3   OH243630   3.305   4.410   0.397 -0.6599  0.3012  0.5175
 7380TIP3    H143631   3.274   4.352   0.328  1.2460 -3.1388  2.3150
 7380TIP3    H243632   3.251   4.388   0.473 -0.4149  1.5305  1.0744
 7381TIP3   OH243633   4.609   3.256  11.747  0.4738 -0.3627  0.3417
 7381TIP3    H143634   4.536   3.300  11.704  0.3748  0.9033  1.7210
 7381TIP3    H243635   4.662   3.223  11.675 -0.7187 -0.0810 -0.7114
 7382TIP3   OH243636   5.426   2.834  12.581  0.1678  0.3105  0.8353
 7382TIP3    H143637   5.346   2.886  12.590  1.1544  1.7698  1.4922
 7382TIP3    H243638   5.451   2.813  12.671  1.6427  1.6913  0.8028
 7383TIP3   OH243639   5.534   6.713   6.344 -0.4271  0.5811 -0.0920
 7383TIP3    H143640   5.585   6.646   6.299 -1.1564  0.0885 -0.2179
 7383TIP3    H243641   5.588   6.738   6.419 -0.1982 -0.2669  0.0438
 7384TIP3   OH243642   4.465   0.737   1.456  0.1913  0.0898  0.5087
 7384TIP3    H143643   4.519   0.673   1.502  0.5174  0.4687  0.6636
 7384TIP3    H243644   4.390   0.751   1.513 -2.3281 -3.5401 -1.5102
 7385TIP3   OH243645   4.931   4.497  11.164 -0.2038  0.5052 -0.6897
 7385TIP3    H143646   4.863   4.481  11.098  0.9337  1.5429 -2.1621
 7385TIP3    H243647   4.897   4.456  11.243 -1.5066 -0.9948 -1.9696
 7386TIP3   OH243648   4.896   2.551  15.212  0.0528 -0.3703  0.4231
 7386TIP3    H143649   4.845   2.543  15.293 -0.6873 -1.2323 -0.1092
 7386TIP3    H243650   4.878   2.640  15.182 -1.3656 -0.7315  0.1182
 7387TIP3   OH243651   4.890   5.296   4.866 -0.4356 -0.2242 -0.1703
 7387TIP3    H143652   4.839   5.333   4.794  0.5346 -0.5096 -1.0253
 7387TIP3    H243653   4.963   5.357   4.877 -0.0818 -0.6673 -0.0468
 7388TIP3   OH243654   2.989   4.480   3.555  0.8530  0.2535  0.2238
 7388TIP3    H143655   2.959   4.536   3.626 -1.1694 -1.6614  0.9962
 7388TIP3    H243656   3.085   4.482   3.562  0.7343  0.7908  2.4818
 7389TIP3   OH243657   2.022   3.442   1.243  0.4005  0.3370  0.0296
 7389TIP3    H143658   1.930   3.420   1.250  0.2833  0.9849  0.6986
 7389TIP3    H243659   2.058   3.426   1.330  1.5577 -2.5247 -0.8655
 7390TIP3   OH243660   0.830   1.626   1.746  0.1325 -0.0907 -0.5674
 7390TIP3    H143661   0.779   1.570   1.688  0.3426 -0.5309 -0.3338
 7390TIP3    H243662   0.766   1.662   1.807 -0.2889  1.3257 -1.7855
 7391TIP3   OH243663   6.226   3.082   5.570 -0.1377 -0.2020  0.3137
 7391TIP3    H143664   6.289   3.141   5.612  0.4101 -0.5383 -0.0241
 7391TIP3    H243665   6.190   3.030   5.642  0.0683 -0.0993  0.4913
 7392TIP3   OH243666   2.202   0.865  14.935 -0.0824 -0.0986 -0.1580
 7392TIP3    H143667   2.281   0.919  14.929 -0.3203  0.1878 -0.8833
 7392TIP3    H243668   2.232   0.776  14.914  0.3785 -0.3377  1.4112
 7393TIP3   OH243669   4.637   6.609   3.062  0.1685 -0.3124 -0.4116
 7393TIP3    H143670   4.573   6.609   3.132  0.2886 -1.3848 -0.2944
 7393TIP3    H243671   4.686   6.691   3.075 -0.1853 -0.2173  0.3929
 7394TIP3   OH243672   6.230   1.024   4.596  0.2131  0.4463 -0.2453
 7394TIP3    H143673   6.313   1.017   4.549  0.1924  0.6195 -0.3071
 7394TIP3    H243674   6.183   1.095   4.552  0.8297  1.6816  0.9979
 7395TIP3   OH243675   3.364   2.060  14.123 -0.1151 -0.4218  0.0694
 7395TIP3    H143676   3.437   2.117  14.145 -0.0589 -0.9414  1.2611
 7395TIP3    H243677   3.286   2.110  14.146 -0.2096  0.4068 -1.8273
 7396TIP3   OH243678   5.584   6.395   3.801  0.8170  0.2849 -0.0680
 7396TIP3    H143679   5.578   6.488   3.822  1.9109 -0.1003  2.3113
 7396TIP3    H243680   5.604   6.393   3.707 -0.5225  2.3608 -0.4674
 7397TIP3   OH243681   4.335   5.366  16.265 -1.1657  0.0519  0.2356
 7397TIP3    H143682   4.300   5.277  16.277 -0.3642 -0.2892  0.0949
 7397TIP3    H243683   4.303   5.392  16.178  0.1362 -0.8537 -0.5604
 7398TIP3   OH243684   6.360   6.244   3.981  0.1806 -0.0162  0.3717
 7398TIP3    H143685   6.283   6.202   4.021  0.3086 -0.9519 -0.3315
 7398TIP3    H243686   6.324   6.315   3.929 -0.1480 -0.0037  0.6053
 7399TIP3   OH243687   3.322   2.329  13.385  0.1509 -0.1707  0.4458
 7399TIP3    H143688   3.322   2.288  13.471  0.9085 -1.1120  0.0294
 7399TIP3    H243689   3.240   2.301  13.345  0.0373 -0.1633  0.6766
 7400TIP3   OH243690   5.647   2.152  15.990 -1.3701 -0.2163  0.0742
 7400TIP3    H143691   5.742   2.153  15.982 -1.2588 -1.3950  1.0712
 7400TIP3    H243692   5.615   2.179  15.903 -0.1470  1.4334  0.0869
 7401TIP3   OH243693   2.918   0.938   5.794  0.4234  0.4457 -0.6913
 7401TIP3    H143694   2.916   0.986   5.711 -0.2678  0.2910 -0.7637
 7401TIP3    H243695   2.839   0.884   5.793  1.3539 -0.9667 -0.7655
 7402TIP3   OH243696   5.288   2.524  16.779  0.1466  0.6783  0.1046
 7402TIP3    H143697   5.287   2.456  16.846  1.0282  0.1936 -0.3561
 7402TIP3    H243698   5.379   2.528  16.750 -0.2807  0.5941 -1.3370
 7403TIP3   OH243699   3.420   4.709   6.084 -0.2980  0.2640  0.5419
 7403TIP3    H143700   3.414   4.722   5.990  1.5499 -1.1548  0.1731
 7403TIP3    H243701   3.462   4.788   6.117 -1.4267  0.9946  0.2806
 7404TIP3   OH243702   3.013   6.589   4.012  0.6341 -0.3360  0.5359
 7404TIP3    H143703   3.029   6.497   4.032 -0.8048 -0.7779 -0.2740
 7404TIP3    H243704   3.060   6.605   3.930  1.7916 -0.0256  1.2274
 7405TIP3   OH243705   5.715   0.208  14.776  0.4714  0.5082 -0.1766
 7405TIP3    H143706   5.726   0.154  14.697 -0.3458 -1.4832  1.0050
 7405TIP3    H243707   5.641   0.265  14.756  0.0698 -0.1915 -0.7461
 7406TIP3   OH243708   4.305   2.240   2.117 -0.5985 -0.3592 -0.4650
 7406TIP3    H143709   4.366   2.190   2.063 -1.3302 -1.2746 -0.4761
 7406TIP3    H243710   4.299   2.189   2.199 -2.4409 -1.1090 -1.0107
 7407TIP3   OH243711   2.915   4.086   3.944 -0.1518  0.3821 -0.5812
 7407TIP3    H143712   2.946   4.166   3.901  1.1705  0.1115 -0.1732
 7407TIP3    H243713   2.860   4.116   4.016  0.1798  0.9239 -0.5517
 7408TIP3   OH243714   3.666   2.634  14.670  0.4563  0.2140  0.1688
 7408TIP3    H143715   3.628   2.551  14.642  1.2976 -0.1960  0.2191
 7408TIP3    H243716   3.715   2.613  14.749 -0.7634  1.1057  1.2057
 7409TIP3   OH243717   3.201   2.136  13.152  0.1550 -0.0366  0.0986
 7409TIP3    H143718   3.293   2.159  13.165 -0.0003  0.0171  1.1607
 7409TIP3    H243719   3.177   2.087  13.231 -0.3130 -1.3865 -0.8556
 7410TIP3   OH243720   1.161   2.881   4.048  0.2856  0.4967 -0.0317
 7410TIP3    H143721   1.105   2.901   3.973 -0.7605  0.7901  0.8065
 7410TIP3    H243722   1.210   2.962   4.064  0.8771  0.2818 -0.6788
 7411TIP3   OH243723   6.239   1.038   2.801  0.0489  0.0629  0.7108
 7411TIP3    H143724   6.214   1.005   2.714 -1.4948  1.6289  0.4849
 7411TIP3    H243725   6.334   1.045   2.797  0.0621 -0.4938 -0.6430
 7412TIP3   OH243726   3.010   3.188   0.155 -0.3196 -0.1537  0.9809
 7412TIP3    H143727   2.920   3.161   0.174  0.0471 -1.4322  0.9874
 7412TIP3    H243728   3.002   3.277   0.122 -1.7675 -0.8624 -0.7278
 7413TIP3   OH243729   4.983   0.488  16.667 -0.1741 -0.0346 -0.1095
 7413TIP3    H143730   4.963   0.514  16.577  0.0578 -1.3126 -0.5496
 7413TIP3    H243731   5.073   0.517  16.682 -0.2984  0.3984 -0.2024
 7414TIP3   OH243732   0.389   4.409   4.888 -0.2372  0.0818 -0.1367
 7414TIP3    H143733   0.429   4.481   4.936  0.9036  0.3805 -1.4580
 7414TIP3    H243734   0.335   4.452   4.821  0.5225 -0.2610 -0.9912
 7415TIP3   OH243735   1.411   4.423  16.806 -0.2313 -0.2587 -0.1862
 7415TIP3    H143736   1.340   4.396  16.747 -1.6010 -2.0262  2.0915
 7415TIP3    H243737   1.373   4.414  16.893  2.2565  0.5699  1.0445
 7416TIP3   OH243738   2.979   0.727  12.613 -0.6454 -0.4096 -0.5130
 7416TIP3    H143739   2.972   0.666  12.687  0.2553  0.3752  0.2523
 7416TIP3    H243740   2.889   0.755  12.596 -0.7223  0.5684  1.3113
 7417TIP3   OH243741   4.652   3.887  14.729  0.0867 -0.2723  0.4844
 7417TIP3    H143742   4.583   3.940  14.769  0.5848 -0.1854  1.2440
 7417TIP3    H243743   4.641   3.901  14.635 -0.8170 -0.1197  0.5986
 7418TIP3   OH243744   4.225   3.975   0.195 -0.3420  0.5324 -0.5174
 7418TIP3    H143745   4.149   4.030   0.215 -0.1995  0.5792 -0.0923
 7418TIP3    H243746   4.294   4.007   0.253 -0.2732 -0.1285 -0.2219
 7419TIP3   OH243747   5.199   3.313  12.379  0.4568 -1.0204 -0.1865
 7419TIP3    H143748   5.163   3.292  12.293 -0.6370 -0.7249  0.1799
 7419TIP3    H243749   5.125   3.302  12.439  0.7116  0.5442  0.4625
 7420TIP3   OH243750   5.569   5.414  11.610  0.3903 -0.2395  0.6637
 7420TIP3    H143751   5.560   5.381  11.700 -2.9233  1.5769  1.1530
 7420TIP3    H243752   5.531   5.345  11.556  2.5361 -1.4085  0.5430
 7421TIP3   OH243753   5.498   6.114  15.117  0.1089  0.0964  0.0301
 7421TIP3    H143754   5.500   6.126  15.212 -1.0273 -0.4556  0.1332
 7421TIP3    H243755   5.520   6.021  15.105 -0.3778  0.0128 -0.2070
 7422TIP3   OH243756   2.310   6.621  16.381 -0.3351  0.4093  0.5111
 7422TIP3    H143757   2.294   6.713  16.360 -0.5671  0.2139 -0.1738
 7422TIP3    H243758   2.399   6.604  16.350 -0.2850  0.4065  0.6545
 7423TIP3   OH243759   4.049   0.329  10.672  0.1165 -0.6229  0.8527
 7423TIP3    H143760   4.045   0.261  10.740 -2.3902 -1.6962 -0.2539
 7423TIP3    H243761   3.964   0.324  10.629  1.2085  0.8233 -1.6278
 7424TIP3   OH243762   6.715   0.988   4.482  0.2428  0.0885 -0.2713
 7424TIP3    H143763   6.761   0.970   4.564  0.5764  0.0200 -0.4760
 7424TIP3    H243764   6.743   1.076   4.457  1.5383 -0.5873 -1.2555
 7425TIP3   OH243765   4.874   4.123  14.258 -0.2766  0.0255 -0.0093
 7425TIP3    H143766   4.967   4.102  14.264 -0.1288 -0.5449 -2.7532
 7425TIP3    H243767   4.872   4.216  14.234 -0.5164  0.4828  1.6909
 7426TIP3   OH243768   5.569   2.595   6.202 -0.4942 -0.0468  0.1111
 7426TIP3    H143769   5.578   2.671   6.259 -0.0162  0.6849 -0.9152
 7426TIP3    H243770   5.591   2.628   6.115 -1.2442 -1.1282 -0.5044
 7427TIP3   OH243771   1.650   6.499  15.380  0.0146  0.5799 -0.0825
 7427TIP3    H143772   1.735   6.529  15.414  0.1280 -0.1683  0.3195
 7427TIP3    H243773   1.590   6.570  15.399  1.1842  2.7225 -3.4723
 7428TIP3   OH243774   1.598   2.762  12.833 -0.4916 -0.0173  0.1338
 7428TIP3    H143775   1.616   2.851  12.864  0.5322 -0.2176  0.1410
 7428TIP3    H243776   1.666   2.746  12.768 -0.6106 -0.8384  0.2099
 7429TIP3   OH243777   3.495   5.647  14.352  0.4408  0.0636 -0.2142
 7429TIP3    H143778   3.427   5.712  14.332  0.0384  0.2404  1.5302
 7429TIP3    H243779   3.570   5.674  14.300  0.6271  2.5756  1.1948
 7430TIP3   OH243780   3.780   2.417   3.956  0.2584 -0.0624  0.4054
 7430TIP3    H143781   3.689   2.413   3.927  0.4391  1.4775 -0.5301
 7430TIP3    H243782   3.782   2.493   4.014  1.0935  0.4253 -0.2441
 7431TIP3   OH243783   6.704   2.501   0.996 -0.4744 -0.0044 -0.4762
 7431TIP3    H143784   6.747   2.571   1.046  1.0524  0.2419 -2.0355
 7431TIP3    H243785   6.617   2.536   0.978 -0.1482  0.9887 -0.2079
 7432TIP3   OH243786   3.521   3.905   1.106  0.6102 -0.7298 -0.1653
 7432TIP3    H143787   3.533   3.997   1.129 -0.9130 -1.0126  2.0431
 7432TIP3    H243788   3.483   3.907   1.018  1.2082  0.6972 -0.4200
 7433TIP3   OH243789   2.121   3.658  11.721  0.0953  0.3448 -0.3873
 7433TIP3    H143790   2.076   3.633  11.801  0.5180  0.7590 -0.0123
 7433TIP3    H243791   2.214   3.659  11.745  0.3042 -0.3899 -1.1183
 7434TIP3   OH243792   1.028   5.343   4.030 -0.2203 -0.0194 -0.0002
 7434TIP3    H143793   1.108   5.322   3.981 -0.2020  0.6204 -0.2638
 7434TIP3    H243794   0.982   5.405   3.974 -1.4348 -1.1790 -0.3403
 7435TIP3   OH243795   4.633   0.687  13.570  0.2173 -0.4643 -0.0385
 7435TIP3    H143796   4.624   0.616  13.633 -0.9056 -2.3749 -2.1606
 7435TIP3    H243797   4.646   0.765  13.622  0.7853 -2.1221  2.4621
 7436TIP3   OH243798   3.198   1.731  11.679  0.5752  0.2708  0.6840
 7436TIP3    H143799   3.284   1.770  11.667  1.2104 -1.6141 -1.7154
 7436TIP3    H243800   3.210   1.666  11.748  1.1044 -0.0443  0.2968
 7437TIP3   OH243801   1.150   0.075  13.960 -0.3471  0.2470 -0.3358
 7437TIP3    H143802   1.130   0.017  13.887  1.8318  0.2812 -1.0482
 7437TIP3    H243803   1.223   0.031  14.005  1.2577  2.3044 -0.7949
 7438TIP3   OH243804   3.517   0.344   1.590 -0.3949 -0.2613  0.0297
 7438TIP3    H143805   3.576   0.285   1.637 -0.9492 -0.9333 -0.0943
 7438TIP3    H243806   3.504   0.302   1.504  1.1889  1.3220 -1.0432
 7439TIP3   OH243807   0.997   3.810  11.774  0.0157 -0.3535 -0.1013
 7439TIP3    H143808   0.963   3.723  11.755 -0.8021 -0.2070  0.6174
 7439TIP3    H243809   1.088   3.795  11.799 -0.3485 -1.1279  0.8430
 7440TIP3   OH243810   2.125   6.357  10.781  0.5752  0.4474  0.7040
 7440TIP3    H143811   2.187   6.387  10.847  0.0808  0.4933  1.1624
 7440TIP3    H243812   2.168   6.282  10.739  1.2518  0.9630  0.4760
 7441TIP3   OH243813   3.160   1.567  16.167  0.3260  0.2576  0.3496
 7441TIP3    H143814   3.215   1.566  16.245 -0.9133  0.5874  1.2583
 7441TIP3    H243815   3.153   1.659  16.144  1.7230  0.0781 -0.9435
 7442TIP3   OH243816   5.475   4.440  11.672  0.3517 -0.4577 -0.4671
 7442TIP3    H143817   5.507   4.513  11.620  0.8268 -0.3134  0.0259
 7442TIP3    H243818   5.481   4.469  11.762  0.9568 -1.2503 -0.2343
 7443TIP3   OH243819   1.812   3.359  13.388  0.6294  0.5975  0.5735
 7443TIP3    H143820   1.788   3.440  13.343 -2.1143 -0.1701  0.4751
 7443TIP3    H243821   1.846   3.302  13.320  0.7393  0.9933  0.2969
 7444TIP3   OH243822   6.050   4.592  14.381  0.0415 -0.0147  0.0171
 7444TIP3    H143823   6.019   4.560  14.296  1.4297 -2.2614  0.2699
 7444TIP3    H243824   5.979   4.572  14.442  0.8486 -2.8194  0.1591
 7445TIP3   OH243825   2.767   4.131   4.975 -0.5209  0.0566  0.3267
 7445TIP3    H143826   2.801   4.054   5.020 -1.1862  0.2151  1.1237
 7445TIP3    H243827   2.683   4.103   4.939 -0.0439 -0.0394 -0.7494
 7446TIP3   OH243828   2.012   4.370   2.207 -0.1318  0.6163 -0.6418
 7446TIP3    H143829   1.938   4.402   2.259 -0.3372 -0.2347 -0.4061
 7446TIP3    H243830   1.979   4.366   2.118 -0.3672  0.2318 -0.5362
 7447TIP3   OH243831   4.306   5.028  16.899  0.2364  0.3587  1.0083
 7447TIP3    H143832   4.242   5.098  16.885  0.1555  0.3995  1.5773
 7447TIP3    H243833   4.358   5.057  16.974  0.3522 -0.0847  1.1031
 7448TIP3   OH243834   2.410   3.789   3.531  0.7394 -0.4544 -0.1761
 7448TIP3    H143835   2.363   3.822   3.455  0.6189 -0.0958  0.0485
 7448TIP3    H243836   2.341   3.770   3.595  0.9149  0.6837  0.3921
 7449TIP3   OH243837   4.782   5.168  15.400  0.1216  0.6887  0.8842
 7449TIP3    H143838   4.859   5.177  15.456 -0.4170 -1.7650  2.1293
 7449TIP3    H243839   4.719   5.230  15.436  0.3102  0.2064  2.0877
 7450TIP3   OH243840   1.375   5.356   0.729 -0.0340  0.7844 -0.0755
 7450TIP3    H143841   1.445   5.301   0.764 -1.6076  0.4579  2.8796
 7450TIP3    H243842   1.320   5.296   0.679 -0.2499  0.2273  0.8180
 7451TIP3   OH243843   1.046   0.865  14.589 -0.2372  0.1307 -0.2898
 7451TIP3    H143844   1.101   0.941  14.608 -1.3316  1.0917 -0.8655
 7451TIP3    H243845   0.959   0.901  14.577 -1.1594 -1.4382  1.2475
 7452TIP3   OH243846   0.640   0.944  12.827  0.1375 -0.3631  0.2049
 7452TIP3    H143847   0.626   0.863  12.779 -0.5371  0.0891 -0.3879
 7452TIP3    H243848   0.735   0.954  12.831  0.2323 -1.3706  0.6159
 7453TIP3   OH243849   4.526   6.737  13.243 -0.0805  0.3938 -0.0947
 7453TIP3    H143850   4.473   6.777  13.174 -2.3197  0.2401  1.4246
 7453TIP3    H243851   4.531   6.805  13.311 -3.1146 -1.3174  2.1105
 7454TIP3   OH243852   5.521   0.924   0.883 -1.0358 -0.6939  0.0445
 7454TIP3    H143853   5.464   0.911   0.959 -1.1452  0.1222  0.1133
 7454TIP3    H243854   5.461   0.942   0.811 -0.9448 -1.7247 -0.3027
 7455TIP3   OH243855   1.333   2.185  14.045 -0.2322 -0.7559  0.0931
 7455TIP3    H143856   1.282   2.147  14.117 -0.2862 -1.5097 -0.3345
 7455TIP3    H243857   1.404   2.122  14.030  0.7620  0.2097  0.5820
 7456TIP3   OH243858   4.439   3.952   0.671  0.2536  0.7862 -0.5033
 7456TIP3    H143859   4.499   3.913   0.734  0.9801 -0.0351 -1.6384
 7456TIP3    H243860   4.398   4.025   0.717  1.0912  0.4978  0.7425
 7457TIP3   OH243861   2.235   4.774  14.626 -0.3997 -0.7987  0.2055
 7457TIP3    H143862   2.261   4.837  14.560 -2.4869 -0.6755 -0.5608
 7457TIP3    H243863   2.309   4.713  14.632  0.3365 -0.0913 -1.3096
 7458TIP3   OH243864   2.260   2.045  11.693  0.1543 -0.1195  0.0199
 7458TIP3    H143865   2.241   2.107  11.622 -3.0260  0.4260  1.1872
 7458TIP3    H243866   2.226   2.088  11.772 -0.8042 -2.6680  1.0961
 7459TIP3   OH243867   5.573   2.496  12.679  0.7601 -0.0538  0.5645
 7459TIP3    H143868   5.626   2.530  12.608  1.0855  0.2790  0.9564
 7459TIP3    H243869   5.560   2.572  12.737 -0.2244 -0.1037  0.4244
 7460TIP3   OH243870   4.784   0.575   1.999  0.1799 -0.2116  0.4917
 7460TIP3    H143871   4.819   0.659   2.027 -1.4836  0.4549  0.6736
 7460TIP3    H243872   4.824   0.512   2.059  0.2770  0.6392  1.3489
 7461TIP3   OH243873   5.001   1.210  14.372 -0.0834 -0.1987  0.5310
 7461TIP3    H143874   4.943   1.285  14.384 -0.5189 -0.0151 -2.0416
 7461TIP3    H243875   4.946   1.133  14.388 -0.2357 -0.0037  0.9535
 7462TIP3   OH243876   6.475   0.917   2.427  0.3856  0.1533  0.2881
 7462TIP3    H143877   6.544   0.979   2.451  1.0400 -0.8359  1.0742
 7462TIP3    H243878   6.522   0.840   2.394 -0.3962 -0.0255 -0.4478
 7463TIP3   OH243879   0.218   0.866  16.740  0.2797  0.3465  0.7404
 7463TIP3    H143880   0.139   0.846  16.790 -0.2797  0.8984  0.1019
 7463TIP3    H243881   0.270   0.921  16.798 -1.2800  2.6988  0.0420
 7464TIP3   OH243882   1.163   5.671   0.711 -0.6538  0.2930 -0.0005
 7464TIP3    H143883   1.253   5.705   0.708 -0.2457 -0.8076 -1.3067
 7464TIP3    H243884   1.113   5.731   0.656 -0.0485 -0.8238 -1.8461
 7465TIP3   OH243885   3.293   1.679  11.369 -0.6099 -0.7295 -0.3203
 7465TIP3    H143886   3.368   1.658  11.313 -0.1028 -2.2617  0.8608
 7465TIP3    H243887   3.291   1.774  11.372 -0.0719 -0.6232 -2.1400
 7466TIP3   OH243888   3.713   0.785  15.662  0.0197  0.0378  0.0709
 7466TIP3    H143889   3.714   0.880  15.645  0.4584  0.1523  0.7016
 7466TIP3    H243890   3.733   0.778  15.755 -0.5536 -0.6545  0.1414
 7467TIP3   OH243891   2.798   5.616  12.986  0.0506  0.1056 -0.0012
 7467TIP3    H143892   2.882   5.636  12.944  0.8143 -3.0884 -0.2421
 7467TIP3    H243893   2.737   5.607  12.913 -1.2707  4.6689  0.2404
 7468TIP3   OH243894   6.141   0.776   2.329 -0.4141  0.4281  0.1261
 7468TIP3    H143895   6.060   0.727   2.336 -0.4110  0.5656  1.3509
 7468TIP3    H243896   6.125   0.839   2.259 -0.8095 -0.5659 -0.6869
 7469TIP3   OH243897   1.348   3.499   4.505 -0.4879  0.3916 -0.2209
 7469TIP3    H143898   1.293   3.470   4.433 -0.7146 -1.9602  0.8114
 7469TIP3    H243899   1.423   3.439   4.504  0.8841  2.0348 -0.1395
 7470TIP3   OH243900   5.938   4.604  15.831  0.0830 -0.4655 -0.0735
 7470TIP3    H143901   5.889   4.575  15.908  2.3392  0.1443  1.6877
 7470TIP3    H243902   5.880   4.584  15.757 -1.4815 -2.6268  1.6042
 7471TIP3   OH243903   5.417   0.244  15.038 -0.3102 -0.0745  0.4929
 7471TIP3    H143904   5.435   0.277  14.950  0.4192 -2.7617 -0.4769
 7471TIP3    H243905   5.498   0.259  15.087 -0.3645  0.5084  0.4119
 7472TIP3   OH243906   1.507   2.702  16.142 -0.0169 -0.1883 -0.2416
 7472TIP3    H143907   1.550   2.751  16.212  0.3532  0.1419 -0.6949
 7472TIP3    H243908   1.414   2.706  16.163 -0.2006  2.2304 -1.1875
 7473TIP3   OH243909   3.556   0.101   4.783  0.0162  0.4018 -0.2338
 7473TIP3    H143910   3.595   0.015   4.799  0.2507  0.3913 -0.8400
 7473TIP3    H243911   3.462   0.088   4.798 -0.0141 -0.0880 -0.8424
 7474TIP3   OH243912   4.791   1.427  14.209  0.5681  0.4920 -0.8649
 7474TIP3    H143913   4.784   1.370  14.286  1.2819 -1.0738 -1.9061
 7474TIP3    H243914   4.714   1.405  14.156  1.2911 -0.1688 -1.6737
 7475TIP3   OH243915   0.753   2.016  11.466  0.4337 -0.0228  0.5733
 7475TIP3    H143916   0.806   1.940  11.442  0.0012 -0.2631  0.3606
 7475TIP3    H243917   0.770   2.080  11.397  0.5121 -0.0692  0.5492
 7476TIP3   OH243918   1.545   6.770  13.422  0.0886 -0.2454 -0.5266
 7476TIP3    H143919   1.559   6.699  13.360 -1.3524 -1.1227  0.0852
 7476TIP3    H243920   1.451   6.788  13.416 -0.1332 -0.5082  1.5293
 7477TIP3   OH243921   4.906   5.531  11.452  0.0305 -0.0800  0.2061
 7477TIP3    H143922   4.921   5.451  11.502  1.0538  0.6695  1.1647
 7477TIP3    H243923   4.968   5.525  11.379 -0.1071 -0.3059  0.1087
 7478TIP3   OH243924   4.622   3.731   3.884  0.6805 -0.3843 -0.0281
 7478TIP3    H143925   4.606   3.805   3.943 -0.2532 -0.3750 -0.2660
 7478TIP3    H243926   4.618   3.769   3.796  0.9400 -0.5908 -0.1310
 7479TIP3   OH243927   3.536   6.790   6.581 -0.3055 -0.0844 -0.0863
 7479TIP3    H143928   3.596   6.753   6.516 -0.2996 -1.5027  0.6921
 7479TIP3    H243929   3.523   6.720   6.644 -2.4697  0.3391  0.0034
 7480TIP3   OH243930   5.583   0.184   2.871  0.0893 -0.4327  0.4111
 7480TIP3    H143931   5.505   0.218   2.827  0.0337  0.3846  1.1127
 7480TIP3    H243932   5.649   0.181   2.802  0.2171  1.5523  0.3818
 7481TIP3   OH243933   3.029   3.445  16.804  0.5216 -0.2094 -0.0734
 7481TIP3    H143934   2.949   3.434  16.753  0.3179  0.6366  0.0571
 7481TIP3    H243935   3.100   3.425  16.742  0.3729  2.6391 -1.2892
 7482TIP3   OH243936   4.430   2.269  12.102  0.1549 -0.0386 -0.8334
 7482TIP3    H143937   4.418   2.351  12.150  0.5053 -0.8204  0.6592
 7482TIP3    H243938   4.468   2.296  12.018 -1.2131  1.4458 -1.0270
 7483TIP3   OH243939   0.369   1.112  15.664  0.0262  0.0285  0.6462
 7483TIP3    H143940   0.283   1.094  15.626 -0.0992 -1.3512  1.5076
 7483TIP3    H243941   0.417   1.030  15.654  1.7498  1.1722 -1.0310
 7484TIP3   OH243942   1.583   1.095   4.378 -0.5076  1.2212  0.4140
 7484TIP3    H143943   1.577   1.187   4.404 -2.0042  0.8029  1.6878
 7484TIP3    H243944   1.546   1.047   4.452 -0.2232 -0.3814 -0.4444
 7485TIP3   OH243945   0.467   0.887  11.928 -0.2993  0.1179  0.0221
 7485TIP3    H143946   0.547   0.840  11.906  0.0326  1.3113 -1.4445
 7485TIP3    H243947   0.493   0.947  11.998  0.6234  1.8071 -1.6639
 7486TIP3   OH243948   3.076   4.520  15.683 -0.6447  0.3712  0.0741
 7486TIP3    H143949   3.021   4.473  15.619 -0.9771 -0.2194  0.7736
 7486TIP3    H243950   3.020   4.527  15.761  0.7918 -1.6559  1.3688
 7487TIP3   OH243951   6.600   5.137   5.899  0.4809 -0.0596  0.4269
 7487TIP3    H143952   6.672   5.191   5.931  1.3461 -0.0530 -1.3897
 7487TIP3    H243953   6.546   5.196   5.847 -0.0730 -0.3643  0.6428
 7488TIP3   OH243954   4.400   1.622  11.746  0.1758 -0.4130  0.2635
 7488TIP3    H143955   4.432   1.551  11.690 -1.0078  0.0458 -1.0532
 7488TIP3    H243956   4.339   1.671  11.690 -0.6670  0.3747  1.8122
 7489TIP3   OH243957   2.582   5.987  14.418 -0.0057 -0.1245  0.4034
 7489TIP3    H143958   2.487   5.992  14.433 -0.0964  0.2189 -0.2703
 7489TIP3    H243959   2.618   6.052  14.479 -0.3579  1.0917 -0.6370
 7490TIP3   OH243960   4.181   6.345   5.133  0.0784 -0.1831  0.0159
 7490TIP3    H143961   4.219   6.377   5.052  1.2637  1.1122  1.0259
 7490TIP3    H243962   4.116   6.280   5.106 -0.2252  0.8888 -1.9972
 7491TIP3   OH243963   6.673   0.647  16.754 -0.3352 -0.1429 -0.1277
 7491TIP3    H143964   6.757   0.601  16.759 -1.3270 -2.0112  0.3160
 7491TIP3    H243965   6.677   0.711  16.825  0.9253  0.1825 -0.4732
 7492TIP3   OH243966   4.742   3.621  13.516  0.2747 -0.2167 -0.3083
 7492TIP3    H143967   4.704   3.594  13.433  0.5572  0.7441 -0.7742
 7492TIP3    H243968   4.669   3.660  13.565 -0.4467 -2.8782  0.9218
 7493TIP3   OH243969   0.184   5.522  16.984 -0.0779  0.5023 -0.6196
 7493TIP3    H143970   0.256   5.496  17.042 -1.1231  0.0247  0.5012
 7493TIP3    H243971   0.113   5.462  17.006 -0.0587 -0.7012 -3.4738
 7494TIP3   OH243972   0.052   6.507  13.372  0.1061 -0.5669 -0.2069
 7494TIP3    H143973  -0.005   6.430  13.375  0.4691 -0.8434  2.0857
 7494TIP3    H243974   0.118   6.490  13.440  0.3907  1.6081  0.1397
 7495TIP3   OH243975   1.902   4.936  10.574 -0.2726 -0.0164  0.1917
 7495TIP3    H143976   1.941   4.921  10.660  1.2583  0.5163 -0.3725
 7495TIP3    H243977   1.895   4.849  10.535 -0.1827 -0.1772  0.5295
 7496TIP3   OH243978   6.010   2.946  12.995 -0.1472 -0.2907  0.2211
 7496TIP3    H143979   5.975   3.011  12.934  1.4310  0.2292 -0.1718
 7496TIP3    H243980   5.975   2.863  12.964 -0.3764  0.1122 -0.6311
 7497TIP3   OH243981   1.453   3.902   0.982  0.4166 -0.4177 -0.0487
 7497TIP3    H143982   1.473   3.892   1.075 -0.9376 -1.4180  0.1780
 7497TIP3    H243983   1.538   3.900   0.938  0.9962 -1.2927  1.0663
 7498TIP3   OH243984   5.552   1.520  14.910 -0.2135  0.0802  0.2625
 7498TIP3    H143985   5.617   1.494  14.977 -1.2477 -1.2699  0.7940
 7498TIP3    H243986   5.581   1.606  14.882  2.0048 -0.5864  0.2509
 7499TIP3   OH243987   1.615   4.332  11.238 -0.2970  0.2508  0.6190
 7499TIP3    H143988   1.592   4.425  11.238 -0.8363  0.1235  1.1830
 7499TIP3    H243989   1.536   4.288  11.271 -1.0271 -0.6650 -2.0584
 7500TIP3   OH243990   6.194   2.808   6.346  0.4612 -0.0808 -0.0146
 7500TIP3    H143991   6.288   2.792   6.344  0.6139  0.7001  0.3030
 7500TIP3    H243992   6.181   2.861   6.425 -0.2601 -0.2682 -0.0004
 7501TIP3   OH243993   6.482   4.680  15.068 -0.5378 -0.6423  0.0040
 7501TIP3    H143994   6.518   4.599  15.031  2.6287 -0.3510  2.0518
 7501TIP3    H243995   6.425   4.650  15.139  1.3814 -1.2016  1.4013
 7502TIP3   OH243996   3.098   4.987   2.511 -0.1929  0.3334 -0.4645
 7502TIP3    H143997   3.031   4.929   2.474  0.7242 -0.8193 -0.3414
 7502TIP3    H243998   3.052   5.071   2.522 -0.9510  0.2757 -2.6633
 7503TIP3   OH243999   5.747   3.382  14.381 -0.4139 -0.6480 -0.5760
 7503TIP3    H144000   5.812   3.316  14.357  0.6426 -0.5003  1.5885
 7503TIP3    H244001   5.741   3.439  14.305  1.7687 -0.8618 -0.9864
 7504TIP3   OH244002   4.644   0.551  15.167 -0.5359 -0.3272  0.7614
 7504TIP3    H144003   4.569   0.518  15.119 -0.6712 -0.3323  0.9760
 7504TIP3    H244004   4.608   0.580  15.251 -0.5542  1.0510  0.3047
 7505TIP3   OH244005   2.246   2.534  14.084 -0.0464 -0.0628 -0.1289
 7505TIP3    H144006   2.288   2.577  14.009  0.3613 -1.2284 -0.5947
 7505TIP3    H244007   2.315   2.531  14.151 -0.7640  2.1003  0.8142
 7506TIP3   OH244008   2.749   3.555   4.644  0.0612 -0.0248 -0.7025
 7506TIP3    H144009   2.817   3.585   4.584  0.2763 -0.0027 -0.4496
 7506TIP3    H244010   2.739   3.627   4.707 -0.9055  0.3999 -1.3182
 7507TIP3   OH244011   1.584   0.907   3.554  0.2416  0.2849 -0.2442
 7507TIP3    H144012   1.652   0.968   3.584  0.2067  0.3053 -0.2056
 7507TIP3    H244013   1.632   0.834   3.516  0.2869  0.9190 -1.4631
 7508TIP3   OH244014   1.187   6.799   5.871  0.9149  0.8013 -0.9480
 7508TIP3    H144015   1.194   6.831   5.781 -1.8290 -1.1486 -1.9860
 7508TIP3    H244016   1.110   6.842   5.907  0.0099 -0.8828 -0.7377
 7509TIP3   OH244017   6.322   5.288   2.991  0.3054 -0.0658  0.6350
 7509TIP3    H144018   6.298   5.272   2.899  1.0647  2.7648 -0.1596
 7509TIP3    H244019   6.239   5.310   3.034  0.0162 -0.8860  0.4986
 7510TIP3   OH244020   5.533   2.347   6.299  0.2444 -0.5983 -0.3715
 7510TIP3    H144021   5.490   2.365   6.382  0.5057 -0.9062 -0.1702
 7510TIP3    H244022   5.543   2.433   6.258 -1.0902 -0.5704 -0.6872
 7511TIP3   OH244023   2.986   6.790  13.866  0.0684  0.2388 -0.4570
 7511TIP3    H144024   2.962   6.877  13.835  0.7735  0.3410 -0.7471
 7511TIP3    H244025   3.056   6.805  13.929 -1.5348  0.0562  1.4674
 7512TIP3   OH244026   4.798   6.219   0.632 -0.0264 -0.0876  0.1209
 7512TIP3    H144027   4.731   6.194   0.696 -1.2020  0.5550 -0.8130
 7512TIP3    H244028   4.826   6.136   0.593  0.0057 -0.3957  0.7863
 7513TIP3   OH244029   6.723   0.879  16.066  0.0253  0.7393 -0.3471
 7513TIP3    H144030   6.725   0.968  16.101 -0.1813  0.7827 -0.4420
 7513TIP3    H244031   6.749   0.889  15.974  1.4131  0.5189 -0.0028
 7514TIP3   OH244032   6.807   6.547  12.564 -0.2010 -0.3339 -0.0370
 7514TIP3    H144033   6.724   6.580  12.530 -0.6964 -0.2139  1.2746
 7514TIP3    H244034   6.839   6.617  12.621 -1.2932 -2.0570  2.8417
 7515TIP3   OH244035   4.375   5.759  16.695 -0.0243  0.5495  0.5323
 7515TIP3    H144036   4.400   5.737  16.785  1.0076  2.4049  0.7444
 7515TIP3    H244037   4.345   5.849  16.700  0.0823  0.6949 -0.9989
 7516TIP3   OH244038   6.481   4.860  15.866 -0.4526 -0.1724 -0.8920
 7516TIP3    H144039   6.452   4.951  15.871  0.5371  0.0941  1.1356
 7516TIP3    H244040   6.423   4.820  15.801 -1.3868  1.7166 -1.3017
 7517TIP3   OH244041   3.094   5.472   2.602 -0.1860  0.1683 -0.1230
 7517TIP3    H144042   3.188   5.480   2.586 -0.0596  0.3661  0.6992
 7517TIP3    H244043   3.058   5.556   2.573 -0.1947 -0.1044 -0.9484
 7518TIP3   OH244044   1.561   6.643  14.192  0.2226  0.0570 -0.2527
 7518TIP3    H144045   1.595   6.568  14.240  0.3425 -0.9032 -1.7860
 7518TIP3    H244046   1.613   6.647  14.112 -1.2229  0.4202 -1.2277
 7519TIP3   OH244047   1.583   5.912   6.012 -0.5367 -0.0453  0.3353
 7519TIP3    H144048   1.580   5.971   6.087  0.2692 -0.2546  0.5367
 7519TIP3    H244049   1.561   5.826   6.047  0.5071 -0.2700  0.4748
 7520TIP3   OH244050   3.700   0.590  15.891 -0.4658 -0.6985 -0.2466
 7520TIP3    H144051   3.715   0.682  15.912  2.5430 -0.5625 -2.4598
 7520TIP3    H244052   3.733   0.543  15.968  0.3817  0.0117 -0.1609
 7521TIP3   OH244053   6.155   4.460  14.993  0.5304  0.2605  0.3885
 7521TIP3    H144054   6.249   4.477  15.000  1.3041 -1.7629 -2.8241
 7521TIP3    H244055   6.117   4.544  14.969  2.1049  0.4736 -1.6501
 7522TIP3   OH244056   4.547   0.372   0.357  0.3196 -0.0360  0.4711
 7522TIP3    H144057   4.540   0.455   0.405  0.1484 -1.0816  2.3589
 7522TIP3    H244058   4.574   0.397   0.269  0.6749  1.9922  1.1085
 7523TIP3   OH244059   1.882   2.108   3.369 -0.4181  0.1979 -0.1060
 7523TIP3    H144060   1.862   2.086   3.278  0.7670  0.3021 -0.4139
 7523TIP3    H244061   1.798   2.133   3.407 -0.5131  3.2670 -2.0234
 7524TIP3   OH244062   6.811   0.290  12.980 -0.2196  0.7215 -0.3959
 7524TIP3    H144063   6.794   0.311  13.072  0.3034  3.9474 -0.8985
 7524TIP3    H244064   6.750   0.220  12.959 -2.4000  1.8762  1.6653
 7525TIP3   OH244065   2.966   4.965  10.496  0.1971 -0.2550  0.6522
 7525TIP3    H144066   3.043   4.908  10.486  0.7395  0.7775 -1.6435
 7525TIP3    H244067   2.996   5.036  10.552  0.8376 -0.0562  0.0767
 7526TIP3   OH244068   1.438   4.990   2.501  0.5783 -0.2471 -0.1492
 7526TIP3    H144069   1.458   5.013   2.592 -3.0341  0.7208  0.5772
 7526TIP3    H244070   1.463   5.068   2.452  1.2160 -0.2048  0.2288
 7527TIP3   OH244071   5.283   6.392  16.203 -0.0756 -0.2689 -0.4384
 7527TIP3    H144072   5.341   6.326  16.240  0.9898  0.2349 -1.1683
 7527TIP3    H244073   5.247   6.438  16.279  0.0338 -0.9473  0.0341
 7528TIP3   OH244074   3.242   6.179   5.835 -0.0332 -0.3827  0.1654
 7528TIP3    H144075   3.269   6.153   5.747 -4.8282 -0.5290 -1.5643
 7528TIP3    H244076   3.235   6.097   5.883  0.0261 -0.5980 -0.1882
 7529TIP3   OH244077   6.744   0.066   4.393 -0.0800  0.2268 -0.1752
 7529TIP3    H144078   6.701   0.114   4.322  1.2867 -0.7302 -1.7335
 7529TIP3    H244079   6.699  -0.018   4.396  0.6655 -0.2163 -0.8193
 7530TIP3   OH244080   2.103   4.198  17.040  0.5955 -0.0782 -0.4711
 7530TIP3    H144081   2.029   4.258  17.041  1.2208  0.7120 -0.0000
 7530TIP3    H244082   2.154   4.222  17.118  0.9129 -1.1588 -0.3350
 7531TIP3   OH244083   6.708   3.809   1.741 -0.3737  0.4050  0.0222
 7531TIP3    H144084   6.639   3.863   1.779 -0.8080  0.6011 -1.0080
 7531TIP3    H244085   6.767   3.872   1.700 -1.3628  0.1052 -1.9787
 7532TIP3   OH244086   6.061   6.033  10.993 -0.6200 -0.5876 -0.3645
 7532TIP3    H144087   6.143   6.046  10.944 -1.2680  2.1949 -0.9035
 7532TIP3    H244088   6.084   6.052  11.084 -0.5326 -0.4034 -0.4245
 7533TIP3   OH244089   4.399   5.994  10.909  0.2488 -0.5426 -0.4891
 7533TIP3    H144090   4.391   6.028  10.820  0.7581  1.2360  0.1062
 7533TIP3    H244091   4.493   5.996  10.926  0.3336 -2.4813 -0.4633
 7534TIP3   OH244092   1.969   0.579   0.659  0.2388 -0.1310  0.9355
 7534TIP3    H144093   1.998   0.575   0.750  1.7317  0.2805  0.5047
 7534TIP3    H244094   2.042   0.620   0.612  0.4734 -2.3179 -0.8237
 7535TIP3   OH244095   1.295   4.676   4.045  0.7355 -0.2960 -0.3859
 7535TIP3    H144096   1.280   4.723   3.963  0.3858 -2.4305 -1.6276
 7535TIP3    H244097   1.391   4.673   4.053  0.7802 -0.5124 -0.9807
 7536TIP3   OH244098   6.809   4.586   4.039  0.2127  0.0418 -0.5313
 7536TIP3    H144099   6.758   4.598   4.119  0.6755 -0.3732 -0.1728
 7536TIP3    H244100   6.756   4.629   3.971  0.5488  1.7426  0.2321
 7537TIP3   OH244101   0.674   1.880  14.897  0.2972  0.4758 -0.3835
 7537TIP3    H144102   0.693   1.788  14.877  0.1524  0.3030  0.2481
 7537TIP3    H244103   0.721   1.929  14.830 -1.9797 -0.1289 -2.5668
 7538TIP3   OH244104   4.415   3.871   5.402  0.4327  1.1237 -0.3979
 7538TIP3    H144105   4.436   3.849   5.311  0.5286  0.5163 -0.2328
 7538TIP3    H244106   4.438   3.963   5.410 -0.3485  1.4035 -1.2191
 7539TIP3   OH244107   5.167   4.432  14.213 -0.4161 -0.1336  0.0139
 7539TIP3    H144108   5.159   4.337  14.207 -0.7281 -0.1808  1.0243
 7539TIP3    H244109   5.116   4.465  14.138 -1.0882 -0.7383  0.1954
 7540TIP3   OH244110   5.626   5.003   6.510 -0.1666  0.3685 -0.6014
 7540TIP3    H144111   5.692   4.952   6.557  0.1473  0.6445 -0.7324
 7540TIP3    H244112   5.664   5.091   6.503 -0.5747  0.5459 -0.6298
 7541TIP3   OH244113   1.295   1.907   3.742 -0.7142  0.0040 -0.2320
 7541TIP3    H144114   1.303   2.002   3.746  0.2003  0.0210 -1.6420
 7541TIP3    H244115   1.332   1.876   3.825 -3.1513  0.9269  1.2906
 7542TIP3   OH244116   6.352   6.136   6.158  0.4138 -0.1593  0.2245
 7542TIP3    H144117   6.417   6.073   6.190  1.0408  0.4810  0.2442
 7542TIP3    H244118   6.404   6.203   6.112 -0.0995  0.9858  1.2446
 7543TIP3   OH244119   1.918   0.029   4.334 -0.5498  0.3070 -0.7193
 7543TIP3    H144120   1.935  -0.033   4.405 -0.5660 -0.9886 -1.8109
 7543TIP3    H244121   1.911  -0.025   4.256 -2.6739  1.4625 -1.4152
 7544TIP3   OH244122   2.101   6.174  16.424  0.6691 -0.4561 -0.5063
 7544TIP3    H144123   2.179   6.193  16.477  1.2727 -1.9190 -0.8504
 7544TIP3    H244124   2.029   6.175  16.488  0.8504  1.3931 -0.2612
 7545TIP3   OH244125   1.744   2.379  15.709 -0.4396  0.5142 -0.3694
 7545TIP3    H144126   1.711   2.436  15.779 -0.0378  1.8017 -1.1864
 7545TIP3    H244127   1.781   2.304  15.755 -0.9335  0.9349  0.7562
 7546TIP3   OH244128   1.639   6.411   3.768  0.0431 -0.5071  0.6486
 7546TIP3    H144129   1.685   6.331   3.742 -1.4494 -0.8170 -1.2181
 7546TIP3    H244130   1.677   6.479   3.713 -1.4977 -0.7294 -0.7629
 7547TIP3   OH244131   4.972   0.811  12.841 -0.1565 -0.1501  0.2903
 7547TIP3    H144132   4.995   0.728  12.883 -0.8698 -0.2495  0.5005
 7547TIP3    H244133   4.969   0.874  12.913 -2.1140 -0.4721  0.5423
 7548TIP3   OH244134   2.048   6.479   5.158  0.1282  0.3955  0.3941
 7548TIP3    H144135   2.036   6.571   5.137 -1.1951 -0.3560 -2.6280
 7548TIP3    H244136   2.128   6.453   5.113  0.9454  0.2155  1.8989
 7549TIP3   OH244137   5.977   6.729   1.009  0.3518 -0.4172 -0.4060
 7549TIP3    H144138   6.011   6.802   1.062  0.0035 -1.2826  1.0651
 7549TIP3    H244139   5.920   6.681   1.069  1.9060 -2.8980 -0.8029
 7550TIP3   OH244140   6.367   5.484   2.221 -0.0390  0.1120  0.2646
 7550TIP3    H144141   6.341   5.416   2.159  0.6615 -0.0302  0.1162
 7550TIP3    H244142   6.438   5.531   2.177  1.0601 -0.5207  1.2716
 7551TIP3   OH244143   4.998   3.716  15.007  0.0924  0.4581  0.8885
 7551TIP3    H144144   5.056   3.663  14.953  0.0182  0.1259  1.1355
 7551TIP3    H244145   5.054   3.744  15.080 -0.6266 -1.8147  2.4193
 7552TIP3   OH244146   3.764   3.815   1.182 -0.0268 -0.2128 -0.7491
 7552TIP3    H144147   3.676   3.840   1.154 -0.8463  0.0146  1.7363
 7552TIP3    H244148   3.791   3.885   1.241  1.2692 -0.9473 -0.4303
 7553TIP3   OH244149   3.628   0.623  14.299 -0.2055 -0.0688 -0.1464
 7553TIP3    H144150   3.689   0.694  14.318 -0.3974  0.3373 -0.9907
 7553TIP3    H244151   3.669   0.572  14.230  0.1048 -1.0273  0.7224
 7554TIP3   OH244152   2.620   5.253  14.332  0.1384  0.2326  0.0049
 7554TIP3    H144153   2.546   5.258  14.272 -0.4790  1.2422  0.8356
 7554TIP3    H244154   2.688   5.306  14.290 -0.3323  1.0394  0.2465
 7555TIP3   OH244155   3.995   0.396  16.596 -0.2371  0.4046 -0.0171
 7555TIP3    H144156   3.906   0.360  16.595 -0.8068  1.7382 -0.7695
 7555TIP3    H244157   4.039   0.349  16.667 -1.8431  0.4148  1.0524
 7556TIP3   OH244158   1.472   3.824   4.713  0.3828  0.3175  0.1298
 7556TIP3    H144159   1.545   3.762   4.723  0.7154  0.7285  0.3101
 7556TIP3    H244160   1.447   3.818   4.621 -0.6497 -1.2522  0.4701
 7557TIP3   OH244161   1.267   3.123  13.299 -0.3650 -0.6665  0.2765
 7557TIP3    H144162   1.276   3.072  13.219 -2.6044 -0.7052 -0.0079
 7557TIP3    H244163   1.177   3.109  13.327 -0.8620  2.5206  0.6253
 7558TIP3   OH244164   1.741   2.908   4.982  0.1150  0.0137  0.4448
 7558TIP3    H144165   1.809   2.881   5.043  0.4040  0.7525  0.4682
 7558TIP3    H244166   1.663   2.919   5.036  0.6255  1.7186  0.9164
 7559TIP3   OH244167   6.789   2.917   4.682  0.5985  0.4318  0.1328
 7559TIP3    H144168   6.709   2.905   4.631 -0.6402  1.0278  1.8211
 7559TIP3    H244169   6.773   2.868   4.763  0.5337  3.0896  1.8695
 7560TIP3   OH244170   6.691   2.765  16.332  0.1621 -0.3885 -0.2254
 7560TIP3    H144171   6.659   2.677  16.353 -1.9572 -0.2515 -2.3945
 7560TIP3    H244172   6.647   2.822  16.395  1.6966 -0.8207  1.3207
 7561TIP3   OH244173   5.929   2.048  16.105 -0.3878  0.0600 -0.2459
 7561TIP3    H144174   5.952   2.034  16.013  0.5043 -0.7624  0.0868
 7561TIP3    H244175   5.919   2.143  16.114 -1.4213  0.0839 -1.4001
 7562TIP3   OH244176   6.536   6.128   4.210  0.2358  0.1305  0.5006
 7562TIP3    H144177   6.626   6.126   4.245  0.6720 -1.0560 -0.6018
 7562TIP3    H244178   6.544   6.173   4.126 -0.2688  0.3464  0.5673
 7563TIP3   OH244179   5.191   1.887  14.218  0.1039 -0.0138 -0.0884
 7563TIP3    H144180   5.132   1.918  14.149 -0.0029  1.5096  0.6485
 7563TIP3    H244181   5.133   1.862  14.290  0.3150  0.8130  0.3765
 7564TIP3   OH244182   1.935   6.264  15.724 -0.0329 -0.1191 -0.4112
 7564TIP3    H144183   1.999   6.202  15.759  0.4638  0.2454 -0.6501
 7564TIP3    H244184   1.877   6.284  15.797  1.8685  1.7820  0.6919
 7565TIP3   OH244185   0.729   1.938  12.450 -0.2255  0.3228 -0.2757
 7565TIP3    H144186   0.712   2.005  12.384  1.3020 -1.0844 -2.2395
 7565TIP3    H244187   0.774   1.868  12.402  0.1902 -1.1723  2.1079
 7566TIP3   OH244188   0.180   0.092   2.049  0.0169 -0.7054 -0.1927
 7566TIP3    H144189   0.133   0.019   2.008  0.7729 -0.5009 -1.4765
 7566TIP3    H244190   0.269   0.085   2.015  0.2596  0.4513  0.1676
 7567TIP3   OH244191   4.874   2.997  13.542 -0.7731 -0.1526 -0.3063
 7567TIP3    H144192   4.876   2.902  13.549 -2.7370 -0.2756 -0.8041
 7567TIP3    H244193   4.948   3.027  13.595  0.1093 -1.9555 -0.4594
 7568TIP3   OH244194   6.600   0.737   0.091 -0.6285  0.0598 -0.2774
 7568TIP3    H144195   6.626   0.827   0.113 -0.2545 -0.5578  2.1576
 7568TIP3    H244196   6.507   0.733   0.114 -0.3566 -0.4603  0.8330
 7569TIP3   OH244197   3.995   1.016  15.677 -0.1315 -0.5995  0.0542
 7569TIP3    H144198   4.086   1.024  15.648  0.1406  0.4839  1.1495
 7569TIP3    H244199   4.001   0.999  15.771 -1.0694 -0.5498  0.1353
 7570TIP3   OH244200   4.452   6.048  11.508  0.5146  0.3325  0.3571
 7570TIP3    H144201   4.456   5.995  11.429  0.9082  0.0718  0.5469
 7570TIP3    H244202   4.516   6.007  11.567 -0.9296 -0.4926  1.4245
 7571TIP3   OH244203   1.305   6.505   3.833  0.3742  0.2930 -0.1017
 7571TIP3    H144204   1.277   6.518   3.924 -2.2414  0.0960 -0.8292
 7571TIP3    H244205   1.341   6.591   3.808 -2.1437  1.4943  0.0810
 7572TIP3   OH244206   0.680   3.735   2.055 -0.4684 -0.0685  0.6107
 7572TIP3    H144207   0.656   3.819   2.095 -0.6232 -0.2424  0.8856
 7572TIP3    H244208   0.641   3.669   2.112 -0.7008 -0.3212  0.1597
 7573TIP3   OH244209   0.012   4.248   1.406 -0.1483  0.1700  0.4213
 7573TIP3    H144210  -0.081   4.250   1.430  0.5160  0.1301  3.3328
 7573TIP3    H244211   0.037   4.157   1.418  0.1820  0.0479 -0.9820
 7574TIP3   OH244212   3.087   1.485  14.325  0.0181 -0.4591  0.4808
 7574TIP3    H144213   3.034   1.565  14.320  0.1769 -0.3626  0.3279
 7574TIP3    H244214   3.106   1.463  14.234  0.0598 -0.6138  0.5275
 7575TIP3   OH244215   0.139   1.183   4.718  0.5811  0.1272 -0.1523
 7575TIP3    H144216   0.224   1.188   4.761  0.3675 -0.5120  0.3606
 7575TIP3    H244217   0.109   1.093   4.735 -0.5693  0.6019  0.4053
 7576TIP3   OH244218   3.536   4.914   1.055  0.1420  0.2073 -0.4689
 7576TIP3    H144219   3.530   4.893   0.962  1.8178  0.0688 -0.5672
 7576TIP3    H244220   3.555   5.007   1.058 -1.2193  0.5100 -0.1919
 7577TIP3   OH244221   6.431   2.894   1.181  0.0241  0.2788  0.0319
 7577TIP3    H144222   6.361   2.874   1.119  0.4106 -0.2113 -0.2565
 7577TIP3    H244223   6.465   2.978   1.152  0.8699 -0.4036 -1.0578
 7578TIP3   OH244224   2.667   3.532   2.262 -0.5667 -0.4979 -0.6217
 7578TIP3    H144225   2.642   3.622   2.284  1.0081  0.1216 -1.2682
 7578TIP3    H244226   2.713   3.500   2.340  2.3574  0.6698 -1.7306
 7579TIP3   OH244227   6.486   0.261  11.106  0.3468  0.5257  0.2182
 7579TIP3    H144228   6.400   0.259  11.149 -0.5810  0.8775 -1.5379
 7579TIP3    H244229   6.496   0.173  11.068  0.3985  0.7256 -0.2402
 7580TIP3   OH244230   6.117   0.438  15.149  0.1263 -0.2341 -0.1631
 7580TIP3    H144231   6.137   0.529  15.129 -1.0761 -0.0985 -0.8394
 7580TIP3    H244232   6.117   0.394  15.064  0.3118 -0.7832  0.1168
 7581TIP3   OH244233   3.332   0.781  12.832  0.4303 -0.3838  0.2584
 7581TIP3    H144234   3.415   0.809  12.871  1.1890  0.3667 -1.7319
 7581TIP3    H244235   3.268   0.788  12.903  1.4926  1.9608  1.0832
 7582TIP3   OH244236   3.158   4.709   0.115 -0.3117  0.0649 -0.0449
 7582TIP3    H144237   3.099   4.646   0.156 -0.2572 -0.1572 -0.3002
 7582TIP3    H244238   3.199   4.755   0.188 -0.5321 -0.0285  0.1401
 7583TIP3   OH244239   4.464   1.335   4.747 -0.0332  0.0333 -0.5251
 7583TIP3    H144240   4.463   1.415   4.800 -0.3588 -0.5009  0.3103
 7583TIP3    H244241   4.376   1.298   4.759  0.7220 -1.4929  0.7840
 7584TIP3   OH244242   2.388   1.500  12.779  0.8198  0.4733 -0.3412
 7584TIP3    H144243   2.426   1.561  12.843 -1.0957  1.2220  0.1632
 7584TIP3    H244244   2.360   1.555  12.706 -0.4103  0.1650 -0.1336
 7585TIP3   OH244245   2.928   4.576   5.770  0.2469 -0.3836 -0.0888
 7585TIP3    H144246   2.895   4.576   5.680 -0.3024 -0.0065  0.1091
 7585TIP3    H244247   2.920   4.667   5.798 -2.8524 -1.0326  1.5315
 7586TIP3   OH244248   3.181   0.312   3.506 -0.1260  0.0628 -0.6576
 7586TIP3    H144249   3.161   0.362   3.586  2.2352  0.9717 -0.5516
 7586TIP3    H244250   3.160   0.222   3.529  1.7462  0.0957  1.5443
 7587TIP3   OH244251   6.721   3.177   5.858 -0.2246  0.0038 -0.5589
 7587TIP3    H144252   6.722   3.081   5.857 -0.6911 -0.0203 -2.0628
 7587TIP3    H244253   6.771   3.201   5.936 -0.1904 -1.4574 -0.0943
 7588TIP3   OH244254   2.987   2.206   1.591  0.1979  0.4757 -0.3153
 7588TIP3    H144255   3.082   2.195   1.591  0.0783 -0.6014 -0.3979
 7588TIP3    H244256   2.962   2.204   1.498 -0.0922 -1.0771 -0.2314
 7589TIP3   OH244257   1.595   3.045   4.798 -0.5830  0.5522 -0.3963
 7589TIP3    H144258   1.634   2.990   4.866  0.1114  0.3364 -0.9551
 7589TIP3    H244259   1.579   3.129   4.841 -1.7040 -0.0770  0.4783
 7590TIP3   OH244260   0.736   0.614   0.068  0.0838  0.5907  0.1809
 7590TIP3    H144261   0.817   0.565   0.081 -0.3987  0.1598  1.8466
 7590TIP3    H244262   0.669   0.546   0.057  0.1026  0.9241 -2.8599
 7591TIP3   OH244263   2.240   1.937  15.601  0.8532  0.0813  0.1500
 7591TIP3    H144264   2.250   2.005  15.534  0.0526  0.2144  0.1535
 7591TIP3    H244265   2.156   1.895  15.580  1.0437 -0.5022  0.5140
 7592TIP3   OH244266   0.879   6.395   3.752  0.2540  0.5028  0.3442
 7592TIP3    H144267   0.913   6.478   3.717  0.5411 -0.2551 -1.2502
 7592TIP3    H244268   0.906   6.395   3.844  0.7318  1.9208  0.2263
 7593TIP3   OH244269   1.058   5.406   0.752  0.0487 -0.0681 -0.2974
 7593TIP3    H144270   1.112   5.391   0.830  1.0506 -1.0184 -1.1423
 7593TIP3    H244271   1.086   5.491   0.720  2.7952 -1.4793 -2.0096
 7594TIP3   OH244272   0.634   6.504   6.622  0.2343  0.4973  0.0122
 7594TIP3    H144273   0.633   6.413   6.652 -1.9689  0.9253  1.4936
 7594TIP3    H244274   0.543   6.524   6.601  0.8772  1.9615 -1.7593
 7595TIP3   OH244275   5.127   4.819  16.207 -0.5591 -0.2065  0.4377
 7595TIP3    H144276   5.115   4.914  16.202 -1.0429 -0.2417  0.9019
 7595TIP3    H244277   5.161   4.804  16.295 -0.9639 -0.5193  0.5406
 7596TIP3   OH244278   5.930   1.780   5.244 -0.1205  0.8546  0.6717
 7596TIP3    H144279   5.995   1.709   5.241 -2.6745 -1.6545  0.3723
 7596TIP3    H244280   5.959   1.842   5.177 -0.2074 -2.3200 -2.6528
 7597TIP3   OH244281   6.448   4.261   2.323 -0.1758  0.1623 -0.1910
 7597TIP3    H144282   6.428   4.331   2.385 -1.7988 -0.3922 -0.0611
 7597TIP3    H244283   6.541   4.274   2.302  0.1408  0.9745  1.5507
 7598TIP3   OH244284   3.607   3.608   2.139  0.4127 -0.3848 -0.3145
 7598TIP3    H144285   3.542   3.665   2.096 -0.6759 -0.8374  0.6783
 7598TIP3    H244286   3.580   3.520   2.114  0.6103 -0.5760  0.1441
 7599TIP3   OH244287   4.674   4.895   3.442 -0.3039  0.1299  0.1789
 7599TIP3    H144288   4.590   4.851   3.449 -0.2844  0.1155  0.3196
 7599TIP3    H244289   4.739   4.825   3.452 -0.2743 -0.0957 -1.3699
 7600TIP3   OH244290   0.987   0.530  12.587 -0.5039 -0.2798 -0.3452
 7600TIP3    H144291   0.922   0.566  12.647 -1.6107 -1.0154 -1.0700
 7600TIP3    H244292   0.995   0.438  12.613  1.0176  0.0352  0.3876
 7601TIP3   OH244293   5.971   4.448   1.790  0.9120 -0.0447  0.1002
 7601TIP3    H144294   6.007   4.521   1.841 -0.1853  0.4546  0.2064
 7601TIP3    H244295   5.878   4.471   1.779  0.5894 -1.3405 -0.0264
 7602TIP3   OH244296   2.888   1.221  15.292 -0.0613 -0.9164 -0.1023
 7602TIP3    H144297   2.929   1.176  15.366  1.9762  1.5275  0.3894
 7602TIP3    H244298   2.944   1.202  15.218  1.2454  1.1926  0.2524
 7603TIP3   OH244299   1.673   3.241   5.595  0.4773 -0.1230  0.0793
 7603TIP3    H144300   1.588   3.222   5.635  0.8433 -0.9035  0.5102
 7603TIP3    H244301   1.655   3.242   5.501  0.0803 -0.7818  0.1390
 7604TIP3   OH244302   6.622   4.647   2.400 -0.5759  0.1354  0.0671
 7604TIP3    H144303   6.697   4.651   2.459 -0.2687  1.0488 -0.3685
 7604TIP3    H244304   6.622   4.732   2.356 -0.3330 -0.7918 -1.8097
 7605TIP3   OH244305   5.413   1.808   2.048  0.1279 -0.1585  0.9570
 7605TIP3    H144306   5.342   1.822   1.986  0.7957 -0.2532  0.1509
 7605TIP3    H244307   5.428   1.894   2.088  0.8080  0.3112 -0.2522
 7606TIP3   OH244308   1.126   3.616  12.027 -0.2158  0.1043  0.4734
 7606TIP3    H144309   1.117   3.599  11.933  1.6279 -0.0835  0.2884
 7606TIP3    H244310   1.091   3.704  12.040  0.4710  0.5519 -0.5958
 7607TIP3   OH244311   4.888   4.118   0.201 -0.0983  0.2270 -0.1367
 7607TIP3    H144312   4.822   4.186   0.193 -0.2419  0.1121  0.0699
 7607TIP3    H244313   4.870   4.076   0.285 -1.5354 -1.6530 -1.3007
 7608TIP3   OH244314   5.890   6.632  16.814  0.2329 -0.1219  0.2112
 7608TIP3    H144315   5.813   6.593  16.773 -0.7517  0.7935  1.0967
 7608TIP3    H244316   5.915   6.570  16.882 -2.1850  1.2432  2.5723
 7609TIP3   OH244317   1.741   5.631   4.444 -0.2702  0.2838  0.0141
 7609TIP3    H144318   1.683   5.564   4.409  1.3628 -0.7712 -0.7754
 7609TIP3    H244319   1.818   5.584   4.475  0.6878  1.7301 -0.0429
 7610TIP3   OH244320   0.191   4.046  16.432  0.0845  0.5610  0.1120
 7610TIP3    H144321   0.216   4.071  16.343  1.6674 -0.0609  0.3488
 7610TIP3    H244322   0.135   3.969  16.421 -1.6656  1.8335 -0.4188
 7611TIP3   OH244323   5.025   0.831  15.024  0.7585 -0.2681  0.4292
 7611TIP3    H144324   5.098   0.893  15.023  0.8725 -0.3943  0.8266
 7611TIP3    H244325   5.049   0.766  15.090  0.8792 -1.0279 -0.3346
 7612TIP3   OH244326   2.978   5.700   4.301  0.1967  0.2457  0.0801
 7612TIP3    H144327   3.063   5.739   4.283  0.5123  0.1279  1.2677
 7612TIP3    H244328   2.965   5.637   4.230  1.6829 -0.6579  0.5747
 7613TIP3   OH244329   0.780   0.626  12.731 -0.0710 -0.0037  0.2410
 7613TIP3    H144330   0.692   0.637  12.695 -0.4288 -1.3734  0.6251
 7613TIP3    H244331   0.768   0.632  12.826  0.2719  0.0034  0.2839
 7614TIP3   OH244332   1.209   5.484   6.217 -0.2825 -0.6817 -0.0337
 7614TIP3    H144333   1.297   5.460   6.244 -0.3827 -0.5657  0.4024
 7614TIP3    H244334   1.167   5.517   6.297 -0.8518 -1.1168 -0.1455
 7615TIP3   OH244335   1.286   1.244  11.706 -0.1829  0.8333  0.2582
 7615TIP3    H144336   1.301   1.231  11.612 -2.7861 -0.0975 -0.1388
 7615TIP3    H244337   1.279   1.155  11.741 -0.9630  1.1635  0.9724
 7616TIP3   OH244338   4.905   4.105  13.904  0.0871 -0.1371 -0.0096
 7616TIP3    H144339   4.831   4.093  13.963  0.1019  3.6855  0.9831
 7616TIP3    H244340   4.866   4.106  13.817 -0.6501 -0.6444  0.3032
 7617TIP3   OH244341   3.306   0.131   6.667  0.7490 -0.0026 -0.4302
 7617TIP3    H144342   3.281   0.039   6.662  1.0763 -0.0389 -1.6030
 7617TIP3    H244343   3.398   0.133   6.639  0.9750  0.5935  0.2990
 7618TIP3   OH244344   1.211   3.399  14.148 -0.2794 -0.6073  0.6839
 7618TIP3    H144345   1.148   3.327  14.144 -0.5176 -0.3574 -0.2799
 7618TIP3    H244346   1.291   3.359  14.182 -0.7025 -1.1084  1.1038
 7619TIP3   OH244347   1.515   3.639  10.900  0.4964 -0.1591 -0.0581
 7619TIP3    H144348   1.567   3.572  10.945  1.0909  0.3500  0.0237
 7619TIP3    H244349   1.501   3.602  10.813  0.1841 -0.7145  0.2178
 7620TIP3   OH244350   3.054   4.859   3.847  0.0357  0.1661  0.7994
 7620TIP3    H144351   3.004   4.938   3.830  0.3245  0.2600  0.3597
 7620TIP3    H244352   3.100   4.877   3.929  1.6317  1.2485 -0.2661
 7621TIP3   OH244353   2.912   3.428  12.407  0.5318  0.2122 -0.2165
 7621TIP3    H144354   2.964   3.493  12.455 -0.3882 -0.1648  1.3679
 7621TIP3    H244355   2.968   3.350  12.404  0.5450  0.1906  0.4162
 7622TIP3   OH244356   1.943   6.423   0.311  0.9065 -0.0387 -0.4932
 7622TIP3    H144357   2.027   6.382   0.334  0.8358 -0.0251 -0.2120
 7622TIP3    H244358   1.883   6.396   0.380  0.6663 -0.0861 -0.7212
 7623TIP3   OH244359   5.612   1.623  15.919  0.2144 -0.1411  0.5822
 7623TIP3    H144360   5.643   1.705  15.882 -0.8856 -0.2229 -0.6208
 7623TIP3    H244361   5.527   1.608  15.876  0.8024 -2.3651  0.0297
 7624TIP3   OH244362   6.382   5.135  17.005  0.1319  0.0669  0.1520
 7624TIP3    H144363   6.471   5.142  17.040  0.3642  0.1973 -0.4545
 7624TIP3    H244364   6.384   5.058  16.948 -0.3096 -0.2950  0.6175
 7625TIP3   OH244365   1.663   0.197  13.367  0.1257  0.1999 -0.4190
 7625TIP3    H144366   1.757   0.207  13.374  0.1961 -0.8468  0.3148
 7625TIP3    H244367   1.645   0.109  13.399 -0.9464 -0.1738 -1.8881
 7626TIP3   OH244368   1.605   3.217  16.029 -0.0462  0.1387  0.1943
 7626TIP3    H144369   1.593   3.286  15.964  2.3523  1.0756  0.6372
 7626TIP3    H244370   1.604   3.136  15.978  0.8486  0.7914 -0.9273
 7627TIP3   OH244371   2.212   2.659   2.994 -0.1155  0.2123 -0.0256
 7627TIP3    H144372   2.162   2.647   2.913  0.4073 -0.6604 -0.2278
 7627TIP3    H244373   2.270   2.733   2.975 -0.9992  0.9563  0.0634
 7628TIP3   OH244374   1.931   6.556   1.784  0.0165  0.4772  0.0247
 7628TIP3    H144375   1.850   6.511   1.760 -0.0605  0.6659 -0.0690
 7628TIP3    H244376   1.927   6.563   1.879  0.8215 -1.2354  0.2251
 7629TIP3   OH244377   3.233   4.570   0.667 -0.1562  0.0809  0.4520
 7629TIP3    H144378   3.182   4.634   0.617 -1.7650 -0.7581  0.9467
 7629TIP3    H244379   3.199   4.485   0.639  1.7022 -0.5759  0.0607
 7630TIP3   OH244380   4.794   5.305  16.281 -0.2605  0.1622 -0.2964
 7630TIP3    H144381   4.814   5.213  16.297 -0.0439  0.1506 -0.6191
 7630TIP3    H244382   4.714   5.321  16.330 -0.2372 -0.1682 -0.1443
 7631TIP3   OH244383   0.274   3.654  12.886 -0.8703 -0.2916  0.0537
 7631TIP3    H144384   0.347   3.636  12.826 -0.0966 -0.7551  1.1144
 7631TIP3    H244385   0.306   3.628  12.972 -0.4717  3.9176  1.4385
 7632TIP3   OH244386   0.696   1.590  14.905 -0.0139 -0.6445  0.6547
 7632TIP3    H144387   0.786   1.595  14.938  0.3440  0.3049 -0.3993
 7632TIP3    H244388   0.683   1.497  14.887  1.4391 -0.6003 -0.9094
 7633TIP3   OH244389   4.648   6.190  14.475 -0.3509  0.2164 -0.5074
 7633TIP3    H144390   4.647   6.096  14.491  0.9059 -0.0024 -1.5642
 7633TIP3    H244391   4.737   6.217  14.500 -1.5467  1.6962  2.6530
 7634TIP3   OH244392   1.442   1.558   4.205  0.0219  0.0187  0.0877
 7634TIP3    H144393   1.423   1.625   4.271  1.5500  4.0794 -3.1792
 7634TIP3    H244394   1.533   1.533   4.223  0.1311  0.4145  0.0980
 7635TIP3   OH244395   5.147   3.364  10.505  0.6030  0.2109  0.7609
 7635TIP3    H144396   5.123   3.377  10.596  0.9332 -0.8708  1.0162
 7635TIP3    H244397   5.242   3.374  10.504  0.6109  0.1197  0.5533
 7636TIP3   OH244398   2.932   4.735   4.835  0.7567  0.0515 -0.5361
 7636TIP3    H144399   2.950   4.817   4.882  0.1092  0.5785 -1.1826
 7636TIP3    H244400   2.980   4.668   4.884  0.2661  0.6131  0.7490
 7637TIP3   OH244401   0.942   2.454  12.317  0.4483 -0.4104 -0.2294
 7637TIP3    H144402   0.939   2.426  12.226  1.0620 -0.6933 -0.1640
 7637TIP3    H244403   1.024   2.419  12.351 -0.8462 -2.3148  1.1060
 7638TIP3   OH244404   3.238   3.861  14.374 -0.0537  0.4442 -0.1865
 7638TIP3    H144405   3.225   3.767  14.377  0.7642  0.3434  1.8231
 7638TIP3    H244406   3.152   3.898  14.392 -0.1524  0.0442  0.1797
 7639TIP3   OH244407   2.914   1.547  12.736  0.6060 -0.2333 -0.0966
 7639TIP3    H144408   2.884   1.615  12.675 -0.2147 -1.1564 -0.7612
 7639TIP3    H244409   2.847   1.544  12.804  1.3349  0.5399  0.6806
 7640TIP3   OH244410   3.226   5.192  14.541  0.1531 -0.1716 -0.1465
 7640TIP3    H144411   3.253   5.105  14.510  0.0513  0.1084 -1.0667
 7640TIP3    H244412   3.281   5.209  14.617 -0.4170 -1.4019  0.5750
 7641TIP3   OH244413   0.729   4.156   2.362 -0.3164  0.0671 -0.0273
 7641TIP3    H144414   0.772   4.224   2.413  0.5589 -1.1571  0.9531
 7641TIP3    H244415   0.644   4.144   2.404 -0.5161  0.6191 -0.2714
 7642TIP3   OH244416   4.086   5.284  12.379 -0.1320 -0.1459  0.5962
 7642TIP3    H144417   4.124   5.247  12.299 -0.9690  0.5691 -0.1469
 7642TIP3    H244418   4.018   5.344  12.348 -0.3897  0.2314  1.8452
 7643TIP3   OH244419   5.231   1.350  15.130 -0.0709  0.1176 -0.2731
 7643TIP3    H144420   5.136   1.340  15.125 -0.1415  1.1827 -1.4685
 7643TIP3    H244421   5.264   1.310  15.050  0.5335 -0.4826  0.2553
 7644TIP3   OH244422   0.983   6.308  14.000  0.1458 -0.4252 -0.5527
 7644TIP3    H144423   1.028   6.303  14.084 -0.4200  0.9228 -0.1572
 7644TIP3    H244424   1.023   6.383  13.955  0.7094 -1.3480 -1.6644
 7645TIP3   OH244425   1.505   5.463  11.803  0.0815  0.2772  0.5012
 7645TIP3    H144426   1.599   5.481  11.813  0.5966 -2.3953  1.5476
 7645TIP3    H244427   1.477   5.437  11.891 -1.9003  1.8977  0.4023
 7646TIP3   OH244428   0.013   2.620   5.896 -0.3856 -0.1078  0.3036
 7646TIP3    H144429   0.089   2.613   5.837 -2.0994 -3.2463 -1.8142
 7646TIP3    H244430   0.044   2.584   5.979  1.4842  2.4738  0.8630
 7647TIP3   OH244431   6.238   1.653   0.783 -0.3097  0.0696  0.3480
 7647TIP3    H144432   6.297   1.700   0.724 -1.3795 -0.9707 -1.6333
 7647TIP3    H244433   6.270   1.563   0.783 -0.9739 -0.1758  0.4826
 7648TIP3   OH244434   5.332   0.563   0.913 -0.2310 -0.2936  0.5611
 7648TIP3    H144435   5.273   0.487   0.917 -0.8722  0.0680 -1.1737
 7648TIP3    H244436   5.377   0.554   0.829  1.8519 -0.2624  1.5975
 7649TIP3   OH244437   3.597   2.760  15.180  0.3351  0.1331  0.2966
 7649TIP3    H144438   3.554   2.684  15.140 -0.5068  1.6429 -1.8573
 7649TIP3    H244439   3.525   2.820  15.200  1.1960  2.1995 -2.2300
 7650TIP3   OH244440   4.705   0.720  12.209 -0.0393  0.0673 -0.0753
 7650TIP3    H144441   4.702   0.810  12.177 -0.4330  0.6876  1.6074
 7650TIP3    H244442   4.618   0.685  12.192 -0.7204  0.8756  1.5690
 7651TIP3   OH244443   5.145   6.584   0.434 -0.2070 -0.4828 -0.4338
 7651TIP3    H144444   5.206   6.512   0.424 -0.8783 -0.9768 -1.0467
 7651TIP3    H244445   5.140   6.624   0.347 -2.7012 -2.0567 -1.1097
 7652TIP3   OH244446   1.377   5.806  11.721 -0.1259  0.2085 -0.4434
 7652TIP3    H144447   1.440   5.782  11.652 -1.0013 -2.5906 -0.3841
 7652TIP3    H244448   1.330   5.882  11.685  1.3714  0.6232 -1.6567
 7653TIP3   OH244449   1.108   2.304   1.237  0.0855 -0.0474  0.1108
 7653TIP3    H144450   1.159   2.274   1.162 -1.3165 -0.8398 -0.5590
 7653TIP3    H244451   1.079   2.224   1.281  2.6461  0.3188  2.8517
 7654TIP3   OH244452   1.930   1.340  13.129 -0.6747 -0.1384  0.7519
 7654TIP3    H144453   1.904   1.263  13.180 -2.1708  0.4450  0.9407
 7654TIP3    H244454   1.901   1.320  13.040 -0.6066 -0.0139  0.7013
 7655TIP3   OH244455   3.794   5.738  14.292  0.2546  0.2395 -0.1433
 7655TIP3    H144456   3.803   5.733  14.387 -0.0715 -1.2473 -0.1593
 7655TIP3    H244457   3.874   5.781  14.262  2.5566 -3.1207  0.5153
 7656TIP3   OH244458   2.058   1.850   0.933  0.0725 -0.2711  0.1068
 7656TIP3    H144459   1.969   1.818   0.922  0.2726 -1.1366  0.8191
 7656TIP3    H244460   2.077   1.836   1.026  0.9559 -0.1174 -0.0369
 7657TIP3   OH244461   6.538   5.589   1.480  0.2210 -0.1427  0.5168
 7657TIP3    H144462   6.596   5.662   1.456  0.8618 -0.5339  0.8195
 7657TIP3    H244463   6.546   5.527   1.408 -1.1374  0.5352 -0.2368
 7658TIP3   OH244464   5.819   5.156  16.531 -0.4565 -0.7342  0.1106
 7658TIP3    H144465   5.832   5.079  16.585  0.4430  0.0148  0.9989
 7658TIP3    H244466   5.770   5.217  16.586 -0.6036 -0.4193 -0.3560
 7659TIP3   OH244467   1.433   0.467   0.645  0.3916 -0.3157  0.3478
 7659TIP3    H144468   1.515   0.443   0.602 -1.0323 -1.2327 -2.0651
 7659TIP3    H244469   1.365   0.433   0.587 -1.7318  2.3653  1.0780
 7660TIP3   OH244470   5.822   6.246   2.664  0.0005 -0.4599 -0.2438
 7660TIP3    H144471   5.899   6.245   2.721 -0.0364 -0.7198 -0.2001
 7660TIP3    H244472   5.817   6.158   2.628 -0.8470 -0.7459  0.5320
 7661TIP3   OH244473   5.808   3.579  12.125  0.3500  0.1643  0.4024
 7661TIP3    H144474   5.840   3.669  12.126  0.9103 -0.0308  0.4088
 7661TIP3    H244475   5.767   3.567  12.210 -0.2963  0.6145  0.1584
 7662TIP3   OH244476   5.492   1.597   5.731  0.0229 -0.8543  0.8637
 7662TIP3    H144477   5.435   1.590   5.808 -1.4803  0.4395 -0.0380
 7662TIP3    H244478   5.461   1.676   5.687 -0.9597 -2.8732 -2.4439
 7663TIP3   OH244479   0.881   2.430   1.828  0.5478  0.3838  0.5117
 7663TIP3    H144480   0.929   2.403   1.906  0.2032 -0.3114  0.4923
 7663TIP3    H244481   0.948   2.437   1.760  0.9244  1.4968  0.9792
 7664TIP3   OH244482   6.238   1.586  13.919 -0.8325 -0.0715  0.1151
 7664TIP3    H144483   6.302   1.568  13.850  0.8081 -0.6464  1.7031
 7664TIP3    H244484   6.244   1.680  13.933 -0.3535 -0.1158  0.2292
 7665TIP3   OH244485   0.171   6.636   4.834  0.1505 -0.1688  0.0346
 7665TIP3    H144486   0.167   6.582   4.913  1.4676  0.1773  0.3627
 7665TIP3    H244487   0.256   6.681   4.840 -0.5262  1.2652 -0.6650
 7666TIP3   OH244488   4.801   0.290   4.217  0.5718  0.2732  0.0833
 7666TIP3    H144489   4.778   0.237   4.141  0.9332  0.5668 -0.2378
 7666TIP3    H244490   4.888   0.260   4.241  1.0529  1.1441 -0.4962
 7667TIP3   OH244491   0.650   5.316  16.130 -0.2692  0.0684 -0.1019
 7667TIP3    H144492   0.562   5.281  16.117 -0.0088 -0.8965  0.6280
 7667TIP3    H244493   0.673   5.291  16.219  0.1714  1.6274  0.2454
 7668TIP3   OH244494   0.762   6.802  13.288  0.0735 -0.1214  0.2266
 7668TIP3    H144495   0.845   6.837  13.321 -0.4741  0.8223  0.6167
 7668TIP3    H244496   0.782   6.778  13.197  0.4379  1.3550 -0.1118
 7669TIP3   OH244497   4.466   4.398  13.697 -0.8778  0.2317  0.3638
 7669TIP3    H144498   4.385   4.423  13.741 -0.7985  2.6602 -0.6903
 7669TIP3    H244499   4.529   4.466  13.721  0.5527 -1.0024  0.2717
 7670TIP3   OH244500   2.713   4.412  14.973 -0.2348  0.4444  0.0474
 7670TIP3    H144501   2.760   4.346  15.024 -0.2938  0.9687  0.7986
 7670TIP3    H244502   2.765   4.492  14.983  0.6170  0.2096 -2.0253
 7671TIP3   OH244503   6.071   4.750  12.120  0.0875 -0.5816  0.4034
 7671TIP3    H144504   6.019   4.703  12.056 -0.8742 -2.0789  2.1972
 7671TIP3    H244505   6.137   4.797  12.068 -1.2374 -0.9411 -1.7016
 7672TIP3   OH244506   0.725   2.536   2.445  0.4343  0.8936  0.2855
 7672TIP3    H144507   0.743   2.629   2.438  0.5409  0.8739  0.2962
 7672TIP3    H244508   0.711   2.507   2.354 -0.6388  1.1264  0.3697
 7673TIP3   OH244509   1.399   0.845  12.302  0.1355  0.7410 -0.0835
 7673TIP3    H144510   1.481   0.810  12.337 -0.4588 -0.1147  0.4943
 7673TIP3    H244511   1.341   0.849  12.378 -1.0318 -0.7060 -0.8408
 7674TIP3   OH244512   5.106   4.387  14.960  0.3270  0.1562 -0.1098
 7674TIP3    H144513   5.059   4.373  15.042  0.2048 -0.7676 -0.3370
 7674TIP3    H244514   5.120   4.482  14.957 -0.0652  0.2494  0.7556
 7675TIP3   OH244515   4.491   1.554  12.189 -0.0754 -0.2518  0.1002
 7675TIP3    H144516   4.501   1.622  12.123 -1.9867 -1.8167 -1.9396
 7675TIP3    H244517   4.575   1.508  12.190  0.2434  0.3066 -0.6496
 7676TIP3   OH244518   4.909   6.346   6.377  0.1990 -0.1295  0.2532
 7676TIP3    H144519   5.004   6.335   6.379  0.2408  0.1451 -0.1574
 7676TIP3    H244520   4.896   6.440   6.384 -0.1106 -0.2693  2.2461
 7677TIP3   OH244521   1.016   6.304   0.028  0.4596 -0.0576 -0.9356
 7677TIP3    H144522   0.956   6.269  -0.038  3.3688 -1.9760 -2.8106
 7677TIP3    H244523   1.038   6.228   0.082 -1.4408  1.3708  2.1202
 7678TIP3   OH244524   2.229   1.163  10.358  0.3363 -0.3319 -0.3979
 7678TIP3    H144525   2.174   1.187  10.283 -0.5561 -0.0034  0.3497
 7678TIP3    H244526   2.206   1.072  10.377 -1.1850  0.2933  0.9358
 7679TIP3   OH244527   6.134   0.484   0.475 -0.4799  0.3543  0.6117
 7679TIP3    H144528   6.196   0.531   0.530 -0.1257 -0.3915  0.8642
 7679TIP3    H244529   6.166   0.498   0.386 -0.7455  1.1128  0.6240
 7680TIP3   OH244530   2.100   1.869   4.795  0.2999  0.2332 -0.2138
 7680TIP3    H144531   2.015   1.840   4.764  0.0221 -0.8335  1.3861
 7680TIP3    H244532   2.093   1.965   4.799 -1.2465  0.1098  0.9674
 7681TIP3   OH244533   5.669   5.251  10.437  0.0314 -0.6472 -0.1353
 7681TIP3    H144534   5.693   5.221  10.525  1.4403  0.5100 -0.0911
 7681TIP3    H244535   5.744   5.302  10.407 -1.6949  1.7695 -0.6978
 7682TIP3   OH244536   3.057   6.620   1.443 -0.1534 -0.5260 -0.0559
 7682TIP3    H144537   3.021   6.532   1.446 -2.3511  0.2878 -0.3806
 7682TIP3    H244538   3.080   6.634   1.351  1.9333 -1.3338  0.2803
 7683TIP3   OH244539   2.458   1.382  15.182  0.2270  0.1781  0.1772
 7683TIP3    H144540   2.458   1.390  15.278  0.0867  0.5659  0.1480
 7683TIP3    H244541   2.409   1.459  15.152  3.6195  2.3520 -0.3599
 7684TIP3   OH244542   2.650   1.822   6.735 -0.3253 -0.3666 -0.5791
 7684TIP3    H144543   2.631   1.914   6.755 -0.3216 -0.5795  0.4635
 7684TIP3    H244544   2.745   1.818   6.727 -0.3351 -0.2608 -0.7645
 7685TIP3   OH244545   2.744   2.177  14.592  0.3462 -0.1488 -0.4484
 7685TIP3    H144546   2.670   2.189  14.531  0.5917  1.6196 -0.4663
 7685TIP3    H244547   2.803   2.117  14.546 -0.1164  0.0702 -1.3607
 7686TIP3   OH244548   1.992   0.878   5.103  0.3688  0.0502 -0.0249
 7686TIP3    H144549   2.039   0.920   5.031  2.2325 -0.1124  1.0321
 7686TIP3    H244550   1.977   0.947   5.167 -0.5295  0.0192 -0.1910
 7687TIP3   OH244551   5.009   6.012  11.965  0.1956 -0.9529 -0.5787
 7687TIP3    H144552   5.091   5.966  11.985  1.3159  0.7935 -0.8703
 7687TIP3    H244553   5.023   6.100  11.999 -1.3650 -0.4615 -1.1362
 7688TIP3   OH244554   6.676   6.776  16.012  0.1135 -0.5690 -0.1534
 7688TIP3    H144555   6.674   6.714  16.085 -4.7046 -0.6947 -0.0311
 7688TIP3    H244556   6.630   6.854  16.045 -0.6176  0.0750 -2.4551
 7689TIP3   OH244557   2.918   2.959  13.309 -0.3064  0.3644  0.4130
 7689TIP3    H144558   2.890   2.871  13.285  1.4686 -0.0190 -0.3558
 7689TIP3    H244559   3.013   2.958  13.302 -0.2537  2.4480  0.0118
 7690TIP3   OH244560   0.811   3.223   0.896  0.6670 -0.3091 -0.0813
 7690TIP3    H144561   0.787   3.154   0.835  1.0574  0.1601 -0.7860
 7690TIP3    H244562   0.766   3.301   0.862  1.1913  0.0361  0.0129
 7691TIP3   OH244563   5.275   5.547  12.410  0.1031 -0.4990  0.4559
 7691TIP3    H144564   5.203   5.488  12.428 -0.7541  0.4135  0.1003
 7691TIP3    H244565   5.312   5.517  12.327  1.3846 -2.1289  1.5384
 7692TIP3   OH244566   3.085   2.219  14.600 -0.3927 -0.2170  0.3227
 7692TIP3    H144567   3.052   2.261  14.520  0.3874 -0.1275  0.0440
 7692TIP3    H244568   3.008   2.212  14.656 -0.8846  0.0166 -0.3085
 7693TIP3   OH244569   5.578   1.889   4.297 -0.1127  0.0275  0.7053
 7693TIP3    H144570   5.498   1.938   4.281 -0.1790 -0.2351  0.1936
 7693TIP3    H244571   5.550   1.797   4.301  0.4974 -0.4543 -2.7047
 7694TIP3   OH244572   1.655   2.222   4.284 -0.0694  0.0220  0.5194
 7694TIP3    H144573   1.652   2.174   4.367 -1.7206  1.0601  1.1083
 7694TIP3    H244574   1.748   2.228   4.263  0.3648 -0.5096  2.1560
 7695TIP3   OH244575   1.729   4.750   0.115  0.1435  0.1458  0.7786
 7695TIP3    H144576   1.640   4.785   0.109 -0.2378 -0.8809  0.2926
 7695TIP3    H244577   1.774   4.809   0.176 -0.4464  1.5538 -0.0962
 7696TIP3   OH244578   3.698   0.846  16.451  0.0055 -0.3037  0.3726
 7696TIP3    H144579   3.633   0.848  16.522 -0.0244  0.5034  0.3315
 7696TIP3    H244580   3.715   0.939  16.432 -0.0301 -0.5174 -0.7205
 7697TIP3   OH244581   2.524   6.532  11.954 -0.0070  0.0773  0.4475
 7697TIP3    H144582   2.500   6.485  12.034  0.7315  1.1574  1.3256
 7697TIP3    H244583   2.578   6.605  11.984  2.5388 -0.9819 -1.2639
 7698TIP3   OH244584   1.901   4.683  13.147 -0.3187 -0.3388 -0.0263
 7698TIP3    H144585   1.864   4.625  13.080 -0.1408  0.1313 -0.5358
 7698TIP3    H244586   1.967   4.734  13.101 -0.1650 -0.0365  0.5208
 7699TIP3   OH244587   0.832   5.667   0.673  0.2835 -0.4014 -0.2391
 7699TIP3    H144588   0.899   5.705   0.616  0.3909  0.7083  0.5780
 7699TIP3    H244589   0.754   5.662   0.619  0.5539  0.0272 -0.6743
 7700TIP3   OH244590   0.589   2.904   1.580 -0.1245  0.9472 -0.0827
 7700TIP3    H144591   0.587   2.818   1.538  0.7782  0.9113 -0.0759
 7700TIP3    H244592   0.497   2.926   1.594 -0.3704  0.0022 -0.1237
 7701TIP3   OH244593   4.361   6.385   2.534 -0.4203  0.3279  0.0867
 7701TIP3    H144594   4.373   6.408   2.626 -0.5595  0.3788  0.0927
 7701TIP3    H244595   4.268   6.401   2.517 -0.3476  0.5317 -0.1238
 7702TIP3   OH244596   5.238   5.229  15.463 -0.3900 -0.1281  0.1902
 7702TIP3    H144597   5.313   5.288  15.469 -1.4821  1.4465 -0.7733
 7702TIP3    H244598   5.268   5.158  15.406  0.9815 -0.6278  1.4566
 7703TIP3   OH244599   1.322   5.857  12.205 -1.0022 -0.0710  0.3430
 7703TIP3    H144600   1.387   5.866  12.275 -0.0267  0.2119 -0.5889
 7703TIP3    H244601   1.370   5.823  12.130 -2.0875 -0.5970 -0.1383
 7704TIP3   OH244602   3.886   3.819   4.412 -0.1447 -0.1814  0.4052
 7704TIP3    H144603   3.919   3.887   4.354  1.4658 -1.8745 -0.7677
 7704TIP3    H244604   3.958   3.756   4.419 -1.7792 -2.0869  0.9414
 7705TIP3   OH244605   3.258   4.113   2.684 -0.4928 -0.3462  0.8660
 7705TIP3    H144606   3.278   4.020   2.692  0.2378 -0.0712  2.6907
 7705TIP3    H244607   3.174   4.115   2.638  0.4249 -1.7866 -1.0407
 7706TIP3   OH244608   4.532   5.615  16.065 -0.1986 -0.6999  0.1953
 7706TIP3    H144609   4.573   5.548  16.121 -0.2427 -2.1374 -1.4081
 7706TIP3    H244610   4.605   5.665  16.029 -0.2000  0.9190  2.2410
 7707TIP3   OH244611   0.035   2.186   4.086  0.2095 -0.3453 -0.1802
 7707TIP3    H144612   0.037   2.093   4.109 -0.2766 -0.1516  0.7048
 7707TIP3    H244613   0.044   2.231   4.169 -0.6748  0.3932 -0.4730
 7708TIP3   OH244614   6.225   5.600  12.357 -0.3458  0.2381 -0.2993
 7708TIP3    H144615   6.231   5.554  12.440  0.5016  1.0014  0.0813
 7708TIP3    H244616   6.309   5.645  12.348 -0.5634  0.4696 -1.3934
 7709TIP3   OH244617   0.368   1.080   5.648 -0.3301  0.7560 -0.1846
 7709TIP3    H144618   0.435   1.103   5.713  0.1181 -0.8818 -0.0188
 7709TIP3    H244619   0.417   1.042   5.576 -1.0810 -0.5272 -0.0360
 7710TIP3   OH244620   4.152   2.929  16.448  0.1238  0.0417 -0.2691
 7710TIP3    H144621   4.140   2.851  16.394  1.7677 -1.4650  1.3929
 7710TIP3    H244622   4.086   2.921  16.517 -0.6997  0.9555 -0.9209
 7711TIP3   OH244623   4.782   2.488   1.017  0.7632  0.3096  0.2578
 7711TIP3    H144624   4.795   2.530   0.932  0.4282 -1.0574 -0.4997
 7711TIP3    H244625   4.870   2.458   1.042  0.8004  0.3946  0.2300
 7712TIP3   OH244626   4.628   1.144  13.862 -0.0950  0.0877 -0.2959
 7712TIP3    H144627   4.698   1.208  13.872 -1.0303  1.2347 -0.8611
 7712TIP3    H244628   4.557   1.192  13.819 -0.5232 -1.5371 -1.5263
 7713TIP3   OH244629   1.633   2.338  16.073 -0.3349 -0.4956  0.3184
 7713TIP3    H144630   1.584   2.381  16.002 -0.4683 -0.6972  0.2864
 7713TIP3    H244631   1.680   2.409  16.116  1.1363 -0.5995 -1.0572
 7714TIP3   OH244632   5.306   2.039   0.501 -0.5230 -0.5215  0.8309
 7714TIP3    H144633   5.285   1.970   0.564 -0.2313 -1.4391 -0.0537
 7714TIP3    H244634   5.348   1.993   0.428 -1.5617  0.4031 -0.3864
 7715TIP3   OH244635   6.134   3.760   0.463  0.8150  0.1347 -0.2771
 7715TIP3    H144636   6.213   3.797   0.503  0.8043  0.5033 -0.5936
 7715TIP3    H244637   6.149   3.766   0.369  0.7008 -0.4289 -0.3347
 7716TIP3   OH244638   2.127   3.870  10.985 -0.1413  0.1620 -0.1065
 7716TIP3    H144639   2.119   3.848  10.892  0.0821  1.3704 -0.4305
 7716TIP3    H244640   2.128   3.965  10.986 -0.1850  0.1565  1.1519
 7717TIP3   OH244641   6.416   2.090  15.829 -0.0645  0.3219 -0.1345
 7717TIP3    H144642   6.351   2.116  15.894  0.7752  0.0676  0.8301
 7717TIP3    H244643   6.461   2.016  15.868  0.4863  0.1863 -0.9989
 7718TIP3   OH244644   2.818   5.095  10.254  0.6322  0.0070  0.2785
 7718TIP3    H144645   2.868   5.041  10.316  0.4640  0.5499  0.8938
 7718TIP3    H244646   2.729   5.058  10.257  0.8419 -0.5836 -0.3779
 7719TIP3   OH244647   0.810   4.735  11.409 -0.5612 -0.3350  0.3943
 7719TIP3    H144648   0.879   4.741  11.343 -1.0007 -0.4860 -0.0900
 7719TIP3    H244649   0.856   4.730  11.492  0.1141 -2.6625 -0.0463
 7720TIP3   OH244650   4.770   3.269   1.295  0.6198 -0.5754  0.0791
 7720TIP3    H144651   4.790   3.273   1.388  1.0072 -2.3737  0.0950
 7720TIP3    H244652   4.712   3.193   1.285  1.9097 -1.4259 -1.3429
 7721TIP3   OH244653   4.932   0.062   0.273 -0.1137 -0.7420  0.8589
 7721TIP3    H144654   4.921   0.153   0.247 -0.4088 -1.1715 -0.6520
 7721TIP3    H244655   5.020   0.039   0.243  0.1344 -0.8348  1.6411
 7722TIP3   OH244656   2.632   6.253  13.764  0.0810  0.3822 -0.3001
 7722TIP3    H144657   2.656   6.189  13.830  0.6820  1.1982  0.2826
 7722TIP3    H244658   2.536   6.251  13.764  0.0304  1.1808  1.4141
 7723TIP3   OH244659   0.177   2.050  17.020 -0.2155  0.0212 -0.0453
 7723TIP3    H144660   0.112   2.004  16.967  0.1811 -0.1652 -0.3710
 7723TIP3    H244661   0.128   2.082  17.096 -0.6598 -0.2282 -0.2273
 7724TIP3   OH244662   2.122   3.717  14.859 -0.1719  0.0653  0.0247
 7724TIP3    H144663   2.044   3.765  14.886 -0.4192 -0.5168  0.3592
 7724TIP3    H244664   2.177   3.782  14.816 -0.7612  0.5165 -0.0443
 7725TIP3   OH244665   3.753   5.483  15.538 -0.0316 -0.0040  0.0270
 7725TIP3    H144666   3.674   5.488  15.591 -0.4946 -0.5679 -0.6016
 7725TIP3    H244667   3.725   5.440  15.457  0.8036  0.2585 -0.4096
 7726TIP3   OH244668   1.376   0.471  14.037 -0.0985 -0.6068 -0.2993
 7726TIP3    H144669   1.323   0.431  13.968 -0.5889 -1.3704  0.5023
 7726TIP3    H244670   1.419   0.546  13.994 -1.6214 -0.1156 -1.0235
 7727TIP3   OH244671   2.329   4.969  10.387  0.3335 -0.2404 -0.1655
 7727TIP3    H144672   2.241   4.990  10.419  0.8413 -0.2267  1.3193
 7727TIP3    H244673   2.362   4.904  10.449  1.5318  0.0809 -0.4479
 7728TIP3   OH244674   6.021   0.252  16.342  0.1143 -0.7172  0.4731
 7728TIP3    H144675   6.029   0.235  16.248  3.7348 -1.4428  0.7574
 7728TIP3    H244676   5.938   0.212  16.367 -0.1814 -1.9279 -2.1341
 7729TIP3   OH244677   3.163   5.514  17.091 -0.2120 -0.4543  0.1443
 7729TIP3    H144678   3.125   5.579  17.149 -0.3783  0.6147 -1.1166
 7729TIP3    H244679   3.250   5.497  17.127 -0.3079  0.1779  0.6884
 7730TIP3   OH244680   0.609   2.893  12.901 -0.2767 -0.5559 -0.9121
 7730TIP3    H144681   0.596   2.804  12.933 -1.0033 -0.6893 -1.5307
 7730TIP3    H244682   0.527   2.938  12.923  0.5262  0.2998  0.4470
 7731TIP3   OH244683   1.901   3.162   3.107 -0.6212 -0.6631  0.4996
 7731TIP3    H144684   1.965   3.104   3.064 -0.7569  0.8991 -2.0233
 7731TIP3    H244685   1.818   3.114   3.101 -0.6562 -0.4763 -1.1888
 7732TIP3   OH244686   3.309   4.700   0.914  0.0048 -0.0459  0.7953
 7732TIP3    H144687   3.351   4.775   0.872 -0.5907 -0.0466  0.1985
 7732TIP3    H244688   3.254   4.662   0.847 -1.3418  0.2469  1.6993
 7733TIP3   OH244689   5.317   0.609  17.011  0.2587  0.1095 -0.2370
 7733TIP3    H144690   5.278   0.680  17.062  1.3185  0.7113 -0.2302
 7733TIP3    H244691   5.391   0.650  16.966 -0.4533 -0.4794 -2.0212
 7734TIP3   OH244692   0.532   1.811  14.178 -0.0045 -0.0574 -0.2271
 7734TIP3    H144693   0.603   1.783  14.235  0.1693 -0.1825 -0.5031
 7734TIP3    H244694   0.569   1.808  14.090 -0.0430  0.8664 -0.2811
 7735TIP3   OH244695   4.571   5.119   1.395  0.1034  0.3069 -0.1951
 7735TIP3    H144696   4.607   5.047   1.344  0.9203  0.9374 -0.5109
 7735TIP3    H244697   4.566   5.085   1.485  1.8519  0.3221 -0.0640
 7736TIP3   OH244698   5.772   1.445  13.920  0.4787 -0.0342 -0.0487
 7736TIP3    H144699   5.688   1.490  13.920 -0.1323 -1.1428  0.9890
 7736TIP3    H244700   5.752   1.355  13.896  1.6488  0.0982 -1.7719
 7737TIP3   OH244701   3.551   3.571   3.305 -0.1841 -0.1270 -0.2336
 7737TIP3    H144702   3.561   3.665   3.322  0.6519 -0.0718 -0.9590
 7737TIP3    H244703   3.542   3.531   3.391  1.1361  0.4383  0.1784
 7738TIP3   OH244704   4.031   2.241   4.451  0.4913 -0.6160  0.3277
 7738TIP3    H144705   3.938   2.222   4.446  0.4651 -0.7207  1.1375
 7738TIP3    H244706   4.066   2.177   4.513  0.9946 -0.2085  0.4764
 7739TIP3   OH244707   6.758   0.533   0.811  0.3892 -0.1476  0.0008
 7739TIP3    H144708   6.852   0.527   0.829  0.4606 -0.3899 -0.4365
 7739TIP3    H244709   6.718   0.470   0.870  0.5587 -0.4617 -0.2143
 7740TIP3   OH244710   4.558   4.862  14.982 -0.0904  0.0994  0.1061
 7740TIP3    H144711   4.526   4.950  14.965 -0.2245 -0.0048 -0.1802
 7740TIP3    H244712   4.649   4.875  15.010 -0.5148  0.4317  1.4076
 7741TIP3   OH244713   3.011   5.276   0.123 -0.3723  0.4594 -0.0547
 7741TIP3    H144714   3.064   5.198   0.108 -1.0250 -0.1697  0.7757
 7741TIP3    H244715   3.074   5.347   0.133  0.2745 -0.1520  0.2572
 7742TIP3   OH244716   3.690   0.985   5.112 -0.2295  0.3492 -0.6634
 7742TIP3    H144717   3.645   0.903   5.134 -1.0000  1.1453  0.9293
 7742TIP3    H244718   3.778   0.975   5.147  0.7926 -1.0271 -3.3628
 7743TIP3   OH244719   0.151   4.929  11.299 -0.8840 -0.3999  0.7041
 7743TIP3    H144720   0.077   4.950  11.356 -0.5273 -0.6437  1.2675
 7743TIP3    H244721   0.227   4.928  11.358 -0.4399 -0.1981  0.1411
 7744TIP3   OH244722   4.487   6.585  15.468  0.1459  0.3002 -0.6102
 7744TIP3    H144723   4.514   6.579  15.560  1.1977  0.3029 -0.9088
 7744TIP3    H244724   4.448   6.500  15.449  0.6289  0.0246 -0.3788
 7745TIP3   OH244725   6.236   0.054  13.431  0.5742 -0.2777  0.0174
 7745TIP3    H144726   6.225   0.051  13.526 -1.5901  0.4672 -0.1488
 7745TIP3    H244727   6.201   0.140  13.406  1.3168 -0.3687 -1.4421
 7746TIP3   OH244728   6.516   1.418  12.113  0.3398 -0.6710 -0.4070
 7746TIP3    H144729   6.512   1.373  12.029  1.1756 -0.7486 -0.4189
 7746TIP3    H244730   6.587   1.481  12.103  2.2994 -2.4689  1.0407
 7747TIP3   OH244731   4.105   1.854   5.084  0.3054  0.5105  0.0306
 7747TIP3    H144732   4.112   1.770   5.129  1.2174  0.9914  0.8306
 7747TIP3    H244733   4.033   1.899   5.127  2.0570  1.5542  2.1177
 7748TIP3   OH244734   1.704   2.001   1.900 -0.3871  0.0375  0.0607
 7748TIP3    H144735   1.724   1.999   1.993 -0.6929  0.9993  0.1618
 7748TIP3    H244736   1.652   1.923   1.884  1.1184 -1.0559  0.3387
 7749TIP3   OH244737   6.784   6.195   0.569 -0.1031 -0.3208 -0.8138
 7749TIP3    H144738   6.874   6.163   0.565  0.0229  0.0835 -4.0855
 7749TIP3    H244739   6.740   6.154   0.494 -1.8410  1.7006 -1.0186
 7750TIP3   OH244740   5.528   4.257   2.917  0.1333 -0.7989 -0.2638
 7750TIP3    H144741   5.608   4.298   2.950  0.1412  0.9876 -2.2429
 7750TIP3    H244742   5.559   4.189   2.858  0.2008 -0.5135 -0.5611
 7751TIP3   OH244743   2.870   4.538  14.245 -0.3232  0.3594 -0.2092
 7751TIP3    H144744   2.792   4.498  14.282  1.1850 -1.0379  1.6937
 7751TIP3    H244745   2.923   4.563  14.321  2.7366 -2.1847 -1.2595
 7752TIP3   OH244746   5.525   2.043   4.765 -0.4650  0.2520  0.0331
 7752TIP3    H144747   5.553   2.133   4.750 -3.1429  1.0162 -0.9244
 7752TIP3    H244748   5.497   2.041   4.857 -0.4370  0.4072  0.0441
 7753TIP3   OH244749   6.522   5.229   3.614 -0.0454  0.3112 -0.1844
 7753TIP3    H144750   6.614   5.207   3.632  0.1115  1.7699  0.9252
 7753TIP3    H244751   6.473   5.152   3.644  0.7629 -0.2486 -0.2558
 7754TIP3   OH244752   0.445   6.525   0.335  0.1895 -0.1008  0.9669
 7754TIP3    H144753   0.434   6.543   0.242  0.6499 -0.3188  0.8669
 7754TIP3    H244754   0.384   6.584   0.379  0.3316  0.3554  0.5547
 7755TIP3   OH244755   0.084   6.452   0.235  0.0195  0.3605 -0.7185
 7755TIP3    H144756   0.077   6.358   0.222  2.6017 -0.0724  0.3873
 7755TIP3    H244757   0.157   6.479   0.180 -0.0444  1.5376 -0.2625
 7756TIP3   OH244758   5.125   2.132   2.621 -0.6104 -0.0898  0.1922
 7756TIP3    H144759   5.165   2.207   2.666 -0.5087 -0.3765  0.5910
 7756TIP3    H244760   5.031   2.149   2.627 -0.6965 -0.8828  1.9349
 7757TIP3   OH244761   6.484   4.647  16.033 -0.4684 -0.2365  0.0771
 7757TIP3    H144762   6.390   4.631  16.037 -0.0369 -3.1413  1.0014
 7757TIP3    H244763   6.494   4.716  15.968 -3.1603 -0.5370 -0.7651
 7758TIP3   OH244764   2.713   0.630   3.843  0.2971  0.0186 -0.0765
 7758TIP3    H144765   2.665   0.659   3.766  1.2186 -0.3149 -0.7947
 7758TIP3    H244766   2.649   0.633   3.914 -0.6985 -0.1279 -0.9463
 7759TIP3   OH244767   4.201   3.962  13.020  0.6248 -0.2662  0.0742
 7759TIP3    H144768   4.180   3.978  12.928 -0.5070 -0.0877  0.3543
 7759TIP3    H244769   4.193   4.048  13.062 -0.4743 -0.6378  0.6389
 7760TIP3   OH244770   0.226   0.833  15.028  0.1755  0.3310  0.1183
 7760TIP3    H144771   0.184   0.901  14.975  1.8766 -0.0648 -1.8789
 7760TIP3    H244772   0.254   0.878  15.108 -1.8085  1.1262  0.4162
 7761TIP3   OH244773   1.278   3.125  12.641  0.2259  0.4728  0.5947
 7761TIP3    H144774   1.207   3.183  12.666 -0.9857 -0.1011 -1.3612
 7761TIP3    H244775   1.334   3.177  12.584 -0.4007  0.0250 -0.4658
 7762TIP3   OH244776   3.427   3.875   2.709 -0.4539 -0.1362 -0.1056
 7762TIP3    H144777   3.414   3.800   2.651 -1.4972  0.0465 -0.1298
 7762TIP3    H244778   3.487   3.933   2.662  3.2830 -2.4590  1.3307
 7763TIP3   OH244779   6.081   0.846   4.386 -0.1549 -0.2651 -0.1329
 7763TIP3    H144780   6.148   0.887   4.440 -1.2068  0.9797  0.2724
 7763TIP3    H244781   6.119   0.842   4.298 -0.6429  3.4006 -0.6588
 7764TIP3   OH244782   3.053   3.168   5.449 -0.2875  0.4743 -0.5281
 7764TIP3    H144783   3.093   3.099   5.503 -2.4417 -0.0744  0.4494
 7764TIP3    H244784   3.038   3.126   5.364  2.6780  1.2015 -1.5239
 7765TIP3   OH244785   6.618   3.263  14.378  0.0977 -0.5843  0.5191
 7765TIP3    H144786   6.651   3.346  14.414  0.0760 -0.2262 -0.2737
 7765TIP3    H244787   6.592   3.284  14.289  0.1405 -1.4643  0.2900
 7766TIP3   OH244788   2.955   0.779   4.084 -0.0920  0.0351 -0.2015
 7766TIP3    H144789   3.041   0.821   4.080 -0.6484  1.1429 -0.6907
 7766TIP3    H244790   2.925   0.776   3.994 -0.5219 -0.4863 -0.0508
 7767TIP3   OH244791   4.842   2.419  11.755  0.5553  0.1633 -0.5326
 7767TIP3    H144792   4.808   2.508  11.759  0.9502  0.3118 -0.4310
 7767TIP3    H244793   4.853   2.402  11.661 -0.2038 -0.0474 -0.5923
 7768TIP3   OH244794   2.911   1.000   4.320  0.4813 -0.1640 -0.0969
 7768TIP3    H144795   2.916   1.067   4.389 -1.2853  0.3526 -0.4192
 7768TIP3    H244796   2.987   0.944   4.336  0.7989  0.6512  1.5149
 7769TIP3   OH244797   4.272   0.436   1.494  0.0357 -0.0857 -0.5260
 7769TIP3    H144798   4.286   0.528   1.516 -1.2943  0.0525 -0.1667
 7769TIP3    H244799   4.288   0.389   1.575  0.7282 -0.1840 -0.7129
 7770TIP3   OH244800   3.641   6.184   5.818 -0.5365  0.2329 -0.1054
 7770TIP3    H144801   3.571   6.234   5.775 -0.5385  0.1360 -0.2131
 7770TIP3    H244802   3.596   6.111   5.860 -0.6632  0.8401  0.8650
 7771TIP3   OH244803   5.552   2.826  15.061  0.2263 -0.6808  0.0157
 7771TIP3    H144804   5.612   2.833  14.986 -0.3572 -3.8260 -0.9211
 7771TIP3    H244805   5.465   2.831  15.022 -0.0813 -1.6849  0.5392
 7772TIP3   OH244806   6.078   3.138  12.349 -0.0310 -0.0437  0.2362
 7772TIP3    H144807   6.074   3.218  12.296 -0.3708 -0.5094 -0.4484
 7772TIP3    H244808   6.172   3.117  12.353  0.2081  1.1297  1.5687
 7773TIP3   OH244809   3.898   4.177  13.657 -1.0149  0.4878  0.1301
 7773TIP3    H144810   3.991   4.171  13.637 -1.1006  1.0775 -0.4799
 7773TIP3    H244811   3.880   4.271  13.662 -1.2466  0.3946  1.8983
 7774TIP3   OH244812   0.478   1.362  15.664 -0.0113  0.1330 -0.6326
 7774TIP3    H144813   0.452   1.271  15.647  0.9141  0.1525 -2.3156
 7774TIP3    H244814   0.573   1.362  15.654  0.2082  0.9692  1.0786
 7775TIP3   OH244815   2.922   0.611  14.855  0.3947 -0.7441  0.2176
 7775TIP3    H144816   2.996   0.563  14.892  0.7179 -0.3875  0.0358
 7775TIP3    H244817   2.868   0.543  14.814  1.2958 -0.8690 -0.7980
 7776TIP3   OH244818   6.420   6.138   4.819  0.0754 -0.0797  0.2688
 7776TIP3    H144819   6.423   6.100   4.731 -0.0305  0.3143  0.0956
 7776TIP3    H244820   6.478   6.214   4.815  0.8344 -0.6126  0.8061
 7777TIP3   OH244821   3.771   5.121  10.366 -0.0695  0.4234  0.0511
 7777TIP3    H144822   3.815   5.133  10.451 -0.1958  3.5229 -0.1979
 7777TIP3    H244823   3.842   5.097  10.306  0.5104  0.8956  0.5296
 7778TIP3   OH244824   6.552   4.148   0.313 -0.2352  0.0646  0.0503
 7778TIP3    H144825   6.622   4.087   0.288  0.3158  0.0638  1.5378
 7778TIP3    H244826   6.516   4.111   0.394 -1.2182  0.6733 -0.0948
 7779TIP3   OH244827   1.460   0.722  16.216 -0.3700 -0.5478 -0.2903
 7779TIP3    H144828   1.388   0.771  16.176 -0.7348 -0.6329  0.2575
 7779TIP3    H244829   1.420   0.676  16.289  0.6021  0.8730  1.1944
 7780TIP3   OH244830   5.204   2.035  12.971  0.3051 -0.0723 -0.6510
 7780TIP3    H144831   5.276   2.003  12.916  0.2009 -1.9801  0.2302
 7780TIP3    H244832   5.202   1.974  13.045 -2.0409  0.0889 -0.5191
 7781TIP3   OH244833   3.842   3.579   2.891  0.6200 -0.1093  0.0150
 7781TIP3    H144834   3.880   3.529   2.819 -0.2189 -1.2169  0.3063
 7781TIP3    H244835   3.784   3.642   2.848 -0.5362 -1.3344 -0.2820
 7782TIP3   OH244836   0.264   2.596  14.278  0.1868 -0.3117 -0.2829
 7782TIP3    H144837   0.315   2.635  14.206 -0.1139 -1.4568 -1.1435
 7782TIP3    H244838   0.194   2.659  14.294  1.0174  0.5829 -0.0873
 7783TIP3   OH244839   1.811   2.385   6.181  0.0591  0.6286  0.1775
 7783TIP3    H144840   1.786   2.346   6.266 -0.2921  2.2129  0.8330
 7783TIP3    H244841   1.888   2.437   6.200 -0.8926  2.2175 -0.1138
 7784TIP3   OH244842   6.671   2.173  16.082 -0.3060  0.2716  0.1849
 7784TIP3    H144843   6.651   2.237  16.015  0.0859  0.8731  0.6333
 7784TIP3    H244844   6.635   2.210  16.163 -0.9169 -0.5178  0.2848
 7785TIP3   OH244845   3.555   1.851   4.597  0.4126  0.2840  0.4520
 7785TIP3    H144846   3.587   1.851   4.506 -2.5340 -1.2079 -0.7106
 7785TIP3    H244847   3.562   1.760   4.625  0.2163  0.5241  1.3100
 7786TIP3   OH244848   5.679   5.985  17.036 -0.9054  0.3503  0.7370
 7786TIP3    H144849   5.761   6.023  17.069 -0.4823  0.8715 -0.8087
 7786TIP3    H244850   5.665   5.908  17.090 -0.9821  1.8473  2.9820
 7787TIP3   OH244851   1.697   1.115   5.532 -0.6910  0.5035 -0.3692
 7787TIP3    H144852   1.772   1.056   5.528 -1.4367 -0.6780  1.5724
 7787TIP3    H244853   1.735   1.200   5.554  0.1963  0.2762 -0.9515
 7788TIP3   OH244854   5.909   6.310   5.351 -0.0154 -0.3098 -0.4098
 7788TIP3    H144855   5.975   6.375   5.327 -0.8968  1.2371  1.0793
 7788TIP3    H244856   5.950   6.257   5.419  0.2453 -0.3993 -0.6389
 7789TIP3   OH244857   6.190   4.303   4.610  0.2917 -0.4118 -0.3449
 7789TIP3    H144858   6.121   4.367   4.627  0.6821  0.1295 -0.7665
 7789TIP3    H244859   6.192   4.248   4.688 -1.8799 -1.6205 -1.0569
 7790TIP3   OH244860   6.530   6.725  13.418  0.0102  0.1435 -0.0737
 7790TIP3    H144861   6.527   6.629  13.418  1.1926  0.0853  0.0825
 7790TIP3    H244862   6.451   6.751  13.465  0.6324 -0.8270  1.6211
 7791TIP3   OH244863   1.283   3.108   4.926  0.1947 -0.0012  0.1537
 7791TIP3    H144864   1.294   3.066   5.011 -1.6309 -1.7149 -0.3850
 7791TIP3    H244865   1.327   3.049   4.865 -1.4357 -0.6394 -0.4700
 7792TIP3   OH244866   1.942   4.239  12.738 -0.7859 -0.4429  0.0156
 7792TIP3    H144867   1.946   4.272  12.828  2.1628  0.4834 -0.3547
 7792TIP3    H244868   1.879   4.296  12.695 -1.0824  0.0928  1.1112
 7793TIP3   OH244869   2.008   0.928  13.940 -0.2713  0.1871  0.0182
 7793TIP3    H144870   2.015   0.834  13.959  0.0263  0.6131  2.2470
 7793TIP3    H244871   2.088   0.966  13.975 -1.4103  1.5676  1.2498
 7794TIP3   OH244872   5.830   5.813  12.206  0.0681 -0.0722  0.1241
 7794TIP3    H144873   5.875   5.897  12.196 -0.1903  0.0854  0.2720
 7794TIP3    H244874   5.881   5.766  12.273  0.3999 -0.1641 -0.1927
 7795TIP3   OH244875   6.611   5.853   3.909 -0.3861  0.3673  0.0939
 7795TIP3    H144876   6.633   5.781   3.850 -1.0583 -1.8415  2.3318
 7795TIP3    H244877   6.521   5.878   3.885  0.9163  2.8757 -2.8292
 7796TIP3   OH244878   4.613   4.448   2.020  0.1521 -0.2440  0.1581
 7796TIP3    H144879   4.578   4.398   2.094 -0.2804 -0.8681 -0.4505
 7796TIP3    H244880   4.572   4.408   1.944  2.3106 -1.1428 -0.6317
 7797TIP3   OH244881   5.990   5.398   6.067 -0.1657  0.1631  0.4752
 7797TIP3    H144882   5.926   5.461   6.034  0.1544  0.3332  0.1601
 7797TIP3    H244883   5.952   5.364   6.147 -1.4262 -0.9947 -0.5826
 7798TIP3   OH244884   5.685   6.384  12.546  0.9659  0.0461  0.0373
 7798TIP3    H144885   5.596   6.418  12.542  0.9022 -0.0198  0.8980
 7798TIP3    H244886   5.687   6.327  12.622  1.8638  0.3816  0.2840
 7799TIP3   OH244887   2.767   0.974  14.603 -0.4563 -0.5352 -0.5736
 7799TIP3    H144888   2.784   1.004  14.693 -0.7795  1.4197 -1.1166
 7799TIP3    H244889   2.852   0.980  14.559  0.1289 -3.2503 -0.0032
 7800TIP3   OH244890   3.549   5.392   2.571 -0.1107 -0.0857  0.2281
 7800TIP3    H144891   3.498   5.373   2.650 -0.2548  0.1066  0.1805
 7800TIP3    H244892   3.573   5.306   2.537  0.3446 -0.1648  0.7372
 7801TIP3   OH244893   5.056   0.773  14.228 -0.6198  0.4607  0.6244
 7801TIP3    H144894   4.966   0.740  14.234 -0.6842  0.8492  2.4649
 7801TIP3    H244895   5.047   0.864  14.200 -0.9838  1.0574  2.5071
 7802TIP3   OH244896   2.398   6.222  11.594  0.6835 -0.3519 -0.5828
 7802TIP3    H144897   2.468   6.164  11.564  0.5797 -1.1108  0.5726
 7802TIP3    H244898   2.442   6.284  11.654  0.1718 -1.8224  1.4149
 7803TIP3   OH244899   3.327   3.454   4.707 -0.0377  0.2911 -0.2953
 7803TIP3    H144900   3.316   3.379   4.648  1.7786 -0.0645 -0.2432
 7803TIP3    H244901   3.248   3.454   4.762 -1.5781  0.3791 -2.3998
 7804TIP3   OH244902   1.815   0.732   5.223  0.2565 -0.7897  0.1451
 7804TIP3    H144903   1.852   0.649   5.251  2.4896 -0.5370 -1.7666
 7804TIP3    H244904   1.883   0.772   5.169 -1.2930  1.6446 -0.1720
 7805TIP3   OH244905   4.187   0.073   0.613  0.2218 -0.2563 -0.8095
 7805TIP3    H144906   4.112   0.131   0.601 -0.6997 -1.7723 -2.9045
 7805TIP3    H244907   4.183   0.049   0.706 -1.3482  0.4039 -0.6654
 7806TIP3   OH244908   6.760   0.250   5.912 -0.7678 -0.3960 -0.4119
 7806TIP3    H144909   6.829   0.211   5.966  0.5345  2.2923  0.0030
 7806TIP3    H244910   6.679   0.228   5.957  0.0125 -1.2756  0.6245
 7807TIP3   OH244911   2.271   5.981   2.618 -0.0220  0.5062  0.0895
 7807TIP3    H144912   2.206   6.037   2.661 -1.7768  0.3510 -2.1626
 7807TIP3    H244913   2.355   6.018   2.644 -0.9509  0.6627  3.2012
 7808TIP3   OH244914   3.877   6.372  15.538 -0.5212  0.2377 -1.0634
 7808TIP3    H144915   3.840   6.285  15.521  1.1166 -2.1022  4.7169
 7808TIP3    H244916   3.969   6.356  15.556 -0.2584  3.0389  0.7876
 7809TIP3   OH244917   1.714   2.857   1.882  0.2459  0.3461 -0.1401
 7809TIP3    H144918   1.768   2.792   1.838  0.3844 -0.7685  1.6063
 7809TIP3    H244919   1.759   2.875   1.964 -2.4371 -1.3622  1.8558
 7810TIP3   OH244920   5.610   6.266  11.283 -0.3160  0.1925  0.3257
 7810TIP3    H144921   5.530   6.318  11.275 -0.0919  0.1846 -4.2505
 7810TIP3    H244922   5.580   6.178  11.305 -1.3143  0.6231  0.7609
 7811TIP3   OH244923   2.198   0.350  12.852 -0.4453 -0.1369  0.7749
 7811TIP3    H144924   2.113   0.376  12.817  1.3459  2.5089 -2.1304
 7811TIP3    H244925   2.245   0.433  12.866  2.3176 -1.4964  0.3849
 7812TIP3   OH244926   0.203   4.768   2.091  0.2492  0.8747  0.4213
 7812TIP3    H144927   0.211   4.696   2.028  0.2058  2.3053 -1.3052
 7812TIP3    H244928   0.277   4.757   2.150 -0.0183 -0.8316  0.4874
 7813TIP3   OH244929   5.733   5.636  13.664  0.1183 -0.1644 -0.0883
 7813TIP3    H144930   5.806   5.670  13.715 -0.7534  0.6643  0.6501
 7813TIP3    H244931   5.711   5.553  13.707 -0.6339  0.5449  0.9593
 7814TIP3   OH244932   2.064   6.723   4.555 -0.1032 -0.5533 -0.0634
 7814TIP3    H144933   2.013   6.648   4.586 -0.8637  0.3092  0.8400
 7814TIP3    H244934   2.070   6.781   4.631  0.3270  0.3781 -0.7844
 7815TIP3   OH244935   2.948   5.849  16.403  0.0322 -0.0397  0.3112
 7815TIP3    H144936   2.945   5.937  16.440  0.7554  0.0229  0.2468
 7815TIP3    H244937   2.951   5.791  16.479  0.2853  0.0299  0.3566
 7816TIP3   OH244938   0.752   1.010  11.641 -0.5093 -1.1603 -0.1156
 7816TIP3    H144939   0.687   0.951  11.679 -0.3007 -1.2128  0.1595
 7816TIP3    H244940   0.773   0.970  11.557 -0.5771 -1.3281 -0.0530
 7817TIP3   OH244941   4.431   4.844  15.229 -0.4982 -0.3906 -0.0208
 7817TIP3    H144942   4.385   4.760  15.230 -0.0293 -0.6657 -0.8534
 7817TIP3    H244943   4.479   4.844  15.146 -0.1106  0.4927  0.1966
 7818TIP3   OH244944   1.689   1.978   2.184  0.5215 -0.1809 -0.1658
 7818TIP3    H144945   1.759   2.041   2.203 -0.4765  1.0225 -0.3985
 7818TIP3    H244946   1.669   1.939   2.269  0.8078  0.1719  0.0678
 7819TIP3   OH244947   1.765   0.425   0.816  0.4759  1.0734 -0.4027
 7819TIP3    H144948   1.776   0.458   0.727  1.3844 -0.6605 -0.9941
 7819TIP3    H244949   1.840   0.462   0.864 -0.8058  3.2032  0.0884
 7820TIP3   OH244950   0.081   1.381   1.218 -0.0223  0.0045  0.3269
 7820TIP3    H144951   0.160   1.430   1.196  0.8723 -2.1554 -1.6210
 7820TIP3    H244952   0.097   1.348   1.307  0.6680  0.6707  0.4621
 7821TIP3   OH244953   3.478   0.639  11.533  0.7422 -0.4160 -0.0788
 7821TIP3    H144954   3.492   0.699  11.460 -2.2220 -0.5327 -0.8419
 7821TIP3    H244955   3.475   0.696  11.610 -0.9320  0.3482 -0.6629
 7822TIP3   OH244956   4.326   3.779   1.538 -0.0013 -0.0224  0.1001
 7822TIP3    H144957   4.403   3.763   1.593  0.6947  0.4161 -0.7402
 7822TIP3    H244958   4.299   3.692   1.509 -0.2223 -0.2370  0.9133
 7823TIP3   OH244959   6.078   0.564   5.606  0.0573 -0.2174  0.1465
 7823TIP3    H144960   6.100   0.544   5.696 -1.7892 -0.6818  0.5247
 7823TIP3    H244961   5.982   0.561   5.602  0.0354  0.8468 -1.5766
 7824TIP3   OH244962   4.070   2.602  13.910  0.1349  0.0459 -0.1845
 7824TIP3    H144963   4.003   2.580  13.975  1.1178 -1.4441  0.3851
 7824TIP3    H244964   4.142   2.542  13.929  2.8096  3.2978  0.9703
 7825TIP3   OH244965   6.059   0.666   0.243  0.3328  0.0682 -0.0606
 7825TIP3    H144966   6.049   0.705   0.156 -1.4843 -2.7715 -1.2642
 7825TIP3    H244967   5.973   0.677   0.284  1.2355  1.6072  1.5823
 7826TIP3   OH244968   3.111   4.216  15.693  0.4121 -0.2780  0.1731
 7826TIP3    H144969   3.025   4.245  15.663  0.4755 -0.1233  0.1406
 7826TIP3    H244970   3.099   4.200  15.787  0.0308 -1.4467 -0.0538
 7827TIP3   OH244971   1.691   4.089   2.450 -0.1252  1.1176  0.9574
 7827TIP3    H144972   1.708   4.060   2.540 -0.3061  2.1824  1.3445
 7827TIP3    H244973   1.778   4.099   2.412 -0.0499 -0.4268  0.6236
 7828TIP3   OH244974   1.686   5.178   0.641 -0.3294 -0.6488 -0.2852
 7828TIP3    H144975   1.644   5.097   0.670  0.9349 -0.8845  1.0331
 7828TIP3    H244976   1.701   5.228   0.722  0.4519  0.1247 -0.8848
 7829TIP3   OH244977   0.070   4.803   0.291  0.1341  0.4952 -0.2031
 7829TIP3    H144978   0.043   4.805   0.383  0.8893  1.1569  0.0194
 7829TIP3    H244979   0.095   4.712   0.276  0.8284  0.5517  0.5073
 7830TIP3   OH244980   0.235   5.236   5.273  0.1198  0.3382 -0.2288
 7830TIP3    H144981   0.328   5.232   5.250 -0.1763  0.5095 -1.5731
 7830TIP3    H244982   0.233   5.267   5.364  1.3626  0.7968 -0.3495
 7831TIP3   OH244983   5.038   1.532  14.137 -0.6716  0.1552 -0.2486
 7831TIP3    H144984   4.959   1.515  14.188  0.2359 -0.0693  1.1269
 7831TIP3    H244985   5.109   1.536  14.202  0.2754  1.6152 -1.3109
 7832TIP3   OH244986   1.324   4.223  17.217  0.4483  0.0243  0.0625
 7832TIP3    H144987   1.234   4.223  17.185  0.1159 -2.8793  0.6585
 7832TIP3    H244988   1.337   4.310  17.253 -0.4469  2.1499 -4.1923
 7833TIP3   OH244989   5.826   2.098   4.866  0.6630 -0.2899 -0.1218
 7833TIP3    H144990   5.755   2.134   4.813  0.8185  1.6834  0.9195
 7833TIP3    H244991   5.841   2.163   4.934 -0.7301 -3.3952  3.5542
 7834TIP3   OH244992   4.416   0.743   1.199  0.1877 -0.0447  0.2069
 7834TIP3    H144993   4.445   0.759   1.289 -1.7835  1.4989  0.6423
 7834TIP3    H244994   4.467   0.803   1.146 -0.3659  0.8421  0.6442
 7835TIP3   OH244995   4.354   2.104   5.141  0.1859  0.2217  0.2149
 7835TIP3    H144996   4.418   2.032   5.143 -1.2376 -1.1937 -1.5318
 7835TIP3    H244997   4.324   2.107   5.050 -0.7761  2.1953  0.5372
 7836TIP3   OH244998   3.107   4.289   0.895  0.0888  0.1993  0.1240
 7836TIP3    H144999   3.052   4.355   0.853 -1.3434 -1.0085  0.0248
 7836TIP3    H245000   3.089   4.298   0.989  0.1657  0.1760  0.1416
 7837TIP3   OH245001   0.842   4.451  12.677  0.1423  0.5063 -0.3680
 7837TIP3    H145002   0.821   4.361  12.701 -0.5758  0.7428 -0.0772
 7837TIP3    H245003   0.794   4.504  12.740  0.3198  1.0993 -0.7264
 7838TIP3   OH245004   2.343   1.423   0.609 -0.0929 -0.2049 -0.6822
 7838TIP3    H145005   2.412   1.488   0.625 -0.6972  0.7028 -1.6841
 7838TIP3    H245006   2.382   1.362   0.547  0.6747 -1.1728  0.6818
 7839TIP3   OH245007   3.328   3.444  16.118  0.2656 -0.1551 -0.0846
 7839TIP3    H145008   3.399   3.470  16.177 -1.7735  1.7973  1.6889
 7839TIP3    H245009   3.341   3.497  16.039  0.3296  0.8318  0.5744
 7840TIP3   OH245010   4.642   0.681   0.921 -0.1786 -0.1439 -0.7702
 7840TIP3    H145011   4.723   0.640   0.952  0.6734  0.5398 -2.0028
 7840TIP3    H245012   4.633   0.760   0.975 -0.1477 -0.3238 -0.4963
 7841TIP3   OH245013   5.424   0.517   6.574  0.3171  0.6406 -0.1135
 7841TIP3    H145014   5.450   0.435   6.615  0.0531  1.1591  1.1641
 7841TIP3    H245015   5.375   0.491   6.496 -0.9154 -0.4761  0.9615
 7842TIP3   OH245016   0.843   2.345  16.131 -0.2474 -0.0102  0.0926
 7842TIP3    H145017   0.754   2.310  16.122  0.7347 -2.4461 -1.0369
 7842TIP3    H245018   0.840   2.395  16.213 -2.8965  0.9206 -0.4633
 7843TIP3   OH245019   4.549   6.775   5.445 -0.5732 -0.4662  0.3049
 7843TIP3    H145020   4.582   6.776   5.535 -2.0907  1.0782  0.8801
 7843TIP3    H245021   4.526   6.683   5.429 -0.2575 -0.7635  1.4654
 7844TIP3   OH245022   0.246   2.772   0.010  0.4806 -0.2402 -0.0841
 7844TIP3    H145023   0.331   2.815   0.018  1.1570 -1.5636  0.0506
 7844TIP3    H245024   0.265   2.688  -0.032 -1.1899  0.7854 -3.1296
 7845TIP3   OH245025   6.038   4.890   0.246  0.1619 -0.3385 -0.4339
 7845TIP3    H145026   6.022   4.982   0.221 -0.8515 -0.5855 -0.7409
 7845TIP3    H245027   5.977   4.874   0.318  1.0676 -0.4815  0.3173
 7846TIP3   OH245028   0.611   3.270  16.831 -0.8453  0.2436  0.5116
 7846TIP3    H145029   0.646   3.334  16.770 -2.0827  0.5197  0.0550
 7846TIP3    H245030   0.527   3.244  16.793  0.0812 -2.4903  0.0979
 7847TIP3   OH245031   5.571   1.323   4.704 -0.1116  0.2325 -0.2335
 7847TIP3    H145032   5.526   1.378   4.768  1.1762 -0.5988  1.4612
 7847TIP3    H245033   5.646   1.376   4.677  0.0317  0.0986 -0.1002
 7848TIP3   OH245034   5.635   1.493  16.544 -0.0665  0.4557  0.2890
 7848TIP3    H145035   5.673   1.441  16.474  0.5780  0.0922  0.8958
 7848TIP3    H245036   5.699   1.563  16.560  0.0976  0.1670  0.9327
 7849TIP3   OH245037   4.081   4.125   0.668  0.0569 -0.1931 -0.1787
 7849TIP3    H145038   4.044   4.199   0.619 -0.3119  1.4974  2.4654
 7849TIP3    H245039   4.018   4.054   0.655 -1.4710  1.0660  0.0697
 7850TIP3   OH245040   1.054   4.678   6.520  0.4140 -0.5308  0.0402
 7850TIP3    H145041   0.959   4.675   6.511  0.3138  0.2190  0.7954
 7850TIP3    H245042   1.076   4.771   6.519  1.1323 -0.6906 -0.0041
 7851TIP3   OH245043   3.309   0.121   3.880  0.3437 -0.0646  0.2996
 7851TIP3    H145044   3.353   0.193   3.926  0.9235  0.0860 -0.4781
 7851TIP3    H245045   3.361   0.107   3.801  1.8658 -3.1543  1.6907
 7852TIP3   OH245046   2.974   0.204   2.670  0.4576 -0.2220  0.6327
 7852TIP3    H145047   2.934   0.133   2.720  0.4267 -1.3659 -0.9590
 7852TIP3    H245048   2.976   0.278   2.732 -0.1238 -1.3828  2.1127
 7853TIP3   OH245049   6.729   2.095   4.975  0.1024 -1.0918  0.2529
 7853TIP3    H145050   6.688   2.076   4.891  0.3397  2.3225 -0.8110
 7853TIP3    H245051   6.669   2.155   5.019  1.0050 -1.0712  1.5343
 7854TIP3   OH245052   2.271   0.026  13.221  0.0228  0.2388 -0.1399
 7854TIP3    H145053   2.276   0.109  13.175  1.0357 -0.6541 -1.7383
 7854TIP3    H245054   2.292  -0.040  13.155  0.5408 -1.1934  1.3701
 7855TIP3   OH245055   5.459   3.214  15.010 -0.0041  0.1035  0.0344
 7855TIP3    H145056   5.375   3.258  15.021  0.0714  0.3862 -0.5398
 7855TIP3    H245057   5.503   3.262  14.940  0.3591 -0.4573 -0.1262
 7856TIP3   OH245058   3.216   4.995   5.932 -0.0051  0.0474  0.1677
 7856TIP3    H145059   3.202   4.991   5.837 -0.1272 -2.5412  0.2117
 7856TIP3    H245060   3.200   5.086   5.955 -2.4742  0.2669 -1.9413
 7857TIP3   OH245061   5.145   2.806   1.526 -0.1774  0.3855 -0.2021
 7857TIP3    H145062   5.153   2.744   1.599 -2.0800 -0.4012 -0.5861
 7857TIP3    H245063   5.099   2.757   1.458 -0.0972  1.6817 -1.2346
 7858TIP3   OH245064   5.178   4.729  15.409  0.2357 -1.1318 -0.6589
 7858TIP3    H145065   5.091   4.700  15.437 -0.2950  0.0989 -0.9600
 7858TIP3    H245066   5.217   4.768  15.487 -0.5097  0.6109 -1.1087
 7859TIP3   OH245067   2.647   3.134  15.914 -0.3352  0.1184  0.0373
 7859TIP3    H145068   2.679   3.147  15.825 -0.7231  0.4244 -0.0590
 7859TIP3    H245069   2.724   3.103  15.963 -0.1935 -0.3487 -0.4709
 7860TIP3   OH245070   5.101   1.834  14.490  0.4377  0.5364 -0.3381
 7860TIP3    H145071   5.138   1.772  14.553  1.1458  1.0913 -0.1871
 7860TIP3    H245072   5.096   1.917  14.538 -0.1654  0.6851 -0.6451
 7861TIP3   OH245073   2.171   0.456   3.416  0.3540 -0.3288 -0.3121
 7861TIP3    H145074   2.143   0.547   3.416  0.5511 -0.2509 -1.6382
 7861TIP3    H245075   2.089   0.406   3.420  0.2920 -0.1679  3.4392
 7862TIP3   OH245076   3.657   2.177  11.411 -0.4684  0.4175 -0.0952
 7862TIP3    H145077   3.657   2.147  11.502 -1.6384 -0.4861 -0.3637
 7862TIP3    H245078   3.670   2.272  11.417  2.3437  0.0708  0.8334
 7863TIP3   OH245079   4.189   1.732  15.482  0.3361  0.0822  0.2248
 7863TIP3    H145080   4.194   1.784  15.402 -0.6023  0.8684  0.6624
 7863TIP3    H245081   4.102   1.750  15.517  0.0436 -1.6704  0.4822
 7864TIP3   OH245082   1.249   1.149   4.270 -0.5294 -0.1177  0.3502
 7864TIP3    H145083   1.310   1.076   4.276  0.1160  0.5089  2.3317
 7864TIP3    H245084   1.277   1.199   4.194  0.4165 -0.7205  0.2938
 7865TIP3   OH245085   1.522   4.086   0.181 -0.2722  0.8594 -0.2610
 7865TIP3    H145086   1.498   4.144   0.108 -0.9115 -0.7091 -1.3387
 7865TIP3    H245087   1.559   4.009   0.140 -0.0314  0.2049  1.1271
 7866TIP3   OH245088   6.216   2.776   4.469 -0.5249  0.1428  0.3213
 7866TIP3    H145089   6.226   2.682   4.457 -4.0069 -0.0372 -3.3473
 7866TIP3    H245090   6.155   2.784   4.543 -0.9332 -0.6069  0.0789
 7867TIP3   OH245091   2.438   4.429   4.636 -0.2849 -0.4242  0.4029
 7867TIP3    H145092   2.508   4.458   4.577 -0.9684  1.6488  0.5294
 7867TIP3    H245093   2.359   4.473   4.602 -1.4932 -2.4315  0.4592
 7868TIP3   OH245094   0.235   5.190   3.658 -0.0168 -0.7169  1.1043
 7868TIP3    H145095   0.247   5.268   3.713 -1.5319  0.2348  0.1635
 7868TIP3    H245096   0.322   5.149   3.656  1.2719  1.8446  0.2920
 7869TIP3   OH245097   4.390   5.699   2.848  0.0230 -0.1590 -0.2919
 7869TIP3    H145098   4.314   5.754   2.828  0.5571 -0.0441 -2.2576
 7869TIP3    H245099   4.419   5.729   2.934 -0.6926  1.4924 -0.5858
 7870TIP3   OH245100   6.733   5.834   4.195  0.1328  0.3147  0.3988
 7870TIP3    H145101   6.692   5.823   4.109  0.7023  0.9508  0.0423
 7870TIP3    H245102   6.785   5.755   4.207 -1.0676 -0.4366  0.7931
 7871TIP3   OH245103   5.657   0.993   3.506  0.2579 -0.0040  0.5375
 7871TIP3    H145104   5.645   1.033   3.592 -1.2217 -0.3146  0.4937
 7871TIP3    H245105   5.625   0.903   3.517 -2.1514  0.5949 -0.8924
 7872TIP3   OH245106   5.999   3.303  13.232 -0.5859  0.8017  0.3463
 7872TIP3    H145107   6.000   3.207  13.234 -1.7992  0.7342 -1.3375
 7872TIP3    H245108   5.911   3.327  13.261 -0.3350  1.4282  0.6143
 7873TIP3   OH245109   4.444   3.264  15.811  1.2926  1.1005 -0.6104
 7873TIP3    H145110   4.489   3.186  15.844 -1.3305 -0.1379  0.3155
 7873TIP3    H245111   4.454   3.259  15.716  3.5502  1.2431 -0.4405
 7874TIP3   OH245112   4.104   1.732  14.964 -0.1053  0.2332  0.2553
 7874TIP3    H145113   4.128   1.756  15.053 -0.1285  3.2361 -0.4234
 7874TIP3    H245114   4.176   1.676  14.934  1.0909  1.0779  1.4238
 7875TIP3   OH245115   2.501   0.274  14.194  0.1576 -0.3898  0.0423
 7875TIP3    H145116   2.425   0.312  14.239  1.1667  1.1358  0.5014
 7875TIP3    H245117   2.499   0.312  14.107  0.1991 -0.6209 -0.0602
 7876TIP3   OH245118   1.247   1.322   1.280 -0.0035 -0.1741 -0.2872
 7876TIP3    H145119   1.329   1.343   1.325  0.7583 -0.5072 -1.4811
 7876TIP3    H245120   1.274   1.283   1.197 -1.3659 -1.6217 -0.1096
 7877TIP3   OH245121   2.985   5.394   1.413  0.3731 -0.4316 -0.0042
 7877TIP3    H145122   2.939   5.416   1.332  1.9268  1.8551 -0.3738
 7877TIP3    H245123   2.970   5.470   1.470  0.7052 -1.2615  1.2298
 7878TIP3   OH245124   1.533   1.161   5.787  0.0936  0.2320  0.3375
 7878TIP3    H145125   1.565   1.148   5.698  0.3216  2.1978  0.0875
 7878TIP3    H245126   1.573   1.090   5.837  1.2031 -0.0116 -0.8400
 7879TIP3   OH245127   6.120   6.152  15.340 -0.5408 -0.4054  0.0040
 7879TIP3    H145128   6.113   6.112  15.427 -2.0615 -2.2005 -0.8927
 7879TIP3    H245129   6.168   6.088  15.288 -0.5591  0.2005 -0.7711
 7880TIP3   OH245130   5.800   0.449  12.628 -0.1800 -0.5039 -0.0588
 7880TIP3    H145131   5.795   0.372  12.684 -0.3507 -0.2238  0.3185
 7880TIP3    H245132   5.720   0.498  12.647  0.7595  0.6780  1.0752
 7881TIP3   OH245133   0.168   1.549  11.565  0.0419  0.1708 -0.7918
 7881TIP3    H145134   0.200   1.575  11.479  1.6608 -2.3939 -1.0819
 7881TIP3    H245135   0.097   1.488  11.547 -0.3856  0.5064 -0.2704
 7882TIP3   OH245136   2.365   5.031  14.483  0.2474 -0.4850  0.6277
 7882TIP3    H145137   2.334   5.042  14.393  1.2636  0.2786  0.3505
 7882TIP3    H245138   2.298   5.073  14.537 -0.2861 -0.8045  0.2283
 7883TIP3   OH245139   0.668   3.365   4.910  0.0592  0.0083 -0.4427
 7883TIP3    H145140   0.689   3.357   5.003  0.3429 -1.0772 -0.5862
 7883TIP3    H245141   0.590   3.311   4.898  1.3159 -1.7478 -1.2273
 7884TIP3   OH245142   6.108   1.016  12.143 -0.0112 -0.1636  0.2171
 7884TIP3    H145143   6.119   1.096  12.091  0.2631  0.2351  0.8865
 7884TIP3    H245144   6.038   0.968  12.098 -0.9551  0.9628  0.4395
 7885TIP3   OH245145   4.968   4.443   4.369  0.5618 -0.2283  0.2257
 7885TIP3    H145146   4.952   4.538   4.373 -0.6216 -0.4539  1.5698
 7885TIP3    H245147   4.897   4.409   4.315 -0.3784 -0.5969  1.6540
 7886TIP3   OH245148   3.623   2.454  10.532  0.5058 -0.0145  0.3387
 7886TIP3    H145149   3.580   2.536  10.508 -1.0708 -0.3988  1.6870
 7886TIP3    H245150   3.710   2.480  10.561  0.3235  1.0870 -0.0743
 7887TIP3   OH245151   5.022   1.160   2.846 -0.6556  0.0901 -0.0370
 7887TIP3    H145152   4.934   1.152   2.884 -1.2553  1.6475 -1.0057
 7887TIP3    H245153   5.075   1.098   2.896 -1.4483  1.7827  3.1695
 7888TIP3   OH245154   4.664   0.495   0.128  0.3219  0.3777  0.2052
 7888TIP3    H145155   4.646   0.531   0.042 -3.0008  0.4498  0.8138
 7888TIP3    H245156   4.715   0.563   0.172 -0.9960  1.9239 -0.5680
 7889TIP3   OH245157   3.122   3.392  11.029  0.3135 -0.1577 -0.7889
 7889TIP3    H145158   3.163   3.437  11.103 -0.9501 -0.1735 -0.0543
 7889TIP3    H245159   3.112   3.461  10.963  1.0861 -0.0504 -0.8021
 7890TIP3   OH245160   1.741   6.298   0.541  0.1885 -0.1401 -0.3675
 7890TIP3    H145161   1.691   6.326   0.617  0.4050 -1.3851  0.2556
 7890TIP3    H245162   1.676   6.263   0.480  0.2257 -1.3804  0.2728
 7891TIP3   OH245163   2.307   2.830   3.414 -0.6111  0.1369  0.3822
 7891TIP3    H145164   2.392   2.872   3.402 -1.0431  0.8915 -0.1205
 7891TIP3    H245165   2.313   2.786   3.498  0.4119 -0.1504  0.1702
 7892TIP3   OH245166   0.212   5.667   3.949  0.7354 -0.5100  0.0262
 7892TIP3    H145167   0.138   5.619   3.911  0.1885 -0.4710  0.9929
 7892TIP3    H245168   0.230   5.621   4.031  0.3406  0.7772  0.8666
 7893TIP3   OH245169   3.189   2.380   2.599  0.4050 -0.4997  0.6512
 7893TIP3    H145170   3.219   2.294   2.569  2.2055 -0.0435  1.0197
 7893TIP3    H245171   3.235   2.394   2.682  0.7464  1.1379  0.2253
 7894TIP3   OH245172   3.050   4.133  12.132  0.2111  0.5163  0.3288
 7894TIP3    H145173   3.080   4.192  12.202 -0.3140  0.9570  0.1922
 7894TIP3    H245174   3.083   4.172  12.052  1.4081 -0.3673  0.3686
 7895TIP3   OH245175   2.514   0.249   1.493 -0.4430  0.1409 -0.6074
 7895TIP3    H145176   2.517   0.315   1.563  0.4060  1.2131 -1.6024
 7895TIP3    H245177   2.600   0.208   1.495 -0.8481 -0.7140 -0.2253
 7896TIP3   OH245178   3.951   1.726  13.915  0.1303  0.8252 -0.8233
 7896TIP3    H145179   3.957   1.821  13.904 -2.1229  0.9551 -1.3645
 7896TIP3    H245180   3.972   1.691  13.828  2.8683  0.6501 -0.1792
 7897TIP3   OH245181   4.073   1.053  15.172 -0.0977  0.0942 -0.1683
 7897TIP3    H145182   4.122   0.970  15.170  1.4668  0.9867 -0.9858
 7897TIP3    H245183   3.989   1.030  15.213  0.8340 -1.5881  0.9295
 7898TIP3   OH245184   0.838   3.262   2.507 -0.1940  0.4915 -0.5405
 7898TIP3    H145185   0.818   3.343   2.552 -0.7956 -1.3022  2.7523
 7898TIP3    H245186   0.923   3.235   2.541 -0.3980 -0.6645 -0.8904
 7899TIP3   OH245187   2.517   1.431   4.200 -0.1449 -0.1586 -0.3996
 7899TIP3    H145188   2.596   1.484   4.206 -1.1672  1.7495 -2.2659
 7899TIP3    H245189   2.549   1.341   4.192  1.6796  0.2005  1.8673
 7900TIP3   OH245190   5.405   6.569  16.630 -0.1410  0.2013 -0.3445
 7900TIP3    H145191   5.338   6.530  16.574 -0.5795  0.6359 -0.1276
 7900TIP3    H245192   5.394   6.526  16.715  0.2674 -0.1761 -0.4776
 7901TIP3   OH245193   0.538   3.452   6.345 -0.6284 -0.5580 -0.0575
 7901TIP3    H145194   0.617   3.506   6.350 -0.3657 -0.7496 -1.7720
 7901TIP3    H245195   0.496   3.465   6.430  0.5299  0.6281  0.3801
 7902TIP3   OH245196   6.646   2.056  12.626  0.6157  0.6530 -0.0560
 7902TIP3    H145197   6.569   2.043  12.571 -0.3558  3.5879  0.4242
 7902TIP3    H245198   6.648   1.979  12.683 -0.5365 -0.6379 -1.6636
 7903TIP3   OH245199   5.131   2.746  16.874  0.2687 -0.1962 -0.0392
 7903TIP3    H145200   5.155   2.664  16.832  1.8711 -0.9356  2.1521
 7903TIP3    H245201   5.092   2.720  16.957  0.7987  1.2256  0.6891
 7904TIP3   OH245202   1.526   5.639  11.585 -0.2562  0.4255 -0.3423
 7904TIP3    H145203   1.518   5.599  11.498  0.2024 -0.7454  0.1301
 7904TIP3    H245204   1.513   5.566  11.646 -0.6707  1.2464  0.5836
 7905TIP3   OH245205   1.322   2.733   5.426 -0.1422 -0.8838  0.2042
 7905TIP3    H145206   1.267   2.794   5.376  0.8922  0.3100  0.4616
 7905TIP3    H245207   1.261   2.689   5.485 -0.8649  0.3141  0.3972
 7906TIP3   OH245208   2.572   5.198   0.747  0.0986  0.0196 -0.0847
 7906TIP3    H145209   2.591   5.271   0.805  1.3191 -0.3147 -0.0305
 7906TIP3    H245210   2.557   5.124   0.806  0.1133 -0.0457 -0.1632
 7907TIP3   OH245211   4.342   3.499   3.126 -0.0463 -0.3064 -0.3885
 7907TIP3    H145212   4.402   3.425   3.136  0.1400 -0.4233 -2.1211
 7907TIP3    H245213   4.275   3.467   3.065 -0.0010  0.9309 -1.1138
 7908TIP3   OH245214   4.058   1.622   4.365 -0.0392  0.0652 -0.6243
 7908TIP3    H145215   4.081   1.544   4.414 -2.5236 -0.7588 -0.6464
 7908TIP3    H245216   4.128   1.632   4.300 -0.6094 -3.3383 -1.9546
 7909TIP3   OH245217   1.761   0.480  15.844 -0.3668  0.7154 -0.0253
 7909TIP3    H145218   1.667   0.490  15.859 -0.5264 -1.3554  0.6527
 7909TIP3    H245219   1.802   0.500  15.928 -0.0630  2.6411 -0.5810
 7910TIP3   OH245220   1.065   6.489   5.755 -0.0870 -0.2430  0.1685
 7910TIP3    H145221   1.021   6.451   5.831 -0.0712  2.4009  1.6209
 7910TIP3    H245222   1.155   6.504   5.785  0.1239  0.1291 -0.6358
 7911TIP3   OH245223   0.324   3.115   0.339 -0.1357  1.2027 -0.3448
 7911TIP3    H145224   0.253   3.089   0.398  0.0866 -0.4094 -0.7385
 7911TIP3    H245225   0.373   3.180   0.388 -1.1757  1.4393  0.4178
 7912TIP3   OH245226   1.226   2.400  16.248  0.2946  0.4553 -0.4592
 7912TIP3    H145227   1.166   2.463  16.209  1.2958  1.3997 -0.5410
 7912TIP3    H245228   1.257   2.347  16.175 -0.9317 -0.4973 -0.3197
 7913TIP3   OH245229   3.272   5.333   1.264  0.4480  0.0274 -0.0574
 7913TIP3    H145230   3.190   5.293   1.292 -0.0094  0.7282 -0.3526
 7913TIP3    H245231   3.245   5.404   1.205  1.1053  2.0246  1.9304
 7914TIP3   OH245232   5.090   0.418   0.392  0.4301  0.8186 -0.3543
 7914TIP3    H145233   5.025   0.432   0.323  0.0421  0.9928  0.0474
 7914TIP3    H245234   5.122   0.506   0.413 -0.8002  0.9802  0.9910
 7915TIP3   OH245235   4.781   4.808   5.182  0.3170 -0.4618 -0.3052
 7915TIP3    H145236   4.688   4.820   5.204 -0.0591 -1.2903 -1.3729
 7915TIP3    H245237   4.817   4.897   5.181 -0.6398 -0.0648 -0.5682
 7916TIP3   OH245238   5.932   6.595  15.209  0.0622 -0.4312  0.1773
 7916TIP3    H145239   5.960   6.514  15.251  2.2659  0.6572  0.9694
 7916TIP3    H245240   5.998   6.610  15.140  0.4437  1.2989  0.8805
 7917TIP3   OH245241   3.005   6.140  12.455  0.1199 -0.0172 -0.2970
 7917TIP3    H145242   2.984   6.164  12.546  0.4861 -0.1793 -0.1675
 7917TIP3    H245243   3.039   6.221  12.417  3.3697 -0.7426  0.7361
 7918TIP3   OH245244   2.116   5.072  10.518 -0.1909 -0.2328 -0.3028
 7918TIP3    H145245   2.030   5.030  10.530 -0.9120  1.2945  0.1524
 7918TIP3    H245246   2.156   5.069  10.605  0.4187 -1.3290 -0.6092
 7919TIP3   OH245247   1.585   3.883  16.007 -0.1154  0.2170  0.2157
 7919TIP3    H145248   1.671   3.840  16.013 -1.8343 -3.5524  0.8181
 7919TIP3    H245249   1.579   3.913  15.916  2.0235  1.1640  0.3291
 7920TIP3   OH245250   1.434   3.444   5.718 -0.1277 -0.3616  0.0597
 7920TIP3    H145251   1.485   3.509   5.671 -0.9215 -0.4513 -0.9689
 7920TIP3    H245252   1.488   3.365   5.716 -0.1366 -0.3600 -0.7105
 7921TIP3   OH245253   3.081   1.294   5.356 -0.4486 -0.3151 -0.3334
 7921TIP3    H145254   3.101   1.358   5.424 -1.6409 -0.2944  0.0321
 7921TIP3    H245255   3.147   1.308   5.288  1.2094 -0.8096  1.1116
 7922TIP3   OH245256   2.832   4.634  13.517  0.5005 -0.6650  0.7068
 7922TIP3    H145257   2.869   4.710  13.563 -2.2346  1.1883  0.1307
 7922TIP3    H245258   2.803   4.575  13.587 -1.5656  1.0735  1.4293
 7923TIP3   OH245259   0.221   1.745  11.773 -0.3225  0.4382  0.3975
 7923TIP3    H145260   0.196   1.653  11.765  0.1840  0.3051  0.3199
 7923TIP3    H245261   0.196   1.769  11.862  0.8328 -0.1789  0.9061
 7924TIP3   OH245262   0.540   2.121   2.717 -0.1665 -0.6157 -0.3297
 7924TIP3    H145263   0.518   2.187   2.652  0.8052 -0.8833 -0.9463
 7924TIP3    H245264   0.554   2.041   2.667 -0.1819 -1.0075  0.2840
 7925TIP3   OH245265   3.275   3.244   4.535  0.3984  0.1087 -0.3997
 7925TIP3    H145266   3.221   3.169   4.511  2.8587 -2.4587  1.4640
 7925TIP3    H245267   3.307   3.279   4.451 -1.1756 -0.5731 -1.3282
 7926TIP3   OH245268   0.632   4.250   2.611  0.0342  0.5070  0.2031
 7926TIP3    H145269   0.596   4.245   2.700  0.8807 -0.0295  0.5168
 7926TIP3    H245270   0.648   4.343   2.597 -0.1603  0.5997  0.5894
 7927TIP3   OH245271   2.759   4.576  11.748  0.0988 -0.0014  0.5541
 7927TIP3    H145272   2.826   4.509  11.765  0.3764 -0.3416 -1.5724
 7927TIP3    H245273   2.803   4.659  11.767  1.1092 -0.2344 -0.6044
 7928TIP3   OH245274   3.871   4.742   1.934  0.0619  0.5351 -0.3967
 7928TIP3    H145275   3.933   4.699   1.993  0.1761  0.3437 -0.6496
 7928TIP3    H245276   3.807   4.674   1.913  0.5594  0.3061 -1.2465
 7929TIP3   OH245277   5.231   5.486  16.453 -0.8472  0.2480  0.4488
 7929TIP3    H145278   5.263   5.405  16.493  0.2721  0.6232  0.3514
 7929TIP3    H245279   5.217   5.545  16.527  1.9777  1.2093  0.3472
 7930TIP3   OH245280   0.475   5.254   4.508 -0.5904  0.1264 -0.2901
 7930TIP3    H145281   0.506   5.249   4.599 -0.9835  4.0725  0.2736
 7930TIP3    H245282   0.420   5.177   4.497  0.3222 -1.0551  2.4622
 7931TIP3   OH245283   5.736   5.388  10.879 -0.0886  0.1132 -0.6158
 7931TIP3    H145284   5.811   5.448  10.876  0.4428 -0.4325  0.8104
 7931TIP3    H245285   5.677   5.427  10.943  0.5139 -1.1114  0.7409
 7932TIP3   OH245286   2.634   1.688  11.170  0.1383  0.5140  0.0410
 7932TIP3    H145287   2.714   1.645  11.201  0.4040 -0.1960 -1.4982
 7932TIP3    H245288   2.666   1.760  11.115 -0.3049  1.3097  0.8025
 7933TIP3   OH245289   3.763   4.889   4.051 -0.6446  0.1237 -0.7086
 7933TIP3    H145290   3.714   4.823   4.002 -0.7644 -0.1619 -0.2170
 7933TIP3    H245291   3.743   4.869   4.143 -0.9631  1.0624 -0.5727
 7934TIP3   OH245292   4.111   1.968   2.175 -0.0666  0.4083 -0.3513
 7934TIP3    H145293   4.049   2.040   2.166 -0.1453  0.5815  1.2395
 7934TIP3    H245294   4.181   2.003   2.230 -1.5116 -1.4676  3.0155
 7935TIP3   OH245295   6.418   4.252   3.554  0.2225 -0.5164  0.0915
 7935TIP3    H145296   6.400   4.167   3.594 -2.5174 -0.8388 -1.5528
 7935TIP3    H245297   6.451   4.306   3.626 -0.1849 -2.2987  1.7005
 7936TIP3   OH245298   1.845   5.156   1.147  0.0671 -0.5716  0.1720
 7936TIP3    H145299   1.874   5.216   1.079  0.5656 -0.7454  0.2246
 7936TIP3    H245300   1.833   5.211   1.225  1.0939 -0.6232  0.3778
 7937TIP3   OH245301   1.654   3.731   2.433  0.5181  0.1465 -0.1013
 7937TIP3    H145302   1.633   3.638   2.446 -0.2312  0.3397  0.1373
 7937TIP3    H245303   1.703   3.756   2.512 -1.8603  0.6805  1.3406
 7938TIP3   OH245304   4.252   5.102  11.017 -0.0592 -0.5522 -0.2255
 7938TIP3    H145305   4.214   5.186  11.045 -1.1891 -0.8021 -0.9359
 7938TIP3    H245306   4.211   5.037  11.073 -0.1125 -0.7559 -0.4998
 7939TIP3   OH245307   5.571   0.220  14.123  0.4452  0.1536 -0.6932
 7939TIP3    H145308   5.535   0.309  14.129 -2.0148 -0.6693 -1.8587
 7939TIP3    H245309   5.553   0.193  14.033  0.4832 -1.7642 -0.1676
 7940TIP3   OH245310   6.621   4.642  11.282 -0.3912 -0.0154 -0.1120
 7940TIP3    H145311   6.707   4.633  11.243 -1.1785  1.4015 -2.3772
 7940TIP3    H245312   6.562   4.598  11.221 -1.6161  1.8764 -0.3883
 7941TIP3   OH245313   1.322   2.074  15.856  0.7769  0.3253 -0.0713
 7941TIP3    H145314   1.339   2.113  15.942  1.9720  0.0662 -0.1738
 7941TIP3    H245315   1.240   2.113  15.828  0.4586  0.5512  1.1121
 7942TIP3   OH245316   5.680   4.800  14.757 -0.4092  0.0253  0.3174
 7942TIP3    H145317   5.678   4.869  14.823  3.2187  0.1260  0.4694
 7942TIP3    H245318   5.746   4.739  14.788  1.9079  0.3619 -3.3699
 7943TIP3   OH245319   0.075   6.088  16.207 -0.5628  0.7789  0.7112
 7943TIP3    H145320   0.020   6.164  16.188 -2.0105 -0.3789 -0.0088
 7943TIP3    H245321   0.017   6.029  16.257 -0.2368 -0.7685 -0.6473
 7944TIP3   OH245322   1.986   6.199  13.171  0.0220  0.2644  0.1789
 7944TIP3    H145323   1.898   6.177  13.202  0.3297 -0.6253  0.4354
 7944TIP3    H245324   1.972   6.232  13.082 -0.3808 -1.9458 -0.6382
 7945TIP3   OH245325   3.264   2.234   1.521 -0.2459 -0.2037  0.0948
 7945TIP3    H145326   3.252   2.313   1.467 -0.7832 -0.7781 -0.6384
 7945TIP3    H245327   3.300   2.169   1.462 -0.2888 -0.6740  0.5769
 7946TIP3   OH245328   3.603   0.978  11.897  0.4938 -0.6337  0.4883
 7946TIP3    H145329   3.635   0.931  11.974  0.3286  0.0108  0.9583
 7946TIP3    H245330   3.672   0.967  11.831  0.6042 -1.2455  0.7000
 7947TIP3   OH245331   6.695   2.728   4.862  0.0970  0.6479  0.1178
 7947TIP3    H145332   6.633   2.657   4.848 -1.1497  1.9934 -1.5689
 7947TIP3    H245333   6.646   2.794   4.911  0.8752  0.8300  0.6713
 7948TIP3   OH245334   4.282   1.480   3.492  0.2341  0.3047 -0.5485
 7948TIP3    H145335   4.195   1.520   3.493  0.3598  0.5892 -0.8511
 7948TIP3    H245336   4.317   1.497   3.580 -0.2508 -0.3425 -0.2213
 7949TIP3   OH245337   5.871   6.675  15.859 -0.4452  0.5206  0.1569
 7949TIP3    H145338   5.892   6.619  15.784 -3.9433  2.0506 -2.2345
 7949TIP3    H245339   5.800   6.630  15.904 -1.8540  1.9003 -0.5645
 7950TIP3   OH245340   5.137   3.909   2.971  0.6248  0.0322 -0.1514
 7950TIP3    H145341   5.199   3.908   3.044 -0.7627 -0.5741  1.0800
 7950TIP3    H245342   5.185   3.869   2.899  2.3060  1.3853  0.1531
 7951TIP3   OH245343   5.359   0.572  13.930 -0.0111  0.2723  0.4867
 7951TIP3    H145344   5.348   0.531  14.016  1.1033  0.2733  0.6450
 7951TIP3    H245345   5.454   0.573  13.916 -0.1477  0.8369 -0.4736
 7952TIP3   OH245346   4.839   1.150  12.872 -0.6301  0.0234  0.2982
 7952TIP3    H145347   4.891   1.225  12.898  0.1894 -0.5004  0.1921
 7952TIP3    H245348   4.874   1.077  12.924 -0.4364 -0.5827 -0.6552
 7953TIP3   OH245349   4.317   5.767   6.123 -0.2560 -0.1219 -0.4525
 7953TIP3    H145350   4.402   5.733   6.095 -0.5506 -0.4263 -0.9962
 7953TIP3    H245351   4.338   5.850   6.166  0.6135 -1.5077  2.0207
 7954TIP3   OH245352   0.711   0.139  14.778  0.0252  0.0711  0.0652
 7954TIP3    H145353   0.806   0.136  14.764 -0.0972  2.5564 -2.1594
 7954TIP3    H245354   0.677   0.068  14.724  0.5929 -0.8834  0.9345
 7955TIP3   OH245355   5.884   5.934   0.906 -0.1193 -0.0299  0.3514
 7955TIP3    H145356   5.848   5.972   0.987 -4.3138  0.3994 -1.4519
 7955TIP3    H245357   5.888   6.007   0.845 -1.1666 -1.0730 -1.0169
 7956TIP3   OH245358   4.067   2.932   5.987  0.0882 -0.1171 -0.0966
 7956TIP3    H145359   4.111   2.873   5.927  0.9164 -0.4078  0.7695
 7956TIP3    H245360   4.062   2.883   6.069 -0.5008  0.4878  0.2403
 7957TIP3   OH245361   3.211   4.981   4.517 -0.0628 -0.1866 -0.2729
 7957TIP3    H145362   3.151   5.032   4.463 -0.2136 -1.4989 -1.3797
 7957TIP3    H245363   3.290   5.035   4.522 -1.6425  2.1764  2.2770
 7958TIP3   OH245364   1.377   0.550  16.811  0.5813 -0.1628 -0.2400
 7958TIP3    H145365   1.411   0.497  16.739  2.0903  2.3248 -1.5141
 7958TIP3    H245366   1.363   0.637  16.773 -2.5675  0.2754  1.5085
 7959TIP3   OH245367   1.035   1.323   4.117  0.0662  0.2391  0.2580
 7959TIP3    H145368   1.095   1.259   4.155  0.3722 -0.4111 -1.2365
 7959TIP3    H245369   1.091   1.379   4.062 -0.6416 -0.3452 -1.1180
 7960TIP3   OH245370   4.805   3.541   1.645 -0.0789  0.0233 -0.1396
 7960TIP3    H145371   4.761   3.534   1.730 -1.6642 -1.6870 -1.0273
 7960TIP3    H245372   4.816   3.635   1.632  1.0133  0.3135  2.3123
 7961TIP3   OH245373   6.796   2.662   4.157  0.1961 -0.0749  0.1581
 7961TIP3    H145374   6.880   2.636   4.195  1.0990  0.8475 -1.1443
 7961TIP3    H245375   6.806   2.649   4.063 -0.6864  1.1730 -0.1451
 7962TIP3   OH245376   2.288   0.272  15.204 -0.2260  0.0781  0.2964
 7962TIP3    H145377   2.278   0.352  15.255  0.2210  0.1332  0.3060
 7962TIP3    H245378   2.379   0.273  15.175  0.1593 -1.0613  1.3736
 7963TIP3   OH245379   6.478   3.944  14.702  0.3065  0.1795 -0.1091
 7963TIP3    H145380   6.559   3.921  14.748 -0.6253 -2.9643  0.1810
 7963TIP3    H245381   6.499   3.932  14.609  0.2503 -0.3888 -0.0498
 7964TIP3   OH245382   1.370   0.184  15.612 -0.3803  0.7193 -0.0950
 7964TIP3    H145383   1.383   0.273  15.645 -3.2856  1.2901 -0.2025
 7964TIP3    H245384   1.346   0.133  15.689  2.4221 -0.3763  0.1872
 7965TIP3   OH245385   1.816   6.705  15.977 -0.3234 -0.0509  0.2536
 7965TIP3    H145386   1.755   6.718  15.905  1.2758 -1.8147 -1.5528
 7965TIP3    H245387   1.789   6.622  16.017  1.2798 -1.3499 -1.1548
 7966TIP3   OH245388   1.251   6.568   2.228 -0.4581 -0.7485  0.1645
 7966TIP3    H145389   1.282   6.512   2.157  1.0499 -0.3583  0.4908
 7966TIP3    H245390   1.156   6.569   2.217 -0.6777 -4.1467  0.7508
 7967TIP3   OH245391   0.766   0.349   3.040  0.0872  0.5459  0.6816
 7967TIP3    H145392   0.861   0.353   3.029 -0.0971  1.9355 -0.9282
 7967TIP3    H245393   0.746   0.256   3.037  1.3425  0.2566  0.3592
 7968TIP3   OH245394   5.210   2.167  13.398  0.6454 -0.1127  0.3017
 7968TIP3    H145395   5.244   2.211  13.320  0.9224 -1.3283 -0.2954
 7968TIP3    H245396   5.279   2.174  13.463 -0.1650  2.2275  0.9987
 7969TIP3   OH245397   2.796   6.219   0.626  0.3603  0.0614  0.0202
 7969TIP3    H145398   2.732   6.268   0.676  0.1136  0.7211 -0.9224
 7969TIP3    H245399   2.880   6.238   0.669  0.0715  0.0204  0.6185
 7970TIP3   OH245400   2.096   4.303   4.659  0.1436 -0.2697 -0.3867
 7970TIP3    H145401   2.058   4.235   4.714  0.7782 -0.2513  0.0861
 7970TIP3    H245402   2.032   4.374   4.660 -0.5439 -0.8721 -0.9198
 7971TIP3   OH245403   1.823   3.544  16.511 -0.0518 -0.4241 -0.3799
 7971TIP3    H145404   1.773   3.592  16.445 -0.9181  2.0913  1.9420
 7971TIP3    H245405   1.911   3.581  16.506 -0.8394  2.0025  1.7465
 7972TIP3   OH245406   0.474   3.767  14.053  0.2023  0.7135  0.1365
 7972TIP3    H145407   0.384   3.733  14.053  1.1282 -2.1715  2.6280
 7972TIP3    H245408   0.469   3.848  14.104 -1.0820  1.0381 -0.4572
 7973TIP3   OH245409   0.719   1.569   2.769  0.0989 -0.1177 -0.7357
 7973TIP3    H145410   0.815   1.573   2.773  0.1257 -0.2268 -1.1266
 7973TIP3    H245411   0.701   1.476   2.753 -0.1131 -0.2369  0.1803
 7974TIP3   OH245412   4.014   5.874  14.152 -0.4325 -0.3428 -0.2149
 7974TIP3    H145413   4.097   5.866  14.200 -0.1183  1.3433 -0.4013
 7974TIP3    H245414   4.031   5.832  14.068 -0.1497 -1.0495  0.1909
 7975TIP3   OH245415   3.791   3.693  17.088 -0.0805 -0.2186  0.0799
 7975TIP3    H145416   3.864   3.702  17.026  1.5307 -1.8254  1.6071
 7975TIP3    H245417   3.792   3.775  17.138 -0.6716  0.6194 -1.2352
 7976TIP3   OH245418   3.032   0.704   1.413  0.3512 -0.3370 -0.2503
 7976TIP3    H145419   2.973   0.780   1.417  0.5701 -0.1714 -0.1944
 7976TIP3    H245420   2.987   0.638   1.466 -0.9802 -1.0480 -2.1437
 7977TIP3   OH245421   5.641   0.828   1.294 -0.2640  0.4337 -0.0496
 7977TIP3    H145422   5.567   0.829   1.232 -0.7633 -0.4243  0.5176
 7977TIP3    H245423   5.604   0.791   1.374  0.5241  1.0132  0.5836
 7978TIP3   OH245424   4.843   5.639  15.039  0.4982  0.3596  0.0739
 7978TIP3    H145425   4.894   5.712  15.074 -0.3462  0.1848  1.8154
 7978TIP3    H245426   4.794   5.676  14.966  0.0411  1.5881  0.9585
 7979TIP3   OH245427   3.472   4.903   5.673 -0.9582  0.1548 -0.1258
 7979TIP3    H145428   3.502   4.886   5.762  0.6392 -2.5405 -1.0617
 7979TIP3    H245429   3.548   4.941   5.628 -1.3419  0.2927 -0.6715
 7980TIP3   OH245430   0.074   3.213  14.297 -0.1519 -0.9490  0.3582
 7980TIP3    H145431   0.137   3.256  14.355 -1.1097  0.0723  0.6706
 7980TIP3    H245432   0.020   3.284  14.262 -1.7173 -1.8722  0.7942
 7981TIP3   OH245433   4.092   6.684   4.808 -0.1276 -0.3437 -0.6473
 7981TIP3    H145434   4.088   6.755   4.872 -0.8236 -0.7135 -0.2545
 7981TIP3    H245435   4.171   6.636   4.830 -0.8429 -1.0199  0.5692
 7982TIP3   OH245436   3.415   6.730  14.397  0.0361 -0.0392 -0.4895
 7982TIP3    H145437   3.438   6.651  14.348  3.2176  0.1687  0.4380
 7982TIP3    H245438   3.388   6.793  14.330  2.8649 -0.2062 -1.9113
 7983TIP3   OH245439   3.838   6.036   3.856 -0.3627  0.0732 -0.5642
 7983TIP3    H145440   3.830   5.949   3.818 -1.8504 -0.2365  0.3864
 7983TIP3    H245441   3.768   6.041   3.921  0.6660  1.4098  0.5118
 7984TIP3   OH245442   6.296   4.379   6.118  0.0167  0.2154 -0.2690
 7984TIP3    H145443   6.234   4.308   6.134  0.3921  0.1301  0.8774
 7984TIP3    H245444   6.346   4.350   6.041  0.4476 -0.9657  0.4274
 7985TIP3   OH245445   3.646   3.254  16.711  1.0273 -0.0802 -0.3494
 7985TIP3    H145446   3.699   3.280  16.635 -0.9882  1.8492 -1.1786
 7985TIP3    H245447   3.642   3.332  16.765 -1.2603 -0.0143 -0.5282
 7986TIP3   OH245448   3.158   3.716  13.867 -0.1929  0.9547 -0.7371
 7986TIP3    H145449   3.175   3.667  13.786 -0.6994  1.0256 -0.8857
 7986TIP3    H245450   3.240   3.708  13.917 -0.2504 -0.0181 -0.7734
 7987TIP3   OH245451   3.747   2.405  13.555  0.6430  0.4767 -0.3651
 7987TIP3    H145452   3.765   2.322  13.511  0.5954 -0.2709  0.9702
 7987TIP3    H245453   3.788   2.471  13.500  0.9920 -0.4658 -1.2663
 7988TIP3   OH245454   0.490   5.703  16.269  0.5105  0.0524  0.2083
 7988TIP3    H145455   0.583   5.692  16.246  1.0865  1.2429  1.7812
 7988TIP3    H245456   0.491   5.764  16.342 -1.5422  0.0589  0.2775
 7989TIP3   OH245457   4.917   0.545   5.225  0.4497 -0.3559 -0.3598
 7989TIP3    H145458   4.827   0.513   5.227 -0.0480  0.9551  1.5920
 7989TIP3    H245459   4.920   0.604   5.149 -1.6067  2.7014  1.7169
 7990TIP3   OH245460   2.326   3.381   5.381  0.1749 -0.2862 -0.3334
 7990TIP3    H145461   2.286   3.354   5.464 -0.3732 -1.9354 -1.0980
 7990TIP3    H245462   2.386   3.452   5.405 -1.9009  1.1055  1.0980
 7991TIP3   OH245463   6.191   0.034   4.063 -0.5224  0.3115 -0.4349
 7991TIP3    H145464   6.221  -0.037   4.120  1.4120 -0.9782 -2.8851
 7991TIP3    H245465   6.145  -0.009   3.992  2.5863  1.1006 -3.1797
 7992TIP3   OH245466   5.211   3.816  11.321  0.1611  0.0400 -0.2031
 7992TIP3    H145467   5.243   3.741  11.270 -1.1486 -1.0138  0.4741
 7992TIP3    H245468   5.186   3.880  11.255 -0.7056 -0.9646 -0.8855
 7993TIP3   OH245469   2.431   4.187   1.148  0.1074 -0.0337 -0.8597
 7993TIP3    H145470   2.390   4.152   1.227 -0.3728  1.4006 -0.4438
 7993TIP3    H245471   2.510   4.134   1.136 -0.4139 -1.0099 -0.0743
 7994TIP3   OH245472   2.340   6.551  15.326  0.0921 -0.1625 -0.1171
 7994TIP3    H145473   2.283   6.623  15.297 -1.1940 -0.9707  0.2875
 7994TIP3    H245474   2.413   6.594  15.369  0.2936  0.9581 -1.4914
 7995TIP3   OH245475   3.856   3.260  15.435 -0.4528  0.3186  0.3280
 7995TIP3    H145476   3.772   3.237  15.394 -0.9696  1.7847  0.4843
 7995TIP3    H245477   3.869   3.352  15.411  0.5605  0.4327  1.2467
 7996TIP3   OH245478   6.537   5.315   2.680 -0.5093  0.7849 -0.7338
 7996TIP3    H145479   6.524   5.252   2.609  0.6989 -2.1838  1.4870
 7996TIP3    H245480   6.456   5.310   2.731 -0.4658  1.1443 -0.6301
 7997TIP3   OH245481   2.749   6.246   5.429 -0.4056  0.0272 -0.0680
 7997TIP3    H145482   2.780   6.336   5.419  0.4536 -0.2187  0.2529
 7997TIP3    H245483   2.654   6.252   5.419 -0.5650  1.2491  1.6386
 7998TIP3   OH245484   3.920   4.510  12.931 -0.1237  0.2480 -0.1217
 7998TIP3    H145485   3.931   4.595  12.888 -1.1212  0.0497 -0.8284
 7998TIP3    H245486   3.958   4.447  12.869  1.7515  0.2492  0.9504
 7999TIP3   OH245487   0.886   4.215  13.827 -0.1651  0.0014  0.6403
 7999TIP3    H145488   0.895   4.122  13.850  0.9303  0.1956  1.0798
 7999TIP3    H245489   0.812   4.218  13.767 -0.1523 -1.1734  0.5433
 8000TIP3   OH245490   2.937   2.778   1.145  0.6735 -0.3403 -0.2497
 8000TIP3    H145491   2.950   2.689   1.177  1.9754  0.3926  1.4269
 8000TIP3    H245492   2.958   2.773   1.051  1.3608 -1.6798 -0.0546
 8001TIP3   OH245493   2.634   5.649  16.150 -0.5797 -0.0457 -0.6209
 8001TIP3    H145494   2.646   5.563  16.191  1.6726  1.1073  1.3891
 8001TIP3    H245495   2.589   5.630  16.067 -0.5514 -3.0875 -0.0570
 8002TIP3   OH245496   2.815   0.548   3.064 -0.4504 -0.0583 -0.2355
 8002TIP3    H145497   2.838   0.537   3.156 -0.2088  3.0533  0.1831
 8002TIP3    H245498   2.723   0.576   3.066 -0.4945 -0.1436 -0.9563
 8003TIP3   OH245499   5.818   6.438   2.951 -0.0479 -0.3281  0.1503
 8003TIP3    H145500   5.893   6.498   2.950  0.4436 -0.9403 -0.2454
 8003TIP3    H245501   5.784   6.444   3.040  2.6272 -2.6997  1.4962
 8004TIP3   OH245502   3.715   2.323   1.301  0.0334 -0.0249  0.4705
 8004TIP3    H145503   3.776   2.388   1.336  1.4430 -1.0890  0.0769
 8004TIP3    H245504   3.636   2.333   1.354  0.3862  1.6655  0.7334
 8005TIP3   OH245505   3.866   5.864  12.079  0.0897 -0.2852  0.0175
 8005TIP3    H145506   3.924   5.853  12.003 -0.9361 -0.2530 -0.7934
 8005TIP3    H245507   3.890   5.948  12.116  2.0984 -1.2544  1.0666
 8006TIP3   OH245508   4.819   5.181  11.213  0.1101  0.0066  0.2072
 8006TIP3    H145509   4.792   5.272  11.201  2.6152  1.0778  1.9281
 8006TIP3    H245510   4.881   5.164  11.142  0.7370  0.1483  0.7120
 8007TIP3   OH245511   1.515   2.192  11.336  0.6607  0.1172 -0.1109
 8007TIP3    H145512   1.502   2.248  11.412  0.9134 -0.2462  0.2035
 8007TIP3    H245513   1.579   2.127  11.364  0.6502 -0.1087 -0.5874
 8008TIP3   OH245514   1.977   5.269   2.909  0.4450  0.1126  0.0719
 8008TIP3    H145515   1.964   5.362   2.887  1.9902  0.9826  2.4492
 8008TIP3    H245516   1.917   5.253   2.981  0.1409 -0.7828 -0.3696
 8009TIP3   OH245517   4.097   2.726   5.150  0.1013 -0.0231  0.0667
 8009TIP3    H145518   4.186   2.760   5.157  0.4391 -0.6081 -1.0579
 8009TIP3    H245519   4.097   2.677   5.067 -0.5399 -2.2327  1.3058
 8010TIP3   OH245520   2.208   5.798  15.220 -0.6503 -0.3060 -0.1239
 8010TIP3    H145521   2.200   5.883  15.262 -3.0606  0.1808 -1.3497
 8010TIP3    H245522   2.195   5.735  15.291  2.5447  0.2142  1.0494
 8011TIP3   OH245523   6.503   5.616   2.590  0.4342 -0.0210 -0.3067
 8011TIP3    H145524   6.480   5.545   2.650  0.9369 -0.2400 -0.3611
 8011TIP3    H245525   6.490   5.696   2.641 -1.5567 -0.0384 -0.7068
 8012TIP3   OH245526   3.128   4.707   4.536  0.7954 -0.0155  0.1287
 8012TIP3    H145527   3.101   4.660   4.615 -0.9455 -1.1110 -1.0378
 8012TIP3    H245528   3.132   4.799   4.562 -0.8764 -0.2090  1.2463
 8013TIP3   OH245529   4.985   2.834  12.898 -0.0303  0.0923 -0.1462
 8013TIP3    H145530   4.918   2.770  12.875  0.0106  0.1500 -0.4263
 8013TIP3    H245531   5.011   2.873  12.815 -0.7044  1.1234  0.1101
 8014TIP3   OH245532   5.968   4.973  11.721 -0.4819  0.2544 -0.2819
 8014TIP3    H145533   5.904   4.902  11.728  0.3807 -0.4180  1.4667
 8014TIP3    H245534   5.915   5.053  11.726 -1.2878 -0.2700 -0.1004
 8015TIP3   OH245535   0.789   6.444   4.155 -0.1668  0.5886  0.0375
 8015TIP3    H145536   0.854   6.420   4.088  0.1724  0.7846  0.2965
 8015TIP3    H245537   0.713   6.388   4.135 -1.2151  2.6443 -2.3430
 8016TIP3   OH245538   0.758   0.514  14.668 -0.2587 -0.0272 -0.8678
 8016TIP3    H145539   0.675   0.474  14.694 -0.8854 -0.2191 -2.9410
 8016TIP3    H245540   0.739   0.556  14.584  0.9637  2.6472  0.0608
 8017TIP3   OH245541   4.935   2.014  16.252 -0.7296 -0.3891 -0.0842
 8017TIP3    H145542   5.007   2.067  16.285 -0.8631 -0.5820  0.5250
 8017TIP3    H245543   4.916   2.051  16.165 -0.4234  0.1647  0.0794
 8018TIP3   OH245544   1.681   0.739  14.974 -0.0923  0.4327 -0.1899
 8018TIP3    H145545   1.774   0.754  14.960 -0.2039  0.3441 -1.0532
 8018TIP3    H245546   1.646   0.719  14.887 -1.0324  1.0896  0.0245
 8019TIP3   OH245547   3.650   1.449   3.400 -0.4615  0.4579  0.2209
 8019TIP3    H145548   3.662   1.538   3.432  0.8663  1.1535 -1.9937
 8019TIP3    H245549   3.693   1.448   3.315 -2.2533 -1.7424 -0.7705
 8020TIP3   OH245550   1.499   3.088   1.820 -0.4156 -0.1042  0.4956
 8020TIP3    H145551   1.590   3.090   1.792  0.4400  0.9812  3.0449
 8020TIP3    H245552   1.502   3.052   1.909 -2.3512  0.6901  0.9431
 8021TIP3   OH245553   0.865   1.516   5.677  0.2648  0.0289  0.1633
 8021TIP3    H145554   0.944   1.491   5.725 -0.2349 -3.1581 -0.4996
 8021TIP3    H245555   0.803   1.543   5.746  0.9323 -0.3835  0.9444
 8022TIP3   OH245556   5.536   1.839  13.286  0.4788 -0.1894 -0.7584
 8022TIP3    H145557   5.558   1.928  13.258  0.5697 -0.2019 -0.7288
 8022TIP3    H245558   5.610   1.785  13.255  0.6439 -0.1810 -0.3795
 8023TIP3   OH245559   2.463   2.458   2.155  0.3834  0.3277  0.2062
 8023TIP3    H145560   2.482   2.365   2.170  0.9220  0.7309  2.2447
 8023TIP3    H245561   2.374   2.470   2.188  0.4129  0.6032  0.1884
 8024TIP3   OH245562   4.484   1.798  13.313 -0.1117  0.1643  0.2072
 8024TIP3    H145563   4.552   1.865  13.319  1.2735 -1.0409 -1.1380
 8024TIP3    H245564   4.465   1.775  13.404  0.7388  1.0562  0.6267
 8025TIP3   OH245565   2.494   2.536  13.780  0.1081 -0.4205 -0.3293
 8025TIP3    H145566   2.437   2.611  13.799  1.6150  0.2747  1.7496
 8025TIP3    H245567   2.582   2.567  13.799  0.9983 -2.1385 -1.4024
 8026TIP3   OH245568   1.545   1.413   1.800 -0.1141 -0.2413 -0.0547
 8026TIP3    H145569   1.621   1.429   1.745 -0.4661  0.3401 -0.3857
 8026TIP3    H245570   1.481   1.479   1.772 -0.7384 -0.7208  0.2129
 8027TIP3   OH245571   2.230   1.975  11.246  0.4595  0.1523  0.1762
 8027TIP3    H145572   2.287   1.998  11.319  0.7007 -0.7894  0.2852
 8027TIP3    H245573   2.277   1.907  11.198 -0.1496  0.0369 -0.2711
 8028TIP3   OH245574   4.363   6.614  14.307 -0.0999  0.0487  1.3667
 8028TIP3    H145575   4.321   6.569  14.380 -0.6058 -2.1150 -0.1625
 8028TIP3    H245576   4.290   6.641  14.251  0.3461 -0.2958  0.5988
 8029TIP3   OH245577   6.402   6.005  11.123  0.3112 -1.0284 -0.1105
 8029TIP3    H145578   6.395   6.096  11.153  1.0562 -1.2327  0.7014
 8029TIP3    H245579   6.388   6.011  11.029 -0.4358 -0.1698  0.0324
 8030TIP3   OH245580   6.527   3.074  16.750 -0.3866  0.5964  0.3811
 8030TIP3    H145581   6.521   3.141  16.681  1.2848 -0.2960 -0.7089
 8030TIP3    H245582   6.621   3.066  16.767 -0.5861 -1.0929  0.8732
 8031TIP3   OH245583   0.529   4.405   1.676  0.2073  0.2687  0.1262
 8031TIP3    H145584   0.510   4.470   1.609  0.8856 -0.3868 -0.7345
 8031TIP3    H245585   0.494   4.442   1.757  2.0020  2.4374 -0.0146
 8032TIP3   OH245586   5.971   0.764   1.646 -0.4762  0.6447  0.0982
 8032TIP3    H145587   5.996   0.808   1.727  2.2262  2.3282 -1.5033
 8032TIP3    H245588   6.015   0.814   1.577  0.4969 -2.9511 -2.1217
 8033TIP3   OH245589   2.891   5.565   4.521 -0.0948  0.0832 -0.1904
 8033TIP3    H145590   2.933   5.626   4.460 -1.7565  1.5211  0.0422
 8033TIP3    H245591   2.875   5.487   4.468  1.6785 -0.0446 -0.6043
 8034TIP3   OH245592   6.799   4.263   0.468  0.5166 -0.1763 -0.3335
 8034TIP3    H145593   6.850   4.341   0.492 -0.0908  0.5281 -1.2279
 8034TIP3    H245594   6.730   4.297   0.410 -0.1549 -1.2948 -0.2198
 8035TIP3   OH245595   5.412   6.744  13.824 -0.1849  0.0526 -0.2786
 8035TIP3    H145596   5.354   6.686  13.774  0.1001 -1.4989  1.0960
 8035TIP3    H245597   5.416   6.704  13.911  1.5054  1.1330  0.1754
 8036TIP3   OH245598   2.621   6.663  11.583 -0.1305  0.0536 -0.5595
 8036TIP3    H145599   2.706   6.705  11.568  0.2928 -0.2534  0.8491
 8036TIP3    H245600   2.565   6.733  11.615  0.0407 -0.0464 -0.0236
 8037TIP3   OH245601   0.378   6.048   2.207  0.1817  0.3277 -0.1229
 8037TIP3    H145602   0.340   5.966   2.173  0.1892  0.5092 -0.5669
 8037TIP3    H245603   0.302   6.098   2.237  0.0149  0.8456 -1.3436
 8038TIP3   OH245604   3.014   5.264   4.182  0.5814 -0.0276 -0.1418
 8038TIP3    H145605   3.017   5.177   4.142 -0.8054  0.1535 -0.6653
 8038TIP3    H245606   3.076   5.258   4.255  0.2661 -1.5546  0.0382
 8039TIP3   OH245607   2.610   5.108   0.151  0.1749  0.2515  0.2778
 8039TIP3    H145608   2.648   5.089   0.065  0.1114  0.4157  0.2124
 8039TIP3    H245609   2.521   5.139   0.132 -0.8202 -2.2659  0.5443
 8040TIP3   OH245610   6.418   3.690   2.002 -0.1393  0.4597 -0.1071
 8040TIP3    H145611   6.438   3.597   1.989 -0.4861  0.4535 -0.6586
 8040TIP3    H245612   6.488   3.722   2.059  0.8023  0.1904 -1.0724
 8041TIP3   OH245613   2.199   2.548   3.816  0.0002 -0.7345  0.6023
 8041TIP3    H145614   2.124   2.524   3.762  1.1330 -3.5154  0.0902
 8041TIP3    H245615   2.265   2.579   3.753 -0.5002  1.3127  1.0108
 8042TIP3   OH245616   1.855   6.769  13.706 -0.1040 -0.3076  0.5233
 8042TIP3    H145617   1.884   6.854  13.674 -2.2233  0.5890  0.8113
 8042TIP3    H245618   1.760   6.772  13.698 -0.2126 -2.7631  0.3090
 8043TIP3   OH245619   2.645   2.553   4.332  0.2030 -0.2868 -0.1472
 8043TIP3    H145620   2.715   2.581   4.274  1.5769 -1.1526  1.0389
 8043TIP3    H245621   2.632   2.627   4.391  1.3855 -0.7733  0.7564
 8044TIP3   OH245622   3.149   4.947  12.843 -0.1364  0.0034 -0.2078
 8044TIP3    H145623   3.063   4.983  12.825 -0.1997 -0.4725 -0.9297
 8044TIP3    H245624   3.201   5.021  12.875 -0.9871  0.1481  0.8870
 8045TIP3   OH245625   3.632   4.152  13.030  0.2406 -0.2228  0.0541
 8045TIP3    H145626   3.564   4.183  13.090  0.3930  2.1783 -0.8781
 8045TIP3    H245627   3.682   4.088  13.081 -1.6094 -0.7209  1.3525
 8046TIP3   OH245628   2.113   3.247  15.448 -0.2079  0.0613  0.4286
 8046TIP3    H145629   2.087   3.331  15.411  0.0062 -0.4870 -1.0261
 8046TIP3    H245630   2.131   3.266  15.540 -1.6382  1.2874  0.4905
 8047TIP3   OH245631   6.808   4.380   2.779  0.1561  0.1785 -0.1225
 8047TIP3    H145632   6.759   4.316   2.830  1.3950  0.7390  1.9155
 8047TIP3    H245633   6.900   4.353   2.789  0.4523  0.3304 -2.0909
 8048TIP3   OH245634   0.320   6.762  11.838  0.1554 -0.1935  0.0301
 8048TIP3    H145635   0.375   6.832  11.801  0.6026 -0.0839  0.8829
 8048TIP3    H245636   0.362   6.740  11.921  1.3077 -2.9937 -1.1780
 8049TIP3   OH245637   1.748   0.496  11.730  0.4044  0.2724  0.3848
 8049TIP3    H145638   1.838   0.529  11.734  0.4264  0.3007 -0.2403
 8049TIP3    H245639   1.735   0.474  11.638 -1.0634  2.5494 -0.0174
 8050TIP3   OH245640   0.122   4.676   1.361  0.2593  0.2015 -0.0358
 8050TIP3    H145641   0.059   4.609   1.333 -0.1542  0.4130  0.3690
 8050TIP3    H245642   0.205   4.648   1.323 -0.1661  0.1656 -0.9680
 8051TIP3   OH245643   6.422   0.784   4.446 -0.4109 -0.2789  0.4932
 8051TIP3    H145644   6.463   0.718   4.502 -0.5558  0.0820  1.0334
 8051TIP3    H245645   6.476   0.862   4.457 -1.6573  0.4485  1.8349
 8052TIP3   OH245646   6.443   1.184   3.407 -0.0509 -0.2525  0.5909
 8052TIP3    H145647   6.488   1.113   3.454  0.1701 -0.5350 -0.0341
 8052TIP3    H245648   6.514   1.239   3.374 -0.0498 -1.4305 -1.5560
 8053TIP3   OH245649   6.078   2.574   2.821  0.2328 -0.8200  0.5109
 8053TIP3    H145650   6.126   2.579   2.903  0.0634 -0.3999  0.5882
 8053TIP3    H245651   6.140   2.605   2.755 -0.1202  0.3319  0.6959
 8054TIP3   OH245652   6.135   4.022  14.442 -0.1001 -0.1905  0.9912
 8054TIP3    H145653   6.153   3.944  14.391  1.6198  0.2720  0.8441
 8054TIP3    H245654   6.075   3.993  14.511 -0.5542 -1.3192  0.1457
 8055TIP3   OH245655   3.463   6.579   6.344 -0.1853  0.1244  0.5578
 8055TIP3    H145656   3.547   6.589   6.388  1.2957 -2.0602 -1.5174
 8055TIP3    H245657   3.409   6.531   6.406  0.5686  0.2993  1.3703
 8056TIP3   OH245658   2.461   6.048   0.673 -0.1014  0.3043  0.2945
 8056TIP3    H145659   2.413   5.971   0.643 -0.5036  0.9773 -0.8847
 8056TIP3    H245660   2.545   6.044   0.626  0.7613 -0.4959  1.8166
 8057TIP3   OH245661   0.893   4.946   4.245  0.2738 -0.2194 -0.0610
 8057TIP3    H145662   0.804   4.978   4.234  1.2468  3.5798  1.2802
 8057TIP3    H245663   0.892   4.899   4.328 -1.1334 -3.7758 -1.8934
 8058TIP3   OH245664   4.464   0.963  14.093 -0.3952 -0.7600 -0.2569
 8058TIP3    H145665   4.515   0.977  14.013  1.3480  0.8581  1.0695
 8058TIP3    H245666   4.431   1.049  14.116 -0.1008 -1.0241  1.2677
 8059TIP3   OH245667   5.432   4.339   4.983 -0.5547 -0.2445 -0.7499
 8059TIP3    H145668   5.364   4.317   4.919 -1.7002  0.6638  0.1274
 8059TIP3    H245669   5.387   4.389   5.051  1.0427  0.6208 -0.2713
 8060TIP3   OH245670   0.886   0.860  10.647 -0.2398  0.0107  0.4826
 8060TIP3    H145671   0.959   0.813  10.687 -0.6126 -0.9352  0.0769
 8060TIP3    H245672   0.810   0.804  10.661 -0.7665  0.6491  0.2729
 8061TIP3   OH245673   2.313   0.857   3.706  0.2355  0.7018  0.6039
 8061TIP3    H145674   2.309   0.761   3.700  2.0143  0.5190  1.6519
 8061TIP3    H245675   2.244   0.880   3.769  1.0597 -0.0999  1.8460
 8062TIP3   OH245676   2.924   5.164  13.529  0.2077  0.4346  0.2402
 8062TIP3    H145677   2.979   5.129  13.459  0.5892 -0.5101  0.9991
 8062TIP3    H245678   2.929   5.259  13.517  0.9283  0.3168 -0.5145
 8063TIP3   OH245679   6.333   6.754   2.921 -0.2292  0.0258 -0.4347
 8063TIP3    H145680   6.333   6.847   2.898 -0.1859 -0.1585 -1.2015
 8063TIP3    H245681   6.258   6.744   2.979  1.0011  0.9495  1.4101
 8064TIP3   OH245682   4.001   6.289  14.050 -0.3622  0.2101 -0.2071
 8064TIP3    H145683   4.088   6.329  14.046  0.3444 -1.2951 -0.9701
 8064TIP3    H245684   3.993   6.258  14.141 -0.4703  1.1109  0.0956
 8065TIP3   OH245685   4.992   5.347  14.284  0.4473  0.2736  0.2945
 8065TIP3    H145686   5.060   5.383  14.227 -0.1071 -0.3465 -0.7810
 8065TIP3    H245687   5.022   5.258  14.304  0.2879  0.2406  0.3842
 8066TIP3   OH245688   5.704   0.731   2.442  0.1454 -0.4883  0.4647
 8066TIP3    H145689   5.654   0.733   2.360  2.2747 -0.6940 -0.8979
 8066TIP3    H245690   5.790   0.765   2.419  1.0947 -1.4096  2.4285
 8067TIP3   OH245691   2.649   1.110   6.285  0.1812 -0.5455 -0.3009
 8067TIP3    H145692   2.706   1.148   6.352 -0.3716 -1.7308  0.9008
 8067TIP3    H245693   2.561   1.142   6.308  0.2261  0.7097 -1.7252
 8068TIP3   OH245694   2.373   0.007  14.263 -0.2321  0.6902 -0.0504
 8068TIP3    H145695   2.419   0.057  14.197  0.4428 -2.1363 -1.9181
 8068TIP3    H245696   2.386  -0.085  14.237  0.7524 -0.7101  4.4012
 8069TIP3   OH245697   4.420   1.429  10.796  0.5331  0.7674 -0.0823
 8069TIP3    H145698   4.374   1.361  10.844  0.9328 -0.0374 -0.8186
 8069TIP3    H245699   4.453   1.488  10.863 -1.3443  1.2408  0.4885
 8070TIP3   OH245700   6.592   0.752   0.433 -0.2544  0.0547 -0.2964
 8070TIP3    H145701   6.581   0.742   0.527 -0.0971 -0.4077 -0.3270
 8070TIP3    H245702   6.592   0.663   0.399 -1.2910  0.2507 -0.8522
 8071TIP3   OH245703   6.176   5.455  16.287 -0.1558 -0.1877 -0.0548
 8071TIP3    H145704   6.128   5.419  16.361  1.4591  0.0368  1.1611
 8071TIP3    H245705   6.170   5.550  16.298 -0.5050 -0.1323 -0.6415
 8072TIP3   OH245706   1.336   4.682   5.120 -0.4007  0.4666  0.6719
 8072TIP3    H145707   1.314   4.654   5.031  1.1368  0.6213  0.2148
 8072TIP3    H245708   1.377   4.606   5.160 -1.7099  0.1747  1.5124
 8073TIP3   OH245709   6.672   6.177   4.561 -0.5613 -0.5457 -0.2660
 8073TIP3    H145710   6.610   6.104   4.558  0.2747 -1.2323 -1.6143
 8073TIP3    H245711   6.696   6.192   4.470  0.8954  0.0088  0.1835
 8074TIP3   OH245712   3.660   5.958   1.206 -0.0174  0.0409  0.0735
 8074TIP3    H145713   3.630   5.886   1.260 -0.1910 -0.4942 -0.7188
 8074TIP3    H245714   3.631   5.936   1.118 -0.5766  1.3523 -0.1078
 8075TIP3   OH245715   2.946   1.061  11.457  0.8209  0.5106  0.2535
 8075TIP3    H145716   3.036   1.086  11.438  0.7653  1.2724  0.9051
 8075TIP3    H245717   2.917   1.013  11.380  1.4154  1.2522 -0.4532
 8076TIP3   OH245718   3.064   6.452  15.536 -0.1745  0.1429  0.3438
 8076TIP3    H145719   3.111   6.532  15.517  2.7910 -1.8581 -1.4300
 8076TIP3    H245720   2.976   6.466  15.500  0.2129  2.5560  0.1950
 8077TIP3   OH245721   3.470   0.803  11.303  0.2719  0.1298  0.1578
 8077TIP3    H145722   3.473   0.894  11.272 -2.1908  0.0763 -0.4072
 8077TIP3    H245723   3.417   0.757  11.238 -0.4121 -1.2156  1.6145
 8078TIP3   OH245724   2.285   1.125   4.246  0.1062 -0.0512  0.0372
 8078TIP3    H145725   2.302   1.167   4.330 -0.3518 -0.0050  0.1134
 8078TIP3    H245726   2.356   1.062   4.236  0.3722  0.2076  0.2809
 8079TIP3   OH245727   4.543   1.941   4.738 -0.2126 -0.0245 -0.2127
 8079TIP3    H145728   4.555   2.024   4.783  1.1733 -0.8282  0.9635
 8079TIP3    H245729   4.622   1.931   4.685  0.0667 -1.0181  0.3718
 8080TIP3   OH245730   4.353   5.790  15.447  0.3210  0.1765  0.0890
 8080TIP3    H145731   4.347   5.883  15.469 -0.4362  0.2929 -0.5979
 8080TIP3    H245732   4.302   5.746  15.515  1.4140  0.1607  0.9394
 8081TIP3   OH245733   3.319   1.551   2.209 -0.1797  0.3283  0.4074
 8081TIP3    H145734   3.253   1.481   2.211  0.0847  0.0349 -0.5651
 8081TIP3    H245735   3.272   1.629   2.238 -0.7652 -0.0292  0.4369
 8082TIP3   OH245736   4.585   2.272   3.810  0.9852  0.0264 -0.2794
 8082TIP3    H145737   4.667   2.287   3.762  0.2373  1.0578 -1.2839
 8082TIP3    H245738   4.516   2.297   3.749 -0.1006 -0.8329  0.5524
 8083TIP3   OH245739   5.691   0.841  16.573  0.1699 -0.1035 -0.1463
 8083TIP3    H145740   5.714   0.934  16.577  0.7395 -0.2825  2.1236
 8083TIP3    H245741   5.596   0.841  16.563  0.1894  0.7077 -0.4858
 8084TIP3   OH245742   0.303   4.244   3.037 -0.0047 -0.0748 -0.2481
 8084TIP3    H145743   0.300   4.250   3.132  2.8426  0.2029 -0.0780
 8084TIP3    H245744   0.287   4.151   3.018  1.1685 -0.4854  0.6692
 8085TIP3   OH245745   6.321   1.228   5.821 -0.0829  0.3693  0.0437
 8085TIP3    H145746   6.333   1.296   5.887  0.7274 -0.1738  0.4826
 8085TIP3    H245747   6.318   1.146   5.872  1.0818 -0.1057 -0.6146
 8086TIP3   OH245748   0.637   6.366   6.139 -0.7980  0.4319  0.3724
 8086TIP3    H145749   0.707   6.430   6.154  0.1072 -0.6090  0.7210
 8086TIP3    H245750   0.620   6.329   6.225 -0.5866 -0.5210  0.0125
 8087TIP3   OH245751   5.534   1.583  11.325  0.3319 -0.3469  0.4326
 8087TIP3    H145752   5.524   1.509  11.264 -1.8693 -1.1382  1.6429
 8087TIP3    H245753   5.551   1.542  11.410 -0.3969  0.5491  1.0257
 8088TIP3   OH245754   2.597   6.452  14.657  0.6042  0.1744 -0.0494
 8088TIP3    H145755   2.648   6.418  14.584  0.4744  1.7722 -0.9405
 8088TIP3    H245756   2.506   6.448  14.627  0.4328 -0.2906  0.5159
 8089TIP3   OH245757   5.066   2.317  13.145  0.0499 -0.2477 -0.4505
 8089TIP3    H145758   5.153   2.320  13.105 -1.1783  2.4600 -3.3015
 8089TIP3    H245759   5.017   2.254  13.092 -0.6853  0.9123 -1.1803
 8090TIP3   OH245760   2.191   4.189   6.025  0.3717 -0.0593 -0.1822
 8090TIP3    H145761   2.109   4.170   6.072 -0.1744 -0.4548 -1.2629
 8090TIP3    H245762   2.259   4.153   6.082 -0.2853 -0.6642  0.2504
 8091TIP3   OH245763   0.194   4.164   4.805  0.8449 -1.2309 -0.2062
 8091TIP3    H145764   0.126   4.107   4.839 -0.6085  0.3698 -0.3054
 8091TIP3    H245765   0.259   4.168   4.875 -0.3995 -0.7929  0.9711
 8092TIP3   OH245766   6.184   5.315  10.445 -0.9992  0.1043  0.2421
 8092TIP3    H145767   6.157   5.309  10.537  0.6984  0.9985  0.8455
 8092TIP3    H245768   6.188   5.224  10.416  0.5021 -0.3644  1.7277
 8093TIP3   OH245769   5.961   2.421   5.027 -0.3007 -0.5181  0.1304
 8093TIP3    H145770   5.937   2.471   5.105 -1.5709 -0.4201 -0.3046
 8093TIP3    H245771   5.987   2.335   5.060  0.9502  0.0835  0.8002
 8094TIP3   OH245772   5.382   0.029   1.833  0.0585  0.3560  0.3113
 8094TIP3    H145773   5.304   0.021   1.887 -1.5623  3.9875 -1.2284
 8094TIP3    H245774   5.367  -0.031   1.760 -2.2271  2.2584 -0.8813
 8095TIP3   OH245775   6.068   3.676   5.348 -0.4229  0.4658 -0.5739
 8095TIP3    H145776   6.067   3.764   5.387  0.4420  0.4948 -0.5984
 8095TIP3    H245777   6.076   3.617   5.422 -3.1072  0.2591 -0.3726
 8096TIP3   OH245778   3.221   1.032  11.972 -0.2221  0.2583  0.3022
 8096TIP3    H145779   3.249   1.094  11.905  1.3397 -1.7206 -1.0087
 8096TIP3    H245780   3.153   1.078  12.022 -1.5059  1.8130 -2.6567
 8097TIP3   OH245781   4.698   1.617   3.265 -0.7045 -0.1606  0.2099
 8097TIP3    H145782   4.706   1.713   3.262 -0.8961 -0.1499  0.0280
 8097TIP3    H245783   4.619   1.602   3.317 -2.3942 -0.1458 -2.2158
 8098TIP3   OH245784   0.411   4.640   5.012 -0.4972  0.7474 -0.7121
 8098TIP3    H145785   0.348   4.688   4.958 -2.5302 -1.4966 -0.5353
 8098TIP3    H245786   0.365   4.625   5.095  0.8541  0.2846 -0.0214
 8099TIP3   OH245787   2.281   6.223   1.085  0.5115 -0.2122  0.7816
 8099TIP3    H145788   2.275   6.261   0.998  0.0330 -0.0636  0.8780
 8099TIP3    H245789   2.361   6.262   1.122  0.7653 -0.3489  0.3797
 8100TIP3   OH245790   1.286   4.073  14.958 -0.4915  0.7162 -0.4157
 8100TIP3    H145791   1.347   4.013  14.915  0.5317  0.1888  1.6287
 8100TIP3    H245792   1.275   4.145  14.895 -0.6616 -0.9161 -2.3388
 8101TIP3   OH245793   5.249   0.366  12.218  0.2836 -0.0259 -0.6631
 8101TIP3    H145794   5.270   0.287  12.169  0.9970 -0.0351 -0.3490
 8101TIP3    H245795   5.199   0.420  12.157 -0.0893 -0.6577 -0.9234
 8102TIP3   OH245796   0.849   0.537  15.600  0.5050 -0.0570 -0.1006
 8102TIP3    H145797   0.803   0.620  15.589  0.2049 -0.2583 -0.3584
 8102TIP3    H245798   0.905   0.551  15.676 -1.8793 -0.6318  1.9100
 8103TIP3   OH245799   0.477   1.462  16.599  0.3183 -0.1479 -0.1364
 8103TIP3    H145800   0.433   1.489  16.519  0.7054 -1.5075 -0.8428
 8103TIP3    H245801   0.559   1.510  16.600  1.3182 -1.7077 -1.7338
 8104TIP3   OH245802   3.531   3.180   3.071  0.0509  0.7745 -0.4246
 8104TIP3    H145803   3.618   3.218   3.088  0.0201  0.8620 -0.4612
 8104TIP3    H245804   3.498   3.228   2.995 -0.7640  2.0001  0.6289
 8105TIP3   OH245805   4.432   3.417  16.566 -0.6260  0.8128 -0.7731
 8105TIP3    H145806   4.373   3.435  16.640  0.5633 -0.2428  0.4587
 8105TIP3    H245807   4.409   3.485  16.502 -1.4056  2.0234  0.7088
 8106TIP3   OH245808   6.138   1.114  16.560  0.5277  0.0654 -0.7692
 8106TIP3    H145809   6.159   1.089  16.470 -1.9593  1.2804 -1.7789
 8106TIP3    H245810   6.161   1.037  16.612  1.6244 -0.8290 -2.4816
 8107TIP3   OH245811   0.051   5.152  11.611 -0.0160  0.0317 -0.5831
 8107TIP3    H145812   0.066   5.225  11.551 -0.4676 -0.6613 -1.5696
 8107TIP3    H245813  -0.035   5.119  11.588 -0.6744  0.4108  1.1978
 8108TIP3   OH245814   6.284   0.694   0.965  0.0900  0.0049  0.0214
 8108TIP3    H145815   6.373   0.695   1.002 -0.4054 -0.4319  1.2699
 8108TIP3    H245816   6.233   0.749   1.025 -0.5272  0.1085 -0.5940
 8109TIP3   OH245817   4.031   5.135   2.167 -0.3330  0.3889 -0.6820
 8109TIP3    H145818   4.097   5.102   2.227 -1.7347  1.1774  1.3870
 8109TIP3    H245819   4.054   5.226   2.152 -1.3177  0.8889  0.6629
 8110TIP3   OH245820   0.025   1.115  13.287  0.5114  0.0537 -0.1485
 8110TIP3    H145821   0.045   1.132  13.195 -0.6485 -0.0521 -0.4341
 8110TIP3    H245822   0.030   1.201  13.329  1.4014  0.0498 -0.2201
 8111TIP3   OH245823   2.866   4.421  12.705  0.3086 -0.1639 -0.6298
 8111TIP3    H145824   2.948   4.469  12.716  0.4528 -0.9810  3.2162
 8111TIP3    H245825   2.894   4.333  12.680  0.6003 -0.3423  0.2984
 8112TIP3   OH245826   4.696   0.423   5.142 -0.0839  0.6440 -0.3500
 8112TIP3    H145827   4.603   0.409   5.162  0.4310 -0.3890  1.5133
 8112TIP3    H245828   4.731   0.336   5.128  0.9494  0.8778  0.6635
 8113TIP3   OH245829   1.470   3.487   2.708  0.1335  0.2302 -0.7234
 8113TIP3    H145830   1.474   3.551   2.780  0.5081 -2.1202  1.4887
 8113TIP3    H245831   1.557   3.491   2.668  0.5402  0.2894  0.1466
 8114TIP3   OH245832   0.655   2.838   4.423 -0.3486  0.0958  0.9339
 8114TIP3    H145833   0.562   2.813   4.422 -1.2579  3.1588  0.1606
 8114TIP3    H245834   0.663   2.895   4.499  0.7849  0.3494  0.6313
 8115TIP3   OH245835   2.372   6.247   3.604 -0.5080  0.1171 -0.4948
 8115TIP3    H145836   2.333   6.160   3.615 -0.1819  0.0372  0.0654
 8115TIP3    H245837   2.427   6.259   3.681 -1.7108  1.4304  0.2343
 8116TIP3   OH245838   3.904   2.525   0.267  0.1440 -0.3349 -0.6093
 8116TIP3    H145839   3.921   2.543   0.359  2.7625 -0.2052 -1.0404
 8116TIP3    H245840   3.808   2.526   0.259 -0.1158  0.5844  1.8888
 8117TIP3   OH245841   5.499   3.329   0.407 -0.0313  0.0424  0.0704
 8117TIP3    H145842   5.531   3.402   0.460  0.7695  0.4998 -0.9892
 8117TIP3    H245843   5.451   3.371   0.336  1.3032 -0.3595 -1.1266
 8118TIP3   OH245844   2.292   3.374  12.731 -0.0844 -0.7608  0.2359
 8118TIP3    H145845   2.263   3.347  12.818 -1.0368 -1.4228 -0.2789
 8118TIP3    H245846   2.240   3.451  12.710  0.1682 -0.5809  0.2554
 8119TIP3   OH245847   6.154   5.185  12.846  0.1119 -0.2990 -0.6685
 8119TIP3    H145848   6.205   5.265  12.832 -1.0616  0.1207 -3.2248
 8119TIP3    H245849   6.201   5.117  12.797 -0.5584 -0.4146 -1.1707
 8120TIP3   OH245850   4.965   1.671  12.949 -0.0342  0.6401  0.7338
 8120TIP3    H145851   4.888   1.615  12.940 -0.1041  0.6446  1.2609
 8120TIP3    H245852   4.934   1.749  12.995 -0.1108  1.4961 -0.7356
 8121TIP3   OH245853   2.849   0.551   1.587 -0.5211 -0.1671 -0.4380
 8121TIP3    H145854   2.855   0.637   1.629  0.3715 -0.5990  0.3555
 8121TIP3    H245855   2.897   0.492   1.646 -2.8954 -1.6429  0.1478
 8122TIP3   OH245856   2.138   3.283   0.404  0.0270  0.4423 -0.2992
 8122TIP3    H145857   2.216   3.227   0.407  2.2572  3.3211 -0.5045
 8122TIP3    H245858   2.149   3.336   0.325 -3.4214 -0.5914 -1.6783
 8123TIP3   OH245859   1.487   4.615  11.775  0.1380 -0.2412 -0.4091
 8123TIP3    H145860   1.403   4.660  11.764  0.9600  1.4458 -0.0937
 8123TIP3    H245861   1.506   4.624  11.868  0.5381 -0.8711 -0.4267
 8124TIP3   OH245862   3.810   2.849   4.394 -0.1698 -0.1177 -0.3159
 8124TIP3    H145863   3.760   2.768   4.392 -0.1483 -0.1919  1.1017
 8124TIP3    H245864   3.745   2.918   4.403 -0.0720 -0.3094  3.1625
 8125TIP3   OH245865   0.392   1.808  11.394 -0.0540 -0.3745 -0.0989
 8125TIP3    H145866   0.457   1.814  11.325  0.3783 -0.7998  0.2623
 8125TIP3    H245867   0.341   1.729  11.371 -0.3176 -0.1572 -0.2712
 8126TIP3   OH245868   0.237   1.769  12.404  0.3604 -0.3710  0.4440
 8126TIP3    H145869   0.214   1.845  12.457  0.5089 -0.4083  0.5653
 8126TIP3    H245870   0.157   1.748  12.356  0.7770  0.8464 -0.8293
 8127TIP3   OH245871   1.172   5.042   4.255  0.3587  0.6285 -0.5834
 8127TIP3    H145872   1.181   5.101   4.329  1.5040 -0.7608  0.4428
 8127TIP3    H245873   1.084   5.006   4.262  0.6241  0.1511  0.4015
 8128TIP3   OH245874   6.790   2.685  14.536  0.0955  0.5777  0.7222
 8128TIP3    H145875   6.849   2.621  14.576 -1.4440 -0.5556  1.2837
 8128TIP3    H245876   6.762   2.741  14.608  1.7701  2.2399  0.1629
 8129TIP3   OH245877   2.247   4.489   2.363 -0.1450 -0.3265  0.2142
 8129TIP3    H145878   2.322   4.464   2.309  0.3398  0.6274  0.4122
 8129TIP3    H245879   2.171   4.462   2.313  0.3206 -2.2767  0.4813
 8130TIP3   OH245880   5.067   4.488  13.961  0.6343  0.2917 -0.6521
 8130TIP3    H145881   5.152   4.526  13.937  0.8145 -0.0870 -0.6207
 8130TIP3    H245882   5.011   4.504  13.885  0.5630  1.0504 -0.4526
 8131TIP3   OH245883   5.816   5.142   0.922 -0.4642 -0.0652  0.4350
 8131TIP3    H145884   5.735   5.111   0.963 -1.5704  1.9771 -0.0693
 8131TIP3    H245885   5.802   5.236   0.909  0.7164 -0.1727 -2.5050
 8132TIP3   OH245886   5.397   3.499  13.852 -0.2431  0.4986 -0.3534
 8132TIP3    H145887   5.491   3.483  13.859 -0.1934  0.6107 -0.7012
 8132TIP3    H245888   5.356   3.415  13.872  0.0050 -0.0835 -2.1230
 8133TIP3   OH245889   5.457   3.452  13.222 -0.1756  0.4124  0.2857
 8133TIP3    H145890   5.400   3.413  13.155 -1.3138 -0.2046  1.5603
 8133TIP3    H245891   5.397   3.503  13.276  0.9805  2.2547 -0.0952
 8134TIP3   OH245892   0.090   4.552   0.215  0.3329 -0.2046  0.1262
 8134TIP3    H145893   0.075   4.541   0.121 -2.3641  1.2847  0.2705
 8134TIP3    H245894   0.180   4.524   0.229  1.3134  0.9075 -3.1472
 8135TIP3   OH245895   4.471   2.650  15.051 -0.1567  0.1147 -0.5533
 8135TIP3    H145896   4.484   2.629  15.144 -0.2598 -1.1182 -0.7967
 8135TIP3    H245897   4.409   2.584  15.020  0.2882  0.1822 -1.6261
 8136TIP3   OH245898   2.749   3.952   2.717 -0.2058  0.0204  0.3618
 8136TIP3    H145899   2.689   3.957   2.792  1.3718 -1.1405  1.7565
 8136TIP3    H245900   2.775   4.043   2.702  1.7324  0.0509  3.1977
 8137TIP3   OH245901   3.296   5.374  13.554 -0.2119 -0.7549 -0.7535
 8137TIP3    H145902   3.382   5.401  13.586 -0.9999 -0.2513  1.0688
 8137TIP3    H245903   3.298   5.278  13.557 -0.0203 -0.7317  0.1928
 8138TIP3   OH245904   2.022   3.361  11.321 -0.0011 -0.3861 -0.3760
 8138TIP3    H145905   2.090   3.399  11.265  0.3223 -0.0216  0.2513
 8138TIP3    H245906   1.961   3.433  11.335  1.2965  0.3568  1.9075
 8139TIP3   OH245907   0.943   3.760   2.077 -0.1435 -0.1590 -0.1158
 8139TIP3    H145908   0.956   3.673   2.039 -0.1877  0.4510 -1.5940
 8139TIP3    H245909   0.848   3.773   2.075 -0.0487  0.4265 -1.1019
 8140TIP3   OH245910   3.203   6.622  16.992 -0.0624  0.3912 -0.6622
 8140TIP3    H145911   3.168   6.582  16.912 -0.7844 -0.5684  0.0971
 8140TIP3    H245912   3.292   6.588  16.999 -0.3938 -0.4737 -0.4639
 8141TIP3   OH245913   2.880   2.031   3.587  0.0418 -0.5951  0.1375
 8141TIP3    H145914   2.932   2.083   3.525  1.3980 -0.4835  1.3235
 8141TIP3    H245915   2.839   2.096   3.644  0.6606 -0.7793  0.7921
 8142TIP3   OH245916   3.526   4.876   3.698 -0.4163  0.0810  0.4313
 8142TIP3    H145917   3.545   4.965   3.727 -1.3382  0.5983 -0.4927
 8142TIP3    H245918   3.571   4.820   3.762  0.7018  1.1975  0.6597
 8143TIP3   OH245919   2.059   1.467  13.664 -0.1873  0.2155 -0.3042
 8143TIP3    H145920   2.023   1.556  13.658  0.0843  0.3489  0.0615
 8143TIP3    H245921   2.016   1.420  13.592 -0.7517  0.4917 -0.1559
 8144TIP3   OH245922   2.324   4.065  15.087 -0.5038 -0.0613  0.0763
 8144TIP3    H145923   2.306   3.974  15.112 -2.8791 -0.0608 -1.3218
 8144TIP3    H245924   2.407   4.062  15.041 -0.2588 -1.4320  0.5741
 8145TIP3   OH245925   3.753   6.024  11.072 -0.0948 -0.3755  0.0565
 8145TIP3    H145926   3.818   6.017  11.003 -0.7146 -1.6410 -0.4228
 8145TIP3    H245927   3.670   6.040  11.026 -0.1402  1.2865  0.6589
 8146TIP3   OH245928   4.715   0.069  16.389 -0.3538 -0.1659 -0.0844
 8146TIP3    H145929   4.779  -0.001  16.373 -0.1032  0.0995 -0.2395
 8146TIP3    H245930   4.762   0.150  16.370 -1.1271 -0.0185 -1.5813
 8147TIP3   OH245931   5.901   2.141  10.506  0.0843  0.8850  0.3140
 8147TIP3    H145932   5.987   2.101  10.521  0.2961  1.5541  0.9923
 8147TIP3    H245933   5.840   2.081  10.548  0.4066  1.2721  1.3960
 8148TIP3   OH245934   3.587   0.262   4.586  0.3721  0.8206 -0.0545
 8148TIP3    H145935   3.608   0.198   4.654  0.4745  1.6563  0.7072
 8148TIP3    H245936   3.670   0.279   4.542  0.2698  0.1342 -0.5244
 8149TIP3   OH245937   2.479   0.553  11.379  0.2939  0.1901 -0.4812
 8149TIP3    H145938   2.551   0.567  11.317  0.8511 -0.5235 -0.0306
 8149TIP3    H245939   2.521   0.560  11.465  0.0036 -1.0154 -0.2182
 8150TIP3   OH245940   6.354   3.969   0.067  0.2040  0.4343  0.0951
 8150TIP3    H145941   6.444   3.939   0.076  0.4977  1.6687  1.5484
 8150TIP3    H245942   6.361   4.059   0.035 -0.5419  0.3953 -0.2079
 8151TIP3   OH245943   0.024   5.084  14.539  0.3222 -0.4104 -0.2075
 8151TIP3    H145944  -0.027   5.159  14.568 -0.5373 -0.9351 -0.3204
 8151TIP3    H245945   0.061   5.048  14.620  0.4213 -0.1010 -0.1118
 8152TIP3   OH245946   4.204   0.984  13.900  0.0279  0.4052 -0.0452
 8152TIP3    H145947   4.131   1.026  13.945 -0.6912 -0.3712 -0.4383
 8152TIP3    H245948   4.205   0.894  13.934  0.5693  0.3035 -0.3090
 8153TIP3   OH245949   3.243   0.167   5.370 -0.1210 -0.5045 -0.3279
 8153TIP3    H145950   3.190   0.101   5.326 -1.5037  0.8324 -0.7636
 8153TIP3    H245951   3.187   0.245   5.374  2.0686  1.2829 -1.5771
 8154TIP3   OH245952   1.385   4.386  16.171 -0.4701 -0.0856  0.6663
 8154TIP3    H145953   1.467   4.367  16.125 -1.3912 -1.2854 -0.5519
 8154TIP3    H245954   1.354   4.301  16.201 -1.9413  0.1486 -0.0807
 8155TIP3   OH245955   3.558   3.171  16.221  0.4676 -0.0611 -0.4954
 8155TIP3    H145956   3.509   3.238  16.269 -2.7752 -1.9351 -0.9358
 8155TIP3    H245957   3.631   3.149  16.279  0.3009  2.1406  0.6749
 8156TIP3   OH245958   2.801   1.365  15.062 -0.4341 -0.2173 -0.5692
 8156TIP3    H145959   2.763   1.278  15.049 -0.3615 -0.2361 -0.6502
 8156TIP3    H245960   2.822   1.368  15.155  1.9115 -1.2218 -1.0070
 8157TIP3   OH245961   4.036   2.265  12.552 -0.2634 -0.5625  0.2639
 8157TIP3    H145962   3.974   2.337  12.557  0.6546  0.1931  1.1675
 8157TIP3    H245963   4.098   2.281  12.623  1.4160 -0.8673 -1.0548
 8158TIP3   OH245964   2.958   0.188  12.438 -0.2036 -0.4185 -0.1679
 8158TIP3    H145965   3.040   0.182  12.487 -0.6314 -1.5266  0.4441
 8158TIP3    H245966   2.957   0.277  12.404 -0.3823  0.8048  2.7527
 8159TIP3   OH245967   4.712   5.153   5.000  0.3768 -0.4181 -0.0295
 8159TIP3    H145968   4.798   5.177   4.967 -0.7158  0.7272 -2.3019
 8159TIP3    H245969   4.659   5.232   4.990 -1.2981 -1.4882 -0.1008
 8160TIP3   OH245970   6.578   3.201   1.702  0.3669 -0.0618 -0.0130
 8160TIP3    H145971   6.549   3.277   1.651 -0.8712 -0.0041  0.7128
 8160TIP3    H245972   6.637   3.238   1.768 -0.1380  0.2722  0.2627
 8161TIP3   OH245973   6.692   6.333  15.780 -0.1274  0.4530  0.0626
 8161TIP3    H145974   6.780   6.327  15.817  0.3652  1.7187 -0.8220
 8161TIP3    H245975   6.686   6.423  15.746 -1.0811 -0.1808 -1.5690
 8162TIP3   OH245976   2.284   4.239  17.238 -0.6366  0.3388  0.4141
 8162TIP3    H145977   2.331   4.323  17.233  1.8708 -0.9987 -0.0119
 8162TIP3    H245978   2.348   4.174  17.209 -2.5780 -1.7275  0.5126
 8163TIP3   OH245979   2.794   0.363   3.319  0.1748  0.2747 -0.0433
 8163TIP3    H145980   2.870   0.311   3.291  1.0166  2.3254 -1.8868
 8163TIP3    H245981   2.719   0.306   3.304  1.1774 -1.1358  0.0333
 8164TIP3   OH245982   6.081   6.825  16.748  0.5474  0.0825  0.3582
 8164TIP3    H145983   6.125   6.859  16.826  0.4215 -0.0766  0.4943
 8164TIP3    H245984   6.007   6.775  16.780  1.4090 -1.3403  0.2162
 8165TIP3   OH245985   3.589   4.967  11.453  0.0671  0.4556  0.3067
 8165TIP3    H145986   3.553   5.017  11.527 -0.6106  4.2993 -2.3343
 8165TIP3    H245987   3.515   4.915  11.422 -0.4092  0.8745  0.7192
 8166TIP3   OH245988   2.154   3.190   5.210 -0.5550  0.6433  0.4205
 8166TIP3    H145989   2.225   3.245   5.243  1.0466  0.3114 -2.2682
 8166TIP3    H245990   2.173   3.103   5.244  0.2978  0.5758 -0.2053
 8167TIP3   OH245991   3.746   1.274   0.972  0.3671 -0.3293 -0.2344
 8167TIP3    H145992   3.706   1.198   0.929  1.9915 -0.5070 -1.5286
 8167TIP3    H245993   3.675   1.313   1.023 -0.3240 -3.1837  1.1497
 8168TIP3   OH245994   0.108   2.162   5.520  0.3079 -0.3872  0.1518
 8168TIP3    H145995   0.075   2.091   5.575 -0.3734  2.2390  3.4267
 8168TIP3    H245996   0.203   2.162   5.533  0.2376 -0.3078  0.6612
 8169TIP3   OH245997   6.627   1.606  12.852  0.4499 -0.5400 -0.5918
 8169TIP3    H145998   6.667   1.551  12.784 -1.6258  0.0890 -2.4420
 8169TIP3    H245999   6.690   1.677  12.865  0.8433 -0.5993 -1.9937
 8170TIP3   OH246000   3.997   2.597   5.898  0.2865 -0.1357  0.3080
 8170TIP3    H146001   3.917   2.593   5.949  0.3867 -1.5959  0.3979
 8170TIP3    H246002   4.032   2.508   5.901  1.4247  0.2556 -0.5022
 8171TIP3   OH246003   4.364   5.791  14.573 -0.5833 -0.3407 -0.4936
 8171TIP3    H146004   4.392   5.700  14.564 -0.8499 -0.5372  0.5592
 8171TIP3    H246005   4.365   5.825  14.484 -0.0364 -1.2418 -0.8472
 8172TIP3   OH246006   3.196   4.424  14.660  0.6760  0.1908 -0.7966
 8172TIP3    H146007   3.239   4.508  14.643  1.1914 -0.1118 -1.0209
 8172TIP3    H246008   3.107   4.436  14.627  0.8825  0.4949 -1.2596
 8173TIP3   OH246009   3.751   0.292  12.289  0.5520 -0.3005 -0.1081
 8173TIP3    H146010   3.796   0.292  12.205  1.0887  1.7147  0.1213
 8173TIP3    H246011   3.820   0.282  12.354  0.5156  1.0710  0.1761
 8174TIP3   OH246012   2.358   2.750  13.889  0.7711 -0.5759 -0.2961
 8174TIP3    H146013   2.394   2.792  13.967  3.0481 -1.1370 -0.9720
 8174TIP3    H246014   2.335   2.823  13.831  2.2411 -0.1796 -0.4176
 8175TIP3   OH246015   3.790   3.220  11.689 -0.5903  0.2367  0.0791
 8175TIP3    H146016   3.694   3.224  11.685 -0.5637 -0.3707 -1.3292
 8175TIP3    H246017   3.809   3.135  11.728 -0.6193  1.0597  2.0122
 8176TIP3   OH246018   1.223   3.150   3.621  1.1183  0.9333 -0.1325
 8176TIP3    H146019   1.129   3.160   3.607  0.9840 -0.0893 -0.0012
 8176TIP3    H246020   1.263   3.213   3.561  0.3704  1.0746 -0.4940
 8177TIP3   OH246021   3.048   0.770   0.313  0.1615 -0.0696  0.1031
 8177TIP3    H146022   3.108   0.843   0.298 -1.1198  1.6409  2.5309
 8177TIP3    H246023   3.043   0.763   0.409 -0.5765 -2.6876 -0.0522
 8178TIP3   OH246024   6.190   0.713   5.819  1.3596  0.5557 -0.3505
 8178TIP3    H146025   6.164   0.741   5.731  0.0096 -0.4097 -0.2951
 8178TIP3    H246026   6.253   0.643   5.805  0.8733  0.1592 -0.5576
 8179TIP3   OH246027   5.321   2.798  16.464 -0.2303 -0.1760 -0.4872
 8179TIP3    H146028   5.341   2.870  16.523  1.1165  1.2480 -2.5567
 8179TIP3    H246029   5.291   2.728  16.522 -1.1487  1.8425  1.6483
 8180TIP3   OH246030   1.152   5.935  12.910  0.0112 -0.0343  0.9818
 8180TIP3    H146031   1.110   5.928  12.996 -0.1709  0.5427  0.9455
 8180TIP3    H246032   1.080   5.926  12.847 -0.6562  3.8857  0.9226
 8181TIP3   OH246033   6.152   5.487  11.484 -0.0607 -0.5495 -0.0141
 8181TIP3    H146034   6.072   5.518  11.526  0.9687 -0.5244  2.0304
 8181TIP3    H246035   6.188   5.422  11.545  0.1707 -2.5160 -2.0918
 8182TIP3   OH246036   6.580   1.540   3.103  0.2835  0.2563  0.1009
 8182TIP3    H146037   6.614   1.468   3.049 -1.0812  0.4658 -1.0896
 8182TIP3    H246038   6.485   1.532   3.097  0.1021  1.3434  1.0933
 8183TIP3   OH246039   5.031   1.486   0.687 -0.3201  0.5062 -0.6699
 8183TIP3    H146040   4.967   1.442   0.631 -1.1018 -0.2885  0.7871
 8183TIP3    H246041   5.115   1.474   0.642 -0.6102 -1.9468 -0.6902
 8184TIP3   OH246042   5.512   3.011   1.733 -0.4464  0.6912  0.1667
 8184TIP3    H146043   5.537   3.093   1.691  1.7358 -0.5165 -1.0899
 8184TIP3    H246044   5.433   2.983   1.687 -0.5460  1.5012 -0.1692
 8185TIP3   OH246045   2.180   4.785   1.126 -0.2647  0.2481 -0.0794
 8185TIP3    H146046   2.245   4.722   1.097 -1.7672 -1.4601  0.1055
 8185TIP3    H246047   2.163   4.763   1.217 -2.4783 -0.6367 -0.6521
 8186TIP3   OH246048   1.615   3.051  12.147 -0.3161 -0.2555  0.5325
 8186TIP3    H146049   1.556   3.032  12.074 -1.1200  0.8057  0.8747
 8186TIP3    H246050   1.702   3.027  12.114 -0.9009 -1.6600 -0.0493
 8187TIP3   OH246051   1.821   1.432  16.675 -0.1404  0.1449  0.3102
 8187TIP3    H146052   1.834   1.443  16.581 -0.0047 -0.0514  0.3050
 8187TIP3    H246053   1.892   1.374  16.703 -1.6072 -1.8823  0.0757
 8188TIP3   OH246054   1.836   3.535   0.478  0.0094 -0.5008 -0.3928
 8188TIP3    H146055   1.828   3.465   0.543 -0.2317 -1.0301 -0.9764
 8188TIP3    H246056   1.787   3.503   0.403  1.9031 -0.8051 -1.5880
 8189TIP3   OH246057   5.503   6.101   3.993  0.0113 -0.4463  0.2606
 8189TIP3    H146058   5.505   6.061   3.906  0.0494  2.5940 -1.2560
 8189TIP3    H246059   5.586   6.075   4.033  0.4142 -1.1429 -0.9834
 8190TIP3   OH246060   0.886   2.437   4.896 -0.4818  0.1597  0.3429
 8190TIP3    H146061   0.950   2.394   4.840  1.5521  1.0338  1.8467
 8190TIP3    H246062   0.925   2.434   4.984 -2.2281  1.2824  1.2301
 8191TIP3   OH246063   3.615   1.301  11.129 -0.0734  0.0475  0.5315
 8191TIP3    H146064   3.698   1.338  11.096 -0.5048  0.9511  0.4287
 8191TIP3    H246065   3.552   1.319  11.060 -0.2897 -0.9375  0.4690
 8192TIP3   OH246066   3.207   4.442   2.875  0.2040  0.0363 -0.0991
 8192TIP3    H146067   3.162   4.432   2.959 -0.7905 -0.1994 -0.6395
 8192TIP3    H246068   3.158   4.509   2.828  0.8254  0.2608 -0.4500
 8193TIP3   OH246069   2.311   3.633  15.094  0.5287  0.5306 -0.3447
 8193TIP3    H146070   2.280   3.642  15.184 -0.3834  1.6455 -0.7475
 8193TIP3    H246071   2.236   3.658  15.040  1.3251  0.7084 -1.4029
 8194TIP3   OH246072   0.562   0.036   1.224 -0.0790 -0.4530  0.5625
 8194TIP3    H146073   0.632   0.081   1.270  0.3171  0.8911 -1.2622
 8194TIP3    H246074   0.605  -0.033   1.174 -0.2591 -0.5514  0.5383
 8195TIP3   OH246075   2.793   3.450   2.035 -0.2907  0.5914 -0.4284
 8195TIP3    H146076   2.753   3.365   2.019 -0.9280  0.7271  0.4023
 8195TIP3    H246077   2.740   3.489   2.104  2.1858  0.1577  1.8528
 8196TIP3   OH246078   0.761   6.216  15.977 -0.7350  0.5137  0.3740
 8196TIP3    H146079   0.765   6.175  16.063  1.0986 -0.5226 -0.1617
 8196TIP3    H246080   0.690   6.170  15.932 -0.2948 -0.4175  0.6071
 8197TIP3   OH246081   3.201   4.550  13.646 -0.4724  0.0870 -0.1020
 8197TIP3    H146082   3.160   4.636  13.659  1.9779  0.8592  4.5061
 8197TIP3    H246083   3.135   4.487  13.673 -1.3643  0.6454 -0.8939
 8198TIP3   OH246084   0.006   1.612  14.866 -0.1947 -0.4300 -0.3620
 8198TIP3    H146085   0.066   1.678  14.901 -1.2985  2.3560 -3.2905
 8198TIP3    H246086   0.062   1.554  14.814  0.2845  0.6855 -1.1115
 8199TIP3   OH246087   2.684   1.375   5.454 -0.0998  0.1890 -0.1865
 8199TIP3    H146088   2.737   1.444   5.493  0.9214 -0.2636 -0.7194
 8199TIP3    H246089   2.740   1.338   5.385 -0.2899 -1.6626  0.5811
 8200TIP3   OH246090   5.213   0.621   1.750 -0.1545  0.4237  0.1495
 8200TIP3    H146091   5.117   0.626   1.743 -0.1407 -0.4359 -0.6690
 8200TIP3    H246092   5.243   0.596   1.663  0.8597  1.0780  0.2913
 8201TIP3   OH246093   3.966   4.038  10.846 -0.2966  0.2756 -0.1514
 8201TIP3    H146094   3.881   4.007  10.814 -1.3433  0.7048  2.0267
 8201TIP3    H246095   3.997   4.097  10.779 -2.7329  1.7378 -0.1159
 8202TIP3   OH246096   4.385   2.603  11.216 -0.2137  0.0670 -0.2018
 8202TIP3    H146097   4.331   2.592  11.137  0.1173  1.1556 -0.6091
 8202TIP3    H246098   4.355   2.536  11.276 -2.1267  0.7179 -0.3682
 8203TIP3   OH246099   2.258   4.053   4.858 -0.0966 -0.1619  0.9263
 8203TIP3    H146100   2.175   4.011   4.834  0.0191  0.2152 -0.2131
 8203TIP3    H246101   2.292   4.087   4.775  0.8124  0.3822  1.5064
 8204TIP3   OH246102   6.699   1.797  16.613  1.1904  0.4526 -0.8689
 8204TIP3    H146103   6.605   1.792  16.601  1.4111  0.4221 -2.7923
 8204TIP3    H246104   6.735   1.726  16.561  2.3620  1.5123 -1.5731
 8205TIP3   OH246105   3.342   6.739   6.138 -0.5960 -0.1687 -0.4794
 8205TIP3    H146106   3.293   6.821   6.140 -5.4014 -2.6679  0.7251
 8205TIP3    H246107   3.361   6.720   6.230 -0.6724 -0.9307 -0.6143
 8206TIP3   OH246108   5.521   2.596   1.243  0.0740 -0.2076 -0.0179
 8206TIP3    H146109   5.529   2.502   1.259 -0.3811 -0.4411 -1.0676
 8206TIP3    H246110   5.606   2.622   1.205  0.7328  0.1183  1.5910
 8207TIP3   OH246111   5.051   0.369  14.714  1.0541 -0.1851  0.7338
 8207TIP3    H146112   5.034   0.421  14.793 -0.0631  0.4887  0.0800
 8207TIP3    H246113   5.080   0.434  14.649  2.3757 -0.7885  0.6900
 8208TIP3   OH246114   1.419   2.026   5.134 -0.1314 -0.2416 -0.0171
 8208TIP3    H146115   1.362   2.098   5.159 -0.7056 -1.3527  2.1367
 8208TIP3    H246116   1.495   2.034   5.192 -0.9907 -2.2950  1.4894
 8209TIP3   OH246117   2.071   6.708  15.812  0.2494 -0.1032 -0.6491
 8209TIP3    H146118   2.070   6.625  15.765  1.0579 -1.1791  1.1384
 8209TIP3    H246119   2.000   6.700  15.876  0.0451  0.7765 -0.7534
 8210TIP3   OH246120   1.299   2.271   2.585 -0.1644  0.4626 -0.8125
 8210TIP3    H146121   1.377   2.306   2.627 -0.1713 -1.4856  0.9572
 8210TIP3    H246122   1.330   2.197   2.533 -0.8622 -0.8416  0.5485
 8211TIP3   OH246123   5.392   5.348  14.358  0.3362  0.1765 -0.3496
 8211TIP3    H146124   5.461   5.306  14.307 -1.0333 -1.3850 -1.0167
 8211TIP3    H246125   5.364   5.422  14.304  0.4942 -0.0592 -0.7553
 8212TIP3   OH246126   2.695   0.936   4.787  0.8062 -0.1506 -0.1924
 8212TIP3    H146127   2.662   0.946   4.698  0.8839 -0.0885 -0.2139
 8212TIP3    H246128   2.703   0.841   4.799  1.0318 -0.1479 -0.3363
 8213TIP3   OH246129   4.224   3.212  11.822  0.0764  0.3251  0.3888
 8213TIP3    H146130   4.177   3.133  11.794 -1.2096  0.7744  1.2028
 8213TIP3    H246131   4.159   3.263  11.870  1.1237  1.4862  0.6231
 8214TIP3   OH246132   5.673   1.700   0.468 -0.1214  0.4533  0.2181
 8214TIP3    H146133   5.760   1.663   0.457 -0.8655 -1.6034  0.9370
 8214TIP3    H246134   5.682   1.762   0.541  0.0145 -2.5463  2.9571
 8215TIP3   OH246135   0.707   1.402  14.055 -0.1397 -0.1615 -0.2289
 8215TIP3    H146136   0.612   1.400  14.053 -0.3485  1.8578  2.2119
 8215TIP3    H246137   0.731   1.472  13.994 -0.3989  0.8264  0.7789
 8216TIP3   OH246138   3.700   1.331   6.038 -0.6390  0.0071  0.3315
 8216TIP3    H146139   3.706   1.294   6.127  1.2031  1.9790  1.1094
 8216TIP3    H246140   3.775   1.294   5.992  0.6757  1.9019  0.8367
 8217TIP3   OH246141   3.918   3.092   4.152 -0.4951 -0.8449 -0.1347
 8217TIP3    H146142   3.883   3.029   4.089  1.0418 -0.7302 -1.1834
 8217TIP3    H246143   3.960   3.039   4.219 -1.4845 -0.9610  0.3973
 8218TIP3   OH246144   5.430   3.303  16.209 -0.1513  0.1939  0.3837
 8218TIP3    H146145   5.344   3.261  16.201  0.2065 -0.7359  1.2187
 8218TIP3    H246146   5.413   3.382  16.260 -0.5148  0.0140  0.5457
 8219TIP3   OH246147   3.511   5.221  13.814 -0.3369  0.5833 -0.0399
 8219TIP3    H146148   3.544   5.131  13.803  1.2563  1.1103  0.1373
 8219TIP3    H246149   3.510   5.257  13.726 -2.7994 -0.1426 -0.3994
 8220TIP3   OH246150   0.442   5.260   1.639 -0.8182 -0.5286  0.1993
 8220TIP3    H146151   0.389   5.328   1.680 -0.8330 -0.4429  0.0343
 8220TIP3    H246152   0.392   5.233   1.562 -0.1926  0.1850 -0.4671
 8221TIP3   OH246153   1.718   2.645   0.436 -0.4734  0.2150  0.4812
 8221TIP3    H146154   1.723   2.738   0.456 -1.1923  0.1358  1.0573
 8221TIP3    H246155   1.626   2.630   0.416 -0.4906 -0.5067  1.0696
 8222TIP3   OH246156   4.079   4.169  16.192  0.4316  0.1553  0.2585
 8222TIP3    H146157   4.105   4.139  16.278 -1.4368  0.7365  1.0856
 8222TIP3    H246158   4.046   4.091  16.148  0.3016  0.0687  0.5077
 8223TIP3   OH246159   5.276   2.643  13.776 -0.3098  0.5416  0.3639
 8223TIP3    H146160   5.308   2.668  13.863  2.3661  1.5128 -0.7639
 8223TIP3    H246161   5.261   2.549  13.782  1.7718  0.2126  1.3894
 8224TIP3   OH246162   2.262   1.373  16.119 -0.1783  0.1424  0.7174
 8224TIP3    H146163   2.347   1.399  16.084  0.8011  0.8983  3.4391
 8224TIP3    H246164   2.229   1.451  16.164 -1.7565 -0.5009  0.7505
 8225TIP3   OH246165   4.652   0.225  17.054 -0.0056 -0.2696  0.2026
 8225TIP3    H146166   4.742   0.256  17.057  0.2952 -1.0180 -0.6468
 8225TIP3    H246167   4.640   0.175  17.134  0.8309 -1.4350 -0.3673
 8226TIP3   OH246168   2.366   4.856  12.030 -0.2407  0.1317  0.5183
 8226TIP3    H146169   2.433   4.847  11.962  0.4488  0.0795  1.1967
 8226TIP3    H246170   2.332   4.945  12.018 -1.7180 -0.5949 -1.3184
 8227TIP3   OH246171   5.300   3.164  16.999 -0.7493  0.3024 -0.6747
 8227TIP3    H146172   5.280   3.227  17.068 -1.9982 -0.4375 -0.3399
 8227TIP3    H246173   5.310   3.218  16.920  1.3607  1.2373  0.1414
 8228TIP3   OH246174   4.803   6.716  12.034 -0.6843  0.2606  0.2503
 8228TIP3    H146175   4.749   6.692  12.109 -1.2423  0.8942  0.0681
 8228TIP3    H246176   4.791   6.644  11.972 -0.4623 -0.1178  0.6429
 8229TIP3   OH246177   2.735   1.580  12.979  0.7750  0.6690 -0.8516
 8229TIP3    H146178   2.670   1.650  12.971  1.1541  1.3759  1.4164
 8229TIP3    H246179   2.683   1.500  12.985 -0.0773  1.3285  2.2163
 8230TIP3   OH246180   3.946   6.439  12.374  0.3225  0.1506 -0.1994
 8230TIP3    H146181   3.954   6.368  12.439  2.0139 -0.1754 -0.7125
 8230TIP3    H246182   3.856   6.434  12.345 -0.0455 -0.7284  0.9840
 8231TIP3   OH246183   0.646   3.813   2.765  0.1188 -0.3978 -0.5845
 8231TIP3    H146184   0.571   3.769   2.804  0.3100 -0.6140 -0.4579
 8231TIP3    H246185   0.618   3.836   2.677 -0.1060 -0.4492 -0.5261
 8232TIP3   OH246186   3.969   0.338  15.459 -0.2303  0.8986 -0.0309
 8232TIP3    H146187   3.922   0.350  15.542 -0.9888  0.8645 -0.4411
 8232TIP3    H246188   3.989   0.427  15.430 -2.1396  1.0727 -0.9994
 8233TIP3   OH246189   5.224   3.253   4.939  0.3988  0.1452  0.2426
 8233TIP3    H146190   5.177   3.285   5.015 -1.0057  0.1277 -0.5929
 8233TIP3    H246191   5.257   3.332   4.896  1.7272  0.1305  1.1520
 8234TIP3   OH246192   2.547   5.648   5.353 -0.5460  0.3809 -0.4472
 8234TIP3    H146193   2.584   5.697   5.280  1.0983  0.7242  0.5560
 8234TIP3    H246194   2.456   5.677   5.357 -0.6078  0.5142 -2.1997
 8235TIP3   OH246195   4.523   4.237  14.499 -0.1884 -0.2147  0.3967
 8235TIP3    H146196   4.480   4.229  14.414 -1.8527  0.4909  1.1472
 8235TIP3    H246197   4.501   4.157  14.545  1.3380 -0.9419 -0.0665
 8236TIP3   OH246198   0.907   2.806   2.236 -0.1019 -0.0175  0.2078
 8236TIP3    H146199   0.854   2.860   2.177 -2.1543 -1.1280  0.9460
 8236TIP3    H246200   0.946   2.740   2.179 -1.0106 -0.2956 -0.1075
 8237TIP3   OH246201   5.555   0.160  14.492  0.0232  0.4593 -0.2410
 8237TIP3    H146202   5.479   0.204  14.456 -0.5677  0.2672  0.7319
 8237TIP3    H246203   5.529   0.068  14.499 -0.0902  0.5778  1.1602
 8238TIP3   OH246204   1.658   1.331  11.235  0.0533  0.5018 -0.4901
 8238TIP3    H146205   1.599   1.286  11.174  1.8704 -1.7205 -0.7492
 8238TIP3    H246206   1.659   1.275  11.313  0.7450  1.2558  0.0560
 8239TIP3   OH246207   6.369   6.147  14.744  0.2180 -0.2522 -0.4002
 8239TIP3    H146208   6.361   6.138  14.649  2.5462  0.5701 -0.7538
 8239TIP3    H246209   6.461   6.126  14.761 -0.6991 -3.0133  2.0481
 8240TIP3   OH246210   5.434   0.093  16.959 -0.3560  0.2614 -0.0811
 8240TIP3    H146211   5.467   0.174  16.997  0.6220  1.3530 -2.9770
 8240TIP3    H246212   5.511   0.038  16.946 -0.9517 -1.0156  1.4225
 8241TIP3   OH246213   5.496   4.700   4.059  0.7598 -0.2072  0.5648
 8241TIP3    H146214   5.571   4.742   4.016  0.9320 -1.3329 -0.2582
 8241TIP3    H246215   5.529   4.616   4.089  0.5545  0.4006  2.6693
 8242TIP3   OH246216   2.374   2.187   4.053 -0.8980 -1.0201 -0.0993
 8242TIP3    H146217   2.351   2.280   4.064 -1.3284 -0.9128 -1.6584
 8242TIP3    H246218   2.415   2.163   4.136 -1.2751  0.4158  0.5456
 8243TIP3   OH246219   5.922   4.934   0.774 -0.3562 -0.2471  0.1054
 8243TIP3    H146220   5.890   4.991   0.844 -0.3588  0.2668 -0.3076
 8243TIP3    H246221   5.849   4.927   0.713 -0.1115 -0.1060 -0.2049
 8244TIP3   OH246222   1.191   4.350  16.446  0.2618  0.3467 -0.4370
 8244TIP3    H146223   1.107   4.366  16.403  0.1348  1.4644  0.1798
 8244TIP3    H246224   1.254   4.340  16.374 -0.2376  0.4301 -0.8891
 8245TIP3   OH246225   6.083   4.141   4.050  0.3762  0.2903  0.4755
 8245TIP3    H146226   6.112   4.126   4.140 -0.0532  1.4005  0.8201
 8245TIP3    H246227   6.137   4.214   4.019  1.1987 -0.7138 -0.5252
 8246TIP3   OH246228   1.816   0.242  12.968 -0.1000 -0.2592 -0.4759
 8246TIP3    H146229   1.735   0.291  12.983  1.1022  1.1522  2.0772
 8246TIP3    H246230   1.790   0.150  12.971 -1.6526  0.1741 -0.0789
 8247TIP3   OH246231   1.255   2.527   1.124 -0.1569 -0.3042 -0.1242
 8247TIP3    H146232   1.285   2.611   1.158 -0.9714  1.0497 -2.4502
 8247TIP3    H246233   1.188   2.498   1.185 -1.9864  2.2874 -0.7146
 8248TIP3   OH246234   1.839   1.779   4.791  0.4102  0.1543  0.0053
 8248TIP3    H146235   1.767   1.813   4.739 -0.5357 -2.5089 -0.5836
 8248TIP3    H246236   1.807   1.781   4.881 -0.1945 -0.5018 -0.1914
 8249TIP3   OH246237   0.223   4.269  15.597  0.2490 -0.0538  0.2343
 8249TIP3    H146238   0.158   4.200  15.608 -1.2939  1.2111 -0.5039
 8249TIP3    H246239   0.217   4.320  15.678 -1.0423  1.1212 -0.5609
 8250TIP3   OH246240   2.610   3.702   0.737  0.0299 -0.0782 -0.0739
 8250TIP3    H146241   2.594   3.716   0.830 -0.6913 -0.6306 -0.1028
 8250TIP3    H246242   2.706   3.700   0.729  0.1141  1.1905  0.4573
 8251TIP3   OH246243   2.328   6.602   5.654 -0.7752  0.0107  0.4397
 8251TIP3    H146244   2.233   6.596   5.660 -0.7091 -1.8621  0.2116
 8251TIP3    H246245   2.358   6.511   5.658  0.6964  0.0547 -4.0850
 8252TIP3   OH246246   4.599   1.647  14.304  0.0123 -0.2634  0.1485
 8252TIP3    H146247   4.529   1.582  14.306 -0.0937 -0.1456  0.3029
 8252TIP3    H246248   4.619   1.659  14.211  1.4895 -2.0647  0.1851
 8253TIP3   OH246249   2.529   0.453  16.207  0.3633 -0.2732  0.0522
 8253TIP3    H146250   2.553   0.543  16.229  0.4081 -0.4499  0.7297
 8253TIP3    H246251   2.442   0.461  16.168  1.3949  0.3679 -2.3783
 8254TIP3   OH246252   5.261   2.168  12.297 -0.0413 -0.4226 -0.2156
 8254TIP3    H146253   5.326   2.238  12.296 -1.3681  0.9041  1.1566
 8254TIP3    H246254   5.299   2.100  12.352 -0.4908  1.0939  2.0741
 8255TIP3   OH246255   0.533   0.174   4.150 -0.1393  0.1520 -0.2931
 8255TIP3    H146256   0.467   0.158   4.217  0.7135 -0.3594  0.4534
 8255TIP3    H246257   0.489   0.157   4.067 -1.2075  0.7746  0.1311
 8256TIP3   OH246258   5.382   1.248  12.571  0.4029 -0.3381  0.8082
 8256TIP3    H146259   5.384   1.153  12.573 -0.3015 -0.4427 -1.2611
 8256TIP3    H246260   5.446   1.272  12.505  0.1755  0.6025  0.9108
 8257TIP3   OH246261   6.506   2.682   0.977  0.1364  0.0553 -0.0706
 8257TIP3    H146262   6.490   2.710   0.886 -1.7516 -2.3632 -0.5974
 8257TIP3    H246263   6.553   2.755   1.016  3.3452  0.2612 -3.6373
 8258TIP3   OH246264   1.204   5.376  16.614 -0.4077  0.3028  0.4646
 8258TIP3    H146265   1.110   5.364  16.600 -0.8069  1.2380  2.1361
 8258TIP3    H246266   1.214   5.381  16.709  1.4081 -0.2576  0.3362
 8259TIP3   OH246267   6.572   1.274   2.956 -0.4484  0.1509  0.6021
 8259TIP3    H146268   6.550   1.190   2.916  1.6075 -0.5787  0.8671
 8259TIP3    H246269   6.659   1.295   2.920  0.0509  1.0226  2.2307
 8260TIP3   OH246270   6.564   4.095  11.505 -0.4713  0.0379  0.9795
 8260TIP3    H146271   6.566   4.191  11.515 -2.8232  0.5557 -2.0696
 8260TIP3    H246272   6.493   4.066  11.562 -0.6824  0.2895  0.8463
 8261TIP3   OH246273   4.273   0.697   5.561  0.2595 -0.2256  0.4658
 8261TIP3    H146274   4.239   0.669   5.646  0.7052 -1.0869  0.3758
 8261TIP3    H246275   4.351   0.644   5.549  1.5532  1.5732  0.5838
 8262TIP3   OH246276   1.470   4.439   5.243 -0.5754  0.0888  0.7596
 8262TIP3    H146277   1.554   4.414   5.280 -0.0646 -0.6938 -0.8237
 8262TIP3    H246278   1.407   4.423   5.312  0.5123  0.2171  1.8073
 8263TIP3   OH246279   6.558   1.390   0.161 -0.0756 -0.2333 -0.5740
 8263TIP3    H146280   6.640   1.365   0.117  1.3091  0.7742  1.3080
 8263TIP3    H246281   6.552   1.331   0.236  0.0155  0.9882  0.4243
 8264TIP3   OH246282   5.414   4.137   1.548  0.2232 -0.0788  0.0489
 8264TIP3    H146283   5.335   4.189   1.560  0.8620  0.9023  0.1163
 8264TIP3    H246284   5.442   4.115   1.637  0.5919  0.4647  0.0730
 8265TIP3   OH246285   2.624   5.746   6.049 -0.0123  0.1623  0.2352
 8265TIP3    H146286   2.604   5.704   6.133 -0.0505  1.0181  0.6669
 8265TIP3    H246287   2.700   5.802   6.068 -0.8886  1.4559  0.0667
 8266TIP3   OH246288   3.257   2.486   2.230 -0.8412  0.4339 -0.5739
 8266TIP3    H146289   3.235   2.551   2.164  1.7283  0.5930 -1.3731
 8266TIP3    H246290   3.323   2.529   2.285  1.1034 -1.5055 -1.2613
 8267TIP3   OH246291   6.555   1.239  14.106 -0.1491  0.1713 -0.0332
 8267TIP3    H146292   6.630   1.180  14.103 -1.2430 -1.3962  1.3969
 8267TIP3    H246293   6.525   1.244  14.015  1.8708  1.1765 -0.7174
 8268TIP3   OH246294   3.078   3.578   5.630  0.2801  0.0037 -0.6805
 8268TIP3    H146295   3.146   3.639   5.657 -0.0348 -0.1410  0.4785
 8268TIP3    H246296   3.098   3.558   5.538  1.6969  0.0735 -0.3963
 8269TIP3   OH246297   0.463   4.426  15.601  0.6057  0.2760  0.3217
 8269TIP3    H146298   0.507   4.349  15.637 -1.8345 -0.7511  1.3071
 8269TIP3    H246299   0.378   4.394  15.573 -0.3506  2.5596  0.4153
 8270TIP3   OH246300   1.181   4.474  10.430 -0.1392 -0.3527  0.2908
 8270TIP3    H146301   1.089   4.465  10.407 -0.1377  1.5256 -0.7220
 8270TIP3    H246302   1.195   4.569  10.436  1.3832 -0.6307  1.9445
 8271TIP3   OH246303   4.409   1.521   3.733  0.5403  0.2411 -0.0714
 8271TIP3    H146304   4.417   1.430   3.761  0.6144  0.3064  0.1226
 8271TIP3    H246305   4.438   1.572   3.809 -0.1248  0.4384  0.0569
 8272TIP3   OH246306   5.947   5.643  14.885  0.4742  0.3167 -0.4977
 8272TIP3    H146307   6.035   5.672  14.860 -0.2839  1.8141 -1.5485
 8272TIP3    H246308   5.896   5.723  14.893 -0.5457 -0.4271  1.2921
 8273TIP3   OH246309   1.202   5.433   5.745 -0.4897 -0.4507  0.7014
 8273TIP3    H146310   1.236   5.518   5.773 -1.8060  0.7235 -1.0296
 8273TIP3    H246311   1.109   5.435   5.771 -1.4357  0.1613 -2.3032
 8274TIP3   OH246312   5.998   6.723   0.549  0.3141  0.3439  0.4111
 8274TIP3    H146313   5.974   6.650   0.607 -0.2897  0.1951 -0.0215
 8274TIP3    H246314   6.092   6.712   0.536  0.3915  0.1595  1.0593
 8275TIP3   OH246315   5.148   6.606  17.107  0.5418 -0.1327  0.0262
 8275TIP3    H146316   5.153   6.603  17.203  0.4683  2.5150  0.1987
 8275TIP3    H246317   5.073   6.663  17.089 -0.9462 -2.4930 -1.7089
 8276TIP3   OH246318   0.247   4.051  16.912  0.1142  0.6417  0.5628
 8276TIP3    H146319   0.260   4.037  16.818 -1.3685 -1.7103  0.6314
 8276TIP3    H246320   0.322   4.104  16.939 -0.3480  2.9636 -2.2445
 8277TIP3   OH246321   4.658   1.130  14.174 -0.0624  0.9427  0.1859
 8277TIP3    H146322   4.575   1.123  14.221 -0.9112  1.1967 -1.2239
 8277TIP3    H246323   4.634   1.162  14.087  1.6337  2.0578  0.0869
 8278TIP3   OH246324   2.298   6.126   4.360  0.2652 -0.4514 -0.0361
 8278TIP3    H146325   2.375   6.182   4.350 -1.0425  1.4825  0.1877
 8278TIP3    H246326   2.295   6.075   4.279  1.4138 -0.0825 -0.3235
 8279TIP3   OH246327   0.444   0.064   5.469 -0.0898  0.1992 -0.5184
 8279TIP3    H146328   0.481  -0.009   5.420 -3.3373 -1.1092 -1.2051
 8279TIP3    H246329   0.350   0.047   5.473 -0.4859  2.0840  3.1507
 8280TIP3   OH246330   2.618   1.159   5.724 -1.0903  0.8341  0.1553
 8280TIP3    H146331   2.598   1.169   5.817 -3.4695  0.6723 -0.2647
 8280TIP3    H246332   2.667   1.238   5.701  2.0941 -0.3984  2.0745
 8281TIP3   OH246333   3.562   0.511   1.267 -0.7285 -0.2585  0.6723
 8281TIP3    H146334   3.506   0.571   1.317  0.5829  0.5572  1.2227
 8281TIP3    H246335   3.542   0.531   1.176 -1.7378 -0.3841  0.8585
 8282TIP3   OH246336   0.880   0.060   0.767 -0.0503 -0.0551 -0.6062
 8282TIP3    H146337   0.825   0.119   0.818 -0.2490 -1.0360  0.3499
 8282TIP3    H246338   0.958   0.048   0.821  1.3104  1.5817 -2.0897
 8283TIP3   OH246339   3.082   3.771   2.967  0.4004 -0.2674 -0.4701
 8283TIP3    H146340   3.101   3.807   2.881 -3.0168 -0.0177 -1.2899
 8283TIP3    H246341   3.034   3.689   2.949 -2.1125  0.7311  1.0095
 8284TIP3   OH246342   4.623   3.292   0.893 -0.6590 -0.1442  0.4732
 8284TIP3    H146343   4.674   3.323   0.818 -0.9159 -0.4733  0.1613
 8284TIP3    H246344   4.600   3.372   0.940  0.4898 -0.0150  0.8447
 8285TIP3   OH246345   4.848   3.394  11.820 -0.4350 -0.1416 -0.2363
 8285TIP3    H146346   4.781   3.381  11.753 -0.5160 -1.4220  0.0735
 8285TIP3    H246347   4.804   3.373  11.902  0.3312 -0.9752 -0.0250
 8286TIP3   OH246348   3.016   1.311   0.785  0.4476 -0.9488 -0.5070
 8286TIP3    H146349   2.929   1.325   0.821  0.7390 -0.6382  0.0840
 8286TIP3    H246350   3.052   1.238   0.836  0.4560 -1.2133 -0.8869
 8287TIP3   OH246351   4.470   4.424   0.730  0.0398  0.2587 -0.1013
 8287TIP3    H146352   4.409   4.414   0.656 -0.3484  0.5056  0.1796
 8287TIP3    H246353   4.517   4.342   0.733 -1.1952 -0.4604  0.4873
 8288TIP3   OH246354   4.478   5.815  16.958 -0.2061  0.4687  0.1729
 8288TIP3    H146355   4.526   5.777  17.032  0.5051 -0.6906 -0.8457
 8288TIP3    H246356   4.387   5.819  16.988  0.0023 -0.3689  0.9580
 8289TIP3   OH246357   5.759   0.128  16.390 -0.2893 -0.1970 -0.2045
 8289TIP3    H146358   5.782   0.127  16.483 -0.4092 -1.9659 -0.1511
 8289TIP3    H246359   5.683   0.186  16.385 -1.3002 -1.3135  1.1017
 8290TIP3   OH246360   5.577   1.793   3.689 -0.0890 -0.2254 -0.8735
 8290TIP3    H146361   5.670   1.774   3.703  0.0262  1.0481  0.4086
 8290TIP3    H246362   5.535   1.707   3.682  0.8248 -0.9015  1.2014
 8291TIP3   OH246363   3.921   5.366  16.369 -0.1748 -0.4572  0.1266
 8291TIP3    H146364   3.907   5.316  16.289  0.8076 -0.1192 -0.2689
 8291TIP3    H246365   3.899   5.305  16.439  0.4579 -1.2756 -0.3660
 8292TIP3   OH246366   0.247   5.664   2.308  0.1915 -0.1423 -0.0911
 8292TIP3    H146367   0.156   5.644   2.285 -0.7038  1.0483  2.0413
 8292TIP3    H246368   0.287   5.693   2.226 -1.4780 -0.3129 -1.0115
 8293TIP3   OH246369   3.550   5.265   0.639  0.1890 -0.1266 -0.3546
 8293TIP3    H146370   3.609   5.198   0.672 -1.8040 -1.7330  0.1723
 8293TIP3    H246371   3.543   5.328   0.711  2.0818  0.7182 -0.8588
 8294TIP3   OH246372   6.380   2.475   1.511  0.1420 -0.2607 -0.2011
 8294TIP3    H146373   6.457   2.418   1.503 -0.2834 -0.7137 -1.2480
 8294TIP3    H246374   6.388   2.513   1.598  3.7260  2.7860 -1.5876
 8295TIP3   OH246375   4.292   0.210   4.796  0.4748  0.6910 -0.5372
 8295TIP3    H146376   4.384   0.235   4.783  0.3156  0.9599 -1.1669
 8295TIP3    H246377   4.272   0.154   4.721  0.9130 -1.6635  0.9921
 8296TIP3   OH246378   4.912   4.993   0.249  0.1594 -0.3467 -0.0611
 8296TIP3    H146379   4.881   4.989   0.340  0.8783 -0.3472  0.1893
 8296TIP3    H246380   4.918   4.902   0.221  0.6874 -0.3843  0.1579
 8297TIP3   OH246381   0.003   5.584  11.864  0.2827 -0.4119  0.1621
 8297TIP3    H146382   0.032   5.493  11.852 -1.6183 -1.2206  1.3335
 8297TIP3    H246383   0.021   5.625  11.779  1.8826 -1.6400 -0.1599
 8298TIP3   OH246384   3.633   6.801   1.312  0.5233 -0.7061  0.2380
 8298TIP3    H146385   3.559   6.740   1.316 -0.3579  0.3293  0.2425
 8298TIP3    H246386   3.698   6.757   1.257 -1.2611 -0.4617 -2.2391
 8299TIP3   OH246387   0.434   0.228  14.133 -0.6759 -0.4232 -0.3207
 8299TIP3    H146388   0.483   0.310  14.126 -0.4962 -0.4468  0.6161
 8299TIP3    H246389   0.491   0.162  14.093  0.0683 -0.4441  0.7372
 8300TIP3   OH246390   2.009   0.389  16.328 -0.0628  0.0204 -0.5373
 8300TIP3    H146391   2.093   0.409  16.370  0.5373  1.0961 -2.1689
 8300TIP3    H246392   2.030   0.323  16.262 -0.7881 -0.7848  0.0124
 8301TIP3   OH246393   5.527   4.508  14.522 -0.1804  0.7216 -0.3144
 8301TIP3    H146394   5.612   4.547  14.503 -0.9169  3.5428  1.4903
 8301TIP3    H246395   5.468   4.546  14.457 -0.3933  0.2592 -0.3955
 8302TIP3   OH246396   6.248   6.687   0.837 -0.0843  0.2385 -0.0133
 8302TIP3    H146397   6.297   6.730   0.767 -1.8934  1.0994 -0.8121
 8302TIP3    H246398   6.242   6.595   0.810 -0.8254  0.5775 -1.0625
 8303TIP3   OH246399   1.673   5.769  12.962  0.1196 -0.3501 -0.1816
 8303TIP3    H146400   1.667   5.864  12.965  0.3253 -0.3717  1.4884
 8303TIP3    H246401   1.670   5.748  12.868  2.0397  1.4284 -0.7245
 8304TIP3   OH246402   2.122   6.233  13.645  0.2095  0.5394  0.2208
 8304TIP3    H146403   2.161   6.153  13.611 -1.2907  0.3496 -1.1743
 8304TIP3    H246404   2.032   6.208  13.666  0.8265  0.8252  3.8033
 8305TIP3   OH246405   4.836   0.587   2.564 -0.0717  0.1855  0.0663
 8305TIP3    H146406   4.774   0.524   2.527 -0.4663  0.7577 -0.2752
 8305TIP3    H246407   4.904   0.533   2.605  0.2541 -0.4618 -1.2913
 8306TIP3   OH246408   6.238   6.752  11.391 -0.0669 -0.0710  0.6234
 8306TIP3    H146409   6.313   6.720  11.439 -0.1129 -1.8810 -0.4403
 8306TIP3    H246410   6.162   6.717  11.438 -0.1635 -0.2924  0.3066
 8307TIP3   OH246411   5.324   6.121  11.383 -0.3185  1.0038 -0.9393
 8307TIP3    H146412   5.256   6.070  11.340 -0.8102 -0.0698  0.9659
 8307TIP3    H246413   5.402   6.067  11.379 -0.6409  0.3903  0.3872
 8308TIP3   OH246414   1.922   3.258  15.777 -0.1862  0.0661 -0.5293
 8308TIP3    H146415   2.007   3.276  15.737  0.8596  0.3547  1.6544
 8308TIP3    H246416   1.913   3.163  15.775  1.3789 -0.1786  1.3709
 8309TIP3   OH246417   6.058   4.286   0.780 -0.2338  0.0742 -0.3508
 8309TIP3    H146418   6.098   4.369   0.755  0.9846 -0.5124 -0.4036
 8309TIP3    H246419   5.976   4.311   0.822  0.3365  1.3283  0.0624
 8310TIP3   OH246420   5.577   5.508  11.055 -0.5335  0.4680  0.6740
 8310TIP3    H146421   5.627   5.482  11.131  1.4300 -0.9641 -1.0039
 8310TIP3    H246422   5.577   5.604  11.057  2.0743  0.5166  0.9255
 8311TIP3   OH246423   4.403   6.051   5.850 -0.3379 -0.7462 -1.0058
 8311TIP3    H146424   4.347   6.111   5.801 -1.1298 -2.0150 -1.6988
 8311TIP3    H246425   4.374   6.062   5.941  0.7058  1.1466 -0.8536
 8312TIP3   OH246426   1.557   4.010  10.817 -0.3208  0.8977 -0.0144
 8312TIP3    H146427   1.571   4.037  10.726 -0.7764 -1.9276 -1.0372
 8312TIP3    H246428   1.607   4.072  10.869  0.6219  2.1150 -2.2514
 8313TIP3   OH246429   2.160   4.404   2.878  0.1031  0.8499  0.3360
 8313TIP3    H146430   2.247   4.442   2.867 -0.0425  1.7481  1.9500
 8313TIP3    H246431   2.106   4.477   2.908 -1.0623  0.1493  0.0304
 8314TIP3   OH246432   1.697   4.271   3.716 -0.4605  0.4678  0.0845
 8314TIP3    H146433   1.733   4.359   3.707 -2.3188  1.0915 -2.3780
 8314TIP3    H246434   1.617   4.284   3.767 -0.1523 -0.0069  0.7010
 8315TIP3   OH246435   2.274   3.381  11.983 -0.0390  0.4676 -0.1726
 8315TIP3    H146436   2.316   3.416  11.905 -0.7962 -0.0020 -0.8133
 8315TIP3    H246437   2.193   3.431  11.991 -0.6346 -0.4059 -0.5068
 8316TIP3   OH246438   1.204   1.354  15.305 -0.3210 -0.5501 -0.1961
 8316TIP3    H146439   1.140   1.420  15.281 -0.6558 -0.5656  0.6078
 8316TIP3    H246440   1.207   1.357  15.401 -0.6486 -1.9680 -0.1130
 8317TIP3   OH246441   3.508   2.766  16.774  0.2260 -0.5871  0.0603
 8317TIP3    H146442   3.463   2.719  16.704 -1.4387 -0.8570  1.2826
 8317TIP3    H246443   3.480   2.857  16.763  0.9522 -0.3959 -0.3471
 8318TIP3   OH246444   1.485   2.184   0.341 -0.0017  0.3364  0.1158
 8318TIP3    H146445   1.471   2.165   0.248  1.1407  0.5046 -0.0987
 8318TIP3    H246446   1.433   2.263   0.356 -0.2789  0.2531 -0.3433
 8319TIP3   OH246447   3.816   3.703  11.612 -0.1483 -0.1548 -0.0340
 8319TIP3    H146448   3.780   3.621  11.645  0.9645 -0.3971  0.6267
 8319TIP3    H246449   3.851   3.680  11.526 -1.3508  0.0377 -0.5953
 8320TIP3   OH246450   2.838   3.811   4.575 -0.3132  0.0498  0.1821
 8320TIP3    H146451   2.817   3.877   4.508  0.0783  0.3328  0.3367
 8320TIP3    H246452   2.893   3.857   4.638  0.1243 -0.4720  0.1914
 8321TIP3   OH246453   2.159   4.441   0.679  0.4496 -0.1210 -0.3694
 8321TIP3    H146454   2.137   4.477   0.765  0.3673 -0.1781 -0.3654
 8321TIP3    H246455   2.163   4.346   0.694  1.0786 -0.0846 -0.2892
 8322TIP3   OH246456   5.552   5.993  11.340  0.3295  0.5122 -1.0956
 8322TIP3    H146457   5.615   5.949  11.283  0.4560 -0.2114 -0.4116
 8322TIP3    H246458   5.495   5.923  11.372  1.8123  0.4192  1.6712
 8323TIP3   OH246459   1.697   1.212  16.793  0.3004  0.0272 -0.7631
 8323TIP3    H146460   1.715   1.219  16.887 -1.1660 -0.0673 -0.4533
 8323TIP3    H246461   1.723   1.297  16.757  0.6380  0.1533 -0.2338
 8324TIP3   OH246462   5.602   3.163   2.714  0.5814 -0.2910  0.3812
 8324TIP3    H146463   5.636   3.081   2.750  1.0129 -0.1295  0.3560
 8324TIP3    H246464   5.525   3.183   2.768  0.0383 -1.0895 -0.0874
 8325TIP3   OH246465   0.671   5.827   3.363  0.0921  0.2402  0.0653
 8325TIP3    H146466   0.737   5.832   3.433  0.9190 -0.0289 -0.6774
 8325TIP3    H246467   0.623   5.746   3.381  1.4901 -0.7997 -0.6785
 8326TIP3   OH246468   3.623   6.347  15.872 -0.4476  0.4201 -0.4369
 8326TIP3    H146469   3.605   6.410  15.941  0.2643  0.8900 -0.6712
 8326TIP3    H246470   3.697   6.296  15.905  0.7863  1.5270 -1.3902
 8327TIP3   OH246471   3.664   1.219   1.493 -0.6325 -0.5438  0.1684
 8327TIP3    H146472   3.741   1.205   1.439  0.4157  0.8346  1.2205
 8327TIP3    H246473   3.593   1.235   1.431  0.3605  0.2141 -0.7999
 8328TIP3   OH246474   2.908   5.222   4.828 -0.3442  0.4819  0.9738
 8328TIP3    H146475   3.001   5.228   4.806 -0.2226  0.6138  1.5044
 8328TIP3    H246476   2.878   5.313   4.829 -0.2558  0.5122  1.7038
 8329TIP3   OH246477   6.472   1.839   0.661 -0.3818 -0.3027  0.1125
 8329TIP3    H146478   6.441   1.892   0.736 -1.2086 -0.5492 -0.0408
 8329TIP3    H246479   6.566   1.831   0.675 -0.1636  1.5314 -0.0557
 8330TIP3   OH246480   1.507   4.277  15.739  0.1084 -0.1309  0.3987
 8330TIP3    H146481   1.488   4.302  15.649  0.3227  0.5829  0.5428
 8330TIP3    H246482   1.602   4.270  15.743  0.1466  0.5160  0.7349
 8331TIP3   OH246483   3.347   4.950  14.469  0.0821  0.3776 -0.0156
 8331TIP3    H146484   3.319   4.917  14.384  0.2390 -0.8290  0.3829
 8331TIP3    H246485   3.381   4.873  14.515  0.3956  1.0868  0.9821
 8332TIP3   OH246486   4.746   2.878  11.292 -0.6096  0.2687 -0.1005
 8332TIP3    H146487   4.740   2.793  11.248 -0.2463 -0.1198  0.5869
 8332TIP3    H246488   4.840   2.899  11.290 -0.5020 -0.0719  1.0677
 8333TIP3   OH246489   1.211   1.950  11.745  0.7105  0.1740 -0.1329
 8333TIP3    H146490   1.278   2.015  11.724  0.5494  0.9786  1.6749
 8333TIP3    H246491   1.134   2.001  11.768  0.9530 -0.5504  2.5671
 8334TIP3   OH246492   1.506   2.732   5.067  0.4359  0.0694  0.3724
 8334TIP3    H146493   1.532   2.665   5.003  0.7389 -0.7233  1.3016
 8334TIP3    H246494   1.549   2.706   5.148 -1.9874 -0.3987  1.5844
 8335TIP3   OH246495   5.988   0.116   5.343 -0.8917  0.2567  0.0445
 8335TIP3    H146496   5.942   0.197   5.365 -1.4012 -0.0443  0.1072
 8335TIP3    H246497   5.948   0.050   5.399  1.3536  0.4354  1.9819
 8336TIP3   OH246498   0.838   5.992  13.401 -0.0927 -0.3571  0.0119
 8336TIP3    H146499   0.909   5.969  13.461 -0.1435 -2.0524 -0.5256
 8336TIP3    H246500   0.854   5.938  13.323 -1.7322 -0.4739 -0.2780
 8337TIP3   OH246501   6.056   4.471  12.993  0.6778  0.3176  0.4427
 8337TIP3    H146502   5.968   4.452  12.959  0.9791  0.1252 -0.2456
 8337TIP3    H246503   6.083   4.550  12.947  0.1342  1.4935  2.0244
 8338TIP3   OH246504   0.023   6.408  16.416  0.0870  0.3516  0.3386
 8338TIP3    H146505   0.033   6.341  16.483 -0.0994 -1.0254 -0.9490
 8338TIP3    H246506   0.101   6.463  16.425 -0.0003  0.2722  1.7352
 8339TIP3   OH246507   5.769   6.428  13.243 -0.2131 -0.3143 -0.3524
 8339TIP3    H146508   5.775   6.371  13.166 -0.1486 -1.8084  0.7351
 8339TIP3    H246509   5.694   6.485  13.224  0.3948  0.0268 -1.9380
 8340TIP3   OH246510   5.940   3.217  15.375 -0.6893  0.2482  0.0133
 8340TIP3    H146511   5.887   3.138  15.372 -1.3495  0.6733  0.1794
 8340TIP3    H246512   5.879   3.288  15.354  0.1178  0.6139 -1.2069
 8341TIP3   OH246513   6.253   3.461  16.302 -0.1883  0.3151 -0.3020
 8341TIP3    H146514   6.179   3.443  16.243 -1.1241  2.2754  0.2025
 8341TIP3    H246515   6.212   3.479  16.387  1.0046 -0.2832  0.4308
 8342TIP3   OH246516   0.342   6.776   0.819  0.0216  0.1555  0.5859
 8342TIP3    H146517   0.382   6.688   0.818  0.8764  0.5045 -1.0462
 8342TIP3    H246518   0.326   6.795   0.911  0.3574 -1.4818  1.0114
 8343TIP3   OH246519   4.325   1.548  13.314 -0.3774 -0.3747 -0.1201
 8343TIP3    H146520   4.357   1.477  13.258  1.0291  1.1787 -1.3746
 8343TIP3    H246521   4.368   1.627  13.281 -0.5916  0.8482  2.2706
 8344TIP3   OH246522   5.352   0.240   0.708 -0.2066  0.0845 -0.0804
 8344TIP3    H146523   5.437   0.198   0.700  0.5484  1.6667 -0.6480
 8344TIP3    H246524   5.314   0.233   0.620 -0.8402 -0.9020  0.2448
 8345TIP3   OH246525   1.113   5.446  14.663  0.5023 -0.2858  0.4892
 8345TIP3    H146526   1.026   5.467  14.697  0.5759  0.0449  0.4781
 8345TIP3    H246527   1.151   5.387  14.729 -0.0260 -1.0752  0.1108
 8346TIP3   OH246528   5.959   3.354  11.108 -0.6204 -0.0275  0.0198
 8346TIP3    H146529   5.877   3.355  11.057 -1.8103 -1.2450  1.7890
 8346TIP3    H246530   5.948   3.424  11.172 -0.4753 -0.4944  0.5540
 8347TIP3   OH246531   3.356   6.763   5.042  0.3024 -0.4924  0.3221
 8347TIP3    H146532   3.446   6.754   5.012  0.3886 -0.4157  0.5551
 8347TIP3    H246533   3.362   6.812   5.124  0.0035 -0.0116  0.0604
 8348TIP3   OH246534   0.157   6.150   4.976 -0.5600 -0.0099  0.5402
 8348TIP3    H146535   0.070   6.159   5.016 -0.4605 -0.8056  0.9664
 8348TIP3    H246536   0.141   6.158   4.882 -1.4018 -2.0153  0.4571
 8349TIP3   OH246537   6.652   1.113   6.063 -0.5443 -0.6720 -0.6497
 8349TIP3    H146538   6.661   1.061   6.143  2.6499  0.0647 -0.4166
 8349TIP3    H246539   6.604   1.191   6.092 -0.0486 -0.7327  0.3888
 8350TIP3   OH246540   1.986   3.117   2.757  0.2865 -0.3732  0.3109
 8350TIP3    H146541   1.980   3.067   2.839 -0.6951  0.3787  0.7046
 8350TIP3    H246542   1.936   3.065   2.694 -1.1415  0.3254  0.8392
 8351TIP3   OH246543   6.239   3.830   6.130 -0.2620  0.4896  0.7086
 8351TIP3    H146544   6.243   3.869   6.043 -0.9395  0.7732  0.7980
 8351TIP3    H246545   6.265   3.901   6.189  0.2205  0.2909  0.7363
 8352TIP3   OH246546   5.896   2.638  14.276  0.0618 -0.0261  0.2645
 8352TIP3    H146547   5.833   2.567  14.278  0.3699 -0.2984  0.3361
 8352TIP3    H246548   5.969   2.607  14.330  0.5320  0.0279 -0.3302
 8353TIP3   OH246549   1.899   2.146  11.524 -0.0668  0.4470 -0.0614
 8353TIP3    H146550   1.974   2.187  11.482  0.6673 -1.0147 -0.2439
 8353TIP3    H246551   1.858   2.216  11.575 -0.5365  2.1161 -2.5246
 8354TIP3   OH246552   4.839   6.402   3.219 -0.0237  0.6811 -0.0071
 8354TIP3    H146553   4.864   6.310   3.232 -1.6694  0.3281  0.9320
 8354TIP3    H246554   4.832   6.413   3.125  2.0534  0.3890 -0.2359
 8355TIP3   OH246555   1.074   6.351   1.062 -0.1085  0.1117  0.6477
 8355TIP3    H146556   1.106   6.429   1.016  1.2460 -0.7235  0.1261
 8355TIP3    H246557   1.127   6.279   1.028 -2.6878 -1.4253 -0.4387
 8356TIP3   OH246558   4.399   0.149  12.697 -0.6139 -0.0100  0.3626
 8356TIP3    H146559   4.359   0.128  12.612  0.0106 -3.9222  0.8332
 8356TIP3    H246560   4.379   0.242  12.711 -2.2763  0.3402 -3.1936
 8357TIP3   OH246561   5.963   6.568   3.159  0.4256  0.0999 -0.1656
 8357TIP3    H146562   5.912   6.501   3.204  1.7105 -0.5521  0.3800
 8357TIP3    H246563   5.916   6.649   3.175 -0.8359 -0.5753 -0.3231
 8358TIP3   OH246564   3.375   3.222  15.882  0.0693  0.4245  0.4081
 8358TIP3    H146565   3.431   3.194  15.954 -1.1039 -2.1488  0.4287
 8358TIP3    H246566   3.424   3.199  15.803  0.5888  1.6095  0.3643
 8359TIP3   OH246567   2.672   5.752  16.582  0.6072 -0.1441 -0.4204
 8359TIP3    H146568   2.686   5.780  16.673 -1.2657 -2.0818  0.5395
 8359TIP3    H246569   2.731   5.677  16.570 -0.2519 -0.8515 -0.2821
 8360TIP3   OH246570   4.515   3.138  14.622 -0.1164  0.0959  0.5188
 8360TIP3    H146571   4.455   3.198  14.668 -0.6096 -0.2640  0.3530
 8360TIP3    H246572   4.543   3.076  14.690 -0.7636 -0.3724  0.3735
 8361TIP3   OH246573   0.430   0.611  16.238 -0.1503  0.3518 -0.1010
 8361TIP3    H146574   0.366   0.626  16.307 -0.6989  0.8220 -0.6925
 8361TIP3    H246575   0.407   0.525  16.202 -1.6899  1.2990 -1.5561
 8362TIP3   OH246576   2.405   0.742   1.184 -0.2420 -0.2891  0.1081
 8362TIP3    H146577   2.466   0.680   1.224  0.2075 -0.7133 -1.1882
 8362TIP3    H246578   2.461   0.809   1.144 -0.5875 -0.8381 -1.3484
 8363TIP3   OH246579   1.435   1.250   3.319 -0.0576  0.5895  0.2144
 8363TIP3    H146580   1.400   1.223   3.234  0.3833 -0.0439  0.2325
 8363TIP3    H246581   1.390   1.333   3.338 -0.3342  0.6133 -0.5204
 8364TIP3   OH246582   1.144   3.388   0.622 -0.1064 -0.0160 -0.0996
 8364TIP3    H146583   1.134   3.341   0.705  0.4436 -0.8713 -0.5021
 8364TIP3    H246584   1.239   3.393   0.609 -0.1836  0.4115 -0.5073
 8365TIP3   OH246585   6.358   4.642  17.206 -0.5220 -0.2647 -0.1933
 8365TIP3    H146586   6.352   4.579  17.135  1.0058 -0.6455 -0.0208
 8365TIP3    H246587   6.432   4.698  17.183 -0.8418  0.4521  0.4455
 8366TIP3   OH246588   3.200   6.042   4.995  0.0959  0.3700 -0.3188
 8366TIP3    H146589   3.213   6.073   5.085 -0.5918 -3.2050  1.1910
 8366TIP3    H246590   3.107   6.057   4.978  0.4734  2.1917 -1.0047
 8367TIP3   OH246591   6.510   4.855  13.200 -0.1707  0.0978 -0.4130
 8367TIP3    H146592   6.469   4.910  13.267  0.9177  0.9546 -0.4240
 8367TIP3    H246593   6.502   4.907  13.119 -0.6854 -0.5439 -0.7866
 8368TIP3   OH246594   4.488   0.119   3.305  0.6429  0.1078 -0.3502
 8368TIP3    H146595   4.415   0.173   3.276 -0.9119 -1.4807  0.4517
 8368TIP3    H246596   4.529   0.089   3.224  0.8695  1.5393 -0.8051
 8369TIP3   OH246597   6.809   3.641  12.848  0.3280  0.0323  0.0540
 8369TIP3    H146598   6.904   3.640  12.857  0.4296 -0.0536 -0.8538
 8369TIP3    H246599   6.786   3.550  12.830 -0.0067 -0.0590  0.9050
 8370TIP3   OH246600   1.293   3.155  16.470  0.2626  0.4575 -0.3174
 8370TIP3    H146601   1.315   3.068  16.502 -1.9956 -0.2184 -0.4504
 8370TIP3    H246602   1.360   3.174  16.404  0.2179 -1.6162 -1.0271
 8371TIP3   OH246603   1.976   5.444   0.434 -0.0376 -0.2941 -0.5906
 8371TIP3    H146604   1.921   5.370   0.408 -1.4043 -0.7430  2.9542
 8371TIP3    H246605   2.034   5.407   0.500  0.7221  1.3668 -0.2951
 8372TIP3   OH246606   4.925   2.459   1.635  0.2292 -0.3818 -0.0570
 8372TIP3    H146607   4.913   2.518   1.561  0.6317  0.7220  0.7291
 8372TIP3    H246608   4.996   2.400   1.608  0.0440 -0.3102 -0.7244
 8373TIP3   OH246609   5.601   6.168   5.026  0.0587  0.0250  0.6258
 8373TIP3    H146610   5.615   6.201   5.115 -3.5943 -0.4508  1.5610
 8373TIP3    H246611   5.578   6.245   4.975  0.5474  0.0798  0.4828
 8374TIP3   OH246612   2.987   6.775  13.316 -0.0899 -0.4000 -0.1830
 8374TIP3    H146613   3.026   6.862  13.322  0.0822 -0.5216  0.7204
 8374TIP3    H246614   2.922   6.773  13.387  0.0237 -1.0505 -0.0878
 8375TIP3   OH246615   4.812   4.583   0.446  0.4909  0.3929 -0.3537
 8375TIP3    H146616   4.829   4.574   0.540 -0.6815  2.1804  0.0786
 8375TIP3    H246617   4.896   4.562   0.404  0.5684 -2.1876  0.9287
 8376TIP3   OH246618   6.795   6.769  13.389 -0.1546  0.0801 -0.2746
 8376TIP3    H146619   6.823   6.677  13.396 -0.4360  0.0026 -0.1686
 8376TIP3    H246620   6.703   6.768  13.413 -0.1161  0.4194 -0.1127
 8377TIP3   OH246621   2.293   5.002   4.187 -0.0917 -0.0594  0.2854
 8377TIP3    H146622   2.336   5.058   4.121 -2.5159  1.8092  0.1545
 8377TIP3    H246623   2.309   5.047   4.270  0.9342 -1.1248  0.6785
 8378TIP3   OH246624   4.024   5.823  15.161  0.0069 -0.3019  0.2172
 8378TIP3    H146625   3.953   5.767  15.192  0.0360  0.3417  1.4930
 8378TIP3    H246626   3.988   5.866  15.083 -1.1424  0.2920  1.0482
 8379TIP3   OH246627   2.508   3.538  13.184  0.4321  0.0687  0.0420
 8379TIP3    H146628   2.435   3.596  13.207 -0.6074 -0.5747 -1.4421
 8379TIP3    H246629   2.484   3.454  13.223 -0.6049 -0.6326 -1.9642
 8380TIP3   OH246630   0.583   5.718  15.096 -0.5390  0.0779  0.2438
 8380TIP3    H146631   0.498   5.735  15.056 -0.7627  0.2416  0.7803
 8380TIP3    H246632   0.633   5.672  15.028 -0.7601  0.7206 -0.3665
 8381TIP3   OH246633   4.055   4.641  15.247  0.3093 -0.0088 -0.3597
 8381TIP3    H146634   4.122   4.666  15.310 -0.2281 -1.0185  0.6608
 8381TIP3    H246635   4.103   4.592  15.180  0.7922  0.4749 -0.3727
 8382TIP3   OH246636   4.076   5.069  14.001  0.8241 -0.1625  0.2574
 8382TIP3    H146637   4.084   5.017  14.081  2.9382 -1.8069 -0.9180
 8382TIP3    H246638   3.986   5.056  13.973  0.8630 -1.9655  0.8358
 8383TIP3   OH246639   0.960   0.789   2.786  0.1564 -0.6310 -0.3393
 8383TIP3    H146640   0.877   0.740   2.787 -0.3895  0.2121 -1.5387
 8383TIP3    H246641   1.025   0.725   2.815 -0.9645 -1.1784  1.1217
 8384TIP3   OH246642   6.280   0.816  11.997 -0.4776  0.0037  0.3170
 8384TIP3    H146643   6.217   0.803  12.068  0.9514 -0.8468  1.4962
 8384TIP3    H246644   6.328   0.895  12.020  1.7239 -1.6236  1.7649
 8385TIP3   OH246645   1.498   0.318   1.173 -0.2832  0.0008  0.0982
 8385TIP3    H146646   1.549   0.314   1.254  0.0793 -3.5748 -0.1209
 8385TIP3    H246647   1.452   0.401   1.177  1.7975  1.1657  2.6599
 8386TIP3   OH246648   1.042   3.926  13.386  0.2089 -0.3048 -0.0096
 8386TIP3    H146649   0.961   3.908  13.432 -0.3650  0.0052 -0.8690
 8386TIP3    H246650   1.024   3.902  13.295  0.6739  0.9148 -0.4396
 8387TIP3   OH246651   4.603   2.724  13.553 -0.1799 -0.3485  0.0698
 8387TIP3    H146652   4.697   2.733  13.571 -0.3702  0.4174  0.7705
 8387TIP3    H246653   4.575   2.649  13.606  0.3563 -1.7153 -1.5023
 8388TIP3   OH246654   6.299   1.816  17.103 -0.5157  0.2021 -0.3001
 8388TIP3    H146655   6.234   1.817  17.173 -0.4213 -2.7117 -0.0293
 8388TIP3    H246656   6.383   1.820  17.149 -0.4716 -0.4305 -0.3150
 8389TIP3   OH246657   2.448   1.352   5.130  0.9290 -0.1753  0.5122
 8389TIP3    H146658   2.489   1.270   5.156 -0.1262 -0.4001  1.5372
 8389TIP3    H246659   2.418   1.391   5.212 -0.7649  0.0545 -0.1848
 8390TIP3   OH246660   4.670   6.148  12.862  0.1093 -0.7764 -0.3482
 8390TIP3    H146661   4.600   6.148  12.797 -1.2897 -2.4263  1.0414
 8390TIP3    H246662   4.743   6.193  12.819 -1.7407  0.9517 -1.8871
 8391TIP3   OH246663   6.716   6.008  10.583  0.1476  0.2537 -0.4833
 8391TIP3    H146664   6.651   6.039  10.647  2.2202  0.1729  1.7892
 8391TIP3    H246665   6.712   6.073  10.513 -1.6575  0.8226  0.0853
 8392TIP3   OH246666   6.809   3.140   2.451  0.0895  0.0652 -0.1800
 8392TIP3    H146667   6.738   3.087   2.416  1.2828 -1.2882 -0.6544
 8392TIP3    H246668   6.854   3.174   2.373 -0.9724  2.2802  0.1095
 8393TIP3   OH246669   3.253   2.502   5.029  0.1699 -0.3718  0.4532
 8393TIP3    H146670   3.235   2.427   5.087 -0.9877  0.5846  1.3805
 8393TIP3    H246671   3.180   2.501   4.967 -0.4774  0.6332  1.1740
 8394TIP3   OH246672   4.331   6.255  11.375  0.7188 -0.4969  0.0656
 8394TIP3    H146673   4.289   6.203  11.306  1.9902 -0.8581 -0.4681
 8394TIP3    H246674   4.370   6.190  11.434  1.3072 -0.1644  0.0516
 8395TIP3   OH246675   5.152   6.513  15.329 -0.2863 -0.2466  0.5332
 8395TIP3    H146676   5.120   6.496  15.240 -1.4856  0.1488  0.8697
 8395TIP3    H246677   5.245   6.488  15.327  0.0586  0.9847 -1.1981
 8396TIP3   OH246678   0.980   3.247  12.212 -0.1723 -0.2986  0.2248
 8396TIP3    H146679   0.926   3.214  12.141  0.5107  0.1967 -0.5516
 8396TIP3    H246680   0.999   3.170  12.267  1.1019 -1.1703 -1.3416
 8397TIP3   OH246681   1.569   2.869   0.696  0.0502  0.1477  0.2606
 8397TIP3    H146682   1.557   2.964   0.698 -2.6618 -0.1069  0.1453
 8397TIP3    H246683   1.482   2.835   0.675  1.3759 -2.3052 -1.6628
 8398TIP3   OH246684   3.773   1.265   3.008  0.1410 -0.0881 -0.2354
 8398TIP3    H146685   3.745   1.202   3.075  0.3227  0.7952  0.7013
 8398TIP3    H246686   3.719   1.246   2.932 -0.6440 -0.5910  0.4407
 8399TIP3   OH246687   6.138   1.667   3.035 -0.0134 -0.0991 -0.0131
 8399TIP3    H146688   6.074   1.597   3.044  0.0139 -0.0552  0.5489
 8399TIP3    H246689   6.221   1.628   3.061  0.0184  0.1096  0.2085
 8400TIP3   OH246690   4.958   6.027   4.801 -0.0900  0.2837  0.0274
 8400TIP3    H146691   5.015   5.997   4.872 -2.5937 -2.8209  0.9852
 8400TIP3    H246692   4.953   5.952   4.742 -4.2889 -0.3151  0.8459
 8401TIP3   OH246693   6.672   4.327   4.252  0.0021 -0.7626  0.0710
 8401TIP3    H146694   6.702   4.417   4.237 -0.7679 -0.7223 -1.3238
 8401TIP3    H246695   6.735   4.292   4.314  0.7259  0.5181  0.1084
 8402TIP3   OH246696   4.942   2.402   2.356 -0.7939 -0.3124  0.1425
 8402TIP3    H146697   4.888   2.328   2.383 -1.0295 -0.5681 -1.0035
 8402TIP3    H246698   4.883   2.458   2.306 -0.6695  0.7693  1.1758
 8403TIP3   OH246699   5.598   2.176  11.317 -0.0594  0.0373 -0.1134
 8403TIP3    H146700   5.578   2.255  11.267 -0.2713 -0.3087 -0.5880
 8403TIP3    H246701   5.527   2.169  11.380  0.9793  1.2847  1.2543
 8404TIP3   OH246702   0.939   1.176   6.325 -0.3619  0.0597 -0.7378
 8404TIP3    H146703   0.908   1.148   6.412 -0.5356  2.0135 -0.1217
 8404TIP3    H246704   0.881   1.132   6.264 -0.1047 -1.5332  0.1021
 8405TIP3   OH246705   6.024   0.862  16.445  0.2699  0.6216 -0.0692
 8405TIP3    H146706   6.095   0.806  16.412 -0.0580 -0.5590  1.1199
 8405TIP3    H246707   6.029   0.941  16.392  1.0198 -0.3651 -1.5560
 8406TIP3   OH246708   2.551   6.095  10.601  0.0028 -0.1281  0.2862
 8406TIP3    H146709   2.609   6.136  10.537 -1.6640  1.0137 -0.5666
 8406TIP3    H246710   2.567   6.001  10.592  0.1475  0.0449 -1.4904
 8407TIP3   OH246711   0.205   0.474  17.185  0.1998 -0.6245  0.2927
 8407TIP3    H146712   0.120   0.498  17.221 -0.0956 -0.8476 -0.2472
 8407TIP3    H246713   0.204   0.509  17.096  0.4302 -1.1742  0.0729
 8408TIP3   OH246714   5.131   4.578   2.482  0.1785 -0.5852  0.0484
 8408TIP3    H146715   5.046   4.545   2.455 -1.3677  3.2154 -0.4085
 8408TIP3    H246716   5.174   4.602   2.399  0.7462 -0.4719  0.3708
 8409TIP3   OH246717   1.129   0.169   5.313  0.4838  0.1485 -0.3660
 8409TIP3    H146718   1.128   0.082   5.273  0.0747  0.9760 -2.2499
 8409TIP3    H246719   1.209   0.170   5.366  0.4225 -1.4012 -0.2060
 8410TIP3   OH246720   6.818   4.711   2.588  0.1846 -0.0046  0.3476
 8410TIP3    H146721   6.832   4.785   2.529  0.7901  0.5087  1.1096
 8410TIP3    H246722   6.903   4.668   2.594 -0.4633 -1.5836 -1.1220
 8411TIP3   OH246723   3.810   1.639  15.992 -0.2887 -0.0501 -0.6109
 8411TIP3    H146724   3.729   1.610  16.033 -0.5668 -0.4880 -1.4548
 8411TIP3    H246725   3.819   1.585  15.914  0.1626  0.8588 -1.2070
 8412TIP3   OH246726   2.601   2.621  16.880  0.2428 -0.1966 -0.1571
 8412TIP3    H146727   2.593   2.712  16.911 -3.2946 -1.5202  3.7326
 8412TIP3    H246728   2.664   2.582  16.941  0.8171 -0.6613 -1.0371
 8413TIP3   OH246729   5.625   5.906   3.491 -0.2236  0.2716 -0.2297
 8413TIP3    H146730   5.569   5.857   3.430 -0.8906  0.1405  0.4720
 8413TIP3    H246731   5.565   5.963   3.539 -0.3327 -2.1200  2.8033
 8414TIP3   OH246732   5.773   2.142  13.378 -0.4849 -0.0402 -0.3047
 8414TIP3    H146733   5.723   2.154  13.296  0.0474 -2.4798 -1.0814
 8414TIP3    H246734   5.715   2.088  13.432 -0.0706 -0.0007  0.1743
 8415TIP3   OH246735   6.119   3.409   5.440 -0.1995 -0.2897  0.1517
 8415TIP3    H146736   6.196   3.450   5.480 -1.7524  1.1557  1.8448
 8415TIP3    H246737   6.081   3.356   5.510 -2.5008  1.5993  0.4626
 8416TIP3   OH246738   1.743   3.066  12.426  0.7348  0.0152 -0.3259
 8416TIP3    H146739   1.792   3.141  12.459  0.4344 -0.1718  0.5668
 8416TIP3    H246740   1.690   3.101  12.355  0.1311  0.7949  0.4832
 8417TIP3   OH246741   5.227   1.628   1.198  0.4621  0.2165  0.1729
 8417TIP3    H146742   5.284   1.649   1.125  2.0184  1.3579  1.6463
 8417TIP3    H246743   5.267   1.552   1.240 -0.1938 -0.1876  0.0839
 8418TIP3   OH246744   3.464   0.739   2.242 -0.3018 -0.0173 -0.3146
 8418TIP3    H146745   3.459   0.809   2.307  0.7098 -0.9153  0.7712
 8418TIP3    H246746   3.389   0.682   2.262  0.3380 -0.6033  0.4579
 8419TIP3   OH246747   4.440   4.425   2.862  0.2062 -0.0486  0.2529
 8419TIP3    H146748   4.516   4.377   2.828 -0.1732  0.9838 -2.2657
 8419TIP3    H246749   4.370   4.360   2.865  1.0623 -0.9770  2.4740
 8420TIP3   OH246750   5.961   5.688  12.410 -0.3946  0.1732  0.0790
 8420TIP3    H146751   6.036   5.630  12.398  0.2524  0.3354  2.8393
 8420TIP3    H246752   5.915   5.654  12.486 -4.0619 -0.7693 -2.3131
 8421TIP3   OH246753   3.800   5.684  12.985 -0.0843 -0.5059 -0.7426
 8421TIP3    H146754   3.815   5.657  12.894  0.3738  0.0149 -0.8204
 8421TIP3    H246755   3.704   5.693  12.992 -0.0640  0.3323 -1.4270
 8422TIP3   OH246756   0.957   4.191  14.326 -0.2633 -0.0709  0.0994
 8422TIP3    H146757   0.909   4.111  14.308 -0.1262  0.3764 -2.8917
 8422TIP3    H246758   0.972   4.229  14.239 -1.7245  4.0280  1.4201
 8423TIP3   OH246759   6.024   0.018  14.859  0.1918 -0.1493  0.5464
 8423TIP3    H146760   5.931   0.027  14.880 -0.1507 -0.4730 -0.7575
 8423TIP3    H246761   6.050  -0.064  14.902  0.2376  0.5952  2.0241
 8424TIP3   OH246762   6.300   4.580   2.239 -0.1698 -0.0644 -0.0934
 8424TIP3    H146763   6.300   4.669   2.204  2.3249 -0.0278 -0.1353
 8424TIP3    H246764   6.275   4.590   2.331 -1.0794  0.5160 -0.3914
 8425TIP3   OH246765   3.102   3.853   6.488  0.1800  0.3313 -0.2920
 8425TIP3    H146766   3.193   3.834   6.466  0.1559  1.5950 -1.5219
 8425TIP3    H246767   3.064   3.766   6.503  1.3769 -0.2648 -0.5182
 8426TIP3   OH246768   0.426   1.430   5.322  0.2186 -0.1609  0.0320
 8426TIP3    H146769   0.395   1.448   5.410  0.9656  1.4702 -0.0162
 8426TIP3    H246770   0.380   1.349   5.297 -1.8532  0.6549  0.9715
 8427TIP3   OH246771   2.348   5.041  16.692 -0.2697  0.2120 -0.1629
 8427TIP3    H146772   2.309   5.096  16.761  0.0809  0.0479  0.1698
 8427TIP3    H246773   2.293   4.963  16.689 -0.0807  0.0649  0.1734
 8428TIP3   OH246774   4.768   1.044  11.694 -0.0842 -0.0284 -0.3535
 8428TIP3    H146775   4.677   1.067  11.674 -0.2818  0.8844  1.3605
 8428TIP3    H246776   4.819   1.085  11.624 -0.9192  0.4770 -0.6791
 8429TIP3   OH246777   2.045   2.780  15.230 -0.7991  0.1844  0.0692
 8429TIP3    H146778   2.049   2.861  15.282  0.0575  1.7886 -2.3360
 8429TIP3    H246779   2.023   2.809  15.142  1.3296 -1.9790 -1.3059
 8430TIP3   OH246780   5.515   1.858  12.043  0.5095 -0.3920  0.6156
 8430TIP3    H146781   5.423   1.879  12.026 -0.0967 -2.4048  1.1694
 8430TIP3    H246782   5.555   1.943  12.061 -1.2903  0.5109  0.6710
 8431TIP3   OH246783   4.384   3.568   4.227  0.1908  0.1249  0.0268
 8431TIP3    H146784   4.388   3.625   4.150 -1.2729 -1.6848 -1.4674
 8431TIP3    H246785   4.376   3.480   4.192 -0.2627 -0.8024  2.2732
 8432TIP3   OH246786   3.132   5.768  16.223 -0.3878  0.6555 -0.1682
 8432TIP3    H146787   3.214   5.803  16.255 -0.9415  3.7565 -1.7342
 8432TIP3    H246788   3.065   5.804  16.281 -0.9707  2.2408 -1.7408
 8433TIP3   OH246789   2.894   2.830   4.809  0.1382  0.2979  0.1260
 8433TIP3    H146790   2.837   2.815   4.885  1.3228  0.0988  1.0152
 8433TIP3    H246791   2.939   2.746   4.796 -0.5922  0.0963 -1.2993
 8434TIP3   OH246792   6.427   1.821   4.010 -0.5750  0.6748  0.0949
 8434TIP3    H146793   6.519   1.844   4.004 -0.1536 -1.0779 -0.8853
 8434TIP3    H246794   6.417   1.785   4.098 -0.0461 -0.1122 -0.1512
 8435TIP3   OH246795   2.959   3.291  14.682  0.1749 -0.1461 -0.2544
 8435TIP3    H146796   2.994   3.360  14.738  0.8602 -0.4771 -0.2687
 8435TIP3    H246797   3.035   3.254  14.639 -0.0519 -1.6655  0.5928
 8436TIP3   OH246798   6.743   3.073   0.751  0.1073  0.6217  0.0359
 8436TIP3    H146799   6.720   3.150   0.802 -0.0301  1.3367 -1.0842
 8436TIP3    H246800   6.832   3.051   0.779 -0.4267  0.1804  1.5343
 8437TIP3   OH246801   0.385   1.281  17.014 -0.2915  0.3445 -0.1372
 8437TIP3    H146802   0.332   1.318  16.943 -1.0539 -0.3601  0.0471
 8437TIP3    H246803   0.376   1.343  17.086  0.5107  1.0810 -0.6539
 8438TIP3   OH246804   0.085   6.495  14.053 -0.2758 -0.1105  0.1556
 8438TIP3    H146805   0.165   6.450  14.080 -0.6896 -2.4399 -2.0976
 8438TIP3    H246806   0.016   6.429  14.063 -1.5108  1.0922 -0.1411
 8439TIP3   OH246807   2.326   6.584   5.289 -0.6681  0.5886  0.1869
 8439TIP3    H146808   2.346   6.510   5.346 -1.4075 -1.4474 -2.0442
 8439TIP3    H246809   2.266   6.638   5.340 -3.3751 -2.4697  0.5215
 8440TIP3   OH246810   1.638   6.351   0.974 -0.5453 -0.5818  0.1700
 8440TIP3    H146811   1.636   6.268   1.022  1.5160 -0.7664  0.0215
 8440TIP3    H246812   1.643   6.326   0.882  2.5040 -0.4302  0.2035
 8441TIP3   OH246813   0.506   1.141   0.924  0.2123 -0.0985  0.2139
 8441TIP3    H146814   0.587   1.094   0.941 -0.0904  0.3184  3.4604
 8441TIP3    H246815   0.466   1.094   0.850  2.5331 -1.3964 -0.3125
 8442TIP3   OH246816   4.811   2.468  17.111 -0.2351 -0.3522 -0.3382
 8442TIP3    H146817   4.730   2.519  17.102 -1.3103 -2.1473 -1.3552
 8442TIP3    H246818   4.860   2.487  17.031  0.5518  0.9729  0.4128
 8443TIP3   OH246819   1.646   0.858   6.346 -0.5637 -0.3852 -0.0297
 8443TIP3    H146820   1.584   0.868   6.274  0.2991 -1.0932 -0.9047
 8443TIP3    H246821   1.653   0.763   6.359  0.6609 -0.3494 -0.2706
 8444TIP3   OH246822   0.456   2.632   2.561  0.2776 -0.5823 -0.0760
 8444TIP3    H146823   0.395   2.603   2.629 -1.5382  0.7918 -1.0144
 8444TIP3    H246824   0.540   2.637   2.605 -1.1404  2.2597  2.7450
 8445TIP3   OH246825   6.233   1.928   6.402  0.1202 -0.0352  0.2405
 8445TIP3    H146826   6.144   1.893   6.399 -0.4855  1.2010  2.0560
 8445TIP3    H246827   6.287   1.860   6.362 -1.8421  0.0822 -2.9018
 8446TIP3   OH246828   2.023   3.503   1.765 -0.1383  1.1632  0.5209
 8446TIP3    H146829   2.111   3.478   1.795 -0.0198 -0.7627 -1.1737
 8446TIP3    H246830   2.036   3.530   1.674 -1.3752  0.2473  0.0474
 8447TIP3   OH246831   5.864   0.672  13.728 -0.2963 -0.1343  0.0975
 8447TIP3    H146832   5.903   0.750  13.768 -0.4033  0.3219 -0.6588
 8447TIP3    H246833   5.923   0.601  13.751 -0.1671  0.1818  0.7554
 8448TIP3   OH246834   3.294   0.609   5.288 -0.1203 -0.2627 -0.7902
 8448TIP3    H146835   3.315   0.668   5.360  0.9937 -0.7400 -0.7121
 8448TIP3    H246836   3.378   0.588   5.248 -0.4715 -1.8743 -0.7488
 8449TIP3   OH246837   1.148   2.889  11.403 -0.4272  0.5986  0.4594
 8449TIP3    H146838   1.216   2.949  11.433 -0.7971  1.7655 -0.9441
 8449TIP3    H246839   1.090   2.878  11.478 -0.5891  2.3467  0.6162
 8450TIP3   OH246840   5.302   0.336   2.054  0.4005 -0.0208  0.5424
 8450TIP3    H146841   5.376   0.369   2.105  0.2338 -0.3976  1.0359
 8450TIP3    H246842   5.260   0.272   2.111  0.5442 -0.8763 -0.2868
 8451TIP3   OH246843   1.144   6.325  16.781  0.3745  0.2427  0.6019
 8451TIP3    H146844   1.127   6.403  16.834 -0.1315  1.2192 -0.8946
 8451TIP3    H246845   1.132   6.355  16.691  2.0945 -1.1023 -0.1368
 8452TIP3   OH246846   5.961   6.149   4.612 -0.1902  0.3223  0.3550
 8452TIP3    H146847   6.009   6.177   4.690  0.2817 -1.7055  0.8290
 8452TIP3    H246848   5.869   6.164   4.633 -0.0029  0.7877  0.8627
 8453TIP3   OH246849   5.949   5.330   2.216 -0.1197  0.4853 -0.1844
 8453TIP3    H146850   5.950   5.259   2.280  0.4764 -0.0329 -0.7508
 8453TIP3    H246851   5.933   5.409   2.267  4.0879  0.6547  1.1950
 8454TIP3   OH246852   6.525   2.197  15.084  0.3902 -0.7575  0.2593
 8454TIP3    H146853   6.561   2.236  15.164  0.1684 -0.3636  0.1701
 8454TIP3    H246854   6.433   2.180  15.105  0.0056  0.5270 -0.3279
 8455TIP3   OH246855   1.057   6.591  11.711  0.2413 -0.0674  0.1853
 8455TIP3    H146856   1.023   6.527  11.648 -0.1251  0.8091 -0.5202
 8455TIP3    H246857   1.009   6.671  11.693  0.1144  0.2038  1.6159
 8456TIP3   OH246858   1.740   6.178  14.469  1.3471 -0.6342  0.1486
 8456TIP3    H146859   1.824   6.138  14.493  1.1073 -0.9473  0.4904
 8456TIP3    H246860   1.679   6.104  14.466  0.9530 -0.3321  0.5119
 8457TIP3   OH246861   4.826   2.080   5.868 -0.0827 -0.0872 -0.3016
 8457TIP3    H146862   4.745   2.125   5.843  0.3903  0.2505 -1.2645
 8457TIP3    H246863   4.851   2.119   5.952  0.2913  1.4314 -1.0933
 8458TIP3   OH246864   5.014   5.381   5.637 -1.3961 -0.2019  0.3690
 8458TIP3    H146865   5.034   5.288   5.628  1.3320  0.3395 -0.2399
 8458TIP3    H246866   5.029   5.400   5.729 -0.9364 -0.1891  0.2952
 8459TIP3   OH246867   3.934   3.070   1.917 -0.2828  0.3838 -0.7089
 8459TIP3    H146868   3.867   3.002   1.913  0.1929 -0.1094 -0.4752
 8459TIP3    H246869   3.963   3.080   1.827  1.0264 -1.1497 -0.5000
 8460TIP3   OH246870   1.936   6.386   6.194 -0.8596 -0.2229  0.1722
 8460TIP3    H146871   2.013   6.338   6.225  0.6323  2.3625  0.7312
 8460TIP3    H246872   1.869   6.368   6.260  0.2066 -0.1590  1.3162
 8461TIP3   OH246873   1.020   3.135  16.623 -0.1291 -0.0981  0.5984
 8461TIP3    H146874   0.981   3.221  16.637  0.4857  0.1191  1.0288
 8461TIP3    H246875   1.093   3.151  16.563 -1.0603 -0.5997 -0.7097
 8462TIP3   OH246876   4.621   2.763   4.804  0.0823  0.1534 -0.4295
 8462TIP3    H146877   4.683   2.699   4.838  0.0593 -0.7638 -1.9841
 8462TIP3    H246878   4.556   2.710   4.757 -0.4904  1.2604 -0.9232
 8463TIP3   OH246879   6.247   5.633   3.742  0.0883 -0.1376  0.4561
 8463TIP3    H146880   6.236   5.674   3.828 -0.5390 -2.0225  1.3262
 8463TIP3    H246881   6.301   5.555   3.759  0.6481 -0.1173 -1.0104
 8464TIP3   OH246882   6.238   5.530   1.068  0.1955  0.3917  0.4383
 8464TIP3    H146883   6.259   5.621   1.087  1.9319  0.0985  0.0532
 8464TIP3    H246884   6.215   5.492   1.153  2.2246  0.5242  1.1005
 8465TIP3   OH246885   0.664   3.445  10.969 -0.4881 -0.8797 -0.3820
 8465TIP3    H146886   0.626   3.512  10.913 -0.3425 -1.2420 -0.9296
 8465TIP3    H246887   0.718   3.493  11.031 -0.8838 -0.4502 -0.3657
 8466TIP3   OH246888   0.803   1.364   1.275  0.0601 -0.4505  0.1324
 8466TIP3    H146889   0.826   1.364   1.182  1.2044  0.7011  0.3887
 8466TIP3    H246890   0.881   1.400   1.319 -0.5663 -0.7213  1.5020
 8467TIP3   OH246891   5.235   1.834   0.022 -0.8827  0.1490  0.1593
 8467TIP3    H146892   5.192   1.883   0.091  0.2586 -0.3648  1.2920
 8467TIP3    H246893   5.231   1.743   0.051  0.0614 -0.0174 -0.1706
 8468TIP3   OH246894   3.057   1.738  11.952  0.0757 -0.1742 -0.4887
 8468TIP3    H146895   3.101   1.732  12.036 -1.5065 -0.3526  0.3523
 8468TIP3    H246896   3.107   1.805  11.904  1.3782 -0.5263  0.3141
 8469TIP3   OH246897   3.680   0.347  16.073  0.1155  0.2349 -0.2246
 8469TIP3    H146898   3.670   0.263  16.116 -1.0090 -0.2477 -1.3600
 8469TIP3    H246899   3.701   0.409  16.143 -1.1677 -0.5977  0.9226
 8470TIP3   OH246900   5.587   2.761  11.405 -0.0440 -0.2634  0.4301
 8470TIP3    H146901   5.638   2.809  11.340 -1.5464 -1.2854 -1.6163
 8470TIP3    H246902   5.644   2.756  11.481  1.8971  0.8056 -0.8624
 8471TIP3   OH246903   0.519   2.268   4.511  0.0147  0.0441  0.6036
 8471TIP3    H146904   0.571   2.208   4.458 -1.0104 -0.9239  0.6423
 8471TIP3    H246905   0.448   2.213   4.546 -2.2694  1.6668 -1.1244
 8472TIP3   OH246906   3.860   0.678   2.043 -0.2184  0.5259 -0.0172
 8472TIP3    H146907   3.808   0.645   1.969 -3.0684  1.1507  1.5739
 8472TIP3    H246908   3.836   0.620   2.116  0.1943  1.7492  1.1145
 8473TIP3   OH246909   3.236   1.587   4.979  0.0855  0.2560  0.5557
 8473TIP3    H146910   3.319   1.545   5.003 -0.3812 -1.3944 -0.5452
 8473TIP3    H246911   3.227   1.659   5.041  1.9878  0.0395  1.1557
 8474TIP3   OH246912   0.159   4.602   4.757 -0.5893 -0.1016 -0.2710
 8474TIP3    H146913   0.109   4.535   4.711 -0.7658  0.0831 -0.3513
 8474TIP3    H246914   0.093   4.651   4.806 -0.4132 -0.2383  0.1022
 8475TIP3   OH246915   4.540   2.682  14.794  0.4860 -0.1540  0.1001
 8475TIP3    H146916   4.581   2.597  14.780 -0.2250 -1.0682  2.8741
 8475TIP3    H246917   4.485   2.670  14.872 -1.7175  2.1529 -0.9449
 8476TIP3   OH246918   4.632   5.719  17.195  0.1071  0.7565 -0.0298
 8476TIP3    H146919   4.567   5.688  17.259  0.3804 -0.4298 -0.3010
 8476TIP3    H246920   4.713   5.727  17.246  0.5119 -0.9283 -0.3417
 8477TIP3   OH246921   0.146   5.593  15.289  0.0394 -0.3157 -0.0568
 8477TIP3    H146922   0.231   5.610  15.248 -0.4740  0.5087 -0.8285
 8477TIP3    H246923   0.105   5.526  15.235 -1.2915  1.8691 -1.9563
 8478TIP3   OH246924   1.674   1.330  11.809  0.1888  0.3823  0.1177
 8478TIP3    H146925   1.679   1.247  11.856  0.9461  0.6915  0.5948
 8478TIP3    H246926   1.599   1.376  11.847 -0.6706 -0.3708 -0.6333
 8479TIP3   OH246927   5.809   4.419   1.138  0.0946 -0.6255 -0.0875
 8479TIP3    H146928   5.876   4.486   1.151 -1.1008  0.8277 -1.1092
 8479TIP3    H246929   5.789   4.423   1.045 -2.0256 -0.3884  0.3255
 8480TIP3   OH246930   1.195   1.254   2.313  0.0816 -0.4769  0.4334
 8480TIP3    H146931   1.147   1.191   2.366 -1.4042  0.2470  0.0047
 8480TIP3    H246932   1.171   1.234   2.223  0.7272 -0.2093  0.1972
 8481TIP3   OH246933   0.341   2.093   6.201 -0.0854 -0.0199 -0.5218
 8481TIP3    H146934   0.263   2.125   6.157 -0.8012 -1.5798 -0.4860
 8481TIP3    H246935   0.413   2.143   6.164 -1.0247  0.9323 -1.0986
 8482TIP3   OH246936   6.120   6.189   0.794  0.3743 -0.2044  0.5693
 8482TIP3    H146937   6.139   6.228   0.879 -1.2149 -1.0002  1.3402
 8482TIP3    H246938   6.151   6.099   0.800  2.5072  0.3741 -0.6181
 8483TIP3   OH246939   2.603   6.565   1.649  0.1468 -0.2240 -0.4173
 8483TIP3    H146940   2.567   6.652   1.630  0.9752  0.0324 -0.8735
 8483TIP3    H246941   2.535   6.522   1.700 -1.5074 -0.3385 -2.5332
 8484TIP3   OH246942   6.742   0.928  15.466 -0.4039  0.0279 -0.3265
 8484TIP3    H146943   6.695   0.881  15.534 -0.5649 -0.3480 -0.6945
 8484TIP3    H246944   6.828   0.946  15.504 -1.0080  1.2011  0.5506
 8485TIP3   OH246945   5.513   5.012   4.563 -0.3032 -0.3675  0.2861
 8485TIP3    H146946   5.451   4.994   4.492 -1.4587 -0.1251  1.2075
 8485TIP3    H246947   5.475   5.087   4.609  1.2009  0.4465  0.2787
 8486TIP3   OH246948   6.125   2.594   5.528  0.7906 -0.5042 -0.2114
 8486TIP3    H146949   6.090   2.619   5.613  0.8929 -1.1923  0.0382
 8486TIP3    H246950   6.194   2.658   5.510 -0.2752  0.5943 -0.5051
 8487TIP3   OH246951   0.205   1.410  16.850 -0.1131 -0.3330  0.0989
 8487TIP3    H146952   0.109   1.415  16.842 -0.1646 -1.9051 -0.5718
 8487TIP3    H246953   0.233   1.502  16.850 -1.5180  0.1341 -0.9625
 8488TIP3   OH246954   3.023   0.418   2.831  0.0721  0.6010  0.4571
 8488TIP3    H146955   3.103   0.469   2.849  0.4923  0.0199  0.2398
 8488TIP3    H246956   3.011   0.364   2.909  0.7248 -0.3893 -0.1064
 8489TIP3   OH246957   2.193   2.011  10.890  0.1446 -0.4209  0.3377
 8489TIP3    H146958   2.143   2.007  10.971 -0.3971  2.3906  0.2417
 8489TIP3    H246959   2.128   2.001  10.821  0.0933  0.4673  0.2453
 8490TIP3   OH246960   5.871   5.892   0.615  0.1576 -0.4467  0.5631
 8490TIP3    H146961   5.911   5.806   0.602 -1.2444 -1.0633  0.1736
 8490TIP3    H246962   5.820   5.883   0.696 -2.2676 -0.9179 -0.9075
 8491TIP3   OH246963   6.061   4.302   3.146 -0.0030 -0.0862 -0.1520
 8491TIP3    H146964   6.005   4.227   3.166 -1.9763  0.7503 -2.2251
 8491TIP3    H246965   6.093   4.286   3.058  1.4138  0.4729  0.2219
 8492TIP3   OH246966   2.010   2.048  11.122 -0.0181 -0.2193  0.5063
 8492TIP3    H146967   2.086   2.011  11.166  0.3302 -0.1990 -0.0722
 8492TIP3    H246968   1.988   2.126  11.172  0.5473 -0.0391  0.4700
 8493TIP3   OH246969   2.375   2.799   6.899  0.4911 -0.0681  0.7551
 8493TIP3    H146970   2.435   2.812   6.826  2.0160 -1.4408  1.6910
 8493TIP3    H246971   2.290   2.828   6.866  1.0754 -0.8532 -1.6370
 8494TIP3   OH246972   4.621   4.843   5.585  0.1756  0.0960  0.2695
 8494TIP3    H146973   4.577   4.928   5.583 -2.5593 -1.0350  3.1410
 8494TIP3    H246974   4.553   4.781   5.560  1.0337 -1.4883  1.6736
 8495TIP3   OH246975   4.914   3.650   5.401  0.1710 -0.5729 -0.1357
 8495TIP3    H146976   4.926   3.646   5.496 -0.7180  1.0677  0.0860
 8495TIP3    H246977   4.824   3.679   5.390  1.0917  2.1169 -1.3905
 8496TIP3   OH246978   2.513   1.059   3.820 -0.0953  0.3052  0.5624
 8496TIP3    H146979   2.609   1.067   3.822 -0.2104  2.4773  0.3444
 8496TIP3    H246980   2.492   0.999   3.892  1.4096  0.1626  0.9136
 8497TIP3   OH246981   0.508   6.792  11.500  0.4815 -0.5736 -0.6870
 8497TIP3    H146982   0.588   6.844  11.513  0.5423 -0.4606 -1.4378
 8497TIP3    H246983   0.468   6.829  11.421  0.0722 -1.1056 -0.7372
 8498TIP3   OH246984   5.210   1.298  15.389 -0.2288  0.6128 -0.3261
 8498TIP3    H146985   5.237   1.330  15.304 -0.4907 -0.7313 -0.9346
 8498TIP3    H246986   5.115   1.283  15.380  0.1009 -1.6699 -0.5532
 8499TIP3   OH246987   2.490   0.618  14.142  0.0554 -0.1891 -0.2970
 8499TIP3    H146988   2.410   0.571  14.117  0.4180 -0.6559 -0.6054
 8499TIP3    H246989   2.464   0.673  14.216 -0.7268  0.2296 -0.8710
 8500TIP3   OH246990   3.768   2.149  13.215 -0.3845 -0.2252 -0.1467
 8500TIP3    H146991   3.805   2.111  13.295 -0.5975 -1.7417 -0.7333
 8500TIP3    H246992   3.695   2.203  13.246  0.0622 -0.1214  0.7419
 8501TIP3   OH246993   0.006   4.563  12.817  0.4052 -0.2107 -0.3579
 8501TIP3    H146994   0.083   4.509  12.833  0.7728  0.2586 -0.4987
 8501TIP3    H246995   0.039   4.637  12.765  0.0819  0.5814  0.5432
 8502TIP3   OH246996   6.130   2.559   6.653 -0.5165  0.4684  0.1456
 8502TIP3    H146997   6.194   2.623   6.684 -1.0018 -0.0944  2.4897
 8502TIP3    H246998   6.050   2.609   6.639 -0.0146  0.9122 -1.3679
 8503TIP3   OH246999   6.559   2.858  13.148 -0.5173  0.9259 -0.3106
 8503TIP3    H147000   6.575   2.856  13.054 -1.9416  1.1500 -0.5856
 8503TIP3    H247001   6.466   2.880  13.156 -1.3373 -2.3881  1.0558
 8504TIP3   OH247002   2.408   4.993   1.740  0.5305  0.3540  0.0802
 8504TIP3    H147003   2.388   5.074   1.695 -1.0667  0.5847  1.1324
 8504TIP3    H247004   2.497   4.971   1.711 -0.1826  0.7559 -2.6828
 8505TIP3   OH247005   6.396   5.706  14.167  0.1135  0.5550  0.7717
 8505TIP3    H147006   6.471   5.662  14.207  1.6088 -1.2211 -3.4384
 8505TIP3    H247007   6.326   5.640  14.168  1.0380 -0.6060 -1.7283
 8506TIP3   OH247008   2.373   3.803  13.320  0.4831  0.6369 -0.1809
 8506TIP3    H147009   2.324   3.852  13.254  0.8273  1.0093 -0.1621
 8506TIP3    H247010   2.406   3.870  13.380 -1.3645  0.1805  1.4358
 8507TIP3   OH247011   3.882   4.964  11.358 -0.0189 -0.6326 -0.3201
 8507TIP3    H147012   3.909   5.054  11.375  0.5732 -0.6123 -1.2927
 8507TIP3    H247013   3.787   4.965  11.370  0.2304 -0.4202  1.9277
 8508TIP3   OH247014   1.743   5.862   5.391 -0.2192  0.8322  0.4940
 8508TIP3    H147015   1.825   5.911   5.395  0.8765 -0.9613  1.9234
 8508TIP3    H247016   1.737   5.833   5.300 -1.0275  3.6641 -0.4473
 8509TIP3   OH247017   5.505   5.916   2.315 -0.1107 -0.8180 -0.4196
 8509TIP3    H147018   5.596   5.936   2.294  0.3513 -2.9257 -0.5942
 8509TIP3    H247019   5.463   6.002   2.323  1.5586  0.1782 -1.7181
 8510TIP3   OH247020   3.183   1.307  10.197  0.4418  0.3115 -0.8117
 8510TIP3    H147021   3.105   1.292  10.144 -0.0723 -1.4372  0.3494
 8510TIP3    H247022   3.149   1.338  10.281  1.1863  2.0579 -1.0983
 8511TIP3   OH247023   0.039   3.714   4.719 -0.2786  0.4652 -0.4137
 8511TIP3    H147024   0.080   3.702   4.805 -1.2714 -0.0344  0.0114
 8511TIP3    H247025   0.101   3.768   4.670  0.4947  0.4139  0.4760
 8512TIP3   OH247026   0.779   6.788  14.392  0.4832  0.5764  0.7129
 8512TIP3    H147027   0.822   6.860  14.438 -1.0837  1.5432  0.7481
 8512TIP3    H247028   0.690   6.788  14.426 -0.4950  0.7593 -1.6205
 8513TIP3   OH247029   1.775   0.985   2.371  0.1406  0.2192 -0.4622
 8513TIP3    H147030   1.727   0.927   2.431 -0.7734  1.2259 -0.1868
 8513TIP3    H247031   1.852   1.012   2.421 -1.1915  1.9760  0.7852
 8514TIP3   OH247032   0.685   5.715   3.655 -0.3082  0.5729 -0.3113
 8514TIP3    H147033   0.672   5.631   3.610  1.6619 -0.2875  0.6015
 8514TIP3    H247034   0.618   5.715   3.724 -1.0095  0.2666 -0.9638
 8515TIP3   OH247035   4.296   4.317   0.537 -0.1731  0.6341  0.1354
 8515TIP3    H147036   4.205   4.324   0.564 -0.6971 -0.8959 -1.0959
 8515TIP3    H247037   4.311   4.223   0.526  1.4626  0.8800  0.0132
 8516TIP3   OH247038   5.258   0.932  10.565 -0.2261 -0.1654  0.4657
 8516TIP3    H147039   5.177   0.981  10.551  0.3220  0.2959 -1.2357
 8516TIP3    H247040   5.252   0.859  10.504  1.0963  0.4646 -0.4528
 8517TIP3   OH247041   1.769   3.593  13.245  0.3510 -0.1737 -0.4542
 8517TIP3    H147042   1.834   3.629  13.184  0.1854 -1.1386 -1.2331
 8517TIP3    H247043   1.692   3.649  13.232  0.1132 -0.7318 -1.6087
 8518TIP3   OH247044   1.574   5.153   5.690 -0.0119  0.9139  0.4157
 8518TIP3    H147045   1.563   5.242   5.656 -2.1108  0.4105 -0.3407
 8518TIP3    H247046   1.544   5.096   5.620  1.1194 -0.4175  0.9673
 8519TIP3   OH247047   4.863   4.167   3.401 -0.3957  0.5453 -0.1249
 8519TIP3    H147048   4.767   4.161   3.399 -0.3176 -2.0325  0.3201
 8519TIP3    H247049   4.893   4.085   3.363  1.6746  1.3964 -0.4679
 8520TIP3   OH247050   6.547   1.090  15.765 -0.4688 -0.4301  0.4538
 8520TIP3    H147051   6.530   1.170  15.815  0.1970 -1.1745  1.9173
 8520TIP3    H247052   6.625   1.052  15.805 -1.5938 -2.5797  0.7710
 8521TIP3   OH247053   3.806   6.398   5.117  0.1030  0.1321 -0.2069
 8521TIP3    H147054   3.858   6.320   5.136  0.6651  0.7495  0.8760
 8521TIP3    H247055   3.718   6.364   5.099  0.6283 -0.8381 -1.0744
 8522TIP3   OH247056   4.958   3.293   3.384 -0.1890  0.3486 -0.3346
 8522TIP3    H147057   4.878   3.240   3.384  0.5967 -0.8733 -0.2995
 8522TIP3    H247058   4.953   3.343   3.466 -0.6219 -0.1847 -0.0248
 8523TIP3   OH247059   0.340   5.549   2.530 -0.1524  0.1782 -0.2381
 8523TIP3    H147060   0.324   5.604   2.453  1.6002 -0.4460 -1.0781
 8523TIP3    H247061   0.426   5.576   2.562 -0.3680 -0.3549  0.8382
 8524TIP3   OH247062   1.514   2.553   4.847 -0.5755 -0.3686 -0.0512
 8524TIP3    H147063   1.589   2.502   4.879 -1.6687 -1.0138  1.5943
 8524TIP3    H247064   1.464   2.490   4.795 -0.1820 -0.0318 -0.8532
 8525TIP3   OH247065   0.686   2.133  14.172 -0.1847 -0.5235  0.2006
 8525TIP3    H147066   0.642   2.216  14.192 -0.4189  0.3509 -3.1783
 8525TIP3    H247067   0.615   2.074  14.148  0.1326 -0.8835  0.1456
 8526TIP3   OH247068   4.905   3.934  16.688 -0.7766  0.0916  0.3014
 8526TIP3    H147069   4.965   4.005  16.667 -1.6909  0.4545 -1.2052
 8526TIP3    H247070   4.895   3.938  16.783  2.0164 -0.3781  0.7018
 8527TIP3   OH247071   4.415   1.787  13.821  0.1456 -0.0210  0.5869
 8527TIP3    H147072   4.363   1.848  13.873  0.9297  0.6319  0.6143
 8527TIP3    H247073   4.460   1.842  13.757 -0.0466 -0.7014 -0.1605
 8528TIP3   OH247074   2.641   5.011   3.889  0.1862  0.4090  0.3594
 8528TIP3    H147075   2.627   4.927   3.845  1.7692 -0.0959  0.7497
 8528TIP3    H247076   2.579   5.011   3.961 -0.1482 -0.2263  0.0851
 8529TIP3   OH247077   0.495   3.109  15.485  0.2829 -0.6895 -0.1453
 8529TIP3    H147078   0.558   3.108  15.558 -1.0974  1.5106  1.1983
 8529TIP3    H247079   0.497   3.020  15.450  1.6747 -1.5761  1.9764
 8530TIP3   OH247080   5.166   6.028   2.601 -0.2595 -0.1318 -0.1438
 8530TIP3    H147081   5.092   6.087   2.587 -0.1749 -0.0444 -0.2199
 8530TIP3    H247082   5.151   5.955   2.540 -0.9912 -0.7769  0.7757
 8531TIP3   OH247083   0.425   5.075  13.891  0.3812 -0.8342 -0.6578
 8531TIP3    H147084   0.460   5.057  13.804  0.5970 -1.2794 -0.4811
 8531TIP3    H247085   0.445   4.997  13.942  1.2314 -0.1508  0.1002
 8532TIP3   OH247086   1.448   3.857   2.320  0.3691  0.2827 -0.2004
 8532TIP3    H147087   1.381   3.798   2.285  1.7234 -0.6268 -1.3395
 8532TIP3    H247088   1.525   3.802   2.331  1.1969  1.5046  0.2488
 8533TIP3   OH247089   6.670   6.053  11.408  0.5289 -0.1295 -0.0596
 8533TIP3    H147090   6.657   5.968  11.368  0.7204  0.0848 -0.5952
 8533TIP3    H247091   6.694   6.111  11.334 -0.2046  0.5194  0.2013
 8534TIP3   OH247092   0.749   2.266  16.919 -0.7362 -0.1806  0.3549
 8534TIP3    H147093   0.671   2.210  16.920 -0.8454 -0.1881 -2.1452
 8534TIP3    H247094   0.716   2.353  16.894 -0.2115  0.3881  1.5485
 8535TIP3   OH247095   5.215   4.179  13.822  0.6728 -0.3498 -0.1245
 8535TIP3    H147096   5.230   4.095  13.777 -0.8289  0.2150 -1.8061
 8535TIP3    H247097   5.120   4.183  13.833  0.8844  0.1855  1.9640
 8536TIP3   OH247098   0.969   2.376  14.990 -0.1186  0.0777 -0.2966
 8536TIP3    H147099   0.959   2.389  15.084 -0.5791 -0.4679 -0.2631
 8536TIP3    H247100   1.054   2.333  14.980  0.3016  0.8756 -0.2051
 8537TIP3   OH247101   6.241   6.192  14.482  0.2828 -0.1492  0.2477
 8537TIP3    H147102   6.192   6.218  14.560 -0.0822  1.2445 -0.4073
 8537TIP3    H247103   6.203   6.246  14.412  3.4539  1.8781 -0.1160
 8538TIP3   OH247104   4.831   5.718   1.229  0.6026  0.4193  0.1125
 8538TIP3    H147105   4.926   5.730   1.220  0.4954  2.1493  0.9789
 8538TIP3    H247106   4.815   5.726   1.323 -0.4768  0.6826 -0.0855
 8539TIP3   OH247107   4.304   4.621  10.511  0.2962 -0.6337 -0.7317
 8539TIP3    H147108   4.282   4.544  10.564 -0.1095  0.0905  0.2018
 8539TIP3    H247109   4.394   4.641  10.534 -0.2056  0.3162  0.5711
 8540TIP3   OH247110   1.113   6.385  12.059 -0.4755 -0.0652 -0.2551
 8540TIP3    H147111   1.028   6.406  12.099 -0.1596 -0.1351  0.4773
 8540TIP3    H247112   1.112   6.290  12.050 -0.1694 -0.1526  0.5022
 8541TIP3   OH247113   1.376   0.400  12.847  0.8132 -0.4943  0.0936
 8541TIP3    H147114   1.466   0.392  12.878  0.2789 -0.8186  1.6229
 8541TIP3    H247115   1.355   0.492  12.859  0.7084 -0.5594  0.4185
 8542TIP3   OH247116   2.678   6.084  13.984  0.2526 -0.1082 -0.4356
 8542TIP3    H147117   2.724   6.073  14.067 -1.5786  0.7260  0.7468
 8542TIP3    H247118   2.586   6.065  14.005 -0.1776 -0.3607 -2.3972
 8543TIP3   OH247119   4.156   3.240  15.262  0.0369  0.2426 -0.2644
 8543TIP3    H147120   4.174   3.188  15.184  1.2994  0.4736 -0.1545
 8543TIP3    H247121   4.103   3.313  15.230  0.3190  0.1955 -0.8649
 8544TIP3   OH247122   4.951   0.161  16.294 -0.1065  0.5715  0.3030
 8544TIP3    H147123   4.963   0.068  16.276 -1.0300  0.8552 -2.1246
 8544TIP3    H247124   5.010   0.205  16.232  1.2231  1.6406  2.2223
 8545TIP3   OH247125   1.243   5.882  16.461 -0.1296 -0.6329  0.1601
 8545TIP3    H147126   1.153   5.898  16.433  0.4167  0.9619 -0.8242
 8545TIP3    H247127   1.290   5.857  16.382  1.1098  2.4777 -0.2412
 8546TIP3   OH247128   4.742   6.155   6.527  0.0410  0.5302 -0.5799
 8546TIP3    H147129   4.811   6.180   6.466  0.0743 -0.0204 -0.7765
 8546TIP3    H247130   4.749   6.060   6.534 -1.6810  0.2605 -1.8165
 8547TIP3   OH247131   4.183   5.951  14.702  0.0586  0.5739  0.3721
 8547TIP3    H147132   4.240   5.891  14.654  0.9795  1.1325  0.7241
 8547TIP3    H247133   4.182   5.917  14.792 -2.6696 -1.1927 -0.2309
 8548TIP3   OH247134   6.591   4.020  14.167 -0.1013  0.1121 -0.2302
 8548TIP3    H147135   6.683   4.033  14.148 -0.0816  1.2850  0.5408
 8548TIP3    H247136   6.545   4.057  14.091  0.0497  0.5486 -0.1104
 8549TIP3   OH247137   3.325   1.618   4.527 -0.2112 -0.3295  0.2267
 8549TIP3    H147138   3.248   1.624   4.584  0.4115 -1.2096  1.2043
 8549TIP3    H247139   3.314   1.690   4.465 -1.9919 -0.6591  0.1134
 8550TIP3   OH247140   1.284   2.138   0.824 -0.6160  0.0421 -0.6239
 8550TIP3    H147141   1.347   2.182   0.767 -0.6742  0.6936 -0.1893
 8550TIP3    H247142   1.220   2.100   0.763  0.0447 -0.4155 -1.0533
 8551TIP3   OH247143   5.988   4.403   4.797 -0.1778 -0.3734 -0.2497
 8551TIP3    H147144   6.001   4.436   4.886  0.1844  1.4005 -0.9072
 8551TIP3    H247145   5.918   4.338   4.805  0.4722 -0.9109  1.4456
 8552TIP3   OH247146   5.202   4.879   0.694 -0.2346 -0.1610  0.2112
 8552TIP3    H147147   5.225   4.788   0.676  2.0835  0.3099  0.4181
 8552TIP3    H247148   5.155   4.908   0.616  0.3555 -1.1181 -0.5216
 8553TIP3   OH247149   3.415   3.746  15.990 -0.1241  0.0331 -0.2981
 8553TIP3    H147150   3.459   3.696  16.058  0.7052 -0.2341 -1.0227
 8553TIP3    H247151   3.403   3.833  16.028 -0.0324 -0.2303  0.3354
 8554TIP3   OH247152   2.081   6.207  15.023  0.0321  0.8452  1.0288
 8554TIP3    H147153   2.167   6.242  15.001 -0.1593 -0.0546 -1.4731
 8554TIP3    H247154   2.056   6.252  15.104  2.3088  2.0094  1.1419
 8555TIP3   OH247155   3.639   1.218  10.368  0.3362 -0.1622  0.2727
 8555TIP3    H147156   3.727   1.198  10.338 -0.5150 -1.8320 -1.2780
 8555TIP3    H247157   3.601   1.272  10.299 -0.0439  0.0766  0.6609
 8556TIP3   OH247158   1.576   6.759   5.763 -0.6624  0.0129 -0.1349
 8556TIP3    H147159   1.663   6.768   5.725  0.1724 -0.5492  1.5351
 8556TIP3    H247160   1.523   6.826   5.720  0.2214 -0.5065 -2.1430
 8557TIP3   OH247161   1.855   4.118  15.991 -0.2911 -0.3859 -0.2701
 8557TIP3    H147162   1.855   4.176  16.067  3.4074 -0.7133  0.1468
 8557TIP3    H247163   1.860   4.030  16.027 -1.9322 -0.8104 -0.9536
 8558TIP3   OH247164   3.804   1.497   3.179  0.4634  0.0391  0.0068
 8558TIP3    H147165   3.880   1.555   3.180  0.0265  0.6314 -0.7426
 8558TIP3    H247166   3.818   1.439   3.104  0.4389 -0.2169  0.1964
 8559TIP3   OH247167   1.248   1.029   0.343  0.2135  0.2947 -0.0870
 8559TIP3    H147168   1.161   0.999   0.370  1.9841 -2.7084  3.0462
 8559TIP3    H247169   1.263   1.109   0.393  0.0501 -0.3651  1.0350
 8560TIP3   OH247170   2.878   2.261  16.811  0.0363 -0.1504 -0.6491
 8560TIP3    H147171   2.790   2.285  16.780 -0.2998  1.0507  1.1334
 8560TIP3    H247172   2.877   2.279  16.905  1.7665 -1.4478 -0.3229
 8561TIP3   OH247173   5.162   1.420  16.772 -0.3213 -0.1268  0.2261
 8561TIP3    H147174   5.196   1.340  16.811 -0.1708  0.3179  1.0213
 8561TIP3    H247175   5.240   1.465  16.738 -0.5055 -0.7884 -1.1578
 8562TIP3   OH247176   5.644   2.842  12.440 -0.0777  0.0770 -0.2347
 8562TIP3    H147177   5.567   2.855  12.495 -0.1403  0.5385 -0.4293
 8562TIP3    H247178   5.610   2.838  12.351  0.3176  2.5785 -0.5649
 8563TIP3   OH247179   2.151   5.816   2.822 -0.0207  0.3783  0.1505
 8563TIP3    H147180   2.100   5.865   2.758  1.7201  0.4472 -1.2445
 8563TIP3    H247181   2.228   5.870   2.838  0.8486 -0.8684  0.2905
 8564TIP3   OH247182   0.179   5.701  13.411  1.0943  0.1869  0.4771
 8564TIP3    H147183   0.152   5.696  13.319  2.3511  0.2496  0.0801
 8564TIP3    H247184   0.254   5.761  13.410  2.7343 -1.7382  1.1218
 8565TIP3   OH247185   4.896   4.747  11.007  0.4290  0.4292  0.1395
 8565TIP3    H147186   4.970   4.779  10.955  0.4874 -0.1426 -0.1408
 8565TIP3    H247187   4.933   4.674  11.058  0.3199  0.8412  0.8192
 8566TIP3   OH247188   2.366   5.225  11.981  0.9515  0.2673  0.1425
 8566TIP3    H147189   2.453   5.189  11.969  1.6711  1.7585  0.6107
 8566TIP3    H247190   2.308   5.166  11.932  2.0353 -1.4431  0.8454
 8567TIP3   OH247191   1.430   1.692  14.275 -0.6310 -0.3425 -0.7762
 8567TIP3    H147192   1.488   1.634  14.225 -0.5117 -0.8625 -0.0533
 8567TIP3    H247193   1.450   1.780  14.242  0.8301 -0.4669 -0.3053
 8568TIP3   OH247194   0.705   0.311   2.740 -0.4163  0.0903  0.3586
 8568TIP3    H147195   0.678   0.220   2.755 -2.6948  0.9810  2.2057
 8568TIP3    H247196   0.624   0.361   2.742  0.7470  2.1832 -0.9851
 8569TIP3   OH247197   5.422   6.125  12.662 -0.3737 -0.5701 -0.3822
 8569TIP3    H147198   5.507   6.081  12.668 -1.4921 -2.6668  3.5652
 8569TIP3    H247199   5.391   6.130  12.753 -3.6304  1.9136 -1.4420
 8570TIP3   OH247200   5.620   0.626  13.876  0.4122  0.2456 -0.2933
 8570TIP3    H147201   5.652   0.538  13.857  1.1358  0.9056 -2.4840
 8570TIP3    H247202   5.687   0.684  13.841 -0.0806  1.6977  1.0480
 8571TIP3   OH247203   2.355   4.795   3.314  0.0625  0.8665  0.0726
 8571TIP3    H147204   2.382   4.838   3.233 -1.5098  0.1164 -0.9005
 8571TIP3    H247205   2.407   4.837   3.382  1.1025  1.8292 -1.2600
 8572TIP3   OH247206   4.735   3.288   1.577  0.0598 -0.0144  0.2192
 8572TIP3    H147207   4.643   3.297   1.552 -0.0567 -0.0822  0.6072
 8572TIP3    H247208   4.771   3.376   1.570  0.8302 -0.4475 -3.1016
 8573TIP3   OH247209   0.695   0.600  12.981 -0.6616  0.3532  0.5584
 8573TIP3    H147210   0.645   0.670  13.023 -1.7200  0.4640 -0.8056
 8573TIP3    H247211   0.647   0.520  13.003  0.0524  0.1471  1.3952
 8574TIP3   OH247212   4.121   0.840  14.541  0.1924  0.0465  0.7471
 8574TIP3    H147213   4.052   0.780  14.513  2.3942 -3.5633  2.3852
 8574TIP3    H247214   4.166   0.864  14.460 -1.7822  1.0714 -0.1369
 8575TIP3   OH247215   5.713   4.922   5.177  0.0445  0.0068 -0.1968
 8575TIP3    H147216   5.620   4.944   5.170  0.5865  1.8481 -3.0009
 8575TIP3    H247217   5.751   4.996   5.223  0.4146  0.2139 -0.8320
 8576TIP3   OH247218   2.465   5.676  16.404 -0.4097  0.3726 -0.5508
 8576TIP3    H147219   2.540   5.691  16.462  0.0230 -2.3186 -0.2738
 8576TIP3    H247220   2.504   5.644  16.323 -1.2131 -0.0388 -0.7807
 8577TIP3   OH247221   1.944   3.800   3.890 -0.1470 -0.6825 -0.5947
 8577TIP3    H147222   1.864   3.839   3.925  0.9885  3.2377 -1.7823
 8577TIP3    H247223   1.931   3.799   3.795  1.4161  0.9879 -0.9091
 8578TIP3   OH247224   5.474   1.395   2.989  0.0255  0.1846 -0.5580
 8578TIP3    H147225   5.567   1.396   3.012 -0.3388 -0.4101  1.0521
 8578TIP3    H247226   5.473   1.388   2.894  1.6266  0.4997 -0.6231
 8579TIP3   OH247227   0.332   6.022  16.796  0.0117  0.2886  0.3046
 8579TIP3    H147228   0.364   5.946  16.844  0.7020  0.1671 -0.3262
 8579TIP3    H247229   0.270   5.986  16.733  0.1294  0.2877  0.1909
 8580TIP3   OH247230   1.997   2.854   0.626  0.1052  0.1472  0.1001
 8580TIP3    H147231   1.993   2.887   0.716  0.4644  1.3088 -0.2907
 8580TIP3    H247232   2.080   2.808   0.621  0.0783  0.0660  0.3580
 8581TIP3   OH247233   1.769   3.823  13.469 -0.9322 -0.4210 -0.1281
 8581TIP3    H147234   1.773   3.834  13.374  0.3886  3.1424  0.1689
 8581TIP3    H247235   1.677   3.836  13.491 -1.0751 -0.1849 -0.8470
 8582TIP3   OH247236   0.754   1.354  13.725 -0.2682 -0.0066 -0.0123
 8582TIP3    H147237   0.847   1.350  13.748 -0.4250 -0.1344  0.6301
 8582TIP3    H247238   0.732   1.447  13.727 -0.1793  0.0152 -0.0609
 8583TIP3   OH247239   1.298   3.744  15.398  0.2150 -0.5008  0.5131
 8583TIP3    H147240   1.387   3.710  15.394 -0.3477 -1.9522 -3.0953
 8583TIP3    H247241   1.243   3.667  15.409 -0.6999  0.0489 -0.0499
 8584TIP3   OH247242   3.092   5.499  16.158 -0.3125 -0.0822  0.0172
 8584TIP3    H147243   3.099   5.595  16.163  0.4857 -0.1463  0.3928
 8584TIP3    H247244   3.001   5.480  16.180 -0.8043  0.6609 -1.2799
 8585TIP3   OH247245   3.174   4.692  10.446  0.3117 -0.6220 -0.0503
 8585TIP3    H147246   3.232   4.714  10.373 -0.5981  0.6784 -0.4116
 8585TIP3    H247247   3.108   4.634  10.409 -2.0593  2.5006 -1.1897
 8586TIP3   OH247248   3.991   4.392   0.256 -0.3268 -0.3014 -0.3778
 8586TIP3    H147249   4.076   4.411   0.216 -0.6224  1.8406 -0.1144
 8586TIP3    H247250   3.931   4.386   0.182 -0.5605  1.9007 -0.4231
 8587TIP3   OH247251   4.192   1.623  13.803 -0.1491  0.2393 -0.1745
 8587TIP3    H147252   4.271   1.626  13.749 -0.0629 -0.9080 -0.1234
 8587TIP3    H247253   4.207   1.690  13.870  0.9512 -0.2242  0.0604
 8588TIP3   OH247254   6.743   1.409  15.118 -0.4358  0.2091 -0.0185
 8588TIP3    H147255   6.724   1.486  15.065 -1.6540 -0.3081 -0.3818
 8588TIP3    H247256   6.702   1.336  15.070 -0.0050 -0.5393  0.7164
 8589TIP3   OH247257   1.716   3.508  13.861  0.1713 -0.1236  0.7317
 8589TIP3    H147258   1.671   3.582  13.821  0.3072 -1.1345 -1.4593
 8589TIP3    H247259   1.672   3.431  13.826  2.5788 -1.1389 -0.3037
 8590TIP3   OH247260   3.212   0.005   5.583 -0.0485 -0.8194 -0.5052
 8590TIP3    H147261   3.226   0.055   5.502 -0.5124  0.2570  0.0574
 8590TIP3    H247262   3.292  -0.044   5.594  0.3705 -0.3142 -1.1679
 8591TIP3   OH247263   4.864   2.369   3.416 -0.0013  1.0442  0.3689
 8591TIP3    H147264   4.906   2.284   3.407 -2.9294 -0.4963 -0.1502
 8591TIP3    H247265   4.821   2.383   3.331 -0.1819  2.7156  0.6983
 8592TIP3   OH247266   5.069   5.500  17.052  0.5738 -0.2117  0.1222
 8592TIP3    H147267   5.083   5.405  17.050 -0.2806 -0.3639  0.9020
 8592TIP3    H247268   4.975   5.511  17.042  0.4804  0.4829  1.5250
 8593TIP3   OH247269   6.512   3.972  12.569  0.3562  0.5509 -0.1876
 8593TIP3    H147270   6.506   3.891  12.520  2.1291 -0.6407  1.4227
 8593TIP3    H247271   6.435   3.972  12.626 -0.1014  0.4350 -0.8064
 8594TIP3   OH247272   0.945   1.781  13.162  0.4399  0.1937  0.1956
 8594TIP3    H147273   0.955   1.751  13.253  1.4345  3.0976  1.1442
 8594TIP3    H247274   1.029   1.760  13.121  1.1548  1.5873  0.8704
 8595TIP3   OH247275   0.414   3.480  13.097 -0.4030  0.2737 -0.3175
 8595TIP3    H147276   0.471   3.424  13.045 -0.6664  0.3816 -0.7228
 8595TIP3    H247277   0.470   3.511  13.168 -0.3436 -0.7699  0.1142
 8596TIP3   OH247278   2.247   5.843  16.463  0.2242  0.1758  0.0452
 8596TIP3    H147279   2.290   5.760  16.440 -0.9826 -0.9671  1.6962
 8596TIP3    H247280   2.319   5.900  16.489  0.9646 -0.9268  0.5167
 8597TIP3   OH247281   2.899   2.065  11.893 -0.4904 -0.3764  0.6049
 8597TIP3    H147282   2.847   2.004  11.841  0.2774 -0.3649 -0.1918
 8597TIP3    H247283   2.988   2.032  11.887  0.0693  1.2117 -0.4465
 8598TIP3   OH247284   5.926   1.306   0.359 -0.2589 -0.6887 -0.2725
 8598TIP3    H147285   5.989   1.305   0.431 -0.9247  0.3647  0.3440
 8598TIP3    H247286   5.889   1.218   0.357 -0.8038 -0.5121  1.1937
 8599TIP3   OH247287   1.773   6.813   2.528 -0.0895  1.0610 -0.1807
 8599TIP3    H147288   1.839   6.744   2.531 -1.7067 -0.5279  1.3961
 8599TIP3    H247289   1.729   6.800   2.444 -0.1634  0.3587 -0.0401
 8600TIP3   OH247290   3.891   6.036   5.353 -0.2057 -0.2669 -0.0847
 8600TIP3    H147291   3.840   5.955   5.362 -1.8383  0.8928  1.9992
 8600TIP3    H247292   3.885   6.078   5.439  1.4614  1.5961 -0.8039
 8601TIP3   OH247293   6.162   1.310   5.536  0.2742  0.4090  0.4237
 8601TIP3    H147294   6.221   1.244   5.574 -2.7954 -2.8002  0.1501
 8601TIP3    H247295   6.161   1.290   5.443  0.1001  1.6523  0.1431
 8602TIP3   OH247296   1.946   2.272   4.219  0.1397 -0.6392 -0.2285
 8602TIP3    H147297   1.969   2.357   4.182 -0.1635  0.1641  1.3130
 8602TIP3    H247298   1.985   2.208   4.160  0.5767  0.5761 -1.2977
 8603TIP3   OH247299   2.004   1.450   2.885 -0.6129 -0.5556  0.8766
 8603TIP3    H147300   1.941   1.384   2.856 -1.4935  0.4342  0.4890
 8603TIP3    H247301   1.982   1.528   2.835  0.5568 -0.0146  1.1667
 8604TIP3   OH247302   2.796   3.312   2.902  0.6910  0.5943  0.2455
 8604TIP3    H147303   2.827   3.341   2.987 -0.0092 -1.6446  1.3548
 8604TIP3    H247304   2.876   3.300   2.850  1.2508  0.5332  1.1068
 8605TIP3   OH247305   1.081   2.260   4.463 -0.0043  0.1361 -0.1984
 8605TIP3    H147306   1.134   2.338   4.479 -0.0153 -0.0591  0.8900
 8605TIP3    H247307   1.073   2.219   4.549 -1.5584 -0.0689 -0.4180
 8606TIP3   OH247308   6.208   5.954  13.156  0.2124 -0.0422  0.3799
 8606TIP3    H147309   6.151   6.025  13.188 -1.0025 -0.9014  0.1883
 8606TIP3    H247310   6.215   5.894  13.230 -0.4736 -0.7437 -0.1117
 8607TIP3   OH247311   2.262   0.560   3.641 -0.6230  0.1546  0.4930
 8607TIP3    H147312   2.272   0.514   3.557  1.2489 -0.4824  1.0181
 8607TIP3    H247313   2.315   0.509   3.703  0.3249  2.1749  1.4488
 8608TIP3   OH247314   4.978   4.123   6.053 -0.4370 -0.3767  0.3696
 8608TIP3    H147315   5.035   4.145   6.127  0.4800  0.5640 -0.5773
 8608TIP3    H247316   5.037   4.079   5.991 -1.2251 -1.2791  0.2364
 8609TIP3   OH247317   6.174   3.996   3.236 -0.6708 -0.2695  0.1268
 8609TIP3    H147318   6.189   3.902   3.249 -2.1907 -0.5124  0.2531
 8609TIP3    H247319   6.079   4.007   3.244 -0.6811  1.0602 -1.2751
 8610TIP3   OH247320   6.448   4.446   2.525  0.3694  0.3341 -0.6077
 8610TIP3    H147321   6.470   4.529   2.483  1.6543  0.9149  1.0778
 8610TIP3    H247322   6.445   4.467   2.618 -0.8806 -1.2044 -0.2663
 8611TIP3   OH247323   5.159   5.081   5.679  0.4479  0.0380 -0.1926
 8611TIP3    H147324   5.084   5.034   5.643  0.3395  0.3288 -0.3583
 8611TIP3    H247325   5.164   5.053   5.770  0.0168  0.1641 -0.1289
 8612TIP3   OH247326   3.676   4.718   0.268  0.2876  0.2361  0.2177
 8612TIP3    H147327   3.769   4.725   0.246  0.3352  0.7699  0.5657
 8612TIP3    H247328   3.661   4.624   0.281  0.6691  0.1026 -0.2905
 8613TIP3   OH247329   0.032   0.564  12.495  0.2327  0.0259  0.2046
 8613TIP3    H147330  -0.021   0.535  12.420 -1.1137  0.1911  1.0696
 8613TIP3    H247331   0.095   0.494  12.508 -0.4648 -0.6913 -0.1847
 8614TIP3   OH247332   5.528   3.976  14.826  1.1018  0.6230  0.2639
 8614TIP3    H147333   5.519   3.896  14.773  2.9048 -0.0538  0.8998
 8614TIP3    H247334   5.547   4.044  14.762  2.0904  0.0434 -0.0786
 8615TIP3   OH247335   5.317   0.489  13.194  0.3942  0.4417 -0.0831
 8615TIP3    H147336   5.248   0.480  13.260 -1.0462  0.4789 -1.5400
 8615TIP3    H247337   5.293   0.568  13.145 -0.4620 -1.3377 -2.7512
 8616TIP3   OH247338   6.188   5.368  15.508  0.1330 -0.0440  0.0379
 8616TIP3    H147339   6.163   5.387  15.599  0.0851 -0.3418  0.0880
 8616TIP3    H247340   6.108   5.333  15.468  0.1335  0.1561 -0.1426
 8617TIP3   OH247341   6.643   0.524   5.873 -0.1916  0.2223 -0.1420
 8617TIP3    H147342   6.575   0.498   5.812 -0.1303  0.4778 -0.3226
 8617TIP3    H247343   6.686   0.443   5.898  0.2977  0.1918 -1.0460
 8618TIP3   OH247344   4.917   4.729   3.497  0.0044  0.1075 -0.0802
 8618TIP3    H147345   4.864   4.706   3.573 -0.5233  3.4937  0.7669
 8618TIP3    H247346   5.008   4.723   3.529 -0.0805 -0.9103  0.0027
 8619TIP3   OH247347   4.751   3.982   0.006 -0.1683 -0.6590 -0.0550
 8619TIP3    H147348   4.743   3.887   0.016  0.2320 -0.4678  2.9920
 8619TIP3    H247349   4.805   4.009   0.079  0.1675  1.9081 -1.1503
 8620TIP3   OH247350   3.960   2.359   3.143  0.3654  0.8470  0.3250
 8620TIP3    H147351   4.013   2.343   3.065 -0.0748  0.7802  0.0351
 8620TIP3    H247352   4.002   2.308   3.212  1.2880  1.6081  0.3570
 8621TIP3   OH247353   2.025   4.439   0.208 -0.2227 -0.2368  0.1767
 8621TIP3    H147354   2.008   4.473   0.296 -1.3346 -0.1468 -0.0514
 8621TIP3    H247355   1.959   4.371   0.196  0.0789 -0.4180 -0.4982
 8622TIP3   OH247356   1.990   1.979   4.503  0.6358 -0.2462 -0.1572
 8622TIP3    H147357   1.986   2.075   4.501 -0.7845 -0.2280  1.3818
 8622TIP3    H247358   1.913   1.951   4.454  1.4322 -0.6408 -1.2159
 8623TIP3   OH247359   6.801   1.462   0.360  0.6705 -0.4427  0.2291
 8623TIP3    H147360   6.792   1.373   0.326  1.9888 -0.6522  0.3701
 8623TIP3    H247361   6.809   1.517   0.282  0.1892 -0.4846  0.1478
 8624TIP3   OH247362   3.664   3.247  12.665 -0.6017 -0.2608  0.1996
 8624TIP3    H147363   3.732   3.219  12.726 -0.2726  0.8538  0.3662
 8624TIP3    H247364   3.687   3.337  12.642 -1.2177 -0.3581 -0.8789
 8625TIP3   OH247365   5.239   6.221   2.377  0.1841  0.1918  0.8219
 8625TIP3    H147366   5.151   6.183   2.382 -0.4595  1.7057  1.8634
 8625TIP3    H247367   5.224   6.315   2.380  1.7894  0.5109 -0.3259
 8626TIP3   OH247368   2.218   2.264  14.391 -0.0764  0.0773 -0.2597
 8626TIP3    H147369   2.219   2.358  14.372 -1.2236  0.2455  0.4044
 8626TIP3    H247370   2.130   2.236  14.366  0.1722 -0.7682 -0.1999
 8627TIP3   OH247371   1.052   2.724  15.016 -0.3807 -0.2324  0.2040
 8627TIP3    H147372   1.104   2.800  14.993  0.6075 -0.7813  0.5445
 8627TIP3    H247373   1.015   2.693  14.934 -1.3669  1.0037  0.1552
 8628TIP3   OH247374   0.762   0.601   2.801 -0.1143 -0.6103 -0.1241
 8628TIP3    H147375   0.794   0.575   2.887 -2.1278 -0.7469  0.6295
 8628TIP3    H247376   0.751   0.519   2.753  2.7048 -0.4526 -1.2341
 8629TIP3   OH247377   6.540   4.121   0.744 -0.0086  0.4767  0.2880
 8629TIP3    H147378   6.534   4.118   0.839  0.3469  0.7850  0.3230
 8629TIP3    H247379   6.590   4.042   0.720 -1.7304 -0.6447  0.1985
 8630TIP3   OH247380   0.940   6.790  15.571  0.0491 -0.2324 -0.3849
 8630TIP3    H147381   0.920   6.820  15.482 -0.6418 -1.2524 -0.5913
 8630TIP3    H247382   0.910   6.699  15.573  0.0330 -0.2211  0.9023
 8631TIP3   OH247383   3.817   1.063  14.739  0.3199 -0.0053 -0.2909
 8631TIP3    H147384   3.897   1.029  14.779 -0.4190 -1.6340 -0.1203
 8631TIP3    H247385   3.808   1.014  14.657 -0.6740 -0.1047 -0.1356
 8632TIP3   OH247386   5.778   2.066   4.402 -0.1601 -1.1233  0.6153
 8632TIP3    H147387   5.749   1.997   4.343 -0.6414 -0.4248  0.0213
 8632TIP3    H247388   5.874   2.064   4.397 -0.2000 -0.5353 -0.8319
 8633TIP3   OH247389   3.457   6.455  10.578 -0.6989  0.0808  0.3294
 8633TIP3    H147390   3.482   6.447  10.486 -0.7060  1.1318  0.2154
 8633TIP3    H247391   3.540   6.466  10.625 -0.7536  0.5510  0.3202
 8634TIP3   OH247392   4.801   5.053  15.922 -0.4062  0.0820 -0.0720
 8634TIP3    H147393   4.736   5.086  15.860 -0.7209  2.1213  1.2667
 8634TIP3    H247394   4.829   5.130  15.972  0.7966 -1.2611  1.4415
 8635TIP3   OH247395   3.292   1.316  12.741  1.2165 -0.1153 -0.1119
 8635TIP3    H147396   3.241   1.362  12.675  0.1551  0.8493  1.3262
 8635TIP3    H247397   3.293   1.375  12.816  2.0977 -1.3168  0.8691
 8636TIP3   OH247398   2.892   0.561  15.688 -0.3487  0.3522  0.3388
 8636TIP3    H147399   2.940   0.619  15.628 -0.5627 -0.4429 -0.6126
 8636TIP3    H247400   2.806   0.552  15.649 -0.5778  0.0283  0.9128
 8637TIP3   OH247401   0.543   3.927   5.926  0.3981  0.1238  0.0655
 8637TIP3    H147402   0.464   3.960   5.883 -1.0260 -1.8839  0.9812
 8637TIP3    H247403   0.512   3.895   6.011  1.9429 -1.8764 -0.0584
 8638TIP3   OH247404   3.928   2.782   0.942  0.5612  0.4622  0.3557
 8638TIP3    H147405   3.851   2.839   0.935 -0.6113 -0.9551  1.2502
 8638TIP3    H247406   3.914   2.714   0.877  0.8518 -0.0295  0.7951
 8639TIP3   OH247407   4.830   1.923  14.362 -0.5277  0.5864  0.4096
 8639TIP3    H147408   4.761   1.985  14.388 -0.5505  0.9636 -0.5156
 8639TIP3    H247409   4.889   1.920  14.437 -0.8073  1.3340  0.6702
 8640TIP3   OH247410   5.894   2.476   2.624  0.1131 -0.4961  0.2005
 8640TIP3    H147411   5.827   2.411   2.645 -0.3557  0.7617  3.0345
 8640TIP3    H247412   5.944   2.487   2.705  3.9913 -1.4845 -1.7781
 8641TIP3   OH247413   3.469   1.269  11.406  0.0959  0.9233 -0.3764
 8641TIP3    H147414   3.547   1.273  11.351 -0.4264  0.6597 -1.1702
 8641TIP3    H247415   3.492   1.211  11.478  0.6899  0.9999 -0.5057
 8642TIP3   OH247416   5.369   0.352   1.494 -0.3273  0.1365 -0.5034
 8642TIP3    H147417   5.298   0.320   1.438  0.0077 -0.0800 -0.8063
 8642TIP3    H247418   5.360   0.302   1.575 -0.1710 -0.3032 -0.7533
 8643TIP3   OH247419   2.686   5.058  16.893 -0.0552 -0.2495 -0.1789
 8643TIP3    H147420   2.598   5.093  16.884  0.4728  1.7301  1.5628
 8643TIP3    H247421   2.738   5.108  16.830  0.2023  0.1514  0.3463
 8644TIP3   OH247422   2.902   5.279   1.049 -0.1539  0.0713  0.5911
 8644TIP3    H147423   2.870   5.276   0.958  0.7313  1.0401  0.2261
 8644TIP3    H247424   2.914   5.187   1.073  0.8854 -0.1776 -0.7591
 8645TIP3   OH247425   5.946   5.975   5.400  0.1588 -0.1014  0.3048
 8645TIP3    H147426   5.894   5.963   5.479  1.2375 -0.0555  1.0448
 8645TIP3    H247427   6.017   5.911   5.408 -0.6520 -1.3031 -1.4604
 8646TIP3   OH247428   6.447   5.853  17.197  0.7402  0.4320 -0.2492
 8646TIP3    H147429   6.416   5.847  17.107  0.8479  0.4768 -0.2898
 8646TIP3    H247430   6.368   5.850  17.251  0.7452 -1.0121 -0.2743
 8647TIP3   OH247431   1.369   4.700  12.492  0.3816 -0.3396  0.4054
 8647TIP3    H147432   1.305   4.755  12.448  0.1257  0.6444  1.9227
 8647TIP3    H247433   1.421   4.662  12.422 -0.8531  0.1035 -0.7793
 8648TIP3   OH247434   5.382   5.345  13.822  0.6907 -0.2304 -0.5080
 8648TIP3    H147435   5.452   5.299  13.867  0.7226 -0.7973 -1.1153
 8648TIP3    H247436   5.345   5.404  13.888  0.7724 -0.9953  0.2323
 8649TIP3   OH247437   4.888   6.181  13.172 -0.1306  0.3273  0.0626
 8649TIP3    H147438   4.873   6.226  13.256 -1.5076  0.1270 -0.0472
 8649TIP3    H247439   4.876   6.088  13.193  0.5266  0.1833 -0.1671
 8650TIP3   OH247440   6.752   5.800   1.399  0.2314  0.0188  0.2855
 8650TIP3    H147441   6.688   5.826   1.332  1.1620  2.1829  0.1368
 8650TIP3    H247442   6.800   5.880   1.417  1.9353 -1.2141  1.4663
 8651TIP3   OH247443   3.066   1.590  15.356  0.0253 -0.3759 -0.3869
 8651TIP3    H147444   3.027   1.523  15.412 -0.5414  0.1011 -0.2019
 8651TIP3    H247445   2.998   1.611  15.292  0.2051  0.0204 -0.4500
 8652TIP3   OH247446   3.294   1.968  15.759 -0.4724 -0.4958  0.1329
 8652TIP3    H147447   3.237   1.896  15.785 -0.3146 -1.4278 -1.9030
 8652TIP3    H247448   3.237   2.027  15.711  0.4295 -2.3129 -3.5223
 8653TIP3   OH247449   2.692   4.699  11.287 -0.5605 -0.3592 -0.1100
 8653TIP3    H147450   2.704   4.770  11.225  0.1326  0.9518  1.4475
 8653TIP3    H247451   2.601   4.673  11.277 -0.6083  0.2080 -1.2484
 8654TIP3   OH247452   4.407   3.716  14.774  0.1032 -0.1483  0.1170
 8654TIP3    H147453   4.376   3.704  14.864  1.0635  1.6798  0.7453
 8654TIP3    H247454   4.412   3.811  14.763  0.3259 -0.3445 -1.7705
 8655TIP3   OH247455   0.253   2.051  16.439 -0.2079 -0.5517 -0.3778
 8655TIP3    H147456   0.275   2.141  16.461  0.9980 -0.9237  0.0219
 8655TIP3    H247457   0.202   2.057  16.359 -0.9465  0.5419  0.1617
 8656TIP3   OH247458   1.925   2.724  11.284 -0.0378 -0.1401  0.0060
 8656TIP3    H147459   1.901   2.678  11.203 -0.1453 -0.6785  0.3351
 8656TIP3    H247460   2.019   2.708  11.293  0.3158  1.2970 -0.8628
 8657TIP3   OH247461   4.855   1.906  13.391 -0.4641  0.3400 -0.0821
 8657TIP3    H147462   4.886   1.997  13.392  0.6920 -0.0141  1.6200
 8657TIP3    H247463   4.872   1.875  13.480  2.6293 -2.6220 -1.4721
 8658TIP3   OH247464   2.935   2.057   4.824  0.6475 -0.2870  0.4404
 8658TIP3    H147465   2.932   1.963   4.841 -0.4988 -1.1260 -3.3576
 8658TIP3    H247466   3.023   2.084   4.850  0.9443 -2.3340  1.7691
 8659TIP3   OH247467   1.380   1.768   3.958 -0.2402  0.8069 -0.7112
 8659TIP3    H147468   1.337   1.810   4.032 -1.4825 -2.0919  0.3546
 8659TIP3    H247469   1.461   1.733   3.995 -0.2581  0.4239 -1.0341
 8660TIP3   OH247470   6.051   0.153  13.652  0.1389 -0.4002 -0.6580
 8660TIP3    H147471   6.013   0.068  13.673  0.5632 -0.7827 -1.3711
 8660TIP3    H247472   6.115   0.169  13.721 -0.2258 -0.4727 -0.3034
 8661TIP3   OH247473   1.984   1.092   1.614 -0.1172  0.1653 -0.4935
 8661TIP3    H147474   1.899   1.100   1.657 -0.4821 -0.0883 -1.1463
 8661TIP3    H247475   1.963   1.073   1.523  0.6526 -0.4035 -0.5642
 8662TIP3   OH247476   1.933   0.138  11.417  0.5473  0.0155  0.1752
 8662TIP3    H147477   1.943   0.198  11.490 -0.0210 -1.1908  1.2903
 8662TIP3    H247478   1.888   0.189  11.349  2.6452  1.6806 -0.0678
 8663TIP3   OH247479   5.919   0.427  14.048 -0.5951  0.7260 -0.3467
 8663TIP3    H147480   5.955   0.411  14.135  2.7234  0.6076 -1.5994
 8663TIP3    H247481   5.919   0.341  14.006 -0.7747  1.0044 -0.9194
 8664TIP3   OH247482   1.641   0.126  13.953  0.0512 -0.3142 -0.4390
 8664TIP3    H147483   1.625   0.065  13.880  1.9339 -0.0551 -1.1175
 8664TIP3    H247484   1.734   0.144  13.949 -0.6381  4.0637 -1.3910
 8665TIP3   OH247485   2.524   3.957   2.463 -0.2436 -0.1819 -0.2091
 8665TIP3    H147486   2.553   3.911   2.541 -0.9220  0.5169  0.4812
 8665TIP3    H247487   2.576   4.038   2.462  0.6442 -0.7486 -1.1758
 8666TIP3   OH247488   6.163   2.535   2.131  0.0274 -0.1020  0.2583
 8666TIP3    H147489   6.244   2.578   2.103  0.5459  0.2296  2.1324
 8666TIP3    H247490   6.128   2.593   2.199 -1.7518 -0.2944 -0.4416
 8667TIP3   OH247491   4.906   4.616  14.699  0.1179  0.0506 -0.3090
 8667TIP3    H147492   4.880   4.544  14.755  2.0440  0.7114  1.5595
 8667TIP3    H247493   4.864   4.693  14.737 -1.5163  0.0705 -1.9973
 8668TIP3   OH247494   6.532   3.975   1.878 -0.5092 -0.0674  0.1635
 8668TIP3    H147495   6.453   3.942   1.920 -1.2178 -0.1783 -1.2130
 8668TIP3    H247496   6.528   4.070   1.889 -0.1769 -0.1613  1.1889
 8669TIP3   OH247497   1.578   4.509   3.509 -0.0504 -0.4374 -0.3494
 8669TIP3    H147498   1.564   4.537   3.600 -2.1795 -0.0515 -0.7286
 8669TIP3    H247499   1.575   4.591   3.459 -2.6815 -0.9129 -1.1035
 8670TIP3   OH247500   6.202   0.186  14.216 -0.3808 -0.0049  0.4136
 8670TIP3    H147501   6.146   0.108  14.219 -0.1792 -0.1347  2.0054
 8670TIP3    H247502   6.289   0.153  14.241  0.1616  0.3905 -0.9230
 8671TIP3   OH247503   6.775   5.155   3.342 -0.2160  0.3738  0.2604
 8671TIP3    H147504   6.787   5.068   3.304  1.0168  1.2853 -1.5765
 8671TIP3    H247505   6.694   5.188   3.304  0.1356  0.6201 -0.2918
 8672TIP3   OH247506   4.712   4.744  15.771 -0.2983  0.2742  0.3613
 8672TIP3    H147507   4.620   4.762  15.752 -0.4348 -0.6886  0.0606
 8672TIP3    H247508   4.729   4.787  15.855 -1.0088  0.4906  0.3941
 8673TIP3   OH247509   5.367   0.077   2.201 -0.1087  0.1222  0.0028
 8673TIP3    H147510   5.319   0.108   2.278  0.6452 -0.6415  0.8000
 8673TIP3    H247511   5.433   0.017   2.236  0.6030  0.1760 -1.1888
 8674TIP3   OH247512   2.852   3.282   5.613 -0.3509  0.0298 -0.3443
 8674TIP3    H147513   2.889   3.243   5.534  0.7259  0.0759  0.1194
 8674TIP3    H247514   2.869   3.376   5.604 -1.7701  0.2649 -0.8451
 8675TIP3   OH247515   6.096   0.781   1.229 -0.2024  0.2948 -0.5200
 8675TIP3    H147516   6.084   0.819   1.143  0.0400  0.4222 -0.4991
 8675TIP3    H247517   6.141   0.849   1.279 -0.9672  0.4939 -0.0810
 8676TIP3   OH247518   2.846   4.151   1.532 -0.1983  0.1266  0.4743
 8676TIP3    H147519   2.852   4.064   1.494  0.7409  0.3909 -0.0051
 8676TIP3    H247520   2.845   4.211   1.457  3.5982  0.7713  0.7475
 8677TIP3   OH247521   1.609   4.867   1.903  0.0320 -0.2163 -0.1602
 8677TIP3    H147522   1.546   4.796   1.909 -1.6332  1.1163 -0.8449
 8677TIP3    H247523   1.578   4.920   1.829 -0.3937  2.6580  1.8916
 8678TIP3   OH247524   3.772   1.360   4.676 -0.7448 -0.6392  0.2436
 8678TIP3    H147525   3.767   1.403   4.762  0.8896 -2.1196  1.1271
 8678TIP3    H247526   3.718   1.282   4.685 -3.2900  0.8419 -1.2008
 8679TIP3   OH247527   2.438   0.057   3.311  0.5923  0.3557  0.6702
 8679TIP3    H147528   2.388   0.137   3.292  0.0064 -0.1231  0.1614
 8679TIP3    H247529   2.504   0.053   3.242 -1.5030 -1.3555 -1.3958
 8680TIP3   OH247530   1.415   3.598   3.491 -0.7010 -0.2437 -0.3030
 8680TIP3    H147531   1.396   3.673   3.434 -1.6772 -1.4697 -1.6894
 8680TIP3    H247532   1.379   3.623   3.576 -0.4434  1.1033 -0.5732
 8681TIP3   OH247533   2.310   5.213   4.424 -0.2287 -0.1985  0.0597
 8681TIP3    H147534   2.315   5.243   4.514 -0.2697  2.1571 -0.6520
 8681TIP3    H247535   2.399   5.188   4.401  0.0713  0.5862  0.3378
 8682TIP3   OH247536   1.643   4.143  13.497 -0.4533  0.0967 -0.5349
 8682TIP3    H147537   1.583   4.083  13.540 -0.7547  2.2913  2.4709
 8682TIP3    H247538   1.676   4.095  13.421 -1.9127 -3.1468  0.7125
 8683TIP3   OH247539   2.159   4.529  16.070  0.5589 -0.1137 -0.2044
 8683TIP3    H147540   2.208   4.448  16.065  1.4049  0.3938 -0.2779
 8683TIP3    H247541   2.143   4.554  15.979 -0.1354 -0.4535 -0.1790
 8684TIP3   OH247542   2.701   5.152  16.282 -0.0053  0.3487  0.2013
 8684TIP3    H147543   2.657   5.068  16.297 -0.3856  0.8994  2.3980
 8684TIP3    H247544   2.630   5.213  16.264  0.0639  0.6861  1.0478
 8685TIP3   OH247545   6.819   3.279   4.731  0.1448  0.7986  0.8825
 8685TIP3    H147546   6.736   3.242   4.760 -0.5056  0.5616 -1.1477
 8685TIP3    H247547   6.802   3.373   4.725 -0.2219  0.6780 -0.1948
 8686TIP3   OH247548   5.854   6.001  14.196 -0.0403 -0.2119 -0.0646
 8686TIP3    H147549   5.816   5.937  14.136  1.0599 -2.1149  1.1706
 8686TIP3    H247550   5.925   6.041  14.146  0.5201 -1.3901 -0.2455
 8687TIP3   OH247551   1.212   5.570   2.836  0.6711  0.3342 -0.0050
 8687TIP3    H147552   1.239   5.478   2.837  2.1939  0.7452  1.4404
 8687TIP3    H247553   1.287   5.617   2.799  0.3951  1.1209  0.4080
 8688TIP3   OH247554   3.034   6.797   4.829 -0.1425  0.5149 -0.8218
 8688TIP3    H147555   3.068   6.712   4.856  0.3610  1.0541  0.3434
 8688TIP3    H247556   3.002   6.784   4.740 -0.5945 -1.0247 -0.4580
 8689TIP3   OH247557   4.461   3.273  15.529  0.0852 -0.1234  0.8492
 8689TIP3    H147558   4.504   3.200  15.486  1.7943 -0.1757  2.5077
 8689TIP3    H247559   4.368   3.264  15.506  0.6699 -1.0361 -1.4105
 8690TIP3   OH247560   0.248   1.643  16.181  0.5744 -0.2041  0.7941
 8690TIP3    H147561   0.288   1.729  16.168  0.4027 -0.0410  1.3581
 8690TIP3    H247562   0.159   1.653  16.147  0.4728 -0.0876  1.0966
 8691TIP3   OH247563   4.098   5.713  15.899  0.0773  0.2360 -0.2630
 8691TIP3    H147564   4.072   5.708  15.991 -0.1082  1.3231 -0.2431
 8691TIP3    H247565   4.032   5.769  15.858  1.8210  2.3693 -0.3757
 8692TIP3   OH247566   0.321   4.964   2.700  0.5906  0.0813 -0.2301
 8692TIP3    H147567   0.228   4.984   2.712  0.8578  1.3909 -0.1236
 8692TIP3    H247568   0.324   4.871   2.680 -0.7481  0.0272 -0.2424
 8693TIP3   OH247569   1.664   1.949   5.816  0.2138 -0.3464 -0.9395
 8693TIP3    H147570   1.738   1.963   5.757  0.4195 -1.0339 -0.8551
 8693TIP3    H247571   1.692   1.877   5.873  1.0638  1.9155  1.7250
 8694TIP3   OH247572   2.595   3.586  11.958 -0.0677 -0.2089 -0.0747
 8694TIP3    H147573   2.645   3.505  11.975  1.2526  0.5404 -0.2543
 8694TIP3    H247574   2.642   3.653  12.008  0.3476  0.9114 -1.8856
 8695TIP3   OH247575   6.589   0.197   2.820  0.3940  0.0475 -0.1938
 8695TIP3    H147576   6.581   0.111   2.861 -0.9989 -1.0647 -2.5643
 8695TIP3    H247577   6.546   0.187   2.735  0.0450  3.1468 -0.5070
 8696TIP3   OH247578   5.851   0.625   1.203 -0.3734  0.1896 -0.6895
 8696TIP3    H147579   5.782   0.686   1.226  0.4563  0.6507  0.7008
 8696TIP3    H247580   5.932   0.670   1.228  0.2175 -1.9159  1.5395
 8697TIP3   OH247581   2.535   3.989  11.454 -0.1431  0.0410  0.6480
 8697TIP3    H147582   2.539   4.017  11.362 -1.8012  0.4836  0.6758
 8697TIP3    H247583   2.443   3.967  11.468  0.0550  0.1182  2.2529
 8698TIP3   OH247584   1.302   5.324  13.092  0.3309  0.5215  0.5487
 8698TIP3    H147585   1.297   5.260  13.163  0.8646  0.6441  0.7021
 8698TIP3    H247586   1.396   5.333  13.075  0.2905  1.5344  0.7879
 8699TIP3   OH247587   4.350   6.814   3.039  0.2784  0.8980 -0.5309
 8699TIP3    H147588   4.394   6.783   2.960 -0.0336  0.1550 -0.4175
 8699TIP3    H247589   4.382   6.757   3.109 -0.0957  1.0046 -0.2690
 8700TIP3   OH247590   2.407   5.505   4.868 -0.3081  0.2063 -0.6851
 8700TIP3    H147591   2.439   5.595   4.864  1.6818 -0.3369  0.9882
 8700TIP3    H247592   2.311   5.513   4.865 -0.1540  2.2682 -1.6024
 8701TIP3   OH247593   5.516   1.796  13.777 -0.1412  0.2178  0.4596
 8701TIP3    H147594   5.434   1.830  13.811 -1.0835 -1.6805  0.2172
 8701TIP3    H247595   5.549   1.738  13.846  0.4657  0.1466  0.1232
 8702TIP3   OH247596   3.038   5.171   2.191 -0.0814  0.4423  0.0652
 8702TIP3    H147597   3.088   5.232   2.245  3.7487 -1.9455 -0.3551
 8702TIP3    H247598   3.063   5.194   2.101 -2.4496  1.2346 -0.4434
 8703TIP3   OH247599   6.742   4.841   5.760  0.1909  0.2103 -0.2881
 8703TIP3    H147600   6.803   4.877   5.696  1.2649  0.5093  0.8860
 8703TIP3    H247601   6.713   4.916   5.811  0.0558 -0.1496  0.1744
 8704TIP3   OH247602   0.828   2.700  15.511  0.7240  0.8331  0.2813
 8704TIP3    H147603   0.875   2.632  15.559 -1.2676 -0.1537  0.9629
 8704TIP3    H247604   0.839   2.677  15.419  1.3563  0.5008  0.4310
 8705TIP3   OH247605   0.608   5.974   2.313 -0.5670  0.1017  0.5019
 8705TIP3    H147606   0.535   6.004   2.258  0.6266 -0.0723 -1.2469
 8705TIP3    H247607   0.612   5.880   2.299 -1.6032 -0.3433  2.6615
 8706TIP3   OH247608   1.555   6.143   3.682  0.2748 -0.0141 -0.2019
 8706TIP3    H147609   1.582   6.107   3.766  0.5436 -1.5409 -0.9033
 8706TIP3    H247610   1.468   6.179   3.698  0.1019 -0.7517  0.6120
 8707TIP3   OH247611   0.196   2.372  15.182 -0.5181  0.2323  0.3155
 8707TIP3    H147612   0.155   2.325  15.109 -0.7594  1.0415 -0.0773
 8707TIP3    H247613   0.137   2.444  15.201  0.0340  0.6024  0.6667
 8708TIP3   OH247614   5.892   4.027   5.349  0.0377 -0.1654  0.1117
 8708TIP3    H147615   5.949   4.103   5.361 -0.6046  1.3166 -4.5333
 8708TIP3    H247616   5.807   4.063   5.325 -0.2817 -2.2747 -2.3351
 8709TIP3   OH247617   4.893   0.356  14.462 -0.5688 -0.1933 -0.4077
 8709TIP3    H147618   4.881   0.267  14.495 -2.3123  0.0480 -0.3264
 8709TIP3    H247619   4.923   0.344  14.372  0.4950 -0.8397  0.0128
 8710TIP3   OH247620   0.508   4.542   1.395  0.0260  0.1555 -0.0353
 8710TIP3    H147621   0.569   4.615   1.390 -0.3657  0.4260 -1.0661
 8710TIP3    H247622   0.550   4.472   1.345  0.1174 -0.1228  0.4264
 8711TIP3   OH247623   5.751   0.613  17.084  0.0121 -0.3482  0.0576
 8711TIP3    H147624   5.755   0.518  17.095 -1.3137 -0.4459 -0.1867
 8711TIP3    H247625   5.837   0.636  17.048 -0.0755 -1.6219 -1.0632
 8712TIP3   OH247626   5.009   5.357   5.905  0.1583  0.7323  0.0572
 8712TIP3    H147627   4.981   5.267   5.924  0.0146  0.8080  0.1948
 8712TIP3    H247628   5.026   5.396   5.991  3.1162 -0.0845 -0.0521
 8713TIP3   OH247629   2.524   1.803  14.408 -0.5393  0.1756  0.2088
 8713TIP3    H147630   2.482   1.737  14.463 -1.1080  0.2021 -0.1822
 8713TIP3    H247631   2.529   1.881  14.463 -2.1334  0.5493 -0.1138
 8714TIP3   OH247632   0.575   1.018   3.635 -0.0619 -0.1682 -0.2028
 8714TIP3    H147633   0.649   1.021   3.573 -0.2922 -0.7672 -0.5141
 8714TIP3    H247634   0.570   0.927   3.662 -1.4397 -0.3903 -1.1142
 8715TIP3   OH247635   2.848   6.096  11.807 -0.4457  0.7287 -0.2757
 8715TIP3    H147636   2.868   6.187  11.827  0.1086  0.3762  0.8774
 8715TIP3    H247637   2.763   6.080  11.849 -0.4429  0.6510 -0.2989
 8716TIP3   OH247638   0.283   5.309   0.273 -0.0990 -0.1814  0.0262
 8716TIP3    H147639   0.192   5.311   0.244 -0.1863 -1.7266  0.1461
 8716TIP3    H247640   0.323   5.237   0.225  0.5060 -0.8893  1.5164
 8717TIP3   OH247641   1.717   2.743   6.261  0.1214  0.0695  0.0432
 8717TIP3    H147642   1.713   2.699   6.346 -0.0263  0.4972  0.2643
 8717TIP3    H247643   1.626   2.766   6.241  0.2892  1.0811  0.3751
 8718TIP3   OH247644   2.805   4.379  16.627 -0.8671 -0.0013  0.0149
 8718TIP3    H147645   2.797   4.289  16.659 -2.1311  0.0394 -0.1408
 8718TIP3    H247646   2.719   4.399  16.591 -0.3550  1.0003 -0.6884
 8719TIP3   OH247647   2.876   1.960   4.501 -0.0613 -0.4090 -0.5237
 8719TIP3    H147648   2.815   1.948   4.429 -0.7440  0.8953 -0.1947
 8719TIP3    H247649   2.821   1.972   4.578  0.5393  1.4935 -0.3247
 8720TIP3   OH247650   3.641   3.668  15.068  0.1040 -0.5536 -0.0836
 8720TIP3    H147651   3.590   3.743  15.099 -0.1703 -1.7932  2.6990
 8720TIP3    H247652   3.720   3.668  15.121 -0.9348 -3.4690  1.7580
 8721TIP3   OH247653   1.088   2.129  12.068 -0.0503  0.4865 -0.5662
 8721TIP3    H147654   1.041   2.213  12.074 -0.0895  0.3912  0.7807
 8721TIP3    H247655   1.089   2.109  11.975 -2.6995  0.4916 -0.6697
 8722TIP3   OH247656   1.575   6.463  12.433  0.4922 -0.4159  0.0498
 8722TIP3    H147657   1.665   6.459  12.401  0.5317 -0.1556  0.1213
 8722TIP3    H247658   1.521   6.449  12.356  0.5481  2.1200 -0.5311
 8723TIP3   OH247659   1.487   4.542  10.431 -0.3777 -0.3999  0.0592
 8723TIP3    H147660   1.502   4.495  10.513 -0.0908  1.1899  0.9484
 8723TIP3    H247661   1.420   4.491  10.386 -1.4806 -0.6260  1.8617
 8724TIP3   OH247662   0.840   5.349  14.661  0.4253  0.1929  0.6873
 8724TIP3    H147663   0.789   5.417  14.618  0.9622  0.3942  0.3576
 8724TIP3    H247664   0.838   5.275  14.599  4.3451  1.7089 -1.6132
 8725TIP3   OH247665   3.099   5.959   1.870 -0.5978 -0.6981 -0.6234
 8725TIP3    H147666   3.195   5.953   1.871 -0.6075 -1.2442 -1.4954
 8725TIP3    H247667   3.082   6.049   1.842 -0.3308 -0.6131 -0.5184
 8726TIP3   OH247668   3.680   6.366   3.097 -0.2616  0.3278 -0.2338
 8726TIP3    H147669   3.654   6.450   3.134 -0.1289 -0.4314  1.6850
 8726TIP3    H247670   3.758   6.341   3.147 -1.1108 -1.5866  0.2410
 8727TIP3   OH247671   2.333   0.466  12.001 -0.0147 -0.0853  0.2279
 8727TIP3    H147672   2.260   0.456  12.063  0.9410  1.0762  1.6265
 8727TIP3    H247673   2.304   0.535  11.941  0.2947  1.1327  1.4253
 8728TIP3   OH247674   4.996   6.112   2.938 -0.3333 -0.1357  0.4472
 8728TIP3    H147675   4.955   6.197   2.924 -0.9770 -0.4859  0.1508
 8728TIP3    H247676   4.927   6.058   2.977  0.2780 -0.3207  1.3015
 8729TIP3   OH247677   4.033   2.675   3.836  0.0161 -0.5062  0.2774
 8729TIP3    H147678   3.960   2.645   3.782  0.9029  0.0925 -1.3084
 8729TIP3    H247679   4.095   2.714   3.774  0.5967  1.1954  1.8190
 8730TIP3   OH247680   0.403   4.798   0.431 -0.0172 -0.1375 -0.4517
 8730TIP3    H147681   0.392   4.888   0.399 -1.6983 -0.6267 -1.4072
 8730TIP3    H247682   0.332   4.787   0.494  0.7787 -0.5012  0.3951
 8731TIP3   OH247683   1.969   3.650  15.955 -0.1220  0.5319 -0.1907
 8731TIP3    H147684   1.934   3.569  15.992  3.4345 -1.4231 -0.5983
 8731TIP3    H247685   1.958   3.640  15.860  1.3692 -0.1424 -0.3300
 8732TIP3   OH247686   2.074   5.800  16.885 -0.3778  0.4343 -0.4440
 8732TIP3    H147687   1.996   5.828  16.933  0.3722  1.6991  0.0816
 8732TIP3    H247688   2.046   5.798  16.793 -1.3332 -0.2920 -0.1554
 8733TIP3   OH247689   5.336   1.117   6.106  0.0809 -0.3159 -0.1131
 8733TIP3    H147690   5.297   1.203   6.092  0.4179 -0.1960 -0.3306
 8733TIP3    H247691   5.275   1.056   6.065 -0.5419 -0.2619  0.6851
 8734TIP3   OH247692   3.962   3.580  10.757  0.3406 -0.2638 -0.3910
 8734TIP3    H147693   4.052   3.557  10.732  1.2142  2.2106  0.2656
 8734TIP3    H247694   3.956   3.554  10.849  0.4231 -0.3103 -0.3978
 8735TIP3   OH247695   2.961   6.299  12.688  0.2082 -0.0250 -0.1774
 8735TIP3    H147696   2.910   6.239  12.743 -0.4956 -0.4706 -1.2682
 8735TIP3    H247697   2.912   6.381  12.691 -1.2939 -0.7606 -2.1151
 8736TIP3   OH247698   0.934   3.682   6.648 -0.0342 -0.0263 -0.5170
 8736TIP3    H147699   0.997   3.731   6.596  0.7704 -0.6740 -0.1575
 8736TIP3    H247700   0.956   3.590   6.634 -0.3897 -0.2380  0.2320
 8737TIP3   OH247701   2.225   5.047  12.296  0.0576  0.7044  0.4183
 8737TIP3    H147702   2.303   5.103  12.304  0.0103  1.0302 -0.9887
 8737TIP3    H247703   2.258   4.967  12.254 -0.5380  1.4013 -1.5183
 8738TIP3   OH247704   3.767   0.761   3.322  0.9003 -0.2452  0.2401
 8738TIP3    H147705   3.685   0.807   3.341  1.1484 -0.1756  1.2168
 8738TIP3    H247706   3.789   0.788   3.233 -0.3838 -0.6511 -0.2374
 8739TIP3   OH247707   0.898   1.119   3.664  0.0537 -0.4074 -0.3797
 8739TIP3    H147708   0.871   1.128   3.755 -3.0277  2.0512 -1.3643
 8739TIP3    H247709   0.986   1.157   3.661 -0.1095  0.1855  1.4307
 8740TIP3   OH247710   0.254   1.812  13.973  0.2347 -0.1137 -0.0634
 8740TIP3    H147711   0.165   1.781  13.955  0.3840 -0.4144 -0.3000
 8740TIP3    H247712   0.247   1.907  13.974  0.0644 -0.1109 -0.9103
 8741TIP3   OH247713   6.366   4.578   3.455 -0.0568 -0.2597 -0.9719
 8741TIP3    H147714   6.282   4.558   3.414 -0.9272  1.3826 -0.0656
 8741TIP3    H247715   6.344   4.633   3.530  1.7044 -1.0663  0.2109
 8742TIP3   OH247716   3.679   2.425  15.284 -0.1825  0.3902  0.0362
 8742TIP3    H147717   3.653   2.431  15.192 -1.0578  1.7237  0.3408
 8742TIP3    H247718   3.744   2.495  15.294  0.3136 -0.1082  0.3068
 8743TIP3   OH247719   2.411   3.513   0.713 -0.2952  0.1354 -0.0579
 8743TIP3    H147720   2.474   3.576   0.677  1.0523 -0.6480  0.8517
 8743TIP3    H247721   2.350   3.566   0.763 -0.9457  1.0171 -1.7046
 8744TIP3   OH247722   3.588   3.375  11.474  0.5804  0.3371  0.4092
 8744TIP3    H147723   3.582   3.382  11.570 -0.0052 -0.7377  0.4653
 8744TIP3    H247724   3.557   3.460  11.442 -0.0644  0.3948  1.1586
 8745TIP3   OH247725   4.603   6.091   0.785 -0.7840  0.2419  0.4987
 8745TIP3    H147726   4.514   6.127   0.778 -0.8988  0.2234  1.7590
 8745TIP3    H247727   4.597   6.005   0.742 -0.8219  1.1102 -1.3588
 8746TIP3   OH247728   2.495   1.049   4.936 -0.2482  0.2432 -0.4460
 8746TIP3    H147729   2.514   1.078   5.025 -1.2363  1.0996 -0.4945
 8746TIP3    H247730   2.581   1.041   4.894  0.1783  0.5827  0.3553
 8747TIP3   OH247731   5.927   0.179  11.239  0.1198  0.0445  0.0214
 8747TIP3    H147732   5.856   0.124  11.271  0.2680  0.4209  1.0132
 8747TIP3    H247733   5.887   0.233  11.171  0.2736 -2.2631 -2.0698
 8748TIP3   OH247734   3.739   0.590   4.633 -0.4217 -0.9494  0.0554
 8748TIP3    H147735   3.759   0.684   4.638  1.3038 -1.2438 -0.8093
 8748TIP3    H247736   3.706   0.568   4.720  0.4681  0.1597  0.7012
 8749TIP3   OH247737   1.948   5.236  14.581  0.1597 -0.2432 -0.0357
 8749TIP3    H147738   2.034   5.254  14.542 -0.2064  2.0348  0.0477
 8749TIP3    H247739   1.919   5.155  14.540  1.9029 -0.5178 -0.8255
 8750TIP3   OH247740   5.141   6.455   5.099 -0.5580 -0.1716  0.4130
 8750TIP3    H147741   5.196   6.386   5.136  0.3889 -0.1906 -0.9758
 8750TIP3    H247742   5.129   6.431   5.008 -0.4494  1.3299 -0.0259
 8751TIP3   OH247743   3.116   4.889  12.261 -0.0759  0.7681 -0.9256
 8751TIP3    H147744   3.205   4.909  12.231  0.3337  0.2594 -0.0734
 8751TIP3    H247745   3.091   4.812  12.210  0.0877  0.7269 -0.9455
 8752TIP3   OH247746   1.281   0.284  16.140  0.6603  0.2000  0.4825
 8752TIP3    H147747   1.234   0.334  16.207 -0.5622 -1.3929  0.8796
 8752TIP3    H247748   1.361   0.255  16.184  0.3481  0.0133  0.9382
 8753TIP3   OH247749   3.066   5.866  15.959 -0.1621 -0.4744 -0.1931
 8753TIP3    H147750   3.082   5.864  16.054 -2.1629  0.3141  0.2129
 8753TIP3    H247751   2.995   5.803  15.946 -1.0170  0.5839 -0.8780
 8754TIP3   OH247752   4.882   0.493  16.013 -0.8805  0.3367 -0.3147
 8754TIP3    H147753   4.931   0.514  16.092 -0.6525 -0.2332 -0.3004
 8754TIP3    H247754   4.877   0.398  16.012 -0.3019  0.3049 -1.3269
 8755TIP3   OH247755   5.257   5.595  14.683  0.2791  0.1271 -0.3506
 8755TIP3    H147756   5.304   5.543  14.748 -1.8003 -0.3958  0.8214
 8755TIP3    H247757   5.219   5.530  14.624  0.5831  0.5120 -0.9837
 8756TIP3   OH247758   1.187   1.381  11.022 -0.2719 -0.3583  0.1389
 8756TIP3    H147759   1.233   1.420  11.096  0.6639 -0.8149 -0.1825
 8756TIP3    H247760   1.257   1.352  10.963 -0.9675 -1.2112 -0.2927
 8757TIP3   OH247761   5.761   5.850  16.125 -0.5633 -0.0756 -0.3538
 8757TIP3    H147762   5.668   5.831  16.124 -1.0138  1.8771 -0.0393
 8757TIP3    H247763   5.766   5.943  16.146  1.5372 -0.5667  1.7442
 8758TIP3   OH247764   5.739   3.746   5.577 -0.3659  0.2697  0.0503
 8758TIP3    H147765   5.688   3.794   5.512 -2.5230 -1.5468  0.2844
 8758TIP3    H247766   5.764   3.666   5.533 -0.0167 -0.0371  0.7909
 8759TIP3   OH247767   0.608   1.778  17.139  0.2289  0.3200  0.1044
 8759TIP3    H147768   0.544   1.844  17.112  2.5882  2.4243 -0.7612
 8759TIP3    H247769   0.641   1.742  17.057  0.7786 -0.0718  0.4898
 8760TIP3   OH247770   2.168   4.101   4.445 -0.1119 -0.6854  0.4967
 8760TIP3    H147771   2.179   4.158   4.522 -0.7572  1.5468 -0.9630
 8760TIP3    H247772   2.137   4.018   4.481  0.5417 -0.0384  2.7137
 8761TIP3   OH247773   1.788   5.985  13.338  0.2724 -0.8916  0.6721
 8761TIP3    H147774   1.871   5.939  13.333 -0.2523 -1.9138  0.9147
 8761TIP3    H247775   1.738   5.935  13.403 -1.2332 -1.4799 -0.8574
 8762TIP3   OH247776   1.586   1.355  14.399  0.9816  0.0100  0.1762
 8762TIP3    H147777   1.495   1.352  14.369  0.4730  0.9328  1.5135
 8762TIP3    H247778   1.633   1.296  14.341 -0.7067 -1.4542  0.2160
 8763TIP3   OH247779   1.757   4.677  11.688  0.1670  0.0788 -0.1104
 8763TIP3    H147780   1.663   4.663  11.678  0.1388 -1.3747  1.7804
 8763TIP3    H247781   1.776   4.752  11.630 -2.5181  1.8315  1.0674
 8764TIP3   OH247782   1.777   1.560   4.202 -0.4221  0.3841 -0.0597
 8764TIP3    H147783   1.814   1.474   4.222  1.9764  1.0263 -1.3543
 8764TIP3    H247784   1.846   1.622   4.225 -2.3619  2.0925  1.5488
 8765TIP3   OH247785   5.152   3.498   5.786  0.2580 -0.4188 -0.1718
 8765TIP3    H147786   5.182   3.556   5.856  0.5070 -1.1255  0.3252
 8765TIP3    H247787   5.181   3.540   5.706 -1.1995  1.1016  0.0370
 8766TIP3   OH247788   1.514   6.341  16.282  0.8383  0.1178  0.1753
 8766TIP3    H147789   1.477   6.256  16.256 -1.0601 -0.1899  3.4243
 8766TIP3    H247790   1.580   6.320  16.348 -1.0087  1.1596  2.4695
 8767TIP3   OH247791   5.382   0.133  12.099 -0.1335  0.1928 -0.3736
 8767TIP3    H147792   5.397   0.142  12.193 -0.4459 -0.9853 -0.1959
 8767TIP3    H247793   5.469   0.117  12.062 -0.2740 -1.7284  0.0373
 8768TIP3   OH247794   4.483   1.591  15.455  0.0985  0.4022  0.5779
 8768TIP3    H147795   4.570   1.605  15.416 -0.3421  0.2548 -0.4975
 8768TIP3    H247796   4.474   1.661  15.519  1.1477  0.2119  0.9568
 8769TIP3   OH247797   2.654   4.673   5.417 -0.6303 -0.2358  0.5092
 8769TIP3    H147798   2.602   4.601   5.380 -0.1178 -0.0271 -0.6914
 8769TIP3    H247799   2.736   4.631   5.444 -0.6278 -0.2284  0.5137
 8770TIP3   OH247800   6.395   2.601  15.255 -0.2871  0.2020  0.0990
 8770TIP3    H147801   6.452   2.525  15.257 -0.4723  0.0604  0.0444
 8770TIP3    H247802   6.361   2.603  15.165  1.4360  1.6247 -0.5814
 8771TIP3   OH247803   0.047   5.229  13.471 -0.1096  0.1646  0.3846
 8771TIP3    H147804   0.110   5.192  13.534 -0.8047  0.8314  1.5017
 8771TIP3    H247805   0.098   5.293  13.421  0.1095  0.7394  1.3114
 8772TIP3   OH247806   0.798   3.922  16.446  0.7311 -0.4544 -0.1523
 8772TIP3    H147807   0.727   3.869  16.410  0.9318 -0.7690 -0.0913
 8772TIP3    H247808   0.763   3.957  16.528  0.1034  0.6381 -0.8477
 8773TIP3   OH247809   6.579   0.734   4.108  0.5422  0.8110  0.1467
 8773TIP3    H147810   6.628   0.657   4.135  1.0983  0.5384 -1.4933
 8773TIP3    H247811   6.565   0.722   4.014 -1.1052  1.7675  0.2377
 8774TIP3   OH247812   0.633   4.198  17.169 -0.6584 -0.6111  0.4560
 8774TIP3    H147813   0.663   4.166  17.254  1.1026 -0.4707 -0.0836
 8774TIP3    H247814   0.657   4.291  17.168  1.7311 -1.1519 -1.1457
 8775TIP3   OH247815   1.466   1.930   6.351  0.0504 -0.5002 -0.0211
 8775TIP3    H147816   1.476   2.020   6.384 -1.7129 -0.2653 -0.0424
 8775TIP3    H247817   1.518   1.928   6.271  2.1695 -0.2693  1.2740
 8776TIP3   OH247818   1.858   0.890  17.179 -0.1377  0.4430 -0.0724
 8776TIP3    H147819   1.929   0.896  17.244  0.9708 -0.7926 -1.1091
 8776TIP3    H247820   1.784   0.934  17.220  0.7180  0.2513  1.7689
 8777TIP3   OH247821   1.487   5.970   3.051 -0.2519 -0.2328 -0.4696
 8777TIP3    H147822   1.397   5.966   3.020 -0.3407 -0.1920 -0.2216
 8777TIP3    H247823   1.491   6.052   3.100 -1.1619 -2.0052  2.8627
 8778TIP3   OH247824   5.948   4.912  12.998 -0.2108  0.2967 -0.1018
 8778TIP3    H147825   5.974   4.871  12.915  1.1007  1.1594 -0.1478
 8778TIP3    H247826   5.911   4.841  13.050 -2.6481  0.0394 -2.0267
 8779TIP3   OH247827   6.646   4.007  11.802  0.1990 -0.0969  0.2877
 8779TIP3    H147828   6.635   4.065  11.878 -0.1173 -0.7789  0.7787
 8779TIP3    H247829   6.683   4.063  11.734  2.0570  0.1681  1.4481
 8780TIP3   OH247830   5.436   4.570   3.001 -0.4860 -0.2008 -0.3631
 8780TIP3    H147831   5.349   4.597   3.030 -1.1954 -0.0612 -2.4456
 8780TIP3    H247832   5.454   4.624   2.924  1.6954  0.1470  0.3208
 8781TIP3   OH247833   1.399   4.174  13.860  0.1072 -0.0897  0.6395
 8781TIP3    H147834   1.455   4.146  13.933  0.7624 -0.5527 -0.0259
 8781TIP3    H247835   1.436   4.130  13.783 -0.7758  0.1280  0.0788
 8782TIP3   OH247836   5.859   1.491   3.663 -0.1576 -0.2855 -1.0028
 8782TIP3    H147837   5.805   1.460   3.590 -0.0336 -0.3028 -1.0888
 8782TIP3    H247838   5.837   1.433   3.736 -0.2995 -0.2531 -1.0200
 8783TIP3   OH247839   3.999   3.431   3.634  0.3364  0.1482  0.5253
 8783TIP3    H147840   4.059   3.504   3.623  2.1031 -1.1693  0.8919
 8783TIP3    H247841   4.021   3.371   3.563  0.3047 -0.9030  1.3710
 8784TIP3   OH247842   5.508   2.923  14.123 -0.3309 -0.0894  0.1961
 8784TIP3    H147843   5.493   3.017  14.123 -0.4173 -0.0155  3.0347
 8784TIP3    H247844   5.442   2.888  14.063 -2.3808  1.4159  1.4576
 8785TIP3   OH247845   1.178   4.105   2.729 -0.0487  0.5192 -0.9610
 8785TIP3    H147846   1.116   4.110   2.802 -1.9592  0.9920 -2.5389
 8785TIP3    H247847   1.134   4.052   2.663  1.0123  1.2870 -2.3521
 8786TIP3   OH247848   3.785   4.940  11.795 -0.1401 -0.0210 -0.2702
 8786TIP3    H147849   3.873   4.943  11.757 -1.4469  0.1787 -3.6249
 8786TIP3    H247850   3.752   5.029  11.784  0.2124  0.8131  3.9191
 8787TIP3   OH247851   4.235   3.709   3.926  0.1561  0.0479  0.2666
 8787TIP3    H147852   4.171   3.648   3.964 -0.7490  1.4806  1.1297
 8787TIP3    H247853   4.182   3.784   3.899  1.5016  1.4749  1.4204
 8788TIP3   OH247854   1.090   2.702   3.793  0.9565  0.2719 -0.6521
 8788TIP3    H147855   1.157   2.671   3.855  0.5913  0.4091 -0.1846
 8788TIP3    H247856   1.073   2.626   3.737  0.7581 -0.0893 -0.1142
 8789TIP3   OH247857   3.006   5.659  15.198 -0.1385 -0.0045 -0.3135
 8789TIP3    H147858   2.995   5.749  15.166 -0.2067  0.4470  0.9168
 8789TIP3    H247859   3.101   5.645  15.198  0.0026  0.7215  1.1173
 8790TIP3   OH247860   4.454   3.936   2.445 -0.3412  0.4647 -0.1410
 8790TIP3    H147861   4.387   3.869   2.433 -0.7638  0.8283  0.1584
 8790TIP3    H247862   4.442   3.966   2.535  0.5423  0.1928  0.0792
 8791TIP3   OH247863   2.943   2.393  14.357  0.1646 -0.2547 -0.1385
 8791TIP3    H147864   2.913   2.446  14.431 -0.8722 -1.8862  0.6520
 8791TIP3    H247865   2.894   2.427  14.282 -1.0743 -0.5849  0.4987
 8792TIP3   OH247866   0.799   2.063   4.734 -0.0472 -0.6808  0.0713
 8792TIP3    H147867   0.797   1.973   4.766  3.1910 -0.1108  2.3836
 8792TIP3    H247868   0.733   2.108   4.786 -2.8101 -1.8560 -2.1681
 8793TIP3   OH247869   4.766   5.256   4.490 -0.1371  0.2734 -0.1105
 8793TIP3    H147870   4.783   5.340   4.533 -0.1658 -0.1500  0.7434
 8793TIP3    H247871   4.853   5.221   4.471 -0.0936 -0.0342  0.6039
 8794TIP3   OH247872   3.572   0.052  15.095  0.9760 -0.0428  0.0516
 8794TIP3    H147873   3.570  -0.031  15.143  0.0917  0.1728  0.4052
 8794TIP3    H247874   3.610   0.030  15.010 -0.9055 -1.1931 -0.5444
 8795TIP3   OH247875   2.286   3.181   2.755 -0.1775  0.3572 -0.0394
 8795TIP3    H147876   2.199   3.197   2.717  0.5582  2.0056 -1.1320
 8795TIP3    H247877   2.315   3.266   2.787  0.7238 -0.3282  1.0250
 8796TIP3   OH247878   2.428   2.447  16.047 -0.4416  0.0953  0.1751
 8796TIP3    H147879   2.401   2.415  16.133  0.3109 -1.4631 -0.1272
 8796TIP3    H247880   2.524   2.443  16.050 -0.3271  2.1276  0.0118
 8797TIP3   OH247881   2.109   4.842   4.694  0.1950  0.0541 -0.0908
 8797TIP3    H147882   2.176   4.874   4.754  0.1923  1.6335 -0.8767
 8797TIP3    H247883   2.027   4.876   4.730 -0.1274 -1.1965  0.4218
 8798TIP3   OH247884   5.606   4.565  16.509  0.0025  0.8707 -0.0312
 8798TIP3    H147885   5.615   4.544  16.416  0.4258  1.1006 -0.0426
 8798TIP3    H247886   5.674   4.514  16.552  0.0906  1.1007  0.1026
 8799TIP3   OH247887   2.657   2.317   2.458 -0.2982  0.3727 -1.2411
 8799TIP3    H147888   2.725   2.316   2.525 -0.6724 -0.2864 -0.8651
 8799TIP3    H247889   2.692   2.373   2.389  0.1057  1.0433 -0.5100
 8800TIP3   OH247890   5.430   4.849   2.866  0.0414 -0.2838 -0.3185
 8800TIP3    H147891   5.365   4.814   2.806 -1.1525  0.4342  0.5086
 8800TIP3    H247892   5.403   4.939   2.881  0.3623 -0.4094  1.2020
 8801TIP3   OH247893   0.509   2.123   3.735  0.0231  0.0671 -0.1079
 8801TIP3    H147894   0.549   2.203   3.703  1.8363 -0.6504  0.1979
 8801TIP3    H247895   0.462   2.150   3.814 -3.7167  1.6717 -2.6282
 8802TIP3   OH247896   4.648   1.652  11.225 -0.0991 -0.4782  0.6365
 8802TIP3    H147897   4.725   1.602  11.196  0.0598 -0.9862  1.8456
 8802TIP3    H247898   4.683   1.739  11.246  0.3029 -0.8979  1.8073
 8803TIP3   OH247899   0.545   2.890   4.772  0.8415  0.2786  0.0890
 8803TIP3    H147900   0.539   2.935   4.856  2.5733  0.3826  0.1904
 8803TIP3    H247901   0.457   2.896   4.735  0.3851  1.4042  1.2909
 8804TIP3   OH247902   1.408   6.381  17.134 -0.4916 -0.3350  0.9090
 8804TIP3    H147903   1.503   6.368  17.129 -0.2522  1.4727  0.2412
 8804TIP3    H247904   1.372   6.307  17.084  0.5774 -0.7140  0.6563
 8805TIP3   OH247905   0.474   3.351   0.092  0.2752  0.9496  0.2275
 8805TIP3    H147906   0.555   3.332   0.141  0.4624  1.9145  0.3111
 8805TIP3    H247907   0.467   3.278   0.030 -0.0479 -0.3956  1.7667
 8806TIP3   OH247908   4.396   3.633   2.813 -0.0750 -0.5598 -0.5426
 8806TIP3    H147909   4.483   3.632   2.774  0.0886 -3.1228 -0.2448
 8806TIP3    H247910   4.401   3.700   2.881  0.9036  0.9639 -2.0191
 8807TIP3   OH247911   4.197   0.522  14.693 -0.6227  0.2952 -0.6570
 8807TIP3    H147912   4.254   0.592  14.724  0.1901 -0.5524 -0.1796
 8807TIP3    H247913   4.257   0.456  14.658 -1.3384 -0.3829 -0.6456
 8808TIP3   OH247914   5.441   4.467   5.937  0.5357 -0.3601  0.1947
 8808TIP3    H147915   5.390   4.539   5.974  0.8645 -0.3521  0.6434
 8808TIP3    H247916   5.532   4.494   5.947  0.6356  0.2668 -1.8870
 8809TIP3   OH247917   0.854   0.692   5.734 -0.1522  0.1115 -0.2939
 8809TIP3    H147918   0.914   0.627   5.770 -0.9874  0.5353  1.9694
 8809TIP3    H247919   0.798   0.643   5.673  0.8364 -0.7561 -0.5269
 8810TIP3   OH247920   6.523   6.562   1.637  0.5905 -0.6487 -0.3506
 8810TIP3    H147921   6.600   6.505   1.634  0.2593 -1.2900  1.7783
 8810TIP3    H247922   6.522   6.605   1.551  1.8852 -2.4759 -1.3530
 8811TIP3   OH247923   1.198   3.996   0.910 -0.4944 -0.3420  0.0417
 8811TIP3    H147924   1.150   3.934   0.855  2.1204 -0.5383 -2.2152
 8811TIP3    H247925   1.274   3.947   0.941  0.6416  1.1819 -0.2156
 8812TIP3   OH247926   2.541   6.590  17.202 -0.2360  0.7223  0.1269
 8812TIP3    H147927   2.588   6.672  17.186  0.1553  0.9027  2.0194
 8812TIP3    H247928   2.450   6.616  17.215 -0.3285  0.7075 -0.4518
 8813TIP3   OH247929   0.411   0.520  12.180  0.4301  0.1061  0.1414
 8813TIP3    H147930   0.341   0.573  12.218 -0.4810 -0.0405 -1.2783
 8813TIP3    H247931   0.366   0.442  12.147  0.8270  1.0605 -2.9387
 8814TIP3   OH247932   6.805   6.762   1.959 -0.0942  0.1905 -1.0921
 8814TIP3    H147933   6.711   6.764   1.939 -0.6953  1.3675  1.3896
 8814TIP3    H247934   6.833   6.675   1.932 -2.7708 -1.5985  1.2983
 8815TIP3   OH247935   2.946   3.855  14.380  0.0451  0.1048  0.3026
 8815TIP3    H147936   2.896   3.799  14.320 -0.6869 -0.3411  1.2940
 8815TIP3    H247937   2.900   3.939  14.379  1.7109  1.0981 -1.9455
 8816TIP3   OH247938   0.000   6.022   3.935  0.5365 -0.3040  0.4850
 8816TIP3    H147939  -0.054   6.099   3.952  0.2217 -0.3117 -0.4076
 8816TIP3    H247940  -0.062   5.954   3.910  0.8723 -0.6229  0.5033
 8817TIP3   OH247941   4.232   1.626  11.530  0.5515  0.1436  0.3357
 8817TIP3    H147942   4.246   1.648  11.438  0.3800 -0.2795  0.2086
 8817TIP3    H247943   4.137   1.623  11.541  0.5375  1.6448  0.8804
 8818TIP3   OH247944   2.134   4.632  13.766 -0.0323 -0.4998  0.3750
 8818TIP3    H147945   2.086   4.576  13.705 -0.4897 -0.0240  0.2962
 8818TIP3    H247946   2.090   4.618  13.850  0.0282 -0.4659  0.4125
 8819TIP3   OH247947   6.197   6.805  10.713 -0.6385 -0.2661  0.4087
 8819TIP3    H147948   6.222   6.883  10.663  1.0677 -0.4972  0.8548
 8819TIP3    H247949   6.227   6.732  10.660 -2.3501 -0.6744 -0.0688
 8820TIP3   OH247950   0.455   3.425   2.685 -0.7728 -0.0075  0.0692
 8820TIP3    H147951   0.359   3.430   2.685 -0.8920  1.4472  4.0915
 8820TIP3    H247952   0.475   3.347   2.736  0.1150  0.3841  0.3418
 8821TIP3   OH247953   3.046   1.363  16.589 -0.5392 -0.1213 -0.4949
 8821TIP3    H147954   3.123   1.309  16.572 -0.5734 -0.4331  0.3058
 8821TIP3    H247955   3.047   1.379  16.683 -1.2823  0.1316 -0.5164
 8822TIP3   OH247956   2.156   1.920   1.651 -0.2400  0.0658 -0.2306
 8822TIP3    H147957   2.076   1.920   1.598 -0.0765 -0.6785 -0.4795
 8822TIP3    H247958   2.202   1.840   1.626  0.5598  0.4571 -0.0415
 8823TIP3   OH247959   0.887   5.676   2.033  0.5411 -0.4132 -0.0301
 8823TIP3    H147960   0.841   5.757   2.011  0.9677 -0.3360 -0.6493
 8823TIP3    H247961   0.979   5.695   2.017  0.9094 -0.3330  1.8756
 8824TIP3   OH247962   5.349   3.588   5.969 -0.3933 -0.1908  0.0366
 8824TIP3    H147963   5.384   3.595   6.057 -1.8727  0.7123  0.5890
 8824TIP3    H247964   5.408   3.640   5.915  0.2847 -0.4087  0.5535
 8825TIP3   OH247965   0.745   2.924   4.166 -0.2435 -0.6881 -0.4200
 8825TIP3    H147966   0.706   2.894   4.248  0.2048 -0.8697 -0.2709
 8825TIP3    H247967   0.803   2.995   4.192 -1.2507  0.2882 -0.7641
 8826TIP3   OH247968   3.977   2.245   0.864 -0.4678  0.3297 -0.3100
 8826TIP3    H147969   4.036   2.234   0.790  0.5090  3.8459 -0.2462
 8826TIP3    H247970   3.985   2.163   0.913  2.6690 -0.2583 -1.5231
 8827TIP3   OH247971   3.913   2.804   5.624  0.2588  0.9680  0.1023
 8827TIP3    H147972   3.949   2.776   5.540  0.1921  0.0633  0.3673
 8827TIP3    H247973   3.870   2.726   5.659 -1.7133  1.9285 -0.0652
 8828TIP3   OH247974   2.775   3.516  11.440  0.2988 -0.3950 -0.0267
 8828TIP3    H147975   2.777   3.499  11.534  0.4765 -0.4292 -0.0368
 8828TIP3    H247976   2.750   3.432  11.401  1.0974 -0.6135 -0.0720
 8829TIP3   OH247977   4.451   4.865   6.027 -0.0095 -0.2237  0.2091
 8829TIP3    H147978   4.379   4.929   6.030 -0.2202 -0.4492  0.0086
 8829TIP3    H247979   4.435   4.808   6.103  0.2901  0.0819  0.5013
 8830TIP3   OH247980   3.600   1.242   2.065  0.1144  0.2439 -0.2218
 8830TIP3    H147981   3.660   1.312   2.040  1.3496  0.5352  3.0088
 8830TIP3    H247982   3.613   1.232   2.159 -1.5024 -2.9884 -0.1940
 8831TIP3   OH247983   2.156   0.827   4.613  0.2894  0.0286  0.2687
 8831TIP3    H147984   2.193   0.785   4.535 -1.1798 -0.1477 -0.3663
 8831TIP3    H247985   2.226   0.823   4.678  0.7070 -2.0481 -0.2530
 8832TIP3   OH247986   3.849   4.376   2.893  0.3240  0.7143  0.4874
 8832TIP3    H147987   3.851   4.358   2.799 -2.4551  1.5716  0.1707
 8832TIP3    H247988   3.851   4.290   2.935  3.4259  0.3470 -0.1829
 8833TIP3   OH247989   0.064   0.813  12.702  0.0853  0.0753 -0.1141
 8833TIP3    H147990   0.136   0.876  12.708  0.8145 -0.7985  0.6244
 8833TIP3    H247991   0.105   0.728  12.718 -0.6709 -0.7443 -2.0923
 8834TIP3   OH247992   2.659   0.818   3.319 -0.1778  0.4195 -0.1059
 8834TIP3    H147993   2.675   0.736   3.365 -1.9417  0.1678  0.1165
 8834TIP3    H247994   2.622   0.791   3.234 -1.9531  0.9556  0.4443
 8835TIP3   OH247995   3.625   0.686  14.734  0.0130 -0.5641 -0.3311
 8835TIP3    H147996   3.672   0.608  14.764 -3.7506 -2.5219  1.1601
 8835TIP3    H247997   3.601   0.733  14.814 -0.1956  0.6132 -1.0528
 8836TIP3   OH247998   3.866   3.146  12.811 -0.0879 -0.3099 -0.3618
 8836TIP3    H147999   3.929   3.217  12.829  0.7599 -0.6396 -1.9075
 8836TIP3    H248000   3.819   3.135  12.894  0.8244  1.0060  0.3723
 8837TIP3   OH248001   6.749   2.252   5.327 -0.6108  0.3410  0.4120
 8837TIP3    H148002   6.819   2.238   5.390  0.1934  1.1824 -0.2630
 8837TIP3    H248003   6.724   2.344   5.338  0.2823  0.8200 -1.1759
 8838TIP3   OH248004   0.214   3.311   4.330  0.1163  0.0221  0.6186
 8838TIP3    H148005   0.128   3.282   4.299  1.1198 -1.3016 -1.1129
 8838TIP3    H248006   0.198   3.345   4.418 -1.6834 -3.2668  1.7538
 8839TIP3   OH248007   4.032   6.543   4.288 -0.1978 -0.7286 -0.2627
 8839TIP3    H148008   3.954   6.518   4.338 -1.0814 -0.3722 -1.4028
 8839TIP3    H248009   4.043   6.473   4.224  0.2822 -0.6595 -0.2610
 8840TIP3   OH248010   2.471   0.556  15.085  0.2259 -0.2856 -0.1300
 8840TIP3    H148011   2.520   0.475  15.098  0.3314 -0.1336  0.4673
 8840TIP3    H248012   2.523   0.623  15.130 -1.0592 -0.2978  1.4485
 8841TIP3   OH248013   2.168   4.791  15.167 -0.2376  0.5224 -0.4264
 8841TIP3    H148014   2.244   4.766  15.219 -2.0781 -2.7533  0.9881
 8841TIP3    H248015   2.093   4.767  15.221 -2.2791  0.6199 -3.0168
 8842TIP3   OH248016   0.391   6.531  16.829  0.7309  0.2612 -0.1638
 8842TIP3    H148017   0.346   6.614  16.841  1.9803  0.6945  2.0415
 8842TIP3    H248018   0.480   6.556  16.805  1.7031 -0.2755  2.5466
 8843TIP3   OH248019   2.999   4.228   5.770 -0.3173 -0.4432 -0.9024
 8843TIP3    H148020   3.059   4.281   5.717  0.1340  0.1148  0.1258
 8843TIP3    H248021   3.052   4.154   5.799 -0.2040 -0.1347 -0.2868
 8844TIP3   OH248022   4.427   6.175  15.936 -0.2424 -0.3558 -0.1208
 8844TIP3    H148023   4.394   6.122  15.864 -0.7377 -1.1124  0.6379
 8844TIP3    H248024   4.354   6.182  15.997 -0.1147  1.0108 -0.0735
 8845TIP3   OH248025   3.266   4.483   1.690 -0.1090  0.0562 -0.2163
 8845TIP3    H148026   3.204   4.411   1.680  0.5576 -0.4356 -0.8773
 8845TIP3    H248027   3.351   4.440   1.701  0.0311  0.6927  1.5004
 8846TIP3   OH248028   0.758   2.284   3.420 -0.1909 -0.2924 -0.3325
 8846TIP3    H148029   0.845   2.314   3.392 -0.4224 -0.3640 -1.1510
 8846TIP3    H248030   0.776   2.218   3.487  0.3459  0.9680  0.8174
 8847TIP3   OH248031   0.102   0.617  11.227  0.5937 -0.7054 -0.2244
 8847TIP3    H148032   0.176   0.634  11.285  0.3897 -0.5368 -0.0094
 8847TIP3    H248033   0.132   0.645  11.140  1.0315 -1.3096 -0.2720
 8848TIP3   OH248034   0.210   1.940  13.234 -0.2089  0.1116  0.2776
 8848TIP3    H148035   0.221   1.852  13.200  0.7578  1.2832 -2.7594
 8848TIP3    H248036   0.117   1.946  13.257 -0.1499 -1.8331  1.1999
 8849TIP3   OH248037   4.112   5.227   2.670  0.3738 -0.4084  0.9846
 8849TIP3    H148038   4.158   5.282   2.606 -0.8430  0.2211  0.6288
 8849TIP3    H248039   4.029   5.206   2.628  0.2768 -1.4672  1.6560
 8850TIP3   OH248040   4.260   4.935  13.134 -0.0805 -0.3056  0.5365
 8850TIP3    H148041   4.210   4.935  13.053 -0.9101  2.1998  0.9694
 8850TIP3    H248042   4.286   5.026  13.147  1.2627 -0.8706  2.3660
 8851TIP3   OH248043   5.900   3.060   1.065 -0.6529  0.2781  0.5441
 8851TIP3    H148044   5.850   3.003   1.124 -1.1039 -0.6844 -0.7231
 8851TIP3    H248045   5.872   3.148   1.088 -3.2329 -0.2318 -0.3138
 8852TIP3   OH248046   4.094   3.820  15.287  0.2185  0.7000  0.2324
 8852TIP3    H148047   4.150   3.897  15.276  0.1267  0.7404  0.0372
 8852TIP3    H248048   4.102   3.798  15.380  0.5641  0.6986  0.2032
 8853TIP3   OH248049   4.434   1.096   0.754  0.6820  0.2077 -0.8876
 8853TIP3    H148050   4.509   1.155   0.753  1.9822 -1.3577 -0.2109
 8853TIP3    H248051   4.411   1.087   0.847  0.8535 -0.7408 -0.9237
 8854TIP3   OH248052   1.090   5.595   1.813 -0.2347 -0.2143 -0.1086
 8854TIP3    H148053   1.123   5.681   1.787 -0.1516 -0.3985 -0.6366
 8854TIP3    H248054   1.027   5.573   1.745 -1.4992  0.1541  0.9077
 8855TIP3   OH248055   1.143   1.532   0.936 -0.4718 -0.0626  0.1962
 8855TIP3    H148056   1.214   1.589   0.964  1.2264 -1.7035 -0.5409
 8855TIP3    H248057   1.069   1.591   0.921  0.5737  1.6517  1.4311
 8856TIP3   OH248058   1.740   0.326  14.566 -0.0972 -0.6573 -0.0401
 8856TIP3    H148059   1.738   0.342  14.472 -1.0152 -1.2358 -0.1308
 8856TIP3    H248060   1.811   0.382  14.598  0.6619 -0.9470 -1.1571
 8857TIP3   OH248061   0.580   5.344  16.660 -0.5040  0.2536  0.0490
 8857TIP3    H148062   0.534   5.284  16.601 -1.3036 -0.1626  1.0749
 8857TIP3    H248063   0.573   5.303  16.746 -0.3188  1.4045  0.6259
 8858TIP3   OH248064   2.792   5.880   3.410  0.5611  0.8647 -0.0817
 8858TIP3    H148065   2.704   5.848   3.390  0.4522  2.0099 -1.6652
 8858TIP3    H248066   2.850   5.807   3.387  0.0344 -0.2065  1.7625
 8859TIP3   OH248067   4.786   4.034  15.531 -0.3132  0.2785  0.4524
 8859TIP3    H148068   4.797   4.005  15.440 -1.0657  0.6261  0.2346
 8859TIP3    H248069   4.693   4.060  15.536 -0.3686 -0.0798  1.4199
 8860TIP3   OH248070   2.459   3.284   0.562  0.1680 -0.1655 -0.7305
 8860TIP3    H148071   2.419   3.358   0.607  0.0740 -0.5131 -0.2313
 8860TIP3    H248072   2.540   3.319   0.525 -0.1459  0.3196 -0.9715
 8861TIP3   OH248073   6.426   2.560   6.134 -0.7473 -0.0317  0.7970
 8861TIP3    H148074   6.432   2.637   6.191  0.7794  0.9755 -0.6404
 8861TIP3    H248075   6.487   2.497   6.173  0.0679  0.5419  0.4853
 8862TIP3   OH248076   2.641   3.930  16.353 -0.4731 -0.1927  0.2316
 8862TIP3    H148077   2.639   3.867  16.280 -2.7232  1.1605 -1.0110
 8862TIP3    H248078   2.670   4.012  16.312  0.4274  0.0827  1.3848
 8863TIP3   OH248079   6.216   4.655  12.336  0.1638 -0.0333  0.0642
 8863TIP3    H148080   6.284   4.594  12.308  0.5185  0.1998  0.4078
 8863TIP3    H248081   6.185   4.695  12.254 -1.0430 -1.6434 -0.3269
 8864TIP3   OH248082   0.108   5.032   6.017 -0.6757  0.0226  0.0462
 8864TIP3    H148083   0.142   4.995   5.936 -1.8847  1.7056 -1.2902
 8864TIP3    H248084   0.184   5.034   6.076  0.9818  1.4945 -2.0285
 8865TIP3   OH248085   6.586   1.541   0.549 -0.2664  0.6150 -0.3256
 8865TIP3    H148086   6.602   1.453   0.515  0.5245  0.8453 -0.5794
 8865TIP3    H248087   6.628   1.599   0.485 -2.0548  1.2662 -0.9473
 8866TIP3   OH248088   4.404   0.745  11.740  0.5518  0.4367  0.3801
 8866TIP3    H148089   4.354   0.665  11.724  0.8286  0.5680 -1.2548
 8866TIP3    H248090   4.338   0.814  11.747  0.4276  0.5083 -1.1488
 8867TIP3   OH248091   4.278   2.116   5.423  0.3371 -1.0528  0.1420
 8867TIP3    H148092   4.230   2.116   5.340  0.6182 -0.8549 -0.0213
 8867TIP3    H248093   4.332   2.037   5.419 -1.5843 -2.5465  1.2777
 8868TIP3   OH248094   4.106   0.918  13.527  0.2941 -0.1583 -0.2770
 8868TIP3    H148095   4.179   0.887  13.580  0.1990 -1.2929 -0.7810
 8868TIP3    H248096   4.120   0.879  13.441 -1.8736 -2.0105  0.1070
 8869TIP3   OH248097   0.095   0.522   5.307 -0.4806 -0.2046  0.0290
 8869TIP3    H148098   0.084   0.584   5.235  0.4506  0.4514  0.4386
 8869TIP3    H248099   0.032   0.551   5.373  0.1284  0.4840  0.3245
 8870TIP3   OH248100   4.287   1.536  14.883  0.2183  0.3682 -0.6083
 8870TIP3    H148101   4.245   1.526  14.798  0.5787  0.1514 -0.7641
 8870TIP3    H248102   4.375   1.499  14.871  0.1122 -0.0938 -0.0143
 8871TIP3   OH248103   3.013   4.097   2.445  0.6242  0.5326 -0.4303
 8871TIP3    H148104   3.062   4.125   2.368  0.1875 -0.6296 -1.1724
 8871TIP3    H248105   2.927   4.071   2.410  0.9015 -1.3903  0.1959
 8872TIP3   OH248106   2.924   4.603  15.018 -0.9108  0.0782 -0.7756
 8872TIP3    H148107   2.917   4.690  15.056  1.9675 -0.6759  1.8783
 8872TIP3    H248108   2.991   4.611  14.950  0.4526 -0.2868  0.4844
 8873TIP3   OH248109   3.381   3.979  12.268 -1.2857  0.5612  0.0698
 8873TIP3    H148110   3.310   3.935  12.221  0.9274 -1.2127 -1.8668
 8873TIP3    H248111   3.375   4.070  12.239 -3.2005  0.6451  0.5807
 8874TIP3   OH248112   3.684   3.643  13.932  0.5911 -0.4756 -0.2684
 8874TIP3    H148113   3.667   3.662  13.840 -0.6516 -1.2692 -0.2265
 8874TIP3    H248114   3.622   3.574  13.954  1.6656 -1.1149  0.8627
 8875TIP3   OH248115   3.072   2.059  11.076 -0.1193 -0.3623  0.3060
 8875TIP3    H148116   3.135   2.131  11.066  1.3474 -1.0260  3.5206
 8875TIP3    H248117   3.100   1.994  11.012  1.6099 -0.0303  0.6829
 8876TIP3   OH248118   1.353   3.698   4.184 -0.3947  0.1573  0.1317
 8876TIP3    H148119   1.354   3.791   4.206 -0.3120  0.2594 -0.2813
 8876TIP3    H248120   1.284   3.660   4.238  0.3132  0.2506  1.1230
 8877TIP3   OH248121   3.823   5.593   4.666  0.4015  0.4205  0.1466
 8877TIP3    H148122   3.887   5.585   4.737 -0.3039 -0.7097  0.6836
 8877TIP3    H248123   3.763   5.520   4.679  0.8987 -0.5203 -2.3124
 8878TIP3   OH248124   0.625   6.186   3.061 -0.1746  0.1434 -0.5619
 8878TIP3    H148125   0.542   6.140   3.073  0.1254 -0.1163  0.7121
 8878TIP3    H248126   0.675   6.166   3.141  1.2444  0.0162 -1.4547
 8879TIP3   OH248127   0.378   3.158   3.253  0.2845  0.3128 -0.0840
 8879TIP3    H148128   0.377   3.221   3.325 -1.2515  0.4019 -0.1632
 8879TIP3    H248129   0.466   3.120   3.256  0.5344  0.9474  1.2650
 8880TIP3   OH248130   4.438   3.677   0.333  0.2390  0.5325 -0.4382
 8880TIP3    H148131   4.503   3.685   0.262  2.0274  1.4549  1.2193
 8880TIP3    H248132   4.402   3.589   0.322  0.0996  0.8114 -2.7580
 8881TIP3   OH248133   2.353   5.323   5.514 -0.1186  0.1255 -0.5572
 8881TIP3    H148134   2.401   5.295   5.436 -1.0742  0.3225 -1.2229
 8881TIP3    H248135   2.294   5.250   5.533 -1.1399  0.8013 -1.0725
 8882TIP3   OH248136   2.104   0.773   2.743 -0.1370  0.2553 -0.3243
 8882TIP3    H148137   2.160   0.756   2.819 -1.3131  0.0403  0.5290
 8882TIP3    H248138   2.163   0.769   2.668  0.9772  0.0197  0.5372
 8883TIP3   OH248139   1.621   4.351  17.073 -0.5724  0.4284  0.2950
 8883TIP3    H148140   1.543   4.363  17.019  1.0459  1.4537 -1.9253
 8883TIP3    H248141   1.598   4.392  17.157 -2.4557  0.5369 -0.2256
 8884TIP3   OH248142   3.616   4.030   4.736 -0.2269  0.0227  0.7316
 8884TIP3    H148143   3.568   4.110   4.713 -0.3372 -0.3502 -0.4326
 8884TIP3    H248144   3.661   4.051   4.817 -0.4155  1.2060  0.5463
 8885TIP3   OH248145   6.406   3.612  15.982  0.5630  0.1563 -0.0409
 8885TIP3    H148146   6.337   3.620  15.916  0.2599  0.0419  0.2634
 8885TIP3    H248147   6.402   3.695  16.030 -0.6326 -0.5944  1.2120
 8886TIP3   OH248148   2.853   1.484   3.000 -0.2366 -0.3406 -0.8757
 8886TIP3    H148149   2.924   1.512   2.942  0.7355 -0.8251  0.0421
 8886TIP3    H248150   2.810   1.565   3.026  2.9173  0.5665  2.2318
 8887TIP3   OH248151   2.681   2.194   0.648  0.0482  0.1961  0.3403
 8887TIP3    H148152   2.757   2.147   0.613 -0.0938  0.7527 -0.7653
 8887TIP3    H248153   2.710   2.285   0.654 -1.0893  0.7755 -1.9358
 8888TIP3   OH248154   1.983   1.364  12.331  0.2376  0.5271  0.1957
 8888TIP3    H148155   2.043   1.417  12.384  1.4852 -1.6189  1.0877
 8888TIP3    H248156   1.941   1.306  12.394  0.8992 -1.3176 -0.9603
 8889TIP3   OH248157   6.093   2.649   4.071  0.8320 -0.0649 -0.2990
 8889TIP3    H148158   6.004   2.639   4.107  1.1487 -0.5695  0.3766
 8889TIP3    H248159   6.145   2.586   4.120  2.3231  2.6728  1.9034
 8890TIP3   OH248160   5.324   0.257  14.386  0.3519 -0.5931  0.1333
 8890TIP3    H148161   5.313   0.346  14.352  2.3243  0.0065  0.9527
 8890TIP3    H248162   5.236   0.219  14.381 -0.4277  1.1901 -0.7743
 8891TIP3   OH248163   2.048   6.494  13.556 -0.1819  0.1306 -0.7021
 8891TIP3    H148164   2.024   6.544  13.634 -0.1720 -0.6973 -0.1600
 8891TIP3    H248165   2.068   6.406  13.588 -0.0411 -0.1892 -1.6185
 8892TIP3   OH248166   5.366   5.474  10.289  0.9252 -0.1031 -0.3760
 8892TIP3    H148167   5.376   5.391  10.243 -0.2203  0.9720 -2.7897
 8892TIP3    H248168   5.272   5.492  10.286  1.0221  0.8204  1.0058
 8893TIP3   OH248169   1.586   2.195   3.114 -0.1054 -0.0956 -0.1198
 8893TIP3    H148170   1.561   2.135   3.044 -4.2058  0.7444  0.3830
 8893TIP3    H248171   1.655   2.249   3.076  0.3823 -2.0124 -2.1581
 8894TIP3   OH248172   4.341   6.806   0.393  0.1705  0.2248  0.2653
 8894TIP3    H148173   4.279   6.836   0.460  0.8902  2.6766 -0.0658
 8894TIP3    H248174   4.399   6.747   0.440 -1.2508 -0.6543  1.0127
 8895TIP3   OH248175   1.468   2.616  13.461  0.8356 -0.3777 -0.1612
 8895TIP3    H148176   1.471   2.593  13.368 -3.2144  1.8853 -1.0837
 8895TIP3    H248177   1.447   2.709  13.462  1.4507 -0.1773  3.0839
 8896TIP3   OH248178   3.618   3.093   4.134  0.0032 -0.6444  0.4105
 8896TIP3    H148179   3.523   3.081   4.137 -0.2375  1.2101  1.2509
 8896TIP3    H248180   3.652   3.027   4.194 -0.7716 -1.1366  0.3267
 8897TIP3   OH248181   4.217   5.663  15.650  0.6364  0.2543 -0.0085
 8897TIP3    H148182   4.300   5.617  15.664  0.4692  0.4053  1.6059
 8897TIP3    H248183   4.176   5.666  15.736 -2.0308 -1.6491 -1.0710
 8898TIP3   OH248184   3.624   6.814  16.549 -0.3443 -0.0743  0.2710
 8898TIP3    H148185   3.645   6.903  16.578 -0.4242  0.4907 -1.3120
 8898TIP3    H248186   3.697   6.790  16.491  0.5784 -1.7416  2.0170
 8899TIP3   OH248187   0.776   0.681  13.677 -0.0235  0.1617 -0.2706
 8899TIP3    H148188   0.808   0.745  13.741 -0.4365  0.1992 -0.0939
 8899TIP3    H248189   0.719   0.624  13.728  1.0884 -0.9424 -0.2209
 8900TIP3   OH248190   1.419   2.584  16.829 -0.0424 -0.1980  0.5365
 8900TIP3    H148191   1.332   2.621  16.845 -0.2532  0.0245 -0.9921
 8900TIP3    H248192   1.473   2.659  16.806  0.3674 -0.4274  0.7476
 8901TIP3   OH248193   0.782   3.997  13.450 -0.0104  0.3535 -0.1047
 8901TIP3    H148194   0.755   4.088  13.452 -0.3260  0.2801 -0.7496
 8901TIP3    H248195   0.758   3.963  13.537 -1.7621  0.3687 -0.5450
 8902TIP3   OH248196   0.724   2.787   0.721  0.4200 -0.1180 -0.4463
 8902TIP3    H148197   0.728   2.754   0.810  1.5424  2.4583  0.5571
 8902TIP3    H248198   0.652   2.849   0.721  0.8458  0.3928 -1.1360
 8903TIP3   OH248199   6.725   2.432  17.074 -0.6305  0.4484  0.5492
 8903TIP3    H148200   6.706   2.501  17.010 -2.4147  0.2135  0.7727
 8903TIP3    H248201   6.648   2.430  17.130  0.8963  0.6525  2.7570
 8904TIP3   OH248202   5.240   5.985   1.649 -0.1021  0.0076  0.0960
 8904TIP3    H148203   5.327   5.944   1.652  0.0884  0.4250  0.3250
 8904TIP3    H248204   5.181   5.914   1.623  0.1629 -0.5267  0.9204
 8905TIP3   OH248205   0.778   3.433   0.130 -0.3062  0.0817  0.0489
 8905TIP3    H148206   0.843   3.492   0.091 -1.3899  1.0035 -0.4446
 8905TIP3    H248207   0.797   3.347   0.092  1.8873 -0.1205  1.4795
 8906TIP3   OH248208   1.184   4.811  11.997  0.3070  0.3495  0.4357
 8906TIP3    H148209   1.208   4.768  11.915 -2.1440 -2.6260  1.0725
 8906TIP3    H248210   1.111   4.868  11.975 -0.1993 -0.2735  0.4652
 8907TIP3   OH248211   6.223   0.495  12.586  0.4626  0.0915  0.1090
 8907TIP3    H148212   6.270   0.412  12.573  2.8520  1.3345  0.3344
 8907TIP3    H248213   6.223   0.506  12.681  0.2087  0.3813  0.0723
 8908TIP3   OH248214   4.538   6.367  15.187  0.0954  0.6479  0.2337
 8908TIP3    H148215   4.571   6.277  15.180  0.4557  0.8543 -0.8804
 8908TIP3    H248216   4.613   6.422  15.164 -0.3921  1.1960 -0.0634
 8909TIP3   OH248217   5.733   4.559  16.018 -0.8524 -0.0095  0.3959
 8909TIP3    H148218   5.734   4.589  16.109 -1.9498 -0.5672  0.6046
 8909TIP3    H248219   5.647   4.519  16.007 -1.2506  1.1954 -1.2612
 8910TIP3   OH248220   2.480   6.368   5.956  0.1542  0.0718  0.3284
 8910TIP3    H148221   2.562   6.414   5.933 -1.5406  2.1769 -2.0841
 8910TIP3    H248222   2.426   6.436   5.996 -0.5199 -1.2747  1.8047
 8911TIP3   OH248223   2.581   3.188   6.253  0.2087 -0.2053  0.0310
 8911TIP3    H148224   2.665   3.233   6.257 -0.1070  0.3568  0.3940
 8911TIP3    H248225   2.535   3.229   6.180 -0.6351  1.0552  1.2288
 8912TIP3   OH248226   3.109   6.764  11.900  0.0531 -0.0304  0.0855
 8912TIP3    H148227   3.107   6.854  11.932  0.3233  0.6812 -1.8195
 8912TIP3    H248228   3.201   6.748  11.880  0.5123 -1.7431  2.9760
 8913TIP3   OH248229   5.537   4.319  12.811  0.5022  0.1572  0.2831
 8913TIP3    H148230   5.534   4.406  12.850  0.2202  0.8898 -1.3381
 8913TIP3    H248231   5.581   4.330  12.727  0.0876 -1.1833 -0.1433
 8914TIP3   OH248232   2.232   5.407   1.607 -0.7283 -0.2020  0.6293
 8914TIP3    H148233   2.243   5.498   1.579 -0.0811 -0.7263 -0.9436
 8914TIP3    H248234   2.172   5.370   1.543 -0.9220 -0.8982  1.2124
 8915TIP3   OH248235   0.483   0.454   0.924 -0.5856 -0.3135  0.0753
 8915TIP3    H148236   0.523   0.513   0.860  0.3068  0.8173  1.6054
 8915TIP3    H248237   0.465   0.374   0.875 -1.1681  0.9480 -1.8968
 8916TIP3   OH248238   3.500   3.749   3.585 -0.6320 -0.2676 -0.1072
 8916TIP3    H148239   3.438   3.816   3.613  0.9936  0.8376  1.0598
 8916TIP3    H248240   3.570   3.753   3.650  0.6349 -1.4947 -1.3256
 8917TIP3   OH248241   6.634   3.986  17.208  0.7329  0.7620 -0.1765
 8917TIP3    H148242   6.570   4.057  17.200  1.2516  1.0711 -1.8659
 8917TIP3    H248243   6.642   3.951  17.120  0.5794 -1.3573  0.5769
 8918TIP3   OH248244   1.607   6.300   5.612  0.5295 -0.3232 -0.0494
 8918TIP3    H148245   1.540   6.350   5.659 -0.1261 -1.1222 -0.1211
 8918TIP3    H248246   1.689   6.326   5.654  0.0469 -0.3671  0.9615
 8919TIP3   OH248247   1.418   1.426  13.854  0.1354 -0.2123 -0.2381
 8919TIP3    H148248   1.360   1.458  13.784  0.3500 -1.7592 -1.1797
 8919TIP3    H248249   1.378   1.458  13.934 -1.1084  0.1640 -0.9679
 8920TIP3   OH248250   0.174   6.390   1.246  0.0678  0.8378  0.2157
 8920TIP3    H148251   0.135   6.421   1.327 -1.3446  0.2862 -0.2124
 8920TIP3    H248252   0.255   6.439   1.237  0.0609  1.1705  1.7597
 8921TIP3   OH248253   1.439   6.456   3.525  0.4054  0.0529  0.0140
 8921TIP3    H148254   1.445   6.413   3.610 -1.2629  1.1060  0.7192
 8921TIP3    H248255   1.375   6.526   3.538 -0.7825 -0.4740 -2.4085
 8922TIP3   OH248256   5.112   5.962   5.012 -0.3623 -0.1870  0.1156
 8922TIP3    H148257   5.140   5.943   5.102 -1.0411 -0.6240  0.2398
 8922TIP3    H248258   5.185   6.011   4.974 -0.0407 -0.0532  0.8862
 8923TIP3   OH248259   0.082   0.628   5.997  0.3030  0.3389 -0.0761
 8923TIP3    H148260   0.103   0.586   5.913  1.8377  1.8745 -0.5151
 8923TIP3    H248261  -0.014   0.628   6.000  0.2075  0.4153 -1.9305
 8924TIP3   OH248262   5.741   5.271   0.078  0.1640  0.2946  0.3537
 8924TIP3    H148263   5.657   5.304   0.112 -0.2029 -0.3031  0.0394
 8924TIP3    H248264   5.777   5.219   0.149 -0.2983 -0.4238  0.0701
 8925TIP3   OH248265   0.125   2.276  12.521  0.5573 -0.1674 -0.1017
 8925TIP3    H148266   0.038   2.309  12.539 -0.0068 -2.7451  2.7234
 8925TIP3    H248267   0.133   2.280  12.425 -1.8587  1.8297 -0.3185
 8926TIP3   OH248268   5.346   4.625  11.311  0.3800  1.2195  0.2040
 8926TIP3    H148269   5.422   4.570  11.327  0.0522  0.6409 -0.2124
 8926TIP3    H248270   5.382   4.714  11.304  1.0222  0.9427 -0.0393
 8927TIP3   OH248271   6.009   4.413  17.013  0.2803  0.1584 -0.3046
 8927TIP3    H148272   5.946   4.448  17.076  0.2557 -0.3621 -0.0403
 8927TIP3    H248273   5.967   4.335  16.977  0.3443  0.3816 -0.8869
 8928TIP3   OH248274   3.615   6.032   4.038 -0.1417  0.6694 -0.1710
 8928TIP3    H148275   3.609   6.085   4.117  2.8627 -1.0603  1.4174
 8928TIP3    H248276   3.566   5.952   4.060  0.3547  0.3557 -0.1940
 8929TIP3   OH248277   6.108   4.556   3.935  0.3905 -0.2578  0.5130
 8929TIP3    H148278   6.194   4.596   3.920  0.2419 -0.5115 -1.2717
 8929TIP3    H248279   6.107   4.480   3.876 -0.6331 -0.9098  1.3390
 8930TIP3   OH248280   1.020   6.054   3.755 -0.7485  0.9515 -0.0839
 8930TIP3    H148281   1.109   6.040   3.785 -0.5764  0.4495 -0.8187
 8930TIP3    H248282   1.030   6.098   3.671 -1.2177  1.6979  0.2317
 8931TIP3   OH248283   6.458   1.063   4.456 -0.2666 -0.1018  0.0740
 8931TIP3    H148284   6.472   1.150   4.418 -0.6104 -1.1519 -2.7383
 8931TIP3    H248285   6.546   1.030   4.474  0.0648 -0.1261 -1.3912
 8932TIP3   OH248286   3.908   2.184   5.248  0.3864  0.4236  0.7502
 8932TIP3    H148287   3.900   2.164   5.155  0.4721  0.8129  0.6597
 8932TIP3    H248288   3.932   2.101   5.289 -1.1618 -0.1114  0.6296
 8933TIP3   OH248289   2.721   4.677   2.583  0.1751 -0.6995  0.0977
 8933TIP3    H148290   2.635   4.672   2.542  0.6948 -0.6566 -1.0164
 8933TIP3    H248291   2.703   4.712   2.671 -0.8057  0.7368 -0.6270
 8934TIP3   OH248292   1.807   5.511  11.761 -0.4873 -0.4921  0.4793
 8934TIP3    H148293   1.804   5.471  11.674 -0.8192 -0.2420  0.3720
 8934TIP3    H248294   1.851   5.447  11.816 -0.8896 -0.9480  0.2796
 8935TIP3   OH248295   4.139   3.627  13.246  0.8879 -0.1740  0.6253
 8935TIP3    H148296   4.067   3.602  13.303  0.3482  0.3762  0.2007
 8935TIP3    H248297   4.197   3.551  13.246 -0.8170 -1.5997 -0.8144
 8936TIP3   OH248298   4.196   6.003   3.567  0.2560 -0.2188 -0.1551
 8936TIP3    H148299   4.253   6.038   3.635 -0.4460  1.0328 -0.1769
 8936TIP3    H248300   4.248   5.935   3.524  0.5012 -1.4603  1.9945
 8937TIP3   OH248301   5.302   3.670  14.676 -0.0699  0.4337 -0.1761
 8937TIP3    H148302   5.394   3.692  14.661  0.0777 -0.1253 -0.1010
 8937TIP3    H248303   5.265   3.748  14.717 -0.0527  1.3293 -1.7775
 8938TIP3   OH248304   4.612   5.318  15.554  0.4718  0.5291  0.1171
 8938TIP3    H148305   4.621   5.408  15.523 -1.4490  0.6946 -0.0997
 8938TIP3    H248306   4.605   5.326  15.649 -1.8656  0.9010 -0.0180
 8939TIP3   OH248307   4.572   0.149  16.640  0.0008 -0.3620 -0.0210
 8939TIP3    H148308   4.628   0.130  16.565  1.4625 -1.6920  1.3430
 8939TIP3    H248309   4.632   0.187  16.705 -1.2577  0.8810  0.4510
 8940TIP3   OH248310   1.381   0.854   2.847  0.4696  0.1262 -0.5151
 8940TIP3    H148311   1.466   0.852   2.891  0.1007 -0.4301  0.2030
 8940TIP3    H248312   1.339   0.933   2.880 -0.0859 -0.6472  0.7224
 8941TIP3   OH248313   4.258   2.824  12.736  0.0220  0.0842 -0.5191
 8941TIP3    H148314   4.268   2.886  12.664  0.7186 -0.8761 -1.2694
 8941TIP3    H248315   4.164   2.809  12.741 -0.0765  0.5471 -0.8811
 8942TIP3   OH248316   3.768   4.452  11.465  0.2874 -0.4138 -0.1100
 8942TIP3    H148317   3.758   4.546  11.448  2.4901 -0.0925  0.0618
 8942TIP3    H248318   3.851   4.429  11.423  1.0208 -1.7302  1.9067
 8943TIP3   OH248319   5.866   1.275   2.295  0.2602  0.6882 -0.1019
 8943TIP3    H148320   5.850   1.244   2.206 -2.1608  2.5883 -0.4220
 8943TIP3    H248321   5.938   1.337   2.287  0.4324  0.4196 -0.6297
 8944TIP3   OH248322   5.774   3.522   3.833 -0.0597 -0.0257  0.0919
 8944TIP3    H148323   5.685   3.523   3.867 -0.1772  0.5675 -0.2304
 8944TIP3    H248324   5.821   3.585   3.888  0.4360 -1.0946  0.9593
 8945TIP3   OH248325   4.980   2.854  14.224  0.0161  0.1323  0.2498
 8945TIP3    H148326   4.908   2.885  14.168  1.6846  1.5687 -1.2284
 8945TIP3    H248327   4.997   2.926  14.284  1.1903  0.4735 -0.4466
 8946TIP3   OH248328   2.963   6.443   3.569  0.6388  0.1165 -0.9309
 8946TIP3    H148329   2.980   6.501   3.495  1.2358 -0.1566 -1.0122
 8946TIP3    H248330   3.032   6.377   3.564  0.5861  0.0062 -0.2190
 8947TIP3   OH248331   1.826   5.384  15.491 -0.6526  0.3786 -0.6050
 8947TIP3    H148332   1.863   5.450  15.549 -0.6206 -0.4315  0.3132
 8947TIP3    H248333   1.764   5.336  15.545 -0.1725 -0.7818 -1.0561
 8948TIP3   OH248334   6.683   5.752  13.197 -0.1312 -0.2152 -0.9104
 8948TIP3    H148335   6.667   5.786  13.286 -0.9298 -0.6267 -0.8916
 8948TIP3    H248336   6.613   5.791  13.144 -0.2094 -0.7131 -1.1700
 8949TIP3   OH248337   1.799   3.424  15.974 -0.0681 -0.0230  0.0786
 8949TIP3    H148338   1.859   3.379  15.914  0.6786  0.7881  0.1985
 8949TIP3    H248339   1.744   3.354  16.010  0.4241 -0.7032 -0.4699
 8950TIP3   OH248340   2.434   4.457  14.909 -0.2384 -0.3385 -0.3066
 8950TIP3    H148341   2.521   4.441  14.947 -0.5722  0.9038  1.0447
 8950TIP3    H248342   2.423   4.552  14.913 -0.9313 -0.2827 -2.1777
 8951TIP3   OH248343   4.899   6.497   2.468 -0.0708 -0.2047 -0.3343
 8951TIP3    H148344   4.903   6.450   2.385 -0.7932 -1.7529  0.4601
 8951TIP3    H248345   4.806   6.519   2.479 -0.1461 -0.8832  0.4980
 8952TIP3   OH248346   0.126   0.416  13.282 -0.5579 -0.1334  0.4648
 8952TIP3    H148347   0.156   0.507  13.288 -1.3525  0.2981 -1.3640
 8952TIP3    H248348   0.031   0.421  13.284 -0.6737 -0.7023 -1.4676
 8953TIP3   OH248349   1.004   3.483   1.994  0.3023 -0.3628  0.0518
 8953TIP3    H148350   0.919   3.496   2.035  0.6228 -1.3885  1.1011
 8953TIP3    H248351   0.999   3.397   1.953  0.7612 -0.3549 -0.0299
 8954TIP3   OH248352   2.693   5.410  16.485  0.4195 -0.3346  0.0468
 8954TIP3    H148353   2.623   5.390  16.547  0.0212 -0.8903 -0.5628
 8954TIP3    H248354   2.755   5.338  16.494  0.4191 -0.3560 -0.1165
 8955TIP3   OH248355   3.575   2.091   5.193 -0.0325 -0.4058  0.6328
 8955TIP3    H148356   3.627   2.131   5.262 -0.6017  0.0682  0.7907
 8955TIP3    H248357   3.565   2.160   5.127  1.5448 -1.2126 -0.5213
 8956TIP3   OH248358   0.875   0.950  16.512  0.3385  0.6943 -0.2079
 8956TIP3    H148359   0.825   1.032  16.520  0.9314  1.0474 -0.0964
 8956TIP3    H248360   0.809   0.884  16.491 -0.2898  1.0112  0.7063
 8957TIP3   OH248361   2.134   0.441  15.859  0.1046  0.5015 -0.0397
 8957TIP3    H148362   2.164   0.361  15.816  0.0901  0.8871 -0.7702
 8957TIP3    H248363   2.133   0.507  15.790 -1.2313  0.8003  0.2479
 8958TIP3   OH248364   2.510   0.476  13.735 -0.4442 -0.2016  0.3881
 8958TIP3    H148365   2.471   0.521  13.810 -2.0406 -0.7610 -0.0544
 8958TIP3    H248366   2.497   0.383  13.754 -0.0233 -0.3747 -0.1551
 8959TIP3   OH248367   2.330   4.657   0.534 -0.2334 -0.3815  0.3929
 8959TIP3    H148368   2.294   4.572   0.508 -0.9777 -0.2260  0.8853
 8959TIP3    H248369   2.418   4.637   0.565  1.0914 -0.4849 -2.9746
 8960TIP3   OH248370   5.523   2.568  14.379  0.5320  0.2442  0.5298
 8960TIP3    H148371   5.595   2.512  14.349  1.5123 -0.0686  3.1739
 8960TIP3    H248372   5.449   2.508  14.390 -0.0776  0.4870 -1.7529
 8961TIP3   OH248373   2.062   5.269  11.671 -0.1925  0.9517  0.3496
 8961TIP3    H148374   2.100   5.353  11.694  0.8680  0.5179  0.2380
 8961TIP3    H248375   2.014   5.285  11.589  2.0673  0.9532 -1.0644
 8962TIP3   OH248376   4.123   3.658   2.782 -0.8578 -0.1053 -0.6752
 8962TIP3    H148377   4.213   3.638   2.810 -0.1679 -0.6895 -3.0307
 8962TIP3    H248378   4.085   3.572   2.764 -0.8107  0.2394 -2.6186
 8963TIP3   OH248379   0.713   6.168   2.782 -0.5901 -0.7697 -0.1019
 8963TIP3    H148380   0.692   6.173   2.875 -0.1031  0.4618 -0.0424
 8963TIP3    H248381   0.700   6.076   2.759 -1.5324 -0.9245  0.9812
 8964TIP3   OH248382   0.242   1.847   6.083  0.4883  0.5713 -0.3350
 8964TIP3    H148383   0.288   1.767   6.107  0.0043  0.7389  1.1930
 8964TIP3    H248384   0.284   1.916   6.135  0.5926  1.2648 -1.2881
 8965TIP3   OH248385   0.450   6.753   3.192  0.4095  0.0217  0.0486
 8965TIP3    H148386   0.432   6.660   3.180  0.8656  0.0097 -0.5686
 8965TIP3    H248387   0.368   6.797   3.167  0.3673 -0.1842 -0.1747
 8966TIP3   OH248388   1.850   2.781  12.710 -0.0724  0.2842 -0.1148
 8966TIP3    H148389   1.884   2.692  12.721  0.3954  0.4849  0.1059
 8966TIP3    H248390   1.914   2.825  12.653 -0.8407  0.1830 -1.0763
 8967TIP3   OH248391   4.235   3.342   3.451  0.2770 -0.0116 -0.2206
 8967TIP3    H148392   4.320   3.384   3.466  0.9579 -0.9766 -1.2367
 8967TIP3    H248393   4.221   3.288   3.529  0.4033  0.4319  0.1182
 8968TIP3   OH248394   3.753   2.647  16.008  0.5806  0.0589 -0.2618
 8968TIP3    H148395   3.673   2.613  15.968  1.5973 -2.1640 -0.5189
 8968TIP3    H248396   3.726   2.671  16.097 -0.3162 -0.8890 -0.2583
 8969TIP3   OH248397   3.782   1.916   0.769  0.5502 -0.3922 -0.1864
 8969TIP3    H148398   3.784   2.004   0.732 -3.1021 -0.2377 -0.3337
 8969TIP3    H248399   3.753   1.860   0.696 -0.0172 -1.2289  0.6661
 8970TIP3   OH248400   4.807   3.562  16.469  0.1050 -0.8665  0.2638
 8970TIP3    H148401   4.741   3.564  16.399  1.0473  2.2734 -0.6918
 8970TIP3    H248402   4.877   3.620  16.438  0.5225  0.8162  3.8108
 8971TIP3   OH248403   6.507   1.005   5.866 -0.4093  0.0354 -0.0026
 8971TIP3    H148404   6.547   1.039   5.946 -0.3855  0.0935 -0.0387
 8971TIP3    H248405   6.521   0.910   5.870 -0.8755 -0.0221  0.3198
 8972TIP3   OH248406   6.183   3.166   6.476 -0.4060  0.0389  0.1293
 8972TIP3    H148407   6.204   3.096   6.538  1.1928 -0.5683 -1.0397
 8972TIP3    H248408   6.206   3.247   6.522 -0.3805 -0.3235  0.7641
 8973TIP3   OH248409   1.112   6.565   1.815  0.0808  0.4106  0.1423
 8973TIP3    H148410   1.121   6.522   1.730 -2.0074  0.7584 -0.3126
 8973TIP3    H248411   1.147   6.502   1.878 -1.5443 -1.3969 -0.6515
 8974TIP3   OH248412   4.310   0.141  16.395  0.4232 -0.4759 -0.1100
 8974TIP3    H148413   4.278   0.192  16.469  2.0595 -0.0084  0.3264
 8974TIP3    H248414   4.368   0.075  16.435  1.5015 -0.0779 -0.9567
 8975TIP3   OH248415   1.216   4.611  16.045  0.7858  0.0511 -0.2625
 8975TIP3    H148416   1.255   4.631  15.961  0.3592  0.4491 -0.3708
 8975TIP3    H248417   1.264   4.534  16.077  1.9511  0.8001 -0.1730
 8976TIP3   OH248418   1.226   5.284  15.163 -0.0408 -0.7455 -0.3016
 8976TIP3    H148419   1.243   5.227  15.238  0.6126  0.0864  0.1931
 8976TIP3    H248420   1.313   5.314  15.136 -0.4440  1.0766  0.2853
 8977TIP3   OH248421   5.140   3.848   2.579  0.1344 -0.1860 -0.5526
 8977TIP3    H148422   5.195   3.872   2.504  0.7521 -1.8841 -0.6804
 8977TIP3    H248423   5.158   3.756   2.593 -1.2135 -0.2911  0.6790
 8978TIP3   OH248424   6.455   2.793  15.437 -0.3929  0.7872 -0.0245
 8978TIP3    H148425   6.465   2.876  15.391 -0.7154  0.5522 -0.5328
 8978TIP3    H248426   6.446   2.728  15.367  0.6381  0.2187  0.3516
 8979TIP3   OH248427   3.802   0.936  11.303 -0.5099  0.0758  0.1270
 8979TIP3    H148428   3.867   1.006  11.297 -0.9087  0.5215  0.7651
 8979TIP3    H248429   3.782   0.913  11.213 -1.9196  2.2577 -0.2017
 8980TIP3   OH248430   6.509   6.754   5.016  0.1574  0.1496 -0.4572
 8980TIP3    H148431   6.462   6.779   4.936  3.2375  2.3480 -1.7680
 8980TIP3    H248432   6.584   6.703   4.985  0.0682 -1.1451  1.3154
 8981TIP3   OH248433   4.685   2.843   4.063 -0.2204 -0.1884 -0.4782
 8981TIP3    H148434   4.724   2.893   3.991 -1.1353 -0.9630 -1.5326
 8981TIP3    H248435   4.594   2.831   4.038 -0.3850 -1.0865  0.4755
 8982TIP3   OH248436   1.992   5.845  12.453 -0.1036 -0.0587  0.4045
 8982TIP3    H148437   1.912   5.803  12.423  1.4067 -0.3084 -3.9227
 8982TIP3    H248438   1.979   5.938  12.434 -0.3569  0.3640  2.4004
 8983TIP3   OH248439   2.268   3.465  13.687  0.2496  0.1605  0.3357
 8983TIP3    H148440   2.276   3.514  13.605  1.2486 -0.0751  0.2716
 8983TIP3    H248441   2.180   3.485  13.719  0.0463  0.6865 -0.5170
 8984TIP3   OH248442   3.422   3.545  15.386 -0.3393  0.3181  0.0311
 8984TIP3    H148443   3.450   3.633  15.360 -1.5928  0.5921 -0.5007
 8984TIP3    H248444   3.444   3.489  15.313 -1.8111  0.6760 -0.7296
 8985TIP3   OH248445   0.257   5.698   2.868  0.4365  0.3289  0.1731
 8985TIP3    H148446   0.225   5.614   2.834  1.3177  0.6816 -1.6409
 8985TIP3    H248447   0.348   5.681   2.893  0.3075  0.5103  0.7899
 8986TIP3   OH248448   5.959   5.736  16.325  0.3615 -0.1930 -0.5876
 8986TIP3    H148449   5.913   5.654  16.307 -0.8363  0.4408 -0.5064
 8986TIP3    H248450   5.940   5.791  16.249  1.1093  0.0451 -0.6145
 8987TIP3   OH248451   3.148   5.081  14.117  0.5442 -0.5263  0.1095
 8987TIP3    H148452   3.203   5.137  14.172  0.1873  0.0493 -0.1115
 8987TIP3    H248453   3.076   5.054  14.174  0.9144 -1.0725  0.3244
 8988TIP3   OH248454   6.343   5.303  14.181 -0.1724 -0.1167 -0.2849
 8988TIP3    H148455   6.392   5.253  14.116 -0.0313 -1.3024  0.6835
 8988TIP3    H248456   6.317   5.238  14.246 -1.4614  0.8035  0.1626
 8989TIP3   OH248457   1.945   6.239   1.886 -0.0684 -0.4061 -0.5364
 8989TIP3    H148458   1.895   6.308   1.930  0.7039 -1.5973  2.4733
 8989TIP3    H248459   2.007   6.286   1.831 -1.3612  1.2125 -0.6809
 8990TIP3   OH248460   6.760   1.745   5.339  0.3397  0.2099 -0.1099
 8990TIP3    H148461   6.708   1.785   5.409  1.5877  2.7357 -0.5014
 8990TIP3    H248462   6.850   1.746   5.373  0.9279  1.2397 -1.6111
 8991TIP3   OH248463   0.475   1.654  11.597  0.8337 -0.6708  0.0048
 8991TIP3    H148464   0.455   1.706  11.520  0.2038  1.0542  1.2576
 8991TIP3    H248465   0.421   1.692  11.667  1.7374 -1.8342  1.4152
 8992TIP3   OH248466   3.958   6.794   1.968  0.2006  0.0208 -0.2750
 8992TIP3    H148467   3.989   6.847   1.895  0.5436  0.3579  0.1034
 8992TIP3    H248468   3.995   6.707   1.952 -0.6129 -0.1932 -1.0557
 8993TIP3   OH248469   1.105   4.298   1.822 -0.3734 -0.2085  0.0427
 8993TIP3    H148470   1.192   4.310   1.861 -0.3014 -0.4734 -0.0313
 8993TIP3    H248471   1.122   4.248   1.743 -0.6595 -0.7992  0.3492
 8994TIP3   OH248472   5.516   5.535   2.435 -0.1854 -0.4006  0.3670
 8994TIP3    H148473   5.572   5.475   2.484 -0.3653 -0.6872  0.2264
 8994TIP3    H248474   5.536   5.517   2.343  0.2803  0.2610  0.3376
 8995TIP3   OH248475   2.479   4.060  17.128 -0.3931 -0.6593  0.3292
 8995TIP3    H148476   2.535   3.985  17.151 -0.4713 -1.1818 -1.0791
 8995TIP3    H248477   2.471   4.055  17.033  1.0674  2.1959 -0.0460
 8996TIP3   OH248478   4.628   3.279   3.883  0.1495 -0.3296  0.3701
 8996TIP3    H148479   4.593   3.195   3.853 -1.1378  0.3059  0.0265
 8996TIP3    H248480   4.554   3.322   3.926  0.4171  1.1636 -0.6076
 8997TIP3   OH248481   4.774   0.679  13.124 -0.3826 -0.0863  0.1656
 8997TIP3    H148482   4.712   0.685  13.052 -1.0083  1.1434  0.7845
 8997TIP3    H248483   4.824   0.599  13.106 -0.5510  0.1681 -1.5898
 8998TIP3   OH248484   2.573   0.049  12.991  0.3952 -0.4139  0.0615
 8998TIP3    H148485   2.557   0.142  12.976  1.0174  0.0606  2.0626
 8998TIP3    H248486   2.519   0.004  12.926 -1.0526  1.3070  0.0198
 8999TIP3   OH248487   3.632   6.724   4.938  0.1970 -0.0530 -0.4320
 8999TIP3    H148488   3.716   6.702   4.899  2.1993  3.5045  1.3902
 8999TIP3    H248489   3.648   6.723   5.032 -2.4564 -1.3361  0.1012
 9000TIP3   OH248490   1.795   6.143   2.639 -0.2700  0.6083 -0.2532
 9000TIP3    H148491   1.748   6.210   2.688 -0.5589  0.3127 -0.1186
 9000TIP3    H248492   1.808   6.180   2.552  2.5125  2.2153  0.7203
 9001TIP3   OH248493   0.974   1.618   5.028  0.2421 -0.3155  0.0514
 9001TIP3    H148494   0.907   1.677   4.995 -1.0069 -1.6754  0.0393
 9001TIP3    H248495   1.028   1.672   5.086  0.0835  1.1637 -1.1191
 9002TIP3   OH248496   0.635   3.024   1.279 -0.3284 -0.6161  0.3387
 9002TIP3    H148497   0.611   3.089   1.345 -0.2004 -0.0988 -0.1203
 9002TIP3    H248498   0.682   2.957   1.328 -1.4052 -0.9144  1.0033
 9003TIP3   OH248499   1.146   1.608   6.454  0.4976  0.1364 -0.0831
 9003TIP3    H148500   1.165   1.558   6.533  3.5582 -1.4312 -1.6137
 9003TIP3    H248501   1.202   1.686   6.462  1.2411 -0.2963 -0.8706
 9004TIP3   OH248502   6.190   3.011   4.834  0.1132  0.2971  0.0894
 9004TIP3    H148503   6.183   3.060   4.752 -0.9376  0.1385  0.0742
 9004TIP3    H248504   6.178   3.076   4.903  0.8534  0.4064  0.1214
 9005TIP3   OH248505   4.768   6.130  15.499  0.1650  0.0594  1.0131
 9005TIP3    H148506   4.731   6.209  15.539  0.8955  1.3176 -0.6901
 9005TIP3    H248507   4.832   6.162  15.436  0.2809 -1.8960  0.0481
 9006TIP3   OH248508   0.285   6.792  16.546 -0.0318  0.6590 -0.3597
 9006TIP3    H148509   0.327   6.788  16.632  0.2891 -0.8070 -0.5628
 9006TIP3    H248510   0.229   6.714  16.542  0.6882  0.1740 -1.8346
 9007TIP3   OH248511   5.743   3.003  12.843  0.2081  0.0931  0.1895
 9007TIP3    H148512   5.730   3.069  12.775 -1.4348 -0.6953 -0.2877
 9007TIP3    H248513   5.678   2.936  12.826 -2.2806  1.1437  4.1408
 9008TIP3   OH248514   5.068   0.566   0.096  0.0156  0.1570 -0.0503
 9008TIP3    H148515   5.131   0.626   0.057  0.5136 -0.9079 -0.9751
 9008TIP3    H248516   5.037   0.610   0.175  0.4098  1.5668 -0.6602
 9009TIP3   OH248517   0.714   5.516  12.015 -0.2007 -0.0404  0.0179
 9009TIP3    H148518   0.790   5.574  12.022 -0.6647  0.5144  0.7003
 9009TIP3    H248519   0.747   5.431  12.042  0.2248  0.1587  0.1440
 9010TIP3   OH248520   3.379   4.091  15.874  0.9124  0.2389 -0.1236
 9010TIP3    H148521   3.357   4.141  15.953  1.5449  0.5732 -0.1503
 9010TIP3    H248522   3.417   4.156  15.814 -1.0721  0.3361 -1.3572
 9011TIP3   OH248523   3.067   1.506   5.762 -0.0023  0.1479  0.0632
 9011TIP3    H148524   3.063   1.550   5.677  0.8207 -0.4495 -0.2982
 9011TIP3    H248525   3.117   1.564   5.818 -0.3815  0.4542  0.0866
 9012TIP3   OH248526   3.070   0.230  11.953 -0.1455 -0.0007 -0.0327
 9012TIP3    H148527   3.093   0.222  12.046  0.5644  2.0016  0.0041
 9012TIP3    H248528   2.982   0.268  11.953  0.3726  1.2306 -0.1561
 9013TIP3   OH248529   4.508   4.508   1.204 -0.0529  0.3933 -0.3649
 9013TIP3    H148530   4.556   4.462   1.136 -0.4651 -2.2782  1.0130
 9013TIP3    H248531   4.572   4.523   1.274 -0.0500  1.5230 -0.5866
 9014TIP3   OH248532   1.746   5.914   3.621  0.1105  0.1085 -0.1491
 9014TIP3    H148533   1.782   5.945   3.538  0.3736 -1.3349 -0.5968
 9014TIP3    H248534   1.725   5.994   3.669  1.7812  0.9853 -0.7931
 9015TIP3   OH248535   6.036   1.826   1.054 -0.1229 -0.2815  0.1394
 9015TIP3    H148536   6.102   1.840   1.122 -0.1514 -0.1682  0.1454
 9015TIP3    H248537   6.017   1.732   1.057 -1.4700 -0.0196  1.5589
 9016TIP3   OH248538   3.426   5.434  11.881  0.4162  0.2364 -0.0054
 9016TIP3    H148539   3.431   5.360  11.941 -0.6128 -0.4943 -0.7779
 9016TIP3    H248540   3.332   5.446  11.864  0.6960 -0.1460 -2.1136
 9017TIP3   OH248541   5.965   4.360   5.997 -0.8138  0.1430 -0.0851
 9017TIP3    H148542   5.974   4.355   6.092  0.1327  0.6776 -0.1345
 9017TIP3    H248543   5.939   4.272   5.970 -2.6120  0.3537  0.8089
 9018TIP3   OH248544   2.545   3.067   0.864  0.4758 -0.0785  0.2633
 9018TIP3    H148545   2.583   2.994   0.816  2.3152  2.5078 -2.6018
 9018TIP3    H248546   2.609   3.086   0.933  1.2695  0.3083 -0.5545
 9019TIP3   OH248547   3.993   1.236  12.646 -0.2047 -0.5777  0.1596
 9019TIP3    H148548   3.960   1.325  12.630  0.5640 -0.3808 -0.4515
 9019TIP3    H248549   3.915   1.182  12.651 -0.6454 -0.0544 -0.7145
 9020TIP3   OH248550   1.894   5.521   6.415  0.3523  0.1125 -0.1594
 9020TIP3    H148551   1.935   5.435   6.424 -0.1730 -0.3660 -2.0221
 9020TIP3    H248552   1.830   5.525   6.486  1.0176 -0.6506  0.4959
 9021TIP3   OH248553   6.462   6.579   3.233 -0.7251 -0.2525 -0.1797
 9021TIP3    H148554   6.467   6.487   3.256 -2.0836 -0.0763  0.9985
 9021TIP3    H248555   6.451   6.580   3.138  1.2141 -1.1919 -0.4470
 9022TIP3   OH248556   2.677   6.730   5.528 -0.2122 -0.2827 -0.6351
 9022TIP3    H148557   2.633   6.696   5.606 -1.2814  1.4530 -0.4427
 9022TIP3    H248558   2.765   6.751   5.558  0.3373 -2.3375 -0.6463
 9023TIP3   OH248559   6.555   4.165  12.033  0.0349 -0.2030  0.0282
 9023TIP3    H148560   6.511   4.248  12.053  0.5213 -0.1432  0.8901
 9023TIP3    H248561   6.625   4.158  12.098 -0.7224 -1.8412  0.7316
 9024TIP3   OH248562   0.625   1.153   3.896 -0.0100 -0.2843  0.2635
 9024TIP3    H148563   0.625   1.086   3.828 -1.1928 -0.8865  0.8276
 9024TIP3    H248564   0.538   1.146   3.936  0.1234  1.0751  0.8370
 9025TIP3   OH248565   4.065   2.186  14.466  0.3146 -0.1633 -0.2261
 9025TIP3    H148566   4.018   2.269  14.474  0.2702 -0.1992 -0.1014
 9025TIP3    H248567   4.145   2.207  14.417  1.1304  0.3004  1.2220
 9026TIP3   OH248568   3.411   1.914  16.962  0.2173  0.1204 -0.2168
 9026TIP3    H148569   3.414   1.998  16.917  1.4595 -0.1785 -0.7588
 9026TIP3    H248570   3.440   1.933  17.051 -1.1021  0.5241  0.1336
 9027TIP3   OH248571   6.103   6.119   5.992 -0.0933 -0.0150  0.2649
 9027TIP3    H148572   6.185   6.118   6.043  0.2786  0.0339 -0.3255
 9027TIP3    H248573   6.107   6.200   5.942 -1.0160  0.5269  1.0402
 9028TIP3   OH248574   0.580   3.870   1.615 -0.5899 -0.0879 -0.3011
 9028TIP3    H148575   0.643   3.940   1.599  0.3581 -0.9435 -0.4428
 9028TIP3    H248576   0.507   3.913   1.659 -0.4028  1.1339 -1.1363
 9029TIP3   OH248577   5.585   6.489  15.419  0.0019  0.2131 -0.1494
 9029TIP3    H148578   5.524   6.542  15.471 -0.7550 -0.0725 -0.7130
 9029TIP3    H248579   5.664   6.542  15.412 -0.3904  0.8460  0.1158
 9030TIP3   OH248580   0.223   0.570   3.503  0.7757  0.2708  0.9158
 9030TIP3    H148581   0.186   0.654   3.476 -1.5276 -0.6446  0.9966
 9030TIP3    H248582   0.153   0.507   3.488  2.2228 -1.5559  1.4568
 9031TIP3   OH248583   3.529   1.397   1.112 -0.6527 -0.4071  0.1229
 9031TIP3    H148584   3.551   1.465   1.176 -0.8811  0.0494 -0.2701
 9031TIP3    H248585   3.453   1.432   1.065 -0.1151 -0.4375 -0.8127
 9032TIP3   OH248586   4.515   1.646  10.967  0.2587  0.0671  0.7690
 9032TIP3    H148587   4.513   1.738  10.939  0.4357  0.0357  0.6536
 9032TIP3    H248588   4.550   1.649  11.056  1.4264  0.0086  0.3318
 9033TIP3   OH248589   4.548   2.480  14.410  0.3392  0.8512 -0.3744
 9033TIP3    H148590   4.637   2.472  14.444  0.2629  1.2702 -0.0629
 9033TIP3    H248591   4.527   2.573  14.420  0.0216  0.8375 -0.8410
 9034TIP3   OH248592   0.457   0.691   5.451 -0.0851  0.1889 -0.2519
 9034TIP3    H148593   0.473   0.597   5.446  1.4826  0.4302 -0.0932
 9034TIP3    H248594   0.372   0.698   5.496 -1.1477 -1.1712 -1.9096
 9035TIP3   OH248595   0.378   0.070   0.230  0.2423  0.3481 -0.1023
 9035TIP3    H148596   0.461   0.031   0.200 -0.0480 -0.8598  0.5781
 9035TIP3    H248597   0.382   0.063   0.326 -2.0968 -3.0667 -0.0612
 9036TIP3   OH248598   1.045   4.153  16.760  0.6097  0.5807 -0.6945
 9036TIP3    H148599   1.117   4.213  16.777  1.4551 -0.5555 -0.1163
 9036TIP3    H248600   1.035   4.153  16.665  0.6482  1.5550 -0.7066
 9037TIP3   OH248601   3.060   0.731   3.844  0.1113  0.2813  0.0977
 9037TIP3    H148602   3.149   0.755   3.821  0.6818 -2.8082 -1.5355
 9037TIP3    H248603   3.005   0.779   3.782  0.9868 -0.6850 -1.4943
 9038TIP3   OH248604   1.077   1.854   2.287 -0.3822 -0.1047  0.0290
 9038TIP3    H148605   1.054   1.768   2.323 -1.3078  0.3247  0.4947
 9038TIP3    H248606   0.998   1.881   2.239 -1.4889  2.0323  2.8114
 9039TIP3   OH248607   4.299   2.439  13.935  0.6800  0.1871 -0.1922
 9039TIP3    H148608   4.346   2.355  13.928  0.7552  0.0081  1.8682
 9039TIP3    H248609   4.357   2.494  13.988 -0.4166  0.7259  0.4712
 9040TIP3   OH248610   6.567   3.315   6.048  0.0695  0.2871  0.1551
 9040TIP3    H148611   6.652   3.320   6.091  0.4100 -0.5260 -0.3999
 9040TIP3    H248612   6.586   3.287   5.959 -0.7617  0.2723 -0.0288
 9041TIP3   OH248613   0.286   6.181   2.735  0.5115  0.1055 -0.2452
 9041TIP3    H148614   0.381   6.184   2.740  0.4524  1.2797  0.8776
 9041TIP3    H248615   0.259   6.137   2.816  0.0471  2.5903  1.0602
 9042TIP3   OH248616   5.835   5.435  11.290 -0.8741  0.1477  0.8530
 9042TIP3    H148617   5.914   5.408  11.336 -1.6525 -0.3274  1.9596
 9042TIP3    H248618   5.792   5.496  11.349 -1.1954  0.6334  0.1345
 9043TIP3   OH248619   6.794   5.749  16.495 -0.3582 -0.5209  0.1838
 9043TIP3    H148620   6.703   5.740  16.525 -1.1487  1.0352 -1.5269
 9043TIP3    H248621   6.787   5.801  16.415  1.9816 -1.2362 -0.5433
 9044TIP3   OH248622   6.618   5.327  13.542 -0.0557  0.5667 -0.1193
 9044TIP3    H148623   6.676   5.252  13.529  0.9388  1.2627  0.2400
 9044TIP3    H248624   6.674   5.403  13.531 -1.4649  1.3472 -2.7117
 9045TIP3   OH248625   3.118   1.575  10.350 -0.3785 -0.3149  0.3542
 9045TIP3    H148626   3.201   1.574  10.301 -0.5432 -0.3257  0.0777
 9045TIP3    H248627   3.075   1.655  10.322 -0.2669 -0.0842  0.8272
 9046TIP3   OH248628   0.783   6.502  14.528  0.3919  0.2772 -0.1077
 9046TIP3    H148629   0.856   6.446  14.500  0.7878  0.7931 -0.1395
 9046TIP3    H248630   0.756   6.548  14.449  0.8357  0.9755  0.1281
 9047TIP3   OH248631   6.209   4.907  16.547  0.0604 -0.2712 -0.4748
 9047TIP3    H148632   6.176   4.920  16.458 -0.3860  0.5419 -0.2031
 9047TIP3    H248633   6.146   4.847  16.588  0.0285 -0.3081 -0.5783
 9048TIP3   OH248634   1.152   5.669  16.111 -0.1177  0.0745  0.5718
 9048TIP3    H148635   1.087   5.656  16.043 -0.3169 -0.1679  0.8072
 9048TIP3    H248636   1.129   5.606  16.179 -0.7857  1.2820  1.5043
 9049TIP3   OH248637   1.417   6.226  12.786 -0.3701  0.1485  0.6470
 9049TIP3    H148638   1.385   6.137  12.797 -0.0621 -0.0667 -0.1688
 9049TIP3    H248639   1.419   6.240  12.692 -0.2882  0.9751  0.7624
 9050TIP3   OH248640   1.395   0.328   4.175 -0.0202 -0.7257 -0.5980
 9050TIP3    H148641   1.351   0.354   4.256 -1.1816 -1.3687 -0.9959
 9050TIP3    H248642   1.474   0.283   4.204 -0.0915 -0.3694  0.1675
 9051TIP3   OH248643   4.678   2.317   0.616  0.3217 -0.1457  0.3589
 9051TIP3    H148644   4.736   2.265   0.672  1.2442  0.2943 -0.1594
 9051TIP3    H248645   4.737   2.372   0.565 -0.6096  2.1557  1.5778
 9052TIP3   OH248646   4.394   3.287  12.993  0.5603  0.3115  0.0024
 9052TIP3    H148647   4.484   3.312  13.017  0.8697  0.6865 -1.4375
 9052TIP3    H248648   4.387   3.195  13.019  0.6715  0.8069  1.9501
 9053TIP3   OH248649   6.664   1.460   2.718 -0.3563  0.0164 -0.5805
 9053TIP3    H148650   6.646   1.506   2.636 -1.1663  3.4206  1.3270
 9053TIP3    H248651   6.759   1.459   2.725 -0.2803 -0.2494 -1.4962
 9054TIP3   OH248652   4.427   2.164   1.119  0.5351  0.0188 -0.1648
 9054TIP3    H148653   4.452   2.204   1.036 -2.8690  2.0139 -0.4456
 9054TIP3    H248654   4.373   2.231   1.162  0.8149 -1.5674  2.9265
 9055TIP3   OH248655   0.152   4.854   4.336  0.1097 -0.3440 -0.1878
 9055TIP3    H148656   0.095   4.920   4.298 -0.3057  0.6527  2.0130
 9055TIP3    H248657   0.145   4.779   4.276 -0.2773  1.1613 -2.1402
 9056TIP3   OH248658   0.191   5.155  16.991 -0.0583  0.2150  0.6187
 9056TIP3    H148659   0.173   5.069  16.954 -0.6096  0.0429  1.2612
 9056TIP3    H248660   0.128   5.213  16.948  0.2576  0.2774  0.2443
 9057TIP3   OH248661   1.830   1.825   0.314 -0.2492  0.4257  0.7729
 9057TIP3    H148662   1.858   1.904   0.361  0.0223 -0.0856  1.4993
 9057TIP3    H248663   1.871   1.753   0.362 -1.2832 -0.2202  0.7268
 9058TIP3   OH248664   2.173   2.380  11.865  0.2160 -0.6864 -0.2946
 9058TIP3    H148665   2.266   2.357  11.866  0.3544 -0.1676  1.5672
 9058TIP3    H248666   2.158   2.426  11.948 -1.4962  0.0930 -0.9762
 9059TIP3   OH248667   4.189   3.174   2.515  0.2243  0.0485 -0.0024
 9059TIP3    H148668   4.184   3.268   2.533 -0.3248 -0.2877  1.7290
 9059TIP3    H248669   4.163   3.132   2.597 -2.1356 -1.6273 -1.4797
 9060TIP3   OH248670   3.102   0.857   5.340  0.0140  0.5315 -0.0301
 9060TIP3    H148671   3.194   0.833   5.348  0.3010  1.8580  0.8004
 9060TIP3    H248672   3.057   0.801   5.403  0.5109  1.2781  0.9974
 9061TIP3   OH248673   5.615   5.389   0.423  0.2660 -0.7545 -0.1166
 9061TIP3    H148674   5.567   5.352   0.349 -1.5227  1.8085 -0.3748
 9061TIP3    H248675   5.578   5.346   0.500 -1.5699  0.2103 -0.4147
 9062TIP3   OH248676   4.928   0.159  12.026 -0.1123 -0.7478  0.2823
 9062TIP3    H148677   4.893   0.145  12.114 -1.1808  1.2998  0.2553
 9062TIP3    H248678   4.869   0.110  11.968 -0.6503 -0.4372  0.5608
 9063TIP3   OH248679   6.809   6.031   2.909 -0.1061  0.4491 -0.2819
 9063TIP3    H148680   6.739   5.973   2.939  0.1090  0.3492  0.0335
 9063TIP3    H248681   6.764   6.113   2.888 -0.3960  0.2088 -0.6185
 9064TIP3   OH248682   3.500   2.792   3.055  0.1444 -0.2275  0.3780
 9064TIP3    H148683   3.413   2.821   3.029 -0.8791 -4.0755 -1.0449
 9064TIP3    H248684   3.559   2.831   2.991 -1.2870 -2.0405 -2.2032
 9065TIP3   OH248685   5.863   5.876   5.641 -0.5891  0.3603 -0.0173
 9065TIP3    H148686   5.874   5.781   5.644  1.9419  0.5666  3.0477
 9065TIP3    H248687   5.781   5.892   5.688 -0.2583 -0.2923  0.8165
 9066TIP3   OH248688   6.533   2.629  12.296  0.1775  0.0039 -0.6305
 9066TIP3    H148689   6.555   2.588  12.213  2.7997 -0.9854  0.4372
 9066TIP3    H248690   6.505   2.717  12.273 -0.2174 -0.5938 -2.6018
 9067TIP3   OH248691   3.531   4.440  13.783  0.2796 -0.6178 -0.2361
 9067TIP3    H148692   3.488   4.361  13.814 -0.9691  0.3307  0.5512
 9067TIP3    H248693   3.578   4.474  13.859 -1.7749  1.0483  0.3830
 9068TIP3   OH248694   4.165   6.308  15.627 -0.2095 -0.1399  0.0814
 9068TIP3    H148695   4.180   6.214  15.630 -1.7483 -0.3780  1.5019
 9068TIP3    H248696   4.233   6.341  15.567 -0.0788 -2.1951 -0.9845
 9069TIP3   OH248697   2.127   2.960  15.748  0.3718  0.5997 -0.4930
 9069TIP3    H148698   2.169   2.886  15.705  0.1042 -0.7086  1.3852
 9069TIP3    H248699   2.189   2.988  15.815  0.0239  1.4134 -0.4986
 9070TIP3   OH248700   0.161   4.438  11.734  0.1703 -0.6373 -0.0411
 9070TIP3    H148701   0.246   4.439  11.779 -0.0542 -0.7242  0.3843
 9070TIP3    H248702   0.117   4.517  11.764  1.1793  0.9369 -2.3759
 9071TIP3   OH248703   5.781   2.989   5.869 -0.1533  0.2876  0.3241
 9071TIP3    H148704   5.726   2.922   5.828  1.0575 -1.3248  1.2279
 9071TIP3    H248705   5.834   3.024   5.798 -0.9336  0.4274 -0.1931
 9072TIP3   OH248706   4.923   1.887  17.243 -0.0107  0.3536  0.0644
 9072TIP3    H148707   4.886   1.838  17.317 -0.3664 -0.4464 -0.6316
 9072TIP3    H248708   4.923   1.978  17.273 -1.8776  0.2930  0.3747
 9073TIP3   OH248709   0.358   4.387   4.086  0.0789  0.3647 -0.1748
 9073TIP3    H148710   0.338   4.452   4.153  0.3144 -0.0426  0.2981
 9073TIP3    H248711   0.411   4.433   4.022  0.1379  0.6692  0.0912
 9074TIP3   OH248712   1.729   2.347   1.064 -0.6398 -0.2118  0.1110
 9074TIP3    H148713   1.729   2.416   1.131 -0.7504  0.1764 -0.2841
 9074TIP3    H248714   1.797   2.375   1.002 -0.1409 -0.8620  0.3560
 9075TIP3   OH248715   5.904   2.521   4.788  0.1962 -0.3542 -0.2042
 9075TIP3    H148716   5.827   2.574   4.810  0.7164  0.4384 -0.2604
 9075TIP3    H248717   5.923   2.471   4.867  1.7829  2.1278  1.1024
 9076TIP3   OH248718   5.428   6.633  11.074 -0.3565  0.8739  0.0500
 9076TIP3    H148719   5.481   6.633  11.153 -0.8985  0.5871  0.4188
 9076TIP3    H248720   5.344   6.596  11.101 -0.5768  0.8510 -0.6378
 9077TIP3   OH248721   1.033   5.767   4.322  0.4797 -0.2715 -0.2244
 9077TIP3    H148722   0.960   5.705   4.322 -0.2219  0.4574  1.7872
 9077TIP3    H248723   1.027   5.813   4.238 -0.4553 -1.2543 -0.7104
 9078TIP3   OH248724   5.511   5.444  12.738  0.1400  0.0528 -0.4697
 9078TIP3    H148725   5.521   5.501  12.662 -2.0577  0.0195 -0.8432
 9078TIP3    H248726   5.513   5.355  12.702 -2.5776  0.0481 -0.8295
 9079TIP3   OH248727   6.223   1.564   4.180  0.1203  0.3609 -0.1257
 9079TIP3    H148728   6.146   1.600   4.224 -0.0576 -0.6866  0.4415
 9079TIP3    H248729   6.298   1.607   4.223 -0.1125  0.6262  0.0153
 9080TIP3   OH248730   2.101   5.447   6.651 -0.2915 -0.3287 -0.0723
 9080TIP3    H148731   2.056   5.467   6.733 -0.7613 -0.3023 -0.3305
 9080TIP3    H248732   2.101   5.530   6.603 -0.1832 -0.3879 -0.1761
 9081TIP3   OH248733   0.765   5.397  15.890 -0.4783  0.3418 -0.4148
 9081TIP3    H148734   0.745   5.360  15.976 -0.2626  1.3876  0.1144
 9081TIP3    H248735   0.731   5.334  15.827 -1.0374 -0.2314  0.4455
 9082TIP3   OH248736   2.731   2.985  12.601 -0.0524 -0.1692 -0.2706
 9082TIP3    H148737   2.806   3.000  12.658  0.0839  0.1366 -0.5230
 9082TIP3    H248738   2.763   3.006  12.513 -0.7028  0.9272 -0.2722
 9083TIP3   OH248739   5.363   2.610  12.446 -0.4974  0.2711 -0.1751
 9083TIP3    H148740   5.381   2.582  12.536  0.3889  1.5245  0.0609
 9083TIP3    H248741   5.380   2.704  12.446 -1.0266  0.3886 -1.5276
 9084TIP3   OH248742   1.834   2.158  12.317  0.0450  0.6379 -0.0223
 9084TIP3    H148743   1.895   2.121  12.381  0.3476 -2.0054 -1.6942
 9084TIP3    H248744   1.781   2.084  12.288 -1.5180  2.1602 -1.2968
 9085TIP3   OH248745   1.157   6.012  16.180  0.7174 -0.1193  0.4649
 9085TIP3    H148746   1.081   5.971  16.222  0.7056  0.0122  0.5726
 9085TIP3    H248747   1.132   6.021  16.088  0.5873 -0.0403  0.5074
 9086TIP3   OH248748   1.949   6.484  12.723  0.1580 -0.0794  0.3236
 9086TIP3    H148749   2.044   6.491  12.721  0.0457  2.2615 -1.0339
 9086TIP3    H248750   1.923   6.472  12.632 -0.8897  1.7415  0.3099
 9087TIP3   OH248751   0.182   3.088  11.710  0.3780  0.5537 -0.5088
 9087TIP3    H148752   0.251   3.145  11.675  1.5599  0.9080  2.1216
 9087TIP3    H248753   0.176   3.016  11.647  3.4363  0.3329 -0.7124
 9088TIP3   OH248754   1.833   0.969  13.495  0.0639  0.1969  0.4458
 9088TIP3    H148755   1.832   1.018  13.413  1.8691 -0.0473  0.2279
 9088TIP3    H248756   1.743   0.940  13.507 -0.5152  1.3791 -0.7398
 9089TIP3   OH248757   4.526   1.686   5.117  0.0308  0.2808  0.1935
 9089TIP3    H148758   4.559   1.655   5.202 -1.0411 -1.4297  0.0145
 9089TIP3    H248759   4.596   1.744   5.085  1.6625 -1.1144  1.0448
 9090TIP3   OH248760   3.550   5.450  11.572  0.0025 -0.1594 -0.4325
 9090TIP3    H148761   3.464   5.417  11.599 -0.0832  0.5012  0.1153
 9090TIP3    H248762   3.595   5.373  11.537 -0.7059 -0.5686 -0.4610
 9091TIP3   OH248763   3.762   1.473   2.400  0.1880  0.2010 -0.4975
 9091TIP3    H148764   3.666   1.478   2.400 -0.2671 -4.1969  0.4411
 9091TIP3    H248765   3.788   1.529   2.474 -1.6868  0.9011 -0.2948
 9092TIP3   OH248766   1.487   4.505  12.686  0.5288 -0.4903  0.3298
 9092TIP3    H148767   1.445   4.567  12.626  0.8289 -1.4308 -0.8975
 9092TIP3    H248768   1.577   4.536  12.694  0.9355 -1.2212 -1.0065
 9093TIP3   OH248769   1.917   0.604  16.815  0.0458  0.0261 -0.5642
 9093TIP3    H148770   1.922   0.625  16.909  1.8487  0.5134 -0.7225
 9093TIP3    H248771   1.858   0.530  16.810 -0.4089  0.2513  0.9163
 9094TIP3   OH248772   4.553   2.946   3.057  0.6901  0.4589 -0.7175
 9094TIP3    H148773   4.532   2.854   3.074  0.5341  0.7215  0.5698
 9094TIP3    H248774   4.544   2.955   2.962  0.5979 -0.8262 -0.8436
 9095TIP3   OH248775   3.231   0.595   2.329  0.1053  0.1616  0.0723
 9095TIP3    H148776   3.238   0.519   2.271  3.5973 -1.2911  2.0747
 9095TIP3    H248777   3.153   0.577   2.382  0.7000 -1.9548  0.3328
 9096TIP3   OH248778   3.168   4.046   5.420 -0.8258 -0.3939 -0.2136
 9096TIP3    H148779   3.166   4.102   5.343  0.0687  0.0351  0.0560
 9096TIP3    H248780   3.259   4.019   5.428 -1.1474 -1.4652 -0.0284
 9097TIP3   OH248781   3.119   2.541  12.277 -0.4068 -0.3983 -0.3542
 9097TIP3    H148782   3.180   2.473  12.249 -1.2968 -1.5999  0.5231
 9097TIP3    H248783   3.032   2.501  12.268 -0.9335  0.5331  0.3971
 9098TIP3   OH248784   6.366   6.319  15.552 -0.6357 -0.8598  0.5079
 9098TIP3    H148785   6.407   6.243  15.591  0.9358  0.1380  0.8956
 9098TIP3    H248786   6.410   6.394  15.592  0.9182  0.2579 -2.8766
 9099TIP3   OH248787   4.768   6.655  13.239 -0.7183  0.1708 -0.1030
 9099TIP3    H148788   4.802   6.637  13.326 -1.0822 -2.4842 -0.4371
 9099TIP3    H248789   4.673   6.655  13.250 -0.8367 -2.0571 -0.7551
 9100TIP3   OH248790   2.303   6.191   3.274  0.5374 -0.1666  0.0313
 9100TIP3    H148791   2.399   6.184   3.278  0.6289  1.1774  0.6758
 9100TIP3    H248792   2.285   6.283   3.292 -0.8890 -0.4174 -0.0209
 9101TIP3   OH248793   4.998   6.583  14.745  0.2923 -0.6289 -0.0534
 9101TIP3    H148794   4.907   6.553  14.749  0.2489 -0.3324  1.7913
 9101TIP3    H248795   4.995   6.674  14.775  1.2255 -0.6681  0.1937
 9102TIP3   OH248796   1.742   0.979   5.895  0.6587  0.2181  0.6620
 9102TIP3    H148797   1.692   0.904   5.928  0.9854  0.8182  2.6621
 9102TIP3    H248798   1.829   0.944   5.876 -0.2653 -0.7531 -2.4933
 9103TIP3   OH248799   6.299   5.894  14.342 -0.6476 -0.1136  0.0564
 9103TIP3    H148800   6.265   5.972  14.298 -0.0240 -0.2995 -0.7801
 9103TIP3    H248801   6.319   5.834  14.271  1.2065 -0.0956  0.5242
 9104TIP3   OH248802   6.239   0.795   0.416  0.1499 -0.0358  0.3184
 9104TIP3    H148803   6.150   0.769   0.394  0.0999 -0.3539  0.8844
 9104TIP3    H248804   6.294   0.722   0.389  0.2648  0.2257 -0.1777
 9105TIP3   OH248805   6.459   1.490  11.794 -0.1093  0.3199  0.4509
 9105TIP3    H148806   6.432   1.567  11.843 -0.1355  1.6991 -1.5924
 9105TIP3    H248807   6.511   1.525  11.722 -1.8516 -1.3177 -1.7654
 9106TIP3   OH248808   0.071   1.191  13.753  0.2261  0.5596 -0.1097
 9106TIP3    H148809   0.096   1.279  13.780  0.4568  0.7587 -0.9243
 9106TIP3    H248810   0.154   1.145  13.739  0.1090 -0.0633  1.1317
 9107TIP3   OH248811   3.727   5.507   2.372 -1.0936 -0.2817 -0.5638
 9107TIP3    H148812   3.668   5.475   2.440 -1.9465 -0.6807 -1.4555
 9107TIP3    H248813   3.813   5.472   2.396 -1.3190 -0.1652  0.4497
 9108TIP3   OH248814   1.680   3.586   4.260  0.4800 -0.0487 -0.1079
 9108TIP3    H148815   1.708   3.585   4.169  3.0798 -0.0420  0.6227
 9108TIP3    H248816   1.633   3.503   4.272 -1.0293  0.5161 -1.7091
 9109TIP3   OH248817   5.542   1.087   4.354 -0.1655  0.5246 -0.1796
 9109TIP3    H148818   5.466   1.050   4.310 -0.7869  1.3700  0.1762
 9109TIP3    H248819   5.614   1.029   4.328 -0.7130  0.3550 -1.4060
 9110TIP3   OH248820   6.242   0.208  16.890 -0.1643  0.3509  0.2816
 9110TIP3    H148821   6.267   0.239  16.803 -0.8268  2.1494  0.6743
 9110TIP3    H248822   6.322   0.172  16.927  0.8161  2.0628 -0.0683
 9111TIP3   OH248823   6.120   1.387   0.828  0.2914  0.1507  0.4323
 9111TIP3    H148824   6.148   1.433   0.749 -0.2352  0.7819  0.6009
 9111TIP3    H248825   6.027   1.410   0.837  0.8073  1.7330  2.3313
 9112TIP3   OH248826   1.925   3.164   0.576  0.0112 -0.1989 -0.2510
 9112TIP3    H148827   1.952   3.190   0.664 -1.6593 -1.2831  0.6506
 9112TIP3    H248828   1.983   3.212   0.517  2.7109 -1.1198  1.4537
 9113TIP3   OH248829   4.325   5.993  15.762 -0.1547 -0.4870  0.1306
 9113TIP3    H148830   4.395   5.989  15.697 -0.1580 -0.4525  0.1251
 9113TIP3    H248831   4.337   5.915  15.816 -0.6542 -0.9636 -0.4262
 9114TIP3   OH248832   5.637   3.487  12.378  0.0756  0.2619 -0.5451
 9114TIP3    H148833   5.670   3.423  12.441 -0.1333 -0.2210 -0.9163
 9114TIP3    H248834   5.629   3.568  12.428  1.1365  0.2134 -0.2688
 9115TIP3   OH248835   3.849   5.687  12.709  0.4377 -0.0452  0.0105
 9115TIP3    H148836   3.834   5.610  12.654  0.4792 -1.8928  2.4449
 9115TIP3    H248837   3.872   5.756  12.647 -0.3438 -1.7712 -2.3402
 9116TIP3   OH248838   4.217   1.586  12.723 -0.2105 -0.0846 -0.3158
 9116TIP3    H148839   4.148   1.617  12.664  0.8135  0.1358 -1.4392
 9116TIP3    H248840   4.220   1.492  12.710 -1.2728 -0.2920  0.8313
 9117TIP3   OH248841   2.030   5.007   1.373  0.1547  0.2721 -0.5473
 9117TIP3    H148842   1.971   5.017   1.299  1.4252 -0.7734 -1.7549
 9117TIP3    H248843   2.042   5.096   1.407 -2.0236  0.5240 -0.2719
 9118TIP3   OH248844   4.321   1.600   1.505 -0.2151 -0.3604 -0.0464
 9118TIP3    H148845   4.260   1.564   1.440 -0.7694  1.6782 -0.7108
 9118TIP3    H248846   4.266   1.621   1.581  0.3568 -2.2837  0.9672
 9119TIP3   OH248847   3.525   4.108  10.550  0.1677 -0.4224 -0.5566
 9119TIP3    H148848   3.551   4.161  10.474  0.8682  0.5609  0.3482
 9119TIP3    H248849   3.602   4.055  10.570 -0.1375 -0.9470 -0.7237
 9120TIP3   OH248850   3.780   3.214  14.933  0.4693 -0.4192 -0.4290
 9120TIP3    H148851   3.810   3.130  14.966  2.5638  0.6657  0.6291
 9120TIP3    H248852   3.688   3.220  14.961 -0.0824 -2.7762 -1.5189
 9121TIP3   OH248853   1.383   5.835  13.447 -0.4400 -0.0586  0.3386
 9121TIP3    H148854   1.295   5.813  13.418 -0.5764 -0.8354  1.2941
 9121TIP3    H248855   1.394   5.788  13.530  1.0959 -0.4893 -0.0634
 9122TIP3   OH248856   2.774   5.451   1.223  0.1220  0.1969 -0.4251
 9122TIP3    H148857   2.721   5.502   1.161  1.2916  1.1874 -0.6390
 9122TIP3    H248858   2.802   5.375   1.173 -1.3177 -0.4977 -0.2228
 9123TIP3   OH248859   0.381   4.241  13.963  0.1922 -0.3674  0.1880
 9123TIP3    H148860   0.324   4.302  13.916  1.0471  0.3120  0.0023
 9123TIP3    H248861   0.451   4.221  13.900  0.4404 -0.7812  0.5895
 9124TIP3   OH248862   3.949   3.555   6.296  0.1781 -0.3137  0.7812
 9124TIP3    H148863   3.961   3.650   6.289  2.6134 -0.6579 -1.1494
 9124TIP3    H248864   3.863   3.539   6.258 -0.2507  1.1130  1.1034
 9125TIP3   OH248865   1.320   5.950  15.216 -0.3865  0.4595 -0.1944
 9125TIP3    H148866   1.358   5.879  15.267 -0.5948  0.9149  0.6163
 9125TIP3    H248867   1.227   5.928  15.210 -0.2716  0.1189 -0.8803
 9126TIP3   OH248868   0.923   3.106  12.833  0.1146  0.1308  0.0798
 9126TIP3    H148869   0.967   3.172  12.778 -3.0917  3.1433  0.7308
 9126TIP3    H248870   0.906   3.033  12.773 -0.1174  1.7897 -2.0096
 9127TIP3   OH248871   1.046   6.399   5.031 -0.1445  0.0789 -0.0389
 9127TIP3    H148872   1.115   6.459   5.002 -1.1677  2.1222  1.4589
 9127TIP3    H248873   1.053   6.400   5.127 -1.6730 -0.3449  0.1032
 9128TIP3   OH248874   1.182   5.811   2.359  0.1971  0.1826  0.0817
 9128TIP3    H148875   1.139   5.769   2.434  2.0498 -0.4607  0.8402
 9128TIP3    H248876   1.128   5.888   2.340 -0.7599 -0.0923  1.5575
 9129TIP3   OH248877   1.585   5.797  16.564  1.1116  0.4308 -0.1657
 9129TIP3    H148878   1.605   5.768  16.653  0.8237  0.0945 -0.2050
 9129TIP3    H248879   1.562   5.889  16.574  0.2787  0.1959  0.2396
 9130TIP3   OH248880   0.507   6.050   3.578  0.0257  0.3064 -0.5064
 9130TIP3    H148881   0.454   6.089   3.648  0.9226 -1.8509  1.4892
 9130TIP3    H248882   0.586   6.104   3.575  0.0072  0.3763  0.1671
 9131TIP3   OH248883   2.436   4.418  15.553  0.4260 -0.2935 -0.1181
 9131TIP3    H148884   2.345   4.424  15.525  1.0299  0.0667 -2.1973
 9131TIP3    H248885   2.468   4.337  15.514  1.3400  0.2618 -0.5599
 9132TIP3   OH248886   5.002   2.818   0.750  0.3022  0.7548  0.7071
 9132TIP3    H148887   4.964   2.886   0.693 -0.0406  0.8422  1.0388
 9132TIP3    H248888   4.938   2.747   0.748  0.6373  0.4581  0.4003
 9133TIP3   OH248889   4.184   1.218   3.107 -0.3646  0.4805  0.3549
 9133TIP3    H148890   4.216   1.301   3.142  0.3922 -0.2550  1.4829
 9133TIP3    H248891   4.263   1.164   3.099 -0.9127 -0.3046  0.1346
 9134TIP3   OH248892   5.432   1.456   1.297 -0.6652  0.1314 -0.5264
 9134TIP3    H148893   5.480   1.396   1.240 -0.6057  0.3750 -0.7348
 9134TIP3    H248894   5.498   1.487   1.360 -0.5534  0.4291 -0.7829
 9135TIP3   OH248895   1.734   5.359   3.423  0.5379  0.2425  0.8957
 9135TIP3    H148896   1.729   5.436   3.365 -0.5002  0.3045  1.0406
 9135TIP3    H248897   1.759   5.395   3.508  0.5913  0.3545  0.8338
 9136TIP3   OH248898   6.087   5.794   4.214 -0.1968  0.0785 -0.6947
 9136TIP3    H148899   6.065   5.725   4.277  0.2719 -1.1519 -1.8538
 9136TIP3    H248900   6.180   5.811   4.228  0.0923 -0.7431 -1.5594
 9137TIP3   OH248901   3.116   0.295  16.849 -0.3934 -0.1109 -0.0922
 9137TIP3    H148902   3.029   0.270  16.819 -1.3180  1.8113  0.8005
 9137TIP3    H248903   3.126   0.254  16.934 -0.2797 -0.5819 -0.3285
 9138TIP3   OH248904   3.980   1.044  16.266  0.1160 -0.1744  0.3435
 9138TIP3    H148905   3.950   1.126  16.307  0.4447 -0.1328  0.5056
 9138TIP3    H248906   4.025   0.998  16.337  1.5983  0.3515 -0.2186
 9139TIP3   OH248907   2.774   0.703  15.967 -0.4025  0.4182 -0.1586
 9139TIP3    H148908   2.793   0.663  16.053  0.1448 -1.6506 -1.1767
 9139TIP3    H248909   2.838   0.664  15.908 -2.4618 -0.3028 -2.0544
 9140TIP3   OH248910   5.909   3.342   4.659  0.1238  0.5033  0.6416
 9140TIP3    H148911   5.909   3.359   4.754  1.0850  2.1601  0.4001
 9140TIP3    H248912   5.866   3.257   4.649  0.0871  0.2530  2.5712
 9141TIP3   OH248913   0.745   5.892   1.956 -0.0230 -0.5571  0.2799
 9141TIP3    H148914   0.748   5.896   1.860  1.2197  0.0725  0.3252
 9141TIP3    H248915   0.781   5.976   1.984 -0.2479 -0.7950  1.3092
 9142TIP3   OH248916   5.921   3.682  16.398  0.6760  0.3878 -0.1447
 9142TIP3    H148917   5.972   3.616  16.444  2.0998  1.4869 -0.0954
 9142TIP3    H248918   5.986   3.739  16.357 -0.4858  2.1053  0.3009
 9143TIP3   OH248919   6.018   0.253  16.078  0.2200 -0.1579 -0.1182
 9143TIP3    H148920   5.940   0.289  16.036  0.5326  1.4575  0.6360
 9143TIP3    H248921   6.046   0.182  16.019 -1.0507  0.0995 -1.0678
 9144TIP3   OH248922   3.626   2.814   0.890 -0.0055 -0.6318  0.5119
 9144TIP3    H148923   3.664   2.899   0.870  1.4634 -1.1858  0.8354
 9144TIP3    H248924   3.587   2.824   0.977 -0.5466 -0.0815  0.2141
 9145TIP3   OH248925   5.979   5.243   4.450 -0.0097 -0.8389 -0.1682
 9145TIP3    H148926   6.053   5.187   4.424  0.2698 -0.7189  0.3511
 9145TIP3    H248927   5.973   5.231   4.545  0.9526  1.0805  0.1757
 9146TIP3   OH248928   1.721   0.580   0.545  0.2986 -0.1384  0.1172
 9146TIP3    H148929   1.789   0.615   0.603 -1.6909  1.4597  1.6407
 9146TIP3    H248930   1.753   0.493   0.520  3.6292  1.1154 -0.5974
 9147TIP3   OH248931   0.259   4.440   1.250 -0.3322 -0.2683 -0.1532
 9147TIP3    H148932   0.259   4.390   1.168  1.3233  0.8728 -0.9024
 9147TIP3    H248933   0.352   4.455   1.269 -0.7196  0.4274  1.3614
 9148TIP3   OH248934   3.843   4.092   2.900 -0.0789 -0.0470 -0.9398
 9148TIP3    H148935   3.766   4.039   2.921  0.5974 -0.8244 -0.3418
 9148TIP3    H248936   3.897   4.035   2.845  0.1619  0.4112 -1.1790
 9149TIP3   OH248937   0.282   3.206  16.366  0.1286 -0.2212  0.0446
 9149TIP3    H148938   0.371   3.237  16.383 -0.2878  1.4109 -0.6138
 9149TIP3    H248939   0.245   3.270  16.306 -1.6444 -0.6376  0.6340
 9150TIP3   OH248940   4.178   1.462  11.139  0.1046  0.3642 -0.5366
 9150TIP3    H148941   4.239   1.498  11.203  1.0106  2.2130 -2.3372
 9150TIP3    H248942   4.092   1.489  11.170  0.4450  0.4068  0.3915
 9151TIP3   OH248943   2.263   0.853  15.856 -0.2376 -0.2503  0.0480
 9151TIP3    H148944   2.199   0.874  15.923  0.5390 -0.9329  1.0288
 9151TIP3    H248945   2.331   0.803  15.901 -0.3435 -1.9103 -1.5045
 9152TIP3   OH248946   3.093   6.132   0.763  0.0315  0.7245 -0.0017
 9152TIP3    H148947   3.106   6.112   0.670 -0.5881  0.9898 -0.1495
 9152TIP3    H248948   3.173   6.100   0.806 -0.4898 -1.1874 -0.3538
 9153TIP3   OH248949   1.994   3.434  15.208  0.1695  0.4247  0.6569
 9153TIP3    H148950   2.021   3.522  15.237  0.3120  0.3208  0.8442
 9153TIP3    H248951   1.973   3.445  15.116  2.2671  0.2141  0.1051
 9154TIP3   OH248952   5.067   6.185  16.678  0.1152  0.8184  0.2327
 9154TIP3    H148953   4.978   6.153  16.695  0.4270 -0.1973 -0.0011
 9154TIP3    H248954   5.078   6.258  16.739 -0.9635  1.1122  0.0959
 9155TIP3   OH248955   5.008   3.374   0.417 -0.0773 -0.3806 -0.0411
 9155TIP3    H148956   5.022   3.466   0.439  1.8363 -0.1034 -2.0459
 9155TIP3    H248957   5.060   3.326   0.481  0.1212  0.0166  0.0999
 9156TIP3   OH248958   6.130   3.375   0.477 -0.0208  0.2153  0.5008
 9156TIP3    H148959   6.175   3.346   0.397  0.3484  0.8710  0.4606
 9156TIP3    H248960   6.058   3.430   0.446 -0.6788 -0.5790  0.5784
 9157TIP3   OH248961   2.895   0.273   3.011  0.5046  0.2663  0.7100
 9157TIP3    H148962   2.928   0.278   3.101 -1.7814  1.0901  1.5865
 9157TIP3    H248963   2.842   0.353   3.001  0.3017 -0.0627 -1.1963
 9158TIP3   OH248964   3.680   0.933   1.903  0.6924  0.2040  0.0228
 9158TIP3    H148965   3.631   0.973   1.831  0.2467 -0.3980 -0.0238
 9158TIP3    H248966   3.686   1.001   1.969  0.2042  0.4390 -0.1708
 9159TIP3   OH248967   5.958   2.757   0.285  0.5161  0.4237 -0.3311
 9159TIP3    H148968   6.042   2.750   0.241  0.1636  1.5069 -1.2203
 9159TIP3    H248969   5.934   2.850   0.276 -0.4703  0.2580  0.4570
 9160TIP3   OH248970   0.177   2.897  12.274  0.5723  0.7577  0.1742
 9160TIP3    H148971   0.197   2.991  12.273 -1.2184  1.1658  0.4255
 9160TIP3    H248972   0.107   2.888  12.338  0.5530 -0.7302 -0.0274
 9161TIP3   OH248973   6.457   4.561  12.810  0.6448  0.2891 -0.7159
 9161TIP3    H148974   6.531   4.562  12.871  0.7001  1.0034 -0.7819
 9161TIP3    H248975   6.489   4.510  12.735  0.5181 -0.7373 -0.0948
 9162TIP3   OH248976   3.486   0.909   2.543 -0.7169 -0.0958  0.5651
 9162TIP3    H148977   3.402   0.953   2.556 -1.1231 -0.5339 -0.4297
 9162TIP3    H248978   3.538   0.971   2.492  0.0674  0.7137  2.2687
 9163TIP3   OH248979   3.592   5.898  15.989  0.1734 -0.2925 -0.0587
 9163TIP3    H148980   3.590   5.985  16.029  2.0965 -1.1639  2.1869
 9163TIP3    H248981   3.501   5.880  15.965 -0.3130  2.1735 -0.3086
 9164TIP3   OH248982   2.562   2.571   5.889  0.3528 -0.8021  0.1998
 9164TIP3    H148983   2.617   2.618   5.826  2.1310 -2.7396  0.2253
 9164TIP3    H248984   2.540   2.637   5.956  0.1227  0.7620 -1.3268
 9165TIP3   OH248985   3.538   0.983  14.628 -0.1484  0.4093  0.3157
 9165TIP3    H148986   3.622   1.015  14.595 -0.3431  0.8601  0.2483
 9165TIP3    H248987   3.560   0.903  14.675  0.1738 -0.0578 -0.6106
 9166TIP3   OH248988   5.736   3.555  11.134 -0.8238 -0.3192 -0.0417
 9166TIP3    H148989   5.666   3.508  11.181  0.3622 -0.6905  1.4590
 9166TIP3    H248990   5.781   3.604  11.203  1.8254 -1.9251 -0.5204
 9167TIP3   OH248991   4.072   5.614   4.403  0.4820  0.4150 -0.4258
 9167TIP3    H148992   4.050   5.695   4.356 -0.6601  0.8923  0.8418
 9167TIP3    H248993   3.988   5.584   4.437  1.2919  0.2985  1.5987
 9168TIP3   OH248994   2.015   6.680   2.564 -0.4401 -0.1514  0.0545
 9168TIP3    H148995   2.109   6.664   2.579 -0.6376 -0.3510  1.2490
 9168TIP3    H248996   1.972   6.600   2.597 -1.0299 -0.0527 -0.4628
 9169TIP3   OH248997   3.856   1.233   3.603  0.2462 -0.0063  0.9328
 9169TIP3    H148998   3.906   1.304   3.644  0.2187  0.9189 -0.5340
 9169TIP3    H248999   3.872   1.244   3.509  3.0585 -4.0282  0.6861
 9170TIP3   OH249000   4.995   4.105  13.546 -0.5992  0.1688  0.2376
 9170TIP3    H149001   4.916   4.056  13.569 -0.6566  0.4684  0.6854
 9170TIP3    H249002   5.061   4.074  13.608 -0.4863  0.2525  0.1585
 9171TIP3   OH249003   4.365   1.731  12.499 -0.3738 -0.2105  0.3770
 9171TIP3    H149004   4.334   1.684  12.422  0.1286  0.2349 -0.1125
 9171TIP3    H249005   4.453   1.761  12.474 -1.3674  2.6571 -0.1082
 9172TIP3   OH249006   6.607   1.975   4.282 -0.1353 -0.3696  0.5344
 9172TIP3    H149007   6.686   1.956   4.231 -0.4611  0.4152 -0.2725
 9172TIP3    H249008   6.629   2.056   4.329 -0.7738  0.3680 -0.4033
 9173TIP3   OH249009   3.834   4.786   5.029  0.6355 -0.0600  0.4837
 9173TIP3    H149010   3.804   4.765   5.118  2.7094  0.6096  1.4126
 9173TIP3    H249011   3.929   4.794   5.038  1.1894 -2.2337 -2.2914
 9174TIP3   OH249012   5.950   3.965   6.150 -1.0483 -0.6648 -0.0011
 9174TIP3    H149013   5.973   3.878   6.119 -0.6232 -0.5226 -0.0929
 9174TIP3    H249014   5.857   3.974   6.131 -1.1612 -1.2093  0.2770
 9175TIP3   OH249015   4.556   4.448  10.912 -0.3346 -0.6311  0.0156
 9175TIP3    H149016   4.472   4.412  10.886  0.7404 -1.4903 -2.6243
 9175TIP3    H249017   4.548   4.542  10.896 -0.4646 -0.8550 -1.3081
 9176TIP3   OH249018   6.622   4.695   3.838  0.1813  0.4198 -0.1509
 9176TIP3    H149019   6.631   4.789   3.823 -1.7312  0.8667  1.1457
 9176TIP3    H249020   6.621   4.657   3.750 -0.4749  1.7813 -0.7692
 9177TIP3   OH249021   5.114   3.007   6.747 -0.0033 -0.0991 -1.0794
 9177TIP3    H149022   5.088   3.033   6.659 -1.1589 -2.7166 -1.6133
 9177TIP3    H249023   5.039   2.956   6.779  1.4065 -1.3361  0.4104
 9178TIP3   OH249024   0.492   4.652   0.698 -0.1457  0.3500 -0.4682
 9178TIP3    H149025   0.553   4.654   0.624 -1.3889  0.3044 -1.5229
 9178TIP3    H249026   0.487   4.743   0.728  0.4505  0.3494 -0.3585
 9179TIP3   OH249027   6.161   6.001  14.903 -0.2467  0.2579  0.5335
 9179TIP3    H149028   6.221   6.055  14.851 -0.9070  0.2067 -0.2996
 9179TIP3    H249029   6.121   5.942  14.840 -0.9845  0.1170  1.1200
 9180TIP3   OH249030   2.936   3.412  10.609  0.1285 -0.2899 -0.5135
 9180TIP3    H149031   2.851   3.455  10.619  0.6697  0.4744  1.0879
 9180TIP3    H249032   2.917   3.331  10.562 -1.6337 -0.5807  0.6277
 9181TIP3   OH249033   5.275   4.924  12.471 -0.5983 -0.1133 -0.1890
 9181TIP3    H149034   5.193   4.973  12.470  0.2470  1.3477 -0.4385
 9181TIP3    H249035   5.324   4.960  12.545 -0.4562 -1.4823  0.4191
 9182TIP3   OH249036   1.075   3.761  15.618 -0.2842  0.5149  0.0988
 9182TIP3    H149037   1.088   3.708  15.696  0.4481  1.1455  0.4225
 9182TIP3    H249038   1.105   3.706  15.545  1.6747  0.9254  0.5566
 9183TIP3   OH249039   4.526   3.568  16.923  0.1986  0.5213  0.1449
 9183TIP3    H149040   4.576   3.548  16.844 -0.9242 -2.9907  0.1358
 9183TIP3    H249041   4.560   3.507  16.989 -0.2148  2.0434  1.8341
 9184TIP3   OH249042   0.216   1.558  14.106 -0.2739 -0.5205  0.1175
 9184TIP3    H149043   0.225   1.624  14.037  1.0745 -0.6082  0.1819
 9184TIP3    H249044   0.231   1.606  14.188  1.4194 -1.0004  0.1238
 9185TIP3   OH249045   5.914   5.567   3.976 -0.3141  0.8103  0.2729
 9185TIP3    H149046   5.912   5.526   3.890  0.0511 -1.4353  1.2608
 9185TIP3    H249047   5.906   5.661   3.959 -0.2230  0.4186 -2.1775
 9186TIP3   OH249048   4.126   4.911   5.062  0.0458  0.1549 -0.1489
 9186TIP3    H149049   4.119   5.006   5.066  1.0692  0.2088  0.4819
 9186TIP3    H249050   4.165   4.885   5.145 -0.9015 -0.8987  0.0031
 9187TIP3   OH249051   0.965   6.008   2.355  0.4481 -0.4511  0.1168
 9187TIP3    H149052   0.886   6.010   2.409  0.0507 -1.6191 -0.3738
 9187TIP3    H249053   0.933   6.017   2.265  0.9477 -0.1587 -0.0359
 9188TIP3   OH249054   3.268   4.096  12.546 -0.7468  0.2223  0.5227
 9188TIP3    H149055   3.300   4.125  12.631 -0.8743  0.1651  0.5900
 9188TIP3    H249056   3.254   4.176  12.496 -0.5280  0.2505  0.5021
 9189TIP3   OH249057   6.058   6.562   2.593 -0.2607 -0.2341  0.1536
 9189TIP3    H149058   6.042   6.486   2.537 -1.2238  0.4807 -0.5844
 9189TIP3    H249059   5.971   6.599   2.608  0.2163  0.9446  0.1641
 9190TIP3   OH249060   2.349   1.761  11.121 -0.1159  0.4908 -0.3598
 9190TIP3    H149061   2.353   1.753  11.026 -0.2360  0.5850 -0.3726
 9190TIP3    H249062   2.431   1.721  11.152  0.3832  1.3308 -0.5578
 9191TIP3   OH249063   1.215   0.671  14.907 -0.2354  0.2315  0.4393
 9191TIP3    H149064   1.295   0.718  14.932 -0.9003  0.3553  2.5895
 9191TIP3    H249065   1.154   0.740  14.880 -0.3428  0.3620  1.0037
 9192TIP3   OH249066   3.519   3.486  12.954  0.0615  0.5495  0.0497
 9192TIP3    H149067   3.469   3.490  13.036  1.3343  0.5792  0.8554
 9192TIP3    H249068   3.524   3.393  12.934 -0.6059  0.5697 -0.2218
 9193TIP3   OH249069   2.165   2.990  14.276  0.1956  0.3951 -0.2742
 9193TIP3    H149070   2.230   3.050  14.313  0.4531  0.9443 -1.5520
 9193TIP3    H249071   2.080   3.031  14.296  0.3686  1.2276 -1.1540
 9194TIP3   OH249072   6.374   0.242  14.851 -0.4441  0.2630 -0.2496
 9194TIP3    H149073   6.291   0.287  14.868  0.1948  1.0529  0.9768
 9194TIP3    H249074   6.433   0.312  14.822  0.1881 -0.0205  0.3464
 9195TIP3   OH249075   1.999   5.319  12.909 -0.5409  0.0400 -0.3948
 9195TIP3    H149076   2.046   5.354  12.985  0.0638 -1.3687 -0.0837
 9195TIP3    H249077   2.060   5.256  12.870 -1.1315  0.1851 -1.6199
 9196TIP3   OH249078   5.045   3.708  13.122  0.5594  0.4480  0.0079
 9196TIP3    H149079   5.113   3.678  13.061  0.6597  0.7052 -0.0113
 9196TIP3    H249080   5.093   3.752  13.192  0.4634 -0.1472  0.4539
 9197TIP3   OH249081   0.469   4.543   0.020 -0.0279 -0.1637  0.5497
 9197TIP3    H149082   0.491   4.495  -0.059 -0.4291 -0.1839  0.4458
 9197TIP3    H249083   0.489   4.635  -0.000 -0.5815 -0.1027  0.2493
 9198TIP3   OH249084   3.106   3.904  11.982  0.1795 -1.0547  0.3409
 9198TIP3    H149085   3.083   3.984  12.029  2.8119  0.4127 -0.6830
 9198TIP3    H249086   3.107   3.836  12.049 -1.9866 -0.2673  1.2563
 9199TIP3   OH249087   5.598   0.759  14.685 -0.0395 -0.4389 -0.5809
 9199TIP3    H149088   5.678   0.712  14.661 -0.8882 -1.6862 -1.0554
 9199TIP3    H249089   5.572   0.806  14.605 -0.2622 -0.7473 -0.6902
 9200TIP3   OH249090   2.842   6.792   2.313  0.3417  0.0235 -0.5769
 9200TIP3    H149091   2.787   6.714   2.314 -1.6864  1.3927  0.0637
 9200TIP3    H249092   2.781   6.865   2.300  1.9651  1.6568  0.4594
 9201TIP3   OH249093   5.375   6.696  12.412 -0.6283  0.1545  0.0268
 9201TIP3    H149094   5.393   6.784  12.376 -3.8737  0.6735 -0.6800
 9201TIP3    H249095   5.331   6.713  12.495 -1.0595 -0.7941  0.0017
 9202TIP3   OH249096   1.287   1.296   0.464  0.6380  0.7888 -0.0553
 9202TIP3    H149097   1.254   1.381   0.494 -0.3012  1.2453 -2.1664
 9202TIP3    H249098   1.335   1.316   0.384 -0.1636 -0.7196 -0.9593
 9203TIP3   OH249099   1.731   1.207   3.585  0.4999 -0.0863 -0.0311
 9203TIP3    H149100   1.720   1.225   3.492 -0.2450  0.4391  0.1467
 9203TIP3    H249101   1.797   1.271   3.613 -0.0840  0.5125  0.0170
 9204TIP3   OH249102   2.403   1.017   5.614  0.1038 -0.2062  0.2639
 9204TIP3    H149103   2.490   1.057   5.624 -0.6204  1.1463  1.5116
 9204TIP3    H249104   2.390   0.967   5.695 -0.0016 -0.9989 -0.2336
 9205TIP3   OH249105   3.367   2.675   0.508 -0.2295 -0.4263  0.9041
 9205TIP3    H149106   3.448   2.626   0.523 -0.9416 -1.5499  1.2088
 9205TIP3    H249107   3.304   2.609   0.479 -0.9289  0.4994  0.2654
 9206TIP3   OH249108   5.452   2.155   5.050 -0.2853  0.7205 -0.2695
 9206TIP3    H149109   5.466   2.088   5.117  5.2307 -0.8803 -2.4031
 9206TIP3    H249110   5.517   2.223   5.070 -1.1581  2.1076 -1.8688
 9207TIP3   OH249111   4.419   4.789  13.887 -0.3632  0.0941  0.5094
 9207TIP3    H149112   4.343   4.824  13.840  1.6952  1.3490 -2.2103
 9207TIP3    H249113   4.428   4.846  13.963 -0.3399  2.0574 -0.8774
 9208TIP3   OH249114   6.749   4.559  13.395 -1.4257  0.2349 -0.7592
 9208TIP3    H149115   6.660   4.566  13.428 -1.4110 -0.3517 -0.5798
 9208TIP3    H249116   6.755   4.625  13.326 -1.3806  1.6398  0.5540
 9209TIP3   OH249117   5.376   5.841   4.326 -0.0525 -0.2800  0.1699
 9209TIP3    H149118   5.375   5.920   4.272 -1.7771  0.4873  1.2373
 9209TIP3    H249119   5.355   5.770   4.266  1.2530  0.0790 -0.7536
 9210TIP3   OH249120   5.926   1.309  14.649  0.0639 -0.1070 -0.1956
 9210TIP3    H149121   5.960   1.298  14.561 -1.8992 -0.6505 -0.9381
 9210TIP3    H249122   5.866   1.383  14.642 -2.4429 -2.0053 -0.1136
 9211TIP3   OH249123   1.605   1.154   2.240 -0.1305  0.3589 -0.3157
 9211TIP3    H149124   1.635   1.132   2.151 -0.2040  0.6218 -0.4053
 9211TIP3    H249125   1.672   1.117   2.297  0.8070  1.6470 -0.5417
 9212TIP3   OH249126   2.406   2.206  13.003 -0.0730  0.2893  0.0289
 9212TIP3    H149127   2.350   2.150  13.057 -0.3334  2.3146  2.0261
 9212TIP3    H249128   2.350   2.233  12.930  0.3586 -2.6886 -1.5641
 9213TIP3   OH249129   4.364   3.201   2.313  0.2657  0.0917 -0.1745
 9213TIP3    H149130   4.310   3.164   2.383  0.3527  0.0916 -0.1069
 9213TIP3    H249131   4.395   3.126   2.264  1.4035 -0.0158  0.6621
 9214TIP3   OH249132   4.411   3.294   5.167 -0.4585  0.4260  0.0510
 9214TIP3    H149133   4.332   3.249   5.197  0.0790 -0.5426  0.0491
 9214TIP3    H249134   4.435   3.250   5.086 -0.2715  1.1432 -0.2993
 9215TIP3   OH249135   6.433   0.787   1.535  0.7036  0.5395  0.4100
 9215TIP3    H149136   6.439   0.794   1.631 -0.5459  0.5493  0.5055
 9215TIP3    H249137   6.441   0.694   1.517 -0.0013  0.4338  0.6127
 9216TIP3   OH249138   5.886   6.750   4.324 -0.1205 -0.2870 -0.1134
 9216TIP3    H149139   5.809   6.749   4.268 -0.7730 -0.4789  0.7662
 9216TIP3    H249140   5.867   6.817   4.390  1.3943  1.2390 -1.1254
 9217TIP3   OH249141   1.540   6.013  11.538 -0.0696  0.2028  0.5416
 9217TIP3    H149142   1.545   6.103  11.506 -3.3345 -0.2031 -1.5787
 9217TIP3    H249143   1.493   5.965  11.470  0.6272 -2.9300  2.0490
 9218TIP3   OH249144   2.667   4.678   3.966 -0.2622  1.1142  0.0951
 9218TIP3    H149145   2.752   4.659   3.925 -1.0864 -0.6455 -0.9461
 9218TIP3    H249146   2.610   4.700   3.893 -1.7464 -1.9853  0.1431
 9219TIP3   OH249147   4.304   6.177  12.894  0.5846  0.4744 -0.1263
 9219TIP3    H149148   4.312   6.216  12.807  1.8204  0.7319  0.0773
 9219TIP3    H249149   4.314   6.251  12.954  0.4297  0.1992  0.2443
 9220TIP3   OH249150   6.155   1.529  16.692  0.1394  0.1309 -0.3933
 9220TIP3    H149151   6.248   1.505  16.689 -0.0372 -0.6386  0.1498
 9220TIP3    H249152   6.150   1.597  16.759  0.5435  1.3198 -1.5157
 9221TIP3   OH249153   2.207   3.678   0.839 -0.7813  0.4090  0.7202
 9221TIP3    H149154   2.176   3.756   0.794  0.3411  1.3287  1.5125
 9221TIP3    H249155   2.132   3.649   0.891 -0.8133  1.7050  1.4189
 9222TIP3   OH249156   4.055   4.886  12.537  0.1388 -0.1169  0.3217
 9222TIP3    H149157   4.140   4.883  12.493  0.9981 -0.4997  1.9297
 9222TIP3    H249158   4.021   4.797  12.529  0.6472 -0.3849  1.0768
 9223TIP3   OH249159   2.665   1.760  14.184  0.4866 -0.4129  0.2285
 9223TIP3    H149160   2.693   1.675  14.219  1.3291 -0.0260  0.5220
 9223TIP3    H249161   2.614   1.799  14.255  0.2365 -0.5984  0.1529
 9224TIP3   OH249162   2.015   0.642  13.976 -0.1259  0.2378 -0.6562
 9224TIP3    H149163   1.991   0.556  14.011  0.3250  0.1422 -0.5653
 9224TIP3    H249164   2.056   0.687  14.050 -1.5683  1.0536 -0.3163
 9225TIP3   OH249165   2.309   5.971  15.666 -0.2734 -0.3677  0.4674
 9225TIP3    H149166   2.389   5.978  15.717 -0.5665  0.1658  0.8686
 9225TIP3    H249167   2.251   6.038  15.703  0.0079  1.0293 -1.4749
 9226TIP3   OH249168   4.414   6.706   2.801 -0.1604  0.5245  0.3518
 9226TIP3    H149169   4.491   6.662   2.764  0.4728  1.7217  0.1567
 9226TIP3    H249170   4.344   6.642   2.796  0.6986 -0.4086  0.0009
 9227TIP3   OH249171   4.623   4.441   0.263 -0.0516 -0.1926  0.4311
 9227TIP3    H149172   4.544   4.477   0.305 -0.5786  0.1278 -0.7899
 9227TIP3    H249173   4.695   4.494   0.297 -0.6943  1.3607 -0.5356
 9228TIP3   OH249174   2.156   5.961   5.893 -0.9335  0.0479  0.2576
 9228TIP3    H149175   2.076   5.918   5.922  0.5918 -1.2263  2.9878
 9228TIP3    H249176   2.221   5.939   5.961  1.7116  1.0708 -1.7619
 9229TIP3   OH249177   1.779   1.452   5.378 -0.2530  0.1777  0.0356
 9229TIP3    H149178   1.763   1.450   5.473 -0.0654 -0.6651  0.0612
 9229TIP3    H249179   1.868   1.419   5.368 -0.0986  0.7241 -0.4050
 9230TIP3   OH249180   2.243   5.868   2.186 -0.5110 -0.3851 -0.0157
 9230TIP3    H149181   2.287   5.953   2.197  1.7097 -1.4411 -0.1459
 9230TIP3    H249182   2.239   5.831   2.274 -0.0854 -0.7769 -0.1572
 9231TIP3   OH249183   5.737   2.661  16.845 -0.8067  0.6117 -0.3097
 9231TIP3    H149184   5.686   2.679  16.924 -0.9426 -0.4104 -0.1537
 9231TIP3    H249185   5.692   2.588  16.803 -0.0899  0.4006 -0.7359
 9232TIP3   OH249186   3.059   1.647   3.420  0.2617  0.4211  0.1794
 9232TIP3    H149187   3.110   1.619   3.344 -2.1901  0.6026 -1.6429
 9232TIP3    H249188   2.995   1.577   3.433 -1.3451  1.8184  0.0667
 9233TIP3   OH249189   1.666   0.216   4.279  0.4945 -0.4165  0.0778
 9233TIP3    H149190   1.659   0.286   4.343 -1.3927 -2.1526  1.9238
 9233TIP3    H249191   1.660   0.135   4.330  2.6743 -2.0070 -1.9274
 9234TIP3   OH249192   3.544   6.173   4.248  0.5881  0.0212  0.2583
 9234TIP3    H149193   3.451   6.157   4.261  0.4482 -1.0599 -1.6625
 9234TIP3    H249194   3.586   6.142   4.328 -0.7340  1.3141  1.5175
 9235TIP3   OH249195   6.241   5.826   3.968 -0.0524  0.2698  0.3281
 9235TIP3    H149196   6.293   5.887   4.020  1.3644 -0.3189 -0.3455
 9235TIP3    H249197   6.160   5.815   4.017  0.1723  1.7298  1.0742
 9236TIP3   OH249198   5.140   5.539  13.846 -0.3968  0.4732  0.3511
 9236TIP3    H149199   5.190   5.595  13.786 -0.5878 -0.3357 -0.5862
 9236TIP3    H249200   5.049   5.556  13.824 -0.5628  1.5468  1.7005
 9237TIP3   OH249201   6.344   2.177   3.043 -0.4593  0.6458 -0.0896
 9237TIP3    H149202   6.376   2.175   3.133  0.0695 -0.8764 -0.2809
 9237TIP3    H249203   6.403   2.236   2.997  1.4453 -1.2175 -0.1708
 9238TIP3   OH249204   6.624   6.228  14.718  0.3828  0.2216  0.3428
 9238TIP3    H149205   6.670   6.171  14.657 -0.3350 -1.4386  1.3022
 9238TIP3    H249206   6.585   6.296  14.662 -3.4855 -3.2501 -1.7932
 9239TIP3   OH249207   4.795   0.891   3.311  0.0685 -0.4494  0.1033
 9239TIP3    H149208   4.820   0.827   3.244  1.8169 -0.0334  0.3183
 9239TIP3    H249209   4.807   0.846   3.394  2.7360  0.5187  0.3367
 9240TIP3   OH249210   0.705   2.601   0.331 -0.3165  0.0505 -0.3995
 9240TIP3    H149211   0.768   2.530   0.345 -1.4612 -0.5481  2.6034
 9240TIP3    H249212   0.754   2.681   0.353 -0.1979 -0.2996  0.7146
 9241TIP3   OH249213   4.736   4.783  13.149 -0.1037 -0.1498 -0.1236
 9241TIP3    H149214   4.753   4.870  13.113  0.6466  0.3285  1.3063
 9241TIP3    H249215   4.821   4.740  13.148 -0.7793 -1.6156 -2.5617
 9242TIP3   OH249216   4.784   0.723   2.821  0.7316 -0.3054  0.0013
 9242TIP3    H149217   4.791   0.809   2.778 -1.6260 -0.3328 -0.5836
 9242TIP3    H249218   4.800   0.660   2.751  2.8319 -0.4154  0.5062
 9243TIP3   OH249219   0.697   2.976  15.210  0.6403 -0.3691 -0.1549
 9243TIP3    H149220   0.656   2.919  15.274  1.1890 -1.3753 -0.6716
 9243TIP3    H249221   0.773   3.013  15.256  1.0898 -1.1644 -0.2475
 9244TIP3   OH249222   6.405   2.746  12.594 -0.3722  0.0718  0.3829
 9244TIP3    H149223   6.316   2.759  12.625 -0.8260  1.5370 -1.3538
 9244TIP3    H249224   6.411   2.653  12.575 -1.8650  0.1152 -0.4051
 9245TIP3   OH249225   3.718   5.329   3.872 -0.0029  0.0653 -0.0529
 9245TIP3    H149226   3.651   5.340   3.804  0.9539  0.1002 -1.0179
 9245TIP3    H249227   3.680   5.266   3.934 -0.2057 -1.3843 -1.5734
 9246TIP3   OH249228   2.561   6.691   0.254 -0.2182 -0.0753 -0.3111
 9246TIP3    H149229   2.544   6.688   0.160 -3.5864  1.7149  0.0695
 9246TIP3    H249230   2.474   6.680   0.294  1.2053 -1.7209  2.6620
 9247TIP3   OH249231   2.823   5.419   1.805  0.9229 -0.4612 -0.1872
 9247TIP3    H149232   2.772   5.399   1.883  1.8819 -2.2900  0.0238
 9247TIP3    H249233   2.779   5.495   1.766 -1.2205 -1.2232  0.6026
 9248TIP3   OH249234   4.878   5.608  10.435 -0.2069  0.1310  0.0624
 9248TIP3    H149235   4.904   5.557  10.512  0.5730 -0.3733 -0.5166
 9248TIP3    H249236   4.786   5.584  10.421  0.2151 -1.3892 -0.3690
 9249TIP3   OH249237   3.993   1.085  13.174  0.3333 -0.3460  0.3512
 9249TIP3    H149238   4.052   1.116  13.105  1.3726 -0.7544  1.0312
 9249TIP3    H249239   4.037   1.110  13.255  0.5653 -2.3900  0.9101
 9250TIP3   OH249240   3.697   6.740   5.462  0.3862  0.2647  0.3425
 9250TIP3    H149241   3.735   6.798   5.528  1.0787 -1.2194  1.2851
 9250TIP3    H249242   3.735   6.654   5.480 -0.6891 -0.5212 -0.9548
 9251TIP3   OH249243   4.112   2.827   3.161 -0.2430  0.5548  0.5937
 9251TIP3    H149244   4.091   2.805   3.252 -0.7576  0.1613  0.3903
 9251TIP3    H249245   4.150   2.915   3.165  0.8278  0.0687  1.3129
 9252TIP3   OH249246   2.599   3.016  10.467 -0.2024  0.3720 -0.3448
 9252TIP3    H149247   2.610   2.933  10.420  0.1716 -0.3802  1.0094
 9252TIP3    H249248   2.545   3.070  10.409 -0.3200 -0.7524 -1.3178
 9253TIP3   OH249249   0.114   2.180  16.194 -0.7983 -0.0530 -0.1555
 9253TIP3    H149250   0.024   2.156  16.173 -0.9675  1.6232 -1.5441
 9253TIP3    H249251   0.158   2.182  16.109  0.2488  0.3232  0.3848
 9254TIP3   OH249252   1.608   5.468  16.615 -0.2698  0.1222  0.0331
 9254TIP3    H149253   1.644   5.527  16.681 -2.0047  1.5137 -0.2088
 9254TIP3    H249254   1.598   5.523  16.537  0.8958 -1.2667 -1.1610
 9255TIP3   OH249255   5.287   2.718   5.378 -0.1079  0.1936  0.9471
 9255TIP3    H149256   5.353   2.702   5.446  0.2239  0.9106  0.8088
 9255TIP3    H249257   5.275   2.813   5.379  0.2057  0.2657 -0.2636
 9256TIP3   OH249258   2.456   2.544  10.930  0.6258  0.1204 -0.4835
 9256TIP3    H149259   2.513   2.529  11.005 -0.2633  0.0819  0.2093
 9256TIP3    H249260   2.367   2.542  10.967  0.2282  1.8205 -1.2354
 9257TIP3   OH249261   2.886   6.267   1.174 -0.3912  0.2620  0.1847
 9257TIP3    H149262   2.853   6.333   1.113 -0.3529 -0.4142 -0.5842
 9257TIP3    H249263   2.814   6.205   1.182  0.2549 -0.6097 -0.6008
 9258TIP3   OH249264   3.321   1.454   2.645  0.3641  0.0408 -0.1712
 9258TIP3    H149265   3.365   1.539   2.642 -1.6127  1.1997  1.0692
 9258TIP3    H249266   3.365   1.406   2.715  0.1044  0.9197  0.6073
 9259TIP3   OH249267   3.000   3.359  12.065 -0.1195  0.2305  0.7034
 9259TIP3    H149268   3.016   3.391  11.976 -0.5048  0.2812  0.6497
 9259TIP3    H249269   2.996   3.439  12.118 -1.1499  0.2800  0.5594
 9260TIP3   OH249270   5.720   2.857  14.818  0.3254 -0.3895  0.2981
 9260TIP3    H149271   5.678   2.811  14.745 -1.7696  0.0144  1.1638
 9260TIP3    H249272   5.730   2.947  14.786  0.8056 -0.5465 -0.0063
 9261TIP3   OH249273   6.419   1.081  12.035  0.5252 -0.5615 -0.4040
 9261TIP3    H149274   6.467   1.135  11.973  0.4071 -0.8881 -0.7825
 9261TIP3    H249275   6.433   1.123  12.120  1.0850 -0.3916 -0.5822
 9262TIP3   OH249276   2.467   3.980   1.916  0.6526 -0.2816 -0.4719
 9262TIP3    H149277   2.425   4.066   1.912  2.4026  0.6202 -0.4335
 9262TIP3    H249278   2.428   3.938   1.993  0.0121  0.5941 -0.3030
 9263TIP3   OH249279   4.135   1.606   5.657  0.0400  0.0775  0.7365
 9263TIP3    H149280   4.201   1.644   5.715  1.6020  1.2226 -1.6519
 9263TIP3    H249281   4.182   1.540   5.607 -1.1188 -0.4937  0.3652
 9264TIP3   OH249282   2.744   4.767   3.573  0.5943  0.2794 -0.0530
 9264TIP3    H149283   2.819   4.744   3.628  0.3633 -0.3253  0.0245
 9264TIP3    H249284   2.782   4.812   3.498  1.3153 -2.0798 -1.1991
 9265TIP3   OH249285   3.683   0.685  10.689 -0.2936 -0.2326 -0.6143
 9265TIP3    H149286   3.667   0.591  10.697 -0.3460 -0.0606  2.1540
 9265TIP3    H249287   3.773   0.692  10.659 -0.9020 -1.1284 -2.8232
 9266TIP3   OH249288   0.094   6.469   5.615  0.2461  0.3770 -0.0597
 9266TIP3    H149289   0.189   6.483   5.616 -0.0473  3.0557  0.7873
 9266TIP3    H249290   0.075   6.429   5.699  0.7142 -1.5207 -0.8048
 9267TIP3   OH249291   2.725   6.787   4.858  0.1719 -0.3216 -0.0187
 9267TIP3    H149292   2.768   6.782   4.773 -1.7942  1.0834 -1.1912
 9267TIP3    H249293   2.783   6.842   4.911  0.7231 -0.0215 -0.9204
 9268TIP3   OH249294   1.276   4.770   3.777  0.4235  0.1505 -0.0961
 9268TIP3    H149295   1.304   4.837   3.714  0.1173  0.9003  0.5555
 9268TIP3    H249296   1.194   4.736   3.740  0.1130  0.7640  0.0243
 9269TIP3   OH249297   2.695   3.113  13.267 -0.0487  0.9154  0.8636
 9269TIP3    H149298   2.707   3.102  13.173 -0.1102 -0.0657  0.9540
 9269TIP3    H249299   2.748   3.043  13.306  0.7721  1.9179  1.6062
 9270TIP3   OH249300   1.526   2.325   4.054  0.1167 -0.1667 -0.0749
 9270TIP3    H149301   1.576   2.288   4.126  1.0772  0.0373 -0.6202
 9270TIP3    H249302   1.542   2.419   4.059  0.2420 -0.1547 -0.5878
 9271TIP3   OH249303   6.181   4.409  16.331 -0.0720  0.2965  0.2135
 9271TIP3    H149304   6.105   4.460  16.303 -0.5065  0.2804  1.3052
 9271TIP3    H249305   6.144   4.340  16.386  0.8332  1.1373  1.9616
 9272TIP3   OH249306   2.159   1.475  17.069 -0.6689 -0.0214  0.2532
 9272TIP3    H149307   2.122   1.516  16.990 -1.6767  1.9369  1.6493
 9272TIP3    H249308   2.083   1.443  17.117 -0.4680  2.0618  2.1036
 9273TIP3   OH249309   1.331   0.199  10.928 -0.1668  0.0951  0.0770
 9273TIP3    H149310   1.382   0.119  10.942 -0.3030  0.3501  2.2331
 9273TIP3    H249311   1.395   0.270  10.936 -0.5927  0.3457  1.4263
 9274TIP3   OH249312   5.945   2.761  12.250  0.4587 -0.1509 -0.3058
 9274TIP3    H149313   5.943   2.682  12.303 -0.0798 -0.3269 -0.5791
 9274TIP3    H249314   6.034   2.765  12.215  0.4393 -0.7230 -0.4190
 9275TIP3   OH249315   2.724   1.452  11.913  0.0551  0.3107  0.3854
 9275TIP3    H149316   2.799   1.487  11.865 -0.2510 -0.7293 -0.9250
 9275TIP3    H249317   2.755   1.443  12.003  1.2571  0.5836  0.0168
 9276TIP3   OH249318   6.063   1.283  16.787 -0.2382 -0.0077  0.0258
 9276TIP3    H149319   6.069   1.217  16.718 -0.3927 -0.4040  0.3849
 9276TIP3    H249320   6.078   1.366  16.743  2.0151 -0.4299 -0.0967
 9277TIP3   OH249321   0.762   4.461   2.027 -0.0267 -0.1789  0.4444
 9277TIP3    H149322   0.793   4.546   1.998 -0.1317  0.2146  1.4354
 9277TIP3    H249323   0.799   4.450   2.115 -1.4379 -0.3570  1.0446
 9278TIP3   OH249324   1.997   0.254   5.427  0.3871 -0.6981 -0.1916
 9278TIP3    H149325   1.988   0.332   5.482  2.0907 -0.0598 -0.7712
 9278TIP3    H249326   1.995   0.181   5.489  1.8011 -0.0157  0.6935
 9279TIP3   OH249327   4.056   0.434  14.968  0.3050 -0.7021  0.7325
 9279TIP3    H149328   4.048   0.350  14.923  1.1467 -0.9495  1.0113
 9279TIP3    H249329   4.146   0.434  15.002  0.3806  0.3939  0.5659
 9280TIP3   OH249330   1.687   3.082   3.680  0.0221  0.0764 -0.0350
 9280TIP3    H149331   1.610   3.049   3.726  0.1633  0.9962  0.9076
 9280TIP3    H249332   1.751   3.100   3.750  0.1652  1.7049 -0.5383
 9281TIP3   OH249333   4.756   0.135  15.778 -0.1672 -0.0269 -0.3946
 9281TIP3    H149334   4.831   0.181  15.816 -0.8847  1.1622 -0.3627
 9281TIP3    H249335   4.692   0.133  15.849  0.2317 -2.0644 -0.0471
 9282TIP3   OH249336   2.242   2.603   2.454 -0.8261  0.0028 -0.5426
 9282TIP3    H149337   2.246   2.678   2.395 -1.3625 -0.4543 -1.1734
 9282TIP3    H249338   2.231   2.642   2.541  0.6006  0.7087 -0.6320
 9283TIP3   OH249339   6.041   4.593   6.518  0.0925 -0.0007 -0.3161
 9283TIP3    H149340   5.997   4.553   6.592 -0.3228 -1.7846 -1.4817
 9283TIP3    H249341   5.978   4.656   6.484  0.9414  2.1999  1.8280
 9284TIP3   OH249342   5.400   3.603  15.540  0.6263 -0.1956  0.2693
 9284TIP3    H149343   5.305   3.590  15.534  0.8660 -1.8043 -1.2411
 9284TIP3    H249344   5.412   3.665  15.611 -1.6529  1.2455 -0.4947
 9285TIP3   OH249345   2.514   3.225  12.685  0.5762  0.2046 -0.3984
 9285TIP3    H149346   2.563   3.196  12.762 -1.6250 -2.6145  0.1048
 9285TIP3    H249347   2.438   3.270  12.720 -0.1625 -0.6174 -0.9112
 9286TIP3   OH249348   4.069   5.690   3.843  0.1374 -0.2743 -0.3700
 9286TIP3    H149349   4.107   5.606   3.819  0.9803 -0.1358  0.4371
 9286TIP3    H249350   4.049   5.732   3.759  1.8469 -0.3254 -0.8391
 9287TIP3   OH249351   4.384   1.446   0.170  0.0269 -0.3670 -0.3179
 9287TIP3    H149352   4.324   1.442   0.245 -1.7901  1.6441 -1.5507
 9287TIP3    H249353   4.378   1.360   0.129 -1.8097 -0.3207 -0.2067
 9288TIP3   OH249354   1.091   5.682   4.999 -0.5128 -0.2448 -0.1451
 9288TIP3    H149355   0.998   5.665   5.013  0.2132 -2.7072  2.7169
 9288TIP3    H249356   1.123   5.605   4.953 -0.0560  1.2495 -2.4905
 9289TIP3   OH249357   4.580   3.409   3.233  0.2951  0.1913  0.1289
 9289TIP3    H149358   4.641   3.344   3.270  1.8530  1.8269  0.6338
 9289TIP3    H249359   4.521   3.430   3.306 -0.9990 -1.4653 -0.3860
 9290TIP3   OH249360   2.840   6.313  16.022  0.3179  0.7098  0.2132
 9290TIP3    H149361   2.884   6.351  15.946 -0.4996 -0.0669 -0.6845
 9290TIP3    H249362   2.836   6.384  16.086  2.5904  0.8902  0.2341
 9291TIP3   OH249363   2.362   3.170   3.712 -0.3820 -0.4246  0.4150
 9291TIP3    H149364   2.428   3.110   3.747 -0.5346  0.0801  1.5762
 9291TIP3    H249365   2.393   3.257   3.736  0.3189  0.1005 -2.0385
 9292TIP3   OH249366   0.379   6.484   4.333 -0.2532 -1.0675  0.0483
 9292TIP3    H149367   0.319   6.419   4.296  0.5854 -1.5592 -0.5183
 9292TIP3    H249368   0.419   6.439   4.408  0.6457 -1.3985 -0.6012
 9293TIP3   OH249369   3.215   0.868  14.672 -0.0098 -0.3735  0.2360
 9293TIP3    H149370   3.289   0.880  14.612  1.5137  1.1466  2.2655
 9293TIP3    H249371   3.153   0.814  14.623  0.8035  1.3043 -2.9452
 9294TIP3   OH249372   1.314   4.762   5.914 -0.2605  0.0318 -0.1049
 9294TIP3    H149373   1.257   4.802   5.849 -1.6705 -0.3625  0.8431
 9294TIP3    H249374   1.280   4.793   5.998 -1.2360 -2.8047  0.6676
 9295TIP3   OH249375   0.259   0.468  15.582 -0.2742 -0.2364  0.0784
 9295TIP3    H149376   0.275   0.537  15.518 -1.2932  0.9000  1.0097
 9295TIP3    H249377   0.169   0.439  15.564 -0.5873  0.1264  0.9945
 9296TIP3   OH249378   6.657   1.763   3.692  0.8958  0.7535  0.6017
 9296TIP3    H149379   6.628   1.851   3.669 -0.9739  0.4845  1.7348
 9296TIP3    H249380   6.664   1.764   3.787  0.1473 -0.5097  0.6909
 9297TIP3   OH249381   0.929   5.241  12.991  0.5268 -0.0852  0.7233
 9297TIP3    H149382   0.905   5.297  12.917 -2.3850 -2.6409 -0.4644
 9297TIP3    H249383   1.006   5.192  12.961  0.0468 -0.2947 -0.1966
 9298TIP3   OH249384   5.167   5.382  15.932  0.6925 -0.1642  0.3807
 9298TIP3    H149385   5.112   5.414  16.003  0.8900  1.3971 -0.1390
 9298TIP3    H249386   5.152   5.287  15.931 -1.1679  0.0846  0.9310
 9299TIP3   OH249387   1.755   1.949  12.538  0.1561  0.3122 -0.3368
 9299TIP3    H149388   1.666   1.980  12.553 -0.1467 -0.8998  0.5758
 9299TIP3    H249389   1.810   2.007  12.590 -0.3972 -0.6255  1.3794
 9300TIP3   OH249390   4.536   4.257  16.025  0.0210 -0.1699  0.4943
 9300TIP3    H149391   4.532   4.347  15.995 -0.3513 -0.4045 -0.1854
 9300TIP3    H249392   4.463   4.249  16.087 -1.3102 -0.5661 -1.0660
 9301TIP3   OH249393   0.408   4.257  16.996 -0.0482 -0.2910  0.2771
 9301TIP3    H149394   0.440   4.305  16.920 -1.2828 -1.0562 -0.7696
 9301TIP3    H249395   0.483   4.252  17.055  1.3497 -0.8609 -1.4695
 9302TIP3   OH249396   2.729   6.320   2.403  0.0874  0.1414 -0.4718
 9302TIP3    H149397   2.762   6.234   2.376  0.0829 -0.0198  0.0287
 9302TIP3    H249398   2.634   6.312   2.397 -0.0113 -0.5039  1.3520
 9303TIP3   OH249399   3.775   2.291   2.617 -0.5130 -0.8276  0.1169
 9303TIP3    H149400   3.820   2.227   2.672 -1.2538  0.2388  2.0838
 9303TIP3    H249401   3.832   2.302   2.541  1.0505 -1.7102  1.1040
 9304TIP3   OH249402   3.950   3.230  13.796  0.0922  0.6381  0.2557
 9304TIP3    H149403   3.935   3.284  13.873 -0.2541  0.6573  0.1765
 9304TIP3    H249404   3.964   3.142  13.832 -0.5184  0.5597  0.3195
 9305TIP3   OH249405   6.176   3.264   3.357  0.4574 -0.1215 -0.2412
 9305TIP3    H149406   6.161   3.285   3.265 -0.4833 -1.1832 -0.3564
 9305TIP3    H249407   6.127   3.183   3.371 -0.1240  0.4645  1.4118
 9306TIP3   OH249408   3.528   4.147  13.574 -0.1720  0.6737  0.5047
 9306TIP3    H149409   3.441   4.111  13.553 -0.3065  1.2140  0.1107
 9306TIP3    H249410   3.514   4.242  13.576 -0.2275  0.6762  3.3412
 9307TIP3   OH249411   0.706   2.096  10.650  0.1702 -0.1397 -0.2133
 9307TIP3    H149412   0.782   2.152  10.633 -0.8125  1.1158 -0.6315
 9307TIP3    H249413   0.634   2.139  10.604 -0.5848 -1.9082 -0.7631
 9308TIP3   OH249414   1.445   2.895  16.473  0.6246  0.0415  0.1307
 9308TIP3    H149415   1.449   2.847  16.556  1.2767  0.7448  0.5193
 9308TIP3    H249416   1.352   2.907  16.456  0.4489 -1.2990  0.0543
 9309TIP3   OH249417   6.741   5.363   5.624 -0.4154 -0.8472  0.4340
 9309TIP3    H149418   6.659   5.385   5.580 -0.8435 -0.4374  1.4112
 9309TIP3    H249419   6.715   5.301   5.693  0.3793 -2.2634 -0.4832
 9310TIP3   OH249420   3.421   2.857  11.249  0.2157 -0.1247  0.1612
 9310TIP3    H149421   3.361   2.902  11.309  1.1406 -0.7146  1.5637
 9310TIP3    H249422   3.366   2.794  11.203 -0.3978 -0.0756  0.8096
 9311TIP3   OH249423   2.857   3.286   6.268  0.3049 -0.1076 -0.1574
 9311TIP3    H149424   2.941   3.258   6.305  0.2824 -0.2307 -0.1957
 9311TIP3    H249425   2.874   3.372   6.230  0.0958  0.4685  0.9962
 9312TIP3   OH249426   6.765   5.037   4.285 -0.1170  0.0968 -0.1095
 9312TIP3    H149427   6.694   5.013   4.345 -1.1428  2.2101 -0.3892
 9312TIP3    H249428   6.721   5.050   4.201  0.8566  0.0247 -0.6375
 9313TIP3   OH249429   6.631   3.458  14.596 -0.2366 -0.4498  0.5043
 9313TIP3    H149430   6.548   3.411  14.605  0.1498 -1.5990 -1.3811
 9313TIP3    H249431   6.606   3.543  14.559 -0.5995 -0.6199  0.3503
 9314TIP3   OH249432   1.435   2.660   1.532 -0.0264 -0.4331 -0.4707
 9314TIP3    H149433   1.458   2.746   1.498 -0.7143  0.3664  0.9986
 9314TIP3    H249434   1.519   2.615   1.541  0.3157 -0.0319 -1.4927
 9315TIP3   OH249435   5.079   4.109   2.765 -0.6331 -0.3887 -0.2868
 9315TIP3    H149436   5.076   4.081   2.856 -1.6393  1.5874  0.3385
 9315TIP3    H249437   5.086   4.027   2.715 -0.6955 -1.5467  1.5043
 9316TIP3   OH249438   6.248   2.951   0.676  0.2867 -0.1661  0.5279
 9316TIP3    H149439   6.273   2.929   0.587  0.5196 -1.2990  0.8605
 9316TIP3    H249440   6.290   3.035   0.694  0.1416  0.1203 -0.4608
 9317TIP3   OH249441   1.672   5.118   2.388  0.2781 -0.1334  0.0075
 9317TIP3    H149442   1.671   5.088   2.297  0.2606 -1.7643  0.5216
 9317TIP3    H249443   1.718   5.049   2.436 -2.1343 -0.6938  1.6829
 9318TIP3   OH249444   6.159   2.645   0.816  0.2244 -0.1128  0.1310
 9318TIP3    H149445   6.209   2.678   0.891 -0.6243 -0.0834  0.7002
 9318TIP3    H249446   6.152   2.551   0.831  1.0027 -0.2772 -0.4963
 9319TIP3   OH249447   4.331   5.083  11.952 -0.8900  0.0503  0.5249
 9319TIP3    H149448   4.331   5.031  11.872  2.2643  0.8969 -0.1835
 9319TIP3    H249449   4.289   5.027  12.017 -2.2276 -1.2420 -1.3611
 9320TIP3   OH249450   4.492   2.080  14.920 -0.0384  0.1040 -0.1927
 9320TIP3    H149451   4.408   2.039  14.899 -0.2023  0.4078 -0.1415
 9320TIP3    H249452   4.517   2.126  14.840  1.3622 -2.0861 -1.1044
 9321TIP3   OH249453   4.901   4.580   5.500  0.3978  0.0903 -0.2661
 9321TIP3    H149454   4.849   4.539   5.569  2.5681 -3.0694 -0.3367
 9321TIP3    H249455   4.845   4.577   5.422  0.1348 -2.0724 -0.0530
 9322TIP3   OH249456   1.940   4.351   0.872 -0.6496  0.4634 -0.0284
 9322TIP3    H149457   1.958   4.271   0.823 -4.0644  0.2394 -1.1599
 9322TIP3    H249458   1.971   4.422   0.816 -0.1034  0.0435 -0.2660
 9323TIP3   OH249459   1.816   4.324   6.331  0.5568 -0.6417  0.5283
 9323TIP3    H149460   1.773   4.282   6.405 -0.7488  0.7453  0.6244
 9323TIP3    H249461   1.909   4.322   6.352  0.2500 -0.7110  1.9772
 9324TIP3   OH249462   0.189   3.272   2.319 -0.0799  0.4248 -0.6232
 9324TIP3    H149463   0.161   3.281   2.228  0.4847  2.2775 -0.6560
 9324TIP3    H249464   0.274   3.317   2.322  0.6640 -0.9944  0.4864
 9325TIP3   OH249465   5.082   5.551   5.450  0.7713  0.4470  0.0696
 9325TIP3    H149466   5.027   5.628   5.465 -0.7074 -0.3550 -0.9901
 9325TIP3    H249467   5.061   5.493   5.523 -2.1053 -1.0668 -1.7759
 9326TIP3   OH249468   1.597   2.622  11.125 -0.0273  0.1392 -0.2584
 9326TIP3    H149469   1.544   2.639  11.048 -0.5274  0.5885  0.1728
 9326TIP3    H249470   1.629   2.708  11.152 -2.5310  0.5295  1.9136
 9327TIP3   OH249471   2.428   3.302  11.208  0.0023 -0.8922 -0.4949
 9327TIP3    H149472   2.440   3.236  11.140  0.8911  0.8959 -2.1731
 9327TIP3    H249473   2.349   3.349  11.182 -0.4333 -1.0535  0.4956
 9328TIP3   OH249474   0.368   4.792   4.705  0.0767  0.0460  0.0394
 9328TIP3    H149475   0.291   4.740   4.724 -1.5317  1.4208 -2.2310
 9328TIP3    H249476   0.338   4.883   4.709  1.4635  0.6107 -1.1886
 9329TIP3   OH249477   5.851   3.188   2.349 -0.2072  0.6427  0.5696
 9329TIP3    H149478   5.824   3.237   2.427  1.1876  0.7562  0.9981
 9329TIP3    H249479   5.932   3.144   2.374 -1.4647 -2.0824  0.2736
 9330TIP3   OH249480   3.816   6.126  11.915 -0.3639 -0.4425  0.0738
 9330TIP3    H149481   3.888   6.080  11.871 -0.9003 -1.5230  0.3050
 9330TIP3    H249482   3.857   6.205  11.951  0.5724 -0.7227 -0.3497
 9331TIP3   OH249483   3.857   5.715  10.966 -0.3821 -0.0890 -0.2604
 9331TIP3    H149484   3.818   5.666  10.893 -0.8951  1.2089 -0.8923
 9331TIP3    H249485   3.784   5.730  11.026 -0.3861  0.4603 -0.3951
 9332TIP3   OH249486   6.348   3.902  13.259  0.0960  0.1739  0.0030
 9332TIP3    H149487   6.379   3.919  13.169  0.2517  0.0083  0.0239
 9332TIP3    H249488   6.361   3.808  13.271  1.0573  0.3694  0.5660
 9333TIP3   OH249489   3.049   4.857  12.540  0.1619 -0.2809 -0.1933
 9333TIP3    H149490   3.111   4.928  12.559  0.4727 -0.3466 -0.9162
 9333TIP3    H249491   3.064   4.838  12.448  1.3781 -2.5496  0.4124
 9334TIP3   OH249492   3.552   0.394  16.937 -0.2420  0.0339  0.0776
 9334TIP3    H149493   3.605   0.445  16.997  2.2688 -0.3096 -1.6676
 9334TIP3    H249494   3.505   0.459  16.885  1.7660  0.6546 -1.1114
 9335TIP3   OH249495   1.219   5.629   3.316 -0.1587 -0.4301  0.7520
 9335TIP3    H149496   1.265   5.713   3.309 -1.9090  0.8175  2.9771
 9335TIP3    H249497   1.288   5.567   3.339  0.9130  0.7593  0.9008
 9336TIP3   OH249498   1.472   5.380   4.559 -0.2116  0.4081  0.0522
 9336TIP3    H149499   1.484   5.437   4.635 -0.6467  0.4891  0.0590
 9336TIP3    H249500   1.490   5.292   4.592 -1.5299  0.3042  0.5276
 9337TIP3   OH249501   5.501   5.371  17.006  0.1925  0.0006 -0.9794
 9337TIP3    H149502   5.492   5.277  16.992 -0.2737  0.0831 -1.2251
 9337TIP3    H249503   5.429   5.394  17.064  0.5834  0.1250 -0.5341
 9338TIP3   OH249504   0.048   4.174  13.861  0.2044 -0.1965 -0.2372
 9338TIP3    H149505  -0.031   4.123  13.839  0.7991 -1.0504 -0.4661
 9338TIP3    H249506   0.059   4.163  13.955  0.2235 -0.3413 -0.2556
 9339TIP3   OH249507   2.586   4.596   0.615  0.0597 -0.3479  0.2834
 9339TIP3    H149508   2.672   4.601   0.656 -0.8979  1.5134  2.3119
 9339TIP3    H249509   2.539   4.530   0.666  0.8197 -2.9190 -2.1270
 9340TIP3   OH249510   4.174   1.432   1.953 -0.6423 -0.1537  0.1220
 9340TIP3    H149511   4.259   1.467   1.978 -1.2778  1.5501  0.1162
 9340TIP3    H249512   4.118   1.450   2.029 -1.5171  0.9368 -0.7269
 9341TIP3   OH249513   5.354   6.450  13.041  0.2530 -0.1633 -0.0252
 9341TIP3    H149514   5.264   6.420  13.052  0.4303 -0.7099 -0.0202
 9341TIP3    H249515   5.350   6.510  12.967 -0.0546 -0.4681 -0.2607
 9342TIP3   OH249516   3.322   0.566  16.172 -0.2882  0.3606  0.2147
 9342TIP3    H149517   3.387   0.590  16.238  0.9652 -0.4632 -0.6758
 9342TIP3    H249518   3.268   0.500  16.215  0.8478 -0.5570  0.2859
 9343TIP3   OH249519   0.702   6.331   5.878  0.0999 -0.2377  0.3951
 9343TIP3    H149520   0.663   6.356   5.961  0.9173  0.1096  0.6873
 9343TIP3    H249521   0.797   6.330   5.895  0.2230 -1.3629 -0.1983
 9344TIP3   OH249522   2.073   4.297   3.793  0.4958 -0.2240 -0.0235
 9344TIP3    H149523   2.078   4.392   3.796  1.6921 -0.2750 -0.0475
 9344TIP3    H249524   2.160   4.268   3.767  0.8108 -1.4068  2.0401
 9345TIP3   OH249525   1.179   0.597  12.845 -0.1704 -0.5166  0.5919
 9345TIP3    H149526   1.117   0.580  12.774 -1.2892  1.8491  0.9185
 9345TIP3    H249527   1.237   0.664  12.811 -0.5775  0.4882  1.7835
 9346TIP3   OH249528   5.948   3.717  16.057 -0.0486  0.1075  0.3742
 9346TIP3    H149529   5.975   3.629  16.031 -1.5752 -0.4363  0.5711
 9346TIP3    H249530   5.874   3.738  16.000 -1.4918  0.1196  2.1685
 9347TIP3   OH249531   1.586   6.799  13.700 -0.5283  0.2894  0.4421
 9347TIP3    H149532   1.521   6.870  13.696  0.3165  1.0351 -0.8149
 9347TIP3    H249533   1.580   6.756  13.615  0.0096 -0.1986  0.6422
 9348TIP3   OH249534   6.725   1.631  16.822  0.5540  0.0607 -0.2121
 9348TIP3    H149535   6.711   1.686  16.745 -1.0412 -0.5909 -0.4209
 9348TIP3    H249536   6.761   1.549  16.787  0.6770  0.0892 -0.1549
 9349TIP3   OH249537   6.489   1.205  12.281 -0.2864 -0.7037 -0.0082
 9349TIP3    H149538   6.476   1.298  12.262 -1.8885 -0.4776  1.9328
 9349TIP3    H249539   6.584   1.193  12.276 -0.0038  1.1186  0.1036
 9350TIP3   OH249540   2.352   4.436  13.908  0.0629  0.0885 -0.9405
 9350TIP3    H149541   2.331   4.528  13.925 -0.2224 -0.3462  1.6110
 9350TIP3    H249542   2.270   4.389  13.926  0.8835 -0.8622  0.6023
 9351TIP3   OH249543   3.492   5.479  10.667  0.3606 -0.5140  0.7249
 9351TIP3    H149544   3.432   5.406  10.653 -1.6868  1.2507 -0.3240
 9351TIP3    H249545   3.579   5.438  10.673 -0.7632 -3.0615  1.0469
 9352TIP3   OH249546   2.821   5.494  12.705  0.4925  0.0888 -0.0208
 9352TIP3    H149547   2.840   5.428  12.772 -0.0407 -0.3224 -0.2622
 9352TIP3    H249548   2.841   5.450  12.622 -0.1751  0.1165 -0.2009
 9353TIP3   OH249549   4.090   1.573   5.186 -1.0508 -0.1586 -0.2860
 9353TIP3    H149550   4.024   1.556   5.119 -0.9127  1.7516 -0.9761
 9353TIP3    H249551   4.040   1.600   5.263 -1.1187  0.8691 -0.6756
 9354TIP3   OH249552   3.667   2.356   3.473 -0.2723 -0.0909 -0.3414
 9354TIP3    H149553   3.719   2.321   3.546  0.1747 -1.0238 -1.0850
 9354TIP3    H249554   3.576   2.345   3.501 -0.1154 -0.9670 -0.1617
 9355TIP3   OH249555   6.102   1.911   3.789  0.3167  0.1523 -0.4530
 9355TIP3    H149556   6.135   1.827   3.822  0.6241  0.8100  1.0040
 9355TIP3    H249557   6.032   1.887   3.728 -1.9929 -1.1828  2.4733
 9356TIP3   OH249558   4.107   0.775   2.421  0.5007 -0.8838 -0.4312
 9356TIP3    H149559   4.097   0.854   2.475 -0.9999 -0.1855 -1.6390
 9356TIP3    H249560   4.026   0.727   2.436 -0.0376 -0.5808 -2.1600
 9357TIP3   OH249561   5.147   1.272  16.528 -0.0015 -0.6812 -0.0353
 9357TIP3    H149562   5.136   1.345  16.589  0.5772 -0.1300 -0.5750
 9357TIP3    H249563   5.241   1.252  16.531 -0.3714 -2.4932  1.3209
 9358TIP3   OH249564   0.093   0.254  10.612 -0.0705  0.0478 -0.1097
 9358TIP3    H149565   0.063   0.170  10.578  0.1137 -0.6767  1.4423
 9358TIP3    H249566   0.014   0.309  10.614 -0.5665 -0.6712  0.5518
 9359TIP3   OH249567   2.454   1.511   0.110 -0.1078  0.9603 -0.4932
 9359TIP3    H149568   2.414   1.483   0.027  0.7162  0.2143 -0.6559
 9359TIP3    H249569   2.453   1.607   0.106  1.0812  0.9609 -1.9745
 9360TIP3   OH249570   2.903   2.327   5.022 -0.6627 -0.4478  0.0427
 9360TIP3    H149571   2.864   2.288   4.944 -0.3917  1.6269 -1.2164
 9360TIP3    H249572   2.993   2.296   5.023 -0.6248 -0.3565 -0.5652
 9361TIP3   OH249573   4.700   0.804   0.393  0.4367 -0.0904  0.2222
 9361TIP3    H149574   4.700   0.889   0.437 -0.8478  0.2399 -0.3832
 9361TIP3    H249575   4.641   0.750   0.446  1.5889 -0.7688  0.8610
 9362TIP3   OH249576   1.408   2.715  15.355 -0.0446 -0.4948 -0.4955
 9362TIP3    H149577   1.315   2.709  15.376 -0.2941  2.3413 -0.3908
 9362TIP3    H249578   1.422   2.807  15.334  2.8539 -0.7250 -0.0223
 9363TIP3   OH249579   6.393   3.706   2.355 -0.2127 -0.1584 -0.4389
 9363TIP3    H149580   6.382   3.794   2.393  1.8597 -1.3479  3.4536
 9363TIP3    H249581   6.487   3.696   2.345 -0.4025 -1.9972 -0.7261
 9364TIP3   OH249582   5.640   5.074  14.400  0.0635  0.3923  0.4865
 9364TIP3    H149583   5.570   5.019  14.365 -1.6321  1.2114  2.3624
 9364TIP3    H249584   5.655   5.140  14.332 -2.2846  1.2456  0.7101
 9365TIP3   OH249585   4.627   5.067  12.033  0.2997  0.1984  0.0878
 9365TIP3    H149586   4.673   5.135  11.983  0.0768  0.7105  0.5755
 9365TIP3    H249587   4.546   5.053  11.984  0.1674  0.5633  0.1994
 9366TIP3   OH249588   6.779   5.220  14.039  0.6129  0.2427 -0.3017
 9366TIP3    H149589   6.836   5.158  13.994  1.3926  0.1011  0.8359
 9366TIP3    H249590   6.694   5.209  13.997  0.9651 -0.9187 -0.7504
 9367TIP3   OH249591   2.985   0.481   3.684  0.6934 -0.2719 -0.2798
 9367TIP3    H149592   2.962   0.496   3.775 -0.7165 -1.3437 -0.4205
 9367TIP3    H249593   2.979   0.567   3.643  2.0233  0.3439  0.7449
 9368TIP3   OH249594   5.057   0.851  16.551  0.0137  0.5248 -0.3798
 9368TIP3    H149595   5.097   0.866  16.637 -3.2731 -1.6274  1.7372
 9368TIP3    H249596   4.993   0.921  16.542 -1.1087 -0.4095  0.0051
 9369TIP3   OH249597   5.943   5.274   5.070  0.0555  0.5083  0.1130
 9369TIP3    H149598   5.901   5.196   5.108  1.1101  0.5392  1.4070
 9369TIP3    H249599   5.870   5.334   5.055 -0.4238  0.6162  2.4238
 9370TIP3   OH249600   4.532   5.288   0.239  0.5694  0.0673  0.4679
 9370TIP3    H149601   4.554   5.228   0.310  1.1009 -1.8900 -1.2250
 9370TIP3    H249602   4.437   5.283   0.232  0.4720  0.6491  1.3419
 9371TIP3   OH249603   5.516   6.269   3.409  0.3039  0.2388 -0.7197
 9371TIP3    H149604   5.566   6.332   3.462 -1.4765  0.2489  1.0826
 9371TIP3    H249605   5.449   6.322   3.366  0.3706 -0.0843 -1.2272
 9372TIP3   OH249606   3.885   0.595  16.837  0.3538  0.2847  0.1852
 9372TIP3    H149607   3.972   0.583  16.797  0.9057  0.2616  1.3367
 9372TIP3    H249608   3.825   0.548  16.778  1.2621 -0.5585 -0.1090
 9373TIP3   OH249609   2.886   3.146   4.073  0.0030 -0.1714 -0.1349
 9373TIP3    H149610   2.817   3.211   4.059 -1.6876 -1.3647  1.9495
 9373TIP3    H249611   2.842   3.062   4.060  0.9172 -0.9825  1.6862
 9374TIP3   OH249612   4.476   4.847  16.755 -0.1090 -0.2103  0.3658
 9374TIP3    H149613   4.422   4.878  16.828 -1.2489 -1.1180 -0.0676
 9374TIP3    H249614   4.445   4.898  16.680  0.6646  0.3062  0.3829
 9375TIP3   OH249615   0.916   5.373  12.426  0.3127 -0.1742 -0.2173
 9375TIP3    H149616   0.872   5.455  12.448 -0.8886 -0.7981 -0.2417
 9375TIP3    H249617   1.008   5.397  12.418 -0.1076  1.3115 -0.8881
 9376TIP3   OH249618   6.488   6.127   1.053 -0.1760 -0.1634  0.2147
 9376TIP3    H149619   6.550   6.176   1.107 -0.2496 -1.7367  1.8247
 9376TIP3    H249620   6.541   6.061   1.009 -0.4368 -0.3138  0.1215
 9377TIP3   OH249621   2.310   3.927   5.900 -0.1285 -0.3335  0.3418
 9377TIP3    H149622   2.340   4.018   5.910 -1.4889  0.2074 -0.1916
 9377TIP3    H249623   2.314   3.891   5.988  0.4282  0.2343  0.5630
 9378TIP3   OH249624   6.500   4.873   3.592 -0.6114 -0.1008  0.7251
 9378TIP3    H149625   6.501   4.852   3.498 -0.7547  1.2998  0.3846
 9378TIP3    H249626   6.416   4.841   3.623 -0.8794  0.0828  0.2009
 9379TIP3   OH249627   4.184   3.039  14.874  1.2699 -0.5420  0.6232
 9379TIP3    H149628   4.211   3.130  14.880 -2.1715  0.5591  2.3668
 9379TIP3    H249629   4.234   2.994  14.942  2.2678  0.2432  0.4241
 9380TIP3   OH249630   5.006   0.635   0.640  0.0032  0.2441 -0.2112
 9380TIP3    H149631   5.096   0.653   0.611  1.2750 -0.9865  2.5632
 9380TIP3    H249632   4.970   0.721   0.662  1.3171  0.5938  0.7024
 9381TIP3   OH249633   2.675   1.401   1.887  0.1102  0.0472  0.2914
 9381TIP3    H149634   2.634   1.394   1.801  0.4210  0.8519  0.0761
 9381TIP3    H249635   2.726   1.482   1.884 -1.3647  1.1184  1.8345
 9382TIP3   OH249636   5.430   3.928  13.081  0.2445  0.5378  0.1346
 9382TIP3    H149637   5.516   3.968  13.070 -0.2611  1.4532 -0.7039
 9382TIP3    H249638   5.368   4.000  13.067 -0.7499 -0.7409 -2.8486
 9383TIP3   OH249639   5.395   2.670   0.312 -0.5822  0.0277  0.0049
 9383TIP3    H149640   5.384   2.642   0.403 -1.6221 -0.4216 -0.2469
 9383TIP3    H249641   5.479   2.717   0.311 -0.9921  0.8546  1.3991
 9384TIP3   OH249642   5.191   6.364  10.780 -1.1326 -0.6213  0.1581
 9384TIP3    H149643   5.205   6.271  10.796 -1.5033 -1.2301 -2.5770
 9384TIP3    H249644   5.123   6.367  10.713 -1.4033  1.6531  0.4490
 9385TIP3   OH249645   5.417   2.965  11.894 -0.2905 -0.3762  0.3499
 9385TIP3    H149646   5.342   2.909  11.873 -1.2530  1.0844 -0.2848
 9385TIP3    H249647   5.484   2.939  11.831 -0.9523 -0.3824 -0.3649
 9386TIP3   OH249648   1.553   3.222   2.144  0.0733 -0.0196 -0.2354
 9386TIP3    H149649   1.471   3.258   2.110 -1.0035 -1.4532  0.6844
 9386TIP3    H249650   1.552   3.130   2.116  2.9921  0.6377 -3.0060
 9387TIP3   OH249651   1.367   4.153   1.129  0.1799  0.9197 -0.1712
 9387TIP3    H149652   1.361   4.159   1.034  1.9272 -1.4635 -0.5042
 9387TIP3    H249653   1.322   4.071   1.151  0.1634  1.2240  1.0272
 9388TIP3   OH249654   5.009   1.877   5.773 -0.3797 -0.3093  0.3050
 9388TIP3    H149655   5.054   1.912   5.696  2.4313  0.0174  1.9798
 9388TIP3    H249656   4.959   1.951   5.807  0.7145  0.3959  0.4303
 9389TIP3   OH249657   4.317   4.245   4.862 -0.5746  0.2885  0.3650
 9389TIP3    H149658   4.304   4.339   4.846  1.0591  0.5137  0.2053
 9389TIP3    H249659   4.342   4.210   4.777 -3.4002 -0.7876 -0.1379
 9390TIP3   OH249660   5.242   1.033   3.384  0.2560  0.1773 -0.1386
 9390TIP3    H149661   5.316   1.048   3.326  1.9213  1.1333  2.0647
 9390TIP3    H249662   5.279   0.986   3.459 -1.4384  0.3574  0.8717
 9391TIP3   OH249663   1.125   1.029   6.163 -0.7322  0.2080  0.2188
 9391TIP3    H149664   1.107   0.952   6.216 -0.7957  0.6558  0.8520
 9391TIP3    H249665   1.093   1.103   6.215  1.0498  0.8498  0.4664
 9392TIP3   OH249666   2.720   2.882   0.301  0.0165  0.9225  0.4609
 9392TIP3    H149667   2.734   2.967   0.260 -0.4248  1.7672  2.0083
 9392TIP3    H249668   2.795   2.871   0.360 -0.6347  0.8718  1.2862
 9393TIP3   OH249669   4.220   1.762  11.285 -0.1322 -0.2260  0.0614
 9393TIP3    H149670   4.145   1.784  11.229  0.4121  1.7087  0.0470
 9393TIP3    H249671   4.282   1.833  11.270  0.3594 -0.0726  2.5381
 9394TIP3   OH249672   0.800   1.699   4.131 -0.0395  0.2432  0.4140
 9394TIP3    H149673   0.728   1.722   4.189  0.3920 -0.8394  1.4188
 9394TIP3    H249674   0.880   1.717   4.181  0.5611  3.5365 -1.4534
 9395TIP3   OH249675   5.450   3.541   0.650  0.0758 -0.1551  0.0563
 9395TIP3    H149676   5.416   3.578   0.731 -0.7977  0.5020 -0.5882
 9395TIP3    H249677   5.474   3.617   0.597 -0.4197 -0.5327 -0.7398
 9396TIP3   OH249678   3.937   1.572   5.871 -0.2150  0.1255  0.0184
 9396TIP3    H149679   3.905   1.635   5.935 -3.4100  0.1446 -1.4327
 9396TIP3    H249680   3.978   1.627   5.803 -1.4147  0.5277 -0.3969
 9397TIP3   OH249681   5.235   2.618   1.238 -0.4219 -0.1751  0.3338
 9397TIP3    H149682   5.316   2.576   1.208 -0.9656 -1.3546  0.4565
 9397TIP3    H249683   5.233   2.702   1.193 -0.1799 -1.0228 -1.3145
 9398TIP3   OH249684   1.555   5.033   1.162 -0.3086  0.4642 -0.2662
 9398TIP3    H149685   1.570   4.942   1.186  0.5688  0.9061  0.9325
 9398TIP3    H249686   1.631   5.057   1.109 -1.0303  0.2286 -1.4499
 9399TIP3   OH249687   4.054   5.913  15.495  0.4424  0.1194 -0.0432
 9399TIP3    H149688   4.082   5.825  15.522  0.7018  0.2838  0.2325
 9399TIP3    H249689   3.985   5.897  15.431  1.1623 -0.2890 -0.7306
 9400TIP3   OH249690   4.574   0.064   1.556  0.0954 -0.0536 -0.3704
 9400TIP3    H149691   4.546  -0.002   1.492  0.8158  0.3094 -1.0831
 9400TIP3    H249692   4.509   0.133   1.548  0.6158  0.3445 -1.3025
 9401TIP3   OH249693   2.670   1.761   2.257 -0.1437  0.0078  0.5434
 9401TIP3    H149694   2.748   1.793   2.303 -0.0608 -1.7590  1.6959
 9401TIP3    H249695   2.698   1.756   2.165  0.6213  0.7718  0.7155
 9402TIP3   OH249696   0.780   2.572  16.442 -0.3767  0.0700  0.0365
 9402TIP3    H149697   0.729   2.625  16.381 -2.0802 -1.9868 -0.4470
 9402TIP3    H249698   0.816   2.636  16.504 -2.3442  1.7859 -0.4530
 9403TIP3   OH249699   0.416   2.412  15.931  0.3043 -0.3810 -0.4376
 9403TIP3    H149700   0.329   2.444  15.951 -0.3156 -1.7979 -0.7238
 9403TIP3    H249701   0.471   2.490  15.926 -0.7765  0.4575  0.5526
 9404TIP3   OH249702   0.189   4.605   5.594  0.1532 -0.8877 -0.0325
 9404TIP3    H149703   0.203   4.645   5.679 -0.9071 -0.3159 -0.1091
 9404TIP3    H249704   0.273   4.614   5.549  0.0342  1.0355  0.0472
 9405TIP3   OH249705   4.507   4.009  11.354  0.0698 -0.6207 -0.4800
 9405TIP3    H149706   4.483   4.060  11.277  0.4030 -1.6620 -1.2866
 9405TIP3    H249707   4.560   3.938  11.321  0.7849 -0.7142  0.8019
 9406TIP3   OH249708   3.601   1.126  13.516 -0.2420  0.6352  0.1995
 9406TIP3    H149709   3.544   1.150  13.589 -0.0728  0.6874  0.3154
 9406TIP3    H249710   3.686   1.110  13.557 -0.0952  0.8634 -0.0099
 9407TIP3   OH249711   3.245   5.603  15.077 -0.4560 -0.5791  0.1493
 9407TIP3    H149712   3.288   5.520  15.100 -0.3510 -0.0425  2.0801
 9407TIP3    H249713   3.209   5.588  14.990  1.0642 -2.0638 -0.2834
 9408TIP3   OH249714   0.866   2.664   3.981  0.2930 -0.3509  0.3319
 9408TIP3    H149715   0.895   2.721   3.909 -0.0610 -0.9552 -0.2918
 9408TIP3    H249716   0.929   2.592   3.982 -0.8037 -1.3634 -0.6458
 9409TIP3   OH249717   4.746   1.116   2.946  0.3512 -0.3951 -0.0534
 9409TIP3    H149718   4.792   1.031   2.941  0.9495 -0.1208  0.6079
 9409TIP3    H249719   4.704   1.125   2.860  0.7551 -1.0980 -0.3377
 9410TIP3   OH249720   5.720   0.201  12.726 -0.2026 -0.1790 -0.2043
 9410TIP3    H149721   5.628   0.181  12.744 -0.2838 -0.1953 -0.6384
 9410TIP3    H249722   5.740   0.152  12.647 -0.0473  0.4764 -0.5738
 9411TIP3   OH249723   4.906   0.613   3.435  0.3875 -0.0794 -0.0063
 9411TIP3    H149724   4.973   0.670   3.397  0.8660  1.3921  2.7500
 9411TIP3    H249725   4.955   0.535   3.462  0.5669  0.0406  0.0207
 9412TIP3   OH249726   0.874   1.642  14.661 -0.1249 -0.3418 -0.1235
 9412TIP3    H149727   0.964   1.664  14.687  0.0306 -0.5747 -0.4579
 9412TIP3    H249728   0.838   1.596  14.737  0.0107 -0.1728  0.0437
 9413TIP3   OH249729   6.145   6.519   1.176  0.4952 -0.2782  0.0272
 9413TIP3    H149730   6.103   6.564   1.103 -2.6474 -0.8234  1.3269
 9413TIP3    H249731   6.177   6.437   1.139  0.3638  0.1393 -1.0477
 9414TIP3   OH249732   4.152   0.322   3.947 -0.7173  0.9537  0.0054
 9414TIP3    H149733   4.233   0.347   3.990  0.6431  1.0028 -2.4060
 9414TIP3    H249734   4.099   0.402   3.948 -0.1707  1.3197  0.3668
 9415TIP3   OH249735   4.728   6.033  11.586 -0.1594  0.3736 -0.1573
 9415TIP3    H149736   4.693   6.081  11.511 -0.1244 -0.6677 -0.8722
 9415TIP3    H249737   4.771   5.957  11.547 -0.4768 -0.4024  0.9483
 9416TIP3   OH249738   2.313   5.655   6.236 -0.5731  0.2971  0.4561
 9416TIP3    H149739   2.385   5.682   6.293 -0.1118  0.5081 -0.2198
 9416TIP3    H249740   2.310   5.559   6.245 -1.4156  0.4252  1.8998
 9417TIP3   OH249741   3.008   1.683   0.061  0.3532  0.1209 -0.3637
 9417TIP3    H149742   2.937   1.707   0.121  1.3654 -0.8854  1.3265
 9417TIP3    H249743   2.964   1.654  -0.019 -1.2966 -2.1272  1.2330
 9418TIP3   OH249744   4.256   5.488  16.024  0.2495  0.1084 -0.3429
 9418TIP3    H149745   4.202   5.543  16.080  1.0124  0.3053  0.2063
 9418TIP3    H249746   4.345   5.519  16.037  0.5763 -0.6074 -0.7796
 9419TIP3   OH249747   2.566   5.546   4.250 -0.7996  0.1366  0.5713
 9419TIP3    H149748   2.502   5.563   4.181  0.5125  1.1018 -0.4604
 9419TIP3    H249749   2.602   5.632   4.271  2.0042 -0.5824 -0.7598
 9420TIP3   OH249750   1.269   1.301   2.998  0.4008 -0.0947 -0.0712
 9420TIP3    H149751   1.358   1.325   2.974  0.1025  1.5017  0.3322
 9420TIP3    H249752   1.232   1.380   3.037 -1.3294 -0.5970 -0.5885
 9421TIP3   OH249753   3.836   2.644  15.258  0.0501  0.9660 -0.5925
 9421TIP3    H149754   3.769   2.652  15.190 -0.1826  0.1341 -0.4744
 9421TIP3    H249755   3.872   2.732  15.267 -0.5307  1.2701 -1.1671
 9422TIP3   OH249756   6.589   4.550   6.049  0.2018  0.0547  0.7128
 9422TIP3    H149757   6.559   4.563   5.959 -0.2057 -1.9379  0.5336
 9422TIP3    H249758   6.681   4.576   6.047  0.2943 -0.3066 -0.3617
 9423TIP3   OH249759   6.635   4.335   3.198 -0.7516  0.0656  0.3714
 9423TIP3    H149760   6.609   4.344   3.106 -0.1108  0.1235  0.1909
 9423TIP3    H249761   6.565   4.283   3.238 -0.9804 -0.0530 -0.1740
 9424TIP3   OH249762   2.499   6.539   3.301 -0.2338  0.7758 -0.1265
 9424TIP3    H149763   2.590   6.513   3.288 -0.2152  0.9793 -0.4055
 9424TIP3    H249764   2.476   6.585   3.221 -0.9646 -0.3301 -0.5726
 9425TIP3   OH249765   0.937   5.066   3.081  0.6892  0.1932  0.1731
 9425TIP3    H149766   0.885   5.144   3.061  1.0689  0.1608 -1.0014
 9425TIP3    H249767   1.023   5.101   3.103  0.8969  0.1141 -0.4844
 9426TIP3   OH249768   4.967   2.432  13.620 -0.5008  0.1283 -0.3442
 9426TIP3    H149769   4.888   2.379  13.611  0.0696 -0.7967 -0.0574
 9426TIP3    H249770   4.987   2.461  13.532  0.1132 -1.5535 -0.8076
 9427TIP3   OH249771   5.390   5.090   3.922  0.1636 -0.3989  0.0854
 9427TIP3    H149772   5.449   5.088   3.847  2.4222 -0.8486  1.7706
 9427TIP3    H249773   5.307   5.057   3.888  1.2017 -0.9208 -2.1171
 9428TIP3   OH249774   1.063   5.227   5.411 -0.6413 -0.3403 -0.3509
 9428TIP3    H149775   1.095   5.146   5.370 -0.6358 -1.1448  1.1880
 9428TIP3    H249776   1.140   5.267   5.449 -0.8587 -0.2993  0.0456
 9429TIP3   OH249777   3.890   4.109   3.174  0.4629  0.1586  0.5495
 9429TIP3    H149778   3.957   4.047   3.144  0.0634  0.3025 -0.6810
 9429TIP3    H249779   3.851   4.142   3.094  0.8138  2.1753  1.1579
 9430TIP3   OH249780   0.073   5.507   0.381 -0.1355 -0.1340 -0.1872
 9430TIP3    H149781   0.084   5.600   0.403  1.3363 -0.1414 -0.8268
 9430TIP3    H249782  -0.018   5.488   0.405 -0.6010  1.5886 -0.4501
 9431TIP3   OH249783   5.668   3.873  14.389  0.0995  0.2933 -0.1520
 9431TIP3    H149784   5.641   3.959  14.357  1.1031  0.4609 -0.6005
 9431TIP3    H249785   5.759   3.865  14.360 -0.6249 -1.8487 -2.0886
 9432TIP3   OH249786   6.054   4.577   4.607  1.0004  0.1397  0.3854
 9432TIP3    H149787   6.030   4.530   4.687 -1.4443 -0.9046 -0.8763
 9432TIP3    H249788   6.042   4.669   4.629  1.6467 -0.0289  1.5739
 9433TIP3   OH249789   2.394   6.219  12.680 -0.4390 -0.5536  0.0757
 9433TIP3    H149790   2.337   6.287  12.715  0.0848  0.3641 -0.8105
 9433TIP3    H249791   2.465   6.212  12.744  0.5181  1.1128 -0.7398
 9434TIP3   OH249792   3.233   1.739   2.486 -0.3048  0.7377 -0.0420
 9434TIP3    H149793   3.288   1.759   2.562 -0.7103 -2.0150  1.0827
 9434TIP3    H249794   3.144   1.761   2.514 -0.4955 -0.5730  0.4626
 9435TIP3   OH249795   5.073   3.953  15.592  0.1129  0.1656  0.1785
 9435TIP3    H149796   5.155   3.977  15.633 -0.0595  0.2615  0.4691
 9435TIP3    H249797   5.009   4.016  15.626 -0.1398 -0.0898  0.1851
 9436TIP3   OH249798   0.403   2.549  12.589 -0.0866 -0.2556 -0.8426
 9436TIP3    H149799   0.398   2.531  12.495 -0.4020 -2.1704 -0.4974
 9436TIP3    H249800   0.313   2.539  12.620  0.1892 -0.6954 -0.1710
 9437TIP3   OH249801   3.594   1.796  13.890 -0.0394 -0.3897  0.6715
 9437TIP3    H149802   3.524   1.743  13.929 -0.2739 -0.2542  0.4419
 9437TIP3    H249803   3.673   1.770  13.937 -0.1341 -1.0102  0.4962
 9438TIP3   OH249804   2.060   3.304   0.102  0.2793 -0.3046 -0.1214
 9438TIP3    H149805   2.025   3.216   0.119 -1.8137  0.2193 -1.4325
 9438TIP3    H249806   1.994   3.364   0.137  1.6517  0.7855  0.6988
 9439TIP3   OH249807   4.969   1.448  16.005 -0.0756 -0.8829 -0.0130
 9439TIP3    H149808   4.973   1.472  16.098  0.3931 -1.4785  0.1264
 9439TIP3    H249809   4.876   1.445  15.985 -0.1671  0.9897 -0.0289
 9440TIP3   OH249810   4.107   6.293  16.715  0.3237  0.4479 -0.2592
 9440TIP3    H149811   4.159   6.263  16.789  1.8386  1.1663 -0.9831
 9440TIP3    H249812   4.159   6.364  16.676  2.0475 -2.7463 -4.7083
 9441TIP3   OH249813   5.411   5.151   4.215 -0.6093 -0.1592  0.0686
 9441TIP3    H149814   5.407   5.105   4.131 -1.7322 -0.6734  0.3715
 9441TIP3    H249815   5.344   5.107   4.269 -1.0973  1.2518  0.6613
 9442TIP3   OH249816   6.428   4.903   5.133  0.3080 -0.3064 -0.3780
 9442TIP3    H149817   6.358   4.839   5.124  0.5609 -0.8392  1.0712
 9442TIP3    H249818   6.482   4.869   5.204  0.0282  1.9011  0.9863
 9443TIP3   OH249819   2.484   5.991  10.964 -0.1074 -0.6422 -0.2835
 9443TIP3    H149820   2.515   6.079  10.943 -0.5605 -0.0655  1.3363
 9443TIP3    H249821   2.560   5.935  10.949  0.4955  0.1722 -0.3398
 9444TIP3   OH249822   4.538   4.464   3.862  0.1593  0.2916 -0.1191
 9444TIP3    H149823   4.620   4.481   3.909 -0.2618  1.3273  0.2851
 9444TIP3    H249824   4.516   4.549   3.823 -0.2123 -0.2244 -1.0423
 9445TIP3   OH249825   5.233   3.116   0.859 -0.2303 -0.1845 -0.4435
 9445TIP3    H149826   5.223   3.024   0.884 -0.5518 -0.0568 -0.0893
 9445TIP3    H249827   5.151   3.158   0.885 -0.4474  0.0306 -1.4302
 9446TIP3   OH249828   4.727   2.426  13.938 -0.7569 -0.2464 -0.0638
 9446TIP3    H149829   4.817   2.457  13.948 -1.3819  1.8438 -0.4346
 9446TIP3    H249830   4.724   2.346  13.990  0.3262  1.6406  3.1648
 9447TIP3   OH249831   5.426   4.834   0.453  0.1661 -0.0605  0.4208
 9447TIP3    H149832   5.345   4.883   0.463 -0.1813 -0.4756 -0.3240
 9447TIP3    H249833   5.399   4.750   0.415  0.7467 -0.8380  1.6591
 9448TIP3   OH249834   1.959   5.085  12.070 -0.1634  0.0682  0.2112
 9448TIP3    H149835   1.958   5.032  11.990  1.5313 -1.2205  0.9846
 9448TIP3    H249836   1.886   5.051  12.122  0.2614 -0.7984  0.2546
 9449TIP3   OH249837   2.941   5.103  12.306 -0.0957  0.1097 -0.2218
 9449TIP3    H149838   2.981   5.019  12.283 -2.3371 -1.0811 -0.0917
 9449TIP3    H249839   2.979   5.125  12.391 -1.0971 -1.9690  0.8326
 9450TIP3   OH249840   2.232   1.525   5.210 -0.1364 -0.1175 -0.3608
 9450TIP3    H149841   2.182   1.590   5.159 -0.1084 -0.4277 -0.7859
 9450TIP3    H249842   2.300   1.577   5.253 -0.2622  0.1753 -0.5077
 9451TIP3   OH249843   3.066   4.851  15.479 -0.0281  0.4922 -0.0689
 9451TIP3    H149844   3.025   4.922  15.528  1.6592  1.1762  0.4143
 9451TIP3    H249845   3.138   4.822  15.534 -0.0813 -0.9494 -0.7095
 9452TIP3   OH249846   4.104   5.321  15.863  0.0597  0.0208 -0.1193
 9452TIP3    H149847   4.161   5.383  15.910 -0.5031 -0.5916  1.4307
 9452TIP3    H249848   4.058   5.375  15.799  0.9024  0.8770 -0.0365
 9453TIP3   OH249849   3.432   1.962   1.939  0.2677 -0.2030 -0.4901
 9453TIP3    H149850   3.418   1.930   1.849  0.2945 -1.2579 -0.1294
 9453TIP3    H249851   3.358   1.926   1.988 -2.1268  3.6510 -0.8126
 9454TIP3   OH249852   0.535   6.608   3.983 -0.2324  0.3785  0.1991
 9454TIP3    H149853   0.585   6.539   4.027 -1.5848  0.1612  1.4536
 9454TIP3    H249854   0.498   6.565   3.906 -0.9297 -0.2819  0.8817
 9455TIP3   OH249855   2.322   4.828  16.919  0.3044 -0.1758 -0.1112
 9455TIP3    H149856   2.318   4.898  16.984  1.3008 -0.4833  0.2925
 9455TIP3    H249857   2.285   4.752  16.963  1.6481 -0.5708  0.3580
 9456TIP3   OH249858   4.884   0.391  15.181  0.1477 -0.1152  0.5324
 9456TIP3    H149859   4.856   0.313  15.228 -0.4378  0.4030  1.0566
 9456TIP3    H249860   4.809   0.451  15.187 -0.3724 -0.4134 -1.9413
 9457TIP3   OH249861   2.323   4.934   2.587  0.7335 -0.2115  0.2391
 9457TIP3    H149862   2.371   4.916   2.507  1.9152  0.1660  0.8246
 9457TIP3    H249863   2.239   4.971   2.558  2.7705  4.2413 -0.9430
 9458TIP3   OH249864   4.674   0.448  13.354  0.0010 -0.2443  0.2802
 9458TIP3    H149865   4.601   0.505  13.330  0.1856  0.0487  0.4167
 9458TIP3    H249866   4.634   0.381  13.409  0.1210  0.8982  1.8167
 9459TIP3   OH249867   1.504   0.654  12.914  0.3370 -0.0987 -0.3509
 9459TIP3    H149868   1.478   0.670  13.004 -3.8298 -2.1648 -0.9199
 9459TIP3    H249869   1.493   0.738  12.870 -1.7555  0.0736  0.3679
 9460TIP3   OH249870   5.030   0.238  12.346  0.0045  0.0758  0.8764
 9460TIP3    H149871   5.094   0.227  12.416  1.1864 -1.7527 -0.3962
 9460TIP3    H249872   5.074   0.296  12.283  1.2212 -2.4465 -0.7678
 9461TIP3   OH249873   5.717   5.805  12.682  0.3290 -0.1148  0.3391
 9461TIP3    H149874   5.672   5.847  12.609  2.6541 -0.7322 -1.5922
 9461TIP3    H249875   5.698   5.712  12.673  1.4397 -0.3128 -0.1444
 9462TIP3   OH249876   1.490   5.163   3.734  0.0517  0.0130  0.4346
 9462TIP3    H149877   1.442   5.085   3.765 -0.5329 -0.3376 -1.2508
 9462TIP3    H249878   1.574   5.129   3.703  0.4635  0.3029  1.2042
 9463TIP3   OH249879   3.126   2.892   5.032  0.6470 -0.2313  0.0752
 9463TIP3    H149880   3.033   2.880   5.017  0.7916 -1.8984  0.3050
 9463TIP3    H249881   3.164   2.904   4.945  0.3298 -0.5000 -0.0991
 9464TIP3   OH249882   4.556   5.055   3.797  0.0382 -0.0396  0.6661
 9464TIP3    H149883   4.472   5.065   3.753  0.2959  2.1309  0.5611
 9464TIP3    H249884   4.618   5.035   3.727 -0.5657 -3.5894  0.9337
 9465TIP3   OH249885   0.190   0.417   3.878 -0.0918  0.7879 -0.2146
 9465TIP3    H149886   0.221   0.442   3.791 -2.7726 -1.6386 -2.0382
 9465TIP3    H249887   0.188   0.321   3.876 -2.2117  0.7018  1.7377
 9466TIP3   OH249888   3.395   1.331  10.951 -0.1837  0.3942  0.7059
 9466TIP3    H149889   3.347   1.392  10.895 -0.7153 -0.6764 -0.0311
 9466TIP3    H249890   3.331   1.265  10.975  0.5706 -0.2796  0.8896
 9467TIP3   OH249891   1.309   1.013   5.633  0.1191  0.2500 -0.8119
 9467TIP3    H149892   1.217   0.993   5.651  0.5264  0.1282  1.5029
 9467TIP3    H249893   1.335   1.070   5.705  2.6170 -2.1192  0.3520
 9468TIP3   OH249894   0.140   1.921   6.370  0.2609  0.2218  0.3628
 9468TIP3    H149895   0.215   1.907   6.429 -0.6576  0.9759  1.7720
 9468TIP3    H249896   0.174   1.977   6.301  1.1840 -0.0598  0.5712
 9469TIP3   OH249897   5.724   5.209   4.760  0.3559 -0.3175 -0.4799
 9469TIP3    H149898   5.819   5.223   4.757  0.5585 -1.6579 -1.1196
 9469TIP3    H249899   5.696   5.220   4.669 -0.0912 -0.1103 -0.3212
 9470TIP3   OH249900   3.255   1.391  13.018  0.5228 -0.5902  1.0287
 9470TIP3    H149901   3.168   1.355  13.034  1.3433 -2.2382  2.0811
 9470TIP3    H249902   3.289   1.411  13.106  1.2896 -0.1814  0.6462
 9471TIP3   OH249903   2.436   0.045  17.244  0.2480 -0.0998  0.3400
 9471TIP3    H149904   2.413   0.045  17.152  1.2925  1.1596  0.0350
 9471TIP3    H249905   2.526   0.011  17.247 -0.4461 -2.0194  1.1436
 9472TIP3   OH249906   0.668   0.304   0.530 -0.2301  0.4269 -0.1483
 9472TIP3    H149907   0.686   0.213   0.504 -1.0303  0.5356 -1.1611
 9472TIP3    H249908   0.594   0.298   0.591 -0.3008  0.3955 -0.2366
 9473TIP3   OH249909   0.457   4.426  16.746  0.3677  0.8622 -0.0294
 9473TIP3    H149910   0.527   4.449  16.684 -0.9522 -1.0392 -2.4240
 9473TIP3    H249911   0.378   4.462  16.706 -0.5112 -0.2470  0.6590
 9474TIP3   OH249912   6.101   0.155   3.235  0.2315 -0.8441 -0.4994
 9474TIP3    H149913   6.017   0.117   3.259  0.9200 -1.7122  0.6207
 9474TIP3    H249914   6.154   0.080   3.208  0.5822 -0.2751 -1.4529
 9475TIP3   OH249915   4.280   4.008   3.950  0.2281  0.2228  0.1796
 9475TIP3    H149916   4.246   4.078   3.895 -2.2466 -0.8360  0.2417
 9475TIP3    H249917   4.265   3.928   3.900 -0.5631 -0.6004  1.6490
 9476TIP3   OH249918   1.396   2.245  15.451  0.2680 -0.0717 -0.8747
 9476TIP3    H149919   1.378   2.315  15.387 -1.3241  0.0797 -0.3180
 9476TIP3    H249920   1.311   2.230  15.493  0.8913 -1.4351 -0.0608
 9477TIP3   OH249921   1.317   4.152  14.365  0.3063 -0.0177  0.6081
 9477TIP3    H149922   1.291   4.190  14.281 -0.1942 -1.3671  0.1179
 9477TIP3    H249923   1.410   4.170  14.371  0.0350  1.5263  0.5524
 9478TIP3   OH249924   0.744   3.522   1.181  0.0009  0.6545 -0.0662
 9478TIP3    H149925   0.777   3.432   1.175  1.4646  1.0853  0.9247
 9478TIP3    H249926   0.758   3.559   1.094  1.4056  0.5457  0.0873
 9479TIP3   OH249927   2.040   4.034  12.508 -0.4826 -0.0500  0.7324
 9479TIP3    H149928   2.028   3.942  12.529  1.5035 -0.4364  0.3421
 9479TIP3    H249929   1.959   4.076  12.537 -2.1154 -2.1349 -0.5437
 9480TIP3   OH249930   5.079   2.684   0.312 -0.1126 -0.2025 -0.0275
 9480TIP3    H149931   5.017   2.731   0.257  3.0082  0.2019 -3.5587
 9480TIP3    H249932   5.141   2.751   0.342  0.3949 -1.0229  0.8147
 9481TIP3   OH249933   3.914   4.523  15.620  0.8110 -0.2055  0.2451
 9481TIP3    H149934   3.863   4.602  15.640  1.9892  0.5404  0.4140
 9481TIP3    H249935   3.853   4.467  15.572  0.2877  1.3477 -1.0260
 9482TIP3   OH249936   5.236   1.774   2.770 -0.4374  0.0703 -0.1742
 9482TIP3    H149937   5.185   1.708   2.817 -1.2814 -0.1007 -1.2724
 9482TIP3    H249938   5.292   1.724   2.711  1.8381  0.2061  1.7192
 9483TIP3   OH249939   5.392   0.626   6.255  0.0592 -0.5589 -0.9403
 9483TIP3    H149940   5.354   0.554   6.305  0.0217 -0.3841 -0.7166
 9483TIP3    H249941   5.318   0.682   6.232  0.3614  0.9629  1.3667
 9484TIP3   OH249942   2.936   2.487   5.588  0.5517  0.0989 -0.2710
 9484TIP3    H149943   2.916   2.538   5.509  0.1888 -2.4420 -1.9229
 9484TIP3    H249944   3.031   2.475   5.585  0.3979 -1.0445 -1.0441
 9485TIP3   OH249945   5.646   2.917   2.790  0.3458 -0.2076 -0.3851
 9485TIP3    H149946   5.740   2.911   2.777  0.5111  1.3741 -0.0821
 9485TIP3    H249947   5.608   2.875   2.712  1.3161  0.9124 -1.5054
 9486TIP3   OH249948   2.764   5.675  11.494  0.1951  0.0112  0.2524
 9486TIP3    H149949   2.773   5.744  11.560  3.0759  0.0731 -0.1023
 9486TIP3    H249950   2.759   5.594  11.545  1.5984  0.1259  0.6230
 9487TIP3   OH249951   4.710   3.928  13.356  0.4016  0.2398  0.7534
 9487TIP3    H149952   4.744   3.901  13.441 -2.3637  1.2293  2.3106
 9487TIP3    H249953   4.685   4.020  13.368 -0.1792  0.3724 -1.1137
 9488TIP3   OH249954   0.849   3.611  12.935 -0.5237 -0.0459 -0.2133
 9488TIP3    H149955   0.929   3.630  12.984  0.7898 -0.4697 -2.0879
 9488TIP3    H249956   0.877   3.604  12.844 -2.5747 -0.9983 -0.8445
 9489TIP3   OH249957   4.650   0.102  14.571 -0.3677 -0.2561 -0.0558
 9489TIP3    H149958   4.628   0.009  14.566 -1.1649 -0.3071  2.7851
 9489TIP3    H249959   4.569   0.145  14.597  0.5520  0.8875  1.0525
 9490TIP3   OH249960   6.546   1.181   0.694 -0.5522 -0.1884  0.2208
 9490TIP3    H149961   6.592   1.198   0.611  1.7296  1.1902  1.6753
 9490TIP3    H249962   6.600   1.116   0.738 -0.3997  0.8411  1.6207
 9491TIP3   OH249963   4.115   6.707  12.062  0.2446 -0.3764 -0.0522
 9491TIP3    H149964   4.162   6.675  11.986  1.3432 -0.4554  0.6318
 9491TIP3    H249965   4.161   6.667  12.137  0.6703  1.4952  0.7443
 9492TIP3   OH249966   3.486   1.266  12.077 -0.1030  0.2410  0.2405
 9492TIP3    H149967   3.457   1.179  12.104 -2.4059  1.3500  1.5878
 9492TIP3    H249968   3.564   1.283  12.130  1.0775 -1.3947 -0.8770
 9493TIP3   OH249969   2.323   3.867   4.564  0.3951 -0.6518  0.5032
 9493TIP3    H149970   2.406   3.820   4.569  0.2277 -0.9762  0.2195
 9493TIP3    H249971   2.346   3.958   4.584  1.3969 -0.0748 -2.6400
 9494TIP3   OH249972   1.488   2.349   5.680 -0.0637  0.4811  0.5312
 9494TIP3    H149973   1.452   2.262   5.699 -1.6314  0.6715 -1.2402
 9494TIP3    H249974   1.579   2.345   5.709  0.2329 -2.1342 -0.5284
 9495TIP3   OH249975   5.894   2.940   2.739 -0.5245  0.0039 -0.6238
 9495TIP3    H149976   5.941   2.881   2.681 -1.3563 -0.6293 -0.6757
 9495TIP3    H249977   5.959   3.004   2.766 -0.4207  1.1662 -3.3280
 9496TIP3   OH249978   2.168   1.474   2.041  0.0082 -0.5803  0.0730
 9496TIP3    H149979   2.263   1.483   2.045  0.0996 -1.1515 -0.5190
 9496TIP3    H249980   2.154   1.393   1.992 -0.7415 -2.2475  2.7956
 9497TIP3   OH249981   6.444   6.482   1.293 -0.5875 -0.0949  0.2600
 9497TIP3    H149982   6.355   6.513   1.281 -0.2310  0.9211  0.1320
 9497TIP3    H249983   6.498   6.545   1.244  0.0205 -2.0926 -1.8220
 9498TIP3   OH249984   0.567   5.767  12.901  0.0299  0.1987 -0.4168
 9498TIP3    H149985   0.473   5.756  12.892  0.1040 -0.4713 -0.4781
 9498TIP3    H249986   0.580   5.792  12.993 -0.2060  0.2754 -0.4054
 9499TIP3   OH249987   4.990   6.693   6.262 -0.3146 -0.0492  0.3124
 9499TIP3    H149988   5.005   6.630   6.192  1.0284  0.9447 -0.3255
 9499TIP3    H249989   5.078   6.716   6.293 -0.8376  0.5248  1.4270
 9500TIP3   OH249990   1.933   3.105  12.785  0.3376  0.2434 -0.6126
 9500TIP3    H149991   1.983   3.166  12.839 -0.0759  0.1374 -0.1061
 9500TIP3    H249992   1.996   3.072  12.720  0.7506  0.6175 -0.3971
 9501TIP3   OH249993   5.948   5.640  17.152  0.5068  0.0195  0.7969
 9501TIP3    H149994   6.021   5.682  17.106  1.1470 -1.1753  0.6761
 9501TIP3    H249995   5.912   5.578  17.088 -1.4381  1.4381  0.4179
 9502TIP3   OH249996   5.321   3.137  14.427 -0.0123  0.1655 -0.2363
 9502TIP3    H149997   5.367   3.218  14.405  0.1022  0.7725  1.9661
 9502TIP3    H249998   5.238   3.143  14.380  0.2697  1.2403 -0.6306
 9503TIP3   OH249999   1.246   5.670   4.000  0.5319 -0.2240  0.2190
 9503TIP3    H150000   1.231   5.758   4.033  0.5915  0.4957 -1.5510
 9503TIP3    H250001   1.169   5.651   3.946  0.4887 -1.2925  0.6332
 9504TIP3   OH250002   0.294   4.017   2.686  0.4382  0.1982 -0.2760
 9504TIP3    H150003   0.303   3.980   2.774  0.6524 -1.5190 -0.9717
 9504TIP3    H250004   0.242   3.952   2.638  0.1518  1.2037 -1.3616
 9505TIP3   OH250005   4.857   3.535   0.863  0.2560  0.3178  0.3013
 9505TIP3    H150006   4.905   3.589   0.800  1.8523 -0.5209  0.7359
 9505TIP3    H250007   4.919   3.523   0.935  0.7892 -3.6751 -0.6211
 9506TIP3   OH250008   4.218   4.490   4.049  0.4649 -0.1964  0.3438
 9506TIP3    H150009   4.281   4.561   4.062  2.5165 -1.9609  0.6050
 9506TIP3    H250010   4.173   4.512   3.968  1.3317  1.1838  0.2017
 9507TIP3   OH250011   6.591   6.821   3.544  0.1106  1.1149 -0.4050
 9507TIP3    H150012   6.634   6.803   3.460 -1.1412  2.2030 -1.2998
 9507TIP3    H250013   6.642   6.892   3.583  1.8987 -0.6705  0.7403
 9508TIP3   OH250014   1.272   6.722  12.336 -0.0092  0.0808  0.3596
 9508TIP3    H150015   1.211   6.794  12.320  0.3723  0.0565 -1.3097
 9508TIP3    H250016   1.356   6.764  12.354  0.3810  0.0779 -1.3276
 9509TIP3   OH250017   4.330   2.870   5.140  0.1775 -0.5033 -0.3567
 9509TIP3    H150018   4.279   2.922   5.077  0.4342 -1.2986 -1.2360
 9509TIP3    H250019   4.331   2.924   5.219 -1.1140  0.0202 -0.6615
 9510TIP3   OH250020   5.129   5.518  11.293  0.1569  0.2020 -0.1621
 9510TIP3    H150021   5.114   5.531  11.199  0.1575  1.2489 -0.0282
 9510TIP3    H250022   5.223   5.533  11.305  0.3512 -0.9539 -0.1446
 9511TIP3   OH250023   3.018   4.290  13.073 -0.1796  0.0589  0.1480
 9511TIP3    H150024   3.025   4.299  13.168  0.6613 -1.2101  0.2266
 9511TIP3    H250025   3.076   4.359  13.039  1.8976 -1.3341  0.6412
 9512TIP3   OH250026   4.097   5.189  16.827 -0.2034  0.2437 -0.2227
 9512TIP3    H150027   4.051   5.246  16.889  0.4877  0.4811  0.0739
 9512TIP3    H250028   4.042   5.189  16.749 -0.9648  0.1326  0.3006
 9513TIP3   OH250029   5.213   5.016   3.447 -0.2998  0.3421  0.8022
 9513TIP3    H150030   5.142   4.967   3.404 -1.0283 -0.0119  2.3116
 9513TIP3    H250031   5.270   5.044   3.376 -1.6300  0.0964 -0.4069
 9514TIP3   OH250032   5.826   3.451   5.688 -0.2934  0.5407  0.1525
 9514TIP3    H150033   5.916   3.447   5.721 -0.2732  1.4135  0.2170
 9514TIP3    H250034   5.834   3.476   5.597 -0.3342 -2.2113 -0.7119
 9515TIP3   OH250035   4.358   3.023  13.088  0.3919 -0.0419  0.1000
 9515TIP3    H150036   4.360   2.930  13.065  1.0401 -0.5297  1.9212
 9515TIP3    H250037   4.450   3.045  13.105  0.3413  1.1485 -0.9966
 9516TIP3   OH250038   4.016   6.199   5.622  0.0205  0.1134  0.6678
 9516TIP3    H150039   4.047   6.235   5.539  0.5724 -2.3846 -0.2990
 9516TIP3    H250040   4.094   6.160   5.662 -0.2390  1.2533  2.4010
 9517TIP3   OH250041   3.551   0.531   3.435  0.0570  0.2607  0.3254
 9517TIP3    H150042   3.582   0.606   3.385  0.5923 -0.5221 -0.5483
 9517TIP3    H250043   3.464   0.557   3.464 -0.1046  0.9049 -0.6662
 9518TIP3   OH250044   1.178   1.526  16.005  0.7123 -0.6908 -0.5469
 9518TIP3    H150045   1.108   1.487  15.952 -0.0257  1.4821 -1.2634
 9518TIP3    H250046   1.159   1.496  16.094 -0.0669 -1.5934 -0.9928
 9519TIP3   OH250047   0.183   4.929   1.480  0.2418  0.1223  0.0027
 9519TIP3    H150048   0.175   4.839   1.448 -0.0103 -0.3361  1.2987
 9519TIP3    H250049   0.261   4.963   1.435  0.3167 -0.7164 -0.5383
 9520TIP3   OH250050   5.680   3.220  12.686  0.1403  1.0337 -0.4227
 9520TIP3    H150051   5.758   3.246  12.637  0.6634 -0.2134 -0.3087
 9520TIP3    H250052   5.612   3.210  12.620  0.6511  0.0791 -0.8351
 9521TIP3   OH250053   5.442   3.223   6.573  0.0909  0.3555  0.2086
 9521TIP3    H150054   5.393   3.299   6.542  1.5369  1.5423  0.6803
 9521TIP3    H250055   5.525   3.260   6.603  0.4494 -1.2957  1.3737
 9522TIP3   OH250056   6.517   2.735  15.708 -0.1003 -0.1682  0.3347
 9522TIP3    H150057   6.511   2.748  15.613  2.3480 -0.7666  0.0293
 9522TIP3    H250058   6.432   2.766  15.741 -1.4872 -1.0137 -2.1174
 9523TIP3   OH250059   0.239   2.330   0.808  0.1931  0.0501  0.0518
 9523TIP3    H150060   0.268   2.321   0.717 -0.8714  1.2242 -0.4366
 9523TIP3    H250061   0.201   2.418   0.812 -3.7896 -1.4592  0.4374
 9524TIP3   OH250062   5.771   2.727   1.540  0.1373 -0.5464 -0.2936
 9524TIP3    H150063   5.690   2.756   1.498  0.1079 -0.8281 -0.4381
 9524TIP3    H250064   5.808   2.806   1.579 -0.2055 -0.4157 -0.2291
 9525TIP3   OH250065   1.113   4.659  16.505  0.4717  0.7561 -0.3664
 9525TIP3    H150066   1.151   4.744  16.527 -0.7332  1.0224  0.7408
 9525TIP3    H250067   1.102   4.662  16.410 -0.7845  2.3722 -0.2076
 9526TIP3   OH250068   0.022   5.586   4.203 -0.0921  0.2384 -0.0415
 9526TIP3    H150069  -0.007   5.523   4.269  1.1465 -0.3233  0.0014
 9526TIP3    H250070   0.066   5.533   4.136  0.3424  0.9803 -0.3652
 9527TIP3   OH250071   5.633   5.598   1.550 -0.2224  0.6023  0.1911
 9527TIP3    H150072   5.544   5.615   1.580 -0.3796  1.4513 -0.7029
 9527TIP3    H250073   5.687   5.662   1.595 -0.6546  2.8928 -2.2907
 9528TIP3   OH250074   1.751   0.038  14.190 -0.3656  0.0151 -0.2863
 9528TIP3    H150075   1.727   0.047  14.098 -0.3227  1.3034 -0.1835
 9528TIP3    H250076   1.673   0.002  14.232 -1.7614  2.9349 -0.1835
 9529TIP3   OH250077   0.782   1.482  14.418 -0.2029 -0.3204  0.1147
 9529TIP3    H150078   0.791   1.387  14.428  1.2091 -0.1530  0.6244
 9529TIP3    H250079   0.818   1.518  14.499 -0.1665  0.6781 -0.3329
 9530TIP3   OH250080   2.995   0.790   5.081  0.1910 -0.4471  0.1167
 9530TIP3    H150081   2.998   0.696   5.101 -0.9065 -0.4535  0.3413
 9530TIP3    H250082   3.029   0.833   5.159  2.7804 -0.6891 -0.7706
 9531TIP3   OH250083   1.461   1.808  14.519 -0.1978 -0.7458 -0.1592
 9531TIP3    H150084   1.519   1.755  14.573 -1.3336 -1.5108  0.3617
 9531TIP3    H250085   1.458   1.763  14.434 -0.0530 -0.7310 -0.1708
 9532TIP3   OH250086   2.395   0.386   4.953 -0.5339 -0.4188 -0.0908
 9532TIP3    H150087   2.382   0.306   4.901  2.6281 -0.4371 -1.0558
 9532TIP3    H250088   2.450   0.358   5.026  0.1459  0.7800 -0.1319
 9533TIP3   OH250089   4.699   3.185   4.333 -0.4313 -0.1484 -0.1138
 9533TIP3    H150090   4.649   3.108   4.306 -2.7402  0.7621  1.1703
 9533TIP3    H250091   4.682   3.192   4.427  2.2444  0.2301  0.3977
 9534TIP3   OH250092   0.515   6.059   1.379 -0.0750 -0.4161 -0.0175
 9534TIP3    H150093   0.536   5.999   1.451 -0.3671 -0.2180  0.2335
 9534TIP3    H250094   0.465   6.006   1.318 -0.0487 -0.5166  0.0472
 9535TIP3   OH250095   6.464   4.229  12.932 -0.7173 -0.5044 -0.2457
 9535TIP3    H150096   6.403   4.287  12.978  0.8108 -0.0726  1.3010
 9535TIP3    H250097   6.447   4.142  12.968  1.8489  0.1019  2.8641
 9536TIP3   OH250098   5.275   2.232   3.573 -0.1929 -0.2344  0.1180
 9536TIP3    H150099   5.323   2.149   3.577 -0.0120 -0.2280 -1.2752
 9536TIP3    H250100   5.317   2.280   3.502 -2.7357 -0.5789 -1.7789
 9537TIP3   OH250101   2.182   4.300   3.215  0.3857  0.6933 -0.3819
 9537TIP3    H150102   2.221   4.387   3.222  1.8247  0.0561 -0.0486
 9537TIP3    H250103   2.252   4.241   3.244 -0.5183 -0.5792 -0.7420
 9538TIP3   OH250104   1.995   1.241   2.119 -0.2174 -0.4000  0.8487
 9538TIP3    H150105   1.945   1.291   2.054  0.8922  0.8273  0.9043
 9538TIP3    H250106   1.967   1.277   2.203  0.1686 -0.2633  0.9190
 9539TIP3   OH250107   2.382   6.125   2.243  0.5883  0.0848 -0.6297
 9539TIP3    H150108   2.369   6.199   2.302  2.9692  0.6392 -0.6755
 9539TIP3    H250109   2.377   6.164   2.155  0.8416  0.0094 -0.6792
 9540TIP3   OH250110   1.413   0.953   3.934  0.0330  0.0915  0.0838
 9540TIP3    H150111   1.376   0.913   3.855  1.0250 -0.2869 -0.2034
 9540TIP3    H250112   1.464   1.027   3.901  2.1933 -1.2915  0.1123
 9541TIP3   OH250113   2.214   5.501   3.779 -0.5587  0.0906 -0.2281
 9541TIP3    H150114   2.119   5.512   3.771 -0.5605  0.3722  0.1713
 9541TIP3    H250115   2.236   5.538   3.864 -0.0049  0.5602 -0.5673
 9542TIP3   OH250116   0.672   4.791  15.310 -0.1450  0.2093  0.2111
 9542TIP3    H150117   0.762   4.759  15.318 -0.0057  0.6442  0.4480
 9542TIP3    H250118   0.655   4.794  15.216 -0.5487 -1.5880  0.1926
 9543TIP3   OH250119   0.362   4.995  11.866 -0.1368  0.4695  0.6108
 9543TIP3    H150120   0.403   4.910  11.878  0.3631  0.4350 -1.0665
 9543TIP3    H250121   0.428   5.049  11.822 -1.2003  0.9949 -0.4350
 9544TIP3   OH250122   6.710   6.774  16.699 -0.4385  0.2343 -0.2085
 9544TIP3    H150123   6.713   6.853  16.646  1.6700  0.8660  0.7352
 9544TIP3    H250124   6.673   6.707  16.641  0.0683  1.3215 -1.8434
 9545TIP3   OH250125   0.463   0.666  14.217  0.0206  0.4333 -0.0210
 9545TIP3    H150126   0.494   0.598  14.157  0.7439  0.1299  0.6841
 9545TIP3    H250127   0.463   0.746  14.164 -0.4584 -0.0256 -0.7451
 9546TIP3   OH250128   1.771   2.548  16.222 -0.3286 -0.6509  0.1512
 9546TIP3    H150129   1.853   2.597  16.214 -0.0767 -1.1935 -0.7086
 9546TIP3    H250130   1.703   2.613  16.204 -0.0388 -0.4180 -0.1172
 9547TIP3   OH250131   5.310   0.186  16.008  0.1974 -0.0341  0.4214
 9547TIP3    H150132   5.317   0.127  15.933  0.3850 -0.9442  1.1326
 9547TIP3    H250133   5.274   0.132  16.078 -0.5143  0.9507  0.8366
 9548TIP3   OH250134   0.218   5.038   4.728 -0.2425  0.5673  0.3158
 9548TIP3    H150135   0.132   5.023   4.766 -0.8283  1.3886 -0.6058
 9548TIP3    H250136   0.230   5.133   4.732  0.8204  0.4239  0.8366
 9549TIP3   OH250137   4.164   6.778  13.644 -0.1622  0.1042  0.0048
 9549TIP3    H150138   4.221   6.846  13.678 -0.2864 -0.1751  0.7778
 9549TIP3    H250139   4.205   6.752  13.561 -1.6804  3.1870 -1.9089
 9550TIP3   OH250140   1.420   0.881   6.179 -0.6500  0.6748  0.3142
 9550TIP3    H150141   1.415   0.976   6.169 -1.0831  0.6229 -0.0204
 9550TIP3    H250142   1.333   0.856   6.210 -0.3322  0.4585  1.0548
 9551TIP3   OH250143   5.152   0.993  11.915  0.0537 -0.0915 -0.2106
 9551TIP3    H150144   5.111   0.932  11.853 -0.1374  0.0963 -0.2673
 9551TIP3    H250145   5.118   1.079  11.891 -0.5956 -0.1050  0.6211
 9552TIP3   OH250146   2.595   4.103  11.205 -0.2896 -0.3732 -0.5527
 9552TIP3    H150147   2.652   4.038  11.165 -0.2484  0.5501 -2.1061
 9552TIP3    H250148   2.524   4.115  11.141  1.1244  3.0338 -1.7248
 9553TIP3   OH250149   3.601   4.751  12.711 -0.2735  0.1315  0.3354
 9553TIP3    H150150   3.519   4.776  12.752 -0.3417  0.4819 -0.0094
 9553TIP3    H250151   3.662   4.822  12.733 -0.4773  0.6295 -0.6707
 9554TIP3   OH250152   1.268   0.807  16.764 -0.2910  0.1073  0.3624
 9554TIP3    H150153   1.279   0.891  16.808 -2.3881 -0.2721  1.7319
 9554TIP3    H250154   1.181   0.812  16.725  0.2938 -0.7684 -1.1235
 9555TIP3   OH250155   4.799   2.685   5.539 -0.1474 -0.0327  0.3342
 9555TIP3    H150156   4.885   2.649   5.516 -0.0538  0.1013  0.4774
 9555TIP3    H250157   4.768   2.726   5.458  0.0752  0.2246  0.3767
 9556TIP3   OH250158   1.922   0.509   0.147  0.0744  0.0570  0.2306
 9556TIP3    H150159   1.830   0.533   0.160 -0.1413 -0.5478 -0.1423
 9556TIP3    H250160   1.927   0.479   0.056  0.6572  0.1639  0.2209
 9557TIP3   OH250161   5.485   5.699   0.556 -0.1155 -0.0341 -0.3332
 9557TIP3    H150162   5.577   5.700   0.583 -0.7318 -0.6560  2.0745
 9557TIP3    H250163   5.438   5.675   0.636 -2.2166 -1.7986 -2.0017
 9558TIP3   OH250164   1.054   1.719   4.240  0.4020  0.3014  0.2576
 9558TIP3    H150165   1.083   1.645   4.188  1.2709  2.3202 -2.3808
 9558TIP3    H250166   1.118   1.788   4.221 -2.5860  3.0378 -0.8568
 9559TIP3   OH250167   6.505   2.021   2.025 -0.0836  0.1226  0.2183
 9559TIP3    H150168   6.432   1.973   1.987  0.2445 -0.0771 -0.1674
 9559TIP3    H250169   6.519   1.980   2.110  1.4201 -1.7609 -0.8650
 9560TIP3   OH250170   6.821   4.036   2.809 -0.0408  0.1229 -0.2366
 9560TIP3    H150171   6.796   4.065   2.897 -1.5153  0.2243 -0.6703
 9560TIP3    H250172   6.852   3.946   2.821 -1.8611 -0.4785  0.1665
 9561TIP3   OH250173   1.229   2.484  13.472  0.1657  0.2502  0.7735
 9561TIP3    H150174   1.315   2.513  13.503  0.7678  1.9870 -2.1323
 9561TIP3    H250175   1.169   2.553  13.498  0.1871  0.4163  0.3899
 9562TIP3   OH250176   4.321   2.891  12.294  0.4465  0.0731  0.2783
 9562TIP3    H150177   4.397   2.911  12.239  2.5042 -0.4487  2.7402
 9562TIP3    H250178   4.293   2.803  12.266  2.4648 -0.8650  1.0396
 9563TIP3   OH250179   3.605   1.062  15.645  0.0676  0.1091  0.3364
 9563TIP3    H150180   3.570   1.025  15.726 -0.0031 -1.2276 -0.2835
 9563TIP3    H250181   3.677   1.119  15.674 -1.3318  1.3837  1.4709
 9564TIP3   OH250182   0.201   3.701  14.072  0.2360 -0.1038  0.1662
 9564TIP3    H150183   0.221   3.615  14.035  0.4518  1.4375 -3.7295
 9564TIP3    H250184   0.146   3.743  14.006 -1.0585  2.2950  2.5755
 9565TIP3   OH250185   6.184   1.614  13.509  0.2262 -0.0476  0.5433
 9565TIP3    H150186   6.198   1.708  13.495  0.2375 -0.2499 -0.9629
 9565TIP3    H250187   6.090   1.603  13.506  0.2995 -0.3494 -1.3182
 9566TIP3   OH250188   3.771   4.138   4.464  0.0924 -0.4274 -0.3331
 9566TIP3    H150189   3.858   4.153   4.499  0.4001 -0.5056 -1.0464
 9566TIP3    H250190   3.737   4.063   4.513  0.2552 -0.1240  0.2425
 9567TIP3   OH250191   6.275   5.288  10.807  0.1181 -0.4264 -0.6081
 9567TIP3    H150192   6.259   5.195  10.824 -1.0319  0.0846  1.3778
 9567TIP3    H250193   6.192   5.321  10.773  0.3056  0.0298 -0.6330
 9568TIP3   OH250194   1.294   0.243  11.404 -0.0497 -0.0040 -0.6692
 9568TIP3    H150195   1.330   0.310  11.463 -0.5978 -0.2904  0.0016
 9568TIP3    H250196   1.363   0.178  11.397 -0.3926 -0.5407  0.5935
 9569TIP3   OH250197   1.314   2.916  14.324 -0.2172  0.0980 -0.1791
 9569TIP3    H150198   1.385   2.945  14.381 -0.2142 -1.3575  0.6024
 9569TIP3    H250199   1.308   2.984  14.257  0.2649  1.4804  1.1337
 9570TIP3   OH250200   2.852   4.449   2.392  0.1388 -0.6334  0.2867
 9570TIP3    H150201   2.939   4.480   2.368 -0.6801 -0.0391 -2.2190
 9570TIP3    H250202   2.824   4.509   2.462  1.3215 -0.1554  0.3686
 9571TIP3   OH250203   5.203   6.759   4.505  0.0083  0.2418 -0.7022
 9571TIP3    H150204   5.196   6.665   4.488 -0.3285  0.6106 -2.7560
 9571TIP3    H250205   5.237   6.796   4.424  0.1208  1.9158  0.0746
 9572TIP3   OH250206   3.958   0.792  16.165  0.5656  0.4564 -0.3195
 9572TIP3    H150207   4.053   0.787  16.172  0.5244  0.4169  0.2753
 9572TIP3    H250208   3.937   0.881  16.195  0.3349  0.1074  0.6080
 9573TIP3   OH250209   0.717   5.589   5.022  0.6073  0.3852  0.3634
 9573TIP3    H150210   0.626   5.585   4.993  0.2293  0.6508  1.4556
 9573TIP3    H250211   0.761   5.643   4.957 -0.0943  0.5475  0.0115
 9574TIP3   OH250212   4.097   4.032   1.670  0.2594 -0.2542  0.1311
 9574TIP3    H150213   4.171   4.016   1.729  0.7692 -0.0043 -0.4325
 9574TIP3    H250214   4.125   4.105   1.615 -0.9981  0.8686  0.8996
 9575TIP3   OH250215   6.301   1.445  14.162  0.3027 -0.2656 -0.4710
 9575TIP3    H150216   6.267   1.505  14.096 -0.7502 -0.4872 -0.1496
 9575TIP3    H250217   6.334   1.370  14.112 -0.9528 -0.6584 -0.7348
 9576TIP3   OH250218   1.547   3.681  11.849 -0.0567  0.0899 -0.0672
 9576TIP3    H150219   1.534   3.775  11.839 -0.9109 -0.0595 -0.4591
 9576TIP3    H250220   1.534   3.665  11.943  0.5946  0.4347  0.0810
 9577TIP3   OH250221   3.285   0.907  13.539  0.0554 -0.4406 -0.0579
 9577TIP3    H150222   3.295   0.914  13.444 -1.2274  0.4242 -0.1542
 9577TIP3    H250223   3.212   0.846  13.550 -0.9343  0.7826  0.3080
 9578TIP3   OH250224   2.503   5.662  11.060  0.0111  0.3509 -0.0295
 9578TIP3    H150225   2.592   5.641  11.030 -0.2686 -0.4554 -0.3321
 9578TIP3    H250226   2.516   5.723  11.132  0.8888 -0.7751  0.8113
 9579TIP3   OH250227   0.791   3.173   0.046 -0.4091 -0.0835  0.3176
 9579TIP3    H150228   0.734   3.200  -0.026  0.4520  1.7252  0.2782
 9579TIP3    H250229   0.840   3.098   0.010 -1.6860 -0.7282 -0.1339
 9580TIP3   OH250230   2.377   3.705   1.061 -0.3979 -0.8208  0.0699
 9580TIP3    H150231   2.323   3.707   1.140  0.2664 -1.1547  0.5393
 9580TIP3    H250232   2.316   3.727   0.990 -0.6652  1.1659  0.8547
 9581TIP3   OH250233   5.286   4.907  13.058 -0.3717 -0.0077 -0.7687
 9581TIP3    H150234   5.304   4.876  13.147  0.7078 -0.2172 -1.0437
 9581TIP3    H250235   5.313   4.999  13.059 -1.5623  0.3553 -0.5406
 9582TIP3   OH250236   5.940   3.818   2.073  0.0704 -0.0378  0.2353
 9582TIP3    H150237   5.913   3.731   2.044  0.4451  0.4495 -1.7766
 9582TIP3    H250238   6.032   3.808   2.096  0.1573 -0.1690 -0.1514
 9583TIP3   OH250239   0.618   4.200  11.068  0.6098 -0.4558 -0.1068
 9583TIP3    H150240   0.619   4.129  11.133 -0.5472  0.3832  0.8701
 9583TIP3    H250241   0.649   4.159  10.988  0.4046 -1.9705  0.5469
 9584TIP3   OH250242   1.266   0.458  12.097 -0.1833  0.6043 -0.4460
 9584TIP3    H150243   1.212   0.383  12.075 -1.9738  1.7719 -0.2013
 9584TIP3    H250244   1.237   0.484  12.185  2.0894  0.1643  0.5058
 9585TIP3   OH250245   0.715   1.489   0.962  0.5092 -0.2750 -0.1343
 9585TIP3    H150246   0.774   1.415   0.977  0.0665 -0.8038 -0.9242
 9585TIP3    H250247   0.627   1.452   0.970  0.2741 -0.0583 -1.5102
 9586TIP3   OH250248   6.370   4.368  15.504 -0.6535 -0.2061  0.4567
 9586TIP3    H150249   6.310   4.321  15.445 -1.7360  2.1411 -0.4474
 9586TIP3    H250250   6.312   4.409  15.568 -0.0381  1.8876 -0.2646
 9587TIP3   OH250251   5.251   0.328  15.577 -0.2342 -0.4213  0.2960
 9587TIP3    H150252   5.240   0.414  15.617  0.7139 -0.4556  0.6461
 9587TIP3    H250253   5.207   0.336  15.492 -1.8886 -0.2228  1.1318
 9588TIP3   OH250254   2.265   1.622  16.296 -0.0287  0.0015  0.3771
 9588TIP3    H150255   2.257   1.592  16.387 -2.5305 -2.0157 -0.3913
 9588TIP3    H250256   2.221   1.707  16.294  0.7824  0.4563  1.1807
 9589TIP3   OH250257   0.971   0.840   0.009  0.2662 -0.3198  0.0350
 9589TIP3    H150258   0.933   0.761  -0.030  0.5697  0.0678 -1.0937
 9589TIP3    H250259   0.903   0.907  -0.002  0.0971 -0.3696  0.7841
 9590TIP3   OH250260   2.170   3.594   3.367  0.0228 -0.5773 -0.0554
 9590TIP3    H150261   2.184   3.688   3.352  1.9623 -1.0622 -1.7943
 9590TIP3    H250262   2.080   3.588   3.400  0.1473  1.9481  0.9804
 9591TIP3   OH250263   1.380   3.607  15.071 -0.1596  0.5924 -0.4985
 9591TIP3    H150264   1.293   3.632  15.039  0.4908  1.1579 -1.9552
 9591TIP3    H250265   1.436   3.680  15.046  0.9545 -0.2999 -0.7150
 9592TIP3   OH250266   0.528   5.883  11.174 -0.5951  0.2080 -0.0828
 9592TIP3    H150267   0.528   5.959  11.231 -0.7377 -0.9361  1.4984
 9592TIP3    H250268   0.613   5.842  11.189 -0.7895 -0.3195 -0.4000
 9593TIP3   OH250269   1.717   0.722  16.653 -0.2199 -0.0478 -0.0060
 9593TIP3    H150270   1.713   0.675  16.736 -0.2257  0.1113  0.0851
 9593TIP3    H250271   1.794   0.687  16.609  1.4826  1.8194  1.2796
 9594TIP3   OH250272   2.152   0.017  14.827  0.0965 -0.2628 -0.0723
 9594TIP3    H150273   2.150  -0.024  14.741  0.8966 -0.9483  0.2200
 9594TIP3    H250274   2.237   0.061  14.831  0.5814 -1.2213  0.7886
 9595TIP3   OH250275   0.932   3.769   3.498 -0.3968 -0.0134  0.2336
 9595TIP3    H150276   0.846   3.806   3.518 -0.1524  1.2426 -0.8608
 9595TIP3    H250277   0.925   3.740   3.407  0.9835  2.3546 -0.7294
 9596TIP3   OH250278   3.107   4.529   4.787  0.6385  0.4233 -0.0769
 9596TIP3    H150279   3.045   4.482   4.844  1.2101 -0.0958  0.1326
 9596TIP3    H250280   3.173   4.562   4.848  1.2387 -0.1081 -0.4408
 9597TIP3   OH250281   6.652   6.144  16.013  0.2427 -0.2534 -0.5905
 9597TIP3    H150282   6.623   6.213  15.953 -2.4729  0.5488  1.4088
 9597TIP3    H250283   6.733   6.178  16.052  1.0715 -0.0150 -2.4272
 9598TIP3   OH250284   6.517   1.036   2.039  0.2493  0.2029 -0.2368
 9598TIP3    H150285   6.474   1.030   1.954 -1.1936 -3.0426  0.5999
 9598TIP3    H250286   6.454   1.081   2.095  0.2813  0.3412 -0.3092
 9599TIP3   OH250287   2.705   0.211  12.544 -0.5012 -0.3698 -0.1321
 9599TIP3    H150288   2.620   0.169  12.553 -0.2712 -0.8357 -0.0775
 9599TIP3    H250289   2.766   0.138  12.530 -0.1346 -0.0320 -0.3125
 9600TIP3   OH250290   0.024   4.091  14.147  0.2574  0.4129  0.2629
 9600TIP3    H150291   0.086   4.021  14.170 -0.5640  0.7166  3.9749
 9600TIP3    H250292   0.053   4.166  14.199 -0.4471  2.0698 -1.6401
 9601TIP3   OH250293   4.863   0.179  14.991  0.2055 -0.2057 -0.2122
 9601TIP3    H150294   4.900   0.241  15.053  1.7630 -1.5103  0.2488
 9601TIP3    H250295   4.770   0.174  15.014  0.5556  0.0800  1.3935
 9602TIP3   OH250296   4.513   1.893  14.389 -0.4939 -0.2005 -0.2294
 9602TIP3    H150297   4.457   1.860  14.459 -1.4570  0.2654 -0.7592
 9602TIP3    H250298   4.550   1.815  14.349  0.7212 -0.4620  1.2802
 9603TIP3   OH250299   0.825   1.681  11.030 -0.0781 -1.0570 -0.5479
 9603TIP3    H150300   0.773   1.723  10.962 -0.1591 -0.0638  0.1089
 9603TIP3    H250301   0.905   1.654  10.985  0.0873  0.0362 -0.9425
 9604TIP3   OH250302   3.949   4.294   0.511  0.0379  0.4728  0.3883
 9604TIP3    H150303   3.889   4.363   0.538  0.4606  0.8098  0.4829
 9604TIP3    H250304   3.965   4.311   0.418  0.0007  0.3968  0.3682
 9605TIP3   OH250305   4.882   4.377  14.145 -0.0587  0.2207 -0.3640
 9605TIP3    H150306   4.953   4.365  14.082 -0.2812  0.1660 -0.6001
 9605TIP3    H250307   4.806   4.399  14.093 -0.3481 -0.2502 -0.1491
 9606TIP3   OH250308   5.744   0.109  16.882  0.3549 -0.0004 -0.4647
 9606TIP3    H150309   5.776   0.036  16.936 -0.0906  0.0331 -0.1493
 9606TIP3    H250310   5.777   0.090  16.794  0.6606 -0.3225 -0.2852
 9607TIP3   OH250311   5.685   5.144   4.254 -0.0148  0.6693 -0.2276
 9607TIP3    H150312   5.711   5.154   4.163 -0.8977 -0.0188 -0.5647
 9607TIP3    H250313   5.591   5.158   4.254 -0.3331 -1.2000  0.2599
 9608TIP3   OH250314   3.503   6.140   6.410 -0.1700 -0.1361  0.3775
 9608TIP3    H150315   3.565   6.101   6.348  0.9590  2.4531 -0.2751
 9608TIP3    H250316   3.427   6.164   6.356  0.0847  0.5463  0.3098
 9609TIP3   OH250317   0.618   6.161   0.056 -0.0464  0.1103 -0.1698
 9609TIP3    H150318   0.554   6.165  -0.015 -0.9136 -2.8901  0.3122
 9609TIP3    H250319   0.589   6.227   0.119 -2.0068 -0.3674 -0.5183
 9610TIP3   OH250320   4.216   1.716  16.770 -0.6610 -0.1583  0.9304
 9610TIP3    H150321   4.140   1.771  16.788 -0.7100  0.1407 -0.1513
 9610TIP3    H250322   4.289   1.777  16.761 -0.9400 -0.0916 -1.5522
 9611TIP3   OH250323   1.924   2.847  13.031 -0.1288  0.3235  0.1462
 9611TIP3    H150324   1.882   2.859  12.946 -0.6305  0.7446  0.4510
 9611TIP3    H250325   1.924   2.752  13.044  0.4546  0.2102 -0.5698
 9612TIP3   OH250326   4.393   3.389   0.317 -0.0946  0.0599 -0.4059
 9612TIP3    H150327   4.350   3.379   0.403  0.6594 -0.3362 -0.0700
 9612TIP3    H250328   4.438   3.306   0.302 -0.2487  0.1125 -1.2122
 9613TIP3   OH250329   3.621   0.279  12.634 -0.1949  0.1542  0.8288
 9613TIP3    H150330   3.596   0.191  12.609 -0.1071  0.0240  1.1884
 9613TIP3    H250331   3.547   0.334  12.609  0.3887  0.2240 -0.8327
 9614TIP3   OH250332   5.432   4.833  16.146 -0.2849 -0.6072  0.0480
 9614TIP3    H150333   5.357   4.786  16.110 -1.8229  1.8093 -0.1451
 9614TIP3    H250334   5.410   4.846  16.238 -0.9329  1.4127 -0.3234
 9615TIP3   OH250335   0.547   4.200   2.898 -0.1108 -0.6338 -0.0620
 9615TIP3    H150336   0.488   4.199   2.973 -1.1798  0.6167 -0.8524
 9615TIP3    H250337   0.615   4.136   2.920 -0.3746 -0.2726  1.9733
 9616TIP3   OH250338   1.806   5.390  11.522 -0.2059  0.1075 -0.0500
 9616TIP3    H150339   1.841   5.470  11.482 -0.3399  0.5751  0.7478
 9616TIP3    H250340   1.841   5.319  11.468 -0.4730  0.7205 -1.0556
 9617TIP3   OH250341   4.556   6.370  14.097 -0.4492 -0.3268 -0.6668
 9617TIP3    H150342   4.587   6.296  14.149 -1.6445  0.8093  1.8701
 9617TIP3    H250343   4.623   6.438  14.110 -0.6895 -0.0805 -0.6908
 9618TIP3   OH250344   3.150   1.020   4.047  0.0204  0.1308  1.0382
 9618TIP3    H150345   3.232   1.064   4.025  0.9418 -1.8557  0.2399
 9618TIP3    H250346   3.116   1.069   4.122  1.6803  1.3042  1.0802
 9619TIP3   OH250347   4.515   5.554  14.638 -0.1358  0.7326 -0.4731
 9619TIP3    H150348   4.482   5.476  14.593  0.1758 -0.9811  2.0358
 9619TIP3    H250349   4.497   5.537  14.731 -0.2676  3.7988  0.1740
 9620TIP3   OH250350   5.702   4.281   4.340 -0.0265  0.4456  0.4720
 9620TIP3    H150351   5.784   4.330   4.333  0.9094 -0.9644  0.9532
 9620TIP3    H250352   5.712   4.210   4.277 -0.6171 -0.0961  0.9738
 9621TIP3   OH250353   5.101   5.802   1.514 -0.5462  0.0528  0.4941
 9621TIP3    H150354   5.128   5.753   1.437 -0.6274  0.8298 -0.0361
 9621TIP3    H250355   5.009   5.822   1.499 -0.6267 -0.0023  0.9059
 9622TIP3   OH250356   4.830   5.303   3.411  0.4106 -0.1240 -0.8813
 9622TIP3    H150357   4.817   5.390   3.448  0.8729  0.2579 -1.5932
 9622TIP3    H250358   4.812   5.313   3.318 -2.2533 -1.3988 -0.6058
 9623TIP3   OH250359   5.170   2.419   0.218  0.2641  0.5030 -0.6313
 9623TIP3    H150360   5.131   2.496   0.258  1.1512 -0.3936  2.2254
 9623TIP3    H250361   5.102   2.385   0.160 -0.6957  2.5380 -0.7855
 9624TIP3   OH250362   0.017   1.341  15.879 -0.4283 -0.3340 -0.3162
 9624TIP3    H150363   0.001   1.403  15.951  1.1225  0.4718 -0.6345
 9624TIP3    H250364   0.017   1.396  15.800 -0.9521 -1.0437 -0.8230
 9625TIP3   OH250365   4.273   5.790   3.432 -0.2378  0.1966  0.2855
 9625TIP3    H150366   4.330   5.716   3.411 -2.4287 -1.4388 -0.1817
 9625TIP3    H250367   4.238   5.819   3.348 -0.4435  0.9318  0.6118
 9626TIP3   OH250368   1.933   0.179  17.070 -0.1659 -0.0767 -0.0217
 9626TIP3    H150369   1.878   0.241  17.023 -0.6975 -0.3157  0.2714
 9626TIP3    H250370   1.983   0.134  17.001 -0.8588 -0.3548 -0.3490
 9627TIP3   OH250371   3.500   5.693  12.985 -0.0946 -0.4765 -0.2564
 9627TIP3    H150372   3.469   5.709  13.074  2.7608  2.0811  0.4762
 9627TIP3    H250373   3.474   5.772  12.936 -1.3244 -1.6930 -1.6697
 9628TIP3   OH250374   0.263   0.186   0.002 -0.4920  0.2266 -0.5995
 9628TIP3    H150375   0.263   0.281   0.015  1.8733  0.2529 -0.3523
 9628TIP3    H250376   0.297   0.151   0.084  0.4740 -0.6637 -1.3498
 9629TIP3   OH250377   1.058   2.632  11.491 -0.0127  0.0576 -0.4492
 9629TIP3    H150378   1.115   2.708  11.479  0.1997  0.0265  0.3369
 9629TIP3    H250379   0.969   2.667  11.482  0.0666 -0.2002 -3.6077
 9630TIP3   OH250380   3.137   2.457  12.542  0.0861 -0.2878  0.0074
 9630TIP3    H150381   3.201   2.524  12.569 -0.0304  0.1456 -0.7736
 9630TIP3    H250382   3.150   2.449  12.447  1.2547 -2.5688  0.2895
 9631TIP3   OH250383   4.161   3.963  12.757 -0.5365  0.0540  0.1204
 9631TIP3    H150384   4.159   3.887  12.699  5.1036  0.0613 -0.6402
 9631TIP3    H250385   4.161   4.038  12.698 -1.2638  0.4452  0.5999
 9632TIP3   OH250386   3.138   5.603  15.770  0.2710  0.5982 -0.1174
 9632TIP3    H150387   3.174   5.638  15.689  1.3113  0.4168  0.2567
 9632TIP3    H250388   3.106   5.680  15.817 -2.3100  0.5577 -1.5652
 9633TIP3   OH250389   0.724   0.601   5.157  0.2427 -0.1885 -0.4587
 9633TIP3    H150390   0.795   0.656   5.124  1.8335 -2.4159 -0.9648
 9633TIP3    H250391   0.760   0.560   5.236  0.8270 -3.7175 -2.3631
 9634TIP3   OH250392   5.722   5.474  12.387  0.2229  0.1536 -0.7767
 9634TIP3    H150393   5.643   5.527  12.399  0.2261 -0.0969  0.5107
 9634TIP3    H250394   5.691   5.384  12.394  0.9491 -0.0018  2.9902
 9635TIP3   OH250395   6.785   6.495   1.098 -0.2958 -0.2118 -0.0958
 9635TIP3    H150396   6.868   6.449   1.111 -0.7008 -0.3352  2.6499
 9635TIP3    H250397   6.755   6.466   1.012  1.0773 -2.5037  0.1194
 9636TIP3   OH250398   6.578   3.994   4.332  0.5573 -0.7938 -0.0379
 9636TIP3    H150399   6.598   3.904   4.358  0.2054 -1.1408 -0.9318
 9636TIP3    H250400   6.573   3.991   4.237 -2.2425 -0.4355  0.0110
 9637TIP3   OH250401   3.062   6.411   5.388  0.0485  0.7754  0.3973
 9637TIP3    H150402   2.977   6.453   5.377 -0.5236 -0.0264  1.5338
 9637TIP3    H250403   3.081   6.419   5.482  0.4640 -0.4555  0.4405
 9638TIP3   OH250404   0.213   0.651  16.408  0.1596 -0.6327 -0.1997
 9638TIP3    H150405   0.276   0.638  16.479  1.9915  2.6581 -0.9831
 9638TIP3    H250406   0.142   0.701  16.449  1.4783  1.7576 -0.6447
 9639TIP3   OH250407   5.739   6.672   1.445 -0.3362 -0.1952 -0.2212
 9639TIP3    H150408   5.709   6.631   1.526 -0.1460  1.0713  0.5226
 9639TIP3    H250409   5.686   6.631   1.377 -0.3449 -1.4507  0.5029
 9640TIP3   OH250410   1.530   0.065  10.697 -0.1779 -0.3631 -0.3311
 9640TIP3    H150411   1.566   0.127  10.761 -0.0153 -0.1772 -0.5982
 9640TIP3    H250412   1.497  -0.008  10.749 -2.1967  0.8218  0.1477
 9641TIP3   OH250413   3.204   5.883   1.001  0.3493 -0.4723  0.1063
 9641TIP3    H150414   3.292   5.846   1.007  0.3696 -0.2865  0.9714
 9641TIP3    H250415   3.159   5.825   0.940  1.1642 -0.3727 -0.6186
 9642TIP3   OH250416   0.708   2.719   2.058  0.4523  0.3258  0.1557
 9642TIP3    H150417   0.775   2.725   1.990  0.8914 -0.2781  0.5155
 9642TIP3    H250418   0.630   2.759   2.020  0.3587 -0.9919 -1.1277
 9643TIP3   OH250419   1.656   5.139  12.392 -0.2032 -0.2886 -0.3728
 9643TIP3    H150420   1.682   5.202  12.459 -1.6472  1.5214 -1.4044
 9643TIP3    H250421   1.709   5.164  12.316 -0.5428 -0.5258 -0.6882
 9644TIP3   OH250422   0.052   2.627  13.639 -0.5618 -0.1251 -0.4547
 9644TIP3    H150423   0.137   2.596  13.669  0.0799  1.7868 -0.1559
 9644TIP3    H250424  -0.011   2.566  13.677  0.5147 -0.1946  1.3284
 9645TIP3   OH250425   5.339   4.977  14.721 -0.0244 -0.0107  0.2318
 9645TIP3    H150426   5.405   4.998  14.655 -0.4244 -0.6138 -0.3747
 9645TIP3    H250427   5.271   5.043  14.708 -0.6537 -0.8151 -0.7755
 9646TIP3   OH250428   4.559   5.661   1.240  0.3369 -0.2727 -0.5751
 9646TIP3    H150429   4.566   5.584   1.296  0.0356 -0.0642 -0.2425
 9646TIP3    H250430   4.649   5.682   1.217  0.4955 -0.1772  0.0997
 9647TIP3   OH250431   5.781   6.060   2.033  0.1905 -0.2269  0.3158
 9647TIP3    H150432   5.701   6.114   2.040  0.4083  0.1131  0.1961
 9647TIP3    H250433   5.809   6.047   2.124  0.7513  0.7915  0.3033
 9648TIP3   OH250434   0.735   1.236   4.844  0.4063 -0.5642 -0.0608
 9648TIP3    H150435   0.807   1.293   4.819  1.3780 -1.7729 -0.0876
 9648TIP3    H250436   0.770   1.148   4.836 -1.5264 -1.2672 -1.5094
 9649TIP3   OH250437   1.531   0.378  15.323  0.0842  0.0826  0.2380
 9649TIP3    H150438   1.462   0.321  15.357  1.8833 -1.3856  1.6544
 9649TIP3    H250439   1.506   0.394  15.232 -2.3881  0.1081  0.8433
 9650TIP3   OH250440   4.367   1.506  14.290 -0.2086 -0.2101  0.0289
 9650TIP3    H150441   4.329   1.419  14.277 -1.3280  0.4474 -1.2602
 9650TIP3    H250442   4.295   1.559  14.324  0.8429 -0.1032  2.3053
 9651TIP3   OH250443   4.060   3.488   0.927 -0.5659  0.6170 -0.1847
 9651TIP3    H150444   4.010   3.569   0.928 -1.6357 -0.0121 -0.3633
 9651TIP3    H250445   4.060   3.461   0.835  0.1694  0.6510 -0.1935
 9652TIP3   OH250446   1.804   3.491  15.437  0.2286 -0.8581  0.2030
 9652TIP3    H150447   1.894   3.479  15.408  0.5981  0.2676  0.7946
 9652TIP3    H250448   1.764   3.404  15.430  1.5082 -1.4887  0.4455
 9653TIP3   OH250449   2.049   0.556  11.545  0.1761  0.1356  0.8209
 9653TIP3    H150450   2.081   0.517  11.463  0.9799  1.7706  0.3024
 9653TIP3    H250451   1.971   0.605  11.519  0.8757  1.3052  0.8460
 9654TIP3   OH250452   2.947   1.276  16.858  0.1058  0.3415  0.6003
 9654TIP3    H150453   2.962   1.306  16.947  0.8033  0.6685  0.3832
 9654TIP3    H250454   2.989   1.191  16.853  4.1414  2.1546 -0.6200
 9655TIP3   OH250455   3.092   2.397   4.485 -0.6986 -0.2349 -0.2910
 9655TIP3    H150456   3.107   2.482   4.443  0.6581 -0.4921 -0.3691
 9655TIP3    H250457   3.006   2.370   4.455 -0.4253  0.3285 -1.6529
 9656TIP3   OH250458   6.633   5.060  14.279 -0.1716 -0.2429 -0.2381
 9656TIP3    H150459   6.539   5.058  14.297 -0.0239  2.0909  1.2085
 9656TIP3    H250460   6.639   5.045  14.185 -1.8624 -1.7918 -0.1558
 9657TIP3   OH250461   6.135   4.805   2.769 -0.2775 -0.3605  0.0911
 9657TIP3    H150462   6.119   4.744   2.697  0.3291  0.6552 -0.9427
 9657TIP3    H250463   6.154   4.749   2.844  1.0440 -1.4425 -1.0060
 9658TIP3   OH250464   3.066   5.372   3.628 -0.0023 -0.3238  0.0584
 9658TIP3    H150465   3.152   5.410   3.609 -0.2546  0.2114 -0.0269
 9658TIP3    H250466   3.075   5.280   3.602  0.8957 -0.5573  1.1313
 9659TIP3   OH250467   6.271   5.227   4.053 -0.0153 -0.4473  0.4424
 9659TIP3    H150468   6.243   5.319   4.058 -0.1931 -0.5291  1.0741
 9659TIP3    H250469   6.195   5.178   4.084 -0.0002 -0.8246 -0.1153
 9660TIP3   OH250470   3.271   0.254  16.112 -0.4063 -0.1630  0.6531
 9660TIP3    H150471   3.248   0.310  16.187  0.5896  0.1637  0.7321
 9660TIP3    H250472   3.358   0.220  16.134 -0.7125 -1.1991  0.2832
 9661TIP3   OH250473   0.353   6.504  15.418 -0.3042 -0.5315  0.0830
 9661TIP3    H150474   0.359   6.409  15.416 -2.3111 -0.7386  0.8578
 9661TIP3    H250475   0.377   6.532  15.329  0.3065 -1.7400 -0.1516
 9662TIP3   OH250476   3.196   2.035  13.427  0.1628  0.6517  0.2505
 9662TIP3    H150477   3.285   2.002  13.422  0.2306  1.0102 -1.1165
 9662TIP3    H250478   3.158   1.989  13.502  0.8745 -0.9998 -0.3728
 9663TIP3   OH250479   0.168   4.005   3.572 -0.8336 -0.1868  0.5769
 9663TIP3    H150480   0.151   3.915   3.545  0.4602  0.0158 -1.1058
 9663TIP3    H250481   0.081   4.041   3.591 -1.2657 -2.1741  2.8373
 9664TIP3   OH250482   3.946   1.953   5.360  0.0679 -0.3462  0.1850
 9664TIP3    H150483   4.004   1.898   5.412  0.7776  1.8784  1.9252
 9664TIP3    H250484   3.858   1.934   5.393  0.2950 -0.4954  0.7081
 9665TIP3   OH250485   5.953   1.925  12.803  0.8711  0.3669  0.5879
 9665TIP3    H150486   5.968   1.931  12.898 -0.6812  0.4439  0.8524
 9665TIP3    H250487   5.871   1.877  12.795  2.4893 -2.4041 -0.8436
 9666TIP3   OH250488   5.603   1.777  14.644  0.2146  0.2173 -0.5379
 9666TIP3    H150489   5.519   1.822  14.631 -0.1207  0.2542  1.3834
 9666TIP3    H250490   5.669   1.844  14.626 -0.2599  1.1154  0.8338
 9667TIP3   OH250491   4.763   1.613  13.359 -0.7820  0.2710  0.4928
 9667TIP3    H150492   4.796   1.541  13.412  1.2039  1.5764  1.1538
 9667TIP3    H250493   4.820   1.687  13.381 -1.9767  1.7319 -1.0425
 9668TIP3   OH250494   1.913   1.644   6.440 -0.0317 -0.4490  0.3270
 9668TIP3    H150495   1.991   1.695   6.418 -1.0968  0.3832 -1.7339
 9668TIP3    H250496   1.895   1.668   6.531  0.6486  1.3701  0.0436
 9669TIP3   OH250497   0.570   6.288   3.975  0.0103  0.2638  0.2099
 9669TIP3    H150498   0.520   6.289   3.894  1.5923  0.6903 -0.8085
 9669TIP3    H250499   0.659   6.266   3.948  0.7371  1.1710  1.7348
 9670TIP3   OH250500   4.092   5.482   3.492  0.3279 -0.2461 -0.0887
 9670TIP3    H150501   4.136   5.507   3.573 -0.2642 -1.4856  0.6490
 9670TIP3    H250502   4.155   5.424   3.448  0.7826  0.6842 -0.7003
 9671TIP3   OH250503   4.772   0.020   3.172  0.2104  0.0054 -0.1080
 9671TIP3    H150504   4.751   0.106   3.136 -0.5975  0.7857  2.0756
 9671TIP3    H250505   4.826   0.038   3.249 -0.7497 -1.3597  0.9410
 9672TIP3   OH250506   3.103   0.198  15.575  0.1331  0.6321 -0.0943
 9672TIP3    H150507   3.069   0.239  15.496  0.3840  1.3483  0.1624
 9672TIP3    H250508   3.092   0.104  15.560  0.5770  0.7364 -1.1614
 9673TIP3   OH250509   5.232   1.908  12.004 -0.0824 -0.3081 -0.3778
 9673TIP3    H150510   5.182   1.952  12.073 -0.6116 -3.3039  1.3057
 9673TIP3    H250511   5.208   1.954  11.924 -2.3300  0.9815  0.9278
 9674TIP3   OH250512   3.002   6.340   0.449  0.1770  0.1429 -0.0727
 9674TIP3    H150513   3.053   6.268   0.486  0.7837 -0.7718 -2.4979
 9674TIP3    H250514   2.916   6.332   0.490  0.3706 -1.6922  0.0474
 9675TIP3   OH250515   5.452   0.168   4.545 -0.6023 -0.6054 -0.3475
 9675TIP3    H150516   5.407   0.244   4.582  1.0636 -0.8155  2.3752
 9675TIP3    H250517   5.544   0.193   4.544 -0.1872 -2.0570 -0.7610
 9676TIP3   OH250518   0.211   4.426  15.814 -0.4641  0.2240  0.1372
 9676TIP3    H150519   0.160   4.428  15.894  0.9503  1.5286  1.0556
 9676TIP3    H250520   0.300   4.407  15.842  0.0588  0.6602 -1.1271
 9677TIP3   OH250521   6.281   5.210  11.135 -0.1422 -0.3427  0.0825
 9677TIP3    H150522   6.332   5.250  11.206 -0.4565 -0.1011  0.1773
 9677TIP3    H250523   6.310   5.119  11.132  1.6770  0.2287 -1.1299
 9678TIP3   OH250524   1.919   0.154  13.970 -0.0856  0.0198 -0.1090
 9678TIP3    H150525   1.927   0.172  13.876  2.2590  0.3738  0.0870
 9678TIP3    H250526   2.001   0.110  13.992  1.2621  3.3713  2.4907
 9679TIP3   OH250527   0.096   4.364   3.342 -0.1514 -0.5861 -0.1173
 9679TIP3    H150528   0.175   4.383   3.291  0.7070 -2.0468  0.5983
 9679TIP3    H250529   0.051   4.296   3.291 -1.1625  0.5068 -0.7116
 9680TIP3   OH250530   5.696   5.466   5.328  0.1910  0.2432  0.7237
 9680TIP3    H150531   5.615   5.427   5.361 -0.0223  1.4449  1.6721
 9680TIP3    H250532   5.690   5.558   5.352  2.0329  0.2770  1.1903
 9681TIP3   OH250533   2.856   4.217  10.919  0.4046 -0.0712 -0.1367
 9681TIP3    H150534   2.880   4.124  10.920 -0.0373 -0.1915 -0.2807
 9681TIP3    H250535   2.775   4.220  10.868 -0.3656  0.1912  1.0431
 9682TIP3   OH250536   1.135   6.372  14.449  0.3884 -0.2656  0.4112
 9682TIP3    H150537   1.190   6.335  14.380 -0.2754 -0.7719  0.1514
 9682TIP3    H250538   1.184   6.450  14.478  1.5264 -1.0164  0.5927
 9683TIP3   OH250539   0.701   3.167   2.932 -0.2603  0.3256  0.2829
 9683TIP3    H150540   0.668   3.109   2.863 -0.7379 -0.4185  1.1278
 9683TIP3    H250541   0.783   3.201   2.897 -1.3332  1.3496 -1.4044
 9684TIP3   OH250542   0.837   1.758  12.261 -0.2066 -0.8315 -0.1859
 9684TIP3    H150543   0.775   1.687  12.276  0.9479 -1.7623  0.3552
 9684TIP3    H250544   0.811   1.796  12.177 -0.8483 -1.8873 -0.4786
 9685TIP3   OH250545   5.910   5.881  12.864 -0.1648 -0.1056 -1.0413
 9685TIP3    H150546   5.861   5.892  12.946  0.5276 -0.5558 -0.5541
 9685TIP3    H250547   5.843   5.874  12.796 -0.9009 -2.9183 -0.1614
 9686TIP3   OH250548   6.127   6.217   4.824  0.1511 -0.6456  0.2035
 9686TIP3    H150549   6.160   6.280   4.760  0.7150 -0.1734  0.9318
 9686TIP3    H250550   6.206   6.182   4.866 -0.2249 -0.2565  1.2669
 9687TIP3   OH250551   3.917   0.243  16.815  0.5954 -0.4342 -0.1948
 9687TIP3    H150552   3.952   0.153  16.813 -0.6872 -0.9364 -0.8235
 9687TIP3    H250553   3.901   0.260  16.908  2.9801  0.0378  0.2061
 9688TIP3   OH250554   4.661   2.107  14.489 -0.1902 -0.3092 -0.7061
 9688TIP3    H150555   4.585   2.059  14.456 -0.4249 -0.4515  0.0169
 9688TIP3    H250556   4.631   2.146  14.571  0.3021  0.2417 -0.7826
 9689TIP3   OH250557   2.321   1.634  13.129  0.1509  0.2393  0.5321
 9689TIP3    H150558   2.293   1.686  13.205  0.5614  0.8409  0.2773
 9689TIP3    H250559   2.242   1.589  13.100 -0.0376  0.1061  1.2403
 9690TIP3   OH250560   0.044   2.837   2.265 -0.0925 -0.5896 -0.1345
 9690TIP3    H150561   0.118   2.888   2.297  0.6190 -0.7965 -1.3950
 9690TIP3    H250562   0.063   2.822   2.172 -2.8214  1.3528 -1.1389
 9691TIP3   OH250563   0.619   1.759   1.884  0.1171 -0.4873 -0.4135
 9691TIP3    H150564   0.528   1.742   1.861 -0.0836 -1.5471  1.0273
 9691TIP3    H250565   0.629   1.854   1.878 -0.4448 -0.4960 -2.7121
 9692TIP3   OH250566   1.776   6.167   1.426  0.0018 -0.0473 -0.1542
 9692TIP3    H150567   1.813   6.100   1.484  0.1518 -0.4495 -0.7003
 9692TIP3    H250568   1.686   6.177   1.454 -0.5628 -1.7812 -1.1724
 9693TIP3   OH250569   1.006   5.071  11.914 -0.1700  0.1659  0.3265
 9693TIP3    H150570   1.098   5.087  11.897 -0.3660  0.2649 -0.6890
 9693TIP3    H250571   0.972   5.036  11.832 -1.0972  0.4054  0.5931
 9694TIP3   OH250572   4.355   2.617   2.501  0.5190  0.2812 -0.1646
 9694TIP3    H150573   4.360   2.703   2.460 -1.5811  0.1126 -0.9207
 9694TIP3    H250574   4.299   2.566   2.443  0.4766 -1.1246  1.0393
 9695TIP3   OH250575   4.891   1.597   3.040 -0.6624 -0.2416 -0.6438
 9695TIP3    H150576   4.936   1.579   2.958 -0.2901  0.3912 -0.5836
 9695TIP3    H250577   4.879   1.692   3.041 -0.1588 -0.1697  0.2804
 9696TIP3   OH250578   3.653   5.701   1.382  0.4214  0.0594  0.0781
 9696TIP3    H150579   3.666   5.675   1.473  0.6196  0.3298  0.1293
 9696TIP3    H250580   3.558   5.699   1.369  0.2705  1.4653  0.7338
 9697TIP3   OH250581   0.176   5.023   5.763 -0.2311 -0.1589  0.1312
 9697TIP3    H150582   0.152   4.988   5.677 -0.0639  1.3515 -0.5651
 9697TIP3    H250583   0.240   5.091   5.743  1.4130 -1.1872  1.6170
 9698TIP3   OH250584   6.307   6.004  11.405  0.3040  0.4426 -0.5915
 9698TIP3    H150585   6.264   5.980  11.323 -3.0479  0.4979  1.0148
 9698TIP3    H250586   6.320   5.921  11.450 -0.6805  0.6334  0.0727
 9699TIP3   OH250587   1.134   3.635  15.837  0.0574 -0.1225  0.4150
 9699TIP3    H150588   1.192   3.704  15.867  2.2996 -1.2726 -1.0288
 9699TIP3    H250589   1.166   3.556  15.881 -0.5759 -0.7429 -0.2170
 9700TIP3   OH250590   5.932   1.918   4.677 -0.1703 -0.0337  0.0204
 9700TIP3    H150591   5.923   1.998   4.730  1.5061  1.1880 -1.4051
 9700TIP3    H250592   5.883   1.937   4.598  0.9980 -0.0084 -0.7202
 9701TIP3   OH250593   2.071   0.461  11.121 -0.0596 -0.3612 -0.1604
 9701TIP3    H150594   2.166   0.462  11.113 -0.1269  0.6008 -1.0052
 9701TIP3    H250595   2.039   0.479  11.033 -1.0402 -1.2118  0.0032
 9702TIP3   OH250596   1.597   1.650  16.628  0.1612 -0.5591 -0.4589
 9702TIP3    H150597   1.656   1.577  16.647 -1.4575 -1.9860 -0.6410
 9702TIP3    H250598   1.585   1.693  16.713 -1.5481 -2.6440  0.4405
 9703TIP3   OH250599   4.883   5.487   5.171 -0.2559  0.6496 -0.2824
 9703TIP3    H150600   4.828   5.562   5.196  0.3023  1.7992 -2.2683
 9703TIP3    H250601   4.881   5.487   5.075  1.1312 -0.8519 -0.3477
 9704TIP3   OH250602   5.181   1.016  11.586  0.4109 -0.3354  0.1673
 9704TIP3    H150603   5.265   0.992  11.624 -0.0259  0.9250  2.1173
 9704TIP3    H250604   5.122   0.945  11.613  0.7820 -1.1243 -1.0420
 9705TIP3   OH250605   3.721   2.963   5.196 -0.1269  0.8782 -0.1000
 9705TIP3    H150606   3.682   3.034   5.146 -2.2824 -0.5022 -0.5241
 9705TIP3    H250607   3.647   2.921   5.240  1.0327 -1.1806  0.0201
 9706TIP3   OH250608   0.053   0.297  15.763 -0.3290  0.4366  0.3250
 9706TIP3    H150609   0.082   0.244  15.688 -0.5274 -2.0094  1.8734
 9706TIP3    H250610  -0.035   0.264  15.783  0.7729 -1.1227  3.3365
 9707TIP3   OH250611   6.475   0.812  14.966 -0.4144 -0.3715 -0.4562
 9707TIP3    H150612   6.478   0.724  15.004 -1.1238 -0.9474 -1.7029
 9707TIP3    H250613   6.538   0.808  14.894 -0.9144 -0.0453 -0.9087
 9708TIP3   OH250614   5.635   1.831   3.411 -0.2073 -0.6087  0.1691
 9708TIP3    H150615   5.681   1.914   3.424  0.8957 -1.1373 -0.2823
 9708TIP3    H250616   5.584   1.820   3.491 -2.2043  1.6105 -0.6661
 9709TIP3   OH250617   0.897   2.936   3.038 -0.9188 -0.4962 -0.1428
 9709TIP3    H150618   0.944   2.978   2.966  0.5635 -1.2670  0.3360
 9709TIP3    H250619   0.920   2.989   3.115 -1.6276 -0.3111 -0.0561
 9710TIP3   OH250620   0.668   3.527   2.917  0.0481 -0.3346 -0.5487
 9710TIP3    H150621   0.597   3.543   2.855 -0.6152 -0.5014  0.1553
 9710TIP3    H250622   0.636   3.456   2.973  0.5877 -0.1132  0.0504
 9711TIP3   OH250623   0.195   2.333   2.155  0.2537  0.5726  0.6015
 9711TIP3    H150624   0.219   2.280   2.232  2.9974  2.2128  1.0132
 9711TIP3    H250625   0.124   2.389   2.186 -0.2610 -0.3982  1.2206
 9712TIP3   OH250626   0.831   2.695  16.686 -0.2754  1.0150 -0.1221
 9712TIP3    H150627   0.912   2.644  16.684  0.8177  2.7011 -0.3084
 9712TIP3    H250628   0.767   2.636  16.725  1.4170  0.1446  1.4895
 9713TIP3   OH250629   1.023   0.529   5.897 -0.2801  0.3705  0.4194
 9713TIP3    H150630   1.043   0.614   5.937  0.0009 -0.1636  1.4314
 9713TIP3    H250631   1.109   0.495   5.871 -0.2937 -0.0369  0.9069
 9714TIP3   OH250632   0.305   5.553  15.006  0.2603  0.2493  0.0330
 9714TIP3    H150633   0.357   5.525  14.930 -3.0764 -0.1931 -2.3038
 9714TIP3    H250634   0.290   5.646  14.992  1.4893  0.7085  1.4714
 9715TIP3   OH250635   6.636   2.537  16.448 -0.2062  0.2513  0.0733
 9715TIP3    H150636   6.719   2.503  16.482  1.0589  0.4542 -2.5946
 9715TIP3    H250637   6.569   2.491  16.500  1.5111  0.0076  2.2400
 9716TIP3   OH250638   0.617   1.035  16.833 -0.0527  0.3125 -0.3849
 9716TIP3    H150639   0.632   1.130  16.834  0.2876  0.2643 -0.8486
 9716TIP3    H250640   0.701   0.998  16.858  0.4263  0.0661 -2.2334
 9717TIP3   OH250641   5.556   0.335   0.526 -0.3389  0.5280  0.0776
 9717TIP3    H150642   5.565   0.247   0.562 -0.3059  0.2939 -0.4847
 9717TIP3    H250643   5.643   0.355   0.490 -1.1031 -0.5136 -2.6568
 9718TIP3   OH250644   6.190   5.366  14.940  0.0376 -0.1410  0.1606
 9718TIP3    H150645   6.277   5.330  14.957 -0.3744 -1.2397 -0.0157
 9718TIP3    H250646   6.158   5.394  15.026 -0.1372 -1.3459  0.4975
 9719TIP3   OH250647   0.954   5.195  15.549  0.3915 -0.4601  0.0006
 9719TIP3    H150648   0.992   5.119  15.593 -0.7769 -0.9698  0.1751
 9719TIP3    H250649   0.887   5.226  15.610 -0.9255 -0.8907 -1.2007
 9720TIP3   OH250650   0.991   0.498   0.806 -0.4060  0.0708  0.2670
 9720TIP3    H150651   1.025   0.412   0.830 -3.2683 -0.7222  2.0224
 9720TIP3    H250652   1.059   0.559   0.833  0.5052 -1.4945  1.7434
 9721TIP3   OH250653   2.807   3.730  14.180  0.1965  0.2645  0.6796
 9721TIP3    H150654   2.727   3.678  14.166 -0.6248  2.0582 -2.1780
 9721TIP3    H250655   2.862   3.710  14.104  1.4062  0.9360  1.3527
 9722TIP3   OH250656   3.737   0.360   1.805 -0.5179  0.2009 -0.4130
 9722TIP3    H150657   3.720   0.453   1.823  1.3724  0.2573  1.5773
 9722TIP3    H250658   3.824   0.360   1.765  0.0996 -0.7399  0.8502
 9723TIP3   OH250659   4.750   5.900   4.406  0.1735  0.2768 -0.8778
 9723TIP3    H150660   4.733   5.901   4.312 -0.1196 -1.0209 -0.8591
 9723TIP3    H250661   4.830   5.951   4.416 -1.1392  2.5838 -1.5029
 9724TIP3   OH250662   6.057   2.891  11.141  0.3805 -0.4465  0.6171
 9724TIP3    H150663   6.144   2.888  11.180  0.1654  2.5117  1.5753
 9724TIP3    H250664   6.063   2.959  11.074 -0.6804 -1.6970 -0.8295
 9725TIP3   OH250665   2.280   5.100  11.299  0.3053 -0.3656  0.3083
 9725TIP3    H150666   2.235   5.016  11.289  0.7844 -0.7492  1.1994
 9725TIP3    H250667   2.286   5.112  11.394  2.2943 -0.4504  0.2245
 9726TIP3   OH250668   1.633   4.300   5.668  0.6872  0.1700 -0.0913
 9726TIP3    H150669   1.611   4.215   5.630 -0.8396  0.5903 -0.1856
 9726TIP3    H250670   1.707   4.281   5.726  0.2479 -1.2651  0.0474
 9727TIP3   OH250671   2.984   0.878  13.838  0.4046  0.4085  0.0539
 9727TIP3    H150672   3.044   0.852  13.908  1.8487 -1.3630 -1.7108
 9727TIP3    H250673   2.898   0.849  13.868  0.7652  0.8422  1.6110
 9728TIP3   OH250674   6.097   3.183   5.934  0.2191 -0.3217 -0.4107
 9728TIP3    H150675   6.051   3.122   5.990  0.7261 -1.3747 -1.1125
 9728TIP3    H250676   6.171   3.214   5.986  2.6894 -3.8475 -1.4839
 9729TIP3   OH250677   2.627   1.902   6.001  0.5695 -0.4270 -0.4329
 9729TIP3    H150678   2.599   1.963   6.069  0.3832  1.1588 -1.8745
 9729TIP3    H250679   2.627   1.816   6.044  0.1552  0.4778  1.4562
 9730TIP3   OH250680   4.122   5.252  13.803 -0.4259  0.2999  0.1948
 9730TIP3    H150681   4.089   5.163  13.818  0.3135  0.1068  0.7086
 9730TIP3    H250682   4.045   5.308  13.818 -0.4067 -0.0992  2.0071
 9731TIP3   OH250683   1.034   3.656   0.279  0.5253 -0.2130  0.2191
 9731TIP3    H150684   1.020   3.649   0.184  2.4685 -0.1715 -0.1283
 9731TIP3    H250685   0.948   3.676   0.315 -0.4109 -0.9867 -1.4528
 9732TIP3   OH250686   1.896   4.036   2.637  0.9166 -0.5138  0.6368
 9732TIP3    H150687   1.894   4.122   2.680  2.2095 -1.2436  2.2462
 9732TIP3    H250688   1.982   4.031   2.596 -0.2142  0.0773 -1.9861
 9733TIP3   OH250689   6.134   4.238   2.215 -0.2850 -0.1973  0.6849
 9733TIP3    H150690   6.205   4.257   2.277 -0.0692  1.3113  0.0229
 9733TIP3    H250691   6.174   4.178   2.151  1.1515  2.2792 -0.9114
 9734TIP3   OH250692   1.650   2.621  13.989 -0.2767  0.0414 -0.6342
 9734TIP3    H150693   1.744   2.618  13.970 -0.2066 -1.2988 -0.1678
 9734TIP3    H250694   1.615   2.540  13.951 -0.7206 -0.9879  1.7993
 9735TIP3   OH250695   2.311   1.804   3.679  0.1183 -0.2932  0.2915
 9735TIP3    H150696   2.283   1.713   3.674  0.8686 -0.5245  0.0969
 9735TIP3    H250697   2.235   1.855   3.649 -0.2745 -0.8581  0.3216
 9736TIP3   OH250698   4.866   0.963  14.850 -0.0852 -0.6055  0.2072
 9736TIP3    H150699   4.936   0.908  14.885  1.0382  1.1385  0.8692
 9736TIP3    H250700   4.797   0.960  14.916 -0.1092 -1.3104  0.1605
 9737TIP3   OH250701   4.810   3.145   0.326 -0.2317  0.1756 -0.8210
 9737TIP3    H150702   4.800   3.235   0.357  2.4271 -0.0921  1.1817
 9737TIP3    H250703   4.804   3.151   0.231 -3.4989  1.8890 -0.6232
 9738TIP3   OH250704   1.688   4.225  14.661 -0.1325  0.2801 -0.1694
 9738TIP3    H150705   1.666   4.311  14.626 -0.8940  0.6370  1.1032
 9738TIP3    H250706   1.612   4.170  14.643 -0.7020  0.5769  1.2099
 9739TIP3   OH250707   2.758   5.858  11.688  0.0454 -0.2029  1.1387
 9739TIP3    H150708   2.713   5.843  11.771 -1.1816  1.2720  0.7790
 9739TIP3    H250709   2.820   5.929  11.706 -0.6853  0.5677  0.6444
 9740TIP3   OH250710   2.230   3.218   5.614  0.1723  0.0605 -0.0772
 9740TIP3    H150711   2.245   3.143   5.556  2.2046  1.2345 -1.1650
 9740TIP3    H250712   2.136   3.234   5.608 -0.2644 -2.2004 -0.0378
 9741TIP3   OH250713   1.687   3.489  17.062 -0.1115 -0.4506 -0.2492
 9741TIP3    H150714   1.765   3.544  17.053  0.0608 -0.7484 -0.6247
 9741TIP3    H250715   1.659   3.501  17.152 -0.5148  0.8258 -0.5284
 9742TIP3   OH250716   5.837   4.268   1.393  0.5376 -0.0735 -0.1535
 9742TIP3    H150717   5.830   4.322   1.315  0.7026 -2.1406 -1.6937
 9742TIP3    H250718   5.922   4.289   1.430  0.9988  0.0653 -1.2563
 9743TIP3   OH250719   2.236   0.452  16.125 -0.3009 -0.2094  0.3613
 9743TIP3    H150720   2.205   0.362  16.132  1.9190 -1.2761 -1.7890
 9743TIP3    H250721   2.215   0.477  16.035 -2.5221  2.1952  1.4345
 9744TIP3   OH250722   6.160   0.475   5.324  0.1612  0.2628 -0.1630
 9744TIP3    H150723   6.190   0.387   5.347 -0.3431  0.0406 -0.3442
 9744TIP3    H250724   6.147   0.518   5.408 -1.3223 -0.4292 -0.0117
 9745TIP3   OH250725   4.891   5.176  14.588 -0.1513  0.1600  0.5769
 9745TIP3    H150726   4.867   5.268  14.572 -0.4311 -0.0695 -0.4123
 9745TIP3    H250727   4.810   5.136  14.622 -0.7104 -0.2013 -1.0664
 9746TIP3   OH250728   6.284   3.751   6.619 -0.7756 -0.6567  0.6536
 9746TIP3    H150729   6.348   3.701   6.568 -1.4369 -1.1556  0.2951
 9746TIP3    H250730   6.308   3.842   6.605 -0.3677 -0.8266  0.2153
 9747TIP3   OH250731   2.573   5.753  11.307  0.6094  0.0068  0.3162
 9747TIP3    H150732   2.647   5.712  11.350  0.7114  1.4732  1.6380
 9747TIP3    H250733   2.566   5.840  11.347 -2.7715 -0.6136  1.4180
 9748TIP3   OH250734   0.247   4.539  16.450 -0.1752 -0.1075  0.0931
 9748TIP3    H150735   0.183   4.477  16.486  1.5170 -1.0453  1.6351
 9748TIP3    H250736   0.328   4.489  16.442  0.6904  1.3421 -0.7403
 9749TIP3   OH250737   0.414   1.858   5.273  0.0950 -0.0174  0.3749
 9749TIP3    H150738   0.448   1.945   5.297 -0.1049 -0.3485  1.9893
 9749TIP3    H250739   0.473   1.827   5.205  0.3340  1.2727 -0.0418
 9750TIP3   OH250740   3.398   0.485  14.402  0.0159  0.2986 -0.2004
 9750TIP3    H150741   3.333   0.531  14.349 -0.6481 -1.7758 -1.3074
 9750TIP3    H250742   3.482   0.511  14.364 -0.3505  0.3822 -0.9867
 9751TIP3   OH250743   6.449   0.512  15.945 -0.6900 -0.0985  0.0623
 9751TIP3    H150744   6.373   0.482  15.995 -0.2865  3.0709  2.9484
 9751TIP3    H250745   6.413   0.567  15.876 -1.1191  0.9490  1.0862
 9752TIP3   OH250746   3.285   0.726  12.566  0.2275 -0.2794  0.0158
 9752TIP3    H150747   3.191   0.712  12.560  0.4121 -2.1220  0.5238
 9752TIP3    H250748   3.298   0.764  12.653 -0.1048  0.9188 -0.4383
 9753TIP3   OH250749   5.659   6.256  16.876 -0.3417 -0.6217 -0.0312
 9753TIP3    H150750   5.669   6.164  16.903  2.2992 -0.0732  1.1534
 9753TIP3    H250751   5.622   6.299  16.953  0.7513 -0.2826  0.3212
 9754TIP3   OH250752   5.700   3.316   5.200 -0.4199 -0.3869 -0.1545
 9754TIP3    H150753   5.785   3.279   5.176 -0.8564 -1.2019 -0.4439
 9754TIP3    H250754   5.668   3.260   5.270  0.2729  1.2357  1.5452
 9755TIP3   OH250755   5.756   0.870  11.627 -0.2480  0.1547 -0.1714
 9755TIP3    H150756   5.799   0.802  11.575  1.0867  1.7537 -1.2880
 9755TIP3    H250757   5.827   0.930  11.651 -1.5599  1.8958 -0.4309
 9756TIP3   OH250758   2.995   0.763  15.524 -0.3729  0.1872 -0.1151
 9756TIP3    H150759   3.076   0.792  15.567  0.4912 -2.3061  0.1152
 9756TIP3    H250760   3.024   0.703  15.455 -1.9940 -0.0095 -0.6752
 9757TIP3   OH250761   5.063   3.789   3.519 -0.7200 -0.4587  0.5181
 9757TIP3    H150762   5.149   3.830   3.515 -0.8708 -0.2336 -0.8056
 9757TIP3    H250763   5.025   3.821   3.601 -0.6565  1.7263 -0.2459
 9758TIP3   OH250764   0.730   6.264   3.534 -0.1267  0.2764  0.0045
 9758TIP3    H150765   0.784   6.185   3.539 -0.2197  0.1253 -1.1417
 9758TIP3    H250766   0.763   6.320   3.604 -0.9703 -1.3158  1.7415
 9759TIP3   OH250767   2.901   4.483  14.582  0.8592 -0.0194 -0.3618
 9759TIP3    H150768   2.868   4.537  14.654  1.0842  0.3530 -0.5345
 9759TIP3    H250769   2.960   4.541  14.534 -0.4402  0.2097 -1.7309
 9760TIP3   OH250770   1.019   3.720   1.144 -0.2272  0.1386 -0.3263
 9760TIP3    H150771   1.050   3.650   1.202  1.4446  0.3228 -0.9201
 9760TIP3    H250772   0.976   3.675   1.072 -0.7882 -0.1804  0.2081
 9761TIP3   OH250773   1.754   1.450  10.899 -0.2562 -0.6265  0.4480
 9761TIP3    H150774   1.790   1.366  10.872  1.8043  0.3285  0.0158
 9761TIP3    H250775   1.725   1.491  10.818 -1.9696 -1.1872  0.7413
 9762TIP3   OH250776   2.770   2.658  16.606  0.0798  0.2963  0.2716
 9762TIP3    H150777   2.687   2.661  16.654  0.4581  1.1487  0.8999
 9762TIP3    H250778   2.774   2.569  16.571 -0.5767 -0.1069  1.1745
 9763TIP3   OH250779   1.126   6.616   4.767 -0.1546  0.5390 -0.4876
 9763TIP3    H150780   1.077   6.565   4.703 -0.8094  1.3840 -0.6816
 9763TIP3    H250781   1.170   6.684   4.715  0.9679  0.0061 -0.2727
 9764TIP3   OH250782   6.147   0.634  11.835 -0.1321 -0.1343  0.0524
 9764TIP3    H150783   6.064   0.666  11.870  0.7200  1.3778  0.7513
 9764TIP3    H250784   6.212   0.660  11.899  0.8935 -1.4799 -0.3866
 9765TIP3   OH250785   4.192   2.777   2.059  0.6911 -0.1601  0.1794
 9765TIP3    H150786   4.272   2.755   2.009  0.6805  2.6144 -1.2828
 9765TIP3    H250787   4.141   2.830   1.998 -1.1132  0.2551  1.9784
 9766TIP3   OH250788   3.818   2.107   0.278 -0.5507  0.1719  0.0332
 9766TIP3    H150789   3.733   2.064   0.284 -1.4981  1.8646 -0.6027
 9766TIP3    H250790   3.855   2.077   0.195 -0.8575  0.0125 -0.0470
 9767TIP3   OH250791   0.975   0.012   1.212 -0.2060 -0.2384 -0.0550
 9767TIP3    H150792   1.032  -0.001   1.288 -1.0564 -0.0420  0.6285
 9767TIP3    H250793   0.898   0.057   1.247  0.3371  1.9015 -1.4016
 9768TIP3   OH250794   6.779   4.101   1.667 -0.3784 -0.0730 -0.6330
 9768TIP3    H150795   6.697   4.109   1.618 -0.6811 -0.5423 -0.2119
 9768TIP3    H250796   6.810   4.191   1.677 -1.0203  0.1372 -0.4916
 9769TIP3   OH250797   2.099   5.843  11.949 -0.1610  0.3033 -0.4420
 9769TIP3    H150798   2.156   5.778  11.908  1.3005  1.2945 -0.0644
 9769TIP3    H250799   2.034   5.864  11.881 -0.0812 -0.8314 -0.8931
 9770TIP3   OH250800   6.197   0.122   1.642  0.0900 -0.0407  0.0552
 9770TIP3    H150801   6.146   0.065   1.584 -0.6484 -1.0828  1.6412
 9770TIP3    H250802   6.287   0.092   1.632 -0.2434 -1.3011  0.6035
 9771TIP3   OH250803   1.473   2.287   4.740  0.3224  0.2250 -0.2039
 9771TIP3    H150804   1.556   2.257   4.704  0.9829  2.2916 -0.5292
 9771TIP3    H250805   1.427   2.326   4.665  0.4095  1.8450  0.5298
 9772TIP3   OH250806   6.594   1.775   0.405 -0.7293  0.0956  0.2984
 9772TIP3    H150807   6.521   1.767   0.466  0.4391  0.1258  1.7699
 9772TIP3    H250808   6.656   1.833   0.449 -0.3391  1.0949 -1.4582
 9773TIP3   OH250809   2.462   6.453  15.757  0.5581  0.3831 -0.1480
 9773TIP3    H150810   2.514   6.390  15.806  0.8796  1.0426  0.3771
 9773TIP3    H250811   2.375   6.448  15.796  1.0682  1.6516  1.2318
 9774TIP3   OH250812   4.216   3.230   5.786 -0.3726  0.1024  0.3370
 9774TIP3    H150813   4.243   3.316   5.755  2.3384 -0.6098  0.4532
 9774TIP3    H250814   4.231   3.172   5.712 -0.4505 -0.5396  0.8131
 9775TIP3   OH250815   6.786   1.779  12.990 -0.2464 -0.5063  0.6464
 9775TIP3    H150816   6.825   1.693  12.998 -0.3438 -0.4572  1.7859
 9775TIP3    H250817   6.845   1.827  12.932 -0.0862 -1.2660  0.1669
 9776TIP3   OH250818   1.897   6.623  17.159 -0.2929  0.4295  0.3078
 9776TIP3    H150819   1.889   6.689  17.229  0.1946  1.3146 -0.4550
 9776TIP3    H250820   1.923   6.543  17.205 -0.2515  0.9262  1.1754
 9777TIP3   OH250821   4.132   4.866   1.345  0.1470 -0.0053 -0.4157
 9777TIP3    H150822   4.075   4.790   1.344  0.0090  0.0890 -1.7462
 9777TIP3    H250823   4.080   4.936   1.305  1.0506  0.1819 -1.3028
 9778TIP3   OH250824   1.873   2.050  13.015  0.2282  0.0571 -0.3636
 9778TIP3    H150825   1.932   1.977  13.031  0.5852  0.5728  0.8015
 9778TIP3    H250826   1.788   2.010  12.998  0.0692 -0.6293  1.7905
 9779TIP3   OH250827   6.612   4.209  16.084  0.1652  1.3385 -0.3625
 9779TIP3    H150828   6.533   4.216  16.029  1.1307  1.3736 -1.8033
 9779TIP3    H250829   6.681   4.185  16.022  0.7671 -1.5556  1.2736
 9780TIP3   OH250830   6.593   1.339  14.361 -0.0843  0.0766  0.2039
 9780TIP3    H150831   6.578   1.310  14.271 -1.9498 -0.2203  0.5758
 9780TIP3    H250832   6.563   1.430  14.362  0.3655  0.2262  0.4232
 9781TIP3   OH250833   2.806   0.688  10.583  0.4759 -0.3698 -0.0948
 9781TIP3    H150834   2.738   0.666  10.520 -0.6832 -0.3072  1.0959
 9781TIP3    H250835   2.880   0.715  10.529 -0.2104 -1.0421 -1.4400
 9782TIP3   OH250836   2.934   0.168   5.789  0.0465 -0.0873 -0.3747
 9782TIP3    H150837   2.995   0.237   5.762 -1.0260  1.3482  0.6511
 9782TIP3    H250838   2.942   0.165   5.885 -0.5404 -0.7994 -0.3370
 9783TIP3   OH250839   6.626   4.053   1.442 -0.0139  0.2773  0.2840
 9783TIP3    H150840   6.542   4.095   1.420  0.7444  1.8086  0.1951
 9783TIP3    H250841   6.620   3.966   1.401 -1.8127  0.0852  0.8417
 9784TIP3   OH250842   4.572   1.080   6.342 -0.1742  0.0317  0.1523
 9784TIP3    H150843   4.574   1.163   6.293  0.0256 -0.2749 -0.3750
 9784TIP3    H250844   4.636   1.025   6.297 -2.8276 -1.6730 -1.8117
 9785TIP3   OH250845   1.274   6.212   3.323  0.2942 -0.6156 -0.1278
 9785TIP3    H150846   1.296   6.302   3.350 -0.3950 -0.1989 -0.9076
 9785TIP3    H250847   1.180   6.205   3.339  0.4970 -1.5026  0.7304
 9786TIP3   OH250848   6.363   4.205  15.967 -0.2068  0.0574 -0.1494
 9786TIP3    H150849   6.315   4.285  15.946  0.2518  0.6806  1.0752
 9786TIP3    H250850   6.296   4.139  15.981 -0.6274  0.4762 -0.1883
 9787TIP3   OH250851   3.986   0.199  14.834  0.0772  0.0353  0.2547
 9787TIP3    H150852   3.944   0.152  14.905  0.4076  0.5227  0.7859
 9787TIP3    H250853   3.918   0.258  14.800 -0.7972 -1.8145 -1.3939
 9788TIP3   OH250854   3.805   3.390  10.617  0.0436 -0.1375  0.6022
 9788TIP3    H150855   3.862   3.399  10.540  1.6210 -1.8222  1.4910
 9788TIP3    H250856   3.831   3.462  10.674 -1.4473  1.3969 -0.5603
 9789TIP3   OH250857   3.421   3.005  17.072 -0.9303  0.1605 -0.6217
 9789TIP3    H150858   3.463   3.052  17.000  1.0809  2.0359  1.5987
 9789TIP3    H250859   3.329   3.032  17.068 -0.6107  1.1704 -1.7795
 9790TIP3   OH250860   1.330   1.208  10.763 -0.3596 -0.1641 -0.2094
 9790TIP3    H150861   1.423   1.226  10.772 -0.2102 -1.6775  1.9835
 9790TIP3    H250862   1.325   1.115  10.740 -1.2891 -0.5458  1.3282
 9791TIP3   OH250863   0.377   4.107   5.026  0.5033 -0.1437  0.3485
 9791TIP3    H150864   0.400   4.184   5.078  2.0699 -1.3845  1.5940
 9791TIP3    H250865   0.460   4.062   5.011 -0.5172 -2.4041  1.0081
 9792TIP3   OH250866   3.916   4.915  15.337 -0.3261 -0.4279  0.2951
 9792TIP3    H150867   3.961   4.915  15.252 -0.4923 -0.5314  0.2078
 9792TIP3    H250868   3.913   4.823  15.362  0.8320 -0.3015  1.0003
 9793TIP3   OH250869   2.761   6.425  16.646  1.0939  0.2477  1.0859
 9793TIP3    H150870   2.688   6.487  16.654  0.4703 -0.2668 -0.3687
 9793TIP3    H250871   2.724   6.340  16.670  0.8252 -0.2489 -0.9768
 9794TIP3   OH250872   3.252   5.592  13.978  0.2061  0.0731 -0.1930
 9794TIP3    H150873   3.331   5.543  14.001  0.8404  1.4800  0.8218
 9794TIP3    H250874   3.285   5.676  13.945 -0.8481  0.1448 -1.1119
 9795TIP3   OH250875   0.209   6.176   1.448  0.2869 -0.4525  0.1656
 9795TIP3    H150876   0.292   6.157   1.404 -0.6307 -0.4946 -1.6684
 9795TIP3    H250877   0.210   6.271   1.459  0.3121 -0.3708 -0.4696
 9796TIP3   OH250878   0.475   2.845   1.969  0.1891 -0.5947 -0.2489
 9796TIP3    H150879   0.453   2.864   1.878  1.1761 -2.2868 -0.8878
 9796TIP3    H250880   0.405   2.787   1.999 -0.1560 -0.0085  0.1068
 9797TIP3   OH250881   2.737   3.163   0.207 -0.0820  0.5914  0.3032
 9797TIP3    H150882   2.728   3.251   0.244  0.5324 -0.5110  3.3198
 9797TIP3    H250883   2.647   3.132   0.198 -0.2450  0.6416  1.6121
 9798TIP3   OH250884   4.949   1.731   0.639 -0.1749 -0.1426  0.8018
 9798TIP3    H150885   4.968   1.660   0.700  0.7445  0.9075  1.7894
 9798TIP3    H250886   4.858   1.719   0.614 -0.6434 -0.4840  2.5578
 9799TIP3   OH250887   5.413   0.778   1.086 -0.4037 -0.5552 -0.4951
 9799TIP3    H150888   5.405   0.687   1.057 -1.1489 -0.4184 -0.7213
 9799TIP3    H250889   5.328   0.799   1.123  0.4624 -0.6949  1.7739
 9800TIP3   OH250890   1.785   4.721  11.362  0.2396 -0.3216  0.2463
 9800TIP3    H150891   1.720   4.697  11.296 -0.6844  0.5680  0.8100
 9800TIP3    H250892   1.831   4.796  11.325 -0.1836  0.0883  0.5344
 9801TIP3   OH250893   4.103   1.627  15.768 -0.8067 -0.0588 -0.2799
 9801TIP3    H150894   4.111   1.720  15.790 -1.5211  0.0146 -0.3127
 9801TIP3    H250895   4.029   1.623  15.708 -1.0850 -0.7144  0.0969
 9802TIP3   OH250896   1.539   5.648   6.114 -0.6925 -0.3342  0.1258
 9802TIP3    H150897   1.628   5.618   6.097  0.1529  0.8589  1.9852
 9802TIP3    H250898   1.522   5.622   6.205 -2.2879 -0.6044 -0.2193
 9803TIP3   OH250899   4.760   4.817  12.149  0.3175  0.3547 -0.1707
 9803TIP3    H150900   4.779   4.853  12.235 -2.5239  0.0493  0.6853
 9803TIP3    H250901   4.699   4.880  12.109 -3.1753 -2.2079  0.5687
 9804TIP3   OH250902   6.010   3.612  14.516 -0.2713 -0.0440  0.5401
 9804TIP3    H150903   6.013   3.621  14.421  1.0533  1.1469  0.6598
 9804TIP3    H250904   6.060   3.533  14.534  0.0151  0.0725  0.2739
 9805TIP3   OH250905   6.237   6.508  15.847  0.4331 -0.1876 -0.1072
 9805TIP3    H150906   6.317   6.560  15.842  1.3794 -1.6289 -0.4143
 9805TIP3    H250907   6.261   6.423  15.810 -1.4691 -0.3861 -1.0178
 9806TIP3   OH250908   5.047   1.586  10.917 -0.6964 -0.6019  0.0113
 9806TIP3    H150909   4.998   1.601  10.836 -0.0259 -0.5740 -0.3995
 9806TIP3    H250910   5.032   1.665  10.968  1.6882  1.0191 -1.5615
 9807TIP3   OH250911   6.791   0.200  14.121  0.0391  0.3992 -0.0193
 9807TIP3    H150912   6.743   0.125  14.157  0.8028  0.0629  0.3384
 9807TIP3    H250913   6.883   0.175  14.131  0.2855  0.9875 -0.7735
 9808TIP3   OH250914   3.175   2.726   3.526  0.1540 -0.1687  0.5053
 9808TIP3    H150915   3.137   2.769   3.602 -1.0941 -0.4146  0.0489
 9808TIP3    H250916   3.220   2.795   3.478 -0.8934  0.4189  0.3522
 9809TIP3   OH250917   5.524   3.482   3.911 -0.2506  0.6224  0.0839
 9809TIP3    H150918   5.467   3.554   3.885 -1.9176 -0.6357  0.1345
 9809TIP3    H250919   5.482   3.445   3.989  0.9724  0.0453  0.4965
 9810TIP3   OH250920   6.689   6.315   6.743  0.5101 -0.2323  0.3300
 9810TIP3    H150921   6.736   6.355   6.669 -1.3471  1.0788 -0.2222
 9810TIP3    H250922   6.701   6.378   6.814 -0.8360  0.4222  0.0107
 9811TIP3   OH250923   1.125   2.366  11.539 -0.0256  0.2087  0.6712
 9811TIP3    H150924   1.072   2.446  11.538 -1.5990 -0.7349  2.5490
 9811TIP3    H250925   1.137   2.347  11.632  0.8162 -1.4307  0.2577
 9812TIP3   OH250926   2.656   5.240   4.646 -0.2986  0.2601  0.5026
 9812TIP3    H150927   2.647   5.166   4.586 -0.8841 -0.1342  1.0597
 9812TIP3    H250928   2.725   5.214   4.706 -0.4425  0.1984  0.6433
 9813TIP3   OH250929   4.347   5.250  13.600 -0.5610  0.1806 -0.0761
 9813TIP3    H150930   4.410   5.314  13.634 -0.6451  0.4490 -0.4109
 9813TIP3    H250931   4.269   5.263  13.654 -0.1589 -0.5201  0.6850
 9814TIP3   OH250932   1.608   0.009   2.939  0.1264 -0.1590  0.2022
 9814TIP3    H150933   1.656   0.067   2.998 -1.1964  1.9665 -0.6927
 9814TIP3    H250934   1.666  -0.067   2.928  1.2415  0.2526  2.6460
 9815TIP3   OH250935   0.157   3.785  15.232  0.0088 -0.6359  0.6454
 9815TIP3    H150936   0.212   3.710  15.253  1.0201 -0.0557  0.1318
 9815TIP3    H250937   0.182   3.809  15.143  2.1488  2.3176  1.8701
 9816TIP3   OH250938   5.933   4.329  13.928 -0.9418  0.1323 -0.4168
 9816TIP3    H150939   5.997   4.399  13.940 -0.1104 -0.5946 -0.4807
 9816TIP3    H250940   5.935   4.310  13.834  0.1634 -1.1705 -0.1579
 9817TIP3   OH250941   1.167   2.721   4.299  0.3801  0.8179 -0.2415
 9817TIP3    H150942   1.106   2.761   4.361  1.5367  0.6209  1.0603
 9817TIP3    H250943   1.149   2.766   4.216  0.3778  2.7444  0.7429
 9818TIP3   OH250944   2.334   1.780  10.840  0.2358  0.0898 -0.1923
 9818TIP3    H150945   2.325   1.800  10.747 -0.1452  0.2346 -0.1284
 9818TIP3    H250946   2.276   1.843  10.884 -0.1509 -0.4480  0.0877
 9819TIP3   OH250947   5.304   3.948   5.177 -0.0155 -0.0995  1.0678
 9819TIP3    H150948   5.387   3.903   5.194 -0.1473 -0.7872 -0.0073
 9819TIP3    H250949   5.238   3.890   5.214  0.0102  0.8690  2.7124
 9820TIP3   OH250950   1.240   2.789  11.898  0.0019 -0.0979  0.1464
 9820TIP3    H150951   1.246   2.775  11.992 -1.5652 -0.5608  0.1993
 9820TIP3    H250952   1.213   2.704  11.862  1.5048 -0.1965 -0.8485
 9821TIP3   OH250953   1.179   1.798   5.775 -0.3848  0.1211 -0.5208
 9821TIP3    H150954   1.123   1.731   5.814 -2.0186  1.3949 -0.5708
 9821TIP3    H250955   1.147   1.807   5.685  0.0636  0.7100 -0.6340
 9822TIP3   OH250956   2.574   2.688  14.498  0.5081  0.6932  0.4017
 9822TIP3    H150957   2.555   2.616  14.438  1.7403 -0.3739  1.2411
 9822TIP3    H250958   2.535   2.765  14.456  0.4248 -0.1990 -1.2402
 9823TIP3   OH250959   0.380   2.263  11.803  0.1390 -0.8299 -0.3687
 9823TIP3    H150960   0.455   2.214  11.770 -0.0964 -1.0815 -0.5353
 9823TIP3    H250961   0.407   2.355  11.797 -0.5097 -0.7291 -2.8848
 9824TIP3   OH250962   5.831   1.008   0.156  0.2628  0.5932 -0.5664
 9824TIP3    H150963   5.915   1.040   0.126  0.4511  0.8088  0.1709
 9824TIP3    H250964   5.831   0.915   0.134  1.3631  0.2268  0.8456
 9825TIP3   OH250965   5.698   1.182   6.292  0.8091 -0.0145  0.3327
 9825TIP3    H150966   5.718   1.088   6.287 -0.0287 -0.4865  3.5174
 9825TIP3    H250967   5.778   1.222   6.326  2.2164  1.0327 -3.7451
 9826TIP3   OH250968   3.871   0.890  15.897  0.5619  0.5207  0.1851
 9826TIP3    H150969   3.842   0.974  15.932  0.8135  0.5568  0.3067
 9826TIP3    H250970   3.941   0.862  15.956  1.8072  1.1423 -0.9634
 9827TIP3   OH250971   3.604   4.054   2.567  0.1445  0.5141  0.0690
 9827TIP3    H150972   3.625   4.130   2.621 -0.2566  0.3025  0.5359
 9827TIP3    H250973   3.682   4.040   2.513  1.1509 -0.1511  1.6298
 9828TIP3   OH250974   5.483   5.628   4.667  0.2628  0.0620  0.2570
 9828TIP3    H150975   5.573   5.645   4.640 -0.4370 -0.6694 -2.8523
 9828TIP3    H250976   5.482   5.535   4.689  0.1139 -0.1187 -0.4918
 9829TIP3   OH250977   6.535   5.057   0.143 -0.0951  0.0650  0.0259
 9829TIP3    H150978   6.555   4.964   0.147 -1.8281 -0.3884 -0.8204
 9829TIP3    H250979   6.460   5.068   0.201 -0.2648  0.8217 -0.3244
 9830TIP3   OH250980   6.393   0.583   6.532 -0.2813  0.5736  0.0712
 9830TIP3    H150981   6.314   0.627   6.566  0.2132  0.9375  0.7945
 9830TIP3    H250982   6.456   0.654   6.520  0.7160  0.0391  1.7712
 9831TIP3   OH250983   1.524   1.179   1.494  0.5943 -0.4531  0.1869
 9831TIP3    H150984   1.534   1.152   1.403  0.1113 -0.2361  0.0691
 9831TIP3    H250985   1.466   1.255   1.491  0.4354 -0.5494  0.6940
 9832TIP3   OH250986   5.008   5.109  11.014 -0.1661 -0.4413 -0.0555
 9832TIP3    H150987   4.996   5.183  10.954  0.3014 -0.4432 -0.1560
 9832TIP3    H250988   5.057   5.044  10.963 -1.6474 -1.3429 -0.3731
 9833TIP3   OH250989   1.382   2.923  13.962 -0.2356  0.4071 -0.0024
 9833TIP3    H150990   1.310   2.862  13.980  0.3615 -0.3360 -0.0780
 9833TIP3    H250991   1.448   2.902  14.028  0.5250  0.0596 -0.8569
 9834TIP3   OH250992   1.353   1.277  14.292  0.3062 -0.6384  0.1126
 9834TIP3    H150993   1.318   1.307  14.208 -1.5039 -0.1150  0.9910
 9834TIP3    H250994   1.275   1.267  14.347  1.5781  0.9232  2.3365
 9835TIP3   OH250995   4.542   5.388   1.313 -0.0693  0.2647  0.5858
 9835TIP3    H150996   4.538   5.417   1.404 -0.8649 -1.9797  1.3383
 9835TIP3    H250997   4.525   5.294   1.317  3.3031 -0.6095 -1.5186
 9836TIP3   OH250998   2.005   1.008   4.717  0.0152 -0.0518  0.0339
 9836TIP3    H150999   2.070   0.941   4.695  1.2329  1.0525  0.1060
 9836TIP3    H251000   2.057   1.089   4.725 -1.4736  0.9930 -0.5522
 9837TIP3   OH251001   1.580   1.472  11.557  0.5869 -1.0544 -0.4201
 9837TIP3    H151002   1.615   1.396  11.603 -0.6754 -1.6253 -0.3532
 9837TIP3    H251003   1.506   1.438  11.507 -0.3813  0.2206  0.0879
 9838TIP3   OH251004   1.730   4.150   0.943 -0.1446  0.0365  0.2512
 9838TIP3    H151005   1.783   4.205   0.885 -0.5605 -0.0312 -0.2001
 9838TIP3    H251006   1.728   4.065   0.900 -1.2777  0.2496 -0.1497
 9839TIP3   OH251007   0.415   0.051  15.259  0.5268  0.0421  0.2422
 9839TIP3    H151008   0.445  -0.028  15.214  1.0314 -0.5000  1.4954
 9839TIP3    H251009   0.433   0.034  15.351 -0.4789  1.1317  0.6561
 9840TIP3   OH251010   2.133   4.832  10.721 -0.2087  0.6128 -0.1830
 9840TIP3    H151011   2.177   4.749  10.736  0.3900  0.3177 -3.0313
 9840TIP3    H251012   2.189   4.897  10.763  1.1495 -0.1033 -0.8359
 9841TIP3   OH251013   0.441   4.466  11.808  0.5492  0.2181 -0.2546
 9841TIP3    H151014   0.447   4.477  11.713  1.6488  1.0581 -0.1115
 9841TIP3    H251015   0.527   4.433  11.834 -0.0249 -0.8565  0.3634
 9842TIP3   OH251016   5.936   5.734   3.054 -0.0400  0.0696 -0.1263
 9842TIP3    H151017   5.967   5.701   3.138  1.0041  1.4139  0.0525
 9842TIP3    H251018   5.970   5.672   2.989  0.1403 -0.3242  0.3393
 9843TIP3   OH251019   6.048   2.577   6.262 -0.1060 -0.5586 -0.3641
 9843TIP3    H151020   5.973   2.549   6.314  0.7163 -1.6396  0.2802
 9843TIP3    H251021   6.085   2.651   6.310 -0.2934 -0.5228 -0.2747
 9844TIP3   OH251022   0.128   5.751   5.638 -0.3054 -0.7558 -0.2208
 9844TIP3    H151023   0.182   5.783   5.710  0.8518  1.9426 -2.1140
 9844TIP3    H251024   0.046   5.798   5.645  0.4551  0.8865 -1.5516
 9845TIP3   OH251025   1.449   6.607   1.868  0.2367 -0.3178 -0.1702
 9845TIP3    H151026   1.407   6.526   1.897 -0.3539  0.1369  0.2552
 9845TIP3    H251027   1.524   6.617   1.928 -0.9027  0.5461  1.1603
 9846TIP3   OH251028   1.209   0.201   3.495 -0.4640  0.2539 -0.1022
 9846TIP3    H151029   1.186   0.226   3.584 -1.1126  1.7867 -0.6476
 9846TIP3    H251030   1.263   0.274   3.463  1.2033 -1.0553 -0.4371
 9847TIP3   OH251031   0.668   1.467   5.045  0.5858 -0.4829  0.2084
 9847TIP3    H151032   0.755   1.502   5.068 -0.4184  0.5147  2.9164
 9847TIP3    H251033   0.641   1.518   4.969  2.8364 -1.6933 -1.5151
 9848TIP3   OH251034   2.805   0.289   2.031 -0.4708 -0.1956 -0.4356
 9848TIP3    H151035   2.869   0.244   1.975  0.9614  2.1768 -0.8307
 9848TIP3    H251036   2.799   0.233   2.109  1.3624 -0.9995 -0.8094
 9849TIP3   OH251037   5.358   4.581   3.803 -0.7759  0.1797 -0.1110
 9849TIP3    H151038   5.443   4.593   3.845 -0.5338 -0.1936 -0.4850
 9849TIP3    H251039   5.341   4.487   3.811 -1.7517  0.4270  1.1028
 9850TIP3   OH251040   6.359   0.554   0.331  0.3963 -0.7166 -0.1908
 9850TIP3    H151041   6.443   0.512   0.352  0.5383 -0.8486 -0.9785
 9850TIP3    H251042   6.346   0.535   0.238 -0.2873 -0.3037 -0.1844
 9851TIP3   OH251043   3.258   4.693   3.195 -0.1521 -0.6488 -0.0947
 9851TIP3    H151044   3.351   4.695   3.218 -0.4155  0.4564  0.9265
 9851TIP3    H251045   3.230   4.604   3.215  1.0400 -1.5291 -1.9855
 9852TIP3   OH251046   2.882   6.722  10.633  0.4988 -0.4889 -0.7383
 9852TIP3    H151047   2.871   6.774  10.712 -1.3600  0.4236 -1.5636
 9852TIP3    H251048   2.938   6.775  10.577  0.4567 -0.3929 -0.6898
 9853TIP3   OH251049   0.195   3.887   4.581  0.4690  0.0105  0.3061
 9853TIP3    H151050   0.223   3.951   4.646  0.7353 -1.3528  1.6050
 9853TIP3    H251051   0.277   3.845   4.552  0.2414 -0.2150 -0.0251
 9854TIP3   OH251052   4.652   6.010   1.624  0.0076  0.4712  0.4854
 9854TIP3    H151053   4.566   6.050   1.636 -0.7786 -1.2766  0.9065
 9854TIP3    H251054   4.709   6.084   1.599 -1.4335  1.7733  0.8792
 9855TIP3   OH251055   2.737   4.878  14.929 -0.1321 -0.6443  0.1806
 9855TIP3    H151056   2.706   4.955  14.882 -1.0302 -1.3241 -0.3663
 9855TIP3    H251057   2.670   4.862  14.996  2.3855  1.9207  3.6662
 9856TIP3   OH251058   3.995   4.891   2.425  0.0824 -0.2672 -0.2782
 9856TIP3    H151059   3.976   4.933   2.341 -0.8766  0.2708  0.1854
 9856TIP3    H251060   4.071   4.939   2.459 -0.0148  0.0384 -0.4840
 9857TIP3   OH251061   1.344   2.266   1.060  0.3893  0.3307 -0.0710
 9857TIP3    H151062   1.289   2.241   0.985  2.6092 -0.0315 -1.7053
 9857TIP3    H251063   1.320   2.356   1.078 -0.2538  0.4123 -1.2172
 9858TIP3   OH251064   3.104   0.584  16.901  0.3670  0.1030 -0.2184
 9858TIP3    H151065   3.030   0.633  16.937  1.8891  1.1739  1.6247
 9858TIP3    H251066   3.088   0.494  16.929 -0.5636  0.1800 -0.4400
 9859TIP3   OH251067   1.910   3.113   0.251 -0.1980  0.5038  0.0333
 9859TIP3    H151068   1.948   3.131   0.336  0.3973 -0.1081 -0.0958
 9859TIP3    H251069   1.896   3.018   0.250 -0.7164  0.5755 -0.3399
 9860TIP3   OH251070   0.852   2.820  11.478 -0.1998  0.3394  1.0315
 9860TIP3    H151071   0.848   2.915  11.480 -1.6606  0.3340  4.0297
 9860TIP3    H251072   0.768   2.791  11.514 -0.3483 -2.1506 -1.0065
 9861TIP3   OH251073   2.286   0.378  11.472 -0.1022 -0.1635  0.0663
 9861TIP3    H151074   2.309   0.378  11.565 -1.7658 -0.5740  0.5134
 9861TIP3    H251075   2.340   0.447  11.433  1.0012 -0.3469  1.2238
 9862TIP3   OH251076   5.344   2.039   5.322 -0.0394  0.5341  0.4147
 9862TIP3    H151077   5.293   1.964   5.293  1.5253 -1.4689  2.5221
 9862TIP3    H251078   5.291   2.079   5.391  0.9495 -1.3108  2.3316
 9863TIP3   OH251079   2.833   3.208  14.040 -0.3083  1.2156  0.0857
 9863TIP3    H151080   2.903   3.255  14.087 -0.3810  1.5646 -0.1513
 9863TIP3    H251081   2.839   3.240  13.950 -1.0931  1.6244  0.1678
 9864TIP3   OH251082   2.733   6.446  15.356 -0.2830  0.1442  0.0851
 9864TIP3    H151083   2.798   6.496  15.308 -1.0790  1.4542  0.2990
 9864TIP3    H251084   2.697   6.508  15.420 -0.4060 -1.0735  1.2613
 9865TIP3   OH251085   2.309   5.822   3.594 -0.3539 -0.2380  0.0411
 9865TIP3    H151086   2.227   5.868   3.572  0.2091  0.3822 -0.8347
 9865TIP3    H251087   2.333   5.777   3.513  1.2806  1.3267 -0.4022
 9866TIP3   OH251088   1.402   1.713   4.431  0.5538 -0.2551  0.6617
 9866TIP3    H151089   1.346   1.754   4.497 -1.7814  0.9463 -1.8525
 9866TIP3    H251090   1.486   1.758   4.439 -0.8220  2.5652  0.4506
 9867TIP3   OH251091   1.168   1.831  11.289  0.0282 -1.2391  0.1124
 9867TIP3    H151092   1.235   1.868  11.346 -0.5511 -1.5658  1.0239
 9867TIP3    H251093   1.213   1.815  11.206  0.6583  0.0643  0.1876
 9868TIP3   OH251094   5.013   3.095  16.299 -0.0917 -0.4548 -0.1465
 9868TIP3    H151095   4.959   3.065  16.372 -0.0205 -0.5670 -0.1398
 9868TIP3    H251096   5.075   3.156  16.339  0.6179 -1.2948  0.0651
 9869TIP3   OH251097   0.919   3.041  13.093 -0.4810 -0.5330  0.1279
 9869TIP3    H151098   0.925   3.043  12.997  0.5890 -1.3740  0.1686
 9869TIP3    H251099   0.845   2.983  13.110 -1.4629  0.5827 -0.1886
 9870TIP3   OH251100   0.299   1.489  16.400 -0.1089  0.0022 -0.2896
 9870TIP3    H151101   0.298   1.558  16.334 -0.4219  0.4534  0.1825
 9870TIP3    H251102   0.280   1.409  16.351 -0.1147  0.2990 -0.7807
 9871TIP3   OH251103   3.165   6.649   0.012  0.2333  0.8179 -0.5112
 9871TIP3    H151104   3.117   6.580   0.057  1.4441  0.1902 -0.1232
 9871TIP3    H251105   3.160   6.626  -0.081  0.2476  0.4461 -0.4211
 9872TIP3   OH251106   2.483   4.494   5.634  0.3346  0.1035 -0.7551
 9872TIP3    H151107   2.552   4.429   5.619  0.8593  0.5566 -0.3356
 9872TIP3    H251108   2.401   4.444   5.627  0.6591 -0.2741 -2.1096
 9873TIP3   OH251109   5.891   2.394  11.723 -0.4037  0.2576 -0.3327
 9873TIP3    H151110   5.858   2.342  11.649 -1.9062  1.1599 -0.3567
 9873TIP3    H251111   5.952   2.456  11.683  1.9760 -1.8708 -0.2037
 9874TIP3   OH251112   1.962   0.141  13.452  0.2867  0.3702 -0.0108
 9874TIP3    H151113   1.964   0.047  13.434 -0.0765  0.3875 -0.1494
 9874TIP3    H251114   2.036   0.177  13.403  1.6774 -0.1064  1.6450
 9875TIP3   OH251115   6.180   1.127  15.384  0.4790  0.1628 -0.3458
 9875TIP3    H151116   6.126   1.065  15.433 -1.7666  1.2213 -1.3379
 9875TIP3    H251117   6.179   1.207  15.436  3.4102 -0.5091  0.9567
 9876TIP3   OH251118   0.376   3.305   5.492 -0.4067  0.2489 -0.1218
 9876TIP3    H151119   0.430   3.239   5.448 -0.4976 -0.6428  1.0676
 9876TIP3    H251120   0.379   3.380   5.434  2.0391  0.1917 -0.1797
 9877TIP3   OH251121   4.048   2.199   0.429 -0.4052 -0.0701  0.1892
 9877TIP3    H151122   3.981   2.202   0.360  0.4158  0.3458 -0.6084
 9877TIP3    H251123   4.111   2.133   0.398  1.0090  1.5219 -0.4678
 9878TIP3   OH251124   4.193   2.192  17.216  0.5376 -0.2112 -0.3364
 9878TIP3    H151125   4.253   2.263  17.241  0.5930 -0.3188 -0.1634
 9878TIP3    H251126   4.168   2.212  17.126 -1.2399  1.3058  0.4045
 9879TIP3   OH251127   5.188   3.589  11.813 -0.2605  0.3538  0.1741
 9879TIP3    H151128   5.254   3.578  11.745 -0.1398 -0.1293  0.3696
 9879TIP3    H251129   5.180   3.684  11.823  1.4593  0.4149  1.1746
 9880TIP3   OH251130   1.965   3.118  11.405 -0.1192  0.1316  0.4375
 9880TIP3    H151131   2.044   3.064  11.404 -0.3966 -0.3489 -2.2730
 9880TIP3    H251132   1.994   3.204  11.375 -0.6033 -0.0989 -0.7593
 9881TIP3   OH251133   3.075   0.842   2.270 -0.0744  0.5030  0.4623
 9881TIP3    H151134   3.112   0.812   2.353 -0.1836  0.7738  0.6142
 9881TIP3    H251135   3.089   0.770   2.209 -0.2345  0.1934  0.7882
 9882TIP3   OH251136   1.275   4.051  10.756  0.1224  0.0917  0.4256
 9882TIP3    H151137   1.296   3.958  10.765 -0.1858 -0.1210 -0.8747
 9882TIP3    H251138   1.319   4.093  10.830  3.0371 -0.6650 -0.7235
 9883TIP3   OH251139   4.734   2.695  14.071 -0.1803  0.1440 -0.4999
 9883TIP3    H151140   4.655   2.706  14.124 -0.7039 -0.6653 -1.0894
 9883TIP3    H251141   4.802   2.670  14.134  0.2469  3.1321  0.3880
 9884TIP3   OH251142   4.914   5.721  12.087 -0.2364  0.2968 -0.7838
 9884TIP3    H151143   4.886   5.721  11.995  0.9605  0.7828 -1.1656
 9884TIP3    H251144   5.006   5.695  12.084 -0.3527 -0.2948  0.3441
 9885TIP3   OH251145   4.418   0.872  15.482  0.0151 -0.0773 -0.9668
 9885TIP3    H151146   4.496   0.910  15.522 -2.0926  2.2177  1.3416
 9885TIP3    H251147   4.381   0.942  15.429 -1.7858 -0.2240  0.0153
 9886TIP3   OH251148   3.577   6.204   0.921  0.1320 -0.2086 -0.4047
 9886TIP3    H151149   3.544   6.231   1.006 -0.4311 -1.5277 -0.1863
 9886TIP3    H251150   3.669   6.183   0.937  0.7008  1.8557 -0.6638
 9887TIP3   OH251151   1.873   5.020   5.429  0.1217 -0.2923  0.1187
 9887TIP3    H151152   1.923   5.005   5.349  1.0950 -0.6669  0.7877
 9887TIP3    H251153   1.820   4.941   5.439 -0.3386 -0.0558 -0.3845
 9888TIP3   OH251154   3.648   3.940   3.028  0.3163  0.2166 -0.1119
 9888TIP3    H151155   3.565   3.893   3.021  0.2138  0.4009 -0.1529
 9888TIP3    H251156   3.643   3.986   3.112  0.6453 -0.2787  0.1843
 9889TIP3   OH251157   3.825   2.393  14.814  0.1351  1.2444 -0.5062
 9889TIP3    H151158   3.798   2.307  14.779 -1.2793  1.6901 -0.5458
 9889TIP3    H251159   3.901   2.373  14.868 -0.2101 -0.0591 -0.4575
 9890TIP3   OH251160   4.783   2.700  10.788  0.2258  0.7770 -0.2299
 9890TIP3    H151161   4.790   2.658  10.702 -1.1950 -1.8644  0.8373
 9890TIP3    H251162   4.856   2.663  10.838 -2.2306 -2.4118  1.3764
 9891TIP3   OH251163   2.442   1.726   3.892 -0.1102  0.0781  0.5668
 9891TIP3    H151164   2.417   1.782   3.819 -0.5912  2.0810  2.1455
 9891TIP3    H251165   2.393   1.762   3.967  1.7439 -0.6770  2.2338
 9892TIP3   OH251166   4.685   2.349  15.811 -0.1369 -0.0418 -0.1878
 9892TIP3    H151167   4.758   2.408  15.830  1.8001 -2.2018 -0.4911
 9892TIP3    H251168   4.621   2.367  15.880  1.3248  0.9132  0.9879
 9893TIP3   OH251169   6.508   4.903   6.005  0.2132  0.4511 -0.1592
 9893TIP3    H151170   6.530   4.984   5.960  1.2843 -1.0478 -2.5221
 9893TIP3    H251171   6.430   4.870   5.961 -0.3606  0.2700  0.9433
 9894TIP3   OH251172   1.856   6.490  12.376 -0.1642  0.2867 -1.3502
 9894TIP3    H151173   1.923   6.557  12.392  2.3535 -2.5829  1.4351
 9894TIP3    H251174   1.900   6.422  12.326 -1.2419 -1.2181 -0.3612
 9895TIP3   OH251175   2.370   2.071  12.466  0.2333 -0.4554 -0.0496
 9895TIP3    H151176   2.317   2.009  12.416 -0.0529 -0.6404  0.4828
 9895TIP3    H251177   2.459   2.056  12.434  0.0175 -0.3551 -0.7271
 9896TIP3   OH251178   0.836   6.725  13.939 -0.0988 -0.0179 -0.4600
 9896TIP3    H151179   0.880   6.713  14.023 -2.4332  0.0869  0.8448
 9896TIP3    H251180   0.869   6.809  13.907  0.8651 -0.0892  0.3131
 9897TIP3   OH251181   1.108   5.923  13.949 -0.4821 -0.0166 -0.4636
 9897TIP3    H151182   1.034   5.919  14.010  0.3708 -1.7471  0.5295
 9897TIP3    H251183   1.145   6.010  13.961  0.3343 -0.6636  2.3640
 9898TIP3   OH251184   3.500   3.747   0.373 -0.5106  0.9484  0.0395
 9898TIP3    H151185   3.564   3.680   0.349  0.6162  2.3045 -0.8896
 9898TIP3    H251186   3.492   3.802   0.295 -5.3792 -0.9811 -1.2292
 9899TIP3   OH251187   1.747   6.723  10.900 -0.2547 -0.0729 -0.5048
 9899TIP3    H151188   1.684   6.689  10.836 -1.0356  0.6008 -0.1035
 9899TIP3    H251189   1.695   6.774  10.961  0.6466  0.2546  0.0139
 9900TIP3   OH251190   3.670   3.217  10.816  0.5955 -0.2861  0.1902
 9900TIP3    H151191   3.722   3.257  10.747 -1.7657  1.4172 -0.7489
 9900TIP3    H251192   3.641   3.291  10.870 -1.9062 -0.8975 -0.1615
 9901TIP3   OH251193   3.645   4.547   5.455  0.4528 -0.0943  0.0833
 9901TIP3    H151194   3.562   4.591   5.473  1.1582  1.3873 -0.0973
 9901TIP3    H251195   3.621   4.458   5.430 -1.1358  0.5048 -0.6596
 9902TIP3   OH251196   1.355   6.620  16.416 -0.2182  0.3027  0.0081
 9902TIP3    H151197   1.365   6.716  16.410  0.2531  0.2272 -0.6402
 9902TIP3    H251198   1.445   6.587  16.410 -0.2861 -0.1457  1.2741
 9903TIP3   OH251199   5.968   0.965  11.793  0.4239 -0.0578  0.4653
 9903TIP3    H151200   5.906   1.036  11.812  1.9160  0.9340  1.9797
 9903TIP3    H251201   5.943   0.895  11.853  0.5879  0.2576  0.9158
 9904TIP3   OH251202   0.590   5.962  11.490 -0.5752  0.3750 -0.3248
 9904TIP3    H151203   0.673   6.010  11.489 -0.0407 -0.4856  0.3814
 9904TIP3    H251204   0.614   5.875  11.524 -2.0589  0.6962  1.7458
 9905TIP3   OH251205   0.417   6.600   1.917  0.4295 -0.6077 -0.1813
 9905TIP3    H151206   0.350   6.631   1.856  0.2210  0.0189  0.3531
 9905TIP3    H251207   0.375   6.527   1.963 -0.5348  0.8291  1.3335
 9906TIP3   OH251208   6.573   1.872  11.988  0.0023  1.1098  0.7223
 9906TIP3    H151209   6.494   1.836  11.947  1.2762  0.2394 -1.1174
 9906TIP3    H251210   6.563   1.852  12.081 -1.1624 -0.5507  0.2974
 9907TIP3   OH251211   3.823   6.628  11.931  0.0960 -0.7937 -0.2427
 9907TIP3    H151212   3.805   6.631  12.024  0.3059 -0.1226 -0.2154
 9907TIP3    H251213   3.868   6.710  11.913  0.8007 -1.2872 -0.7791
 9908TIP3   OH251214   4.375   2.685   3.421  0.0789 -0.0470  0.2067
 9908TIP3    H151215   4.429   2.630   3.477 -0.6099  1.1446  2.1295
 9908TIP3    H251216   4.433   2.711   3.349  1.1795 -1.0866  0.6837
 9909TIP3   OH251217   4.656   1.256   0.767  0.1175 -0.0794 -0.8463
 9909TIP3    H151218   4.714   1.214   0.703 -0.5217  0.0377 -1.5210
 9909TIP3    H251219   4.698   1.339   0.787 -0.0242  0.1927 -1.6566
 9910TIP3   OH251220   2.893   2.434  16.366 -0.1833  0.5643 -0.0077
 9910TIP3    H151221   2.927   2.346  16.351  1.1149  1.1086 -0.4261
 9910TIP3    H251222   2.920   2.483  16.288  0.0569  1.5841  0.6958
 9911TIP3   OH251223   6.589   4.320  14.088  0.2081  0.3012 -0.9995
 9911TIP3    H151224   6.593   4.257  14.016  0.4592  0.4870 -1.1542
 9911TIP3    H251225   6.648   4.285  14.154 -1.7456 -1.0645  0.1168
 9912TIP3   OH251226   3.561   5.540  17.006  0.3966  0.0145  0.1665
 9912TIP3    H151227   3.509   5.619  16.994  0.4450  0.2152  1.1753
 9912TIP3    H251228   3.621   5.539  16.932 -0.5091  0.1948 -0.5850
 9913TIP3   OH251229   3.939   0.761  10.633 -0.2592 -0.2800  0.0830
 9913TIP3    H151230   3.963   0.698  10.565  1.0781 -0.3216  0.5666
 9913TIP3    H251231   3.953   0.846  10.592  1.2785 -0.2994  0.5213
 9914TIP3   OH251232   1.589   4.561  10.897  0.2343 -0.1319 -0.2770
 9914TIP3    H151233   1.494   4.550  10.886  0.1194  0.0768  0.4533
 9914TIP3    H251234   1.627   4.517  10.820 -0.4072 -1.2128 -0.0046
 9915TIP3   OH251235   0.441   2.105  13.858  0.0024 -0.5392 -0.0259
 9915TIP3    H151236   0.403   2.154  13.785  0.8656 -0.5409 -0.4862
 9915TIP3    H251237   0.369   2.095  13.920 -0.6221 -0.1394 -0.6715
 9916TIP3   OH251238   4.122   6.708   3.112 -0.1036  0.2190 -0.1384
 9916TIP3    H151239   4.150   6.617   3.126 -0.3351 -0.1521 -1.8404
 9916TIP3    H251240   4.200   6.753   3.081 -0.6410 -0.1464 -2.1662
 9917TIP3   OH251241   6.067   6.535   2.882 -0.2880  0.4960 -0.9066
 9917TIP3    H151242   6.070   6.541   2.787  0.2724  0.3522 -0.8997
 9917TIP3    H251243   6.159   6.526   2.909 -0.5596 -1.7786 -0.5030
 9918TIP3   OH251244   2.684   2.453  12.655 -0.0624 -0.7596  0.3151
 9918TIP3    H151245   2.615   2.406  12.608 -0.0633 -1.8657  1.3589
 9918TIP3    H251246   2.641   2.481  12.736  0.4170 -0.4637  0.4668
 9919TIP3   OH251247   1.625   3.774  13.791  0.3140 -0.4979  0.0090
 9919TIP3    H151248   1.606   3.844  13.728  0.0414 -1.0117 -0.4830
 9919TIP3    H251249   1.579   3.801  13.870  1.3391  0.5795  0.2781
 9920TIP3   OH251250   2.529   4.567  16.028  0.1745 -0.0063 -0.4460
 9920TIP3    H151251   2.438   4.574  16.058  0.0188  0.1427 -0.9395
 9920TIP3    H251252   2.571   4.511  16.093 -0.1141  0.4335  0.1355
 9921TIP3   OH251253   5.152   4.320  11.295  0.8743  0.0947  0.7352
 9921TIP3    H151254   5.232   4.300  11.246 -0.1272 -0.8986 -0.5439
 9921TIP3    H251255   5.096   4.367  11.233  0.7716  1.5639  1.8834
 9922TIP3   OH251256   6.032   5.707   3.579  0.1981 -0.1973 -0.2067
 9922TIP3    H151257   6.111   5.684   3.628 -0.2326 -1.4724 -0.0748
 9922TIP3    H251258   5.986   5.769   3.636  0.9052  0.2579 -0.1202
 9923TIP3   OH251259   5.165   3.698  16.484  0.8593 -0.0187 -0.3100
 9923TIP3    H151260   5.170   3.702  16.579  0.4090 -2.8264 -0.0972
 9923TIP3    H251261   5.075   3.725  16.464  0.4389 -0.9532  0.2335
 9924TIP3   OH251262   4.181   5.842   1.856  0.2119  0.0935 -0.1112
 9924TIP3    H151263   4.206   5.755   1.888 -1.8114 -0.2502  0.6900
 9924TIP3    H251264   4.255   5.870   1.802  1.1471 -1.8812  0.0611
 9925TIP3   OH251265   1.795   2.912   1.219 -0.1374  0.5924  0.5547
 9925TIP3    H151266   1.748   2.982   1.174 -1.0649  1.0415  2.1291
 9925TIP3    H251267   1.880   2.949   1.241 -0.6255  1.2734  1.3841
 9926TIP3   OH251268   6.503   1.172   5.636 -0.0653  0.4264  0.3424
 9926TIP3    H151269   6.560   1.098   5.656  0.4700  1.0078  1.0564
 9926TIP3    H251270   6.457   1.190   5.718  0.2778  1.2668  0.3622
 9927TIP3   OH251271   4.263   0.851   3.216  0.9272 -0.1780 -0.2951
 9927TIP3    H151272   4.352   0.849   3.183  1.4525 -0.0369  1.0658
 9927TIP3    H251273   4.254   0.937   3.256  0.8392 -0.9139  1.3190
 9928TIP3   OH251274   2.704   1.615   5.052  0.1921  0.2640  0.3723
 9928TIP3    H151275   2.632   1.672   5.024  0.4167  0.9538  1.1538
 9928TIP3    H251276   2.664   1.529   5.059 -1.2846  1.0522  3.2795
 9929TIP3   OH251277   5.238   0.152  14.741  0.6570  0.1969 -0.0661
 9929TIP3    H151278   5.180   0.223  14.713 -0.5570 -1.2485 -1.4153
 9929TIP3    H251279   5.182   0.094  14.793  0.2464 -2.1004 -2.7528
 9930TIP3   OH251280   3.942   4.114  16.783  0.0279 -0.1562  0.2546
 9930TIP3    H151281   3.970   4.034  16.826 -2.6666 -1.4189 -0.1269
 9930TIP3    H251282   3.853   4.128  16.814  0.1947  2.3607 -0.1949
 9931TIP3   OH251283   4.327   5.786  14.255  0.4350  0.1761 -0.5005
 9931TIP3    H151284   4.366   5.870  14.230  1.4660  0.9161  3.0573
 9931TIP3    H251285   4.391   5.720  14.228  1.9756  1.0018  0.9742
 9932TIP3   OH251286   5.796   4.606  15.436  0.4693 -0.1709 -0.0543
 9932TIP3    H151287   5.749   4.680  15.475  2.0880  0.2297  1.2400
 9932TIP3    H251288   5.794   4.538  15.504  0.2009 -0.8283 -0.7027
 9933TIP3   OH251289   3.612   4.553  15.660 -0.1417 -0.1295  0.1288
 9933TIP3    H151290   3.533   4.501  15.664 -0.7151  0.6021 -1.1168
 9933TIP3    H251291   3.643   4.557  15.750 -1.8848  0.1222  0.7469
 9934TIP3   OH251292   3.030   0.237   3.249  0.2970 -0.2602 -0.3160
 9934TIP3    H151293   3.095   0.261   3.316 -1.2169  0.1652  1.0548
 9934TIP3    H251294   3.056   0.149   3.221  0.8833 -0.5018  0.9260
 9935TIP3   OH251295   4.704   3.655  17.163  0.0862 -0.0363  0.0641
 9935TIP3    H151296   4.755   3.608  17.097 -0.0779 -1.2555  0.7867
 9935TIP3    H251297   4.658   3.722  17.113  1.5332  0.3959 -0.7636
 9936TIP3   OH251298   6.600   3.019  15.594  0.5220  0.3192  0.0076
 9936TIP3    H151299   6.660   2.992  15.663 -2.3062  1.3317  3.0752
 9936TIP3    H251300   6.578   2.938  15.548 -0.3275 -1.0726  2.7203
 9937TIP3   OH251301   5.667   5.711   5.436 -0.1160 -0.2081  0.3354
 9937TIP3    H151302   5.619   5.733   5.357 -0.2803 -0.0497  0.4780
 9937TIP3    H251303   5.697   5.795   5.471  0.0986 -0.2911  0.3488
 9938TIP3   OH251304   0.986   2.728  13.120  0.1555  0.4488 -0.1378
 9938TIP3    H151305   0.994   2.749  13.027  1.6204 -0.3499 -0.2181
 9938TIP3    H251306   1.066   2.680  13.141 -0.5066 -0.0715  1.3528
 9939TIP3   OH251307   1.587   5.904   4.529  0.2345 -0.6418 -0.1503
 9939TIP3    H151308   1.647   5.975   4.552 -0.2043 -0.3065 -0.0221
 9939TIP3    H251309   1.643   5.836   4.493  0.7188 -0.4253  0.1801
 9940TIP3   OH251310   6.786   6.212   2.580  0.1556 -0.4980 -0.0895
 9940TIP3    H151311   6.802   6.250   2.667  0.2637 -1.2772  0.2406
 9940TIP3    H251312   6.873   6.198   2.543  0.1223 -0.5703 -0.1419
 9941TIP3   OH251313   6.632   5.538   0.568  0.1517  0.1633  0.1953
 9941TIP3    H151314   6.596   5.545   0.480 -0.3030  1.0442  0.4367
 9941TIP3    H251315   6.590   5.460   0.605  3.0990 -2.5149 -1.5702
 9942TIP3   OH251316   6.620   3.648   0.508 -0.4565 -0.0925 -0.0434
 9942TIP3    H151317   6.540   3.613   0.468  0.7540 -0.1338 -2.6936
 9942TIP3    H251318   6.691   3.601   0.464  1.0716  0.6882  1.4536
 9943TIP3   OH251319   1.179   6.170   6.779  0.9793 -0.0958 -0.0126
 9943TIP3    H151320   1.128   6.251   6.777 -0.1568 -0.7288  1.1357
 9943TIP3    H251321   1.255   6.187   6.724  0.2915  1.4231 -0.5376
 9944TIP3   OH251322   3.119   1.397   3.666 -0.5274 -0.0211  0.0986
 9944TIP3    H151323   3.135   1.344   3.588 -0.5744 -1.4624  1.0364
 9944TIP3    H251324   3.034   1.439   3.649  0.3319  1.1963 -1.4005
 9945TIP3   OH251325   6.354   6.779  16.508  0.4641 -0.6927 -0.3149
 9945TIP3    H151326   6.338   6.873  16.518 -0.1630 -0.7664 -0.5758
 9945TIP3    H251327   6.268   6.738  16.521  0.9743 -1.3450  1.1105
 9946TIP3   OH251328   5.101   4.123  12.581 -0.0596 -0.5509 -0.0589
 9946TIP3    H151329   5.195   4.141  12.589  0.0100 -0.3517 -1.1202
 9946TIP3    H251330   5.096   4.034  12.547 -0.2285 -0.3725 -0.5157
 9947TIP3   OH251331   3.663   3.155  15.255 -0.3666 -0.1694 -0.4039
 9947TIP3    H151332   3.671   3.246  15.225 -0.0344 -0.1993 -0.4036
 9947TIP3    H251333   3.584   3.123  15.212 -0.1803 -0.0525 -0.8381
 9948TIP3   OH251334   4.742   6.706   0.197 -0.2218  0.0128  0.5442
 9948TIP3    H151335   4.827   6.733   0.230 -0.5876  0.9728  0.7487
 9948TIP3    H251336   4.680   6.739   0.262 -0.8371  0.5335 -0.2851
 9949TIP3   OH251337   4.121   4.596   3.314  0.3529 -0.3118 -0.1904
 9949TIP3    H151338   4.084   4.532   3.254 -0.4358 -0.7198  0.7045
 9949TIP3    H251339   4.197   4.632   3.268 -1.3118  0.7834 -2.2236
 9950TIP3   OH251340   1.538   5.364   1.558  0.1937 -0.5274  0.6105
 9950TIP3    H151341   1.445   5.383   1.569  0.0067 -1.4468  0.7640
 9950TIP3    H251342   1.570   5.432   1.499 -0.5342 -0.0847  0.7143
 9951TIP3   OH251343   0.826   6.615  14.774 -0.3468  0.1239  0.0405
 9951TIP3    H151344   0.811   6.583  14.684  0.4742  1.6422 -0.6704
 9951TIP3    H251345   0.859   6.704  14.762 -0.0100  0.2670  1.8643
 9952TIP3   OH251346   1.774   2.401  11.561  0.0128  0.2536 -0.3795
 9952TIP3    H151347   1.774   2.494  11.584 -0.2855  0.1366  0.1088
 9952TIP3    H251348   1.802   2.399  11.470 -0.0176  0.8280 -0.4050
 9953TIP3   OH251349   2.457   3.758  17.087  0.0539 -0.7008 -0.6761
 9953TIP3    H151350   2.422   3.772  17.175 -0.1179  0.0067 -0.8530
 9953TIP3    H251351   2.402   3.688  17.051 -0.5058 -0.3179 -0.5738
 9954TIP3   OH251352   5.858   4.476   5.315  0.4540  0.0798  0.1477
 9954TIP3    H151353   5.820   4.548   5.264 -1.1466 -0.3376  0.6923
 9954TIP3    H251354   5.844   4.501   5.406  2.6766  0.4889  0.4273
 9955TIP3   OH251355   5.769   2.553   5.224 -0.2588 -0.3906  0.2272
 9955TIP3    H151356   5.813   2.613   5.284 -0.0084 -0.3420 -0.0024
 9955TIP3    H251357   5.737   2.609   5.153 -1.8980 -0.2225  1.0557
 9956TIP3   OH251358   3.334   1.265  17.238  0.2063 -0.5891  0.4721
 9956TIP3    H151359   3.291   1.195  17.288 -0.4385 -0.6646 -0.1602
 9956TIP3    H251360   3.318   1.344  17.289  0.5236 -0.8274  0.9520
 9957TIP3   OH251361   1.542   6.414   4.216 -0.2528 -0.6507  0.1598
 9957TIP3    H151362   1.578   6.388   4.300 -0.9928 -0.5420  0.5146
 9957TIP3    H251363   1.579   6.501   4.200  0.9133 -1.2001 -0.2511
 9958TIP3   OH251364   2.898   1.100  12.545 -0.1389  0.0366 -0.6929
 9958TIP3    H151365   2.822   1.088  12.602  0.0342  0.7047 -0.3115
 9958TIP3    H251366   2.926   1.190  12.560  1.4544 -0.5522  0.0713
 9959TIP3   OH251367   6.534   4.269   1.868 -0.3941  0.1307  0.5022
 9959TIP3    H151368   6.566   4.298   1.783  2.1147 -0.8435  1.0237
 9959TIP3    H251369   6.440   4.289   1.867 -0.4442  0.1593 -2.4510
 9960TIP3   OH251370   1.867   5.428   5.072  0.0135 -0.3742 -0.6615
 9960TIP3    H151371   1.960   5.408   5.060  0.1438  0.2206 -0.6491
 9960TIP3    H251372   1.856   5.436   5.167  0.4834  2.0060 -0.7481
 9961TIP3   OH251373   1.185   4.210   2.088 -0.4718 -0.4612 -0.3182
 9961TIP3    H151374   1.157   4.154   2.016 -2.0858 -0.8274  0.5455
 9961TIP3    H251375   1.262   4.256   2.055 -1.8233  0.2490 -2.6876
 9962TIP3   OH251376   4.775   0.318  16.758 -0.6319 -0.2294  0.5540
 9962TIP3    H151377   4.796   0.343  16.848  0.3968  1.3131 -0.0500
 9962TIP3    H251378   4.810   0.391  16.705 -1.0284 -1.1885 -1.0941
 9963TIP3   OH251379   3.262   0.471  11.380  0.4436  0.3821  0.0596
 9963TIP3    H151380   3.241   0.430  11.295  0.5186 -0.3899  0.4012
 9963TIP3    H251381   3.265   0.565  11.361 -0.6439  0.3111 -0.5659
 9964TIP3   OH251382   5.744   3.367  15.293  0.0478 -0.5329 -0.0502
 9964TIP3    H151383   5.704   3.394  15.211  0.5106  0.8740  0.1535
 9964TIP3    H251384   5.686   3.403  15.361  1.2892  1.0916  0.2408
 9965TIP3   OH251385   6.394   3.759   0.881 -0.4515  0.9300  0.2089
 9965TIP3    H151386   6.387   3.833   0.821 -0.0635  1.8978  1.3326
 9965TIP3    H251387   6.371   3.795   0.966 -0.4826 -0.3070  0.7358
 9966TIP3   OH251388   1.091   1.066   2.484 -0.2969 -0.4531  0.5748
 9966TIP3    H151389   1.056   0.977   2.484 -1.5067 -0.0175  1.8285
 9966TIP3    H251390   1.055   1.105   2.564  2.1913  0.4026  1.3726
 9967TIP3   OH251391   5.800   0.007   3.746  0.8743 -0.8177  0.4309
 9967TIP3    H151392   5.823   0.026   3.837 -0.1057  0.2218  0.4814
 9967TIP3    H251393   5.815   0.089   3.700  0.0198 -0.9239 -0.0617
 9968TIP3   OH251394   2.496   6.320   4.400  0.0274 -0.2967  0.0401
 9968TIP3    H151395   2.494   6.350   4.491 -0.1282  0.9017 -0.3425
 9968TIP3    H251396   2.566   6.371   4.359  0.9814 -1.7583 -0.2175
 9969TIP3   OH251397   2.147   5.384  15.486  0.2498 -0.1144 -0.4174
 9969TIP3    H151398   2.056   5.384  15.459  0.4859 -0.8826 -1.2787
 9969TIP3    H251399   2.156   5.308  15.543  0.2628  0.1839 -0.0225
 9970TIP3   OH251400   0.975   5.598  11.234  0.4462  0.1351  0.4619
 9970TIP3    H151401   1.042   5.650  11.279 -1.3518  1.9450  1.1927
 9970TIP3    H251402   1.023   5.553  11.164  2.4846  0.9919  1.2201
 9971TIP3   OH251403   1.327   3.165  12.025 -0.1411  0.5783 -0.6850
 9971TIP3    H151404   1.242   3.177  11.982  0.6653  1.7601 -2.0340
 9971TIP3    H251405   1.306   3.157  12.118 -1.8860 -1.3139 -1.1800
 9972TIP3   OH251406   2.834   2.146   4.207 -0.8337  0.2182  0.0062
 9972TIP3    H151407   2.833   2.228   4.256 -1.4724 -0.4473  1.1298
 9972TIP3    H251408   2.766   2.092   4.248 -1.5096 -0.3087 -1.7084
 9973TIP3   OH251409   6.189   3.397  14.564 -0.4454 -0.0415 -0.4547
 9973TIP3    H151410   6.271   3.382  14.517 -1.2923 -0.4635 -1.8689
 9973TIP3    H251411   6.215   3.405  14.655  1.0902 -0.9928 -0.7628
 9974TIP3   OH251412   1.809   3.855  14.012  0.0980  0.1063  0.3405
 9974TIP3    H151413   1.883   3.793  14.017 -0.7126 -0.8649  0.5820
 9974TIP3    H251414   1.739   3.805  13.971 -0.7676  0.6951  1.0671
 9975TIP3   OH251415   5.340   3.267   3.212  0.3938  0.1258  0.4192
 9975TIP3    H151416   5.379   3.211   3.280  1.3903  1.8977  1.3901
 9975TIP3    H251417   5.294   3.335   3.261 -1.3472 -0.1657 -0.7264
 9976TIP3   OH251418   3.893   0.883  16.978 -0.4404 -0.1737  0.5686
 9976TIP3    H151419   3.843   0.829  16.918 -0.5543  0.5349  0.0166
 9976TIP3    H251420   3.868   0.973  16.957 -0.7137  0.0839  1.8744
 9977TIP3   OH251421   1.413   0.123  16.679 -0.1348 -0.5030  0.3620
 9977TIP3    H151422   1.341   0.068  16.709 -0.8448  0.9229  1.3693
 9977TIP3    H251423   1.484   0.107  16.741  0.3158 -1.6365 -0.4197
 9978TIP3   OH251424   2.867   5.526  14.042 -0.3437 -0.5073  0.1221
 9978TIP3    H151425   2.876   5.478  14.124  0.5006 -0.2866  0.1641
 9978TIP3    H251426   2.874   5.459  13.974  0.0561 -0.5464  0.2014
 9979TIP3   OH251427   6.757   1.013   5.329 -0.6519  0.1532 -1.1370
 9979TIP3    H151428   6.796   0.969   5.405 -0.5888 -1.2436 -1.9270
 9979TIP3    H251429   6.703   1.082   5.366 -0.3306 -0.2586  0.1617
 9980TIP3   OH251430   1.366   2.333  11.987 -0.2072  1.0455 -0.1757
 9980TIP3    H151431   1.324   2.388  12.054 -0.7327 -0.3372  0.6861
 9980TIP3    H251432   1.440   2.293  12.033  0.1504  1.0063 -0.7840
 9981TIP3   OH251433   0.467   0.213   2.030 -0.5452  0.1418 -0.0273
 9981TIP3    H151434   0.460   0.292   2.084 -1.9545  0.2433 -0.3012
 9981TIP3    H251435   0.512   0.150   2.085 -0.1837  0.8682  0.5239
 9982TIP3   OH251436   3.424   3.468  15.678  0.2879 -0.3238 -0.2353
 9982TIP3    H151437   3.437   3.521  15.599  0.0557  0.7946  0.4399
 9982TIP3    H251438   3.388   3.385  15.647  0.7123 -0.1035 -1.3440
 9983TIP3   OH251439   5.025   4.876   0.898 -0.1851 -0.2196  0.1916
 9983TIP3    H151440   5.061   4.894   0.811 -0.4135  0.1209  0.1653
 9983TIP3    H251441   5.080   4.806   0.933  0.3994  0.1778  0.0838
 9984TIP3   OH251442   5.781   1.777  11.547 -0.1445 -0.2306 -0.0291
 9984TIP3    H151443   5.743   1.703  11.594  0.6181 -1.0547 -0.6688
 9984TIP3    H251444   5.872   1.779  11.575  0.1450 -0.3098 -0.9189
 9985TIP3   OH251445   6.495   5.556  15.140 -0.0487  0.2763 -0.4516
 9985TIP3    H151446   6.561   5.625  15.127 -0.6582  0.7509 -1.1057
 9985TIP3    H251447   6.510   5.526  15.230  0.4512  1.0297 -0.2676
 9986TIP3   OH251448   1.845   1.149  15.953 -0.2625  0.4585  0.4055
 9986TIP3    H151449   1.881   1.174  16.038  2.4642 -1.5711 -0.0099
 9986TIP3    H251450   1.768   1.097  15.974 -0.2412  0.8819  1.5940
 9987TIP3   OH251451   1.082   0.961   1.781 -0.7091  0.4301  0.9865
 9987TIP3    H151452   1.164   0.943   1.735 -1.3977  0.1677 -0.1862
 9987TIP3    H251453   1.092   1.051   1.813 -0.3997  0.7964 -0.1057
 9988TIP3   OH251454   0.566   2.065   5.431  0.3780  0.0863  0.4442
 9988TIP3    H151455   0.542   2.157   5.437 -2.2386 -0.5493  1.2815
 9988TIP3    H251456   0.661   2.064   5.440  0.7295  2.8177 -1.7138
 9989TIP3   OH251457   5.353   6.609   5.934 -0.2566 -0.4706  0.1456
 9989TIP3    H151458   5.443   6.585   5.957 -0.1381 -0.3590 -0.2006
 9989TIP3    H251459   5.326   6.669   6.004 -0.0061 -0.3774  0.1636
 9990TIP3   OH251460   0.574   2.945   2.218  0.1107  0.4119 -0.1401
 9990TIP3    H151461   0.560   2.864   2.267  1.3548  1.3527  1.8972
 9990TIP3    H251462   0.546   2.924   2.128  0.0580 -2.1349  0.3946
 9991TIP3   OH251463   6.726   1.693   1.963  0.0285  0.0763 -0.0236
 9991TIP3    H151464   6.636   1.717   1.986  0.3514  1.6785 -0.3419
 9991TIP3    H251465   6.745   1.617   2.019 -0.7074  1.1755  1.8396
 9992TIP3   OH251466   4.272   3.873   5.791  0.2008  0.2324 -0.0991
 9992TIP3    H151467   4.290   3.800   5.851 -1.6272  0.8604  1.3081
 9992TIP3    H251468   4.351   3.927   5.796  0.1919  0.1413  1.5857
 9993TIP3   OH251469   6.300   6.742  12.835  0.7061  0.1670 -0.2365
 9993TIP3    H151470   6.292   6.714  12.744 -0.9622 -0.9167  0.2011
 9993TIP3    H251471   6.280   6.663  12.886  0.3141  1.0820  1.0659
 9994TIP3   OH251472   5.122   0.310  10.834 -0.2608  0.3320 -0.7556
 9994TIP3    H151473   5.167   0.394  10.842  0.2380 -0.0448  0.8598
 9994TIP3    H251474   5.031   0.333  10.816 -0.4723  1.3286  1.2148
 9995TIP3   OH251475   2.475   5.369   1.175 -0.3548  0.1087  0.4224
 9995TIP3    H151476   2.387   5.387   1.142 -0.1221  0.0701 -0.2287
 9995TIP3    H251477   2.482   5.273   1.174  0.3389  0.1458 -1.2854
 9996TIP3   OH251478   0.290   0.500   5.778 -0.5138 -0.8135 -0.3571
 9996TIP3    H151479   0.381   0.504   5.748 -0.3080  2.1898  0.3467
 9996TIP3    H251480   0.293   0.447   5.858  0.8745  0.2306  0.3246
 9997TIP3   OH251481   2.240   5.674  11.786 -0.3044 -0.1108  0.2301
 9997TIP3    H151482   2.202   5.632  11.709  1.9826 -0.8936 -0.5711
 9997TIP3    H251483   2.292   5.746  11.751  0.3108 -0.1231  1.0773
 9998TIP3   OH251484   6.384   4.775  11.339 -0.1867  0.1801 -0.7249
 9998TIP3    H151485   6.347   4.756  11.426  1.9713  3.9277  1.2811
 9998TIP3    H251486   6.471   4.733  11.340  0.0881  0.7402 -0.8121
 9999TIP3   OH251487   0.834   4.488   0.057 -0.3299  0.5759  0.2033
 9999TIP3    H151488   0.798   4.454  -0.025 -1.1360  2.2350 -0.1686
 9999TIP3    H251489   0.758   4.494   0.116 -0.7937  3.9953 -0.5527
10000TIP3   OH251490   3.007   5.428   2.868  0.0223  0.2112  0.1990
10000TIP3    H151491   2.930   5.485   2.857  0.5013  1.0076  0.8394
10000TIP3    H251492   3.012   5.378   2.787 -1.4421 -0.1838  0.3196
10001TIP3   OH251493   2.985   2.737   3.751 -0.1649 -0.0496 -0.5698
10001TIP3    H151494   2.917   2.700   3.806  1.8646 -2.0733  0.7634
10001TIP3    H251495   2.956   2.827   3.733 -2.3127 -0.2815  1.3445
10002TIP3   OH251496   2.522   4.599   4.202 -0.0954 -0.0364  0.1625
10002TIP3    H151497   2.433   4.634   4.191  0.2922  0.7201 -0.6832
10002TIP3    H251498   2.569   4.628   4.124  1.4449  1.3164  1.5056
10003TIP3   OH251499   5.975   2.111  11.522  0.0712 -0.0562 -0.2786
10003TIP3    H151500   5.910   2.180  11.512 -1.1891 -1.1243  0.2911
10003TIP3    H251501   5.997   2.085  11.432 -0.1828  0.3962 -0.4742
10004TIP3   OH251502   3.587   5.154  12.994 -0.4021  0.1329 -0.3248
10004TIP3    H151503   3.570   5.248  12.998 -0.5778  0.0625  0.7735
10004TIP3    H251504   3.568   5.122  13.082 -2.2792 -1.2663 -1.1647
10005TIP3   OH251505   4.396   0.758  16.823  0.5266 -0.7306  0.0843
10005TIP3    H151506   4.465   0.782  16.884 -0.7214 -1.8291  2.0546
10005TIP3    H251507   4.371   0.840  16.780  0.2500  0.4793  2.3932
10006TIP3   OH251508   5.651   4.046   5.858 -0.5276 -0.6937 -0.4935
10006TIP3    H151509   5.609   4.003   5.933  0.6223 -2.8978 -1.0383
10006TIP3    H251510   5.582   4.102   5.821 -0.3581  3.2388  4.0143
10007TIP3   OH251511   5.679   5.111  12.033  0.3995  0.0465 -1.1427
10007TIP3    H151512   5.694   5.128  12.126  2.0676 -0.8848 -1.2104
10007TIP3    H251513   5.585   5.127  12.021  0.5093  2.1060  0.2578
10008TIP3   OH251514   2.124   3.707  12.433 -0.3194 -0.6253  0.1277
10008TIP3    H151515   2.174   3.707  12.351 -0.5134  1.6602 -0.0685
10008TIP3    H251516   2.033   3.717  12.406 -0.3869  0.1338  0.5945
10009TIP3   OH251517   1.582   2.224   3.781 -0.0265 -0.3243 -0.4934
10009TIP3    H151518   1.641   2.287   3.822  0.7108 -1.5776  0.4529
10009TIP3    H251519   1.507   2.276   3.754  0.4112  0.9098  0.5464
10010TIP3   OH251520   6.186   3.803  14.272  0.4181  0.0110  0.1477
10010TIP3    H151521   6.271   3.805  14.316 -0.0145  0.5958  0.9937
10010TIP3    H251522   6.194   3.733  14.208  1.4062 -0.2092  0.4884
10011TIP3   OH251523   5.309   0.183   3.524  0.5982 -0.8627 -0.6770
10011TIP3    H151524   5.279   0.272   3.505 -0.0030 -0.8938  0.0666
10011TIP3    H251525   5.388   0.195   3.576  0.4837 -0.7610 -0.5258
10012TIP3   OH251526   5.234   5.658   2.785  0.5588  0.2274  0.4166
10012TIP3    H151527   5.304   5.611   2.830  0.4976 -2.1873 -1.7625
10012TIP3    H251528   5.248   5.638   2.692 -2.3052  0.6343 -0.1965
10013TIP3   OH251529   3.507   0.119   3.651 -0.2162 -0.1888  0.4815
10013TIP3    H151530   3.549   0.158   3.728  1.9396  0.7879 -1.0797
10013TIP3    H251531   3.457   0.190   3.612 -1.0067 -0.5849  0.7475
10014TIP3   OH251532   5.752   4.359  11.593  0.0234  0.1550  0.3563
10014TIP3    H151533   5.672   4.412  11.591  0.2961  0.5677 -1.1896
10014TIP3    H251534   5.760   4.327  11.503  1.7988  0.4283  0.3997
10015TIP3   OH251535   1.321   3.203  10.761  0.1500 -0.3153  0.0498
10015TIP3    H151536   1.267   3.154  10.699  1.3881  0.0564 -1.3747
10015TIP3    H251537   1.370   3.135  10.808 -1.1084 -0.6221  0.9639
10016TIP3   OH251538   1.801   5.215  16.414 -0.4503  0.1578  0.0713
10016TIP3    H151539   1.823   5.130  16.375 -1.4685  0.1271 -0.4538
10016TIP3    H251540   1.746   5.193  16.489  0.1528  0.3106  0.5692
10017TIP3   OH251541   2.012   2.664  16.211 -0.6491 -0.5420  0.6084
10017TIP3    H151542   2.099   2.626  16.224  0.8510  2.2431 -0.4430
10017TIP3    H251543   2.015   2.747  16.259 -1.8225  0.7528 -1.4297
10018TIP3   OH251544   3.000   1.277   3.104  0.6143 -0.4571 -0.0863
10018TIP3    H151545   3.019   1.257   3.012  2.2458 -2.2377  0.5611
10018TIP3    H251546   2.953   1.360   3.102  1.0232 -0.2255 -2.4917
10019TIP3   OH251547   0.041   2.726  14.081  0.1441 -0.9354  0.2794
10019TIP3    H151548  -0.031   2.730  14.144 -0.8534  0.9615 -0.8824
10019TIP3    H251549   0.099   2.798  14.106 -0.2824 -0.1356 -0.9177
10020TIP3   OH251550   5.027   5.066  12.460  0.0760 -0.2614  0.2235
10020TIP3    H151551   4.966   5.019  12.404  1.1211 -0.5269 -0.7377
10020TIP3    H251552   5.022   5.022  12.544 -1.1942 -0.1384  0.2356
10021TIP3   OH251553   2.791   1.538  16.587 -0.0508 -0.4299 -0.3495
10021TIP3    H151554   2.800   1.478  16.661  0.3228 -0.2242 -0.2278
10021TIP3    H251555   2.800   1.625  16.625 -1.6345 -0.2298 -0.3513
10022TIP3   OH251556   3.374   0.597  16.955 -0.3514  0.0476 -0.5734
10022TIP3    H151557   3.280   0.580  16.947 -0.8135  1.9762  0.2699
10022TIP3    H251558   3.385   0.688  16.926  0.5308  1.3211  3.1972
10023TIP3   OH251559   2.451   2.923   2.932 -0.5041  0.2195 -0.4429
10023TIP3    H151560   2.377   2.914   2.872 -0.3896  0.5514 -0.6393
10023TIP3    H251561   2.483   3.012   2.918 -0.5784  0.3573  0.2380
10024TIP3   OH251562   3.297   4.668  16.943 -0.6881 -0.2675 -0.3548
10024TIP3    H151563   3.367   4.646  16.882 -1.1273  0.0078 -0.9723
10024TIP3    H251564   3.217   4.646  16.896 -1.0122 -1.3650  0.6534
10025TIP3   OH251565   5.818   2.741  17.245  0.8113 -0.8411  0.7225
10025TIP3    H151566   5.787   2.799  17.313 -0.1992 -1.1289  0.5238
10025TIP3    H251567   5.905   2.775  17.222  2.4819 -2.3606  4.0666
10026TIP3   OH251568   2.196   1.289  11.044 -0.1174  0.1367 -0.0586
10026TIP3    H151569   2.290   1.294  11.060  0.2193 -0.9999 -1.4858
10026TIP3    H251570   2.168   1.380  11.038  1.3785  0.5312 -2.1220
10027TIP3   OH251571   6.051   3.012  14.741  0.0063 -0.8155 -0.9231
10027TIP3    H151572   5.977   3.058  14.780  1.2338  0.8302 -0.4008
10027TIP3    H251573   6.014   2.969  14.664 -1.7239 -1.0770  0.0053
10028TIP3   OH251574   2.396   0.583   0.191  0.3430 -0.3759 -0.2376
10028TIP3    H151575   2.306   0.604   0.215 -0.3014 -1.6513 -1.4185
10028TIP3    H251576   2.412   0.497   0.230  1.0159 -0.2346 -0.1798
10029TIP3   OH251577   5.026   3.926  14.575  0.3451 -0.2876 -0.3999
10029TIP3    H151578   4.988   3.878  14.502 -1.7012 -0.9166  0.9886
10029TIP3    H251579   4.964   3.997  14.592  1.9816  1.2850 -0.7171
10030TIP3   OH251580   0.062   6.224  13.416 -0.0308 -0.2557 -0.1732
10030TIP3    H151581   0.046   6.201  13.324  0.2316 -1.4713  0.0708
10030TIP3    H251582   0.143   6.178  13.438  0.0061  0.1800  0.6111
10031TIP3   OH251583   6.761   4.915   5.107 -0.4921 -0.3710  0.0317
10031TIP3    H151584   6.721   4.981   5.050 -0.2664  0.9461  1.3556
10031TIP3    H251585   6.708   4.915   5.186 -0.7524 -2.1309 -0.1123
10032TIP3   OH251586   0.812   1.140   1.478 -0.8136  0.2274  0.0416
10032TIP3    H151587   0.872   1.148   1.404 -0.5124 -0.9120  0.1345
10032TIP3    H251588   0.745   1.207   1.462 -0.1185  0.7804 -0.6358
10033TIP3   OH251589   0.479   1.218   2.125 -0.0391 -0.1038  0.0561
10033TIP3    H151590   0.573   1.214   2.108 -0.1317  0.1465 -0.5537
10033TIP3    H251591   0.463   1.310   2.147 -0.0957 -0.2085  0.4590
10034TIP3   OH251592   1.329   4.342   3.605 -0.1757 -0.3100  0.7553
10034TIP3    H151593   1.405   4.399   3.591 -1.4158  1.0050 -1.2604
10034TIP3    H251594   1.262   4.401   3.641 -1.2983 -0.5961 -0.7871
10035TIP3   OH251595   6.477   2.139   5.328 -0.7906 -0.1608 -0.3741
10035TIP3    H151596   6.462   2.111   5.418  0.6784 -2.3333 -0.7312
10035TIP3    H251597   6.568   2.167   5.326 -0.9469  0.3401 -1.1004
10036TIP3   OH251598   6.570   1.396  17.055 -0.1367 -0.1759  0.3170
10036TIP3    H151599   6.576   1.492  17.057  0.8064 -0.2264  0.4923
10036TIP3    H251600   6.636   1.367  17.117 -1.3864 -0.9267  1.3311
10037TIP3   OH251601   0.123   3.570  17.228  0.1534  0.2719  0.0804
10037TIP3    H151602   0.088   3.568  17.139  0.6742  0.5518 -0.1320
10037TIP3    H251603   0.208   3.613  17.220  0.4297 -0.1529  0.6340
10038TIP3   OH251604   6.288   6.135  13.620  0.0512  0.2722 -0.1246
10038TIP3    H151605   6.265   6.223  13.651 -1.8340 -0.3744  0.4552
10038TIP3    H251606   6.369   6.148  13.570 -0.7200  2.5169 -0.9506
10039TIP3   OH251607   4.977   3.195  15.090 -0.1894 -0.3182 -0.2835
10039TIP3    H151608   4.998   3.146  15.170  0.2458  0.4500  0.0768
10039TIP3    H251609   4.958   3.284  15.120  1.6024  0.4167 -1.1639
10040TIP3   OH251610   4.919   3.915   4.122 -0.8283 -0.3214  0.2098
10040TIP3    H151611   4.870   3.973   4.064  0.8016  0.0965 -0.8032
10040TIP3    H251612   4.867   3.913   4.203 -2.1778  0.5714 -0.5957
10041TIP3   OH251613   0.897   5.679  14.399 -0.0475 -0.3051  0.1304
10041TIP3    H151614   0.806   5.663  14.425 -0.6246  0.1567 -1.4741
10041TIP3    H251615   0.932   5.736  14.467 -1.7307  1.5176 -0.4450
10042TIP3   OH251616   2.699   0.626  13.553  0.0545  0.0899  0.1417
10042TIP3    H151617   2.649   0.613  13.473  0.2435 -0.5645  0.1224
10042TIP3    H251618   2.648   0.582  13.621  1.3575 -1.9955 -0.1552
10043TIP3   OH251619   5.053   2.062  12.176  0.0258  0.0866 -0.5702
10043TIP3    H151620   5.108   2.115  12.233 -0.4829  0.9729 -0.8944
10043TIP3    H251621   5.013   1.997  12.234  0.1127  0.4929 -0.0512
10044TIP3   OH251622   5.912   1.401   1.598  0.1960 -0.6668 -0.1296
10044TIP3    H151623   5.903   1.422   1.691 -0.8792 -0.8011 -0.1839
10044TIP3    H251624   5.879   1.311   1.590  0.0570 -0.5719 -0.6748
10045TIP3   OH251625   5.305   4.780   2.005  0.5935 -0.5912  0.4040
10045TIP3    H151626   5.258   4.835   1.942  0.6069  0.0263  0.9089
10045TIP3    H251627   5.365   4.728   1.953  2.5985  1.8459  0.0534
10046TIP3   OH251628   5.835   6.407  14.990 -0.0220 -0.2642 -0.4618
10046TIP3    H151629   5.929   6.395  14.984 -0.0921 -0.5709 -1.0482
10046TIP3    H251630   5.814   6.389  15.081  0.4335 -0.6057 -0.4209
10047TIP3   OH251631   5.206   0.532  14.271 -0.4538  0.2845 -0.2215
10047TIP3    H151632   5.177   0.533  14.362  0.9862 -2.2146  0.3387
10047TIP3    H251633   5.198   0.624  14.243  0.6836  1.4979  2.9435
10048TIP3   OH251634   0.675   5.120   0.529  0.3667  0.5269 -0.5514
10048TIP3    H151635   0.594   5.139   0.575 -0.8339 -2.8016 -1.0198
10048TIP3    H251636   0.737   5.185   0.562 -1.8974  1.8666  1.4110
10049TIP3   OH251637   0.935   0.405   3.340  0.4403 -0.0430  0.2031
10049TIP3    H151638   1.007   0.466   3.353  1.4686 -1.0536 -0.5592
10049TIP3    H251639   0.868   0.456   3.294  0.8704  0.7693  0.4586
10050TIP3   OH251640   5.722   5.887  15.723 -0.3118 -0.7390  0.2481
10050TIP3    H151641   5.633   5.861  15.746 -0.7629 -0.8250 -1.4051
10050TIP3    H251642   5.745   5.830  15.650  1.0364 -0.5814  0.5317
10051TIP3   OH251643   4.808   2.647   3.089  0.7360 -0.1941 -0.3832
10051TIP3    H151644   4.851   2.687   3.012  0.7485  0.8900  0.1637
10051TIP3    H251645   4.860   2.677   3.163  1.8349 -2.7342 -0.0495
10052TIP3   OH251646   1.330   4.151  16.630  0.0522 -0.4266 -0.5667
10052TIP3    H151647   1.303   4.200  16.553 -2.8036 -1.5353 -0.3707
10052TIP3    H251648   1.288   4.066  16.621  0.8231 -1.1011  1.5191
10053TIP3   OH251649   1.622   2.152  12.775 -0.5396 -0.8218  0.4332
10053TIP3    H151650   1.615   2.169  12.681 -1.2226  2.6584  0.9712
10053TIP3    H251651   1.531   2.150  12.805 -0.3569 -2.6100  0.9949
10054TIP3   OH251652   3.155   0.369  16.360  0.0566 -0.1670 -0.4542
10054TIP3    H151653   3.212   0.388  16.434  0.9577  1.1121 -1.4574
10054TIP3    H251654   3.072   0.342  16.401  0.9057 -0.6557  1.0071
10055TIP3   OH251655   4.293   0.660  11.058 -1.2600  0.3348  0.3999
10055TIP3    H151656   4.247   0.595  11.005 -0.6216  0.1552  0.0479
10055TIP3    H251657   4.324   0.611  11.134 -0.2066  0.0568 -0.1879
10056TIP3   OH251658   6.132   3.869   1.448 -0.0362  0.1912  0.0818
10056TIP3    H151659   6.145   3.955   1.408 -3.7021  0.8225 -0.0755
10056TIP3    H251660   6.105   3.812   1.375  1.0524 -0.7793  0.4036
10057TIP3   OH251661   2.299   0.887   6.478  0.4375 -0.1570 -0.1600
10057TIP3    H151662   2.295   0.982   6.474 -1.4081 -0.2540 -1.8624
10057TIP3    H251663   2.298   0.858   6.387  0.0942 -1.8326  0.3292
10058TIP3   OH251664   3.154   5.634   5.708  0.3493  0.2314 -0.3867
10058TIP3    H151665   3.084   5.571   5.687  0.9433  0.0808 -2.0071
10058TIP3    H251666   3.140   5.655   5.801 -0.9767 -0.8816 -0.3073
10059TIP3   OH251667   3.274   1.409   0.490 -0.1896 -0.2658 -0.2120
10059TIP3    H151668   3.343   1.442   0.432 -0.6657 -1.0529 -1.2646
10059TIP3    H251669   3.209   1.479   0.492 -0.0947 -0.1666 -0.5048
10060TIP3   OH251670   5.467   4.413   4.227 -0.6721 -0.3267  0.1670
10060TIP3    H151671   5.372   4.411   4.237 -0.4390 -1.7280  3.7790
10060TIP3    H251672   5.500   4.416   4.317  2.7321  1.1511 -0.9802
10061TIP3   OH251673   3.365   1.538   3.477 -0.3370 -0.1833 -0.1699
10061TIP3    H151674   3.443   1.484   3.469 -0.1883  0.0948 -0.6544
10061TIP3    H251675   3.311   1.514   3.402 -0.0527  0.6699 -0.6726
10062TIP3   OH251676   1.506   5.737  13.190 -0.5862  0.0076 -0.4317
10062TIP3    H151677   1.567   5.737  13.115 -1.4585  3.3567 -1.2864
10062TIP3    H251678   1.560   5.764  13.264 -0.4167 -0.0578 -0.5281
10063TIP3   OH251679   6.190   2.276   5.646 -0.3795 -0.5329  0.2857
10063TIP3    H151680   6.248   2.275   5.722  1.5674 -0.9195 -1.1391
10063TIP3    H251681   6.105   2.247   5.680  0.4611 -0.8061  2.2715
10064TIP3   OH251682   5.231   4.358   2.333  0.0682 -0.2399  0.1509
10064TIP3    H151683   5.213   4.306   2.411 -0.0572 -1.4388 -0.6505
10064TIP3    H251684   5.297   4.421   2.361 -0.6489 -0.0308  1.4602
10065TIP3   OH251685   1.758   6.445   3.149 -0.1268  0.9366 -0.2640
10065TIP3    H151686   1.842   6.406   3.176  0.8445  2.2058 -1.3188
10065TIP3    H251687   1.723   6.383   3.085  0.4213  0.7906 -0.4321
10066TIP3   OH251688   2.770   2.356   5.966  0.0869 -0.3530  0.1237
10066TIP3    H151689   2.788   2.441   5.927  3.6709 -0.6915  0.7240
10066TIP3    H251690   2.692   2.369   6.019 -0.9605  1.8323 -1.8033
10067TIP3   OH251691   3.364   1.330   5.300  0.6637  0.6365  0.2745
10067TIP3    H151692   3.391   1.420   5.279 -1.3242  1.0353 -0.8853
10067TIP3    H251693   3.397   1.277   5.228  0.3316  0.7484  0.0360
10068TIP3   OH251694   5.295   1.823  12.324  0.2819  0.5539  0.8552
10068TIP3    H151695   5.334   1.887  12.265  1.5858 -0.7217  0.2623
10068TIP3    H251696   5.273   1.873  12.403 -1.8534  2.3746 -0.7688
10069TIP3   OH251697   5.452   0.971   5.784 -0.7466  0.3060  0.0593
10069TIP3    H151698   5.447   1.061   5.751 -1.8144 -0.5437 -2.2774
10069TIP3    H251699   5.463   0.917   5.706  0.7696 -1.5769  1.4733
10070TIP3   OH251700   1.397   1.516  11.143  0.0829 -0.2210  0.4876
10070TIP3    H151701   1.456   1.564  11.201  2.0295 -1.7163 -0.1142
10070TIP3    H251702   1.448   1.439  11.116 -1.4218 -0.5481 -1.7010
10071TIP3   OH251703   0.011   5.665   6.018  0.1306 -0.0216  0.6486
10071TIP3    H151704   0.090   5.691   6.065  0.1789 -1.9337  1.7056
10071TIP3    H251705   0.043   5.612   5.945 -0.0222  1.9449 -0.9356
10072TIP3   OH251706   6.263   0.228   5.354  0.1640 -0.0454 -0.2881
10072TIP3    H151707   6.196   0.161   5.362 -1.5445  1.6090  0.0765
10072TIP3    H251708   6.335   0.186   5.306 -0.9000 -2.0292 -0.2084
10073TIP3   OH251709   0.322   2.304  13.692  0.1226  0.7979  0.6943
10073TIP3    H151710   0.235   2.301  13.732 -0.1318 -0.1930  0.1112
10073TIP3    H251711   0.307   2.283  13.600  1.1971 -1.9751  1.0261
10074TIP3   OH251712   6.157   2.122  11.729 -0.2376  0.0323  0.3650
10074TIP3    H151713   6.193   2.191  11.674 -0.4154  0.2750  0.5498
10074TIP3    H251714   6.074   2.099  11.688  0.8078 -1.6190 -0.9566
10075TIP3   OH251715   0.929   3.917   4.764  0.7840  0.2510  0.0993
10075TIP3    H151716   0.872   3.990   4.740 -0.0487 -0.9642 -1.8341
10075TIP3    H251717   0.875   3.861   4.819 -0.1490 -1.1245 -2.0906
10076TIP3   OH251718   6.362   4.942   2.684  0.0661 -0.2742  0.7802
10076TIP3    H151719   6.427   4.881   2.719 -0.9140 -2.0694 -0.3456
10076TIP3    H251720   6.278   4.911   2.719 -0.7989 -1.3889 -1.9268
10077TIP3   OH251721   1.796   4.908   5.999  0.0055 -0.0277  0.0661
10077TIP3    H151722   1.850   4.933   5.924  0.7005 -0.7164  0.3215
10077TIP3    H251723   1.836   4.953   6.073  0.8077 -1.2278  0.4039
10078TIP3   OH251724   0.413   4.828   5.786  0.6108  0.0461  0.0352
10078TIP3    H151725   0.330   4.816   5.832  0.5645 -2.8422 -0.6244
10078TIP3    H251726   0.480   4.813   5.852  0.6176  0.8260  0.2167
10079TIP3   OH251727   3.767   0.147   4.204 -0.2935  0.2419 -0.6608
10079TIP3    H151728   3.830   0.184   4.142 -2.7489  4.4446 -0.9882
10079TIP3    H251729   3.683   0.154   4.160 -1.6204 -0.6391  1.5788
10080TIP3   OH251730   4.958   0.849  11.722 -0.1407 -0.1490 -0.0964
10080TIP3    H151731   4.919   0.808  11.799 -0.9760  0.9350  0.0704
10080TIP3    H251732   4.901   0.923  11.702 -0.1598 -0.6301 -1.9969
10081TIP3   OH251733   1.244   5.506   4.891  0.0312  0.0740 -0.0440
10081TIP3    H151734   1.320   5.531   4.839  0.3862  0.9888  0.8747
10081TIP3    H251735   1.279   5.442   4.954  0.2059  1.0035  0.8214
10082TIP3   OH251736   4.474   4.043  12.084  0.5121 -0.1811 -0.6495
10082TIP3    H151737   4.453   3.985  12.011 -0.5466 -0.0731 -0.4488
10082TIP3    H251738   4.534   4.108  12.048  1.2375 -1.0442 -1.0238
10083TIP3   OH251739   6.549   0.969  12.601  0.5823 -0.2942 -0.4385
10083TIP3    H151740   6.598   0.942  12.523 -0.7723 -2.1405 -0.6983
10083TIP3    H251741   6.516   0.888  12.639  0.0337  0.6844  1.2896
10084TIP3   OH251742   4.768   1.481   1.511 -0.4212  0.0240 -0.2144
10084TIP3    H151743   4.682   1.502   1.475  0.1340  0.4626 -1.3169
10084TIP3    H251744   4.830   1.532   1.458  0.6662 -1.6200 -0.5899
10085TIP3   OH251745   4.244   2.656  15.943  0.0661 -0.2492 -0.5099
10085TIP3    H151746   4.309   2.726  15.949 -0.6633  0.3129  2.0983
10085TIP3    H251747   4.162   2.697  15.972 -0.5415 -1.9617  0.3244
10086TIP3   OH251748   3.944   6.043   2.962  0.4025  0.4532  0.1991
10086TIP3    H151749   3.963   6.092   2.882  1.1287 -0.7657 -0.4038
10086TIP3    H251750   3.999   6.084   3.028  0.0114  1.2900  0.0224
10087TIP3   OH251751   2.586   5.708   2.699  0.1043  0.1204  0.0601
10087TIP3    H151752   2.570   5.792   2.742 -0.0979 -0.8482  2.0070
10087TIP3    H251753   2.672   5.681   2.730  1.2920  0.7096 -2.5308
10088TIP3   OH251754   1.790   0.510   1.440 -0.1510 -0.0148 -0.4293
10088TIP3    H151755   1.878   0.486   1.412 -0.5517 -1.2583 -0.6658
10088TIP3    H251756   1.735   0.435   1.417 -1.0602  0.2329  0.7979
10089TIP3   OH251757   4.131   0.728  15.273 -0.4083 -0.2128 -0.2462
10089TIP3    H151758   4.084   0.729  15.190  0.2236  2.5264 -0.6646
10089TIP3    H251759   4.063   0.743  15.339 -0.6464 -0.3505 -0.4595
10090TIP3   OH251760   2.205   3.417  11.610  0.4980 -0.0980 -0.1020
10090TIP3    H151761   2.197   3.460  11.526 -0.3372  1.7172  0.8571
10090TIP3    H251762   2.242   3.483  11.669 -2.8393  0.1852  1.9584
10091TIP3   OH251763   5.607   5.968   0.502 -0.0231  0.1653  0.1570
10091TIP3    H151764   5.698   5.958   0.530 -0.4511 -0.2864  1.4719
10091TIP3    H251765   5.567   6.022   0.570 -0.7388  0.3821 -0.4242
10092TIP3   OH251766   1.516   3.930  14.357 -0.1919  0.1290  0.4183
10092TIP3    H151767   1.429   3.968  14.365 -1.3450 -1.0885 -3.6617
10092TIP3    H251768   1.504   3.838  14.383  0.6264  0.5545  2.4657
10093TIP3   OH251769   1.195   5.112   3.892  0.3234  0.1305  0.1577
10093TIP3    H151770   1.141   5.045   3.935  1.1009 -0.7012 -0.1310
10093TIP3    H251771   1.267   5.127   3.953  0.1455  0.7315  0.2267
10094TIP3   OH251772   5.970   1.394  12.056 -0.1003 -0.2859  0.3742
10094TIP3    H151773   6.056   1.358  12.033 -0.1091  0.1824 -0.4212
10094TIP3    H251774   5.950   1.354  12.141  1.4638  0.5262  1.1847
10095TIP3   OH251775   4.200   4.787  13.475 -0.1180  0.0850  0.2387
10095TIP3    H151776   4.257   4.730  13.423 -0.5384  0.9467 -1.2568
10095TIP3    H251777   4.250   4.869  13.482 -0.1811  0.0603  0.9773
10096TIP3   OH251778   3.443   1.101  12.615 -0.2955 -0.0405  0.3438
10096TIP3    H151779   3.388   1.174  12.644 -0.3295  0.5704 -1.1457
10096TIP3    H251780   3.526   1.114  12.661 -0.2860  0.9846  0.0652
10097TIP3   OH251781   6.816   1.748  16.121 -0.4502  0.0018 -0.3042
10097TIP3    H151782   6.757   1.790  16.184  0.0358  0.2599 -0.0169
10097TIP3    H251783   6.787   1.656  16.119 -1.2617  0.2541 -0.6450
10098TIP3   OH251784   5.840   0.632   3.018 -0.3188  0.0662  0.1249
10098TIP3    H151785   5.872   0.624   2.929 -2.0340  1.2718 -0.6532
10098TIP3    H251786   5.869   0.551   3.062 -1.3907 -1.6678 -2.1560
10099TIP3   OH251787   4.998   2.618  10.961 -0.0950 -0.0358 -0.1082
10099TIP3    H151788   5.021   2.711  10.962  0.7185 -0.2294  0.0724
10099TIP3    H251789   5.022   2.587  11.049 -0.1302 -0.4671 -0.2484
10100TIP3   OH251790   0.466   4.979  13.286  1.1025 -0.1168 -0.7738
10100TIP3    H151791   0.471   4.911  13.220 -2.3667 -0.7430 -0.6178
10100TIP3    H251792   0.513   5.053  13.248  0.8683 -1.0719 -3.1180
10101TIP3   OH251793   1.804   3.689  11.744 -0.0652 -0.5550  0.2953
10101TIP3    H151794   1.721   3.665  11.786 -0.2760 -1.8927 -0.8143
10101TIP3    H251795   1.783   3.769  11.696 -0.3360 -0.1161  1.1200
10102TIP3   OH251796   1.157   5.117  16.284 -0.5374 -0.1329 -0.0902
10102TIP3    H151797   1.091   5.106  16.353 -0.5861  0.1706 -0.0845
10102TIP3    H251798   1.217   5.183  16.319  0.2706 -1.0526  0.2729
10103TIP3   OH251799   6.554   6.124  12.251  0.2739 -0.7818 -0.6354
10103TIP3    H151800   6.487   6.174  12.204 -0.1457 -0.1231  0.6124
10103TIP3    H251801   6.510   6.091  12.330  1.5572  0.2610  0.5839
10104TIP3   OH251802   0.218   2.219  14.727  0.2115  0.2272 -0.2961
10104TIP3    H151803   0.299   2.200  14.774  0.0116 -2.3596 -0.8655
10104TIP3    H251804   0.246   2.250  14.641  0.5501  1.8120  0.3445
10105TIP3   OH251805   3.700   3.411   3.092 -0.1884  0.0759  0.1503
10105TIP3    H151806   3.628   3.474   3.090  0.1856  0.5381  0.8255
10105TIP3    H251807   3.765   3.447   3.033 -0.3948 -0.2051 -0.2525
10106TIP3   OH251808   4.267   0.257  11.061 -0.6423  0.0271  0.4260
10106TIP3    H151809   4.248   0.349  11.045 -0.0685  0.1223  0.2510
10106TIP3    H251810   4.362   0.250  11.050 -0.8735 -0.9426 -1.3804
10107TIP3   OH251811   1.580   3.300  12.805  0.7159 -0.0154  0.3405
10107TIP3    H151812   1.562   3.207  12.790  0.2935  0.1904 -0.4090
10107TIP3    H251813   1.523   3.347  12.745  1.6695  0.7120 -0.0221
10108TIP3   OH251814   6.075   2.102  14.674  0.5858  0.0110 -0.2808
10108TIP3    H151815   5.999   2.127  14.725  0.0012  0.8563 -1.5037
10108TIP3    H251816   6.132   2.056  14.736 -0.3889  0.3830  0.9321
10109TIP3   OH251817   5.614   6.554   0.765 -0.4054 -0.0203  0.0806
10109TIP3    H151818   5.607   6.650   0.761  1.4341  0.1815  0.7911
10109TIP3    H251819   5.634   6.528   0.675 -1.5921  0.1779 -0.2515
10110TIP3   OH251820   3.365   4.030  11.942  0.2768 -0.3970  0.1020
10110TIP3    H151821   3.378   4.097  12.009  1.1628  0.2369 -0.6777
10110TIP3    H251822   3.277   3.995  11.960  1.3459 -1.9618  3.0749
10111TIP3   OH251823   6.350   2.051  12.103 -0.4150  0.1176 -0.0258
10111TIP3    H151824   6.355   2.039  12.008 -0.8943 -1.8189  0.1482
10111TIP3    H251825   6.378   1.967  12.139 -0.9157  0.5861  1.5407
10112TIP3   OH251826   0.681   4.547   4.456  0.3278  0.2142  0.0398
10112TIP3    H151827   0.684   4.584   4.368  1.9426  0.7100  0.2700
10112TIP3    H251828   0.606   4.590   4.497  0.5344  1.2061 -0.5761
10113TIP3   OH251829   6.581   0.260   2.003  0.4573  0.7844  0.1624
10113TIP3    H151830   6.641   0.326   1.968 -0.2312  1.7117  0.6901
10113TIP3    H251831   6.575   0.194   1.934 -0.7843  2.5083 -1.4905
10114TIP3   OH251832   5.030   2.141  10.838 -0.3965 -0.5519 -0.4762
10114TIP3    H151833   4.995   2.230  10.828 -1.0833 -0.9173 -1.4078
10114TIP3    H251834   5.119   2.147  10.802  0.2264  0.1597  1.0785
10115TIP3   OH251835   4.646   5.982   2.779  0.3280  0.0958 -0.5548
10115TIP3    H151836   4.551   5.988   2.764  0.3247  0.2096 -0.4879
10115TIP3    H251837   4.660   5.890   2.802 -0.0292  0.4639  1.2412
10116TIP3   OH251838   2.039   2.525   4.183 -0.0772  0.5466 -0.3326
10116TIP3    H151839   2.099   2.583   4.135  1.0868 -0.4396 -0.1154
10116TIP3    H251840   2.079   2.517   4.270 -0.6803  0.0975 -0.0937
10117TIP3   OH251841   6.295   2.446  15.465  0.0325 -0.1987 -0.5046
10117TIP3    H151842   6.316   2.513  15.400  1.0724 -0.4337 -0.4228
10117TIP3    H251843   6.256   2.375  15.414 -0.9944  0.4141 -0.6030
10118TIP3   OH251844   5.444   3.007   4.581  0.4517 -0.0542 -0.3760
10118TIP3    H151845   5.355   3.025   4.549  0.3585  0.6433  0.2713
10118TIP3    H251846   5.500   3.064   4.528  0.3464  0.7329  0.3536
10119TIP3   OH251847   4.612   4.932  12.546  0.3663 -0.4771  0.6452
10119TIP3    H151848   4.622   4.992  12.473  1.8235 -2.3688 -0.7865
10119TIP3    H251849   4.567   4.984  12.613  1.1799  2.0498 -0.6455
10120TIP3   OH251850   4.887   3.971  12.919  0.1831  0.0936 -0.0545
10120TIP3    H151851   4.827   3.947  12.849  0.2189 -0.2191  0.0222
10120TIP3    H251852   4.924   3.888  12.949  1.7533  0.3964 -1.0659
10121TIP3   OH251853   4.359   6.351  12.314 -0.3306 -0.1226  0.7234
10121TIP3    H151854   4.445   6.389  12.333 -0.4492  0.1178  0.7845
10121TIP3    H251855   4.377   6.281  12.251 -0.0315 -0.3931  1.1085
10122TIP3   OH251856   0.522   3.762  12.469 -0.3379  0.2311  0.0663
10122TIP3    H151857   0.539   3.680  12.422  0.1508 -0.0436  0.7002
10122TIP3    H251858   0.547   3.743  12.560  0.0344  1.1625  0.1682
10123TIP3   OH251859   5.852   4.026  15.267  0.2657 -0.7015  0.4575
10123TIP3    H151860   5.839   4.051  15.176 -0.0494 -1.4893  0.2757
10123TIP3    H251861   5.947   4.015  15.276  0.6826  2.3802  1.0640
10124TIP3   OH251862   5.654   0.979  17.039  0.0579 -0.2973 -0.9428
10124TIP3    H151863   5.725   0.946  16.984 -0.1913  1.3054 -2.3250
10124TIP3    H251864   5.685   1.066  17.067 -1.6324  0.8048 -2.2693
10125TIP3   OH251865   2.940   6.104  11.410 -0.4633 -0.4115  0.5338
10125TIP3    H151866   2.958   6.185  11.361 -0.8875 -1.6711 -1.8415
10125TIP3    H251867   2.870   6.129  11.471  0.2167  1.2730  0.6849
10126TIP3   OH251868   0.607   2.226   4.820  0.3998 -0.1476 -0.1753
10126TIP3    H151869   0.531   2.193   4.771  0.5885 -1.6751  0.5257
10126TIP3    H251870   0.581   2.221   4.912 -0.0615  2.9691 -0.0027
10127TIP3   OH251871   1.771   1.073  13.949 -0.8461 -0.4175 -0.3482
10127TIP3    H151872   1.845   1.015  13.966 -1.9405 -1.4501  1.1315
10127TIP3    H251873   1.729   1.036  13.871 -0.9311 -0.9871 -0.0354
10128TIP3   OH251874   3.476   3.679  12.594  0.5417  0.0715  0.0103
10128TIP3    H151875   3.403   3.659  12.652  1.4239 -0.8029  0.8779
10128TIP3    H251876   3.476   3.774  12.586  0.4233  0.2212  1.5144
10129TIP3   OH251877   5.888   2.521   4.307  0.5284 -0.0734 -0.0041
10129TIP3    H151878   5.809   2.576   4.305 -0.3039 -1.0250  2.5584
10129TIP3    H251879   5.894   2.485   4.219 -1.2283  0.9280 -0.5963
10130TIP3   OH251880   1.635   1.184   2.601  0.6514 -0.6191  0.1864
10130TIP3    H151881   1.640   1.193   2.696 -0.4921  1.5444  0.1153
10130TIP3    H251882   1.608   1.093   2.586  0.5931 -0.9168  1.9309
10131TIP3   OH251883   2.353   2.573   3.301 -0.2908 -0.3166 -0.1032
10131TIP3    H151884   2.428   2.522   3.333 -1.3791 -0.9832  1.4844
10131TIP3    H251885   2.360   2.656   3.347 -0.2569 -0.1950 -0.3274
10132TIP3   OH251886   5.554   1.943  17.164  0.8171  0.1526  0.2790
10132TIP3    H151887   5.491   1.879  17.197  0.7163 -0.3648 -0.8937
10132TIP3    H251888   5.509   2.027  17.171  0.1902 -0.1543 -0.0863
10133TIP3   OH251889   5.689   2.705   4.771 -0.0570  0.8419 -0.2796
10133TIP3    H151890   5.728   2.732   4.688  1.1647  0.3750  0.1129
10133TIP3    H251891   5.601   2.743   4.770 -0.4138  0.0729 -2.1828
10134TIP3   OH251892   2.926   2.775  17.057 -0.7346 -0.3314 -0.1633
10134TIP3    H151893   3.001   2.744  17.005 -0.5210  0.2859 -0.2351
10134TIP3    H251894   2.876   2.696  17.076 -0.0928 -0.7484 -0.1663
10135TIP3   OH251895   2.103   0.219  16.127 -0.7246  0.7859 -0.1184
10135TIP3    H151896   2.098   0.202  16.033  1.0365  0.3578 -0.1686
10135TIP3    H251897   2.105   0.132  16.167 -0.0503  0.9535  0.2159
10136TIP3   OH251898   6.522   4.839   3.313  0.1119 -0.6192  0.4708
10136TIP3    H151899   6.616   4.847   3.296  0.1294 -0.6124  0.5710
10136TIP3    H251900   6.490   4.782   3.244  0.3401 -1.3165  0.9363
10137TIP3   OH251901   1.409   3.538   1.915 -0.0251 -0.0905 -0.2351
10137TIP3    H151902   1.456   3.483   1.852  1.8149  0.8976  0.2103
10137TIP3    H251903   1.477   3.567   1.976 -1.3525  0.8920  0.8220
10138TIP3   OH251904   6.561   4.807   1.662 -0.3304  0.0665  0.0512
10138TIP3    H151905   6.614   4.749   1.716 -1.0566 -1.7403 -1.0897
10138TIP3    H251906   6.472   4.799   1.698 -0.4923  0.2219 -0.3061
10139TIP3   OH251907   0.094   4.080  12.837  0.1150 -0.1931  0.1739
10139TIP3    H151908   0.075   4.146  12.904 -0.3446  0.2232 -0.3633
10139TIP3    H251909   0.034   4.008  12.857  0.4844 -0.3789  0.6446
10140TIP3   OH251910   4.930   0.021   0.560 -0.0953  0.1702  0.0739
10140TIP3    H151911   4.892   0.028   0.472  0.6597  1.4916 -0.1740
10140TIP3    H251912   4.859   0.047   0.618 -0.3054  0.2460 -0.2110
10141TIP3   OH251913   0.548   0.409  11.408  0.0745  0.6476  0.0571
10141TIP3    H151914   0.462   0.405  11.449 -0.6496 -2.5637 -1.4614
10141TIP3    H251915   0.608   0.428  11.480 -1.6842  1.3669  1.4250
10142TIP3   OH251916   2.351   4.200   3.637 -0.3878 -0.0750  0.2230
10142TIP3    H151917   2.347   4.104   3.639 -1.4577 -0.1250 -1.5142
10142TIP3    H251918   2.444   4.220   3.625 -0.1895 -0.9228  0.2967
10143TIP3   OH251919   0.508   2.305  16.639 -0.1178 -0.3021 -0.0704
10143TIP3    H151920   0.426   2.291  16.591  0.2580 -0.1847 -0.7623
10143TIP3    H251921   0.576   2.268  16.582  0.2606 -0.8410  0.7170
10144TIP3   OH251922   4.461   2.012   4.292  0.2271  0.4791 -0.0812
10144TIP3    H151923   4.538   1.992   4.346  0.3667  0.1980 -0.3872
10144TIP3    H251924   4.450   2.107   4.301  0.0789  0.4000  0.6733
10145TIP3   OH251925   2.311   5.306  16.417  0.1519 -0.0757  0.4547
10145TIP3    H151926   2.353   5.277  16.498 -0.6806 -1.3910  0.4435
10145TIP3    H251927   2.316   5.402  16.420  0.9246 -0.1391  1.6249
10146TIP3   OH251928   4.750   2.162  13.758 -0.1878  0.6391 -0.0350
10146TIP3    H151929   4.844   2.169  13.741 -0.4878  1.1680 -1.6631
10146TIP3    H251930   4.744   2.132  13.848  1.5847 -1.4353 -0.5202
10147TIP3   OH251931   5.462   5.726  10.359  0.2882 -0.1007  0.1162
10147TIP3    H151932   5.442   5.633  10.344  0.0165 -0.2388  1.1952
10147TIP3    H251933   5.392   5.773  10.314 -0.7287 -0.4995  1.2096
10148TIP3   OH251934   0.838   5.259  12.672  0.5653  0.6929  0.0091
10148TIP3    H151935   0.893   5.276  12.595 -0.2009  0.7044 -0.5379
10148TIP3    H251936   0.804   5.345  12.697  0.6678  0.6632  0.2558
10149TIP3   OH251937   2.537   4.718  16.682  0.2379  0.3434  0.2107
10149TIP3    H151938   2.569   4.808  16.688 -1.3546  0.9971 -0.5495
10149TIP3    H251939   2.563   4.678  16.765  2.5958  0.9205 -0.2012
10150TIP3   OH251940   2.760   0.834   2.791  0.1355  0.4369 -0.0932
10150TIP3    H151941   2.708   0.893   2.737  0.5138  1.0785  0.2349
10150TIP3    H251942   2.762   0.752   2.741 -1.4786  0.2750  0.0524
10151TIP3   OH251943   2.201   0.333   4.607  0.0928  0.2869 -0.0927
10151TIP3    H151944   2.160   0.412   4.642 -1.8783 -0.9170  0.4522
10151TIP3    H251945   2.268   0.310   4.672 -0.9743  0.1832  1.0021
10152TIP3   OH251946   6.806   3.248  16.123  0.1484  0.3976  0.0304
10152TIP3    H151947   6.898   3.261  16.147  0.5129 -0.6395 -0.7754
10152TIP3    H251948   6.793   3.306  16.048  0.3370 -0.0044 -0.3085
10153TIP3   OH251949   2.221   4.561   4.625  0.6207  0.1825  1.0324
10153TIP3    H151950   2.137   4.523   4.602  1.3432 -1.3404  0.7430
10153TIP3    H251951   2.200   4.646   4.663 -0.8753  0.8950 -1.2107
10154TIP3   OH251952   0.573   0.861  13.632 -0.4485  0.3253  0.3055
10154TIP3    H151953   0.580   0.900  13.719  1.4758  0.2507  0.2180
10154TIP3    H251954   0.640   0.793  13.630 -3.2670 -2.7278  0.2443
10155TIP3   OH251955   6.529   4.557   2.074  0.3106 -0.5765  0.0932
10155TIP3    H151956   6.536   4.653   2.081  0.2995 -0.4522 -1.2251
10155TIP3    H251957   6.461   4.533   2.136 -0.8178  0.4800 -0.6843
10156TIP3   OH251958   0.775   1.045  14.102  0.1154  0.5813  0.2960
10156TIP3    H151959   0.822   1.124  14.125  0.9640  0.2462 -0.2480
10156TIP3    H251960   0.746   1.008  14.185  0.9330  0.7174  0.6406
10157TIP3   OH251961   2.171   1.544   3.748  0.0476  0.1989  0.2896
10157TIP3    H151962   2.184   1.507   3.836  0.6659 -1.8164 -0.5864
10157TIP3    H251963   2.136   1.471   3.697  1.5687  0.7336 -1.6259
10158TIP3   OH251964   0.393   2.625  13.271  0.0071  0.2161 -0.2305
10158TIP3    H151965   0.320   2.647  13.329 -0.4431 -2.9344  0.5613
10158TIP3    H251966   0.357   2.563  13.208  1.9372 -1.4015  0.1529
10159TIP3   OH251967   0.602   2.781   3.954  0.0389 -0.3838 -0.2554
10159TIP3    H151968   0.574   2.849   4.015  0.5905  1.1313 -1.6156
10159TIP3    H251969   0.676   2.739   3.997 -1.5813 -1.5821  1.5133
10160TIP3   OH251970   3.905   6.371  12.865 -0.0074  0.5035  0.5847
10160TIP3    H151971   3.823   6.419  12.875 -0.2413  0.0974  0.6021
10160TIP3    H251972   3.920   6.368  12.771 -1.1069 -1.2559  0.4271
10161TIP3   OH251973   2.865   6.363  11.804 -0.3105 -0.6413  0.3049
10161TIP3    H151974   2.959   6.378  11.819  0.0503 -0.1153 -2.0148
10161TIP3    H251975   2.826   6.450  11.811 -0.2351 -0.4912 -0.8621
10162TIP3   OH251976   2.591   3.046   4.523  0.2120  0.0574 -0.5646
10162TIP3    H151977   2.506   3.043   4.480  0.8567 -0.1979 -1.8814
10162TIP3    H251978   2.615   3.138   4.523  0.3213  0.0312 -1.0027
10163TIP3   OH251979   1.098   3.758   2.656  0.2694  0.0088  0.2710
10163TIP3    H151980   1.013   3.763   2.613  0.8088  0.6831 -0.7627
10163TIP3    H251981   1.140   3.842   2.637  1.1604 -0.3088  0.7591
10164TIP3   OH251982   5.835   5.544  12.131 -0.3662  0.2432  0.2109
10164TIP3    H151983   5.817   5.638  12.133  1.2701  0.6316 -1.0599
10164TIP3    H251984   5.827   5.516  12.222  0.7726  1.9660  0.8889
10165TIP3   OH251985   4.014   4.691   0.773 -0.3663 -0.2605 -0.3900
10165TIP3    H151986   3.978   4.724   0.691 -0.0365  0.5342 -0.2267
10165TIP3    H251987   3.972   4.743   0.841 -0.5386 -0.8219 -0.0547
10166TIP3   OH251988   2.573   0.708   0.438 -1.0837  0.2207  0.4199
10166TIP3    H151989   2.619   0.747   0.364 -0.4339 -0.2972  0.5458
10166TIP3    H251990   2.515   0.642   0.398 -0.0068 -0.7654  0.4278
10167TIP3   OH251991   3.870   1.483  12.678 -0.5141  0.2061  0.0161
10167TIP3    H151992   3.923   1.533  12.616 -0.5585  0.1673 -0.0528
10167TIP3    H251993   3.802   1.545  12.705 -0.4528  0.2453  0.0796
10168TIP3   OH251994   1.516   1.996   4.124 -0.4373  0.7849 -0.0876
10168TIP3    H151995   1.551   1.907   4.129 -2.1908  0.0518 -0.1520
10168TIP3    H251996   1.587   2.052   4.155  0.7083 -0.6358 -0.0775
10169TIP3   OH251997   3.439   5.740   0.993  0.3064  0.3766  0.0851
10169TIP3    H151998   3.468   5.652   1.015 -1.0037 -0.3255 -0.8367
10169TIP3    H251999   3.516   5.781   0.952  0.7525 -0.5486 -0.0379
10170TIP3   OH252000   2.637   4.682   2.848  0.2991 -0.3761  0.0478
10170TIP3    H152001   2.701   4.622   2.886  0.7664 -0.4492 -0.8430
10170TIP3    H252002   2.643   4.761   2.903  1.6259 -0.1371 -0.4178
10171TIP3   OH252003   2.600   0.454  12.042 -0.1670  0.0384  0.3700
10171TIP3    H152004   2.596   0.431  12.135 -0.7631 -1.8352 -0.0772
10171TIP3    H252005   2.513   0.486  12.020  0.2030  1.2672  0.6148
10172TIP3   OH252006   5.731   1.491   2.569  0.0402  0.0872  0.0906
10172TIP3    H152007   5.803   1.541   2.608  0.6717 -1.5216  1.0950
10172TIP3    H252008   5.763   1.468   2.481  0.9976 -1.0304  0.7057
10173TIP3   OH252009   6.501   5.497   1.802  0.0182 -0.1505  0.6172
10173TIP3    H152010   6.563   5.542   1.745  0.7456 -0.8257  0.8646
10173TIP3    H252011   6.498   5.551   1.881 -0.6979  0.5771  0.1088
10174TIP3   OH252012   0.169   2.079   1.055 -0.8583  0.9954 -0.5027
10174TIP3    H152013   0.089   2.127   1.074 -0.7179  0.9061  0.3404
10174TIP3    H252014   0.160   1.996   1.102 -0.9361  0.3314 -1.6473
10175TIP3   OH252015   2.425   3.778   0.110  0.5301  0.2341  0.3400
10175TIP3    H152016   2.440   3.684   0.112 -0.8347 -0.0842 -1.4105
10175TIP3    H252017   2.349   3.791   0.166 -2.6124 -0.5805 -3.3189
10176TIP3   OH252018   3.127   2.341  11.970  0.1498 -0.0647  0.4692
10176TIP3    H152019   3.033   2.354  11.986  0.1186  1.9707 -0.9688
10176TIP3    H252020   3.153   2.277  12.036 -1.5511  1.8260  3.2146
10177TIP3   OH252021   2.440   4.203   3.266  0.0739 -0.3202 -0.0467
10177TIP3    H152022   2.476   4.227   3.352 -0.5909  0.0747  0.1323
10177TIP3    H252023   2.513   4.211   3.206  0.7193 -1.2606  0.5858
10178TIP3   OH252024   1.778   4.787  14.355  0.2326 -0.4526  0.1789
10178TIP3    H152025   1.766   4.878  14.383 -0.9513  0.1943 -2.1652
10178TIP3    H252026   1.863   4.763  14.391  0.3654  1.4190  1.2757
10179TIP3   OH252027   3.485   6.362   6.561  0.5098 -0.7803 -0.3164
10179TIP3    H152028   3.516   6.284   6.515  0.6848 -0.4706 -0.7369
10179TIP3    H252029   3.560   6.392   6.612  0.5827 -0.6268 -0.5134
10180TIP3   OH252030   2.472   6.397  12.192  0.0631 -0.0034 -0.1060
10180TIP3    H152031   2.412   6.336  12.234  1.0240 -3.0086 -2.6967
10180TIP3    H252032   2.557   6.379  12.234  0.4887 -1.0532 -1.3623
10181TIP3   OH252033   0.279   6.118   1.139  0.0149 -0.4030 -0.2149
10181TIP3    H152034   0.294   6.149   1.050 -1.2369  1.9454  0.3110
10181TIP3    H252035   0.212   6.177   1.174  1.4779 -0.2921  2.7623
10182TIP3   OH252036   1.377   1.555   3.758 -0.6068 -0.3554  0.2214
10182TIP3    H152037   1.372   1.644   3.792  0.2478  0.1920 -1.0251
10182TIP3    H252038   1.461   1.522   3.788 -0.3016 -0.2355 -0.4970
10183TIP3   OH252039   6.667   5.507   6.208 -0.0407  0.0488 -0.0837
10183TIP3    H152040   6.699   5.508   6.118  3.6430  0.1749  1.0782
10183TIP3    H252041   6.706   5.584   6.248 -0.8415 -0.5253  1.9010
10184TIP3   OH252042   2.263   5.222   2.329  0.2015 -0.1561 -0.5665
10184TIP3    H152043   2.276   5.136   2.289  0.8709 -0.9113  1.2040
10184TIP3    H252044   2.331   5.229   2.395 -0.7158  1.1585  0.2937
10185TIP3   OH252045   6.366   0.022  14.716 -0.2548 -0.2977  0.7595
10185TIP3    H152046   6.355   0.086  14.786 -2.2998  2.1101 -1.4959
10185TIP3    H252047   6.447   0.049  14.672 -1.0168  0.7113 -0.0761
10186TIP3   OH252048   4.572   2.600   6.720 -0.0630  0.2040 -0.4876
10186TIP3    H152049   4.516   2.671   6.688  0.0740  1.5146  1.9792
10186TIP3    H252050   4.512   2.526   6.729 -0.7369  0.6876 -0.8374
10187TIP3   OH252051   4.947   4.306   2.603  0.1006 -0.2180  0.1146
10187TIP3    H152052   4.999   4.263   2.670  0.4594 -1.2532 -0.7857
10187TIP3    H252053   4.887   4.363   2.651 -1.8242 -3.2072  1.6072
10188TIP3   OH252054   5.453   1.278  13.546 -0.2868 -0.0720 -0.6646
10188TIP3    H152055   5.410   1.346  13.598  1.4041  0.5243  0.0089
10188TIP3    H252056   5.465   1.317  13.460  0.7290  0.5383 -0.2637
10189TIP3   OH252057   3.949   5.380  16.981  0.1430  0.2888  0.1443
10189TIP3    H152058   3.881   5.382  17.049  0.3752 -0.9429  0.4373
10189TIP3    H252059   3.937   5.462  16.933 -2.2660 -0.3538 -0.4928
10190TIP3   OH252060   4.913   0.713   5.451  0.2427 -0.1340 -0.0566
10190TIP3    H152061   4.945   0.637   5.402  0.1555 -0.8249  0.9145
10190TIP3    H252062   4.954   0.705   5.537 -0.1135  0.6835  0.2020
10191TIP3   OH252063   1.740   2.488  13.589  0.1660 -0.2173  0.9023
10191TIP3    H152064   1.686   2.411  13.574  2.1151 -1.4720 -0.0461
10191TIP3    H252065   1.701   2.556  13.533 -0.1405 -1.2314 -0.1520
10192TIP3   OH252066   3.260   1.009   0.519  0.0617  0.1582 -0.0607
10192TIP3    H152067   3.219   0.930   0.555  0.8559  0.0007  0.5406
10192TIP3    H252068   3.189   1.056   0.475 -0.4561 -0.8028 -0.2713
10193TIP3   OH252069   0.151   4.213  11.522 -0.0814 -0.2252 -0.3376
10193TIP3    H152070   0.096   4.224  11.444  1.0451  1.3330 -0.9538
10193TIP3    H252071   0.130   4.288  11.578  0.8731  0.0106 -0.2680
10194TIP3   OH252072   4.301   4.887  14.384  0.3935  0.8333 -0.2201
10194TIP3    H152073   4.364   4.817  14.401 -0.7807  0.0817  1.1796
10194TIP3    H252074   4.321   4.954  14.450  0.6640  1.2615 -0.7249
10195TIP3   OH252075   2.076   5.599   2.516  0.0677 -0.2630  0.0961
10195TIP3    H152076   2.170   5.604   2.498  0.0486  1.6045  0.3263
10195TIP3    H252077   2.061   5.665   2.583 -1.4120 -0.5480  0.0699
10196TIP3   OH252078   1.534   6.588   6.130  0.1898  0.3993  1.0752
10196TIP3    H152079   1.494   6.674   6.112 -0.9360  0.1655  2.2939
10196TIP3    H252080   1.483   6.526   6.077  1.2230  0.4844 -0.0732
10197TIP3   OH252081   3.850   3.849  14.915 -0.1908 -0.7812  0.4830
10197TIP3    H152082   3.924   3.849  14.853 -1.0109 -0.4332 -0.5260
10197TIP3    H252083   3.838   3.756  14.937 -1.7381 -1.3536 -2.2332
10198TIP3   OH252084   5.692   4.905  15.260  0.0246  0.3414  0.4328
10198TIP3    H152085   5.725   4.918  15.349  0.1705  0.3568  0.3777
10198TIP3    H252086   5.607   4.862  15.272  0.4441 -0.4799  0.5609
10199TIP3   OH252087   5.423   2.652  14.803  0.0097 -0.7014  0.0375
10199TIP3    H152088   5.386   2.738  14.826 -0.6113 -1.1654  0.8308
10199TIP3    H252089   5.447   2.614  14.887  0.0909 -1.3942 -0.2991
10200TIP3   OH252090   5.426   5.758  10.956 -0.2609 -1.0984 -0.9392
10200TIP3    H152091   5.486   5.811  10.903 -0.6347  0.8112  0.4496
10200TIP3    H252092   5.339   5.783  10.925 -0.6035  1.5426  1.7002
10201TIP3   OH252093   0.612   1.459   0.091  0.1523  0.2344  0.1436
10201TIP3    H152094   0.537   1.465   0.031 -0.1552 -2.2580  0.1759
10201TIP3    H252095   0.602   1.535   0.149 -1.4159  0.8550 -0.8549
10202TIP3   OH252096   1.269   6.473  15.426  0.4776 -0.2282  0.1294
10202TIP3    H152097   1.254   6.403  15.489  0.4608 -0.7797 -0.4805
10202TIP3    H252098   1.247   6.553  15.474 -1.2722 -0.7571  0.2965
10203TIP3   OH252099   0.386   3.785   2.315 -0.5373  0.4169 -0.5830
10203TIP3    H152100   0.358   3.794   2.224  0.5506  0.7215 -0.9087
10203TIP3    H252101   0.466   3.838   2.321  1.6409 -2.5822 -0.5064
10204TIP3   OH252102   4.413   5.269  15.375 -0.1623  0.6114 -0.0983
10204TIP3    H152103   4.331   5.268  15.425  0.4474 -0.8348  0.9569
10204TIP3    H252104   4.481   5.275  15.441  0.6636 -1.0510 -0.7310
10205TIP3   OH252105   5.624   0.997  15.557 -0.0870  0.2048 -0.0889
10205TIP3    H152106   5.714   0.975  15.582 -0.2457 -0.4880 -0.1139
10205TIP3    H252107   5.569   0.949  15.619 -0.4362  0.8941  0.1417
10206TIP3   OH252108   0.185   4.578  15.554 -0.1950  0.0616  0.2488
10206TIP3    H152109   0.192   4.569  15.649 -1.2316 -0.5582  0.2855
10206TIP3    H252110   0.117   4.515  15.529 -0.5637  0.8450 -0.7982
10207TIP3   OH252111   0.070   4.466   5.042  0.4675 -0.4528  0.9476
10207TIP3    H152112   0.135   4.523   5.082 -0.1760  0.2881  0.9453
10207TIP3    H252113   0.098   4.458   4.950  0.1519  0.4573  0.7674
10208TIP3   OH252114   0.816   0.099  15.290  0.4321 -0.0403  0.5321
10208TIP3    H152115   0.746   0.157  15.319  1.0684  1.7567 -1.3004
10208TIP3    H252116   0.773   0.035  15.233 -0.0364 -0.4194  1.2955
10209TIP3   OH252117   3.379   1.125  13.667  0.2825 -0.5345 -0.0199
10209TIP3    H152118   3.341   1.053  13.617  0.7954 -0.5291 -0.4273
10209TIP3    H252119   3.317   1.140  13.739  0.8017 -2.2830  0.8663
10210TIP3   OH252120   3.624   2.118  11.673  0.2223 -0.5184 -0.3938
10210TIP3    H152121   3.567   2.186  11.710 -0.1509 -0.2642 -1.4092
10210TIP3    H252122   3.670   2.082  11.749  1.0944  1.4554  0.0570
10211TIP3   OH252123   5.641   4.310   0.536  0.1242 -0.2875 -0.2517
10211TIP3    H152124   5.653   4.259   0.616  1.7507 -1.7130 -1.3269
10211TIP3    H252125   5.547   4.328   0.533 -0.1221 -1.0692  1.4483
10212TIP3   OH252126   5.761   2.435   1.271  0.1094 -0.1278  0.0592
10212TIP3    H152127   5.807   2.516   1.290  1.7750 -0.8849 -0.5963
10212TIP3    H252128   5.744   2.397   1.358  2.2902 -0.6484  0.3237
10213TIP3   OH252129   4.999   0.377  14.201 -0.3779  0.4802 -0.4416
10213TIP3    H152130   5.071   0.439  14.203 -0.3914  0.5138 -0.9865
10213TIP3    H252131   5.018   0.320  14.127  0.1702 -0.8115  0.6459
10214TIP3   OH252132   5.400   2.217  11.485  0.5114  0.0237 -0.6651
10214TIP3    H152133   5.411   2.199  11.579  0.5779  0.1106 -0.6553
10214TIP3    H252134   5.381   2.311  11.481 -1.8162 -0.3813 -0.5555
10215TIP3   OH252135   2.977   0.399   1.773  0.4976  0.1029 -0.5416
10215TIP3    H152136   3.050   0.419   1.714  1.8157 -2.3572  0.0768
10215TIP3    H252137   3.017   0.348   1.843 -1.6286 -0.1995  0.5370
10216TIP3   OH252138   6.810   3.722  13.883  0.6560 -0.3805 -0.2014
10216TIP3    H152139   6.763   3.643  13.857 -2.9247  0.8459  1.8339
10216TIP3    H252140   6.846   3.757  13.802  3.2113 -4.3966 -1.0829
10217TIP3   OH252141   5.281   0.718  11.789 -0.0253 -0.3573  0.4132
10217TIP3    H152142   5.249   0.752  11.873  0.3969 -0.3478  0.5733
10217TIP3    H252143   5.261   0.624  11.792 -0.5567 -0.2501  0.2691
10218TIP3   OH252144   1.575   1.742   2.878  0.0012 -0.2251 -0.5806
10218TIP3    H152145   1.550   1.666   2.826  0.4272 -0.5759 -0.2811
10218TIP3    H252146   1.660   1.719   2.915 -0.3437 -0.0209  0.3643
10219TIP3   OH252147   1.583   5.263  11.614 -0.2788 -0.2140 -0.0682
10219TIP3    H152148   1.660   5.320  11.605 -0.8379  0.9278  1.8607
10219TIP3    H252149   1.544   5.289  11.697 -0.9538 -2.9866  0.5593
10220TIP3   OH252150   6.214   2.676   1.828  0.2425 -0.4825 -0.0862
10220TIP3    H152151   6.198   2.725   1.909  0.6261 -1.7643  0.7941
10220TIP3    H252152   6.222   2.743   1.760  1.6218  0.7338  1.2191
10221TIP3   OH252153   0.815   0.983   6.164  0.5057  0.0413  0.1673
10221TIP3    H152154   0.810   0.901   6.212 -1.1883  0.5969  1.0154
10221TIP3    H252155   0.817   0.957   6.072 -1.0250 -0.9417  0.3872
10222TIP3   OH252156   1.341   0.171   2.597  0.6528  0.0980  0.0434
10222TIP3    H152157   1.272   0.109   2.575  0.6968 -0.2618  0.8624
10222TIP3    H252158   1.364   0.149   2.688  1.6058  0.4282 -0.1089
10223TIP3   OH252159   5.084   6.551  15.046 -0.1775 -0.1392  0.3578
10223TIP3    H152160   5.122   6.507  14.970 -0.3964  0.1647  0.0728
10223TIP3    H252161   5.089   6.644  15.025  1.7694  0.1068  1.6440
10224TIP3   OH252162   1.144   0.094   3.049  0.0493  0.1247  0.5363
10224TIP3    H152163   1.079   0.024   3.048  0.1805 -0.0482  1.8178
10224TIP3    H252164   1.093   0.173   3.067  0.0978  0.1048  0.7637
10225TIP3   OH252165   0.138   0.696  15.838  0.1181  0.6424 -0.6738
10225TIP3    H152166   0.162   0.708  15.930  0.7533  1.2861 -0.9164
10225TIP3    H252167   0.060   0.640  15.841  1.4275 -1.2560  0.1608
10226TIP3   OH252168   4.920   3.858   4.487  0.6773  0.3800  0.3920
10226TIP3    H152169   4.986   3.915   4.526  1.6068  0.8961 -1.7743
10226TIP3    H252170   4.967   3.777   4.467  0.9530  1.0121 -1.8453
10227TIP3   OH252171   5.958   0.505   2.702  0.3587  0.0245 -0.2135
10227TIP3    H152172   6.026   0.439   2.686  0.6347  0.4415 -0.7894
10227TIP3    H252173   6.001   0.588   2.681  0.1222  0.4216  0.8396
10228TIP3   OH252174   2.615   5.467  14.560  0.1421 -0.1321  0.2035
10228TIP3    H152175   2.562   5.541  14.530 -0.5826 -0.6781  0.1086
10228TIP3    H252176   2.597   5.397  14.498 -1.8845 -1.4985  2.1646
10229TIP3   OH252177   3.795   1.871   3.166 -1.2726  0.1532 -0.0061
10229TIP3    H152178   3.711   1.826   3.178 -0.9417 -0.1836  1.2308
10229TIP3    H252179   3.787   1.950   3.220 -1.1115  0.5734 -0.5903
10230TIP3   OH252180   6.047   6.000  16.304 -0.0568  0.0065 -0.1242
10230TIP3    H152181   6.106   5.926  16.311  0.5512  0.5068  0.1762
10230TIP3    H252182   6.093   6.063  16.249 -1.1528 -0.3779 -1.5622
10231TIP3   OH252183   3.310   2.001  12.425 -0.1871 -0.3177  0.1285
10231TIP3    H152184   3.312   2.081  12.477  0.3845 -0.4687  0.3399
10231TIP3    H252185   3.255   1.941  12.475  2.4816 -1.4101  1.9768
10232TIP3   OH252186   6.718   5.915   5.280 -0.2295 -0.1926  0.2812
10232TIP3    H152187   6.802   5.939   5.319 -0.3952  2.9210 -0.9584
10232TIP3    H252188   6.653   5.963   5.331 -0.8913  0.0655 -0.7617
10233TIP3   OH252189   1.891   5.794  11.770  0.3014 -0.4807  0.7004
10233TIP3    H152190   1.869   5.701  11.761 -1.5430 -0.0389  0.2193
10233TIP3    H252191   1.835   5.838  11.706  0.6230  1.0299  1.4183
10234TIP3   OH252192   5.611   3.755  15.375  0.2093  0.2314 -0.0877
10234TIP3    H152193   5.611   3.659  15.379 -0.2280  0.2304  3.2392
10234TIP3    H252194   5.586   3.776  15.285 -1.3672 -2.7819 -0.4814
10235TIP3   OH252195   0.841   1.861  13.529 -0.6188 -0.2494  0.1795
10235TIP3    H152196   0.887   1.929  13.578 -0.7644 -0.0470  0.0378
10235TIP3    H252197   0.770   1.907  13.485  2.1685  0.6098 -4.1213
10236TIP3   OH252198   6.571   1.233  14.931 -0.0066  0.1519 -0.0759
10236TIP3    H152199   6.532   1.160  14.977 -0.9817  0.3422 -0.5731
10236TIP3    H252200   6.497   1.278  14.889  0.6990  0.7310 -0.7433
10237TIP3   OH252201   6.268   1.063  13.036 -0.0630  0.1253 -0.0159
10237TIP3    H152202   6.205   1.016  12.982  0.8175 -1.4434  0.2581
10237TIP3    H252203   6.342   1.002  13.045  0.3334  0.8123  1.9187
10238TIP3   OH252204   6.531   5.080  12.870 -0.4139  0.2440  0.0683
10238TIP3    H152205   6.534   4.990  12.836  1.6694  0.3089 -0.0821
10238TIP3    H252206   6.611   5.088  12.923  0.3585  2.5078 -1.3005
10239TIP3   OH252207   1.038   4.927   2.518  0.4032 -0.0618  0.0515
10239TIP3    H152208   1.078   4.845   2.546  0.6602  0.5300  1.4974
10239TIP3    H252209   0.951   4.903   2.487  0.1811 -0.7904  1.1922
10240TIP3   OH252210   5.328   4.254  11.093  0.2146  0.0568  0.0065
10240TIP3    H152211   5.337   4.222  11.003 -0.1236 -1.0064  0.3369
10240TIP3    H252212   5.406   4.308  11.106 -0.6090  1.7148 -1.5051
10241TIP3   OH252213   0.939   5.775   3.929 -0.3137 -0.0953 -0.1878
10241TIP3    H152214   0.850   5.805   3.950 -0.0613 -0.5474  1.7579
10241TIP3    H252215   0.996   5.845   3.961  0.0504  0.4755 -1.9841
10242TIP3   OH252216   2.754   3.445  15.288  0.4180  0.3468 -0.2809
10242TIP3    H152217   2.681   3.482  15.238  1.4514  1.2870 -1.1261
10242TIP3    H252218   2.767   3.508  15.360  0.5161  0.2720 -0.2332
10243TIP3   OH252219   3.185   1.804   1.060  0.2314 -0.0719  0.2095
10243TIP3    H152220   3.259   1.782   1.003  1.7381 -0.3146  2.1432
10243TIP3    H252221   3.147   1.882   1.021  0.4294 -0.9167 -1.7804
10244TIP3   OH252222   5.976   1.238   4.798  0.0411  0.4082  0.1880
10244TIP3    H152223   6.009   1.151   4.821 -1.3370  0.3376  2.1610
10244TIP3    H252224   5.955   1.231   4.705  3.7933 -0.0289 -0.8089
10245TIP3   OH252225   4.561   2.754   5.267  0.3462 -0.1202 -0.8325
10245TIP3    H152226   4.572   2.716   5.180 -3.4178 -0.3147 -1.3792
10245TIP3    H252227   4.472   2.790   5.267 -0.2497 -1.0611  3.2359
10246TIP3   OH252228   3.010   0.800  11.231 -0.0967  0.0083  0.3158
10246TIP3    H152229   3.076   0.815  11.298  2.1008  1.0267 -1.9328
10246TIP3    H252230   2.993   0.886  11.194 -3.4210 -0.0682  1.3358
10247TIP3   OH252231   6.165   4.187  15.375 -0.0732 -0.5047  0.0238
10247TIP3    H152232   6.145   4.212  15.285 -0.3875  0.0413  0.2395
10247TIP3    H252233   6.137   4.096  15.381 -3.7411  0.4798  0.6143
10248TIP3   OH252234   4.422   2.743  13.061 -0.0284 -0.0788  0.5719
10248TIP3    H152235   4.422   2.747  13.157  1.1013  1.0573  0.5656
10248TIP3    H252236   4.515   2.738  13.038 -0.1752  1.2740 -0.4697
10249TIP3   OH252237   4.972   0.094  13.760 -0.5304 -0.0346 -0.4017
10249TIP3    H152238   4.973   0.184  13.727 -0.7047  0.3064  0.4759
10249TIP3    H252239   5.042   0.092  13.825 -1.4301 -0.1099  0.6042
10250TIP3   OH252240   6.521   2.811   5.377  0.0900 -0.1785 -0.0645
10250TIP3    H152241   6.442   2.858   5.350 -0.0320  0.1255  0.7884
10250TIP3    H252242   6.554   2.770   5.297  0.7007  2.0972 -1.0392
10251TIP3   OH252243   1.201   2.349  15.658  0.3374 -0.1488  0.3187
10251TIP3    H152244   1.134   2.411  15.630 -0.0530 -0.5884  0.2637
10251TIP3    H252245   1.152   2.276  15.697  0.7096 -0.9583 -0.6699
10252TIP3   OH252246   4.831   1.593  16.412  0.4161  0.0470  0.7064
10252TIP3    H152247   4.803   1.605  16.503  0.4842  1.4492  0.5660
10252TIP3    H252248   4.927   1.601  16.416  0.4701 -0.4920  0.5845
10253TIP3   OH252249   5.645   5.633   0.274 -0.2499  0.1588 -0.4054
10253TIP3    H152250   5.671   5.545   0.302  0.2139  0.1601 -0.8268
10253TIP3    H252251   5.604   5.671   0.352  2.1710  0.6303  0.7356
10254TIP3   OH252252   2.726   3.624   5.948 -0.2691  0.0890  0.4863
10254TIP3    H152253   2.661   3.629   6.018 -1.2307 -0.7517 -0.3375
10254TIP3    H252254   2.799   3.678   5.980 -0.6771 -0.2822  2.1408
10255TIP3   OH252255   5.037   2.116   2.148  0.4591  0.3117  0.5357
10255TIP3    H152256   5.112   2.165   2.180  0.1636  1.6193 -0.6754
10255TIP3    H252257   4.969   2.131   2.213  0.4658  1.2816  0.3338
10256TIP3   OH252258   4.658   3.046  17.222 -0.2762  0.0575 -0.1610
10256TIP3    H152259   4.748   3.063  17.194  0.1205  2.5821  2.1559
10256TIP3    H252260   4.610   3.033  17.141  1.7023  1.4526 -1.6700
10257TIP3   OH252261   5.117   3.974   6.603 -0.3338  0.1164  0.0979
10257TIP3    H152262   5.114   4.045   6.667  1.3822  0.4309 -0.1175
10257TIP3    H252263   5.032   3.976   6.560 -0.5310  1.6498  0.5119
10258TIP3   OH252264   2.992   1.495   4.537 -0.4848  0.1684 -0.1036
10258TIP3    H152265   3.025   1.546   4.612  2.5333 -0.8206 -0.6396
10258TIP3    H252266   2.953   1.561   4.479  0.6728  1.4892  0.5588
10259TIP3   OH252267   2.365   4.999   2.864 -0.1563  0.1860  0.2536
10259TIP3    H152268   2.333   5.089   2.874  1.5449  0.9707 -1.0280
10259TIP3    H252269   2.337   4.973   2.776  1.6840  0.4960 -0.4649
10260TIP3   OH252270   3.982   1.061   3.220  0.1746  0.1944  0.1928
10260TIP3    H152271   4.035   1.114   3.160  1.1529 -1.0506 -0.0753
10260TIP3    H252272   4.045   1.027   3.284 -0.7987  1.2435  1.8024
10261TIP3   OH252273   3.234   1.729  12.175 -0.0265  0.5451  0.5971
10261TIP3    H152274   3.289   1.662  12.133 -0.7856 -0.3898  1.0463
10261TIP3    H252275   3.297   1.787  12.218  0.6381 -1.2531  2.2241
10262TIP3   OH252276   1.808   6.069   4.581  0.2933  0.1252  0.2369
10262TIP3    H152277   1.893   6.109   4.598 -0.6203  2.2690  0.0266
10262TIP3    H252278   1.824   6.006   4.511  1.2747  2.3303 -1.6082
10263TIP3   OH252279   1.150   4.805  13.517  0.1137 -0.4349 -0.0068
10263TIP3    H152280   1.173   4.815  13.424 -0.5740 -1.4831 -0.3178
10263TIP3    H252281   1.074   4.861  13.529  1.8923  1.9541  0.6770
10264TIP3   OH252282   0.735   4.813  16.057  0.1224  0.0817 -0.4234
10264TIP3    H152283   0.713   4.878  16.124  1.2933  1.2147 -1.1084
10264TIP3    H252284   0.673   4.741  16.073  2.1180 -1.0234  3.7255
10265TIP3   OH252285   4.826   1.630  11.610  0.0493  0.1288 -0.3148
10265TIP3    H152286   4.921   1.624  11.621 -0.0422 -1.4621 -0.2087
10265TIP3    H252287   4.803   1.556  11.554 -1.5780 -2.0272  2.8934
10266TIP3   OH252288   6.379   3.359   2.291  0.4665  0.1348  0.3125
10266TIP3    H152289   6.471   3.335   2.278  0.4576 -0.5579  1.3763
10266TIP3    H252290   6.383   3.447   2.329  0.6470  0.4108 -0.3252
10267TIP3   OH252291   3.319   1.785   0.195 -0.5333  0.6412 -0.2349
10267TIP3    H152292   3.345   1.779   0.103 -1.5608  1.6000 -0.6034
10267TIP3    H252293   3.289   1.875   0.206 -1.4884  0.2212  0.7566
10268TIP3   OH252294   1.693   0.866  11.320  0.1378 -0.4805  0.4456
10268TIP3    H152295   1.682   0.794  11.258 -0.4715 -0.2034  0.2233
10268TIP3    H252296   1.735   0.935  11.270 -0.4753 -0.2082  0.2959
10269TIP3   OH252297   1.956   2.166   2.001 -0.2021  0.1457  0.3628
10269TIP3    H152298   1.976   2.117   2.082  1.3028 -2.3176 -1.3508
10269TIP3    H252299   1.868   2.137   1.977 -0.3330  0.2669  0.6839
10270TIP3   OH252300   5.928   4.138  16.890 -0.1543 -0.6735 -0.1089
10270TIP3    H152301   5.865   4.134  16.818 -2.6960  1.5894  1.7850
10270TIP3    H252302   6.011   4.162  16.848 -1.1362 -1.1001 -2.4244
10271TIP3   OH252303   0.533   4.515   3.173 -0.7054 -0.1281  0.0656
10271TIP3    H152304   0.515   4.423   3.194  0.4058 -0.6238 -1.0414
10271TIP3    H252305   0.531   4.559   3.258  1.9864 -1.7847  1.1519
10272TIP3   OH252306   6.566   1.237  16.550  0.0939 -0.1562 -0.0555
10272TIP3    H152307   6.624   1.192  16.489 -0.4875  0.2039 -0.8899
10272TIP3    H252308   6.524   1.166  16.599  3.3718 -0.4278  2.7268
10273TIP3   OH252309   1.696   4.755  16.531 -0.2166 -0.5413 -0.3578
10273TIP3    H152310   1.660   4.785  16.447  0.3308 -0.2188 -0.4797
10273TIP3    H252311   1.760   4.688  16.506  3.1654  2.4827 -0.5728
10274TIP3   OH252312   2.616   2.367  12.125  0.3596  0.7836 -0.2796
10274TIP3    H152313   2.563   2.429  12.175 -1.1758  0.0575 -0.9276
10274TIP3    H252314   2.630   2.410  12.040 -0.3117  0.4641 -0.5634
10275TIP3   OH252315   4.620   1.956  12.798 -0.0227  0.7493 -0.2251
10275TIP3    H152316   4.639   1.949  12.891  1.6283 -1.2697 -0.6410
10275TIP3    H252317   4.573   1.876  12.777  1.9124 -0.1208 -1.5646
10276TIP3   OH252318   2.032   6.072   2.454 -0.1642  0.3309 -0.1408
10276TIP3    H152319   2.113   6.022   2.465  1.1472  2.4481  0.2187
10276TIP3    H252320   1.969   6.027   2.511  0.9881 -0.7950  0.3104
10277TIP3   OH252321   6.045   0.736   3.524 -0.3144 -0.6563 -0.1627
10277TIP3    H152322   6.135   0.727   3.493 -0.9491 -0.7207 -2.1422
10277TIP3    H252323   6.043   0.821   3.568  0.6739 -0.5985 -0.2157
10278TIP3   OH252324   0.259   3.359   5.094 -0.0872 -0.0199 -0.0164
10278TIP3    H152325   0.221   3.288   5.146 -1.8300  1.0850  0.2885
10278TIP3    H252326   0.225   3.345   5.006  1.4362 -0.8577 -0.5086
10279TIP3   OH252327   5.122   1.330  10.696 -0.0949  0.0876 -0.0131
10279TIP3    H152328   5.206   1.286  10.713 -0.1680  0.2576  0.8204
10279TIP3    H252329   5.147   1.420  10.676 -0.0318 -0.0281 -0.4597
10280TIP3   OH252330   0.412   5.504  14.761  0.1823  0.0677 -0.4205
10280TIP3    H152331   0.463   5.554  14.697  0.3720  0.5143  0.0733
10280TIP3    H252332   0.392   5.422  14.717  0.4315  0.3172 -1.0043
10281TIP3   OH252333   2.870   4.780   1.807 -0.0403  0.0520 -0.5121
10281TIP3    H152334   2.884   4.817   1.894  0.3416  0.5548 -0.7861
10281TIP3    H252335   2.872   4.685   1.821  2.8768  0.0296 -0.3723
10282TIP3   OH252336   4.076   0.027   0.155 -0.1052 -0.0422 -0.1339
10282TIP3    H152337   4.069   0.087   0.229 -2.8233  1.4553 -1.4114
10282TIP3    H252338   4.134  -0.043   0.185  2.7307  2.8188  1.7034
10283TIP3   OH252339   6.685   1.466   1.053 -0.0944  0.2205 -0.5063
10283TIP3    H152340   6.639   1.383   1.048 -0.3508  0.2663  0.9219
10283TIP3    H252341   6.745   1.457   1.127  2.7853 -0.1040 -2.6889
10284TIP3   OH252342   0.089   2.395   3.313 -0.2277  0.2039 -0.0310
10284TIP3    H152343   0.165   2.337   3.321 -0.8610 -1.2467 -2.9207
10284TIP3    H252344   0.014   2.339   3.333 -0.6605  1.1177  0.9764
10285TIP3   OH252345   1.473   4.101   2.831  0.2310 -0.1336 -0.4432
10285TIP3    H152346   1.404   4.048   2.872  1.3173 -1.2962 -0.0552
10285TIP3    H252347   1.447   4.107   2.739 -0.7515  0.0516 -0.1611
10286TIP3   OH252348   0.035   2.735  12.862 -0.0114 -0.1656 -0.4177
10286TIP3    H152349   0.042   2.640  12.851 -0.8175 -0.2974  0.1748
10286TIP3    H252350  -0.059   2.753  12.865  0.0873  0.3036  2.2149
10287TIP3   OH252351   2.686   1.354   0.155  0.0127  0.1725  0.2274
10287TIP3    H152352   2.711   1.416   0.223  1.2562 -1.1978  1.0977
10287TIP3    H252353   2.604   1.388   0.120  0.2509  1.8564  1.1959
10288TIP3   OH252354   4.423   3.767   3.594 -0.2278 -0.2332  0.3655
10288TIP3    H152355   4.330   3.773   3.615 -0.0403 -0.3929  1.3113
10288TIP3    H252356   4.459   3.851   3.623  0.0882 -0.5639  0.9455
10289TIP3   OH252357   3.460   1.950  13.199  0.4925  0.4756 -0.4343
10289TIP3    H152358   3.432   1.934  13.289  2.4414 -2.2696 -0.1887
10289TIP3    H252359   3.387   1.919  13.145 -0.6328  2.0158  0.1415
10290TIP3   OH252360   3.827   4.077   1.690 -0.1889  0.3416 -0.2300
10290TIP3    H152361   3.816   4.171   1.704 -1.9561  0.1447 -0.0495
10290TIP3    H252362   3.921   4.062   1.697 -0.0440  1.7775  1.8499
10291TIP3   OH252363   4.883   4.696  16.056  0.3381 -0.6718  0.6001
10291TIP3    H152364   4.938   4.749  16.113 -2.3824  1.0430  1.8454
10291TIP3    H252365   4.859   4.621  16.110  1.3418 -1.4017  0.0689
10292TIP3   OH252366   1.168   3.417  12.414  0.2525 -0.1375  0.0663
10292TIP3    H152367   1.154   3.381  12.326 -0.1704 -0.7359  0.3721
10292TIP3    H252368   1.191   3.509  12.399  1.1005 -0.4664 -0.7147
10293TIP3   OH252369   2.075   2.306  10.320  0.0266  0.6628 -0.0392
10293TIP3    H152370   1.984   2.314  10.351 -0.3016  2.1165 -1.2519
10293TIP3    H252371   2.119   2.254  10.387 -1.4143  0.9630  1.1912
10294TIP3   OH252372   5.659   6.824   2.250  0.2348  0.4217 -0.0771
10294TIP3    H152373   5.676   6.917   2.238 -0.1411  0.5005 -0.0322
10294TIP3    H252374   5.701   6.802   2.334 -2.0678  1.2286  1.3888
10295TIP3   OH252375   4.801   2.395   3.156 -0.5221 -0.0181 -0.1857
10295TIP3    H152376   4.856   2.470   3.132 -0.2359 -0.2105 -0.1451
10295TIP3    H252377   4.750   2.377   3.078 -2.2544  1.6216  0.4823
10296TIP3   OH252378   3.170   1.863   5.737  0.4777 -0.1556  0.1548
10296TIP3    H152379   3.111   1.929   5.702  0.7799  0.4402  0.7333
10296TIP3    H252380   3.117   1.813   5.799 -0.2286 -1.6212 -1.5626
10297TIP3   OH252381   2.684   1.742  12.712  0.4487  0.7652  0.6530
10297TIP3    H152382   2.723   1.806  12.771 -1.7597  2.5292  0.3802
10297TIP3    H252383   2.606   1.711  12.758  1.6037 -2.0391  0.8845
10298TIP3   OH252384   2.793   3.599  11.742  0.3408  0.0182 -0.4761
10298TIP3    H152385   2.746   3.571  11.821 -0.8002 -0.6998 -1.3883
10298TIP3    H252386   2.750   3.681  11.717  1.5749  0.9595  0.3674
10299TIP3   OH252387   1.642   1.503   3.824 -0.2241  0.2550  0.0190
10299TIP3    H152388   1.683   1.589   3.832  0.2509  0.0028  0.3007
10299TIP3    H252389   1.712   1.441   3.841 -0.4490 -0.2026 -0.6897
10300TIP3   OH252390   3.203   5.368   2.292 -0.0166  0.3946  0.4949
10300TIP3    H152391   3.221   5.448   2.341 -0.5539  1.3647 -0.8358
10300TIP3    H252392   3.267   5.305   2.325 -0.2425  1.0430  2.2963
10301TIP3   OH252393   4.186   4.956   0.685 -0.3190 -0.1133 -0.1664
10301TIP3    H152394   4.242   5.025   0.720  0.0820 -0.8055  0.6046
10301TIP3    H252395   4.158   4.907   0.763 -0.6465 -0.7781 -0.6949
10302TIP3   OH252396   0.778   6.455  16.131  0.3219  0.9161 -0.3951
10302TIP3    H152397   0.760   6.401  16.055  1.6481  0.5400 -0.4722
10302TIP3    H252398   0.751   6.543  16.106 -2.2120  0.2870 -0.1375
10303TIP3   OH252399   2.945   3.711  15.411 -0.0544 -0.3466  0.3769
10303TIP3    H152400   3.004   3.638  15.395  1.6568  1.6699 -4.3138
10303TIP3    H252401   2.994   3.771  15.467  0.8443 -0.4128 -0.3200
10304TIP3   OH252402   6.054   3.150  13.535  0.3240  0.2510  0.5752
10304TIP3    H152403   6.057   3.141  13.630  0.9898 -1.9888  0.4104
10304TIP3    H252404   6.123   3.091  13.503  0.1211  0.9593 -1.2966
10305TIP3   OH252405   3.645   6.718  13.843  0.1091  0.1736  0.2536
10305TIP3    H152406   3.646   6.696  13.936 -0.2036 -1.3565 -0.0778
10305TIP3    H252407   3.662   6.635  13.799 -0.1655  0.7984 -1.0661
10306TIP3   OH252408   4.269   1.787   3.157  0.1688 -0.0671  0.3213
10306TIP3    H152409   4.244   1.765   3.067 -1.1379 -2.0545  1.1149
10306TIP3    H252410   4.238   1.876   3.169 -1.3534 -0.4441 -0.6156
10307TIP3   OH252411   1.731   5.393   1.991 -0.1604  0.0396  0.0297
10307TIP3    H152412   1.722   5.488   1.991  1.3403  0.2187  0.7466
10307TIP3    H252413   1.810   5.377   2.043  1.2811 -1.4294 -2.4009
10308TIP3   OH252414   3.879   5.779  17.029 -0.1481 -0.0730 -0.4721
10308TIP3    H152415   3.939   5.742  17.093 -1.0262  0.4672  0.7016
10308TIP3    H252416   3.873   5.712  16.961  1.7873 -0.1196 -0.6500
10309TIP3   OH252417   3.852   5.492   4.962  0.3254  0.2831 -0.5356
10309TIP3    H152418   3.827   5.406   4.927 -0.2903  0.1928  0.1076
10309TIP3    H252419   3.774   5.523   5.008  1.5220 -0.2575  2.0236
10310TIP3   OH252420   6.359   1.106   2.252  0.2897 -0.1829 -0.0471
10310TIP3    H152421   6.390   1.037   2.311 -2.0803 -0.6590  0.7476
10310TIP3    H252422   6.352   1.183   2.308 -0.6524 -0.2931  0.0138
10311TIP3   OH252423   5.747   0.974  13.588  0.1868 -0.7945 -0.4109
10311TIP3    H152424   5.652   0.976  13.605  0.3421  1.8537  0.5960
10311TIP3    H252425   5.754   0.987  13.493 -0.4582 -0.0431 -0.3651
10312TIP3   OH252426   2.186   3.302  16.522 -0.1818 -0.1629  0.2670
10312TIP3    H152427   2.205   3.296  16.616 -1.0806  1.7199  0.6060
10312TIP3    H252428   2.116   3.238  16.508  1.3105 -1.9118  0.4347
10313TIP3   OH252429   1.218   5.192   0.154 -0.2308 -0.6205 -0.0352
10313TIP3    H152430   1.311   5.192   0.132 -0.2405 -0.4762 -0.0837
10313TIP3    H252431   1.214   5.230   0.242 -0.2709 -0.2931 -0.1737
10314TIP3   OH252432   3.053   4.471   4.032  0.2506 -0.5251 -0.2208
10314TIP3    H152433   3.137   4.516   4.025  1.9947 -3.5894 -0.6309
10314TIP3    H252434   3.024   4.488   4.121  2.4543 -1.2160  0.6804
10315TIP3   OH252435   3.930   3.695  16.278 -0.0136 -0.5207  0.6441
10315TIP3    H152436   3.838   3.713  16.298 -0.0334  0.9332 -0.6146
10315TIP3    H252437   3.931   3.673  16.185  1.2932  3.4042 -0.4538
10316TIP3   OH252438   4.175   5.624   1.433 -0.8302 -0.4841  0.0934
10316TIP3    H152439   4.133   5.586   1.510 -0.8961  0.6566  0.6384
10316TIP3    H252440   4.247   5.677   1.467 -0.2169 -0.7725 -0.7016
10317TIP3   OH252441   6.178   1.353  12.598  0.2147 -0.2238  0.3498
10317TIP3    H152442   6.120   1.332  12.671 -2.9713 -0.2722 -1.9947
10317TIP3    H252443   6.198   1.268  12.558 -0.6165  0.0042 -0.5897
10318TIP3   OH252444   1.160   4.977   1.931  0.4297 -0.0929 -0.1139
10318TIP3    H152445   1.081   5.032   1.931  0.3801 -0.1416 -1.1827
10318TIP3    H252446   1.161   4.938   2.018 -0.8752 -0.2929 -0.1640
10319TIP3   OH252447   5.036   1.954   3.841 -0.0228  0.2113 -0.2718
10319TIP3    H152448   4.967   2.011   3.807  1.7155  1.8818 -1.1646
10319TIP3    H252449   5.093   2.012   3.892  0.3879 -1.2591  1.0317
10320TIP3   OH252450   6.293   4.345   0.329 -0.2627 -0.4031 -0.2057
10320TIP3    H152451   6.330   4.324   0.415 -0.3150  0.2590 -0.0185
10320TIP3    H252452   6.368   4.347   0.271 -0.5203 -4.2947 -0.9337
10321TIP3   OH252453   1.963   2.855   3.895 -0.4365 -0.3056 -0.0588
10321TIP3    H152454   2.054   2.883   3.895 -1.2619  2.9185 -1.4169
10321TIP3    H252455   1.916   2.928   3.936 -2.5685 -1.0491 -1.0361
10322TIP3   OH252456   4.275   2.801   4.264  0.4478 -0.0506 -0.5103
10322TIP3    H152457   4.196   2.850   4.286  1.3650  1.1320  0.2973
10322TIP3    H252458   4.247   2.738   4.197 -1.3213 -0.1754  0.2989
10323TIP3   OH252459   4.057   2.988   2.309  0.0843 -0.3264 -0.3047
10323TIP3    H152460   4.099   3.051   2.367 -0.4490  0.4279 -0.7182
10323TIP3    H252461   4.123   2.968   2.242  0.2416 -0.1966 -0.1879
10324TIP3   OH252462   6.075   5.883  15.980  0.1151 -0.3746  0.0456
10324TIP3    H152463   6.029   5.835  15.911 -1.1837  0.0078  0.6093
10324TIP3    H252464   6.027   5.966  15.988  0.0477 -0.5325  1.5854
10325TIP3   OH252465   4.629   2.253  12.325 -0.2352 -0.0049  0.2266
10325TIP3    H152466   4.669   2.200  12.256  0.5944  0.5201  0.2986
10325TIP3    H252467   4.539   2.220  12.331 -0.4868  0.2966 -1.4597
10326TIP3   OH252468   2.887   6.013   0.918 -0.0312  0.4275 -0.2588
10326TIP3    H152469   2.940   6.076   0.869 -0.0347 -0.2295 -1.1299
10326TIP3    H252470   2.858   5.950   0.853  0.3045 -0.7065  0.6486
10327TIP3   OH252471   0.641   3.418   5.294 -0.6375 -0.1278 -0.3853
10327TIP3    H152472   0.552   3.386   5.280 -1.1277  1.4250 -1.0450
10327TIP3    H252473   0.696   3.361   5.240 -1.3828 -0.3091 -0.9679
10328TIP3   OH252474   5.605   3.139   4.096 -0.4173  0.5794  0.1231
10328TIP3    H152475   5.658   3.169   4.022 -1.3837  1.8786 -0.0982
10328TIP3    H252476   5.668   3.120   4.165  0.4083  0.8718 -0.5324
10329TIP3   OH252477   1.490   6.278   6.102  0.6419  0.0432 -0.0062
10329TIP3    H152478   1.521   6.200   6.147  0.5644  0.7875  1.4013
10329TIP3    H252479   1.558   6.298   6.038  1.9847  0.3423  1.4668
10330TIP3   OH252480   0.883   1.056  13.482 -0.2369 -0.0399  0.5336
10330TIP3    H152481   0.908   1.062  13.574 -0.8928 -0.1047  0.7169
10330TIP3    H252482   0.804   1.110  13.475 -0.7611 -0.8331  0.2237
10331TIP3   OH252483   3.879   2.539   1.356 -0.2973 -0.8228 -0.5032
10331TIP3    H152484   3.866   2.577   1.443 -3.5257  1.6093 -1.8345
10331TIP3    H252485   3.973   2.545   1.341  0.4897 -2.0785  3.0356
10332TIP3   OH252486   0.409   5.801  15.731  0.9823 -0.0899 -0.2409
10332TIP3    H152487   0.382   5.713  15.703  1.0085 -0.0576 -0.3670
10332TIP3    H252488   0.368   5.812  15.817  0.8405 -0.1595 -0.2991
10333TIP3   OH252489   3.968   6.791  16.785  0.1839 -0.6731 -0.0368
10333TIP3    H152490   3.885   6.752  16.755  0.0939 -0.1715 -0.4533
10333TIP3    H252491   4.004   6.726  16.845  0.5356 -1.8753 -1.4718
10334TIP3   OH252492   0.662   1.314   3.593 -0.4676 -0.7240 -0.5835
10334TIP3    H152493   0.697   1.346   3.676  1.1260  0.5647 -1.6851
10334TIP3    H252494   0.637   1.223   3.611 -1.9514  0.0702  1.7571
10335TIP3   OH252495   6.155   5.039   4.485  0.2505 -0.0147  0.4521
10335TIP3    H152496   6.228   4.980   4.502  0.7546  0.2632 -0.6709
10335TIP3    H252497   6.077   4.987   4.506  0.5906 -1.6772 -2.0168
10336TIP3   OH252498   4.349   4.771   0.570  0.2419  0.0094  0.2703
10336TIP3    H152499   4.361   4.825   0.493 -1.0084 -1.4264 -1.0055
10336TIP3    H252500   4.304   4.828   0.633 -0.5702  0.6198 -0.8319
10337TIP3   OH252501   2.777   2.343   2.978 -0.0524 -0.1658 -0.2506
10337TIP3    H152502   2.714   2.321   3.046  1.2327  1.7005  1.6846
10337TIP3    H252503   2.826   2.262   2.964  0.4584 -0.3050  1.9989
10338TIP3   OH252504   2.017   1.332   1.724  0.1726 -0.4058  0.3507
10338TIP3    H152505   2.099   1.365   1.687  0.7288 -2.2857 -0.1566
10338TIP3    H252506   2.005   1.246   1.684 -3.2290  0.6836 -1.3766
10339TIP3   OH252507   3.836   1.943   5.874 -0.0125  0.1259  0.3637
10339TIP3    H152508   3.931   1.931   5.880  0.0886  0.7938  0.2318
10339TIP3    H252509   3.817   2.013   5.937 -0.1890  1.0776 -0.7155
10340TIP3   OH252510   3.833   3.711  15.267 -0.2340  0.1258  0.0488
10340TIP3    H152511   3.785   3.716  15.350 -1.1755 -1.0236 -0.4082
10340TIP3    H252512   3.918   3.752  15.287 -0.3597 -0.3040  1.6432
10341TIP3   OH252513   0.208   1.304   4.231  0.0966  0.6472  0.0811
10341TIP3    H152514   0.236   1.385   4.189 -0.9949  1.2873  0.5458
10341TIP3    H252515   0.143   1.332   4.296 -0.8153 -0.6541 -0.2260
10342TIP3   OH252516   2.262   3.031  14.621  0.3480 -0.7289 -0.1228
10342TIP3    H152517   2.299   3.027  14.709  0.4896  0.2810 -0.1155
10342TIP3    H252518   2.320   3.091  14.574  0.2207 -1.1822 -0.8815
10343TIP3   OH252519   1.406   1.266  16.777 -0.1240 -0.1775  0.0942
10343TIP3    H152520   1.499   1.251  16.760 -0.1679  0.9345 -1.3476
10343TIP3    H252521   1.361   1.225  16.703 -0.8538 -1.3092  1.1287
10344TIP3   OH252522   6.705   3.607   4.008  0.8812  0.5951  0.6002
10344TIP3    H152523   6.675   3.625   4.097  0.6783 -0.4083  0.7362
10344TIP3    H252524   6.652   3.534   3.978  2.9841 -1.1072  0.7705
10345TIP3   OH252525   3.988   4.568  13.899 -0.2582  0.3296 -0.3517
10345TIP3    H152526   3.960   4.526  13.817 -0.9216  0.0345  0.0191
10345TIP3    H252527   4.010   4.657  13.873 -1.4673  0.5474 -0.6847
10346TIP3   OH252528   4.308   5.573   0.801 -0.1540  1.0031  0.4801
10346TIP3    H152529   4.380   5.573   0.865 -1.0751 -0.2476  1.5652
10346TIP3    H252530   4.333   5.507   0.736 -1.4527 -1.4276  2.2884
10347TIP3   OH252531   0.988   4.800   3.008  0.3185 -0.1117  0.4276
10347TIP3    H152532   0.913   4.748   3.036 -0.1940  0.5603  0.3438
10347TIP3    H252533   0.961   4.891   3.026 -0.5544  0.5063 -3.2835
10348TIP3   OH252534   3.435   5.685   0.169  0.1985 -0.1647 -0.3096
10348TIP3    H152535   3.372   5.756   0.181  0.6556 -0.0057  1.4814
10348TIP3    H252536   3.504   5.703   0.233  1.5806 -0.8691 -1.5500
10349TIP3   OH252537   6.515   6.720  14.057  0.1352  0.0694  0.2886
10349TIP3    H152538   6.431   6.677  14.070  0.9030 -0.8939  2.5231
10349TIP3    H252539   6.557   6.671  13.986 -0.1939 -1.0485  0.8463
10350TIP3   OH252540   3.402   6.092  13.148  0.3668 -0.1303  0.1794
10350TIP3    H152541   3.306   6.091  13.148  0.2971 -3.3546  0.3668
10350TIP3    H252542   3.426   6.067  13.238  1.4040  0.7127  0.1577
10351TIP3   OH252543   2.326   1.300  14.343 -0.1900 -0.2715  0.2956
10351TIP3    H152544   2.321   1.395  14.344  0.7975 -0.2093  0.7109
10351TIP3    H252545   2.418   1.280  14.360 -0.4943 -1.3129  0.8672
10352TIP3   OH252546   1.036   2.113   0.297 -0.5932 -0.0771  0.6108
10352TIP3    H152547   0.969   2.049   0.322 -0.9551  0.7575  1.9163
10352TIP3    H252548   1.117   2.078   0.333 -0.5292 -0.4739  0.1026
10353TIP3   OH252549   4.327   6.238  12.595 -0.1188 -0.3518 -0.2241
10353TIP3    H152550   4.282   6.213  12.515 -1.6511  1.0433  0.1388
10353TIP3    H252551   4.419   6.245  12.571 -0.6314  0.6258 -2.0147
10354TIP3   OH252552   6.389   1.182   4.803  0.3471 -0.1497 -0.2455
10354TIP3    H152553   6.298   1.180   4.832  0.9680 -0.9326  1.9193
10354TIP3    H252554   6.385   1.168   4.709 -1.8603  2.2033 -0.6027
10355TIP3   OH252555   0.920   0.222   5.723 -0.1470  0.5163 -0.1385
10355TIP3    H152556   0.936   0.206   5.816  1.7359  0.5896 -0.4046
10355TIP3    H252557   0.934   0.137   5.681  0.6098  0.8184 -0.5168
10356TIP3   OH252558   6.774   5.121  12.517  0.6895  0.1308  0.2318
10356TIP3    H152559   6.739   5.039  12.550  0.6678  0.1012  0.1382
10356TIP3    H252560   6.696   5.174  12.498  0.7190  0.4250  0.9221
10357TIP3   OH252561   1.646   0.956  13.737 -0.2632 -0.0937  0.7075
10357TIP3    H152562   1.620   1.048  13.729 -0.2019 -0.0453  1.0527
10357TIP3    H252563   1.564   0.907  13.725  0.1034 -0.1657 -2.4862
10358TIP3   OH252564   2.761   4.799   5.080 -0.2555 -0.0591  0.1314
10358TIP3    H152565   2.779   4.880   5.033  0.9941 -0.4088 -0.0181
10358TIP3    H252566   2.836   4.787   5.137  0.2228 -1.7739 -0.7932
10359TIP3   OH252567   5.043   3.507  12.651 -0.0113 -0.0020 -0.1835
10359TIP3    H152568   5.092   3.575  12.698  1.8599 -1.0453 -0.5389
10359TIP3    H252569   5.077   3.510  12.562 -1.5715  0.1101 -0.8131
10360TIP3   OH252570   0.056   6.505  14.802  0.1136  0.3153 -0.2948
10360TIP3    H152571   0.020   6.550  14.726  0.2822  1.0170  0.0408
10360TIP3    H252572   0.076   6.417  14.769  0.7965  0.8029 -1.2430
10361TIP3   OH252573   2.384   4.422  11.697 -0.1528 -0.8156 -0.6095
10361TIP3    H152574   2.304   4.470  11.676  0.2847  0.7199  0.9999
10361TIP3    H252575   2.449   4.453  11.635  0.4390  1.6989  1.1163
10362TIP3   OH252576   2.111   1.415  13.357 -0.1463 -0.3943  0.5265
10362TIP3    H152577   2.106   1.504  13.391  1.1921  0.0278 -0.2854
10362TIP3    H252578   2.154   1.425  13.272 -0.1419 -1.7942  0.3505
10363TIP3   OH252579   4.636   5.060   2.054 -0.2810  0.1807 -0.0647
10363TIP3    H152580   4.664   5.123   1.987  1.4244  0.6583  1.0223
10363TIP3    H252581   4.654   5.104   2.137 -1.9466 -0.5667  0.7401
10364TIP3   OH252582   5.660   6.535   1.040  0.5824  0.1192  0.1537
10364TIP3    H152583   5.669   6.630   1.029 -0.6728  0.4286  1.4246
10364TIP3    H252584   5.631   6.504   0.954  0.0402  1.0475 -0.0239
10365TIP3   OH252585   0.709   5.111  11.947 -0.4017  0.1637  0.5441
10365TIP3    H152586   0.799   5.142  11.957  0.0990 -0.8199 -0.6752
10365TIP3    H252587   0.714   5.017  11.963 -1.4577  0.2950  1.7512
10366TIP3   OH252588   0.459   4.897   1.437 -0.0411  0.0263 -0.0435
10366TIP3    H152589   0.507   4.970   1.396 -0.7700  0.6724  0.2386
10366TIP3    H252590   0.498   4.890   1.524  2.4347 -2.2069 -1.1878
10367TIP3   OH252591   1.639   1.307  17.174  0.3014  0.2379  0.2534
10367TIP3    H152592   1.654   1.313  17.269  1.0336  3.9054  0.0473
10367TIP3    H252593   1.727   1.309  17.137  0.0583 -1.9689 -0.5656
10368TIP3   OH252594   0.039   0.777  15.285  0.1816 -0.1557 -0.1078
10368TIP3    H152595   0.115   0.830  15.261 -0.7176  1.4015  0.3713
10368TIP3    H252596   0.003   0.820  15.363 -1.8933 -0.1192 -1.0226
10369TIP3   OH252597   4.609   2.453   5.356  0.4665  0.2484  0.2969
10369TIP3    H152598   4.585   2.511   5.428  1.4406  0.7138  0.2637
10369TIP3    H252599   4.619   2.512   5.281  0.2841 -0.1246 -0.0261
10370TIP3   OH252600   2.064   5.482  14.274  0.2268  0.2943  0.0166
10370TIP3    H152601   1.971   5.473  14.294  0.4921 -2.0422  0.4740
10370TIP3    H252602   2.102   5.520  14.352  0.4809 -4.2322  2.4238
10371TIP3   OH252603   1.304   4.390   5.444  0.0832 -0.2777 -0.1113
10371TIP3    H152604   1.280   4.481   5.428  0.6264  0.0855  1.0305
10371TIP3    H252605   1.253   4.364   5.520  0.5956 -0.6457  0.1152
10372TIP3   OH252606   3.780   2.871   5.924 -0.4601  0.1631 -0.5253
10372TIP3    H152607   3.866   2.907   5.945  0.2576 -1.1680 -1.0992
10372TIP3    H252608   3.782   2.782   5.960 -1.2657 -0.1925 -1.3334
10373TIP3   OH252609   6.740   1.665   0.155 -0.0714  0.1065  0.0098
10373TIP3    H152610   6.704   1.646   0.068 -1.6347  0.5687  0.5141
10373TIP3    H252611   6.668   1.645   0.215  0.4607  1.2775  1.0750
10374TIP3   OH252612   5.756   0.852   4.821  0.1298  0.6206  0.0023
10374TIP3    H152613   5.692   0.919   4.841 -0.5452 -0.3418  1.1764
10374TIP3    H252614   5.781   0.869   4.730 -0.5590  1.9931  0.0495
10375TIP3   OH252615   4.747   4.897  11.199  0.0404  0.6520 -0.5301
10375TIP3    H152616   4.814   4.840  11.237 -0.4391 -0.3358 -1.1187
10375TIP3    H252617   4.756   4.980  11.246 -0.2148 -0.3626  1.4062
10376TIP3   OH252618   1.453   5.534   2.480 -0.3840 -0.1541  0.9674
10376TIP3    H152619   1.409   5.450   2.495 -2.0141  0.5303  0.1800
10376TIP3    H252620   1.414   5.568   2.400  1.8339  0.3701  0.0472
10377TIP3   OH252621   1.805   3.191  13.758 -0.2554 -0.1724 -0.1062
10377TIP3    H152622   1.806   3.096  13.768 -2.8446 -0.3457 -0.6987
10377TIP3    H252623   1.870   3.209  13.690  0.4194 -1.4854  0.1618
10378TIP3   OH252624   1.215   1.936  10.695  0.1496 -0.5525  0.0214
10378TIP3    H152625   1.266   1.870  10.648 -1.5791 -0.6576 -1.8360
10378TIP3    H252626   1.267   2.016  10.688  0.1008 -0.6399 -1.8720
10379TIP3   OH252627   1.469   2.316  11.563  0.2323 -0.6171 -0.3784
10379TIP3    H152628   1.418   2.389  11.597  0.0312 -0.4664 -0.9971
10379TIP3    H252629   1.560   2.344  11.570  0.4346 -1.6764  2.6645
10380TIP3   OH252630   5.054   1.191   3.523  0.2312  0.2078 -0.1621
10380TIP3    H152631   5.040   1.128   3.594  1.9884  1.1093  1.0627
10380TIP3    H252632   5.122   1.150   3.469 -0.0508  0.1749 -0.4893
10381TIP3   OH252633   4.601   6.650   1.852 -0.2782 -0.2607  0.4709
10381TIP3    H152634   4.561   6.575   1.896  0.7306 -1.1476 -0.0827
10381TIP3    H252635   4.527   6.697   1.813 -0.9325 -0.9055  0.9149
10382TIP3   OH252636   0.237   3.168  12.266  0.6002 -0.2806 -0.1045
10382TIP3    H152637   0.291   3.156  12.344 -0.2882 -1.1190  0.4194
10382TIP3    H252638   0.190   3.250  12.282  0.1942 -0.6004  0.4113
10383TIP3   OH252639   5.208   6.697  11.264  0.0775 -0.3069  0.0032
10383TIP3    H152640   5.169   6.631  11.207  2.3137 -2.7914  1.0852
10383TIP3    H252641   5.156   6.694  11.344  0.2886 -0.9347  0.1204
10384TIP3   OH252642   5.143   5.553  16.737 -0.4434 -0.2924 -0.2163
10384TIP3    H152643   5.223   5.562  16.789 -0.4512 -2.3388  0.2421
10384TIP3    H252644   5.087   5.626  16.765  0.0690 -0.5919  1.7210
10385TIP3   OH252645   3.823   5.241   1.976 -0.1427  0.1271  0.0294
10385TIP3    H152646   3.894   5.195   2.020 -0.3231  1.3641  1.7348
10385TIP3    H252647   3.756   5.174   1.962  1.3802 -1.1072 -1.8214
10386TIP3   OH252648   1.266   1.596   3.093 -0.1175  0.5119  0.3338
10386TIP3    H152649   1.208   1.665   3.125 -0.4189  0.2450  0.3584
10386TIP3    H252650   1.305   1.634   3.013 -1.6170  0.0617 -0.6475
10387TIP3   OH252651   2.590   4.516  11.513 -0.2179 -0.0255 -0.6103
10387TIP3    H152652   2.623   4.544  11.599 -0.8656  1.3519 -0.7881
10387TIP3    H252653   2.666   4.521  11.455 -0.2038  0.8712 -0.5196
10388TIP3   OH252654   4.392   0.305   5.885 -0.1465 -0.2710  0.1139
10388TIP3    H152655   4.418   0.344   5.968 -0.3986  1.1476 -0.4504
10388TIP3    H252656   4.450   0.229   5.875  2.0678  1.3394  0.0796
10389TIP3   OH252657   0.633   0.389   3.427  0.4997  0.1897 -0.2944
10389TIP3    H152658   0.704   0.374   3.489 -0.2561 -1.9755  0.1063
10389TIP3    H252659   0.559   0.416   3.481  0.4393  0.4431 -0.4999
10390TIP3   OH252660   6.551   4.643   5.786 -0.5821 -0.1956  0.7983
10390TIP3    H152661   6.626   4.702   5.787  0.0145 -0.9174  2.4665
10390TIP3    H252662   6.474   4.701   5.788 -0.0765  0.5383 -0.2275
10391TIP3   OH252663   5.543   3.821  12.326  0.0755  0.2170 -0.2013
10391TIP3    H152664   5.497   3.768  12.391 -0.9572  0.5285 -0.6489
10391TIP3    H252665   5.607   3.871  12.376 -1.0320  0.8089  0.6682
10392TIP3   OH252666   3.503   0.123  15.690  0.2174 -0.3747  0.3300
10392TIP3    H152667   3.468   0.211  15.707 -0.4618 -0.5802  0.0284
10392TIP3    H252668   3.598   0.133  15.702  0.1640  0.4261  0.1801
10393TIP3   OH252669   0.809   6.316   5.248 -0.1166  0.0335  0.2109
10393TIP3    H152670   0.773   6.240   5.293  2.7891 -0.0899  2.6290
10393TIP3    H252671   0.895   6.330   5.289  0.3881  3.3229 -1.6227
10394TIP3   OH252672   4.392   4.590  14.080  0.3920 -0.5263  0.4570
10394TIP3    H152673   4.391   4.682  14.051 -0.6299 -1.0899 -1.4362
10394TIP3    H252674   4.380   4.596  14.175  0.4713  1.3045  0.4000
10395TIP3   OH252675   3.705   6.244  10.773 -0.6397 -0.4007  0.3744
10395TIP3    H152676   3.645   6.195  10.830 -0.4760 -0.9290  0.0954
10395TIP3    H252677   3.676   6.224  10.684  0.4240 -1.2931  0.2025
10396TIP3   OH252678   6.511   6.195  14.377 -0.5195 -0.3166 -0.3410
10396TIP3    H152679   6.499   6.113  14.330  0.2308  0.0551 -1.2097
10396TIP3    H252680   6.426   6.215  14.415 -0.4183 -2.1271  0.9259
10397TIP3   OH252681   3.949   6.527   1.373  0.2263 -0.4214  0.4720
10397TIP3    H152682   3.930   6.554   1.463  0.1152  0.8801  0.0806
10397TIP3    H252683   4.032   6.479   1.379 -0.5334 -1.6811  1.4679
10398TIP3   OH252684   3.182   5.344  13.124  0.1406  0.9149 -0.4739
10398TIP3    H152685   3.198   5.405  13.195  0.1509  0.4153 -0.0405
10398TIP3    H252686   3.248   5.366  13.058  1.2971  0.2384  0.4147
10399TIP3   OH252687   4.243   1.721  12.177  0.2777  0.9974 -0.6031
10399TIP3    H152688   4.205   1.703  12.091  0.9951  0.1833 -0.7618
10399TIP3    H252689   4.327   1.676  12.176 -0.9805 -1.6612  1.6664
10400TIP3   OH252690   6.357   6.175  12.745 -0.3882 -0.1065  0.2131
10400TIP3    H152691   6.308   6.184  12.827 -2.2378  0.1480 -0.8786
10400TIP3    H252692   6.318   6.098  12.703  0.7255 -0.3893 -0.3450
10401TIP3   OH252693   0.305   3.860  11.456 -0.1548  0.2233 -0.1325
10401TIP3    H152694   0.273   3.804  11.385 -1.3121  0.6118  0.0641
10401TIP3    H252695   0.226   3.897  11.495  0.5796  2.6391 -0.7618
10402TIP3   OH252696   6.129   1.994   1.359  0.0062 -0.1935 -0.2375
10402TIP3    H152697   6.063   2.016   1.425 -0.1818 -0.9823 -0.1554
10402TIP3    H252698   6.118   2.061   1.291  0.4924  0.8893  0.7153
10403TIP3   OH252699   5.175   1.126  12.146 -0.0387 -0.2448 -0.3690
10403TIP3    H152700   5.211   1.204  12.104  1.0909 -0.2313  0.5728
10403TIP3    H252701   5.182   1.057  12.080  2.2306 -0.3692 -0.0657
10404TIP3   OH252702   4.909   2.845   2.324 -0.6073  0.2423 -0.2452
10404TIP3    H152703   4.894   2.806   2.237  0.2021  1.1309 -0.8092
10404TIP3    H252704   4.998   2.881   2.318 -0.2287 -0.4048  1.2403
10405TIP3   OH252705   0.794   1.419  13.446 -0.3901 -0.5140  0.4240
10405TIP3    H152706   0.857   1.351  13.420 -0.8608 -1.0036  0.5458
10405TIP3    H252707   0.735   1.374  13.506 -1.3283 -0.2515 -0.2911
10406TIP3   OH252708   4.781   1.834  14.642  0.2089  0.0023  0.2575
10406TIP3    H152709   4.773   1.914  14.694 -1.5881 -0.4520  0.7711
10406TIP3    H252710   4.699   1.831  14.591  0.6000 -1.0976 -0.3446
10407TIP3   OH252711   0.114   5.079  13.841  0.3073 -0.7716 -0.6265
10407TIP3    H152712   0.196   5.073  13.890 -0.0329 -0.9477 -0.0694
10407TIP3    H252713   0.139   5.119  13.758  0.8620 -0.2611 -0.2284
10408TIP3   OH252714   1.941   0.527   1.028 -0.0941  0.8256  0.0798
10408TIP3    H152715   2.018   0.494   1.075 -0.4515  0.1751  0.2123
10408TIP3    H252716   1.952   0.622   1.029 -0.4747  0.8943  2.1605
10409TIP3   OH252717   3.598   3.234   5.401  0.5549  0.1252 -0.0935
10409TIP3    H152718   3.670   3.193   5.450 -0.4965 -2.7098 -0.6777
10409TIP3    H252719   3.625   3.228   5.310  0.0565 -0.0055 -0.2360
10410TIP3   OH252720   6.776   4.327   2.493  0.0279  0.5743  0.2041
10410TIP3    H152721   6.761   4.366   2.579  1.5298  2.4326 -0.2930
10410TIP3    H252722   6.716   4.373   2.435  0.3361  0.6820 -0.0374
10411TIP3   OH252723   3.732   1.108   3.291 -0.0348  0.1609  0.0941
10411TIP3    H152724   3.724   1.109   3.386 -1.5689 -1.0458  0.0113
10411TIP3    H252725   3.827   1.106   3.275  0.2332 -0.5824  1.6080
10412TIP3   OH252726   5.460   4.510   5.290 -0.1042 -0.5165  0.0213
10412TIP3    H152727   5.466   4.591   5.239 -1.8367 -1.3796 -1.6515
10412TIP3    H252728   5.386   4.525   5.349 -0.9409 -1.1637 -0.8539
10413TIP3   OH252729   1.257   1.543   5.149 -0.0814 -0.4250 -0.3272
10413TIP3    H152730   1.336   1.541   5.203 -1.4259 -1.0875  1.7225
10413TIP3    H252731   1.258   1.631   5.110  2.5460 -1.0108 -1.8628
10414TIP3   OH252732   5.308   3.335   4.014 -0.2039 -0.3355  0.4603
10414TIP3    H152733   5.355   3.271   3.961 -1.3084 -1.2628  0.5735
10414TIP3    H252734   5.272   3.284   4.087  1.3434  0.9049  2.2115
10415TIP3   OH252735   2.415   5.237   2.564  1.1263 -0.1134 -0.4663
10415TIP3    H152736   2.503   5.205   2.545  1.3555  0.0771  0.2634
10415TIP3    H252737   2.376   5.171   2.621  1.1856  0.3302  0.0928
10416TIP3   OH252738   1.022   0.922   4.629  0.8037  0.0889 -0.1679
10416TIP3    H152739   0.990   0.840   4.591 -0.5051  0.6373 -0.2787
10416TIP3    H252740   1.096   0.894   4.685 -1.3842 -1.6250  2.1334
10417TIP3   OH252741   2.252   1.162  12.368  0.2309 -0.2150 -0.3374
10417TIP3    H152742   2.317   1.231  12.372  0.1411 -0.1425 -0.1036
10417TIP3    H252743   2.288   1.098  12.307  2.3126 -2.0000  2.5111
10418TIP3   OH252744   1.258   5.893   3.791 -0.2402 -0.4408  0.1026
10418TIP3    H152745   1.276   5.859   3.703 -0.4153  2.4418 -1.1871
10418TIP3    H252746   1.343   5.896   3.834 -0.1540 -1.9128  0.0656
10419TIP3   OH252747   2.735   1.667   0.846  0.4691 -0.2560  0.2179
10419TIP3    H152748   2.799   1.680   0.776  1.0809 -0.3909  0.7398
10419TIP3    H252749   2.765   1.724   0.917  0.1479 -0.5032  0.5602
10420TIP3   OH252750   4.349   1.263   2.438 -0.5582 -0.1824  0.1829
10420TIP3    H152751   4.406   1.237   2.365 -2.8035 -2.3642 -0.9283
10420TIP3    H252752   4.401   1.327   2.487  0.8547  1.9598 -3.6737
10421TIP3   OH252753   3.163   3.922   2.268 -0.0562 -0.3396  0.3144
10421TIP3    H152754   3.123   3.887   2.348  1.4047  0.0600  1.2783
10421TIP3    H252755   3.183   4.013   2.290  3.2428 -1.0408  0.7089
10422TIP3   OH252756   6.174   0.496  12.857 -0.0807 -0.2363 -0.0470
10422TIP3    H152757   6.106   0.465  12.916 -1.0908  0.2785 -0.9020
10422TIP3    H252758   6.250   0.511  12.913 -0.5796 -1.0716  0.8895
10423TIP3   OH252759   1.980   1.061  15.421 -0.3105 -0.0679  0.1892
10423TIP3    H152760   2.076   1.056  15.418 -0.2061  0.7957  1.4460
10423TIP3    H252761   1.958   1.121  15.350 -0.0844 -1.6562 -1.2880
10424TIP3   OH252762   4.917   0.773  15.646  0.3703 -0.1098 -0.3003
10424TIP3    H152763   4.968   0.833  15.591  1.7764 -1.0422 -0.0511
10424TIP3    H252764   4.903   0.696  15.590  0.2939 -0.3524  0.0510
10425TIP3   OH252765   5.835   4.089   4.579  0.3178 -0.3383  0.3077
10425TIP3    H152766   5.920   4.075   4.537 -0.6816 -3.6692 -0.9580
10425TIP3    H252767   5.807   4.176   4.550  2.5071  0.1280 -0.6222
10426TIP3   OH252768   5.308   5.736  13.731  0.5197 -0.3032 -0.3589
10426TIP3    H152769   5.310   5.680  13.654  0.0060  0.2358 -0.7791
10426TIP3    H252770   5.368   5.807  13.711  1.9409 -1.1885  0.5824
10427TIP3   OH252771   0.888   0.362   2.430  0.4360  0.3085 -0.1328
10427TIP3    H152772   0.816   0.298   2.431  0.2817  0.4839  0.6613
10427TIP3    H252773   0.899   0.384   2.338 -2.4429  2.4015 -0.1032
10428TIP3   OH252774   0.982   2.804   4.520  0.3668 -0.1266 -0.1305
10428TIP3    H152775   0.891   2.833   4.512  0.8910  1.1869 -1.9685
10428TIP3    H252776   0.996   2.794   4.614 -1.9979 -1.5079  0.1478
10429TIP3   OH252777   2.769   5.919  13.366 -0.2084 -0.0570 -0.2373
10429TIP3    H152778   2.688   5.867  13.374 -1.2359  1.4201 -0.6769
10429TIP3    H252779   2.739   6.010  13.368  1.4866  0.5271 -0.1857
10430TIP3   OH252780   2.472   5.477   0.605  0.3600  0.0846  0.3581
10430TIP3    H152781   2.497   5.407   0.545  0.9131  0.2387  0.3982
10430TIP3    H252782   2.412   5.436   0.667  0.2413 -0.2151  0.0505
10431TIP3   OH252783   6.581   6.363   4.816  0.4621  0.3427 -0.9179
10431TIP3    H152784   6.533   6.445   4.806  0.9100  0.4481 -2.6018
10431TIP3    H252785   6.662   6.377   4.768  1.9017 -0.0803  1.2580
10432TIP3   OH252786   2.465   0.074  12.504  1.0823 -0.2175 -0.1335
10432TIP3    H152787   2.400   0.142  12.522  0.9060 -0.7212  1.2732
10432TIP3    H252788   2.422   0.016  12.440  0.8304  0.4009 -0.5330
10433TIP3   OH252789   4.423   2.386   0.639  0.1489  0.4545 -0.2829
10433TIP3    H152790   4.358   2.326   0.604 -0.3345  0.6381  0.2868
10433TIP3    H252791   4.507   2.354   0.605  0.0625 -1.3400  1.0903
10434TIP3   OH252792   4.035   3.232  14.176  0.3430  0.2065 -0.4884
10434TIP3    H152793   3.952   3.194  14.205  0.3993 -0.5661 -1.2999
10434TIP3    H252794   4.010   3.297  14.110  0.3121  0.9214  0.2075
10435TIP3   OH252795   5.373   1.521  17.095 -0.0681 -0.2217  0.2920
10435TIP3    H152796   5.466   1.508  17.077 -0.4446  1.6839 -4.1496
10435TIP3    H252797   5.372   1.582  17.169  1.9910 -2.3994  2.3184
10436TIP3   OH252798   6.156   1.373   3.987  0.4590  0.4734 -0.0782
10436TIP3    H152799   6.118   1.324   4.059  0.2025 -0.2595 -0.6949
10436TIP3    H252800   6.165   1.463   4.020 -0.5268  0.3550  0.5354
10437TIP3   OH252801   1.810   4.253   0.199  0.4339 -0.0794  0.3969
10437TIP3    H152802   1.782   4.224   0.285  0.7040 -1.2600  0.1040
10437TIP3    H252803   1.752   4.207   0.138 -0.4132  1.5070 -0.0277
10438TIP3   OH252804   6.758   3.548   2.465 -0.9765  0.1133  0.0748
10438TIP3    H152805   6.845   3.569   2.433 -0.5956  0.8327  1.4940
10438TIP3    H252806   6.723   3.631   2.497 -1.3747 -0.5207  1.3668
10439TIP3   OH252807   2.573   2.163  17.025 -0.2715 -0.0868 -0.3334
10439TIP3    H152808   2.580   2.078  16.980 -0.3744 -0.5459  0.4874
10439TIP3    H252809   2.578   2.228  16.955  0.7834 -0.7404 -0.8943
10440TIP3   OH252810   4.524   2.049  17.043  0.5836  0.0500  0.2912
10440TIP3    H152811   4.603   2.055  16.988  0.5312 -0.8525  0.1069
10440TIP3    H252812   4.529   1.963  17.083 -2.1492 -1.6979 -2.6218
10441TIP3   OH252813   4.105   0.743   1.932 -0.2975  0.2698  0.5920
10441TIP3    H152814   4.030   0.694   1.966  0.2128 -0.2318  1.0136
10441TIP3    H252815   4.164   0.752   2.007  0.9168 -0.9761 -0.1515
10442TIP3   OH252816   2.245   2.644  14.819 -0.0065 -0.9625 -0.4516
10442TIP3    H152817   2.287   2.620  14.736  1.8806  0.1497  0.1004
10442TIP3    H252818   2.258   2.568  14.875  1.0257 -0.7685 -0.4019
10443TIP3   OH252819   3.428   2.865  15.436 -0.4335  0.7453 -0.0006
10443TIP3    H152820   3.372   2.915  15.376 -0.1978  1.1136  0.0894
10443TIP3    H252821   3.387   2.778  15.438  0.6428  0.1081 -2.2136
10444TIP3   OH252822   3.692   2.124  14.757  1.1241  0.4024  0.4927
10444TIP3    H152823   3.678   2.110  14.851  2.2459 -1.0636  0.4864
10444TIP3    H252824   3.683   2.036  14.719  1.4340  0.8567 -0.6597
10445TIP3   OH252825   3.296   4.467   2.183  0.5164  0.1779 -0.1642
10445TIP3    H152826   3.222   4.525   2.201  0.2839  0.0354 -0.6388
10445TIP3    H252827   3.373   4.520   2.203  0.3281  0.8966 -1.2634
10446TIP3   OH252828   5.454   6.574   2.454  0.0344 -0.2624 -0.3511
10446TIP3    H152829   5.507   6.526   2.391  0.7355 -1.9133  1.3963
10446TIP3    H252830   5.365   6.542   2.439 -0.0432  0.3989 -1.3965
10447TIP3   OH252831   1.824   0.284   1.660 -0.1172  0.2112 -0.0047
10447TIP3    H152832   1.762   0.302   1.589 -0.8174  1.6698  0.9199
10447TIP3    H252833   1.769   0.269   1.737  0.6513  0.0044  0.5192
10448TIP3   OH252834   0.910   3.383  10.727 -0.6711 -0.4277  0.1615
10448TIP3    H152835   0.952   3.299  10.706  0.9427  0.4286 -0.2249
10448TIP3    H252836   0.899   3.426  10.642  1.0453  0.8639  0.5426
10449TIP3   OH252837   0.591   6.786   2.061 -0.0419  0.4925 -0.2608
10449TIP3    H152838   0.523   6.782   1.994  0.1269  0.4487 -0.4289
10449TIP3    H252839   0.605   6.694   2.086  0.3362  0.4550 -0.6081
10450TIP3   OH252840   3.754   2.051  14.417  0.1418 -0.3302 -0.4617
10450TIP3    H152841   3.739   1.979  14.479  0.8559 -0.3822 -0.3383
10450TIP3    H252842   3.845   2.078  14.433 -0.1813  0.7464 -0.3512
10451TIP3   OH252843   4.513   1.258   4.221  0.4931 -0.4163  0.9869
10451TIP3    H152844   4.599   1.273   4.182  0.2938  1.8334  1.2775
10451TIP3    H252845   4.483   1.176   4.183  2.3760 -0.7709  0.1815
10452TIP3   OH252846   4.173   2.983   4.934 -1.1437  0.7352 -0.4632
10452TIP3    H152847   4.099   2.933   4.899 -0.8634 -1.4571  1.8119
10452TIP3    H252848   4.248   2.951   4.884 -1.2327  0.2656 -0.3001
10453TIP3   OH252849   3.765   4.703  10.903  0.4141 -0.3094 -0.0924
10453TIP3    H152850   3.731   4.723  10.816 -0.9813  0.0532  0.5166
10453TIP3    H252851   3.856   4.735  10.901 -0.6297  3.0060 -0.3084
10454TIP3   OH252852   1.617   3.218   0.890  0.0328  0.1731  0.2099
10454TIP3    H152853   1.613   3.185   0.801 -1.5250  0.8813 -0.0204
10454TIP3    H252854   1.706   3.254   0.899  0.7800 -1.4355 -0.4553
10455TIP3   OH252855   5.055   4.219   3.675 -0.0725  0.0159  0.0926
10455TIP3    H152856   5.133   4.239   3.624 -0.3864 -0.4198 -0.5787
10455TIP3    H252857   4.990   4.193   3.609 -0.7850  0.3914  0.6407
10456TIP3   OH252858   3.911   0.206   5.331 -0.5020  0.4053  0.1040
10456TIP3    H152859   3.980   0.234   5.390  0.2899 -1.1681 -0.0095
10456TIP3    H252860   3.834   0.256   5.357 -0.2210 -0.3613  2.6041
10457TIP3   OH252861   1.421   6.782  11.644  0.5216 -0.3319 -0.2133
10457TIP3    H152862   1.447   6.690  11.648  1.4512 -0.0612  0.1606
10457TIP3    H252863   1.334   6.780  11.604 -1.6168 -1.7594  3.9126
10458TIP3   OH252864   4.082   2.386   5.376 -0.2598  0.1985  0.2299
10458TIP3    H152865   4.121   2.301   5.396  0.7645  0.1700 -1.7022
10458TIP3    H252866   4.015   2.367   5.310  0.1480  0.9152 -0.4040
10459TIP3   OH252867   2.593   6.307   1.875  0.3397  0.7128  0.6114
10459TIP3    H152868   2.628   6.219   1.886 -0.1277  0.4013 -0.2761
10459TIP3    H252869   2.615   6.352   1.956  0.3109 -0.3130  1.2085
10460TIP3   OH252870   6.102   3.317  11.750  0.0432  0.7218 -0.0548
10460TIP3    H152871   6.144   3.373  11.815 -0.0308 -0.2447  0.8420
10460TIP3    H252872   6.101   3.370  11.670  1.5119  1.3570  0.3188
10461TIP3   OH252873   2.923   1.660   4.039 -0.0233  0.7673  0.4870
10461TIP3    H152874   3.008   1.616   4.041  0.4536  1.7031  1.2000
10461TIP3    H252875   2.868   1.601   3.987  1.0051  0.0661  0.1470
10462TIP3   OH252876   0.098   6.560  15.493  0.3298  0.2221  0.1344
10462TIP3    H152877   0.186   6.596  15.484 -0.3492  2.0333  0.3763
10462TIP3    H252878   0.112   6.467  15.509  2.2321  0.6176  1.0447
10463TIP3   OH252879   6.527   0.801  11.542 -0.2216 -0.7505  0.1624
10463TIP3    H152880   6.614   0.789  11.506 -0.7541 -0.4844 -1.2950
10463TIP3    H252881   6.486   0.714  11.535 -0.2188 -0.7760  0.4503
10464TIP3   OH252882   1.211   3.903  16.570  0.0101 -0.1859 -0.3166
10464TIP3    H152883   1.160   3.823  16.579  0.7256 -0.5792  0.4372
10464TIP3    H252884   1.147   3.973  16.560 -0.6971 -0.5676  1.3774
10465TIP3   OH252885   4.244   5.508  13.918  0.2673 -0.4037  0.4120
10465TIP3    H152886   4.218   5.437  13.978 -1.6123 -0.2945 -0.2228
10465TIP3    H252887   4.314   5.469  13.866 -0.6156 -1.7887  0.1822
10466TIP3   OH252888   4.446   3.509   2.473  0.1625 -0.7507 -1.0366
10466TIP3    H152889   4.495   3.577   2.427  0.6964 -0.5218 -0.1551
10466TIP3    H252890   4.457   3.431   2.419  0.9626 -0.5388 -1.1941
10467TIP3   OH252891   4.603   1.675   1.867 -0.3388  0.0664 -0.0950
10467TIP3    H152892   4.514   1.650   1.892  0.1069 -0.4479  1.0747
10467TIP3    H252893   4.629   1.739   1.933  0.8009 -1.1479  0.6911
10468TIP3   OH252894   5.044   5.126   2.150 -0.6341  0.3677 -0.0458
10468TIP3    H152895   5.030   5.033   2.167 -2.1896  0.6106  0.1405
10468TIP3    H252896   5.066   5.163   2.235  0.1927  0.1524 -0.1561
10469TIP3   OH252897   4.637   0.109  11.697  0.2566 -0.4592 -0.4856
10469TIP3    H152898   4.589   0.192  11.690  0.6477 -0.3037 -1.5834
10469TIP3    H252899   4.729   0.136  11.703  0.2884 -0.7818  0.6891
10470TIP3   OH252900   5.842   2.957   3.530  0.6070  0.3946 -0.1212
10470TIP3    H152901   5.765   3.005   3.558  0.5909  0.2336  0.1179
10470TIP3    H252902   5.812   2.866   3.520  0.5732  0.4847 -0.8298
10471TIP3   OH252903   2.279   2.065   3.843 -0.3169 -0.0063  0.2601
10471TIP3    H152904   2.363   2.019   3.838  0.4760  1.0699  2.3871
10471TIP3    H252905   2.280   2.106   3.930 -2.7968  0.5337  0.0903
10472TIP3   OH252906   3.322   6.401   5.975  0.2820 -0.1485  0.0540
10472TIP3    H152907   3.316   6.320   5.925 -0.0116 -0.5457  0.7255
10472TIP3    H252908   3.405   6.395   6.021 -0.8971 -1.2911  2.1657
10473TIP3   OH252909   6.447   5.098  13.983  0.0136  0.2028  0.2124
10473TIP3    H152910   6.467   5.150  13.906 -3.0372 -0.4589 -1.1661
10473TIP3    H252911   6.409   5.017  13.948  0.9258 -1.2558  2.3738
10474TIP3   OH252912   1.438   0.600   2.016 -0.1183  0.2878 -0.0376
10474TIP3    H152913   1.456   0.550   1.936 -0.7832  0.2576 -0.1758
10474TIP3    H252914   1.406   0.534   2.078 -1.8187  0.6405 -0.4876
10475TIP3   OH252915   3.844   0.411   3.173  0.0317 -0.4080  0.0819
10475TIP3    H152916   3.820   0.504   3.168  0.7398 -0.0818  1.8670
10475TIP3    H252917   3.761   0.365   3.183 -0.4319 -0.1195 -2.0586
10476TIP3   OH252918   1.748   1.283   1.275 -0.1897  0.1345 -0.2613
10476TIP3    H152919   1.717   1.355   1.331 -1.1012 -0.8129  0.4765
10476TIP3    H252920   1.669   1.245   1.237  0.4053  0.6969 -2.1811
10477TIP3   OH252921   6.362   2.366   1.205  0.4555 -0.3225  0.6706
10477TIP3    H152922   6.408   2.391   1.285  1.9953 -2.4802  0.5666
10477TIP3    H252923   6.402   2.283   1.180 -0.7674 -0.2776 -1.7276
10478TIP3   OH252924   2.256   1.639   1.632  0.1071  0.0357  0.1162
10478TIP3    H152925   2.329   1.645   1.570 -0.3663 -0.2800 -0.4860
10478TIP3    H252926   2.286   1.577   1.698  0.6745  0.4845  0.2785
10479TIP3   OH252927   0.590   5.852   0.765  0.0461  0.2071 -0.1579
10479TIP3    H152928   0.661   5.797   0.798 -0.5057 -0.2680  0.2609
10479TIP3    H252929   0.590   5.928   0.823 -0.1906 -0.0900  0.2336
10480TIP3   OH252930   1.465   6.187   2.513 -0.3764  0.0951  0.2302
10480TIP3    H152931   1.386   6.145   2.480  0.5962 -1.2381 -0.5083
10480TIP3    H252932   1.517   6.207   2.436 -0.0551  1.1275  0.6921
10481TIP3   OH252933   1.452   1.013   2.478 -0.3317  0.0483 -0.2609
10481TIP3    H152934   1.488   1.079   2.418 -1.2320  0.5362 -0.2841
10481TIP3    H252935   1.357   1.022   2.469 -0.4710 -1.1729 -0.1624
10482TIP3   OH252936   0.649   1.923  14.588 -0.5017 -0.2830 -0.0703
10482TIP3    H152937   0.714   1.928  14.518  0.9321  0.2984  1.2302
10482TIP3    H252938   0.607   1.838  14.577  1.1242 -1.0764 -0.4480
10483TIP3   OH252939   2.894   1.666  15.117 -0.3243  1.1382  0.1098
10483TIP3    H152940   2.928   1.719  15.044  0.1686 -0.1007 -0.5833
10483TIP3    H252941   2.859   1.588  15.076  0.9829 -0.1177  1.2768
10484TIP3   OH252942   1.845   4.976  16.287 -0.5592 -0.0800 -0.3992
10484TIP3    H152943   1.894   5.001  16.210  1.3059  0.4744  0.8994
10484TIP3    H252944   1.769   4.927  16.253 -0.7842  1.6820 -2.6317
10485TIP3   OH252945   4.874   4.175  14.813  0.3365  0.1426  0.1958
10485TIP3    H152946   4.959   4.209  14.785  0.7639  0.8962  2.2466
10485TIP3    H252947   4.848   4.114  14.744  1.3169  1.8193 -1.7454
10486TIP3   OH252948   2.174   3.521   2.699  0.3300 -0.1186  0.8909
10486TIP3    H152949   2.136   3.608   2.712  1.1773  0.4312 -0.1165
10486TIP3    H252950   2.121   3.483   2.629  1.7313  0.7797 -0.7537
10487TIP3   OH252951   2.729   2.380  14.765 -0.8595 -0.0430 -0.6822
10487TIP3    H152952   2.735   2.301  14.712  0.6476 -0.9403  0.7396
10487TIP3    H252953   2.771   2.448  14.711 -1.7247 -0.2937 -1.7069
10488TIP3   OH252954   1.042   4.267   2.482 -0.1340 -0.1474  0.6946
10488TIP3    H152955   1.093   4.291   2.559  0.3632  0.6267  0.1408
10488TIP3    H252956   0.979   4.202   2.514 -0.5851  0.8640  1.9661
10489TIP3   OH252957   1.240   2.145   3.512  0.3311 -0.0370 -0.2005
10489TIP3    H152958   1.303   2.214   3.534  0.7871 -0.5350  0.0970
10489TIP3    H252959   1.198   2.123   3.595  0.3117 -0.2342 -0.2609
10490TIP3   OH252960   4.187   6.159  16.071 -0.4326 -0.3669 -0.3212
10490TIP3    H152961   4.146   6.230  16.120 -0.6678 -0.2100 -0.7413
10490TIP3    H252962   4.126   6.141  15.999  0.1389 -0.2710 -0.8339
10491TIP3   OH252963   4.758   2.069  12.159  0.5848  0.0308  0.0457
10491TIP3    H152964   4.735   2.024  12.078  0.0825 -0.0548  0.2314
10491TIP3    H252965   4.854   2.073  12.158  0.7418 -2.1287  0.5782
10492TIP3   OH252966   1.887   2.366   5.164  0.2990 -0.0954 -0.5211
10492TIP3    H152967   1.911   2.316   5.242 -2.3289  1.2111  1.2420
10492TIP3    H252968   1.837   2.304   5.111 -0.6011 -0.1354  0.3525
10493TIP3   OH252969   5.518   2.500   5.394 -0.0808 -0.4631  0.2921
10493TIP3    H152970   5.602   2.506   5.348 -0.2076 -1.4603 -0.0804
10493TIP3    H252971   5.519   2.414   5.435 -0.5820 -0.1564  0.9749
10494TIP3   OH252972   0.022   6.212  11.868 -0.3841  0.1391 -0.1653
10494TIP3    H152973  -0.028   6.147  11.820  0.2770 -1.6658  1.4404
10494TIP3    H252974   0.113   6.197  11.841 -0.1238 -0.2623  0.8649
10495TIP3   OH252975   3.896   6.272  15.922 -0.0836  0.0722  0.0801
10495TIP3    H152976   3.967   6.333  15.905  1.5537 -1.5305  0.8187
10495TIP3    H252977   3.925   6.189  15.883 -2.1602 -0.3255 -0.7771
10496TIP3   OH252978   4.485   5.362  11.715  0.4464  0.1754  0.4851
10496TIP3    H152979   4.529   5.417  11.650  0.3537  0.4391  0.6404
10496TIP3    H252980   4.524   5.276  11.705 -0.4809 -0.1293 -0.8353
10497TIP3   OH252981   4.534   5.622  14.147  0.3904 -0.0694  0.2019
10497TIP3    H152982   4.599   5.561  14.182  0.6743  0.7575  1.1652
10497TIP3    H252983   4.578   5.667  14.075  0.6292 -0.0601  0.3549
10498TIP3   OH252984   4.011   0.326   0.600 -0.0491  0.2087  0.3581
10498TIP3    H152985   4.044   0.344   0.688 -1.8362 -0.9677  1.3343
10498TIP3    H252986   3.971   0.409   0.572 -2.0967 -0.1681  1.9331
10499TIP3   OH252987   2.140   1.323  13.897 -0.0722 -0.4378  0.3843
10499TIP3    H152988   2.076   1.253  13.884 -1.9029  1.0534  0.8362
10499TIP3    H252989   2.140   1.371  13.814  1.6650 -1.2985 -0.1581
10500TIP3   OH252990   6.075   5.346   3.079 -0.0771 -0.4032 -0.2635
10500TIP3    H152991   6.034   5.328   3.164  0.2828 -3.2504 -0.5697
10500TIP3    H252992   6.005   5.329   3.015  0.0642  0.2220 -0.5833
10501TIP3   OH252993   5.624   4.570   0.422  0.6142  0.3690  0.1264
10501TIP3    H152994   5.551   4.511   0.404  0.1471  0.5017  1.4505
10501TIP3    H252995   5.690   4.515   0.465  1.1796  0.3162 -0.7847
10502TIP3   OH252996   3.996   0.608   3.380  0.2367  0.2844 -0.4860
10502TIP3    H152997   4.005   0.529   3.327 -0.7777  0.5905 -1.1365
10502TIP3    H252998   3.911   0.644   3.355  0.4074  1.2388  0.2685
10503TIP3   OH252999   0.059   3.817  10.704 -0.2765  0.3675  0.0357
10503TIP3    H153000  -0.002   3.776  10.644  0.5250 -1.4707  0.4163
10503TIP3    H253001   0.118   3.867  10.648 -0.3509 -0.2358 -0.5924
10504TIP3   OH253002   1.483   3.534   3.916 -0.3223  0.3785  0.9976
10504TIP3    H153003   1.410   3.562   3.861 -0.6186 -0.1805  1.1014
10504TIP3    H253004   1.531   3.615   3.935  0.3289  0.4643 -0.8357
10505TIP3   OH253005   0.908   5.377  11.714  0.0029  0.0306  0.8312
10505TIP3    H153006   0.968   5.394  11.786 -1.2242 -1.9317  2.4309
10505TIP3    H253007   0.884   5.285  11.724 -1.0814 -0.0055 -1.4466
10506TIP3   OH253008   5.091   4.653  12.184 -0.2873  0.3623 -0.2523
10506TIP3    H153009   5.041   4.591  12.130  3.5474 -2.8860 -0.5672
10506TIP3    H253010   5.152   4.694  12.123  0.3862  0.8899  0.7552
10507TIP3   OH253011   4.934   4.211   0.812 -0.2118  0.4097 -0.3478
10507TIP3    H153012   4.983   4.133   0.786  0.7635  1.3198 -1.3525
10507TIP3    H253013   4.946   4.216   0.907 -0.7392 -0.9468 -0.1955
10508TIP3   OH253014   0.756   5.020  13.802 -0.1006 -0.5926  0.7639
10508TIP3    H153015   0.699   5.022  13.725  1.3309  1.2212 -0.3308
10508TIP3    H253016   0.711   4.963  13.864 -2.4471 -0.2578 -0.5300
10509TIP3   OH253017   5.003   1.206   1.033 -0.3068 -0.1197 -0.3026
10509TIP3    H153018   5.052   1.200   1.115 -1.9778 -3.2665  0.6039
10509TIP3    H253019   5.066   1.243   0.971  2.5256 -1.8671  1.3044
10510TIP3   OH253020   2.975   1.122  15.539 -0.3491  0.5003  0.3384
10510TIP3    H153021   3.036   1.048  15.544 -0.9391  0.0679  1.5424
10510TIP3    H253022   2.915   1.109  15.612 -0.9042  1.8000  0.1499
10511TIP3   OH253023   0.372   3.175  12.521 -0.0347  0.4669 -0.3354
10511TIP3    H153024   0.344   3.156  12.611 -0.5494 -0.7702 -0.7419
10511TIP3    H253025   0.467   3.160  12.523 -0.2244 -0.9177 -0.2946
10512TIP3   OH253026   6.442   3.032  11.048 -0.7077  0.3472 -0.0032
10512TIP3    H153027   6.432   2.971  10.975 -0.1463  1.2437 -0.8553
10512TIP3    H253028   6.365   3.089  11.043 -0.2695  0.9245 -0.4251
10513TIP3   OH253029   1.594   3.761   1.520  0.0739 -0.6122  0.3418
10513TIP3    H153030   1.595   3.669   1.546  1.9367 -1.0595 -1.1262
10513TIP3    H253031   1.666   3.770   1.458  0.0505  1.8939  0.5611
10514TIP3   OH253032   5.446   3.172   0.655  0.2749 -0.1757  0.1664
10514TIP3    H153033   5.365   3.217   0.679  0.8079  0.3062  1.1152
10514TIP3    H253034   5.481   3.222   0.581  0.3916  0.4134  0.6215
10515TIP3   OH253035   1.636   6.552   2.077  0.6717  0.2297 -0.3156
10515TIP3    H153036   1.637   6.520   2.167  1.5696  1.3555  0.0866
10515TIP3    H253037   1.628   6.472   2.024 -1.1457 -0.3629  0.7626
10516TIP3   OH253038   5.349   2.932   6.280  0.1981 -0.2803 -0.2902
10516TIP3    H153039   5.444   2.936   6.279  0.2349 -1.1832 -0.8120
10516TIP3    H253040   5.327   2.889   6.363  0.3054 -1.4083 -0.8384
10517TIP3   OH253041   5.390   2.291  15.301  0.2018  0.3503 -0.1364
10517TIP3    H153042   5.347   2.209  15.276  2.9081 -2.0584  2.4529
10517TIP3    H253043   5.480   2.267  15.319  1.4928  4.2210 -0.4740
10518TIP3   OH253044   6.629   5.823   5.993  0.2291  0.3013  0.1426
10518TIP3    H153045   6.631   5.901   6.048 -0.9750  0.2957  0.2328
10518TIP3    H253046   6.708   5.775   6.016 -0.4743  0.0509  2.2316
10519TIP3   OH253047   1.711   1.039   1.653  0.0264 -0.1170 -0.3808
10519TIP3    H153048   1.740   0.985   1.580  3.0737  0.7691  0.0399
10519TIP3    H253049   1.645   1.097   1.615  0.2998 -0.8231 -2.0162
10520TIP3   OH253050   3.847   0.274  10.454  0.3694  0.4247  0.7892
10520TIP3    H153051   3.835   0.224  10.535  0.2057 -2.0650 -0.6859
10520TIP3    H253052   3.758   0.300  10.429 -0.3370 -3.1576 -1.0977
10521TIP3   OH253053   3.489   6.295  12.963 -0.3487  0.2380  0.2456
10521TIP3    H153054   3.413   6.351  12.975  0.7174  1.5730  1.1575
10521TIP3    H253055   3.477   6.224  13.026 -0.8210  0.4700  0.4194
10522TIP3   OH253056   5.612   4.197   1.184  0.2320 -0.3254 -0.4727
10522TIP3    H153057   5.652   4.274   1.143 -1.2565  0.1237 -1.1710
10522TIP3    H253058   5.626   4.209   1.277 -2.0695  2.1117 -0.3292
10523TIP3   OH253059   2.073   2.543  15.543 -0.1575  0.2253 -0.0344
10523TIP3    H153060   2.000   2.574  15.596 -1.3681  1.3109 -2.1798
10523TIP3    H253061   2.032   2.509  15.463  1.6658  1.7188 -1.7109
10524TIP3   OH253062   5.414   0.840   1.476  0.2997 -0.0718  0.1212
10524TIP3    H153063   5.452   0.820   1.562 -0.4095  2.8521  1.2294
10524TIP3    H253064   5.365   0.761   1.453  1.9196 -1.5897  1.5509
10525TIP3   OH253065   3.651   4.918   4.880  0.3547  0.0757 -0.5684
10525TIP3    H153066   3.693   5.004   4.884  0.2638  0.2218 -2.0769
10525TIP3    H253067   3.705   4.862   4.935  0.5096  1.0468  0.3008
10526TIP3   OH253068   1.933   4.319   3.437 -0.1415  0.4314  0.1857
10526TIP3    H153069   1.905   4.360   3.355  2.5588 -1.4890 -1.9047
10526TIP3    H253070   1.859   4.263   3.462 -0.2037 -0.8253 -2.4205
10527TIP3   OH253071   4.202   5.906   0.014 -0.0734 -0.4332  0.4005
10527TIP3    H153072   4.130   5.889   0.074 -1.7379  0.4234 -1.2656
10527TIP3    H253073   4.193   5.840  -0.054  0.6417 -0.2295  0.1000
10528TIP3   OH253074   5.459   5.822   4.906 -0.1000 -0.1745  0.7742
10528TIP3    H153075   5.504   5.882   4.966 -1.1023  2.0090 -0.5267
10528TIP3    H253076   5.529   5.778   4.858  0.7094  1.7591  0.0923
10529TIP3   OH253077   2.688   1.605  13.751  0.0908 -0.4029 -0.4698
10529TIP3    H153078   2.597   1.636  13.747  0.3296  0.8159  1.7991
10529TIP3    H253079   2.738   1.682  13.778  1.5030 -1.5299  0.2796
10530TIP3   OH253080   6.271   5.176  13.355 -0.0787 -0.0057  0.2665
10530TIP3    H153081   6.215   5.251  13.335 -2.0214 -1.5204 -0.2559
10530TIP3    H253082   6.329   5.169  13.280  2.3136  2.7543  1.6512
10531TIP3   OH253083   0.259   3.513   4.808  0.1039 -0.2461  0.0390
10531TIP3    H153084   0.276   3.441   4.748  0.6827  1.2169 -1.6555
10531TIP3    H253085   0.344   3.535   4.846 -0.1460 -0.7203  0.9080
10532TIP3   OH253086   5.234   3.003  12.461 -0.3469  0.2192  0.2309
10532TIP3    H153087   5.153   2.961  12.490 -0.6879  0.9832  0.4183
10532TIP3    H253088   5.240   2.983  12.368  0.5485 -1.9181  0.6851
10533TIP3   OH253089   4.982   0.447   0.835  0.2263  0.4038  0.4933
10533TIP3    H153090   5.046   0.379   0.856 -2.0367 -2.0027  0.0207
10533TIP3    H253091   5.016   0.488   0.755  0.8935 -1.2281 -0.0971
10534TIP3   OH253092   4.691   1.706  11.830  0.4260 -0.1536 -0.1385
10534TIP3    H153093   4.613   1.650  11.839  0.3192 -0.3090 -1.7503
10534TIP3    H253094   4.740   1.667  11.758  2.9232 -1.0774  1.9121
10535TIP3   OH253095   6.604   2.186  14.490 -0.0751 -0.4909  0.4062
10535TIP3    H153096   6.675   2.247  14.504  0.2434 -0.9736  0.9312
10535TIP3    H253097   6.603   2.131  14.569  0.9742 -2.4967 -0.8949
10536TIP3   OH253098   5.931   6.502  15.650 -0.0599 -0.0942  0.0530
10536TIP3    H153099   5.906   6.478  15.560  1.1168  2.7770 -1.1520
10536TIP3    H253100   6.023   6.479  15.656  0.0718  0.4732  0.2369
10537TIP3   OH253101   4.251   4.879   4.275 -0.2603 -0.4773 -0.6648
10537TIP3    H153102   4.273   4.817   4.205  1.7983 -0.6543  0.0745
10537TIP3    H253103   4.320   4.945   4.271 -0.2845 -0.3149  0.9717
10538TIP3   OH253104   5.598   5.188   3.002 -0.4125 -0.0846 -0.2152
10538TIP3    H153105   5.634   5.119   3.058  0.1926 -0.3645 -0.9337
10538TIP3    H253106   5.613   5.269   3.051 -0.4832 -0.3922  0.3161
10539TIP3   OH253107   4.992   5.315   4.263 -0.1114  0.5501 -0.2469
10539TIP3    H153108   5.012   5.253   4.333 -0.9331  0.2961 -0.2265
10539TIP3    H253109   4.976   5.260   4.186  0.4496  0.8094 -0.5567
10540TIP3   OH253110   3.004   0.970  14.373 -0.1836 -0.1574  0.1386
10540TIP3    H153111   3.085   1.021  14.371 -1.0970  1.3710  0.6413
10540TIP3    H253112   3.026   0.892  14.423  1.1744 -0.1522 -0.3946
10541TIP3   OH253113   4.053   4.144   5.723 -0.1581  0.4553  0.2057
10541TIP3    H153114   4.027   4.054   5.744  1.0649 -0.0944 -0.5048
10541TIP3    H253115   4.095   4.137   5.637  0.3894  1.6344  0.3589
10542TIP3   OH253116   2.693   5.352   5.880  0.2284  0.1011 -0.4382
10542TIP3    H153117   2.631   5.355   5.952  1.3795  0.2452  0.5695
10542TIP3    H253118   2.642   5.378   5.803 -0.7954  0.8289  0.4641
10543TIP3   OH253119   5.161   2.132  16.997  0.3053  0.3701 -0.9370
10543TIP3    H153120   5.099   2.168  16.933  0.6928  1.7113 -0.5986
10543TIP3    H253121   5.237   2.190  16.991  0.0941  0.9513  1.1921
10544TIP3   OH253122   3.312   6.267  16.185 -0.2123 -0.4067  0.1626
10544TIP3    H153123   3.251   6.332  16.151 -0.3909  0.2500  1.6508
10544TIP3    H253124   3.265   6.225  16.257  0.3996 -1.2212  0.1017
10545TIP3   OH253125   2.511   1.286  11.679  0.4008  0.1963 -0.2488
10545TIP3    H153126   2.477   1.374  11.698  0.3896 -0.1771  1.6924
10545TIP3    H253127   2.605   1.299  11.669  0.2817  0.5587 -1.0034
10546TIP3   OH253128   1.087   2.164   5.901  0.2812 -0.2374  0.0261
10546TIP3    H153129   1.102   2.081   5.948 -0.9502 -0.6938 -0.3629
10546TIP3    H253130   1.161   2.170   5.840  0.7389 -0.7199  0.5232
10547TIP3   OH253131   4.588   0.342  16.372  0.2154  0.6604 -0.6667
10547TIP3    H153132   4.528   0.273  16.400  0.3248 -0.2268 -2.4482
10547TIP3    H253133   4.538   0.393  16.308  0.2471  2.0808  0.3816
10548TIP3   OH253134   1.378   2.216  16.088  0.1249 -0.1477 -0.3048
10548TIP3    H153135   1.390   2.160  16.165  0.3617 -0.0168 -0.2469
10548TIP3    H253136   1.459   2.267  16.083 -0.9888  1.8786  0.9935
10549TIP3   OH253137   5.319   5.456  16.147  0.1240 -0.4693  0.1511
10549TIP3    H153138   5.241   5.416  16.183  0.3505 -1.7189 -0.6952
10549TIP3    H253139   5.328   5.419  16.059  0.6344  1.0595 -0.4836
10550TIP3   OH253140   2.873   6.653  11.797 -0.1838  0.1188  0.0077
10550TIP3    H153141   2.796   6.679  11.849 -0.9631 -2.1586  0.1117
10550TIP3    H253142   2.947   6.695  11.841 -1.0994  0.1991  1.5465
10551TIP3   OH253143   2.228   2.629   0.296 -0.2296  0.2073  0.0166
10551TIP3    H153144   2.302   2.595   0.246  0.1858  2.5379 -1.0814
10551TIP3    H253145   2.219   2.568   0.370  0.6431 -1.9903 -1.5705
10552TIP3   OH253146   3.734   3.810  14.483  0.0267 -0.1089  0.0399
10552TIP3    H153147   3.731   3.756  14.404  1.0601 -0.9194  0.5247
10552TIP3    H253148   3.803   3.875  14.465 -0.2573  0.1855 -0.0041
10553TIP3   OH253149   1.219   4.723   4.299 -0.4238 -0.3409 -0.1187
10553TIP3    H153150   1.165   4.795   4.331 -1.0087 -0.6000 -0.4969
10553TIP3    H253151   1.210   4.727   4.204  0.5965 -0.1061 -0.2149
10554TIP3   OH253152   3.229   6.762  12.799 -0.1623  0.4524  0.2167
10554TIP3    H153153   3.226   6.855  12.776 -1.2201  0.0531 -1.4622
10554TIP3    H253154   3.311   6.731  12.761 -0.0471  0.5898  0.3499
10555TIP3   OH253155   2.508   0.213   1.122 -0.4647  0.3741  0.2212
10555TIP3    H153156   2.596   0.247   1.107 -0.3419 -0.3483 -0.8001
10555TIP3    H253157   2.452   0.291   1.121 -0.0896  0.6567 -1.2609
10556TIP3   OH253158   5.587   5.885  14.989  0.1474  0.4021  0.3640
10556TIP3    H153159   5.546   5.941  14.923  0.0962 -0.0099  0.0442
10556TIP3    H253160   5.681   5.904  14.980  0.3986 -1.3533 -1.4644
10557TIP3   OH253161   0.769   2.825   2.452  0.1819  0.2136 -0.2257
10557TIP3    H153162   0.742   2.916   2.446  2.7901  1.0818  0.2622
10557TIP3    H253163   0.838   2.815   2.387  1.1157 -0.9468  0.8862
10558TIP3   OH253164   6.322   1.856  14.497  0.4516 -0.5126 -0.2251
10558TIP3    H153165   6.320   1.835  14.590  1.9250  1.1602  0.2474
10558TIP3    H253166   6.410   1.832  14.469  0.3436 -0.0993 -0.9481
10559TIP3   OH253167   1.731   2.613   6.506  0.3388 -0.5526  0.0127
10559TIP3    H153168   1.749   2.686   6.564 -0.9136  0.1338 -0.4168
10559TIP3    H253169   1.648   2.577   6.538  0.3269 -1.0196 -0.5227
10560TIP3   OH253170   0.581   1.055   1.941  0.2955  0.4051 -0.3237
10560TIP3    H153171   0.522   1.128   1.955  0.0239  0.4202 -1.4862
10560TIP3    H253172   0.655   1.093   1.894  1.5883  0.5296  1.6731
10561TIP3   OH253173   3.717   5.920  15.631  0.2268  0.0766  0.0255
10561TIP3    H153174   3.643   5.868  15.660 -0.3396 -0.3152 -1.9432
10561TIP3    H253175   3.764   5.863  15.570 -1.5903  2.3673 -3.9085
10562TIP3   OH253176   5.726   1.602  15.605  0.9077  0.2756  0.6488
10562TIP3    H153177   5.752   1.638  15.521  0.3939 -0.7424  0.0369
10562TIP3    H253178   5.788   1.530  15.621  0.7973  0.2475  0.9781
10563TIP3   OH253179   5.335   0.916   3.650 -0.2410  0.3167 -0.3630
10563TIP3    H153180   5.403   0.850   3.640  0.1737  1.0002 -2.6747
10563TIP3    H253181   5.278   0.882   3.719  2.3687 -0.2836  1.6210
10564TIP3   OH253182   3.818   6.279  13.188  0.3124 -0.1476  0.5651
10564TIP3    H153183   3.812   6.225  13.109 -0.1443 -0.4509  0.8052
10564TIP3    H253184   3.825   6.215  13.260 -0.4383  0.1032  0.8716
10565TIP3   OH253185   3.287   1.098   1.764  0.5484  0.4688 -0.0627
10565TIP3    H153186   3.375   1.069   1.738  1.3927 -0.3714  3.1685
10565TIP3    H253187   3.302   1.181   1.811 -0.8098  1.8127 -1.8758
10566TIP3   OH253188   6.001   5.162  15.503 -0.2134 -0.3832 -0.1107
10566TIP3    H153189   5.960   5.190  15.585  0.1183  1.1553 -0.4325
10566TIP3    H253190   6.048   5.083  15.525 -1.4577 -0.8985  0.8036
10567TIP3   OH253191   5.284   3.992   5.625  0.1750 -0.0743  0.5355
10567TIP3    H153192   5.291   4.087   5.634  2.4102 -0.1309  0.0360
10567TIP3    H253193   5.363   3.967   5.578 -0.7114 -2.1275  0.0345
10568TIP3   OH253194   1.402   4.669  16.580 -0.1520 -0.0696 -0.0429
10568TIP3    H153195   1.333   4.605  16.595 -1.1970  0.8412 -0.7537
10568TIP3    H253196   1.386   4.700  16.490 -0.2534  1.8162  0.5816
10569TIP3   OH253197   4.664   4.187  16.726 -0.6055 -0.2628  0.0265
10569TIP3    H153198   4.621   4.106  16.697 -1.2746  0.5176 -1.2236
10569TIP3    H253199   4.692   4.229  16.645  0.2475  0.4950  0.7003
10570TIP3   OH253200   1.013   3.859  12.417  0.3755 -0.4948 -0.1491
10570TIP3    H153201   1.017   3.928  12.483 -1.4759 -2.0310  1.6921
10570TIP3    H253202   0.965   3.898  12.344 -1.6882 -0.1005  1.3341
10571TIP3   OH253203   1.126   3.688  13.023 -0.3505 -0.2888  0.1031
10571TIP3    H153204   1.150   3.626  13.091 -2.0113 -0.8475  0.2323
10571TIP3    H253205   1.175   3.659  12.946  0.0787 -0.8194  0.5662
10572TIP3   OH253206   5.030   2.891   0.995  0.4530  0.0710 -0.0796
10572TIP3    H153207   5.007   2.831   0.924 -2.0686 -1.1721  1.6278
10572TIP3    H253208   4.985   2.973   0.972  0.1809 -0.1192 -0.2270
10573TIP3   OH253209   5.358   1.914  16.271 -0.4786 -0.1657  0.2368
10573TIP3    H153210   5.373   1.824  16.242  0.9070 -0.4309  1.6339
10573TIP3    H253211   5.304   1.905  16.350 -1.0382  0.2988 -0.0818
10574TIP3   OH253212   1.637   3.094  11.325  0.6486  0.1567  0.3223
10574TIP3    H153213   1.676   3.178  11.302 -1.1498  1.6491  2.3364
10574TIP3    H253214   1.701   3.053  11.383  1.9413 -0.3269 -1.3915
10575TIP3   OH253215   4.478   4.892  14.142 -0.1717  0.3186 -0.3982
10575TIP3    H153216   4.457   4.890  14.236  0.4950 -1.2588 -0.2520
10575TIP3    H253217   4.446   4.977  14.113 -0.3170  0.8886  1.2784
10576TIP3   OH253218   4.036   6.229  11.227 -0.5903  0.4022 -0.5342
10576TIP3    H153219   3.989   6.259  11.306 -2.5893  0.9734 -1.8712
10576TIP3    H253220   4.091   6.304  11.203  2.3453 -0.7593  1.8516
10577TIP3   OH253221   5.892   2.210   3.924 -0.0390 -0.0261  0.0041
10577TIP3    H153222   5.852   2.123   3.918 -0.7187  0.2118  0.9639
10577TIP3    H253223   5.943   2.208   4.005 -1.3122  0.9639  0.8602
10578TIP3   OH253224   1.879   4.984  16.554  0.4664  0.2636  0.2779
10578TIP3    H153225   1.906   5.002  16.464 -1.2359  0.8522 -0.1537
10578TIP3    H253226   1.809   4.919  16.545 -0.3215  0.9725  1.0978
10579TIP3   OH253227   3.633   3.995  12.067 -0.2697 -0.0702  0.0974
10579TIP3    H153228   3.663   4.086  12.076 -0.3161 -0.0393 -0.0645
10579TIP3    H253229   3.640   3.976  11.974 -1.5664  0.2184 -0.0729
10580TIP3   OH253230   1.233   3.910   1.198  0.1446 -0.0461  0.1251
10580TIP3    H153231   1.224   3.885   1.290 -1.5029  1.1175  0.3370
10580TIP3    H253232   1.174   3.851   1.152  0.5994 -0.3091 -0.1176
10581TIP3   OH253233   5.711   1.996  10.610 -0.2973  0.1116  0.8043
10581TIP3    H153234   5.639   2.031  10.662 -0.3784  0.3294  0.5443
10581TIP3    H253235   5.678   1.913  10.576 -0.4020  0.1794  0.7401
10582TIP3   OH253236   6.680   3.137   5.598  0.2072  0.5982 -0.2554
10582TIP3    H153237   6.713   3.157   5.686 -1.0621  0.4506  0.2823
10582TIP3    H253238   6.744   3.075   5.562  0.9802  1.0045  0.3851
10583TIP3   OH253239   2.506   3.002  11.556  0.5248  0.1271  0.1632
10583TIP3    H153240   2.477   3.084  11.518  1.4188  1.4769  2.1862
10583TIP3    H253241   2.597   2.993  11.526 -0.2523 -1.4367 -1.9870
10584TIP3   OH253242   3.527   6.394   5.585  0.5222 -0.3824 -0.2651
10584TIP3    H153243   3.540   6.300   5.571 -0.0686 -0.6766  1.0415
10584TIP3    H253244   3.615   6.430   5.594  0.7510 -0.8029 -0.7368
10585TIP3   OH253245   1.715   6.257   3.465  0.4580  0.2167 -0.1817
10585TIP3    H153246   1.660   6.319   3.417  0.6647  0.2040 -0.4394
10585TIP3    H253247   1.656   6.216   3.528  0.5956  1.6297  0.9190
10586TIP3   OH253248   6.360   1.999   6.704 -0.3385 -0.4488 -0.4137
10586TIP3    H153249   6.310   1.972   6.627 -0.8130 -1.6188  0.2672
10586TIP3    H253250   6.439   1.945   6.703 -0.9854 -1.4794  0.6113
10587TIP3   OH253251   3.276   5.430  15.458  0.1923 -0.0990 -0.2034
10587TIP3    H153252   3.261   5.517  15.421  2.5004 -0.1928 -1.6302
10587TIP3    H253253   3.205   5.377  15.423  0.9693  0.3721 -2.7647
10588TIP3   OH253254   2.638   3.303   4.653 -0.2359 -0.2102 -0.6728
10588TIP3    H153255   2.553   3.336   4.682 -0.0410 -0.0114 -0.3212
10588TIP3    H253256   2.693   3.381   4.646 -0.1580 -0.3032 -1.1732
10589TIP3   OH253257   0.507   6.451   4.593 -0.1107 -0.1956  0.4542
10589TIP3    H153258   0.533   6.502   4.670 -1.4614  0.1447  0.7191
10589TIP3    H253259   0.454   6.379   4.629 -0.2945 -0.3489 -0.1187
10590TIP3   OH253260   2.593   5.625  14.014  0.5287 -0.5902  0.7736
10590TIP3    H153261   2.676   5.579  14.026  1.6935  0.9268 -0.9687
10590TIP3    H253262   2.592   5.650  13.921 -0.8843  1.3046  1.2366
10591TIP3   OH253263   3.424   3.437  13.823 -0.0101  0.0724  0.4342
10591TIP3    H153264   3.456   3.428  13.913  0.7801 -1.1790  0.0505
10591TIP3    H253265   3.333   3.405  13.827  0.8861 -2.8173  0.2966
10592TIP3   OH253266   0.523   0.488  11.872  0.2479  0.5303 -0.1115
10592TIP3    H153267   0.532   0.485  11.968  1.3761  2.7265 -0.0953
10592TIP3    H253268   0.461   0.558  11.856  3.2960  3.2950 -0.9920
10593TIP3   OH253269   6.105   5.745   5.335 -0.5189  0.6711 -0.2457
10593TIP3    H153270   6.101   5.782   5.246 -1.4719  1.7293  0.2101
10593TIP3    H253271   6.052   5.666   5.330 -1.3019  1.1869 -0.4355
10594TIP3   OH253272   6.596   5.790  11.832  0.7364  0.3619 -0.2425
10594TIP3    H153273   6.670   5.737  11.861  1.5132  2.0516  1.0623
10594TIP3    H253274   6.557   5.825  11.912  0.3095  1.7865 -1.0159
10595TIP3   OH253275   2.780   5.335   3.957  0.3062  0.4598 -0.3919
10595TIP3    H153276   2.802   5.379   3.874 -1.4179  1.5730 -0.3028
10595TIP3    H253277   2.685   5.334   3.960  0.3243 -0.3667  1.1857
10596TIP3   OH253278   3.307   2.176  11.056 -0.7183 -0.4971  0.6473
10596TIP3    H153279   3.399   2.181  11.082 -0.6121  1.5443  0.0915
10596TIP3    H253280   3.309   2.133  10.971  0.0753  1.7742 -0.5708
10597TIP3   OH253281   3.150   6.159   3.150 -0.3967 -0.1139 -0.1016
10597TIP3    H153282   3.136   6.253   3.160 -3.0123 -0.3802 -0.6543
10597TIP3    H253283   3.200   6.150   3.069 -2.2267  0.7422 -1.3864
10598TIP3   OH253284   3.393   5.671   5.295  0.2947 -0.0963  0.1840
10598TIP3    H153285   3.434   5.654   5.380  0.6432 -2.4266 -0.3806
10598TIP3    H253286   3.320   5.610   5.290 -0.0765  0.4024 -0.9775
10599TIP3   OH253287   3.534   5.354  15.377 -0.2503 -0.1757  0.0234
10599TIP3    H153288   3.547   5.262  15.400 -0.2593  0.1860  1.5617
10599TIP3    H253289   3.455   5.379  15.424 -0.0476  0.7233 -0.1038
10600TIP3   OH253290   5.486   5.802  16.098 -0.1207  0.0162  0.2590
10600TIP3    H153291   5.465   5.752  16.019 -0.3228  0.2979  0.1322
10600TIP3    H253292   5.420   5.774  16.162  0.6632 -0.9909  0.6716
10601TIP3   OH253293   1.449   1.962  14.218 -0.0022  0.5503  0.5148
10601TIP3    H153294   1.376   1.951  14.158  0.3174 -0.2990  0.2715
10601TIP3    H253295   1.419   2.029  14.280  0.0460  2.1630 -1.1471
10602TIP3   OH253296   0.065   3.458  13.540  1.2650 -0.0971  0.1984
10602TIP3    H153297   0.005   3.421  13.475 -0.0655 -0.4598  1.5781
10602TIP3    H253298   0.117   3.522  13.492 -0.0622  0.0413 -1.0922
10603TIP3   OH253299   3.908   0.795   4.402  0.2737  0.1118 -0.3711
10603TIP3    H153300   3.813   0.807   4.404  0.0342 -1.6020  0.2171
10603TIP3    H253301   3.942   0.865   4.459 -0.7012  0.2177  0.1043
10604TIP3   OH253302   2.417   6.340   0.877 -0.3160  0.7429  0.1635
10604TIP3    H153303   2.469   6.261   0.861  0.8112  0.9195  2.5776
10604TIP3    H253304   2.473   6.395   0.932 -2.4256  1.6731  1.5128
10605TIP3   OH253305   6.501   5.053   4.383  0.0187 -0.3634 -0.3361
10605TIP3    H153306   6.548   5.092   4.457  0.1628  0.1248 -0.6748
10605TIP3    H253307   6.433   5.000   4.423 -0.1963  0.2650  0.1544
10606TIP3   OH253308   3.190   1.197   1.051 -0.4874  0.1212 -0.1634
10606TIP3    H153309   3.265   1.155   1.093  1.4649  1.8835 -1.6831
10606TIP3    H253310   3.156   1.131   0.991  0.1932 -0.5222  0.1452
10607TIP3   OH253311   4.037   6.286  12.582  0.0796  0.1350 -0.5451
10607TIP3    H153312   4.129   6.271  12.605  0.0037  2.2735  1.5057
10607TIP3    H253313   3.995   6.201  12.595  1.6351 -0.7468 -1.0042
10608TIP3   OH253314   4.735   2.714  12.773 -0.5381  0.7876  0.1661
10608TIP3    H153315   4.788   2.705  12.694 -1.1479 -1.1462 -0.0671
10608TIP3    H253316   4.661   2.769  12.748  0.3610  1.9588 -0.0012
10609TIP3   OH253317   5.325   2.456   2.487 -0.0088 -0.0033  0.1840
10609TIP3    H153318   5.311   2.547   2.461  0.3839 -0.3805 -1.4748
10609TIP3    H253319   5.390   2.460   2.556  1.4156  0.8884 -1.1463
10610TIP3   OH253320   0.683   5.882   3.931 -0.3015  0.1323  0.0518
10610TIP3    H153321   0.598   5.884   3.887 -0.9582 -0.3042  1.2803
10610TIP3    H253322   0.663   5.865   4.022  1.0833  0.5099  0.4505
10611TIP3   OH253323   3.206   1.376   1.545 -1.0905  0.0501 -0.3088
10611TIP3    H153324   3.171   1.452   1.590 -0.0524 -0.1392  0.8623
10611TIP3    H253325   3.278   1.411   1.491 -0.5925 -0.0869  0.2537
10612TIP3   OH253326   4.925   2.972  12.222 -0.3196  0.2795  0.0543
10612TIP3    H153327   4.960   2.887  12.194  1.5849  0.8257  0.5626
10612TIP3    H253328   4.832   2.956  12.238  0.1271 -1.9065  0.8473
10613TIP3   OH253329   1.867   6.145  16.600  0.2957 -0.2664 -0.0121
10613TIP3    H153330   1.858   6.202  16.676 -2.3276  0.0738 -0.4857
10613TIP3    H253331   1.792   6.085  16.606 -0.4220  0.2419 -2.6444
10614TIP3   OH253332   3.632   0.541  13.429 -0.3579 -0.6711  0.2738
10614TIP3    H153333   3.610   0.534  13.336 -1.5112 -1.1729  0.5697
10614TIP3    H253334   3.701   0.608  13.432 -1.4234  0.5340 -0.7701
10615TIP3   OH253335   2.001   2.384   2.981  0.0504  0.7084 -0.5063
10615TIP3    H153336   1.905   2.379   2.974 -0.0122 -1.0918  1.0718
10615TIP3    H253337   2.031   2.390   2.890 -1.4775 -0.8472 -1.1648
10616TIP3   OH253338   2.628   3.910  16.622  0.0093 -0.8218 -0.3753
10616TIP3    H153339   2.637   3.940  16.532 -1.4619 -1.7729 -0.8850
10616TIP3    H253340   2.692   3.839  16.630  0.4954 -0.4043 -0.5023
10617TIP3   OH253341   3.977   2.281  15.164 -0.3528 -0.3811 -0.1760
10617TIP3    H153342   4.053   2.324  15.204  0.0880  0.5675 -1.9200
10617TIP3    H253343   3.918   2.265  15.237 -0.0010  2.1205  0.7735
10618TIP3   OH253344   5.989   6.454  16.984 -0.0962 -0.2044 -1.0507
10618TIP3    H153345   6.060   6.398  17.015  1.6059  1.7853 -1.1724
10618TIP3    H253346   5.948   6.487  17.065  0.0401 -0.2420 -0.9659
10619TIP3   OH253347   6.427   3.516   3.675  0.0966  0.1934  0.0242
10619TIP3    H153348   6.335   3.536   3.658  0.2488  0.1937 -0.7967
10619TIP3    H253349   6.438   3.425   3.647  0.1140 -0.1472  1.0667
10620TIP3   OH253350   5.332   0.940  14.880 -0.0595  0.0079 -0.3530
10620TIP3    H153351   5.304   0.991  14.956  0.9153  0.7316 -0.4620
10620TIP3    H253352   5.414   0.900  14.907  0.1806  0.0905 -0.9469
10621TIP3   OH253353   5.697   5.190  13.327 -0.0958  0.6021 -0.0652
10621TIP3    H153354   5.658   5.108  13.357  0.6589 -0.1789 -1.1130
10621TIP3    H253355   5.790   5.182  13.351  0.0374  1.0131 -0.4378
10622TIP3   OH253356   6.312   3.869   1.117 -0.9943 -0.2431 -0.2130
10622TIP3    H153357   6.220   3.877   1.092 -1.2075 -1.5988  0.1113
10622TIP3    H253358   6.315   3.796   1.178  0.5139 -1.1516 -1.3144
10623TIP3   OH253359   6.248   0.767  13.353  0.3666 -0.2094  1.0517
10623TIP3    H153360   6.188   0.714  13.300  1.0243 -1.2467  1.2979
10623TIP3    H253361   6.204   0.775  13.438 -0.4484  1.0062  0.5364
10624TIP3   OH253362   5.636   4.923  13.766 -0.9656 -0.4103 -0.2690
10624TIP3    H153363   5.556   4.871  13.754 -1.7862  0.5744  0.6988
10624TIP3    H253364   5.686   4.875  13.832 -1.1781 -0.5691 -0.2236
10625TIP3   OH253365   2.467   0.597   3.368 -0.1322  0.2883  0.1086
10625TIP3    H153366   2.415   0.677   3.371 -0.1376  0.3024 -0.2990
10625TIP3    H253367   2.452   0.562   3.280  0.2567  0.0995  0.1156
10626TIP3   OH253368   3.806   5.872   6.389  0.3386 -0.5906 -0.7199
10626TIP3    H153369   3.741   5.806   6.412 -0.0026 -0.1859 -0.5163
10626TIP3    H253370   3.767   5.920   6.315  0.9288 -1.1334 -1.4031
10627TIP3   OH253371   0.370   2.597  15.627 -0.3350  0.5040  0.2654
10627TIP3    H153372   0.313   2.632  15.559 -0.1097  0.2815 -0.0438
10627TIP3    H253373   0.427   2.535  15.581 -0.4666  0.0276  0.7310
10628TIP3   OH253374   1.467   4.956  12.107 -0.3967 -0.0299  0.0147
10628TIP3    H153375   1.444   4.976  12.198  0.7032  0.1858  0.2604
10628TIP3    H253376   1.399   4.999  12.055 -0.0324  1.3795  0.6705
10629TIP3   OH253377   6.331   4.907  12.429 -0.0632  0.5675 -0.4252
10629TIP3    H153378   6.424   4.908  12.407 -0.1580  2.4144 -0.8918
10629TIP3    H253379   6.295   4.833  12.379  1.0436  0.1748 -0.6605
10630TIP3   OH253380   1.077   6.400  16.522  0.6408 -0.6225  0.1741
10630TIP3    H153381   1.060   6.477  16.469 -2.6204  0.1155  2.0384
10630TIP3    H253382   1.114   6.336  16.461 -2.0599  0.4313 -2.8181
10631TIP3   OH253383   2.050   4.684   1.783 -0.1274 -0.0390 -0.1651
10631TIP3    H153384   2.015   4.682   1.694 -1.2971  2.7528  0.1280
10631TIP3    H253385   2.032   4.773   1.814 -1.5724 -1.4055  3.5864
10632TIP3   OH253386   2.972   3.398  15.656 -0.1173  0.1890  0.3129
10632TIP3    H153387   3.043   3.403  15.720  0.0006 -0.6116  0.2542
10632TIP3    H253388   2.928   3.483  15.663  0.3952  0.4193  0.8696
10633TIP3   OH253389   0.676   2.350  14.628 -0.2232 -0.6285  0.3618
10633TIP3    H153390   0.597   2.315  14.670 -0.8652  0.4295  0.0929
10633TIP3    H253391   0.720   2.399  14.698 -0.0810 -0.7895  0.3838
10634TIP3   OH253392   6.465   3.458  16.477  0.1135  0.2391 -0.0193
10634TIP3    H153393   6.498   3.545  16.455  0.1551  0.3415  0.4356
10634TIP3    H253394   6.382   3.451  16.429 -1.3734  1.6884  2.1558
10635TIP3   OH253395   5.772   5.910   0.240  0.2265 -0.2782 -0.3383
10635TIP3    H153396   5.692   5.930   0.288  0.3038 -0.0467 -0.3044
10635TIP3    H253397   5.784   5.815   0.251 -1.1948 -0.7044 -2.1297
10636TIP3   OH253398   0.012   1.384   5.446 -0.3717 -0.3854  0.3272
10636TIP3    H153399  -0.082   1.373   5.432 -0.1839 -2.0310  0.0993
10636TIP3    H253400   0.023   1.376   5.541 -0.5932  1.1999  0.5066
10637TIP3   OH253401   5.371   1.734   5.048 -0.2619 -0.6886 -0.7111
10637TIP3    H153402   5.412   1.775   5.124 -0.7145 -0.0865 -0.7905
10637TIP3    H253403   5.441   1.730   4.983 -0.3488  0.4572 -0.8905
10638TIP3   OH253404   1.943   6.774  11.635  0.2307  0.1903  0.7184
10638TIP3    H153405   1.911   6.809  11.552  1.1720  2.6786  1.3409
10638TIP3    H253406   1.899   6.826  11.702  0.5143 -0.8832  1.7748
10639TIP3   OH253407   6.460   3.169  11.630 -0.0700 -0.2548  0.6247
10639TIP3    H153408   6.433   3.134  11.545  1.4903 -1.0264  0.4023
10639TIP3    H253409   6.436   3.262  11.626  0.0266 -0.2621 -0.6989
10640TIP3   OH253410   3.769   2.620   3.427 -0.3611 -0.2918 -0.0744
10640TIP3    H153411   3.744   2.528   3.423 -1.2597 -0.0276 -0.9405
10640TIP3    H253412   3.693   2.667   3.392 -0.3071  0.8563  1.2415
10641TIP3   OH253413   4.729   6.311   5.982 -0.3670  0.2319  0.0146
10641TIP3    H153414   4.694   6.250   6.046  0.9271 -0.5765  0.0001
10641TIP3    H253415   4.822   6.288   5.977  0.0780  1.9720 -0.2544
10642TIP3   OH253416   2.676   3.416   0.289  0.0866 -0.4015  0.2494
10642TIP3    H153417   2.719   3.483   0.236 -0.7993 -0.6592 -0.8411
10642TIP3    H253418   2.681   3.449   0.379 -1.0180  1.5497 -0.3383
10643TIP3   OH253419   3.115   2.577   0.689 -0.2702 -0.0113 -0.0807
10643TIP3    H153420   3.106   2.577   0.784 -1.9140  3.1518 -0.0969
10643TIP3    H253421   3.208   2.594   0.673  0.1124 -1.0443  0.8946
10644TIP3   OH253422   5.412   0.850  12.835 -0.0749 -0.0645  0.1887
10644TIP3    H153423   5.479   0.785  12.812  0.2485 -0.3659  1.8701
10644TIP3    H253424   5.339   0.830  12.776  0.3247 -1.4497  0.1131
10645TIP3   OH253425   3.749   4.166  15.257  0.1160 -0.2542  0.4599
10645TIP3    H153426   3.750   4.158  15.162  0.0132 -0.5457  0.4808
10645TIP3    H253427   3.786   4.252  15.275  0.4849 -0.3496  0.1743
10646TIP3   OH253428   3.666   6.550   3.294 -0.4220 -0.1116  0.4028
10646TIP3    H153429   3.683   6.625   3.351  1.9222 -0.0359 -0.2851
10646TIP3    H253430   3.700   6.475   3.343  1.1675 -0.1083 -0.6513
10647TIP3   OH253431   2.888   0.147   1.423  0.5421 -0.2504 -0.4771
10647TIP3    H153432   2.844   0.181   1.500  0.0099 -0.4831 -0.6743
10647TIP3    H253433   2.895   0.052   1.438 -0.6176 -0.4721 -1.2200
10648TIP3   OH253434   5.470   1.113  14.750 -0.2559  0.1247 -0.1502
10648TIP3    H153435   5.450   1.163  14.830  0.0730  2.2817 -1.3482
10648TIP3    H253436   5.433   1.026  14.766  1.1102 -0.0192  2.9545
10649TIP3   OH253437   5.193   5.958   5.282 -0.0290 -0.3608  0.0564
10649TIP3    H153438   5.224   5.881   5.330  1.9111 -1.0374 -2.0522
10649TIP3    H253439   5.154   6.015   5.348  1.0177 -1.9156  2.1139
10650TIP3   OH253440   6.761   6.330   4.340  0.0520  0.9292 -0.5718
10650TIP3    H153441   6.690   6.323   4.277  0.0828  0.9355 -0.6077
10650TIP3    H253442   6.830   6.378   4.293  0.7053 -0.4676 -1.1000
10651TIP3   OH253443   6.435   1.853   2.531  0.2595 -0.3764  0.7038
10651TIP3    H153444   6.397   1.779   2.579  2.3206 -0.9391  1.5605
10651TIP3    H253445   6.398   1.930   2.573  0.2581 -0.8987  1.6889
10652TIP3   OH253446   0.319   3.568  14.352  0.1446  0.1736 -0.0828
10652TIP3    H153447   0.322   3.590  14.258  2.8973  1.0343  0.1411
10652TIP3    H253448   0.405   3.591  14.385 -0.1483 -1.8116  2.3372
10653TIP3   OH253449   1.659   4.654   4.638 -0.7227  0.5236 -0.2759
10653TIP3    H153450   1.590   4.706   4.680 -1.4439 -0.4192 -0.2642
10653TIP3    H253451   1.621   4.628   4.554 -0.4869 -0.2500 -0.1476
10654TIP3   OH253452   6.358   0.256  12.614 -0.4350  0.4822  0.1614
10654TIP3    H153453   6.446   0.289  12.593 -0.6583  1.2254  0.3680
10654TIP3    H253454   6.372   0.204  12.693 -0.0213 -0.2223 -0.3632
10655TIP3   OH253455   5.685   4.193  12.121 -0.3842 -0.5624 -0.0815
10655TIP3    H153456   5.723   4.108  12.098  0.6658 -0.1614  0.0837
10655TIP3    H253457   5.629   4.215  12.047 -1.0849 -1.6316  0.1133
10656TIP3   OH253458   0.766   3.671   0.940 -0.1258  0.3737 -0.2704
10656TIP3    H153459   0.708   3.660   0.865 -0.2705 -1.1514  0.0351
10656TIP3    H253460   0.854   3.662   0.902 -0.2160 -1.2449 -0.1709
10657TIP3   OH253461   1.156   2.305   3.141  0.2568  0.0830 -0.0966
10657TIP3    H153462   1.242   2.346   3.128  0.8804 -0.2881  2.2479
10657TIP3    H253463   1.162   2.222   3.095  1.8756 -0.7166  1.4226
10658TIP3   OH253464   0.178   5.186  14.174  0.1767  0.4003  0.2281
10658TIP3    H153465   0.175   5.095  14.201  1.0743  0.1834 -0.3594
10658TIP3    H253466   0.087   5.208  14.153  0.1385 -0.7942 -0.9975
10659TIP3   OH253467   6.297   4.948   4.157  1.3772  0.1006  0.6301
10659TIP3    H153468   6.211   4.974   4.191  1.8080  1.3382  0.8144
10659TIP3    H253469   6.355   5.021   4.179  2.3291 -0.4025 -0.1289
10660TIP3   OH253470   0.878   6.705   3.143  0.6849 -0.3389  0.2192
10660TIP3    H153471   0.914   6.771   3.202 -0.1145 -1.5837  2.2100
10660TIP3    H253472   0.797   6.677   3.185  0.0460 -1.2608 -1.5234
10661TIP3   OH253473   0.793   3.410  13.608 -0.2434  0.2815 -0.8478
10661TIP3    H153474   0.827   3.366  13.530  0.0555  0.6428 -0.9236
10661TIP3    H253475   0.866   3.463  13.640 -0.2804 -0.0707 -0.1620
10662TIP3   OH253476   5.124   5.664  13.180  0.1448 -0.8911  0.0013
10662TIP3    H153477   5.152   5.611  13.255  0.6914  0.2743  0.6465
10662TIP3    H253478   5.171   5.627  13.106  0.3091 -1.4909  0.3990
10663TIP3   OH253479   1.723   5.041  13.519 -0.1365 -0.4672 -0.6733
10663TIP3    H153480   1.729   4.979  13.447  0.0859 -0.7853 -0.3823
10663TIP3    H253481   1.640   5.021  13.562  0.5764 -1.4997  0.2683
10664TIP3   OH253482   4.826   4.425  15.902 -0.3902  0.0061  0.4505
10664TIP3    H153483   4.820   4.394  15.812 -1.0941  0.6195  0.2711
10664TIP3    H253484   4.918   4.444  15.916 -0.2391 -0.3529 -0.0493
10665TIP3   OH253485   6.268   6.375  13.803  0.1350  0.3054  0.0205
10665TIP3    H153486   6.180   6.406  13.827  0.2354  1.0865 -0.5942
10665TIP3    H253487   6.314   6.453  13.773  0.3830 -0.4484 -1.6479
10666TIP3   OH253488   2.641   5.796  11.941  0.2149  0.6327 -0.0896
10666TIP3    H153489   2.565   5.851  11.961  2.2706  3.0560  1.9225
10666TIP3    H253490   2.644   5.733  12.013 -0.4396 -0.1661 -0.7455
10667TIP3   OH253491   5.189   3.288  16.406  0.3123  0.2593  0.3553
10667TIP3    H153492   5.280   3.315  16.415  0.2444  0.7022 -0.2300
10667TIP3    H253493   5.149   3.306  16.491  0.1183  2.6171 -0.1668
10668TIP3   OH253494   5.284   5.360   2.249 -0.0718 -0.2371  0.3913
10668TIP3    H153495   5.352   5.316   2.197 -0.0069  1.7742 -1.3657
10668TIP3    H253496   5.299   5.331   2.338  1.4152 -1.9084 -0.3530
10669TIP3   OH253497   0.129   5.843   3.420  0.1327  0.3037  0.0561
10669TIP3    H153498   0.225   5.847   3.422  0.1688  0.0821 -0.8564
10669TIP3    H253499   0.105   5.820   3.509  0.8611  1.5618  0.6065
10670TIP3   OH253500   6.462   1.265   1.098 -0.3408 -0.2515 -0.0011
10670TIP3    H153501   6.496   1.185   1.140  0.1609 -0.7941 -1.3793
10670TIP3    H253502   6.407   1.305   1.165  1.5655 -0.3039  1.7088
10671TIP3   OH253503   4.508   2.083  15.707 -0.4598  0.3156 -0.0516
10671TIP3    H153504   4.515   2.085  15.802  1.1099 -1.5969 -0.0584
10671TIP3    H253505   4.597   2.064  15.677 -0.9292  0.8329 -1.9062
10672TIP3   OH253506   0.676   4.033   1.342  0.1174  0.1700 -0.0093
10672TIP3    H153507   0.595   3.988   1.319 -1.9849  2.1691  2.7534
10672TIP3    H253508   0.728   4.033   1.261 -2.8920 -0.6433 -2.1106
10673TIP3   OH253509   4.125   0.521   6.519  0.4136 -0.1609 -0.3199
10673TIP3    H153510   4.053   0.482   6.467 -1.4233 -1.0337  2.6263
10673TIP3    H253511   4.169   0.445   6.558 -0.1116  0.5043  1.6486
10674TIP3   OH253512   5.958   5.013   2.851 -0.3128 -0.7818  0.5029
10674TIP3    H153513   6.012   4.966   2.787  0.4526  0.3525  0.2815
10674TIP3    H253514   5.869   5.004   2.818  0.0638 -0.2899 -0.7005
10675TIP3   OH253515   6.738   3.930  15.853  0.3124  0.1730  0.3231
10675TIP3    H153516   6.662   3.975  15.814  0.0195 -0.3079  0.3323
10675TIP3    H253517   6.814   3.971  15.811  0.0216  0.1035 -0.2844
10676TIP3   OH253518   1.241   2.071  16.986  0.0864  0.4250 -0.1303
10676TIP3    H153519   1.278   2.126  17.055  1.6665 -0.3389 -0.3228
10676TIP3    H253520   1.148   2.094  16.984 -0.3505 -0.5029  3.2304
10677TIP3   OH253521   1.952   2.741   4.456  0.3284  0.1738  0.1641
10677TIP3    H153522   1.919   2.818   4.502  0.9419  0.9411 -0.6352
10677TIP3    H253523   1.958   2.674   4.523  0.1267  0.9264  0.9605
10678TIP3   OH253524   1.335   1.738  16.623 -0.0777 -0.5277  0.3141
10678TIP3    H153525   1.420   1.699  16.646 -0.4521 -2.1510 -0.8209
10678TIP3    H253526   1.309   1.691  16.543 -2.0521 -0.0810  0.6502
10679TIP3   OH253527   6.797   3.990   6.293  0.3072 -0.0211  0.2828
10679TIP3    H153528   6.710   4.028   6.308  0.7043  0.8743  0.4173
10679TIP3    H253529   6.857   4.049   6.340  1.2513  0.8990 -1.9185
10680TIP3   OH253530   1.814   0.464   4.023  0.4488 -0.0622 -0.2844
10680TIP3    H153531   1.747   0.532   4.030  0.5719 -0.1308  2.7155
10680TIP3    H253532   1.861   0.468   4.105  2.0148 -2.2365 -0.9804
10681TIP3   OH253533   5.096   6.063   3.443 -0.5400 -0.0026 -0.2782
10681TIP3    H153534   5.166   6.087   3.382 -0.2244  2.0482  0.7796
10681TIP3    H253535   5.025   6.031   3.388  0.4356 -0.0362 -1.5620
10682TIP3   OH253536   2.036   4.703   5.873 -0.2886  0.0215  0.2390
10682TIP3    H153537   2.028   4.695   5.968  0.4961  0.9232  0.3967
10682TIP3    H253538   1.946   4.706   5.841 -0.5840 -1.7058  0.8100
10683TIP3   OH253539   0.857   4.924  14.802  0.7650  0.5053 -0.0893
10683TIP3    H153540   0.937   4.924  14.854  0.6417  3.8324  0.3709
10683TIP3    H253541   0.888   4.935  14.711  0.8562 -1.2742 -0.3055
10684TIP3   OH253542   1.805   2.046   5.221 -0.1391  0.1716 -0.4015
10684TIP3    H153543   1.810   1.968   5.275 -0.9654  0.4327  0.0541
10684TIP3    H253544   1.741   2.102   5.264  1.9085  2.0246  0.4608
10685TIP3   OH253545   3.548   5.551  15.180  0.2748  0.1266 -0.0362
10685TIP3    H153546   3.549   5.533  15.086  0.8845 -0.8546  0.1538
10685TIP3    H253547   3.511   5.472  15.219  0.5307  0.3145  0.5917
10686TIP3   OH253548   2.166   6.477   2.062  0.4131  0.3371  0.1350
10686TIP3    H153549   2.232   6.408   2.063  0.0668  0.0060  0.5000
10686TIP3    H253550   2.089   6.438   2.103 -0.3142  0.4185 -1.0922
10687TIP3   OH253551   2.243   3.569  15.712 -0.2132 -0.1240  0.0170
10687TIP3    H153552   2.179   3.638  15.692 -1.8709 -1.7466 -0.6245
10687TIP3    H253553   2.297   3.563  15.633 -0.0647  0.4389  0.0732
10688TIP3   OH253554   6.327   2.891  15.067 -0.5645  0.0534 -0.4948
10688TIP3    H153555   6.294   2.864  14.981 -1.8164  0.3090 -0.1089
10688TIP3    H253556   6.327   2.987  15.064  1.9486  0.1193 -1.1324
10689TIP3   OH253557   6.644   3.927  16.913  0.2922  0.1881 -1.0914
10689TIP3    H153558   6.644   3.895  16.823  1.0166  1.0014 -1.3938
10689TIP3    H253559   6.711   3.996  16.915  0.8283 -0.3237  0.2513
10690TIP3   OH253560   1.303   5.083  15.338  0.0537  0.7960  0.5583
10690TIP3    H153561   1.393   5.054  15.322 -0.5711 -0.6607 -0.5599
10690TIP3    H253562   1.297   5.090  15.433  0.4560 -2.3486  0.9413
10691TIP3   OH253563   3.696   0.011  14.861 -0.5259  0.3787  0.3263
10691TIP3    H153564   3.648   0.068  14.801  0.0579 -1.0759 -1.6084
10691TIP3    H253565   3.696  -0.074  14.818 -0.5699 -0.8812  2.7015
10692TIP3   OH253566   2.672   0.211   2.259  0.1744  0.2025  0.7827
10692TIP3    H153567   2.690   0.192   2.352 -0.4187  0.0510  0.8702
10692TIP3    H253568   2.634   0.298   2.259 -1.0664 -0.3171  0.8326
10693TIP3   OH253569   2.258   6.476   6.112  0.0736 -0.7455  0.0482
10693TIP3    H153570   2.251   6.567   6.141  0.3664 -0.3754 -1.0307
10693TIP3    H253571   2.243   6.425   6.192 -0.9637  0.2220  0.5005
10694TIP3   OH253572   6.744   0.150  17.209  0.0320  0.5045  0.5966
10694TIP3    H153573   6.799   0.131  17.285  0.5964 -1.5754 -0.2690
10694TIP3    H253574   6.670   0.199  17.246  0.2853 -0.4284  2.4978
10695TIP3   OH253575   1.275   2.798   4.844  0.0337 -0.2270 -0.0062
10695TIP3    H153576   1.320   2.746   4.911 -1.0034 -1.8693 -0.5112
10695TIP3    H253577   1.184   2.769   4.849 -0.6470  1.7456 -0.1814
10696TIP3   OH253578   3.512   3.234  14.973  0.2574 -0.0465 -0.4727
10696TIP3    H153579   3.444   3.297  14.948  0.9640  0.5658 -0.8653
10696TIP3    H253580   3.487   3.153  14.928  0.0557  0.3074 -1.0010
10697TIP3   OH253581   4.504   3.326   4.562  0.0956  0.1143  0.0698
10697TIP3    H153582   4.489   3.362   4.650  0.7813 -0.7513  0.5557
10697TIP3    H253583   4.533   3.401   4.510 -0.0586  0.5836  0.6530
10698TIP3   OH253584   2.385   3.802   4.276  0.0262 -0.4741  0.2821
10698TIP3    H153585   2.347   3.837   4.356  0.1156 -0.3598  0.2757
10698TIP3    H253586   2.375   3.872   4.212 -1.0607 -0.9728 -0.1175
10699TIP3   OH253587   3.126   4.484  11.355 -0.7566  0.4737 -0.2686
10699TIP3    H153588   3.195   4.547  11.377  0.7977 -1.3166  0.3223
10699TIP3    H253589   3.088   4.517  11.274 -0.1444  2.2428  0.1073
10700TIP3   OH253590   0.874   4.028  15.817 -0.6057  0.0377  0.0170
10700TIP3    H153591   0.931   3.975  15.761  1.0938  0.1398  1.5569
10700TIP3    H253592   0.912   4.116  15.813 -1.3168  0.3629  0.2386
10701TIP3   OH253593   0.619   4.858   4.333 -0.0700  0.4950  0.0902
10701TIP3    H153594   0.604   4.857   4.428 -1.4814  0.7322 -0.1054
10701TIP3    H253595   0.531   4.850   4.295  0.3398  1.6874 -1.1941
10702TIP3   OH253596   5.711   3.459  14.999 -0.5488 -0.6068  0.0257
10702TIP3    H153597   5.644   3.466  14.931 -0.6397 -1.5950  0.0010
10702TIP3    H253598   5.792   3.483  14.954 -0.6339 -1.0763 -0.3903
10703TIP3   OH253599   3.746   5.713   3.715  0.1600 -0.6882 -0.3459
10703TIP3    H153600   3.690   5.760   3.653  0.3057  0.3341  0.2681
10703TIP3    H253601   3.835   5.735   3.689  0.2790 -1.8541 -0.9705
10704TIP3   OH253602   5.378   0.732   3.428 -0.6131 -1.2534  0.1721
10704TIP3    H153603   5.455   0.738   3.484 -0.8284 -0.9227  0.4367
10704TIP3    H253604   5.413   0.715   3.340 -0.1855 -0.1711  0.1210
10705TIP3   OH253605   6.100   2.386   0.830 -0.6013  0.2475  0.1013
10705TIP3    H153606   6.181   2.339   0.852  0.8015  1.4775 -2.1420
10705TIP3    H253607   6.040   2.317   0.802  2.1048 -0.4200 -5.3280
10706TIP3   OH253608   4.952   5.305  15.581 -0.1507  0.0844 -0.1357
10706TIP3    H153609   5.043   5.313  15.554  0.3884 -0.6403  1.3509
10706TIP3    H253610   4.916   5.394  15.573  1.8098  1.2976  3.0045
10707TIP3   OH253611   4.916   5.296  13.936  0.7750 -0.6205  0.0442
10707TIP3    H153612   4.900   5.211  13.978  2.4959 -1.6533 -1.2636
10707TIP3    H253613   4.984   5.278  13.871  1.6582  1.9056  0.1812
10708TIP3   OH253614   0.843   4.550  15.547 -0.3072  0.4446 -0.3558
10708TIP3    H153615   0.759   4.506  15.550 -1.2680  2.2088  0.0367
10708TIP3    H253616   0.904   4.488  15.588 -1.1119 -1.3819 -1.8057
10709TIP3   OH253617   0.578   3.392   0.775  0.4515  0.4586 -0.1484
10709TIP3    H153618   0.594   3.484   0.757  1.6142  0.2915 -0.0556
10709TIP3    H253619   0.552   3.389   0.867 -1.1897  0.8487 -0.5745
10710TIP3   OH253620   2.144   1.530  10.786  0.0777 -0.2750  0.3016
10710TIP3    H153621   2.099   1.609  10.756  2.8816  1.0386 -0.8163
10710TIP3    H253622   2.134   1.531  10.881 -0.3800  1.1285  0.2628
10711TIP3   OH253623   5.714   0.638  13.479 -0.5348 -0.0684  0.7655
10711TIP3    H153624   5.793   0.591  13.451 -1.0553 -0.3744 -0.2525
10711TIP3    H253625   5.741   0.687  13.557  0.5882 -0.3738  0.5832
10712TIP3   OH253626   3.297   6.124   4.353  0.1564  0.0131  0.0890
10712TIP3    H153627   3.217   6.175   4.344  0.1005  0.2467  1.6564
10712TIP3    H253628   3.268   6.038   4.383  0.5121  0.2108  1.0104
10713TIP3   OH253629   6.712   3.700  13.485  0.2542 -0.0401 -0.0682
10713TIP3    H153630   6.727   3.794  13.489 -1.5449  0.2584  0.6318
10713TIP3    H253631   6.629   3.686  13.531 -1.3623 -1.4972 -3.0680
10714TIP3   OH253632   0.123   1.671  13.627  0.0802 -0.0535  0.0887
10714TIP3    H153633   0.181   1.747  13.621  0.6656 -0.3911  1.2118
10714TIP3    H253634   0.079   1.668  13.542  1.2957  0.5479 -0.5971
10715TIP3   OH253635   4.242   4.907  10.436 -0.0632  0.1170  0.2251
10715TIP3    H153636   4.260   4.815  10.419  1.5023  0.1978  1.3152
10715TIP3    H253637   4.275   4.953  10.359  0.2406 -0.1332  0.2054
10716TIP3   OH253638   1.233   0.808  15.583 -0.3101 -0.2442  0.5090
10716TIP3    H153639   1.172   0.883  15.584 -0.3224 -0.2555  0.6297
10716TIP3    H253640   1.188   0.742  15.531 -0.4702 -0.3080  0.7260
10717TIP3   OH253641   0.698   3.460   0.393 -0.2351  0.2499 -0.0931
10717TIP3    H153642   0.707   3.464   0.298  1.4907  0.7283  0.0495
10717TIP3    H253643   0.696   3.552   0.421 -0.0719  0.1189  0.3703
10718TIP3   OH253644   0.205   2.490  11.571 -0.1498 -0.3538  0.1663
10718TIP3    H153645   0.158   2.426  11.624  0.9926 -0.4087  1.1469
10718TIP3    H253646   0.178   2.471  11.481  0.4765 -2.5012  0.3876
10719TIP3   OH253647   0.645   2.002   3.015  0.6194  0.3441  0.1559
10719TIP3    H153648   0.702   2.078   3.003 -0.4250  1.0721 -0.4189
10719TIP3    H253649   0.642   1.960   2.929  0.7604 -0.0356  0.3348
10720TIP3   OH253650   2.164   4.087  13.395 -0.0775 -0.3666  0.8109
10720TIP3    H153651   2.134   3.997  13.403  0.1640 -0.3785  1.5583
10720TIP3    H253652   2.215   4.104  13.474  0.5061  0.1896  0.3258
10721TIP3   OH253653   4.333   2.524   5.551 -0.0630  0.7460  0.5686
10721TIP3    H153654   4.262   2.508   5.488  0.8495  0.4974 -0.4327
10721TIP3    H253655   4.371   2.437   5.566 -1.1196  0.5725  2.5619
10722TIP3   OH253656   0.552   0.362  14.829  0.1033  1.0763 -0.4635
10722TIP3    H153657   0.534   0.332  14.918 -0.2184  1.8519 -0.2608
10722TIP3    H253658   0.614   0.298  14.794  1.5787  1.6675  0.9100
10723TIP3   OH253659   0.799   6.397   4.738 -0.2009 -0.3654 -0.6252
10723TIP3    H153660   0.787   6.486   4.704 -0.6279 -0.2337 -0.1503
10723TIP3    H253661   0.805   6.409   4.833  1.3885 -0.6759 -0.6582
10724TIP3   OH253662   5.439   5.172  11.098 -0.1876  0.2635 -0.0971
10724TIP3    H153663   5.388   5.138  11.024 -0.0506  1.4653 -0.7807
10724TIP3    H253664   5.530   5.152  11.075 -0.1539  0.5395 -0.2126
10725TIP3   OH253665   1.978   1.078   5.295 -0.1859  0.7295  0.4922
10725TIP3    H153666   1.999   1.053   5.385 -0.6675 -1.4156  0.0573
10725TIP3    H253667   1.955   1.171   5.301  0.8784  0.9311  2.3722
10726TIP3   OH253668   5.954   5.556   1.140  0.2603 -0.2188  0.2746
10726TIP3    H153669   6.031   5.519   1.182  1.3932  1.0134 -0.6340
10726TIP3    H253670   5.952   5.647   1.169 -0.2489  0.0398 -0.5339
10727TIP3   OH253671   0.782   2.291  12.682 -0.3043  0.2398 -0.1471
10727TIP3    H153672   0.791   2.383  12.708  1.2895 -0.0178  0.2807
10727TIP3    H253673   0.692   2.285  12.648 -2.1833  0.8828  4.0759
10728TIP3   OH253674   1.815   1.789  15.475 -0.2844  0.5905  0.4007
10728TIP3    H153675   1.865   1.796  15.393  0.2768 -0.1533  0.6726
10728TIP3    H253676   1.768   1.873  15.481  0.1707  0.9123 -0.3513
10729TIP3   OH253677   4.933   5.804  11.827  0.2277 -0.6036 -0.5075
10729TIP3    H153678   4.926   5.828  11.734 -1.7087 -0.6314 -0.4032
10729TIP3    H253679   4.937   5.888  11.873  1.0856 -0.5894 -0.5890
10730TIP3   OH253680   5.716   1.813   1.676  0.6947 -0.2599 -0.0377
10730TIP3    H153681   5.681   1.765   1.751  0.7662  0.3412  0.3979
10730TIP3    H253682   5.652   1.882   1.659 -0.9580 -2.2735 -2.6082
10731TIP3   OH253683   5.538   4.543  12.490  0.3321  0.0992  0.4768
10731TIP3    H153684   5.448   4.544  12.523 -0.8858 -2.0044 -2.3390
10731TIP3    H253685   5.580   4.471  12.537  0.2044  0.3891  1.0373
10732TIP3   OH253686   3.681   3.310   4.285  0.2631 -0.4296  0.2740
10732TIP3    H153687   3.654   3.245   4.220  0.7156 -2.0623  1.6459
10732TIP3    H253688   3.670   3.394   4.241  0.8101 -1.4680 -1.9965
10733TIP3   OH253689   5.244   5.383   0.696  0.8071  0.5805 -0.6220
10733TIP3    H153690   5.330   5.382   0.739  0.1708 -1.7271  0.8143
10733TIP3    H253691   5.200   5.460   0.731  1.8491  1.0930 -0.4156
10734TIP3   OH253692   0.139   4.802   3.747  0.2915  0.5008 -0.7377
10734TIP3    H153693   0.061   4.857   3.745  0.2132  0.4036 -3.3498
10734TIP3    H253694   0.151   4.773   3.657  2.8658 -0.2004 -0.2637
10735TIP3   OH253695   2.178   0.933   2.156 -0.5088  0.4504 -0.2597
10735TIP3    H153696   2.260   0.888   2.175 -0.8907 -0.1981 -0.1153
10735TIP3    H253697   2.112   0.887   2.208 -0.7345  1.9175  0.8097
10736TIP3   OH253698   3.115   0.795  15.952  0.1433  0.3141 -0.2249
10736TIP3    H153699   3.145   0.704  15.960  0.7285  0.4609 -0.6270
10736TIP3    H253700   3.186   0.839  15.905  0.1830  1.1503  0.6039
10737TIP3   OH253701   3.979   1.315  16.019 -0.5502  0.5561  0.4049
10737TIP3    H153702   3.973   1.373  15.943 -0.5423 -0.4191 -0.3586
10737TIP3    H253703   4.048   1.354  16.073  0.6424  0.3403 -0.9089
10738TIP3   OH253704   1.665   4.207   4.909 -0.1958 -0.4643 -0.6951
10738TIP3    H153705   1.721   4.172   4.839  1.0815 -0.1858  0.1622
10738TIP3    H253706   1.617   4.278   4.867  0.3989 -0.4326 -1.3579
10739TIP3   OH253707   3.940   6.754  15.661 -0.0344 -0.3641 -0.8611
10739TIP3    H153708   3.959   6.696  15.587 -0.4854  1.1696 -2.2538
10739TIP3    H253709   3.849   6.736  15.682 -0.3135  0.1328 -1.5969
10740TIP3   OH253710   3.481   4.865   6.547 -0.1803  0.2304  0.4312
10740TIP3    H153711   3.449   4.951   6.522 -0.5428 -0.0158  0.0275
10740TIP3    H253712   3.572   4.880   6.573 -0.1832  0.7049  0.1841
10741TIP3   OH253713   6.814   1.812  12.283 -0.0328  0.7281 -0.5722
10741TIP3    H153714   6.821   1.905  12.265  0.3830  0.6777 -0.6759
10741TIP3    H253715   6.722   1.792  12.269 -0.3472  1.3356  0.4803
10742TIP3   OH253716   0.397   6.018  15.495  0.3441 -0.4150  0.2237
10742TIP3    H153717   0.404   5.992  15.403  3.3710 -0.2848  0.3132
10742TIP3    H253718   0.360   5.940  15.539 -1.0924 -0.4891 -1.0262
10743TIP3   OH253719   1.076   6.636  12.919 -0.0683 -0.4492  0.3321
10743TIP3    H153720   1.129   6.581  12.861  0.1361 -1.5133  1.4772
10743TIP3    H253721   1.085   6.595  13.005 -1.7754  0.0593  0.7925
10744TIP3   OH253722   5.712   1.713   0.200  0.2580 -0.5592 -0.0089
10744TIP3    H153723   5.691   1.721   0.293  0.6418 -0.2181  0.0532
10744TIP3    H253724   5.786   1.653   0.197  1.4120  0.8148  0.0747
10745TIP3   OH253725   6.385   3.593  13.465  0.1422  0.2709 -0.7322
10745TIP3    H153726   6.417   3.631  13.383  2.7919 -0.7685 -0.2929
10745TIP3    H253727   6.324   3.524  13.438 -0.1906  0.9472 -1.7403
10746TIP3   OH253728   1.550   1.701  16.034  0.1124  0.4182 -0.0541
10746TIP3    H153729   1.465   1.726  16.070  1.0188  1.3568  1.5746
10746TIP3    H253730   1.569   1.616  16.074 -0.2570 -0.0268 -0.8036
10747TIP3   OH253731   0.530   2.498   5.944 -0.6897  0.2208  0.0791
10747TIP3    H153732   0.494   2.570   5.996  1.7456  2.0205 -0.5468
10747TIP3    H253733   0.567   2.541   5.867  0.5126 -1.7609 -0.5136
10748TIP3   OH253734   1.100   5.386  10.723 -0.2007  0.5361 -0.3504
10748TIP3    H153735   1.008   5.383  10.698  0.0169 -1.6346 -1.1488
10748TIP3    H253736   1.118   5.298  10.757  1.3990  1.1513  0.5130
10749TIP3   OH253737   5.802   2.134  14.802  0.7106 -0.6974 -0.3663
10749TIP3    H153738   5.718   2.106  14.766  0.3254 -0.7585  0.5676
10749TIP3    H253739   5.827   2.064  14.862  0.9423 -0.1963  0.1238
10750TIP3   OH253740   2.378   4.210   5.084  0.0677  0.4257 -0.3348
10750TIP3    H153741   2.377   4.268   5.009  0.8218  0.8383 -0.0355
10750TIP3    H253742   2.313   4.143   5.064  0.9666 -0.0439 -1.8038
10751TIP3   OH253743   3.420   1.708  16.762  0.6634  0.4567  0.1938
10751TIP3    H153744   3.418   1.776  16.830  1.7952  0.9106 -0.2162
10751TIP3    H253745   3.375   1.747  16.687 -1.6842 -0.4722  1.0088
10752TIP3   OH253746   3.096   4.851  14.580  0.6351  0.7635 -0.6533
10752TIP3    H153747   3.084   4.848  14.675 -0.0733 -0.7072 -0.7600
10752TIP3    H253748   3.191   4.860  14.568  0.9510 -0.9484  0.2159
10753TIP3   OH253749   0.294   5.640  12.726  0.2750 -0.3259  0.4077
10753TIP3    H153750   0.204   5.634  12.695  0.7977  1.9504 -1.9260
10753TIP3    H253751   0.290   5.706  12.795  0.1308 -0.3296  0.4032
10754TIP3   OH253752   0.992   0.517   3.918 -0.1129 -0.4986  0.0170
10754TIP3    H153753   1.062   0.531   3.982  0.3996  0.2125 -0.6868
10754TIP3    H253754   0.972   0.424   3.925  0.3193 -0.5388  0.8255
10755TIP3   OH253755   3.861   4.782  12.289 -0.0994  0.2200 -0.8532
10755TIP3    H153756   3.904   4.866  12.273 -0.4723  0.3650 -1.1197
10755TIP3    H253757   3.892   4.755  12.375 -0.5702  1.0057 -0.4222
10756TIP3   OH253758   6.248   4.382  12.262 -0.0562  0.2095  0.1720
10756TIP3    H153759   6.155   4.362  12.250 -0.3682  0.6833  1.5918
10756TIP3    H253760   6.270   4.344  12.347  0.7551  1.0694  0.3619
10757TIP3   OH253761   5.139   0.924   0.271 -0.2107  0.1461 -0.0330
10757TIP3    H153762   5.082   0.849   0.285 -0.3403  0.1637 -0.4771
10757TIP3    H253763   5.100   0.971   0.197 -1.2041  1.6648  1.3741
10758TIP3   OH253764   4.163   2.489   4.660 -0.0918 -0.1467  0.0023
10758TIP3    H153765   4.076   2.457   4.635  0.6118 -1.8449 -0.4409
10758TIP3    H253766   4.205   2.413   4.700  1.0499  0.7742  0.5944
10759TIP3   OH253767   1.061   5.769  11.766  0.3217 -0.7148  0.3939
10759TIP3    H153768   1.115   5.693  11.742 -1.0428 -1.0028 -2.0844
10759TIP3    H253769   1.123   5.842  11.771  1.3125 -1.5389  0.3834
10760TIP3   OH253770   0.076   4.891   5.528 -0.1083  0.1830  0.2411
10760TIP3    H153771   0.097   4.802   5.498 -1.0189  0.2498 -0.6666
10760TIP3    H253772   0.070   4.942   5.447 -0.8781  0.7791  0.6630
10761TIP3   OH253773   2.557   3.673  13.676  0.3377 -0.4451 -0.3072
10761TIP3    H153774   2.562   3.766  13.654  2.0712 -0.4054  0.0861
10761TIP3    H253775   2.502   3.670  13.754 -0.5323  0.1293 -0.8795
10762TIP3   OH253776   3.164   2.986   4.488  0.7112  0.4088  0.2420
10762TIP3    H153777   3.110   2.909   4.468 -0.7076  0.9752  1.7141
10762TIP3    H253778   3.225   2.956   4.555 -0.3163  0.6942  1.3471
10763TIP3   OH253779   4.262   5.341   1.794 -0.2669 -0.5932 -0.4267
10763TIP3    H153780   4.247   5.274   1.861 -0.1896 -0.1006  0.0895
10763TIP3    H253781   4.351   5.324   1.764 -0.7843 -1.6906 -1.4144
10764TIP3   OH253782   1.971   2.847   5.116 -0.1398  0.8633  0.4658
10764TIP3    H153783   1.943   2.880   5.201 -1.1126 -0.8461  0.8710
10764TIP3    H253784   2.026   2.771   5.136  0.9416  1.3792 -0.4243
10765TIP3   OH253785   6.707   2.609  15.845  0.0528  0.0421  0.0686
10765TIP3    H153786   6.643   2.665  15.801  2.2513  0.3306 -3.0106
10765TIP3    H253787   6.742   2.664  15.916 -1.0122  0.8959 -0.0437
10766TIP3   OH253788   2.165   5.769   4.607  0.3396  0.1721  0.1111
10766TIP3    H153789   2.248   5.721   4.601  0.7723  1.0580 -2.2448
10766TIP3    H253790   2.098   5.703   4.594  0.7590 -0.3120  0.3672
10767TIP3   OH253791   0.989   4.939   3.682  0.2163  0.2863 -0.6335
10767TIP3    H153792   1.010   4.917   3.772 -0.3743  0.7423 -0.3803
10767TIP3    H253793   0.965   4.855   3.642  1.0396 -0.0081 -0.5341
10768TIP3   OH253794   3.960   1.437  11.331  0.2348  0.0096 -0.2262
10768TIP3    H153795   3.904   1.478  11.266 -0.2360 -1.2122 -0.6273
10768TIP3    H253796   3.899   1.390  11.388  0.4147  2.6819  2.4143
10769TIP3   OH253797   0.866   0.140  16.158  0.2689 -0.2704 -0.1123
10769TIP3    H153798   0.923   0.121  16.232 -2.3108  1.0533  2.4066
10769TIP3    H253799   0.857   0.057  16.112  3.1469 -0.7751  0.0906
10770TIP3   OH253800   4.679   2.009  11.812 -0.2880 -0.6379  0.2193
10770TIP3    H153801   4.684   2.103  11.826 -0.8381 -0.3099 -1.5686
10770TIP3    H253802   4.593   1.984  11.846  1.0912 -1.1504  3.7510
10771TIP3   OH253803   0.287   4.939  13.476  0.0510  0.0304  0.0306
10771TIP3    H153804   0.252   4.852  13.460 -1.4943  0.6286 -0.0620
10771TIP3    H253805   0.354   4.951  13.409 -0.2690 -0.7879 -0.4454
10772TIP3   OH253806   5.604   0.382  15.415  0.0565 -0.3457  0.3534
10772TIP3    H153807   5.662   0.355  15.344 -2.3223 -1.5051 -1.2975
10772TIP3    H253808   5.595   0.304  15.470  0.8571  0.1498  1.2008
10773TIP3   OH253809   4.728   2.666  11.826 -0.1063  0.3147 -0.3413
10773TIP3    H153810   4.673   2.735  11.790 -1.3296  0.0625  0.9536
10773TIP3    H253811   4.702   2.660  11.918  1.7877 -0.1370  0.2087
10774TIP3   OH253812   2.935   6.096  12.962 -0.4554  0.4054  0.5665
10774TIP3    H153813   3.025   6.124  12.945 -0.5341 -0.7283 -2.1226
10774TIP3    H253814   2.944   6.021  13.021  0.3909  0.0657  0.0193
10775TIP3   OH253815   5.158   1.558   2.915  0.1903 -0.6025  0.1160
10775TIP3    H153816   5.207   1.577   2.995  1.3464 -0.4923 -0.5989
10775TIP3    H253817   5.187   1.470   2.891 -0.7448 -0.9507  0.2328
10776TIP3   OH253818   5.912   4.612   0.513 -0.2257 -0.3531  0.2438
10776TIP3    H153819   5.957   4.581   0.592  2.4994 -0.3080 -1.2096
10776TIP3    H253820   5.895   4.704   0.530  1.5807  0.0044  0.2955
10777TIP3   OH253821   0.408   3.558  11.186 -0.4910  0.6612  0.1474
10777TIP3    H153822   0.328   3.601  11.218 -1.5019 -0.5942 -0.5789
10777TIP3    H253823   0.450   3.624  11.131 -1.6675  0.9806 -0.4195
10778TIP3   OH253824   3.496   0.852   3.363  0.3315  0.0020 -0.6582
10778TIP3    H153825   3.484   0.924   3.424  0.0844 -0.9033  0.3762
10778TIP3    H253826   3.428   0.865   3.297 -1.2275 -0.5447  0.7660
10779TIP3   OH253827   0.521   1.866  13.658 -0.5135  0.2035  0.3360
10779TIP3    H153828   0.555   1.886  13.570 -0.5246  1.7713  0.6492
10779TIP3    H253829   0.433   1.903  13.658 -1.9631 -2.9746 -0.1392
10780TIP3   OH253830   1.850   0.694   6.033  0.2007  0.0938  0.2946
10780TIP3    H153831   1.756   0.710   6.038 -0.1805 -1.1464 -1.6026
10780TIP3    H253832   1.858   0.618   5.975  2.4495  1.8089 -1.9096
10781TIP3   OH253833   2.853   0.537   0.194 -0.2498  0.6118  0.3521
10781TIP3    H153834   2.879   0.542   0.286 -1.6787  1.0021  0.7588
10781TIP3    H253835   2.759   0.521   0.197 -0.0543 -1.0257 -1.0503
10782TIP3   OH253836   4.118   4.226  16.597  0.2452  0.1855  0.1086
10782TIP3    H153837   4.207   4.191  16.607 -0.4211 -2.6603 -2.6633
10782TIP3    H253838   4.064   4.173  16.656  0.0879  0.6300  0.3692
10783TIP3   OH253839   4.756   1.080  15.165 -0.0042  0.4555  0.3746
10783TIP3    H153840   4.721   0.992  15.154  1.1753  0.0459 -0.2293
10783TIP3    H253841   4.690   1.137  15.125 -0.6661 -0.1658  0.5710
10784TIP3   OH253842   0.212   5.155  12.161 -0.1310 -0.5156  0.0939
10784TIP3    H153843   0.204   5.130  12.253 -0.2048  0.7982  0.4736
10784TIP3    H253844   0.298   5.122  12.135  0.5701  0.4102  1.1061
10785TIP3   OH253845   2.975   0.423  14.506 -0.2313 -0.3578  1.0601
10785TIP3    H153846   2.980   0.358  14.576  2.1791 -2.3944 -0.8059
10785TIP3    H253847   3.005   0.377  14.428  0.4575  2.6761 -0.6508
10786TIP3   OH253848   3.104   6.134   5.248  0.2286 -0.6435  0.4373
10786TIP3    H153849   3.029   6.088   5.210  0.9912 -1.9898  0.4858
10786TIP3    H253850   3.071   6.221   5.268 -1.3490 -1.2223  0.5309
10787TIP3   OH253851   5.314   2.763  14.328  0.0781  0.3050 -0.4175
10787TIP3    H153852   5.357   2.684  14.360 -0.7032  0.2399  0.5203
10787TIP3    H253853   5.266   2.797  14.404  0.1577  1.5140 -0.8871
10788TIP3   OH253854   6.744   3.937   5.614  0.0620 -0.2503  0.2494
10788TIP3    H153855   6.784   3.950   5.700 -0.3930 -2.1354  0.7757
10788TIP3    H253856   6.798   3.990   5.555  0.8921  0.4079  1.5439
10789TIP3   OH253857   6.575   3.626  12.186 -0.5322  0.1580 -0.5020
10789TIP3    H153858   6.514   3.650  12.116 -0.4235  1.5368 -0.1396
10789TIP3    H253859   6.650   3.685  12.174 -0.3469  0.1507  0.5480
10790TIP3   OH253860   0.553   6.554  17.204 -0.2752  0.1051 -0.8024
10790TIP3    H153861   0.644   6.532  17.185  0.1511  0.5739  0.5436
10790TIP3    H253862   0.507   6.541  17.121  0.9359 -0.5312 -1.4011
10791TIP3   OH253863   4.395   1.104  15.774  0.3087  0.4150  0.1122
10791TIP3    H153864   4.360   1.192  15.791 -0.9416 -0.0580  0.0479
10791TIP3    H253865   4.404   1.100  15.679  0.8848  0.6484  0.1478
10792TIP3   OH253866   1.660   5.153   4.761 -0.5079  0.5130 -0.2048
10792TIP3    H153867   1.594   5.095   4.722 -0.9640  1.2513 -0.5598
10792TIP3    H253868   1.740   5.136   4.712 -0.6024  0.0733 -0.2041
10793TIP3   OH253869   6.562   0.461  16.963 -0.6629 -0.3553 -0.5019
10793TIP3    H153870   6.481   0.482  16.917  0.0702 -2.6733 -3.0760
10793TIP3    H253871   6.585   0.542  17.009 -3.4240  0.9335 -1.1937
10794TIP3   OH253872   5.190   2.633   1.748  0.0827  0.4912  0.4634
10794TIP3    H153873   5.101   2.635   1.783  0.1554  2.3844  0.6492
10794TIP3    H253874   5.223   2.546   1.773 -1.7075 -0.2770  0.3276
10795TIP3   OH253875   2.183   2.726  12.704 -0.5729 -0.1095  0.5034
10795TIP3    H153876   2.211   2.788  12.771 -0.9135  1.1055 -0.4403
10795TIP3    H253877   2.158   2.781  12.630 -0.0226 -1.4053 -0.6963
10796TIP3   OH253878   2.875   1.760  16.726 -0.1951 -0.6056 -0.2063
10796TIP3    H153879   2.799   1.817  16.738  0.3770  0.2404 -0.5125
10796TIP3    H253880   2.949   1.812  16.758  0.6208 -0.3976 -2.3020
10797TIP3   OH253881   0.424   3.418   2.409 -0.1686 -0.6408  0.5154
10797TIP3    H153882   0.451   3.327   2.404 -2.2134 -1.2495 -0.7635
10797TIP3    H253883   0.441   3.444   2.500  0.5204 -2.2631  0.8723
10798TIP3   OH253884   3.662   4.366   4.331 -0.3043 -0.9394 -0.6346
10798TIP3    H153885   3.701   4.281   4.349 -1.0349 -1.3116 -0.7443
10798TIP3    H253886   3.707   4.426   4.390  0.2399 -1.3963 -0.5740
10799TIP3   OH253887   4.902   0.747   1.094 -0.0240  0.0649 -0.0398
10799TIP3    H153888   4.993   0.766   1.119 -0.0204  0.5575 -0.4215
10799TIP3    H253889   4.852   0.761   1.174 -0.0211  1.7000 -0.3088
10800TIP3   OH253890   5.995   5.153   5.918 -0.0083 -0.4245  0.0434
10800TIP3    H153891   5.982   5.243   5.948 -0.3089 -0.2485 -0.5918
10800TIP3    H253892   5.952   5.150   5.832  1.3460 -0.7372 -0.6583
10801TIP3   OH253893   1.141   2.910   2.373 -0.1944 -0.3479 -0.1215
10801TIP3    H153894   1.051   2.900   2.342  0.1127 -0.5885 -0.9622
10801TIP3    H253895   1.163   3.001   2.354 -0.1114 -0.4083 -0.3101
10802TIP3   OH253896   0.823   3.087  11.481  0.4373 -0.2657  0.1189
10802TIP3    H153897   0.747   3.106  11.426  0.6961  0.5549  0.0374
10802TIP3    H253898   0.850   3.172  11.516 -0.4830 -0.9168  2.5574
10803TIP3   OH253899   3.687   4.595   2.705  0.1727  0.1574 -0.1983
10803TIP3    H153900   3.717   4.573   2.793 -3.0508  0.3683  1.0515
10803TIP3    H253901   3.731   4.677   2.685  1.2318 -0.0714  1.0315
10804TIP3   OH253902   2.799   6.449  15.689  0.6165 -0.4403  0.2217
10804TIP3    H153903   2.754   6.495  15.760 -1.2536  0.1274 -1.2641
10804TIP3    H253904   2.805   6.512  15.618 -0.3518 -1.8789 -1.2167
10805TIP3   OH253905   6.646   0.035  10.753 -0.4128  0.4373 -0.3970
10805TIP3    H153906   6.688  -0.008  10.678 -1.2900 -2.5302  0.6765
10805TIP3    H253907   6.584   0.096  10.714 -1.0460 -1.2121 -2.1541
10806TIP3   OH253908   0.360   4.882  17.059 -0.1356 -0.0239 -0.1935
10806TIP3    H153909   0.292   4.821  17.029 -0.2019 -1.1473  2.0676
10806TIP3    H253910   0.311   4.953  17.100  0.0261 -0.3070  0.4916
10807TIP3   OH253911   1.550   6.011   5.507  0.1836 -0.2423 -0.5410
10807TIP3    H153912   1.556   6.004   5.602 -0.5694  2.2998 -0.2092
10807TIP3    H253913   1.615   5.950   5.473 -1.6239 -3.5782  1.4453
10808TIP3   OH253914   1.832   1.367  14.673 -0.1630 -0.6408 -0.1473
10808TIP3    H153915   1.850   1.312  14.597  0.5147 -0.8281  0.1392
10808TIP3    H253916   1.803   1.451  14.636 -1.0630 -1.1357 -0.5884
10809TIP3   OH253917   2.173   2.287   0.274 -0.0224 -0.5476 -0.1414
10809TIP3    H153918   2.247   2.237   0.308  0.5170 -0.4937 -1.1885
10809TIP3    H253919   2.193   2.378   0.296 -0.0889 -0.5977  0.1264
10810TIP3   OH253920   6.519   4.409  14.387 -0.2007 -0.8627 -0.4189
10810TIP3    H153921   6.466   4.336  14.353 -1.9350 -1.6077  3.4331
10810TIP3    H253922   6.456   4.471  14.421  1.3758  0.5947 -0.0077
10811TIP3   OH253923   0.158   0.550   0.969 -0.3340  0.1147  0.2123
10811TIP3    H153924   0.229   0.609   0.995  0.9041 -0.8464 -0.8375
10811TIP3    H253925   0.166   0.475   1.028 -0.5537  0.0591  0.1732
10812TIP3   OH253926   0.146   3.242  15.435  0.2229 -0.2952 -0.4974
10812TIP3    H153927   0.152   3.216  15.527  0.1418 -0.2222 -0.4715
10812TIP3    H253928   0.237   3.246  15.405  0.2766  0.1149 -0.2959
10813TIP3   OH253929   4.914   6.676   1.919 -0.2696  0.4844  0.0213
10813TIP3    H153930   4.898   6.770   1.925  0.8624  0.6590  0.5383
10813TIP3    H253931   4.853   6.636   1.981 -1.7863  0.7346 -1.2527
10814TIP3   OH253932   1.390   5.034  15.723  0.0254 -0.2873 -0.1805
10814TIP3    H153933   1.473   5.015  15.679  0.7100  1.8470  0.0806
10814TIP3    H253934   1.334   4.960  15.700  1.3655 -0.8326 -1.9909
10815TIP3   OH253935   4.030   1.509  14.402 -0.0130 -0.5491 -0.0474
10815TIP3    H153936   4.036   1.427  14.352 -0.9666 -0.0559 -1.0070
10815TIP3    H253937   4.036   1.578  14.336  2.2497  0.2489  0.8703
10816TIP3   OH253938   0.909   3.687  14.812  0.2771 -0.3438  0.0835
10816TIP3    H153939   0.905   3.754  14.880  0.4487  0.1609 -0.3952
10816TIP3    H253940   0.834   3.630  14.830  0.7742 -0.6829  1.1662
10817TIP3   OH253941   4.245   4.323  16.057  0.4040 -0.1352 -0.0667
10817TIP3    H153942   4.188   4.284  16.123 -0.4703  2.3071  0.7500
10817TIP3    H253943   4.197   4.312  15.975 -0.9721  1.2018  0.5028
10818TIP3   OH253944   3.848   2.076  10.953  0.0296  0.1568 -0.8857
10818TIP3    H153945   3.782   2.089  10.885  0.6477  1.6389 -1.2341
10818TIP3    H253946   3.925   2.123  10.921  0.4932  0.4562  0.6020
10819TIP3   OH253947   5.367   3.632  13.478 -0.3850 -0.0241 -0.1291
10819TIP3    H153948   5.289   3.607  13.429  0.8965 -1.3294 -1.5920
10819TIP3    H253949   5.409   3.549  13.501  1.0082  0.6560 -0.1037
10820TIP3   OH253950   4.928   3.446   0.029  0.0096  0.1985  0.6303
10820TIP3    H153951   4.905   3.422  -0.060 -0.8966 -1.2331  1.2066
10820TIP3    H253952   4.867   3.517   0.051 -1.4015 -1.0157  0.8543
10821TIP3   OH253953   3.811   4.457  13.651 -0.7327 -0.8246 -0.0846
10821TIP3    H153954   3.842   4.514  13.580  0.8544  1.0694  1.9747
10821TIP3    H253955   3.716   4.467  13.650 -0.5608  1.1000 -0.4278
10822TIP3   OH253956   2.604   2.001  12.997 -0.0232  0.2283  0.4878
10822TIP3    H153957   2.665   2.019  13.069  0.8835  2.1716 -0.6710
10822TIP3    H253958   2.541   2.074  13.000 -0.0683  0.2522 -0.5616
10823TIP3   OH253959   1.722   2.442  11.281 -0.0669  0.0048 -0.1206
10823TIP3    H153960   1.660   2.378  11.244  0.7482 -0.9346  0.1011
10823TIP3    H253961   1.713   2.519  11.225 -2.4969  0.4609  0.7486
10824TIP3   OH253962   2.822   1.356   4.992  0.1848  0.6803  0.0447
10824TIP3    H153963   2.795   1.414   4.921  0.5688  0.7454 -0.0535
10824TIP3    H253964   2.864   1.282   4.948  0.6428  0.8387  0.2082
10825TIP3   OH253965   4.679   6.322   3.743  0.5429 -0.5299  0.3400
10825TIP3    H153966   4.714   6.380   3.811  0.9652 -1.0599  0.5811
10825TIP3    H253967   4.711   6.235   3.767 -0.9403 -1.0388  0.5639
10826TIP3   OH253968   1.413   1.217  14.884  0.1046  0.2099 -0.9029
10826TIP3    H153969   1.350   1.218  14.813 -2.0740  1.7939  0.8967
10826TIP3    H253970   1.462   1.299  14.874  0.0720  0.2387 -0.8315
10827TIP3   OH253971   2.945   5.355  10.330 -0.0034 -0.0372 -0.6613
10827TIP3    H153972   3.035   5.333  10.356  0.2196  1.6008  0.0858
10827TIP3    H253973   2.915   5.278  10.283  0.6712 -1.9810  1.8237
10828TIP3   OH253974   0.265   0.460  10.410 -1.0134  0.2496  0.0317
10828TIP3    H153975   0.346   0.422  10.443 -0.8755  1.1759  0.7908
10828TIP3    H253976   0.196   0.404  10.445 -0.6624 -2.0387 -2.6177
10829TIP3   OH253977   3.690   6.458  12.267  0.0187  0.8669  0.4129
10829TIP3    H153978   3.689   6.535  12.211 -0.0687  1.1063  0.7407
10829TIP3    H253979   3.609   6.463  12.317  0.7843  1.4809  1.6633
10830TIP3   OH253980   3.203   4.140   3.458  0.4490  0.0601  0.2693
10830TIP3    H153981   3.162   4.104   3.537 -0.4074  0.9526  0.2498
10830TIP3    H253982   3.150   4.105   3.386  1.0347 -0.4933  0.0964
10831TIP3   OH253983   1.780   5.006   6.656 -0.6616 -0.0497  0.6446
10831TIP3    H153984   1.798   5.074   6.722  0.0527 -1.4203  1.9253
10831TIP3    H253985   1.698   5.033   6.615 -0.4804  1.4915  1.2320
10832TIP3   OH253986   0.567   5.364  14.333  0.9020 -0.4666 -0.2866
10832TIP3    H153987   0.652   5.340  14.296  1.7965 -0.8204  1.8327
10832TIP3    H253988   0.587   5.425  14.404 -0.4785 -1.4279  1.0077
10833TIP3   OH253989   6.577   2.742  12.823 -0.2252 -0.1885  0.3973
10833TIP3    H153990   6.582   2.802  12.748 -1.0500  0.3385  0.7447
10833TIP3    H253991   6.483   2.726  12.835 -0.0437 -1.0903  0.6783
10834TIP3   OH253992   3.025   5.199   3.074  0.2989 -0.4509  0.0368
10834TIP3    H153993   3.070   5.245   3.003  0.8999  0.0807  0.7497
10834TIP3    H253994   3.061   5.236   3.154 -0.1910 -1.2163  0.6319
10835TIP3   OH253995   5.571   3.771   0.505 -0.0401  0.1012 -0.8574
10835TIP3    H153996   5.653   3.740   0.468  0.2169  0.5368 -0.6567
10835TIP3    H253997   5.565   3.862   0.476 -0.6983 -0.0724 -1.2934
10836TIP3   OH253998   3.311   0.720   1.393  0.3238  0.3321 -0.1416
10836TIP3    H153999   3.362   0.690   1.469 -2.3881 -1.7496  1.0254
10836TIP3    H254000   3.222   0.727   1.426 -0.6676  0.9336 -2.7855
10837TIP3   OH254001   5.006   6.539  12.081 -0.1312 -0.1125  0.5756
10837TIP3    H154002   5.055   6.540  12.162  1.0101 -0.5607 -0.0807
10837TIP3    H254003   4.974   6.628  12.070 -0.3480 -0.0631  1.5313
10838TIP3   OH254004   0.678   5.014   5.811  0.1143 -0.2709  0.4980
10838TIP3    H154005   0.711   5.035   5.898  0.7800 -0.7492  0.3690
10838TIP3    H254006   0.614   4.944   5.825 -0.8892  0.6868  0.7535
10839TIP3   OH254007   2.472   2.036   6.479 -0.4001  0.3431  0.0098
10839TIP3    H154008   2.463   2.130   6.464  0.4933  0.6697  1.2891
10839TIP3    H254009   2.567   2.020   6.475 -0.4812 -0.3405  0.5735
10840TIP3   OH254010   5.015   2.347   5.096  0.7739  0.0421 -0.3608
10840TIP3    H154011   5.019   2.435   5.134 -0.8073  1.0473 -2.3476
10840TIP3    H254012   5.106   2.317   5.094  1.1141  0.6706  2.3714
10841TIP3   OH254013   4.373   3.242   4.337 -0.1798 -0.2833  0.3422
10841TIP3    H154014   4.424   3.271   4.412 -0.0446  1.4383 -0.3584
10841TIP3    H254015   4.302   3.190   4.374 -0.7027  1.3812  1.7614
10842TIP3   OH254016   2.609   6.227   1.588  0.2006 -0.3629  0.1669
10842TIP3    H154017   2.695   6.185   1.587  0.2762 -0.2288 -1.3448
10842TIP3    H254018   2.620   6.302   1.647  1.2359 -0.1361 -0.2889
10843TIP3   OH254019   6.147   5.025   4.868  0.0250  0.6234  0.1153
10843TIP3    H154020   6.115   5.016   4.778  0.3740  1.8604 -0.1528
10843TIP3    H254021   6.119   4.944   4.912  0.1513 -0.1512 -1.1869
10844TIP3   OH254022   1.811   4.933  15.395 -0.4324  0.1236  0.2235
10844TIP3    H154023   1.866   4.859  15.418 -0.0421  0.6324  0.9647
10844TIP3    H254024   1.866   4.988  15.338 -0.7294 -0.1589 -0.3471
10845TIP3   OH254025   3.163   2.069   2.011  0.8590 -0.2091 -0.5585
10845TIP3    H154026   3.171   2.130   2.084 -2.1185 -0.8116  0.4137
10845TIP3    H254027   3.214   2.109   1.941  0.9169  2.2300  0.7493
10846TIP3   OH254028   1.932   0.687  12.665 -0.3108  0.6914  0.4408
10846TIP3    H154029   1.859   0.629  12.643  0.4925 -0.4127  0.6105
10846TIP3    H254030   1.971   0.649  12.744  0.3897  1.3225  0.4146
10847TIP3   OH254031   0.749   6.385  16.728  0.2080 -0.1130  0.3191
10847TIP3    H154032   0.740   6.480  16.735 -2.0726 -0.3397  1.3225
10847TIP3    H254033   0.734   6.366  16.635  0.2144  0.4560  0.2029
10848TIP3   OH254034   0.071   2.788   5.109 -0.0204  0.6156  0.3326
10848TIP3    H154035   0.025   2.840   5.044  1.1874  0.4209 -0.7131
10848TIP3    H254036   0.002   2.735   5.150 -0.8616  1.0616 -0.4719
10849TIP3   OH254037   3.748   4.152  17.075 -0.1585  0.2011 -0.4429
10849TIP3    H154038   3.753   4.243  17.106  0.9543 -0.1910  0.6183
10849TIP3    H254039   3.723   4.160  16.983  1.6338  1.6915 -0.8670
10850TIP3   OH254040   0.819   5.322   3.070 -0.0789 -0.0390  0.2176
10850TIP3    H154041   0.856   5.397   3.023 -0.7767 -0.8131 -1.6917
10850TIP3    H254042   0.736   5.354   3.105 -0.1428  0.2187 -0.1638
10851TIP3   OH254043   2.845   2.231   3.779  0.4457  0.3938  0.8322
10851TIP3    H154044   2.791   2.290   3.831  0.4480 -0.0165  1.3175
10851TIP3    H254045   2.846   2.149   3.829  3.6449  1.1209  2.2518
10852TIP3   OH254046   4.029   6.750  12.418 -0.0399  0.2181  0.8907
10852TIP3    H154047   4.077   6.747  12.501  1.3457 -0.5515  0.1211
10852TIP3    H254048   4.084   6.699  12.358 -1.1991  0.4321 -0.3968
10853TIP3   OH254049   5.830   2.695  11.623  0.4084 -0.0808 -0.1765
10853TIP3    H154050   5.903   2.659  11.673  1.1665  0.5646 -0.7850
10853TIP3    H254051   5.862   2.779  11.591  0.1052 -0.6433 -2.0728
10854TIP3   OH254052   5.324   0.813   0.704 -0.0424 -0.5645 -0.2380
10854TIP3    H154053   5.243   0.829   0.752 -1.5039 -0.6550 -2.5310
10854TIP3    H254054   5.339   0.719   0.712 -0.3467 -0.6026 -0.1033
10855TIP3   OH254055   0.922   0.475  11.779 -0.3804  0.1054  0.5248
10855TIP3    H154056   0.932   0.565  11.810  0.1534  0.3252 -0.2603
10855TIP3    H254057   0.964   0.474  11.693 -0.9715 -0.7266  0.2296
10856TIP3   OH254058   5.180   6.488   2.414  1.0094  0.3197  0.4342
10856TIP3    H154059   5.148   6.515   2.327  0.3378  0.8960  0.8470
10856TIP3    H254060   5.109   6.513   2.473  0.4862 -2.0746  0.9001
10857TIP3   OH254061   3.693   4.598   5.990  0.2732 -0.2798 -0.0522
10857TIP3    H154062   3.743   4.678   6.001 -0.0621 -0.2251  1.1759
10857TIP3    H254063   3.608   4.627   5.957 -0.0538 -0.0616  0.9579
10858TIP3   OH254064   0.123   0.184  11.460 -0.0128 -0.1338 -0.1367
10858TIP3    H154065   0.132   0.224  11.374 -0.6312 -0.7958 -0.5218
10858TIP3    H254066   0.030   0.195  11.481  0.4885  1.7881  1.3378
10859TIP3   OH254067   3.774   3.196   2.251  0.1746 -0.3774  0.3028
10859TIP3    H154068   3.762   3.128   2.317 -1.0286 -0.2869  0.2007
10859TIP3    H254069   3.857   3.174   2.208  0.7374 -0.6965  1.5158
10860TIP3   OH254070   6.553   3.905   5.230  0.3223 -0.4685 -0.2380
10860TIP3    H154071   6.633   3.853   5.243 -0.3458 -1.2153  1.1529
10860TIP3    H254072   6.555   3.969   5.300  0.1022  0.0496 -0.7038
10861TIP3   OH254073   6.516   0.486  16.627 -0.7048  0.2529  0.7466
10861TIP3    H154074   6.573   0.555  16.663 -1.0149  0.2280  1.2944
10861TIP3    H254075   6.566   0.405  16.639 -1.0174  0.1813  1.5910
10862TIP3   OH254076   0.040   4.859   2.354  0.1776 -0.4548  0.3274
10862TIP3    H154077  -0.001   4.936   2.314  0.4208 -0.2078  0.5468
10862TIP3    H254078   0.090   4.819   2.283 -0.3320 -0.6829  0.0919
10863TIP3   OH254079   3.103   6.629  11.552 -0.6495  0.1625 -0.2143
10863TIP3    H154080   3.053   6.708  11.532  1.4002  1.5579 -0.2160
10863TIP3    H254081   3.191   6.662  11.571 -0.5081 -1.7839  3.2373
10864TIP3   OH254082   5.927   6.285  12.341 -0.1896 -0.0995  0.3160
10864TIP3    H154083   5.887   6.324  12.419 -1.5200  1.3965 -1.0374
10864TIP3    H254084   5.924   6.355  12.275  2.5571 -0.7002 -0.5848
10865TIP3   OH254085   6.102   0.664   4.053  0.3581  0.2058 -0.7844
10865TIP3    H154086   6.183   0.667   4.104  1.1347  0.0404 -1.9836
10865TIP3    H254087   6.110   0.735   3.990 -1.1132  1.1540  0.0426
10866TIP3   OH254088   2.247   1.923   3.045 -0.3183  0.0413 -0.0395
10866TIP3    H154089   2.249   1.870   2.965  0.4660  0.4076 -0.2768
10866TIP3    H254090   2.167   1.975   3.037 -1.3790 -1.4473  0.4443
10867TIP3   OH254091   6.768   6.169   5.618  0.1723  0.3843  0.0425
10867TIP3    H154092   6.819   6.206   5.690 -0.5779  3.4770 -0.8627
10867TIP3    H254093   6.784   6.228   5.545 -3.3312  0.5142 -0.7631
10868TIP3   OH254094   5.139   0.127   1.562  0.1651  0.7358  0.3697
10868TIP3    H154095   5.057   0.131   1.513  0.9126  0.5093 -0.9306
10868TIP3    H254096   5.124   0.184   1.638 -1.8273 -0.7072  1.1585
10869TIP3   OH254097   5.752   4.785  11.705  0.6450 -0.0778  0.0156
10869TIP3    H154098   5.700   4.739  11.640 -0.2434 -0.7594  1.1640
10869TIP3    H254099   5.749   4.729  11.783  4.2250 -0.8642 -0.2187
10870TIP3   OH254100   2.866   4.046  12.615 -0.4142 -0.2342  0.4271
10870TIP3    H154101   2.948   4.082  12.649 -0.7892  0.4623  0.6100
10870TIP3    H254102   2.890   3.959  12.582  0.5685  0.2771 -0.2623
10871TIP3   OH254103   1.981   1.872   5.996 -0.6481  0.4291 -0.3840
10871TIP3    H154104   1.982   1.957   6.038 -1.9009 -0.8247  2.4146
10871TIP3    H254105   2.052   1.823   6.039 -0.3929 -0.1851 -1.4562
10872TIP3   OH254106   1.974   0.392  14.121  0.1618 -0.6005  0.6636
10872TIP3    H154107   1.888   0.419  14.089  0.8773  0.6157 -0.2731
10872TIP3    H254108   1.972   0.296  14.115 -0.7758 -0.5407 -0.2552
10873TIP3   OH254109   2.463   2.863  16.343  0.1926 -0.3979 -0.5223
10873TIP3    H154110   2.472   2.826  16.431  0.2540  0.0632 -0.3310
10873TIP3    H254111   2.403   2.936  16.353  0.7404  0.0943 -0.7242
10874TIP3   OH254112   4.578   0.003   1.043  0.1684 -0.0368  0.0842
10874TIP3    H154113   4.651   0.065   1.045 -0.1572  0.3374  1.6217
10874TIP3    H254114   4.523   0.032   0.971  2.1800 -1.1239 -2.0081
10875TIP3   OH254115   2.555   5.738   0.639 -0.3097 -0.3917 -0.1894
10875TIP3    H154116   2.636   5.762   0.594  0.2142 -1.9354 -0.1229
10875TIP3    H254117   2.529   5.655   0.599 -0.6423 -1.0436  1.3097
10876TIP3   OH254118   5.391   3.770   0.284 -0.0409  0.0731  0.3119
10876TIP3    H154119   5.447   3.782   0.360  0.3277  1.2440 -0.1156
10876TIP3    H254120   5.361   3.859   0.262 -2.2756 -0.5114  0.6755
10877TIP3   OH254121   4.588   5.053   5.824 -0.4394  0.2203 -0.2346
10877TIP3    H154122   4.541   5.039   5.742  0.5637 -0.5431 -0.7006
10877TIP3    H254123   4.519   5.057   5.891 -1.2303  0.2712 -1.0313
10878TIP3   OH254124   3.969   1.655  12.181  0.1209 -0.6715 -0.0531
10878TIP3    H154125   3.989   1.572  12.137  1.7854  0.0809 -0.7991
10878TIP3    H254126   4.051   1.681  12.223 -0.0523  1.0641 -0.6680
10879TIP3   OH254127   6.644   2.053  16.750 -0.2018 -0.0849  0.2419
10879TIP3    H154128   6.660   1.983  16.686  1.3923  0.9988 -0.5922
10879TIP3    H254129   6.557   2.033  16.786  0.5341 -2.9833  0.6818
10880TIP3   OH254130   2.829   2.313   4.677 -0.4347 -0.0930 -0.5735
10880TIP3    H154131   2.853   2.227   4.711 -0.5054  0.6218  1.4069
10880TIP3    H254132   2.742   2.330   4.713 -0.7199  0.5309 -1.5097
10881TIP3   OH254133   5.370   2.109  11.028  0.1314 -0.2276 -0.2718
10881TIP3    H154134   5.434   2.167  10.985  2.0128 -0.6043  1.8156
10881TIP3    H254135   5.346   2.046  10.960 -1.7755  2.6748 -2.5439
10882TIP3   OH254136   1.156   2.214   4.218  0.0148 -0.4705 -0.0249
10882TIP3    H154137   1.103   2.226   4.298  0.4560  1.8038 -0.0277
10882TIP3    H254138   1.243   2.244   4.243  0.3747 -0.5861 -1.1315
10883TIP3   OH254139   4.986   6.198  13.684 -0.0747 -1.1508  0.2638
10883TIP3    H154140   5.040   6.157  13.751  0.8464 -0.9832 -0.3483
10883TIP3    H254141   4.940   6.268  13.730  1.3816 -0.3258  0.5282
10884TIP3   OH254142   2.016   5.199   1.851 -0.7445  0.1960  0.1917
10884TIP3    H154143   2.112   5.200   1.847 -0.7791 -0.7078 -2.7018
10884TIP3    H254144   1.996   5.194   1.945  2.0357 -0.3542  0.8328
10885TIP3   OH254145   4.485   4.460  15.426 -0.5863  0.0926  0.2643
10885TIP3    H154146   4.541   4.496  15.357 -1.4257  2.2718  0.6289
10885TIP3    H254147   4.546   4.424  15.490  0.2318 -1.0294 -1.0854
10886TIP3   OH254148   3.050   2.613  16.492  0.4570  0.0233 -0.1494
10886TIP3    H154149   2.968   2.636  16.535  0.0617  0.9521 -1.3500
10886TIP3    H254150   3.028   2.539  16.436  0.4622  0.2033 -0.3899
10887TIP3   OH254151   5.006   5.829  16.776  0.2321  0.3299  0.0756
10887TIP3    H154152   4.919   5.791  16.788  0.5900 -0.5530 -0.0406
10887TIP3    H254153   5.011   5.848  16.683 -0.8619  3.0023  0.4731
10888TIP3   OH254154   5.580   1.202   0.499  0.0481  0.3684 -0.5323
10888TIP3    H154155   5.525   1.233   0.426  0.8864  1.9629 -0.5302
10888TIP3    H254156   5.643   1.143   0.458  0.1333  0.7825 -1.0132
10889TIP3   OH254157   2.336   6.613   2.272  0.4900 -0.0530  0.0935
10889TIP3    H154158   2.370   6.696   2.239 -0.3099  1.3793  2.5828
10889TIP3    H254159   2.281   6.580   2.201  0.0980  2.0192 -0.6433
10890TIP3   OH254160   0.635   1.329   2.623  0.1163  0.6884  0.5604
10890TIP3    H154161   0.663   1.378   2.545 -0.4920 -0.2718 -0.2813
10890TIP3    H254162   0.569   1.268   2.591  1.2122 -1.0573  1.4766
10891TIP3   OH254163   3.054   2.215   3.451 -0.7372 -0.3640  0.5479
10891TIP3    H154164   3.127   2.276   3.466  0.2549 -1.6277  1.0373
10891TIP3    H254165   3.063   2.189   3.359 -1.3485  0.4374  0.2497
10892TIP3   OH254166   1.724   4.145  17.199 -0.4213 -0.4237 -0.0813
10892TIP3    H154167   1.718   4.238  17.179  0.2008 -0.0174  1.5031
10892TIP3    H254168   1.703   4.102  17.116  1.2627  1.1221 -1.3945
10893TIP3   OH254169   0.891   3.312   1.526 -0.0993  0.6836  0.7261
10893TIP3    H154170   0.854   3.338   1.442  0.5835  0.4040  0.3337
10893TIP3    H254171   0.872   3.218   1.531 -1.6849  1.0170  1.6896
10894TIP3   OH254172   4.099   0.280   5.504 -0.0106 -0.0326 -0.2482
10894TIP3    H154173   4.186   0.240   5.510  0.1655  0.2256 -0.9670
10894TIP3    H254174   4.107   0.362   5.554  0.5533  0.6305 -1.3739
10895TIP3   OH254175   6.797   1.461  16.148 -0.1479 -0.4255 -0.2497
10895TIP3    H154176   6.862   1.394  16.171 -0.3475 -0.7654 -0.6490
10895TIP3    H254177   6.730   1.453  16.216 -0.5606 -1.1805 -0.7294
10896TIP3   OH254178   4.721   3.902   3.681 -0.0351  0.3673  0.0129
10896TIP3    H154179   4.676   3.980   3.713  1.4491  1.5006 -0.5686
10896TIP3    H254180   4.814   3.926   3.679  0.4160 -1.2638 -0.6102
10897TIP3   OH254181   6.757   1.411  11.491  0.6320 -0.1573 -0.2552
10897TIP3    H154182   6.754   1.337  11.552 -1.1710 -0.0441 -0.1481
10897TIP3    H254183   6.767   1.371  11.405  0.3881 -0.4871 -0.1326
10898TIP3   OH254184   4.246   6.613  12.262 -0.6520  0.6088  0.2896
10898TIP3    H154185   4.260   6.518  12.266 -1.6265  0.4637  0.4748
10898TIP3    H254186   4.310   6.649  12.323  0.7202  0.1913 -0.8473
10899TIP3   OH254187   3.006   0.410  12.278 -0.2389 -0.1450 -0.1653
10899TIP3    H154188   3.093   0.450  12.269  1.0272 -2.7776 -0.8624
10899TIP3    H254189   2.945   0.482  12.262  1.7460  2.0252  1.2785
10900TIP3   OH254190   5.836   2.710   4.530  0.3603 -0.6491  0.4294
10900TIP3    H154191   5.862   2.635   4.476  0.9055 -0.8895  1.0002
10900TIP3    H254192   5.918   2.743   4.566 -0.0535 -1.2282  2.0345
10901TIP3   OH254193   5.964   4.805   5.644 -0.1709 -0.5769  0.0966
10901TIP3    H154194   5.939   4.880   5.590 -2.9548 -2.1564 -1.0471
10901TIP3    H254195   6.055   4.822   5.668  0.4973  1.3879 -3.1662
10902TIP3   OH254196   3.293   1.743  15.029 -0.2647 -0.1352  0.0507
10902TIP3    H154197   3.216   1.800  15.028 -0.6645 -0.6014  1.7111
10902TIP3    H254198   3.360   1.793  14.982 -0.6793  1.6467  1.2478
10903TIP3   OH254199   1.633   3.452   2.451  0.1127  0.9631 -0.0137
10903TIP3    H154200   1.556   3.395   2.452 -0.1884  1.3654  0.5539
10903TIP3    H254201   1.691   3.415   2.517  0.4416  0.6256 -0.4824
10904TIP3   OH254202   5.101   4.998   2.945  0.1196 -0.1427 -0.3047
10904TIP3    H154203   5.145   4.956   3.018 -1.4703 -0.6514  0.3989
10904TIP3    H254204   5.172   5.025   2.886  1.3541 -0.6973  0.8899
10905TIP3   OH254205   5.202   3.195  16.098  0.2307 -0.9037 -0.1252
10905TIP3    H154206   5.133   3.175  16.161  1.3035 -2.3098  0.6728
10905TIP3    H254207   5.192   3.128  16.030  0.0974 -0.4044 -0.5996
10906TIP3   OH254208   2.557   3.792   2.258  0.3649 -0.2364 -0.0236
10906TIP3    H154209   2.477   3.819   2.213  1.0473 -0.1508 -1.2182
10906TIP3    H254210   2.562   3.850   2.334 -0.7078 -0.2503  0.0739
10907TIP3   OH254211   0.445   2.471  15.034 -0.2107  0.0061 -0.0223
10907TIP3    H154212   0.422   2.529  14.961 -0.4730 -0.8338 -0.6266
10907TIP3    H254213   0.360   2.443  15.069 -0.1256 -1.3319 -0.8249
10908TIP3   OH254214   1.238   5.555  11.768  0.2894  0.1977 -0.1034
10908TIP3    H154215   1.294   5.488  11.728 -1.5062 -0.2092 -2.1702
10908TIP3    H254216   1.296   5.629  11.783  1.3479 -0.0437 -2.5469
10909TIP3   OH254217   3.728   1.498  16.569 -0.0362  0.6633 -0.0201
10909TIP3    H154218   3.760   1.588  16.567  1.1667  0.2516  0.1227
10909TIP3    H254219   3.736   1.468  16.478 -0.0418  0.5585  0.0139
10910TIP3   OH254220   4.722   0.434  11.870 -0.1243 -0.0483 -0.0463
10910TIP3    H154221   4.721   0.485  11.951  0.0222 -0.2732  0.0973
10910TIP3    H254222   4.660   0.362  11.886 -1.3604  0.8195 -0.7271
10911TIP3   OH254223   3.914   6.649  11.372 -0.1671  0.4891 -0.1239
10911TIP3    H154224   3.838   6.607  11.331 -0.3714  0.5914  0.1479
10911TIP3    H254225   3.913   6.617  11.462  1.8284 -1.8793 -0.8339
10912TIP3   OH254226   5.743   4.645   5.148 -0.2442  0.4393 -0.0165
10912TIP3    H154227   5.726   4.735   5.176 -0.4504  0.1479  0.8377
10912TIP3    H254228   5.681   4.629   5.077 -0.0054  1.0648 -0.3698
10913TIP3   OH254229   0.288   4.615  15.210  0.3138  0.2421  0.8318
10913TIP3    H154230   0.291   4.643  15.301 -1.5648  1.1070  0.6809
10913TIP3    H254231   0.196   4.592  15.195  0.3983  0.9572 -1.0609
10914TIP3   OH254232   2.905   1.318  13.375  0.2605  0.4274 -0.6105
10914TIP3    H154233   2.835   1.253  13.370  1.0577 -0.4411 -0.7657
10914TIP3    H254234   2.874   1.383  13.439 -0.4803 -0.1768 -0.3461
10915TIP3   OH254235   0.255   4.972   3.335  0.2485  0.0732  0.1259
10915TIP3    H154236   0.337   4.940   3.373 -0.2394  0.8630  1.9022
10915TIP3    H254237   0.267   5.066   3.327 -0.2329  0.1063 -0.2670
10916TIP3   OH254238   0.215   6.699   1.732 -0.5847 -0.3704 -0.3630
10916TIP3    H154239   0.269   6.767   1.692  0.4962 -1.1959 -0.3400
10916TIP3    H254240   0.132   6.703   1.684 -0.8608  1.5140  0.2052
10917TIP3   OH254241   3.675   0.563  17.102  0.0826 -0.1473 -0.0800
10917TIP3    H154242   3.716   0.523  17.179 -1.7440 -0.0577  0.9885
10917TIP3    H254243   3.707   0.654  17.103  0.3710 -0.2493  0.3565
10918TIP3   OH254244   3.230   4.923   1.152 -0.5590 -0.0392 -0.1315
10918TIP3    H154245   3.286   4.968   1.214  0.9266 -1.7292 -0.1678
10918TIP3    H254246   3.262   4.949   1.066 -3.4849  3.3975 -0.4018
10919TIP3   OH254247   0.448   5.371  11.631 -0.5224 -0.3957 -0.2840
10919TIP3    H154248   0.366   5.414  11.605  0.3929  1.0473 -0.9399
10919TIP3    H254249   0.500   5.441  11.670  0.7591 -1.0599 -0.7390
10920TIP3   OH254250   5.743   2.152   1.977  0.5177 -0.6353 -0.0768
10920TIP3    H154251   5.782   2.152   2.064 -1.1280 -0.1211  0.7002
10920TIP3    H254252   5.772   2.234   1.937 -0.5983  0.2616  0.9038
10921TIP3   OH254253   1.223   2.483  14.217  0.0121 -0.4731  0.0770
10921TIP3    H154254   1.318   2.468  14.210 -0.1151 -1.5725  0.4540
10921TIP3    H254255   1.195   2.422  14.285 -1.0943 -0.7477 -0.6127
10922TIP3   OH254256   3.528   6.787   0.677  0.5942  0.2234  0.4430
10922TIP3    H154257   3.607   6.830   0.645  1.0068 -0.9430 -0.1570
10922TIP3    H254258   3.521   6.813   0.768  1.8311  0.1160  0.5794
10923TIP3   OH254259   3.324   5.017  16.993  0.8054 -0.2187 -0.2506
10923TIP3    H154260   3.321   4.923  17.015  0.5246 -0.5692 -1.6965
10923TIP3    H254261   3.244   5.033  16.945  0.8030  0.8139  0.0762
10924TIP3   OH254262   2.574   1.908   0.821  0.3295  0.2736 -0.0469
10924TIP3    H154263   2.531   1.824   0.838 -0.7553 -0.1287 -3.9040
10924TIP3    H254264   2.501   1.971   0.815  0.9194  0.9944  0.1608
10925TIP3   OH254265   6.553   1.015   0.332  0.2656 -0.0402 -0.2303
10925TIP3    H154266   6.570   0.938   0.386 -1.3037 -1.0869 -1.1555
10925TIP3    H254267   6.497   0.983   0.261 -0.6778  2.0054 -0.4834
10926TIP3   OH254268   5.603   2.471  11.410  0.0390 -0.0294  0.1721
10926TIP3    H154269   5.575   2.448  11.321  0.6218 -2.1665  0.4802
10926TIP3    H254270   5.552   2.549  11.433 -2.1042 -1.0239 -1.0205
10927TIP3   OH254271   5.698   2.742   0.574 -0.1196  0.0113 -0.8925
10927TIP3    H154272   5.780   2.761   0.619  0.5515  0.6100 -2.3015
10927TIP3    H254273   5.640   2.813   0.598 -1.0527 -1.5666  1.9196
10928TIP3   OH254274   1.746   6.223   2.980  0.1354 -0.5382  0.0564
10928TIP3    H154275   1.667   6.217   2.926  0.8107  1.2992 -1.2241
10928TIP3    H254276   1.789   6.138   2.969 -1.8263 -1.7556  1.1318
10929TIP3   OH254277   2.433   6.753  13.590  0.3669  0.3811 -0.0758
10929TIP3    H154278   2.446   6.757  13.495  1.6756  2.2657  0.1269
10929TIP3    H254279   2.478   6.673  13.617  2.9584  1.5375 -0.6813
10930TIP3   OH254280   4.304   6.074  11.169 -0.1030 -0.0050 -0.4051
10930TIP3    H154281   4.359   6.075  11.091 -1.6005 -0.2428 -1.5096
10930TIP3    H254282   4.218   6.101  11.138 -0.1908  2.5684  1.6555
10931TIP3   OH254283   3.811   3.562   3.807 -0.7069  0.1947 -0.0761
10931TIP3    H154284   3.900   3.568   3.775 -0.3537 -0.4861  0.7434
10931TIP3    H254285   3.771   3.491   3.757 -0.8995  0.7131 -0.6705
10932TIP3   OH254286   3.957   5.310  12.780  0.2195 -0.1102  0.9380
10932TIP3    H154287   3.958   5.215  12.766  0.4314 -0.2385  1.7526
10932TIP3    H254288   3.890   5.342  12.720 -1.0799 -1.0002  1.8381
10933TIP3   OH254289   4.094   3.670   3.500  0.0645 -0.0286 -0.3902
10933TIP3    H154290   4.154   3.683   3.427 -0.6774  0.3415 -0.9451
10933TIP3    H254291   4.012   3.643   3.459 -0.4768  0.5723  0.2813
10934TIP3   OH254292   2.761   5.724   0.454  0.3769  0.2411  0.0048
10934TIP3    H154293   2.855   5.710   0.436 -0.0584 -2.0607 -0.8236
10934TIP3    H254294   2.722   5.732   0.367 -0.5171 -1.4611  0.2149
10935TIP3   OH254295   1.605   6.008  15.995 -0.0877 -0.4585  0.4196
10935TIP3    H154296   1.537   5.952  15.957  0.7951 -0.5394 -1.1044
10935TIP3    H254297   1.683   5.953  15.996  0.4677  0.3189  0.1258
10936TIP3   OH254298   0.598   1.590   4.787 -0.6970  0.4747 -0.3045
10936TIP3    H154299   0.511   1.550   4.786  0.6167 -2.9216  2.3556
10936TIP3    H254300   0.642   1.554   4.710 -1.0968  0.8657 -0.7214
10937TIP3   OH254301   6.756   3.580   3.364 -0.4889  0.2208 -0.0635
10937TIP3    H154302   6.828   3.538   3.412 -0.8119  0.8206  0.9945
10937TIP3    H254303   6.720   3.510   3.310 -0.1303 -0.5129  0.6128
10938TIP3   OH254304   2.929   0.478  10.926  0.3662 -0.6874 -0.5802
10938TIP3    H154305   2.934   0.383  10.942  0.6042 -0.8025 -1.2949
10938TIP3    H254306   3.006   0.513  10.970 -1.1451 -0.4494  2.0744
10939TIP3   OH254307   0.610   2.468  13.307  0.5137 -0.3754  0.5659
10939TIP3    H154308   0.539   2.529  13.285  1.7855  0.7303 -0.7087
10939TIP3    H254309   0.658   2.512  13.377  0.4570 -0.7173  0.8227
10940TIP3   OH254310   4.076   1.736   4.745  0.1786 -0.0432  0.5285
10940TIP3    H154311   4.170   1.742   4.728  0.0057 -0.4082 -0.6105
10940TIP3    H254312   4.052   1.648   4.718 -0.5019  0.0532  0.7877
10941TIP3   OH254313   3.594   3.001   3.587 -0.6199  0.0211  0.2752
10941TIP3    H154314   3.561   3.037   3.505 -0.5647 -2.5813 -1.0050
10941TIP3    H254315   3.568   2.909   3.585 -1.4573  0.0437  3.6705
10942TIP3   OH254316   1.886   1.938  14.661  0.0389  0.3898  0.3962
10942TIP3    H154317   1.968   1.962  14.704 -0.8680  2.2382  1.2158
10942TIP3    H254318   1.909   1.928  14.568  0.9434  2.3934  0.3595
10943TIP3   OH254319   1.988   5.534   4.529  0.5521 -0.2611  0.3740
10943TIP3    H154320   2.023   5.477   4.598 -0.2736 -0.4780  0.6244
10943TIP3    H254321   1.990   5.480   4.450 -0.1964 -0.6400  0.6034
10944TIP3   OH254322   3.803   5.734   0.670 -0.0427  0.1833  0.1933
10944TIP3    H154323   3.827   5.816   0.627  0.5297  0.5322  1.1633
10944TIP3    H254324   3.714   5.717   0.638 -0.3818  1.4597  0.3792
10945TIP3   OH254325   4.526   2.552  15.299 -0.1859 -0.2824  0.2717
10945TIP3    H154326   4.589   2.605  15.347 -0.2179 -0.3686  0.4090
10945TIP3    H254327   4.451   2.545  15.358 -1.2807  1.7328 -0.7464
10946TIP3   OH254328   5.298   3.614  12.736 -0.1944 -0.1536 -0.5719
10946TIP3    H154329   5.376   3.642  12.783 -1.9148  1.3838  1.5539
10946TIP3    H254330   5.305   3.518  12.732  0.0040 -0.4147  3.0499
10947TIP3   OH254331   3.293   4.640   4.968 -0.0828 -0.3770  0.0273
10947TIP3    H154332   3.327   4.681   4.889  0.7753 -1.1080  0.0009
10947TIP3    H254333   3.366   4.644   5.030 -0.5055 -0.4706  0.5381
10948TIP3   OH254334   5.702   6.333  15.887 -0.3307 -0.0254 -0.3797
10948TIP3    H154335   5.770   6.291  15.834 -1.1576 -1.2957 -0.4918
10948TIP3    H254336   5.748   6.401  15.936  0.5788  0.7718 -2.2469
10949TIP3   OH254337   5.508   6.252  16.530 -0.4085  0.2257 -0.9926
10949TIP3    H154338   5.561   6.230  16.607 -0.2583  1.5069 -0.7065
10949TIP3    H254339   5.571   6.279  16.464 -0.5572 -0.6087 -1.4948
10950TIP3   OH254340   2.704   5.784   4.289 -0.7360  0.1946  0.2182
10950TIP3    H154341   2.798   5.769   4.301 -0.7515  0.0464  0.1567
10950TIP3    H254342   2.699   5.868   4.244 -0.6616  0.5731  0.8883
10951TIP3   OH254343   1.086   3.797  13.657  0.5553 -0.1458 -0.1695
10951TIP3    H154344   1.083   3.872  13.597 -0.1640 -1.0611 -1.3190
10951TIP3    H254345   1.178   3.770  13.657  0.9376  1.0388  0.6884
10952TIP3   OH254346   0.522   5.445   5.511  0.1519  0.0695 -0.1135
10952TIP3    H154347   0.559   5.472   5.596  1.7416  0.2375 -0.8251
10952TIP3    H254348   0.457   5.513   5.492  0.8774  0.9001  0.2640
10953TIP3   OH254349   3.248   5.672  11.676  0.0846  0.4277 -0.0053
10953TIP3    H154350   3.195   5.752  11.680 -0.7938 -0.0771 -1.1475
10953TIP3    H254351   3.337   5.703  11.660 -0.3909  1.1528 -1.3885
10954TIP3   OH254352   2.744   1.932   1.664 -0.5832  0.5874  0.2728
10954TIP3    H154353   2.806   1.964   1.729  0.2788 -0.0684 -0.2044
10954TIP3    H254354   2.661   1.926   1.711 -0.1903  1.0520  1.0441
10955TIP3   OH254355   6.096   2.582  11.677  0.2522  0.2542  0.3087
10955TIP3    H154356   6.176   2.536  11.653 -0.4018 -1.0594  0.5417
10955TIP3    H254357   6.126   2.667  11.711  1.5743 -0.4636  0.9942
10956TIP3   OH254358   4.579   5.429   2.668 -0.3729  0.8048  0.2769
10956TIP3    H154359   4.573   5.523   2.650  1.5990  0.9564  0.1684
10956TIP3    H254360   4.669   5.417   2.699  0.1577 -1.3893 -1.8227
10957TIP3   OH254361   1.323   5.998   4.089  0.3805  1.0782 -0.2204
10957TIP3    H154362   1.378   5.951   4.026  0.3275  0.1568  0.3877
10957TIP3    H254363   1.336   6.090   4.068  0.5750  0.8051 -1.3908
10958TIP3   OH254364   1.090   5.559  14.998  0.1286  0.1639 -0.4465
10958TIP3    H154365   1.099   5.567  15.093  0.3817  1.9180 -0.5788
10958TIP3    H254366   1.068   5.468  14.983 -0.2969 -0.0503  1.3316
10959TIP3   OH254367   0.235   0.284  15.309 -0.9037 -0.3450  0.3560
10959TIP3    H154368   0.275   0.343  15.244  0.2990 -0.4219  1.0037
10959TIP3    H254369   0.247   0.197  15.272 -2.7376 -0.2270 -0.6312
10960TIP3   OH254370   3.962   6.620   5.836  0.1739  0.5639  0.0369
10960TIP3    H154371   4.032   6.582   5.784 -0.3588  0.9621 -1.0113
10960TIP3    H254372   3.964   6.713   5.814  0.3645  0.8679  1.2608
10961TIP3   OH254373   2.640   3.515  12.635 -0.0997  0.2981  0.0780
10961TIP3    H154374   2.610   3.429  12.606 -0.3620  0.1615  0.7474
10961TIP3    H254375   2.661   3.503  12.728 -1.1416  1.2112  0.4449
10962TIP3   OH254376   4.454   1.736   2.306 -0.2624 -0.5278  0.0981
10962TIP3    H154377   4.364   1.728   2.274  0.1654 -0.3401 -1.1810
10962TIP3    H254378   4.446   1.783   2.389 -1.1896  1.0365 -0.8482
10963TIP3   OH254379   3.886   1.244  15.588  0.0917  0.3229  0.5226
10963TIP3    H154380   3.904   1.159  15.629  0.1123  0.3777  0.6252
10963TIP3    H254381   3.964   1.262  15.536  0.3420  0.5679  0.9786
10964TIP3   OH254382   5.938   2.898  13.891 -0.0570 -0.1912  0.4438
10964TIP3    H154383   6.022   2.910  13.935  0.5077 -3.0815  0.3345
10964TIP3    H254384   5.883   2.854  13.955 -1.7555  2.1069  0.6845
10965TIP3   OH254385   2.621   4.801   0.389  0.5783  0.2013  0.1529
10965TIP3    H154386   2.568   4.743   0.334 -0.2385  0.7564  0.3266
10965TIP3    H254387   2.629   4.754   0.472 -0.2525  0.4055  0.3627
10966TIP3   OH254388   3.789   2.745   5.026  0.4409 -0.4167 -0.0754
10966TIP3    H154389   3.755   2.817   5.079 -1.5631 -1.2166 -0.1941
10966TIP3    H254390   3.841   2.788   4.959  1.3386  0.7395  1.2968
10967TIP3   OH254391   3.828   1.716   4.498  0.0427  0.3002  0.6180
10967TIP3    H154392   3.786   1.630   4.506 -0.4344  0.5686  1.0315
10967TIP3    H254393   3.913   1.697   4.458 -1.3787  0.0212 -2.5474
10968TIP3   OH254394   6.297   0.440   1.555  0.6395  0.4768 -0.0217
10968TIP3    H154395   6.207   0.428   1.586  0.6046 -0.9891 -0.5798
10968TIP3    H254396   6.345   0.366   1.592  1.2399  0.3482 -1.0138
10969TIP3   OH254397   4.867   3.517  10.894  0.3945  0.2679 -0.0388
10969TIP3    H154398   4.793   3.553  10.845 -1.2334 -2.1298  0.5088
10969TIP3    H254399   4.923   3.477  10.828  0.1939  0.3793 -0.2788
10970TIP3   OH254400   0.330   4.209   3.509  0.2758  0.1424 -0.6843
10970TIP3    H154401   0.259   4.146   3.516 -0.1065  0.4695 -1.5003
10970TIP3    H254402   0.407   4.157   3.486  0.2679 -0.1866  0.0002
10971TIP3   OH254403   4.354   2.573  12.795  0.0112 -0.3082 -0.1051
10971TIP3    H154404   4.325   2.632  12.725 -1.8560 -0.8473  0.1411
10971TIP3    H254405   4.370   2.630  12.870 -2.9475 -0.1046  0.5034
10972TIP3   OH254406   1.838   2.319  16.678  0.4470  0.1528 -0.6220
10972TIP3    H154407   1.815   2.352  16.765  2.3576 -0.0721  0.0120
10972TIP3    H254408   1.754   2.297  16.638 -0.4484 -0.7917  1.5833
10973TIP3   OH254409   1.177   1.783  15.195  0.1598 -0.7027  0.8633
10973TIP3    H154410   1.271   1.791  15.212 -0.2142 -0.6937  3.3265
10973TIP3    H254411   1.166   1.694  15.162  0.7138 -2.1073  4.0390
10974TIP3   OH254412   2.454   6.300   1.386 -0.1305  0.1100 -0.2893
10974TIP3    H154413   2.415   6.213   1.392  0.3279 -0.1276 -0.7200
10974TIP3    H254414   2.523   6.300   1.451  0.6828 -0.2838 -1.1321
10975TIP3   OH254415   1.740   6.258   5.396 -0.5020  0.1843 -0.0440
10975TIP3    H154416   1.672   6.272   5.462  0.0373 -1.6231  0.9483
10975TIP3    H254417   1.817   6.229   5.445 -0.4106 -2.3251 -1.5045
10976TIP3   OH254418   0.839   3.128   4.320 -0.4434  0.0159 -0.0743
10976TIP3    H154419   0.927   3.155   4.295 -0.5093  0.0547 -0.2655
10976TIP3    H254420   0.828   3.161   4.409 -0.3330  0.1743 -0.1198
10977TIP3   OH254421   1.135   3.373   5.279  0.0467 -0.0314 -0.2372
10977TIP3    H154422   1.098   3.391   5.365 -0.5199 -0.7835 -0.3139
10977TIP3    H254423   1.221   3.336   5.298 -0.4606 -1.1094  0.0557
10978TIP3   OH254424   5.260   6.114  11.652 -0.1432  0.1814  0.0473
10978TIP3    H154425   5.336   6.098  11.596 -0.7012  1.6648 -1.2336
10978TIP3    H254426   5.195   6.152  11.592  0.2915  4.9187  2.1606
10979TIP3   OH254427   2.474   0.210  10.731 -0.1478 -0.4216  0.0173
10979TIP3    H154428   2.400   0.155  10.705  0.5645 -1.2049 -0.4285
10979TIP3    H254429   2.543   0.147  10.754  0.8794  0.2722 -1.0356
10980TIP3   OH254430   5.412   5.469   0.881 -0.4662 -0.4161 -0.4325
10980TIP3    H154431   5.377   5.557   0.894  1.9875  0.4066  1.1800
10980TIP3    H254432   5.385   5.420   0.958 -0.1940 -0.5242 -0.4053
10981TIP3   OH254433   2.965   2.564  15.915  0.0833 -0.3327 -0.3516
10981TIP3    H154434   2.955   2.656  15.936 -0.7067  0.0002 -1.9907
10981TIP3    H254435   2.981   2.562  15.820  0.8360 -1.8351 -0.2314
10982TIP3   OH254436   0.657   0.463   4.767 -0.3505 -0.2403 -0.1172
10982TIP3    H154437   0.731   0.445   4.709  0.1756  0.1531  0.4239
10982TIP3    H254438   0.673   0.411   4.845 -0.9885 -0.6636 -0.2606
10983TIP3   OH254439   3.459   3.334   0.201  1.2138  0.2426 -0.0083
10983TIP3    H154440   3.439   3.267   0.135  0.8176  1.0656 -0.7325
10983TIP3    H254441   3.384   3.393   0.200  2.7099  2.2464 -1.3384
10984TIP3   OH254442   4.743   4.493  13.554  0.0966  0.1727 -0.5593
10984TIP3    H154443   4.715   4.526  13.469 -1.0746 -0.5227 -0.4654
10984TIP3    H254444   4.677   4.526  13.616  0.6086  0.1841 -0.0075
10985TIP3   OH254445   4.048   1.428   0.775  0.1843  0.1491  0.1974
10985TIP3    H154446   4.007   1.455   0.693  0.0379  0.4484  0.3707
10985TIP3    H254447   4.072   1.336   0.760  1.1036  0.4924 -0.5551
10986TIP3   OH254448   0.127   5.777   0.439  0.4980 -0.1103  0.0759
10986TIP3    H154449   0.188   5.756   0.510  2.5093  1.2210 -1.1609
10986TIP3    H254450   0.127   5.873   0.434 -1.1758 -0.1013 -0.4330
10987TIP3   OH254451   2.868   6.785   3.686 -0.8559 -0.2027  0.3417
10987TIP3    H154452   2.924   6.837   3.744  0.9488 -1.0500 -0.5515
10987TIP3    H254453   2.838   6.848   3.620 -0.6766  0.2124  0.6451
10988TIP3   OH254454   1.468   4.897  15.991  0.4904  0.4602  0.4084
10988TIP3    H154455   1.443   4.976  15.943 -1.0335  0.0041  0.4112
10988TIP3    H254456   1.398   4.884  16.055  0.5705 -1.0461  0.2141
10989TIP3   OH254457   6.210   5.377  16.802 -0.2526  0.2457 -0.2866
10989TIP3    H154458   6.120   5.408  16.805 -0.1646  0.8323 -2.2008
10989TIP3    H254459   6.205   5.289  16.766 -0.0810  0.1051  0.0220
10990TIP3   OH254460   1.068   1.545  16.624 -0.3273 -0.4281 -0.5622
10990TIP3    H154461   1.032   1.550  16.713 -0.6971  0.3120 -0.7417
10990TIP3    H254462   1.077   1.451  16.607 -0.4245 -0.5791  0.1907
10991TIP3   OH254463   0.363   0.611  15.122  0.3399  0.1293  0.1494
10991TIP3    H154464   0.311   0.680  15.080 -0.4225  0.3670  1.4167
10991TIP3    H254465   0.453   0.628  15.094  0.2071  1.8046  0.6127
10992TIP3   OH254466   0.705   3.332   2.044  0.2495  0.6641  0.5305
10992TIP3    H154467   0.626   3.279   2.044  1.0767 -0.6607 -0.6653
10992TIP3    H254468   0.725   3.344   1.951  1.4640  0.9537  0.8117
10993TIP3   OH254469   2.877   6.130   3.526 -0.3356 -0.3591  0.4981
10993TIP3    H154470   2.782   6.134   3.514 -0.2591 -1.5364 -0.8896
10993TIP3    H254471   2.898   6.038   3.512  1.0434 -0.0638  0.5249
10994TIP3   OH254472   4.931   0.616  11.565 -0.3018  0.3197 -0.2511
10994TIP3    H154473   4.862   0.667  11.521 -0.4430  0.8093  0.5235
10994TIP3    H254474   4.965   0.675  11.632 -0.3431 -0.5497  0.5470
10995TIP3   OH254475   5.166   5.376  14.511 -0.1944  0.2964 -0.1239
10995TIP3    H154476   5.249   5.362  14.464 -0.2395  1.7285 -0.6679
10995TIP3    H254477   5.102   5.392  14.441 -0.8578 -0.3667  0.3167
10996TIP3   OH254478   1.189   4.159   5.143 -0.2784  0.7527 -0.0515
10996TIP3    H154479   1.171   4.220   5.071  0.9222  0.8872 -0.2472
10996TIP3    H254480   1.283   4.144   5.139 -0.7965 -3.1973 -1.6435
10997TIP3   OH254481   2.689   4.300   5.637  0.0980 -0.4382 -0.3785
10997TIP3    H154482   2.766   4.283   5.690  0.7238 -0.1172 -1.1651
10997TIP3    H254483   2.716   4.281   5.547 -0.9490 -1.0152 -0.5925
10998TIP3   OH254484   3.113   0.426   5.416 -0.1454  0.2039  0.0909
10998TIP3    H154485   3.180   0.480   5.375 -0.5973  1.2039  0.6601
10998TIP3    H254486   3.157   0.384   5.490  0.0349  0.3061  0.0398
10999TIP3   OH254487   1.513   5.333  16.939 -0.0260  0.5513  0.7393
10999TIP3    H154488   1.603   5.300  16.928 -0.3468 -0.2055  0.2900
10999TIP3    H254489   1.472   5.317  16.854 -0.6816  0.6099  1.0444
11000TIP3   OH254490   0.300   0.514  10.761  0.2615  0.0356  0.8416
11000TIP3    H154491   0.386   0.557  10.764  0.6016 -0.5483 -0.0741
11000TIP3    H254492   0.241   0.582  10.728  0.3601  0.4374  1.4605
11001TIP3   OH254493   6.235   2.352   6.029 -0.0840 -0.0475  0.0455
11001TIP3    H154494   6.267   2.418   6.091 -1.0655  1.2294 -0.7716
11001TIP3    H254495   6.304   2.346   5.963 -0.4898  1.0491 -0.5032
11002TIP3   OH254496   5.430   4.412  15.496  0.0614  0.3556 -0.8797
11002TIP3    H154497   5.470   4.477  15.553 -0.5089  0.9547 -1.1418
11002TIP3    H254498   5.497   4.345  15.485  0.8815  1.1903 -1.0829
11003TIP3   OH254499   4.293   1.367  15.877  0.0744 -0.2113 -0.1521
11003TIP3    H154500   4.299   1.355  15.971 -0.4212  0.2854 -0.0524
11003TIP3    H254501   4.312   1.459  15.863  1.7898 -0.6232 -0.7053
11004TIP3   OH254502   5.342   2.688   2.708 -0.0744 -0.0686  0.0874
11004TIP3    H154503   5.411   2.695   2.642 -1.3212  1.5863 -1.1271
11004TIP3    H254504   5.264   2.721   2.665 -1.9756 -2.9415  1.0246
11005TIP3   OH254505   2.338   0.441  15.407  0.2935 -0.3502 -0.0820
11005TIP3    H154506   2.431   0.420  15.401 -0.0769 -2.2094  0.0012
11005TIP3    H254507   2.336   0.531  15.440  2.0542 -0.6489  0.9956
11006TIP3   OH254508   3.867   6.726   0.464 -0.0098  0.1733  0.1089
11006TIP3    H154509   3.866   6.811   0.508  0.1284  0.7093 -0.8998
11006TIP3    H254510   3.862   6.662   0.535 -1.6997  1.0328  0.8227
11007TIP3   OH254511   2.900   2.835   4.246 -0.5613  0.2484 -0.0070
11007TIP3    H154512   2.829   2.844   4.183 -1.4263  0.4152  0.9736
11007TIP3    H254513   2.862   2.860   4.330  0.5439 -0.0570  0.6108
11008TIP3   OH254514   4.023   0.259   2.980  0.5942  0.1527 -0.4589
11008TIP3    H154515   3.995   0.179   2.934  0.5190  0.1004 -0.3229
11008TIP3    H254516   3.941   0.297   3.012  0.7229 -0.2801  0.4023
11009TIP3   OH254517   2.048   3.932  11.761  0.5088  0.0360 -0.2737
11009TIP3    H154518   1.988   4.006  11.755 -0.8833 -0.9593  0.6744
11009TIP3    H254519   2.008   3.865  11.704  0.8730 -0.5290  0.1235
11010TIP3   OH254520   5.813   3.990   2.265 -0.1394  0.1089 -0.1719
11010TIP3    H154521   5.842   3.944   2.186  0.8908  1.1493 -0.4213
11010TIP3    H254522   5.829   3.929   2.336  1.2549  0.0778 -0.4880
11011TIP3   OH254523   0.085   2.979  14.134  0.1863 -0.1965  0.2724
11011TIP3    H154524   0.082   3.021  14.048 -0.4697  1.5868  1.1070
11011TIP3    H254525   0.062   3.049  14.195 -0.2750 -1.6426  1.8285
11012TIP3   OH254526   0.283   1.749   2.069  0.1025  0.1032 -0.4891
11012TIP3    H154527   0.294   1.716   1.980  2.2156  0.1028 -0.2746
11012TIP3    H254528   0.229   1.827   2.060 -1.4704 -1.0390 -1.4919
11013TIP3   OH254529   2.145   6.636  14.157 -0.0302 -0.0244 -0.0728
11013TIP3    H154530   2.095   6.570  14.205  0.7131  0.2259  1.1046
11013TIP3    H254531   2.132   6.717  14.207 -1.0027  0.7619 -1.5431
11014TIP3   OH254532   2.562   4.550   1.775 -0.1938  0.0520  0.2220
11014TIP3    H154533   2.571   4.602   1.855 -2.0132 -1.1555  1.2708
11014TIP3    H254534   2.611   4.470   1.792  0.7837  0.4668 -0.5452
11015TIP3   OH254535   0.341   2.620   1.810  0.2093  0.3841 -0.4157
11015TIP3    H154536   0.294   2.556   1.756  0.0124  0.1906 -0.0224
11015TIP3    H254537   0.424   2.577   1.830 -1.3978 -1.6105  3.2236
11016TIP3   OH254538   2.458   1.468   2.057  0.8567 -0.3146 -0.0412
11016TIP3    H154539   2.488   1.503   2.141 -0.7567  1.2626 -0.0504
11016TIP3    H254540   2.532   1.419   2.023  2.2135  0.6324  1.4214
11017TIP3   OH254541   2.893   4.492   1.837 -0.2781  0.1921  0.1458
11017TIP3    H154542   2.976   4.477   1.880 -0.7406 -1.5082  0.5257
11017TIP3    H254543   2.909   4.471   1.745 -0.9015 -2.9427  0.6627
11018TIP3   OH254544   3.350   2.731   0.779 -0.3999  0.2044 -0.2748
11018TIP3    H154545   3.355   2.724   0.684  2.0891  0.0857 -0.2161
11018TIP3    H254546   3.432   2.692   0.810 -0.2539  1.9527  1.7979
11019TIP3   OH254547   6.027   3.246   2.906  0.1065  0.3784 -0.3245
11019TIP3    H154548   6.051   3.165   2.951  1.6319  1.0337  0.0936
11019TIP3    H254549   6.085   3.249   2.830 -0.0797  0.9967 -0.4474
11020TIP3   OH254550   3.167   0.365   5.703  0.1229  0.0250 -0.6639
11020TIP3    H154551   3.260   0.344   5.689  0.8469 -1.3171  4.0663
11020TIP3    H254552   3.168   0.440   5.762 -2.0041  1.6159 -2.4897
11021TIP3   OH254553   0.003   6.272   3.557 -0.3118  0.1274  0.2496
11021TIP3    H154554  -0.004   6.350   3.613 -2.9498 -0.5468  1.0176
11021TIP3    H254555  -0.024   6.303   3.470 -2.4764 -0.0804  0.7922
11022TIP3   OH254556   5.786   6.291   0.999 -0.2048  0.2672 -0.4691
11022TIP3    H154557   5.760   6.382   1.014 -1.4294 -0.2281  0.5989
11022TIP3    H254558   5.801   6.286   0.904  2.2781  2.1440 -0.2851
11023TIP3   OH254559   2.440   3.039   1.483 -0.5392 -0.7587 -0.3750
11023TIP3    H154560   2.447   3.049   1.578 -0.5957 -2.1604 -0.1998
11023TIP3    H254561   2.494   3.109   1.448 -0.9409  0.1111  0.6793
11024TIP3   OH254562   1.511   2.218   2.002  0.7301  0.9043 -0.4391
11024TIP3    H154563   1.516   2.122   1.999 -0.8212  0.8028 -0.5791
11024TIP3    H254564   1.464   2.237   2.083  1.4360  1.5695 -0.1845
11025TIP3   OH254565   0.784   5.541   6.214 -0.1309  0.1376 -0.7750
11025TIP3    H154566   0.702   5.561   6.260 -1.1566 -1.7675 -1.6696
11025TIP3    H254567   0.832   5.483   6.273  0.4079  0.9049 -0.4386
11026TIP3   OH254568   0.607   4.766   5.940 -0.1641  0.3272 -0.0044
11026TIP3    H154569   0.651   4.682   5.923 -0.1675  0.4657 -0.7088
11026TIP3    H254570   0.654   4.802   6.015  0.6590  0.2699 -0.4756
11027TIP3   OH254571   3.374   3.062   5.447  0.3666 -0.4169 -0.1710
11027TIP3    H154572   3.422   3.138   5.416  2.0422 -0.2968  2.3973
11027TIP3    H254573   3.408   2.989   5.396  1.1018  0.1229 -0.4622
11028TIP3   OH254574   2.012   4.960   4.969 -1.0629 -0.3680 -0.4483
11028TIP3    H154575   2.085   4.899   4.982  0.6265  1.9873  2.3065
11028TIP3    H254576   1.935   4.910   4.996  0.3518 -1.1806  2.5883
11029TIP3   OH254577   1.232   6.372   1.658  0.2217  0.7223  0.2352
11029TIP3    H154578   1.282   6.346   1.736 -0.1438 -1.5029 -0.1912
11029TIP3    H254579   1.194   6.290   1.627  0.3021  1.5750 -2.2598
11030TIP3   OH254580   3.338   2.914  12.297  0.4895 -0.2969  0.3435
11030TIP3    H154581   3.254   2.894  12.257  2.2484 -0.8847 -3.5099
11030TIP3    H254582   3.337   3.009  12.308 -0.2373 -0.1525 -0.8356
11031TIP3   OH254583   4.812   5.509   3.597  0.0559 -0.0548 -0.1133
11031TIP3    H154584   4.821   5.604   3.600  0.5671 -0.1090  0.3162
11031TIP3    H254585   4.807   5.483   3.689  0.4423 -0.4857 -0.2131
11032TIP3   OH254586   2.006   0.233   3.429 -0.1990  0.0374 -0.6126
11032TIP3    H154587   2.027   0.187   3.511  0.8359 -0.1176 -0.9459
11032TIP3    H254588   1.928   0.284   3.449 -1.1334 -1.5248 -0.0968
11033TIP3   OH254589   2.345   0.302   0.131  0.6773  0.1578 -0.0694
11033TIP3    H154590   2.350   0.219   0.083 -1.7051  0.6260 -1.3083
11033TIP3    H254591   2.299   0.280   0.212 -0.7375  0.3264 -0.7781
11034TIP3   OH254592   3.438   3.084   5.714 -0.8070  0.2855  0.0874
11034TIP3    H154593   3.503   3.015   5.719 -0.7593  0.1924 -1.3418
11034TIP3    H254594   3.414   3.088   5.621  0.6790  3.5368 -0.3046
11035TIP3   OH254595   3.651   3.524   0.274  0.6245 -0.1943 -0.1849
11035TIP3    H154596   3.581   3.462   0.254 -0.1482  0.7909 -0.6038
11035TIP3    H254597   3.673   3.507   0.365 -0.2248 -0.4526 -0.0214
11036TIP3   OH254598   6.580   0.395  12.557  0.0839  0.1287 -0.3429
11036TIP3    H154599   6.664   0.358  12.585  0.4966 -0.5746 -2.3320
11036TIP3    H254600   6.598   0.432  12.470 -0.8042  3.2503  0.6465
11037TIP3   OH254601   3.196   2.891   2.470  0.0484 -0.0674  0.0533
11037TIP3    H154602   3.236   2.805   2.484  1.2218  0.6082  1.1473
11037TIP3    H254603   3.102   2.874   2.470  0.1488 -1.1255  2.3550
11038TIP3   OH254604   3.812   6.492   5.448  0.4827 -0.6726 -0.1686
11038TIP3    H154605   3.888   6.446   5.484  0.6813  0.6264  1.1546
11038TIP3    H254606   3.760   6.423   5.406  1.0461 -2.0165  1.2596
11039TIP3   OH254607   1.467   1.590   5.699  1.0710  0.4976  0.3732
11039TIP3    H154608   1.389   1.536   5.714  1.7669 -0.7563 -0.3623
11039TIP3    H254609   1.463   1.656   5.768 -1.1378  1.0638 -0.2111
11040TIP3   OH254610   5.126   4.085  15.332  0.2969  0.2157  0.1686
11040TIP3    H154611   5.220   4.081  15.318  0.7066  0.2910  2.5905
11040TIP3    H254612   5.110   4.026  15.406 -1.3405  1.2901  0.7183
11041TIP3   OH254613   2.975   1.205  16.206 -0.2904  0.0192 -0.2386
11041TIP3    H154614   2.899   1.152  16.180 -0.9330  0.6263  0.3547
11041TIP3    H254615   2.956   1.293  16.171  0.5571 -0.0142 -0.8300
11042TIP3   OH254616   2.829   3.538  14.569  0.1032  0.2264 -0.3468
11042TIP3    H154617   2.844   3.453  14.611  1.3234  0.8229  0.4699
11042TIP3    H254618   2.740   3.562  14.593  0.0440 -0.4404  0.1000
11043TIP3   OH254619   5.355   1.462  14.063 -0.3580 -0.7425 -0.1913
11043TIP3    H154620   5.317   1.466  14.150  1.2487  1.9357  0.5182
11043TIP3    H254621   5.422   1.394  14.069  0.6637  0.3037  1.1702
11044TIP3   OH254622   6.630   4.897  16.155  0.0295 -0.1942 -0.1780
11044TIP3    H154623   6.555   4.885  16.213  0.1052  0.9726  0.1775
11044TIP3    H254624   6.627   4.821  16.097 -1.2596 -0.3050  0.0051
11045TIP3   OH254625   3.790   0.121  15.806  0.1631 -0.6046  0.2336
11045TIP3    H154626   3.834   0.118  15.891 -0.2642 -0.1932  0.4710
11045TIP3    H254627   3.833   0.192  15.759 -1.1920  0.7990  1.0103
11046TIP3   OH254628   3.640   1.491   1.580  0.5045 -0.6096  0.2801
11046TIP3    H154629   3.616   1.424   1.515 -1.6982  0.7765 -0.4515
11046TIP3    H254630   3.678   1.562   1.528 -0.8260  0.3071  0.5055
11047TIP3   OH254631   4.038   5.001   5.830  0.1384 -0.2281  0.5460
11047TIP3    H154632   4.003   4.996   5.741 -2.0227 -0.8973  1.3677
11047TIP3    H254633   3.967   4.969   5.885  1.3535  0.3542  2.5421
11048TIP3   OH254634   6.625   3.534   5.398 -0.6998 -0.0042  0.1756
11048TIP3    H154635   6.709   3.494   5.418 -0.6896 -0.4360 -0.6942
11048TIP3    H254636   6.620   3.610   5.456 -0.1931 -0.5819  0.9902
11049TIP3   OH254637   3.611   2.269   4.399 -0.0195  0.0095 -0.0558
11049TIP3    H154638   3.652   2.222   4.326  2.1900  3.1159 -0.9849
11049TIP3    H254639   3.524   2.292   4.365  0.2758 -0.1978 -1.0031
11050TIP3   OH254640   0.267   3.321  14.981  0.0564  0.3814 -0.1819
11050TIP3    H154641   0.227   3.273  15.054  0.2579 -0.0169 -0.3281
11050TIP3    H254642   0.229   3.282  14.902  0.7585 -0.0378 -0.3222
11051TIP3   OH254643   6.080   3.767  16.838  0.7200 -0.2431  0.1645
11051TIP3    H154644   6.077   3.797  16.929 -1.5668 -0.6209  0.2944
11051TIP3    H254645   6.134   3.689  16.840 -0.9209 -1.4276  1.6493
11052TIP3   OH254646   0.380   2.460  12.333 -0.0076 -0.6510  0.3791
11052TIP3    H154647   0.454   2.413  12.295 -0.8101 -2.8188  1.3250
11052TIP3    H254648   0.304   2.404  12.316 -1.0340  0.3360  1.4935
11053TIP3   OH254649   1.835   5.215   1.633  0.3167 -0.8281  0.4727
11053TIP3    H154650   1.860   5.241   1.544  0.1518 -1.6329  0.1764
11053TIP3    H254651   1.917   5.217   1.683  0.3894 -0.2601  0.3339
11054TIP3   OH254652   6.152   1.451   1.446  0.0290  0.1247 -0.0272
11054TIP3    H154653   6.149   1.547   1.440  0.8288  0.0888 -1.5528
11054TIP3    H254654   6.071   1.427   1.490  0.7761  1.6166  2.3637
11055TIP3   OH254655   0.652   4.904   3.951 -0.0546 -0.4551  0.3003
11055TIP3    H154656   0.573   4.851   3.961 -1.0034  0.8173 -0.1535
11055TIP3    H254657   0.723   4.847   3.980 -0.8707 -2.3952 -1.2403
11056TIP3   OH254658   3.319   6.391   0.005  0.1214  0.4129  0.0886
11056TIP3    H154659   3.277   6.463   0.052 -1.7681 -0.2999 -0.4172
11056TIP3    H254660   3.320   6.318   0.067 -0.8768 -0.0404 -0.4039
11057TIP3   OH254661   1.017   2.228   4.747 -0.7435 -0.1438  0.4287
11057TIP3    H154662   0.940   2.171   4.741 -0.4828 -0.3300 -1.6924
11057TIP3    H254663   1.069   2.190   4.817 -0.4591 -2.7255 -1.0675
11058TIP3   OH254664   5.767   3.210  12.384  0.0673 -0.1923  0.0949
11058TIP3    H154665   5.831   3.222  12.454  0.6492 -1.5165 -0.1812
11058TIP3    H254666   5.808   3.148  12.325  0.1722  1.8673 -2.1700
11059TIP3   OH254667   2.240   4.971  13.907  0.7399  0.4218  0.5077
11059TIP3    H154668   2.215   5.047  13.854  0.2847  0.0668  0.2027
11059TIP3    H254669   2.261   4.904  13.843  2.3355  0.6466  0.7563
11060TIP3   OH254670   0.671   2.921  12.338  0.9833  0.3280  0.1934
11060TIP3    H154671   0.618   2.860  12.286 -1.7321  0.8928  2.1116
11060TIP3    H254672   0.724   2.968  12.273 -1.3215  0.1517 -1.9638
11061TIP3   OH254673   6.232   6.567   2.203 -0.0959 -0.1226  0.3976
11061TIP3    H154674   6.148   6.591   2.165 -0.2629 -0.8387  0.3115
11061TIP3    H254675   6.247   6.633   2.271 -0.0835  0.7974 -0.4808
11062TIP3   OH254676   3.381   6.014   1.844  0.4570 -0.1516 -0.3880
11062TIP3    H154677   3.387   6.074   1.770 -2.4340  1.9296  0.9108
11062TIP3    H254678   3.409   6.065   1.920  0.2625 -1.2086  0.4266
11063TIP3   OH254679   3.264   3.956  16.520 -0.4758  0.7158 -0.4794
11063TIP3    H154680   3.340   4.009  16.497  0.3695 -0.0641  0.4052
11063TIP3    H254681   3.300   3.883  16.571 -1.8909  0.7135  0.5820
11064TIP3   OH254682   4.201   0.272   5.230  0.1451  0.1465  0.0360
11064TIP3    H154683   4.169   0.361   5.248  1.7056  0.5441  1.0123
11064TIP3    H254684   4.123   0.217   5.238 -0.5363  1.2063  1.1496
11065TIP3   OH254685   5.239   1.978   4.271 -0.1191 -0.4157  0.1691
11065TIP3    H154686   5.253   2.051   4.211  2.7893 -1.4069 -0.5236
11065TIP3    H254687   5.185   1.916   4.222  1.0049 -0.5669 -0.9320
11066TIP3   OH254688   4.007   0.222   4.686 -0.5776 -0.5210  0.1508
11066TIP3    H154689   4.077   0.172   4.644 -1.0669  0.1113 -1.5127
11066TIP3    H254690   3.940   0.231   4.618 -1.8700 -0.3131  1.4108
11067TIP3   OH254691   1.801   0.529   4.897  0.1311  0.4415  0.7219
11067TIP3    H154692   1.823   0.588   4.824 -1.1239 -2.0606 -1.8648
11067TIP3    H254693   1.886   0.509   4.937  1.5807 -1.3409 -2.7901
11068TIP3   OH254694   5.758   2.285  11.516  0.5147  0.4342 -0.2225
11068TIP3    H154695   5.717   2.227  11.452 -0.6264 -1.0529  1.7490
11068TIP3    H254696   5.711   2.368  11.507 -1.9943 -0.7579  0.9160
11069TIP3   OH254697   1.318   6.577  14.491  0.9450  0.0885  0.1411
11069TIP3    H154698   1.357   6.585  14.578  0.1301 -0.9126  0.6193
11069TIP3    H254699   1.268   6.658  14.479  1.7075  0.5865  0.2503
11070TIP3   OH254700   4.839   2.261   1.295  0.1813  0.2325  0.0667
11070TIP3    H154701   4.775   2.193   1.271  0.0172  0.2113  0.5632
11070TIP3    H254702   4.902   2.215   1.351  1.0554  0.0714 -1.0051
11071TIP3   OH254703   2.050   0.848   4.311  0.3021  0.3668  0.3778
11071TIP3    H154704   1.976   0.828   4.368  0.5180  0.6417  0.7588
11071TIP3    H254705   2.120   0.791   4.343  0.4370  0.5572  0.4216
11072TIP3   OH254706   4.235   2.683  10.719  0.2539 -0.4330 -0.3538
11072TIP3    H154707   4.139   2.684  10.710  0.2146  1.6729 -0.1471
11072TIP3    H254708   4.265   2.756  10.665  1.5406  0.3708  1.3664
11073TIP3   OH254709   3.825   4.015   1.357  0.3331 -0.2529  0.0720
11073TIP3    H154710   3.773   4.067   1.417  2.2362  0.4743  1.1838
11073TIP3    H254711   3.887   4.077   1.318 -0.2270 -0.8908 -1.9723
11074TIP3   OH254712   5.900   4.096   2.795 -0.1113 -0.0691 -0.1565
11074TIP3    H154713   5.914   4.013   2.749 -0.1857 -0.0973 -0.1279
11074TIP3    H254714   5.806   4.112   2.788 -0.3421 -0.7451  1.1244
11075TIP3   OH254715   1.160   6.638  14.847  0.1501  1.0376 -0.1355
11075TIP3    H154716   1.137   6.553  14.811 -1.4329  1.6220 -0.5903
11075TIP3    H254717   1.194   6.619  14.934  1.0942 -0.1451 -0.7319
11076TIP3   OH254718   6.237   4.880  15.037 -0.0243 -0.4755 -0.3440
11076TIP3    H154719   6.201   4.956  15.084  0.7894  0.2429 -0.8515
11076TIP3    H254720   6.173   4.863  14.968  0.0007  0.0238 -0.4956
11077TIP3   OH254721   1.372   4.801  15.561 -0.2133  0.0696 -0.6346
11077TIP3    H154722   1.372   4.729  15.498 -0.8434 -1.1831  0.7561
11077TIP3    H254723   1.406   4.764  15.642 -0.7898  1.2521  0.1889
11078TIP3   OH254724   2.993   3.541   2.835  0.6160  0.2141  0.1409
11078TIP3    H154725   3.079   3.506   2.859 -0.1088 -1.8832 -0.1111
11078TIP3    H254726   2.934   3.506   2.900 -0.2584  0.5469 -0.4576
11079TIP3   OH254727   5.736   5.491  14.279  0.3828  0.2594  0.6426
11079TIP3    H154728   5.750   5.567  14.334  0.9872  1.2431 -0.8182
11079TIP3    H254729   5.650   5.506  14.239  0.6445  0.3578  0.1014
11080TIP3   OH254730   2.996   4.485  13.335  0.0031 -0.0276 -0.2865
11080TIP3    H154731   2.956   4.527  13.411  0.6969 -1.1171  0.7235
11080TIP3    H254732   3.087   4.513  13.337 -0.3548  1.3548 -1.7804
11081TIP3   OH254733   5.234   3.407   6.510  0.0128 -0.1899  1.0497
11081TIP3    H154734   5.237   3.469   6.583  0.9225  1.7771 -0.5753
11081TIP3    H254735   5.148   3.366   6.518  0.8654 -1.6917  4.4495
11082TIP3   OH254736   2.294   5.656   0.436 -0.2919  0.3895 -0.2074
11082TIP3    H154737   2.344   5.611   0.504 -2.2485  0.6553  1.5066
11082TIP3    H254738   2.301   5.598   0.360  1.3958 -0.2689  0.4084
11083TIP3   OH254739   2.466   4.679  15.628 -0.1232  0.3077  0.1997
11083TIP3    H154740   2.442   4.587  15.619  0.3268  0.0864  1.1858
11083TIP3    H254741   2.559   4.682  15.606 -0.3031  0.6492 -0.5349
11084TIP3   OH254742   1.298   5.374  10.385 -0.5073 -0.4958  0.2184
11084TIP3    H154743   1.284   5.422  10.467  0.0373  0.0924 -0.0182
11084TIP3    H254744   1.356   5.431  10.334 -1.8511 -0.2480 -1.1045
11085TIP3   OH254745   2.575   2.361   1.600  0.9184 -0.7256  0.4360
11085TIP3    H154746   2.525   2.292   1.556  1.1792 -0.1970 -0.7246
11085TIP3    H254747   2.520   2.386   1.675  0.1917 -1.2384  0.0887
11086TIP3   OH254748   6.817   3.040   3.774  0.4067 -0.2335  0.0252
11086TIP3    H154749   6.797   2.948   3.758  0.9879 -0.8348  2.3298
11086TIP3    H254750   6.908   3.051   3.747  0.0592 -0.0822 -1.1095
11087TIP3   OH254751   5.905   2.186   6.818 -0.5459 -0.2113 -0.0354
11087TIP3    H154752   5.930   2.153   6.732 -1.3190 -1.4023  0.1617
11087TIP3    H254753   5.827   2.135   6.841 -0.8466  0.6829  1.0018
11088TIP3   OH254754   0.835   5.909  15.654  0.9364  0.4445 -0.0862
11088TIP3    H154755   0.893   5.982  15.673 -0.4119  1.3487  0.7619
11088TIP3    H254756   0.777   5.904  15.731  1.1568 -1.6937  0.0081
11089TIP3   OH254757   5.017   2.109  13.680 -0.2801  0.4444  0.5184
11089TIP3    H154758   5.104   2.105  13.720 -0.1860  2.0062  0.5290
11089TIP3    H254759   5.034   2.118  13.586 -0.3150  3.3340  0.7162
11090TIP3   OH254760   1.391   5.414   3.744 -0.5820  0.2120 -0.4131
11090TIP3    H154761   1.414   5.323   3.726  1.9592  0.6253  0.2830
11090TIP3    H254762   1.369   5.415   3.837  0.2798  0.4317 -0.2023
11091TIP3   OH254763   3.364   4.456  13.058  0.6960 -0.0723  0.1213
11091TIP3    H154764   3.296   4.443  12.992  0.2769  0.9242  0.3302
11091TIP3    H254765   3.337   4.536  13.104  1.9544  0.2814  0.2792
11092TIP3   OH254766   5.206   4.442   4.223  0.0894 -0.4038 -0.0770
11092TIP3    H154767   5.191   4.531   4.190  0.8133 -0.3796 -0.3629
11092TIP3    H254768   5.150   4.436   4.300 -0.6794 -0.0257 -0.5832
11093TIP3   OH254769   3.322   2.398   6.152  0.0798 -0.2749  0.2508
11093TIP3    H154770   3.256   2.360   6.210  0.4377 -2.3333 -0.5964
11093TIP3    H254771   3.272   2.452   6.092 -0.5267  0.2375  1.1842
11094TIP3   OH254772   5.040   5.006  16.878  0.7028 -0.1120  0.6827
11094TIP3    H154773   5.024   4.976  16.967  2.3708 -1.5800  0.5282
11094TIP3    H254774   5.016   4.932  16.822  2.0222 -0.1108  0.0841
11095TIP3   OH254775   1.129   3.574  16.459  0.4225  0.3938 -0.5549
11095TIP3    H154776   1.101   3.487  16.489 -0.9513  0.2624 -2.0528
11095TIP3    H254777   1.223   3.566  16.447  0.1519 -1.3780 -2.0294
11096TIP3   OH254778   6.543   6.439  11.862 -0.0083 -0.4705  0.4331
11096TIP3    H154779   6.474   6.477  11.918  1.0303  0.4804  1.1128
11096TIP3    H254780   6.588   6.377  11.918  0.3945 -0.2667  0.3365
11097TIP3   OH254781   2.134   5.787   3.113  0.1109  0.1539 -0.3915
11097TIP3    H154782   2.122   5.702   3.071  2.3309  0.3665 -1.6278
11097TIP3    H254783   2.186   5.838   3.051 -0.9523  2.3668  0.4160
11098TIP3   OH254784   2.746   1.905   2.723  0.3324  0.6338  0.0669
11098TIP3    H154785   2.775   1.959   2.797  0.7928  0.6526 -0.1194
11098TIP3    H254786   2.696   1.834   2.763  2.6159 -0.7563  0.6597
11099TIP3   OH254787   0.860   3.255   0.598  0.0778 -0.4997  0.3656
11099TIP3    H154788   0.919   3.307   0.654  0.4495 -1.3176  0.7466
11099TIP3    H254789   0.830   3.317   0.532  1.2629 -0.0188  0.2483
11100TIP3   OH254790   3.566   2.437   2.514 -0.2069 -0.2226 -0.2790
11100TIP3    H154791   3.604   2.507   2.459 -0.2463  1.3830  1.6285
11100TIP3    H254792   3.641   2.381   2.536  0.0698 -0.0707 -0.8039
11101TIP3   OH254793   4.723   4.625   4.020 -0.4434  0.0065  0.5631
11101TIP3    H154794   4.805   4.674   4.017 -1.5370  1.9020  0.3720
11101TIP3    H254795   4.696   4.630   4.112 -0.4854 -0.4090  0.5760
11102TIP3   OH254796   6.745   6.712   6.034  0.0691  0.1146  0.1677
11102TIP3    H154797   6.760   6.676   6.122 -0.7751 -1.3320 -0.2493
11102TIP3    H254798   6.693   6.791   6.049 -1.0016 -0.7054  0.9211
11103TIP3   OH254799   4.943   2.358   0.066  0.2484  0.6305  0.0360
11103TIP3    H154800   5.015   2.319   0.016 -0.5440 -0.5725 -0.2065
11103TIP3    H254801   4.907   2.424   0.007  0.7595  0.8109 -0.0809
11104TIP3   OH254802   5.991   3.664  14.786  0.1620  0.6375  0.6131
11104TIP3    H154803   6.084   3.687  14.795  0.5991 -0.5536 -0.4966
11104TIP3    H254804   5.978   3.654  14.692 -0.7337 -0.5875  0.8474
11105TIP3   OH254805   4.669   0.903  13.746 -0.7171 -0.4807 -0.5285
11105TIP3    H154806   4.672   0.988  13.790 -1.3526 -0.0886 -1.2199
11105TIP3    H254807   4.741   0.853  13.785 -0.3060  0.3885 -0.1541
11106TIP3   OH254808   4.035   2.790  14.205 -0.1056  0.3380  0.4869
11106TIP3    H154809   4.124   2.815  14.230  0.0083 -0.6060  1.0382
11106TIP3    H254810   4.041   2.697  14.184 -1.0634  0.1562  0.9895
11107TIP3   OH254811   4.667   0.678   3.974 -0.3806 -0.3716 -0.3880
11107TIP3    H154812   4.612   0.756   3.973  0.7615  0.4553 -0.7472
11107TIP3    H254813   4.619   0.615   3.919 -1.1559  0.1729 -0.3567
11108TIP3   OH254814   2.458   2.130   5.478  0.3130 -1.1115  0.2343
11108TIP3    H154815   2.540   2.172   5.453  1.0107 -2.4817  0.0954
11108TIP3    H254816   2.414   2.194   5.534 -0.1657  1.0481 -2.4364
11109TIP3   OH254817   4.551   1.601   4.144  0.8110  0.0786  0.3318
11109TIP3    H154818   4.569   1.635   4.232  2.9703 -0.8799  0.3045
11109TIP3    H254819   4.536   1.507   4.157  2.0356 -0.2333 -0.4074
11110TIP3   OH254820   6.030   0.612  12.164  0.1255 -0.5004  0.5249
11110TIP3    H154821   6.006   0.590  12.254  1.8903  1.6668  1.6440
11110TIP3    H254822   5.968   0.564  12.110  0.0153 -3.2042  2.8131
11111TIP3   OH254823   2.635   1.665   2.836  0.6624 -0.2553 -0.5137
11111TIP3    H154824   2.616   1.593   2.776  0.9908 -1.1132  0.3768
11111TIP3    H254825   2.563   1.664   2.899  1.1970 -0.4822  0.1081
11112TIP3   OH254826   4.193   3.103   3.148 -0.6079  0.1984  0.0708
11112TIP3    H154827   4.215   3.146   3.066  0.6088  0.3644  0.4758
11112TIP3    H254828   4.163   3.174   3.205  1.0802  0.4942  0.6283
11113TIP3   OH254829   0.227   4.604   3.336  0.1014 -0.2156 -0.1071
11113TIP3    H154830   0.231   4.616   3.241  1.3383 -0.9208 -0.1683
11113TIP3    H254831   0.316   4.621   3.366 -0.4125  0.6005  1.0163
11114TIP3   OH254832   5.886   1.133  15.883 -0.3735  0.0411  0.0925
11114TIP3    H154833   5.861   1.066  15.821 -1.3144 -0.6189  1.1451
11114TIP3    H254834   5.804   1.177  15.906 -0.1111  0.0259  1.1223
11115TIP3   OH254835   2.373   5.142   3.995  0.2138  0.0026  0.2895
11115TIP3    H154836   2.420   5.224   3.978  3.0760 -1.8651 -1.6248
11115TIP3    H254837   2.319   5.129   3.917  0.9571 -0.6588 -0.1264
11116TIP3   OH254838   0.997   3.759  16.318 -0.0620 -0.4199  0.2019
11116TIP3    H154839   0.945   3.810  16.380 -1.3587 -0.4409 -0.8280
11116TIP3    H254840   1.040   3.692  16.371  0.2164  0.6063  1.3034
11117TIP3   OH254841   1.136   5.831   1.684  0.4802 -0.5642 -0.0673
11117TIP3    H154842   1.112   5.826   1.592 -0.6686 -0.7854  0.2285
11117TIP3    H254843   1.153   5.924   1.699  2.3641 -0.7303 -0.8792
11118TIP3   OH254844   0.503   5.627  12.159  0.4057  0.0921 -0.0557
11118TIP3    H154845   0.587   5.586  12.137  0.1446 -0.5883  0.2090
11118TIP3    H254846   0.519   5.721  12.148  1.0124 -0.0710 -0.6566
11119TIP3   OH254847   5.110   5.262   1.320  0.5180 -0.1416 -0.3376
11119TIP3    H154848   5.061   5.181   1.300  0.7740 -0.5000  0.4659
11119TIP3    H254849   5.044   5.321   1.357 -0.3655  1.1513 -3.5406
11120TIP3   OH254850   2.580   4.051  14.994  0.4682 -0.1599 -0.6444
11120TIP3    H154851   2.672   4.076  15.003 -0.1091  2.9851 -2.2259
11120TIP3    H254852   2.561   4.061  14.901 -1.4243 -0.9718 -0.3824
11121TIP3   OH254853   0.760   0.630  16.490 -0.3719 -0.4309 -0.1636
11121TIP3    H154854   0.767   0.554  16.433 -0.0304  0.2186 -0.9999
11121TIP3    H254855   0.709   0.694  16.440  0.3269  0.3235  0.0550
11122TIP3   OH254856   0.239   4.031   1.395 -0.0900  0.1612 -0.5521
11122TIP3    H154857   0.284   4.032   1.480  0.9788 -1.4109 -1.0591
11122TIP3    H254858   0.268   4.112   1.353 -0.4985  0.8760  0.4898
11123TIP3   OH254859   2.571   4.917  15.187  0.2388  0.2280 -0.3894
11123TIP3    H154860   2.558   5.009  15.164  1.5573  0.2915 -0.9954
11123TIP3    H254861   2.504   4.899  15.253 -0.0099  1.6442 -0.2167
11124TIP3   OH254862   5.747   4.610   4.430  0.0639 -0.4044 -0.9511
11124TIP3    H154863   5.818   4.658   4.386  1.2291 -1.5065 -0.3366
11124TIP3    H254864   5.667   4.638   4.385  0.5749  2.5968 -0.2288
11125TIP3   OH254865   2.762   2.618   2.346 -0.0561 -0.8149 -0.4209
11125TIP3    H154866   2.700   2.600   2.417 -1.1936  1.5990 -0.6978
11125TIP3    H254867   2.846   2.586   2.379 -0.3954  0.8156  2.3609
11126TIP3   OH254868   1.397   5.276   5.025 -0.5393 -0.0647  0.4453
11126TIP3    H154869   1.386   5.184   5.003 -1.0381  0.0979 -0.0224
11126TIP3    H254870   1.488   5.283   5.055 -0.6006 -0.7640  0.8152
11127TIP3   OH254871   6.703   5.978   2.502  0.1751 -0.0408  0.3552
11127TIP3    H154872   6.715   6.066   2.537 -1.1311  0.1946  0.2600
11127TIP3    H254873   6.758   5.923   2.558  0.0788  0.6718  1.1776
11128TIP3   OH254874   2.284   0.123   1.369 -0.1584 -0.1789  0.5856
11128TIP3    H154875   2.355   0.187   1.366 -0.6677  0.3539 -0.2244
11128TIP3    H254876   2.233   0.146   1.447  1.3465 -1.4580  2.0598
11129TIP3   OH254877   5.787   6.072  11.971  0.1939  0.0748 -0.2373
11129TIP3    H154878   5.749   6.143  11.919 -1.4385 -0.3022  0.3852
11129TIP3    H254879   5.713   6.034  12.018  1.2834 -1.0357  0.6539
11130TIP3   OH254880   3.834   6.278   2.146  0.5583  0.5241  0.9066
11130TIP3    H154881   3.763   6.259   2.208  0.9448 -0.5663  1.0475
11130TIP3    H254882   3.853   6.371   2.158 -0.7516  0.8021  0.9626
11131TIP3   OH254883   1.378   5.059  16.878 -0.1264  0.5604 -0.0527
11131TIP3    H154884   1.300   5.088  16.829 -0.5033 -0.2905  0.0377
11131TIP3    H254885   1.419   4.994  16.822  0.9569  1.5369 -0.4358
11132TIP3   OH254886   2.240   3.509  14.520 -0.9352  0.3360  0.7703
11132TIP3    H154887   2.301   3.452  14.567 -1.2922  0.3796  1.2947
11132TIP3    H254888   2.195   3.451  14.459  1.2003  0.6775 -1.2726
11133TIP3   OH254889   3.719   5.829  11.258  0.1593 -0.0486 -0.3665
11133TIP3    H154890   3.691   5.889  11.327  1.6763  1.2370 -0.7946
11133TIP3    H254891   3.762   5.886  11.194 -1.6546 -1.0918 -2.6621
11134TIP3   OH254892   4.218   3.278  16.682  0.0192  0.2718  0.3364
11134TIP3    H154893   4.242   3.256  16.592  1.5024  0.8125  0.5668
11134TIP3    H254894   4.150   3.345  16.673 -1.2557 -1.0528 -0.3482
11135TIP3   OH254895   1.833   4.544   5.234 -0.7244 -0.3486 -0.0403
11135TIP3    H154896   1.863   4.469   5.182 -0.4119 -0.3527  0.1453
11135TIP3    H254897   1.764   4.509   5.290 -0.3529 -0.5701  0.2790
11136TIP3   OH254898   1.685   0.849   4.679  0.1764 -0.0473  0.0595
11136TIP3    H154899   1.733   0.907   4.738  0.5383  0.5911 -0.8359
11136TIP3    H254900   1.593   0.875   4.690  0.0076 -1.1422  1.6296
11137TIP3   OH254901   3.946   2.854  15.829  0.7575 -0.0621  0.8613
11137TIP3    H154902   3.940   2.901  15.746  0.6276  1.5358  1.7447
11137TIP3    H254903   3.917   2.765  15.808  1.7631 -0.0046 -1.0201
11138TIP3   OH254904   5.076   5.510   4.876 -0.1194 -0.7355 -0.4001
11138TIP3    H154905   5.112   5.555   4.953 -1.8497 -0.1635  0.1299
11138TIP3    H254906   5.007   5.569   4.845  0.2796 -1.1598 -2.1637
11139TIP3   OH254907   2.013   5.075   6.021  0.3888  0.4407  0.1233
11139TIP3    H154908   2.013   5.046   6.112  1.9450  0.9494  0.3209
11139TIP3    H254909   2.082   5.023   5.980 -1.0560 -0.6105 -1.0795
11140TIP3   OH254910   4.198   6.658  11.798 -0.8053  0.0470  0.1059
11140TIP3    H154911   4.130   6.711  11.756 -2.0481 -2.0450 -0.6648
11140TIP3    H254912   4.251   6.625  11.726 -1.0832 -1.0871  0.4011
11141TIP3   OH254913   6.288   3.944   4.022 -0.0755  0.1897 -0.1720
11141TIP3    H154914   6.227   4.012   3.992 -1.5529 -0.9595  0.1192
11141TIP3    H254915   6.234   3.866   4.033  1.4866 -0.9206 -0.0039
11142TIP3   OH254916   2.147   4.822  13.074  0.3117  0.1468  0.0180
11142TIP3    H154917   2.175   4.736  13.043 -0.5939  0.1011 -0.6972
11142TIP3    H254918   2.178   4.826  13.164  1.1828 -0.5486 -0.2350
11143TIP3   OH254919   2.929   1.372   2.623 -0.2969 -0.0815  0.4085
11143TIP3    H154920   2.989   1.355   2.696 -0.7336 -2.5281  0.2812
11143TIP3    H254921   2.983   1.417   2.558  1.4410 -2.1481  0.3190
11144TIP3   OH254922   4.782   4.952  11.627  0.0639 -0.7388 -0.1598
11144TIP3    H154923   4.844   4.990  11.690 -1.3632  0.7105  0.4561
11144TIP3    H254924   4.823   4.871  11.599  2.0549 -0.0338  0.5111
11145TIP3   OH254925   0.861   3.725   5.181  0.0952 -0.1379  0.2473
11145TIP3    H154926   0.773   3.695   5.160  0.6524 -1.3668 -0.3948
11145TIP3    H254927   0.858   3.745   5.274 -1.4364  1.9375 -0.1785
11146TIP3   OH254928   6.756   3.987  14.902  0.0310  0.3457 -0.3329
11146TIP3    H154929   6.710   4.030  14.974 -0.9167 -0.0496 -0.6856
11146TIP3    H254930   6.778   3.900  14.937  0.4155  0.4925 -0.2043
11147TIP3   OH254931   3.491   3.360   2.863  0.0358  0.3472  0.2128
11147TIP3    H154932   3.540   3.347   2.782  0.9693 -1.0707  0.9525
11147TIP3    H254933   3.528   3.439   2.902  1.0764 -0.1359  0.2551
11148TIP3   OH254934   0.557   2.827  15.400  0.5642 -0.6376  0.1663
11148TIP3    H154935   0.622   2.774  15.446  0.1852 -2.4964 -1.3024
11148TIP3    H254936   0.484   2.767  15.383  0.3080  0.1803 -2.0249
11149TIP3   OH254937   1.191   4.050  14.601 -0.2452 -0.3657  0.0342
11149TIP3    H154938   1.187   4.031  14.508 -1.5501 -0.0448  0.0007
11149TIP3    H254939   1.137   3.983  14.642 -0.7322  0.2411  0.4139
11150TIP3   OH254940   4.211   4.847   3.822  0.0042 -0.0643 -0.3164
11150TIP3    H154941   4.169   4.927   3.790 -0.3598 -0.5533 -1.0821
11150TIP3    H254942   4.177   4.836   3.911  0.2268  0.7425 -0.1216
11151TIP3   OH254943   1.554   0.408  17.245 -0.3128 -0.0223 -0.1642
11151TIP3    H154944   1.637   0.388  17.201 -1.0345 -0.5327 -1.3631
11151TIP3    H254945   1.576   0.479  17.306  1.0395 -0.2899 -0.2948
11152TIP3   OH254946   3.790   1.839  17.183 -0.1420 -0.0538  0.4221
11152TIP3    H154947   3.810   1.772  17.248  0.4255  0.5441  0.8689
11152TIP3    H254948   3.795   1.792  17.099  2.1692 -0.1921  0.5656
11153TIP3   OH254949   0.799   3.592   6.303 -0.0376 -0.0407 -0.1887
11153TIP3    H154950   0.816   3.499   6.319  0.8218  0.3273  1.1393
11153TIP3    H254951   0.872   3.638   6.345 -1.5784  1.3456  1.1089
11154TIP3   OH254952   6.141   1.283   4.435  0.3521 -0.1689 -0.3961
11154TIP3    H154953   6.121   1.363   4.387 -2.9096 -0.3646  0.4310
11154TIP3    H254954   6.168   1.314   4.522 -1.6782  0.1275  0.1884
11155TIP3   OH254955   3.843   1.336   0.199 -0.7388  0.0997 -0.4294
11155TIP3    H154956   3.850   1.256   0.147 -0.1458 -1.7707  2.3393
11155TIP3    H254957   3.761   1.327   0.247 -0.3835  0.8662  0.3492
11156TIP3   OH254958   0.162   2.849  11.953 -0.3126 -0.4050  0.0484
11156TIP3    H154959   0.202   2.896  12.026  1.4966 -0.3001 -0.9488
11156TIP3    H254960   0.114   2.917  11.905  0.0276 -0.1152  0.1169
11157TIP3   OH254961   4.491   2.821  15.579 -0.3858 -0.3509 -0.8484
11157TIP3    H154962   4.522   2.791  15.664 -0.6948 -1.0620 -0.9798
11157TIP3    H254963   4.408   2.775  15.566 -0.7217  0.3320 -1.1987
11158TIP3   OH254964   5.782   6.513  16.079 -0.2165 -0.4142  0.0923
11158TIP3    H154965   5.699   6.514  16.126 -0.2021 -0.4907  0.1198
11158TIP3    H254966   5.835   6.580  16.121 -1.2162  1.6130 -1.6992
11159TIP3   OH254967   1.848   1.919  13.471 -0.6724 -0.0421  0.5419
11159TIP3    H154968   1.880   1.989  13.527 -1.1286  1.1679 -0.6626
11159TIP3    H254969   1.757   1.942  13.453 -0.0573  0.6194 -2.1491
11160TIP3   OH254970   2.898   1.438  16.088  0.5282  0.4062 -0.2356
11160TIP3    H154971   2.828   1.500  16.066  0.7157  0.7441  0.0974
11160TIP3    H254972   2.961   1.490  16.139  1.8508  0.5617 -1.9240
11161TIP3   OH254973   4.834   3.345   5.302  0.5291  0.3243 -0.1777
11161TIP3    H154974   4.889   3.398   5.359  1.6022 -0.1885 -0.7146
11161TIP3    H254975   4.812   3.404   5.229  2.0261 -0.0289 -0.9627
11162TIP3   OH254976   3.806   5.328   4.145 -0.2383 -0.0577 -0.8819
11162TIP3    H154977   3.895   5.314   4.114 -0.5890  0.9281 -2.4569
11162TIP3    H254978   3.808   5.415   4.185 -0.3708 -0.2748 -0.3900
11163TIP3   OH254979   1.966   0.072   0.335  0.1904  0.0944 -0.4187
11163TIP3    H154980   2.022  -0.004   0.349  0.1709  0.1539  0.0218
11163TIP3    H254981   1.937   0.065   0.244  1.0009  0.1300 -0.6888
11164TIP3   OH254982   2.752   3.206   4.908 -0.0724  0.2721  0.4358
11164TIP3    H154983   2.732   3.226   4.817  1.7971  2.0076  0.3268
11164TIP3    H254984   2.846   3.188   4.909 -0.4302 -2.0285  1.7100
11165TIP3   OH254985   1.015   6.648  16.324  0.0346  0.5996  0.1163
11165TIP3    H154986   1.080   6.605  16.268  0.4264  1.7657 -0.3515
11165TIP3    H254987   1.051   6.735  16.340 -0.4238  0.5314  1.6120
11166TIP3   OH254988   5.112   4.896  10.882 -0.3100  0.5570  0.3166
11166TIP3    H154989   5.203   4.918  10.901 -0.4745  2.6051 -0.9978
11166TIP3    H254990   5.112   4.872  10.789 -0.8715 -1.0752  0.7042
11167TIP3   OH254991   5.526   1.059   1.822 -0.3701 -0.1801  0.2502
11167TIP3    H154992   5.493   0.974   1.793 -1.7397  0.3318  0.2119
11167TIP3    H254993   5.615   1.042   1.852  0.1414 -1.2247 -1.7151
11168TIP3   OH254994   5.272   1.773   6.203 -0.6788  0.3958 -0.2433
11168TIP3    H154995   5.269   1.785   6.298 -0.6027 -1.9805  0.1191
11168TIP3    H254996   5.180   1.766   6.177 -0.7261 -3.0188  0.3616
11169TIP3   OH254997   6.231   6.099  16.677  0.0254  0.2685 -0.1242
11169TIP3    H154998   6.263   6.049  16.602 -2.1175  1.3897 -1.8793
11169TIP3    H254999   6.172   6.039  16.722  0.5361 -0.0744  0.0989
11170TIP3   OH255000   4.041   0.498  14.041 -0.1595 -0.1151  0.0631
11170TIP3    H155001   4.122   0.449  14.055  1.5974  2.8907  1.3878
11170TIP3    H255002   4.017   0.479  13.951  1.1013 -2.3181  0.1071
11171TIP3   OH255003   2.013   2.660   6.415  0.0599  0.3810 -0.2002
11171TIP3    H155004   2.058   2.733   6.457 -0.2105  0.4343 -0.0013
11171TIP3    H255005   1.972   2.612   6.487  0.0856  0.1348 -0.3465
11172TIP3   OH255006   3.375   6.300  16.657 -0.2724  0.3479  0.2305
11172TIP3    H155007   3.405   6.210  16.644 -0.3624  0.3283  0.1577
11172TIP3    H255008   3.446   6.355  16.624 -0.2220  0.3030  0.2649
11173TIP3   OH255009   3.230   2.571  14.166 -0.5319  0.5611 -0.2827
11173TIP3    H155010   3.224   2.517  14.088  0.6792  0.9470 -0.6567
11173TIP3    H255011   3.154   2.630  14.161 -0.1152  1.0118 -1.4998
11174TIP3   OH255012   4.492   0.626  12.074 -0.6124 -0.4994  0.4153
11174TIP3    H155013   4.473   0.558  12.009 -0.7523 -0.2728  0.2144
11174TIP3    H255014   4.406   0.659  12.101 -0.5395  0.7695 -0.7579
11175TIP3   OH255015   2.775   4.227   5.940 -0.1037  0.0051  0.3724
11175TIP3    H155016   2.794   4.257   6.029 -0.7153  0.3990  0.3806
11175TIP3    H255017   2.857   4.239   5.892 -0.0118  0.6221  0.6672
11176TIP3   OH255018   5.135   3.152   5.305 -0.2317 -0.2212 -0.3196
11176TIP3    H155019   5.054   3.154   5.356 -0.9002  0.1427 -1.3614
11176TIP3    H255020   5.150   3.244   5.281  2.0746  0.2118  2.2274
11177TIP3   OH255021   3.380   1.469  14.381  0.0062  0.3301  0.7447
11177TIP3    H155022   3.290   1.496  14.364  0.2913  1.6541  1.1950
11177TIP3    H255023   3.372   1.395  14.441 -0.7716  0.4671  0.8202
11178TIP3   OH255024   5.044   3.958   0.807  0.6559  0.1269  0.1135
11178TIP3    H155025   5.124   3.906   0.805  0.2684 -0.5858  1.6686
11178TIP3    H255026   4.984   3.908   0.863 -0.7326  0.8582 -0.6415
11179TIP3   OH255027   3.351   4.947   3.430  0.2142 -0.6901 -0.2013
11179TIP3    H155028   3.308   4.862   3.430  1.4877 -1.3698 -0.5215
11179TIP3    H255029   3.411   4.944   3.504 -0.5062  0.3768  0.4600
11180TIP3   OH255030   6.522   1.426   1.956 -0.4495  0.1319  0.4276
11180TIP3    H155031   6.518   1.472   1.872  0.0400 -3.3726 -1.7253
11180TIP3    H255032   6.599   1.462   1.999 -1.3175  2.7762 -0.0558
11181TIP3   OH255033   5.645   6.470   3.537  0.3215  0.1435  0.0104
11181TIP3    H155034   5.736   6.463   3.567 -0.5765  1.2124  3.4351
11181TIP3    H255035   5.633   6.564   3.521 -0.0488 -0.0654 -0.9713
11182TIP3   OH255036   3.274   6.100   2.249  0.1069 -0.1912  0.5486
11182TIP3    H155037   3.261   6.141   2.335  1.2584 -0.3861  0.8348
11182TIP3    H255038   3.363   6.067   2.252 -0.3319 -1.5056 -0.1951
11183TIP3   OH255039   4.244   0.751   6.606 -0.3072  0.1331  0.5291
11183TIP3    H155040   4.194   0.675   6.577  0.7417  1.0160 -4.3928
11183TIP3    H255041   4.317   0.757   6.545  2.0534  2.8017  3.2846
11184TIP3   OH255042   1.109   0.023   0.959  0.2468 -0.0915  0.5983
11184TIP3    H155043   1.055   0.015   1.038 -1.1677  1.5433 -0.1166
11184TIP3    H255044   1.182   0.079   0.986  0.6118 -0.8138  1.1254
11185TIP3   OH255045   2.862   3.952  11.821 -0.7329  0.4367  0.4320
11185TIP3    H155046   2.953   3.923  11.827 -1.4909 -2.3524 -0.1099
11185TIP3    H255047   2.844   3.955  11.727 -1.5442 -0.3479  0.5416
11186TIP3   OH255048   0.903   4.435  14.781  0.1389 -0.2455  0.1803
11186TIP3    H155049   0.959   4.411  14.707 -2.3525  0.1049 -1.9589
11186TIP3    H255050   0.872   4.523  14.760 -2.2693 -0.9285  0.5007
11187TIP3   OH255051   2.699   2.469  15.906 -0.3639 -0.1504 -0.0981
11187TIP3    H155052   2.720   2.413  15.831  0.1634  0.9256 -0.7894
11187TIP3    H255053   2.781   2.514  15.925 -1.3708  2.4012 -1.3249
11188TIP3   OH255054   6.426   3.637  13.189 -0.2244  0.7096 -0.0347
11188TIP3    H155055   6.521   3.627  13.189 -0.1714  1.1784 -0.0413
11188TIP3    H255056   6.393   3.565  13.136  0.1286  0.5458 -0.0270
11189TIP3   OH255057   6.283   4.038  12.698  0.5817  0.2649 -0.3073
11189TIP3    H155058   6.275   4.067  12.789  0.5541 -1.0186  0.1146
11189TIP3    H255059   6.262   3.945  12.701  1.6049 -0.0177 -1.4740
11190TIP3   OH255060   4.880   2.049   4.941  0.0707 -0.5403  0.2561
11190TIP3    H155061   4.948   2.025   4.878  0.7011 -0.1608  0.7753
11190TIP3    H255062   4.837   2.125   4.902 -0.6369 -1.2948 -0.4732
11191TIP3   OH255063   6.459   4.823   1.107  0.5004  0.0464  0.1235
11191TIP3    H155064   6.398   4.861   1.170  0.8143  0.2013  0.3414
11191TIP3    H255065   6.508   4.898   1.073  0.0218  0.0114 -0.6447
11192TIP3   OH255066   3.097   1.998   4.236 -0.0779 -0.5412 -0.4821
11192TIP3    H155067   3.021   2.044   4.271 -0.0615 -0.6786 -0.2648
11192TIP3    H255068   3.152   2.067   4.197 -1.4194 -0.6457 -2.7681
11193TIP3   OH255069   3.895   0.592   5.581 -0.2089 -0.2392  0.1754
11193TIP3    H155070   3.913   0.614   5.672  0.5225 -2.4329  0.6292
11193TIP3    H255071   3.943   0.658   5.530  1.0404 -0.1690  1.3846
11194TIP3   OH255072   0.803   4.369  16.877 -0.3080  0.2708  0.3854
11194TIP3    H155073   0.776   4.365  16.785  0.7541 -2.3596  0.1069
11194TIP3    H255074   0.887   4.416  16.875  0.1411 -0.5324 -0.1302
11195TIP3   OH255075   0.344   3.922   5.725 -0.1667 -0.3570  0.1209
11195TIP3    H155076   0.278   3.989   5.744 -0.7108 -0.4179 -1.3660
11195TIP3    H255077   0.293   3.847   5.694  0.5222 -0.9153  0.3343
11196TIP3   OH255078   1.711   6.023  14.956  0.7870  0.6126 -0.3210
11196TIP3    H155079   1.702   5.931  14.933 -0.4213  0.5604  0.2909
11196TIP3    H255080   1.780   6.056  14.898  2.4531 -1.0696  0.6003
11197TIP3   OH255081   1.874   3.722  12.338  0.4966  0.4460  0.1723
11197TIP3    H155082   1.920   3.726  12.254 -0.1599 -1.0354 -0.2926
11197TIP3    H255083   1.795   3.776  12.325  0.3864  0.2061 -0.1755
11198TIP3   OH255084   1.977   1.065   3.291 -0.1509 -0.2470 -0.5142
11198TIP3    H155085   1.948   1.149   3.327  0.2701  0.7141 -2.3303
11198TIP3    H255086   2.061   1.048   3.336 -0.2692  0.2598 -0.0878
11199TIP3   OH255087   4.712   6.131  17.138  0.1289  0.6195  0.2988
11199TIP3    H155088   4.736   6.186  17.213  0.3064  0.5936  0.2611
11199TIP3    H255089   4.768   6.054  17.145 -0.0370  0.4959  0.2848
11200TIP3   OH255090   6.384   1.199  14.539  0.1908  0.0355  0.1461
11200TIP3    H155091   6.456   1.231  14.484 -0.1460  0.6648  0.0655
11200TIP3    H255092   6.410   1.110  14.562  1.1667  0.3678  0.4018
11201TIP3   OH255093   1.371   5.529  13.664 -0.1708 -0.1720 -0.2678
11201TIP3    H155094   1.372   5.436  13.642  0.3049 -0.1680 -0.2629
11201TIP3    H255095   1.294   5.563  13.620 -0.7878 -0.7232  0.3500
11202TIP3   OH255096   2.123   2.251  13.260  0.0616 -0.1432 -0.1320
11202TIP3    H155097   2.107   2.311  13.187  0.9091  0.1152 -0.1150
11202TIP3    H255098   2.192   2.193  13.229  0.9160  0.4010  0.6986
11203TIP3   OH255099   6.623   6.088  12.575 -0.5154 -0.0629 -0.0978
11203TIP3    H155100   6.694   6.026  12.563 -0.1739  0.3224 -0.1009
11203TIP3    H255101   6.544   6.034  12.584 -0.5278 -0.4486 -2.1109
11204TIP3   OH255102   2.964   4.746  11.493  0.2276 -0.1172 -0.3494
11204TIP3    H155103   2.928   4.830  11.464 -0.1138  0.8133  2.4816
11204TIP3    H255104   2.888   4.696  11.522  0.5187 -1.1401 -1.2699
11205TIP3   OH255105   4.702   4.423   6.639  0.4876  0.1591 -0.6652
11205TIP3    H155106   4.655   4.429   6.556 -0.3745 -0.6857 -0.2570
11205TIP3    H255107   4.660   4.351   6.686  1.0767  0.4947  0.4324
11206TIP3   OH255108   0.765   2.682  13.479 -0.3011  0.7159  0.2666
11206TIP3    H155109   0.676   2.694  13.512 -0.5954  1.1253 -0.6408
11206TIP3    H255110   0.818   2.742  13.531 -0.5146  0.3256  0.9485
11207TIP3   OH255111   3.769   1.683   4.175 -0.4026 -0.2365 -0.1141
11207TIP3    H155112   3.772   1.718   4.086 -1.4007  0.0697 -0.0487
11207TIP3    H255113   3.857   1.694   4.209 -0.6241  2.0284 -0.1794
11208TIP3   OH255114   2.155   6.406  16.837  0.0288  0.2232  0.1741
11208TIP3    H155115   2.249   6.392  16.851  0.3233  1.3688 -0.5251
11208TIP3    H255116   2.150   6.460  16.758 -1.1513  1.3394  0.9745
11209TIP3   OH255117   3.913   3.941  17.146 -0.1419 -0.0280 -0.3883
11209TIP3    H155118   3.841   3.998  17.120 -0.1199 -0.8818 -2.5257
11209TIP3    H255119   3.978   3.952  17.077  1.3772 -0.0530  0.9677
11210TIP3   OH255120   6.658   1.696  15.094  0.1747 -0.4287  0.2641
11210TIP3    H155121   6.624   1.774  15.051  1.0302 -0.4268 -0.4434
11210TIP3    H255122   6.722   1.661  15.032  1.5175 -0.3839  1.5726
11211TIP3   OH255123   6.664   1.716   5.784 -0.0302 -0.4234  0.0174
11211TIP3    H155124   6.589   1.659   5.768  1.2505 -2.0233 -0.5238
11211TIP3    H255125   6.687   1.751   5.698  0.2827 -0.5312  0.0526
11212TIP3   OH255126   0.346   4.073   0.060 -0.1103 -0.2499  0.3206
11212TIP3    H155127   0.359   4.005   0.126  0.2176 -0.2917  0.2104
11212TIP3    H255128   0.392   4.149   0.095  0.0248 -0.2584  0.1607
11213TIP3   OH255129   0.218   1.296  14.101 -0.6313 -0.1225 -0.0981
11213TIP3    H155130   0.170   1.280  14.183 -1.3511  1.0160 -0.2764
11213TIP3    H255131   0.219   1.391  14.092  2.7959  0.0416  0.5369
11214TIP3   OH255132   6.605   6.008  15.142  0.1293  0.1560 -0.3668
11214TIP3    H155133   6.520   6.042  15.171 -0.3515 -1.0346 -0.3072
11214TIP3    H255134   6.649   6.084  15.103 -1.0794  0.7352 -0.6694
11215TIP3   OH255135   4.399   4.768   2.370 -0.8799 -0.2662  1.0748
11215TIP3    H155136   4.468   4.703   2.382 -0.2681  0.4077  1.2677
11215TIP3    H255137   4.431   4.846   2.416 -1.0538  0.5579 -0.1680
11216TIP3   OH255138   0.420   1.702  14.942  0.0614 -0.1429 -0.2006
11216TIP3    H155139   0.515   1.693  14.941  0.0175 -0.9122  0.7566
11216TIP3    H255140   0.387   1.619  14.907 -0.2592  0.2108 -0.7506
11217TIP3   OH255141   3.831   4.519   3.834 -0.5605 -0.2571 -0.1359
11217TIP3    H155142   3.923   4.525   3.857 -1.0604  0.9210  1.7778
11217TIP3    H255143   3.792   4.464   3.902 -1.3779 -0.1728 -0.5185
11218TIP3   OH255144   4.144   1.832   5.490 -0.8389  0.2391 -0.0804
11218TIP3    H155145   4.195   1.814   5.411  1.1281  0.5066  1.0702
11218TIP3    H255146   4.152   1.754   5.544  0.0873  1.0235  0.9802
11219TIP3   OH255147   4.617   2.240  14.217  0.1157 -0.2752  0.0926
11219TIP3    H155148   4.706   2.219  14.189 -1.2782 -2.1544 -3.5134
11219TIP3    H255149   4.619   2.231  14.312  3.3857 -1.7969  0.0039
11220TIP3   OH255150   3.574   1.115  14.908  0.0519 -0.0780  0.3311
11220TIP3    H155151   3.655   1.074  14.878  0.4655 -0.4561  1.8587
11220TIP3    H255152   3.584   1.122  15.003 -1.5539  0.2112  0.5164
11221TIP3   OH255153   4.147   4.229  13.082 -0.1453 -0.1622 -0.6845
11221TIP3    H155154   4.112   4.292  13.145  0.7033 -0.7312  0.4176
11221TIP3    H255155   4.187   4.282  13.014 -0.9210  0.4813 -0.6414
11222TIP3   OH255156   5.521   0.095   5.919 -0.4373  0.1965  0.1819
11222TIP3    H155157   5.612   0.075   5.943 -0.8572 -1.4644  0.5327
11222TIP3    H255158   5.469   0.055   5.989 -1.4256  2.7133  0.9942
11223TIP3   OH255159   0.109   2.951   4.080  0.7656 -0.0555  0.7356
11223TIP3    H155160   0.099   2.886   4.150  3.0625  0.7916  1.9563
11223TIP3    H255161   0.157   2.906   4.012  0.8509 -0.1292  0.8447
11224TIP3   OH255162   5.644   0.762   0.673  0.2817  0.1724  0.1678
11224TIP3    H155163   5.733   0.758   0.707  0.2758  0.0736  0.1709
11224TIP3    H255164   5.591   0.792   0.747  0.4216  0.9627 -0.0334
11225TIP3   OH255165   2.975   4.857   5.595 -0.6264  0.0043  0.4956
11225TIP3    H155166   2.966   4.853   5.691 -0.0340 -0.3613  0.5407
11225TIP3    H255167   3.055   4.908   5.581 -1.2463  0.9090  0.1692
11226TIP3   OH255168   0.215   6.132   6.515  0.1182  0.6061 -0.0273
11226TIP3    H155169   0.144   6.162   6.458  0.1541 -1.0066 -0.9950
11226TIP3    H255170   0.172   6.082   6.584  0.1835  1.3796  0.5901
11227TIP3   OH255171   6.677   4.927  11.927 -0.2338  0.3043  0.3718
11227TIP3    H155172   6.665   4.832  11.937 -2.2392  0.5592  0.6364
11227TIP3    H255173   6.758   4.935  11.876 -0.0777 -1.5478  0.2544
11228TIP3   OH255174   4.690   1.381  12.140 -0.4144 -0.2316  0.1133
11228TIP3    H155175   4.785   1.365  12.146 -0.3853  0.5100  2.1327
11228TIP3    H255176   4.668   1.352  12.051  2.0465  1.4167 -1.1627
11229TIP3   OH255177   3.141   1.284   0.173  0.0807 -0.7704  0.3076
11229TIP3    H155178   3.086   1.337   0.230  0.4367 -0.0499 -0.0013
11229TIP3    H255179   3.191   1.348   0.121 -1.2572 -1.3567 -1.8401
11230TIP3   OH255180   5.095   6.235   0.571  0.4508  0.4624 -0.0626
11230TIP3    H155181   5.128   6.146   0.581 -2.7459 -0.9699 -0.7904
11230TIP3    H255182   5.046   6.252   0.651 -1.0138  0.5132 -0.9202
11231TIP3   OH255183   1.203   1.575   4.059  0.1063  0.5696  0.2258
11231TIP3    H155184   1.297   1.579   4.041  0.2050 -1.7130  0.0538
11231TIP3    H255185   1.162   1.618   3.984  0.9681  0.6232 -0.2214
11232TIP3   OH255186   5.140   5.064   5.182 -0.4708 -0.0154 -0.4009
11232TIP3    H155187   5.092   5.145   5.195 -1.6161 -0.3388 -2.2512
11232TIP3    H255188   5.086   4.997   5.222  1.3554  0.2430  2.8114
11233TIP3   OH255189   6.492   5.267  13.772 -0.0067 -0.3622  0.0598
11233TIP3    H155190   6.540   5.316  13.705  0.8380  0.3426  1.1385
11233TIP3    H255191   6.444   5.200  13.723  1.3993 -0.5428 -1.1483
11234TIP3   OH255192   4.890   4.699  11.587 -0.9221 -0.3658  0.1349
11234TIP3    H155193   4.942   4.681  11.509 -1.3987  0.4314 -0.3769
11234TIP3    H255194   4.933   4.650  11.657  0.1160 -0.2608 -0.4196
11235TIP3   OH255195   2.715   3.719   3.199  0.4351 -0.0902 -0.0661
11235TIP3    H155196   2.786   3.669   3.239  0.7068 -0.1903 -0.6518
11235TIP3    H255197   2.637   3.667   3.216  0.6575 -0.5165 -0.3100
11236TIP3   OH255198   2.815   1.719  15.800 -0.1815 -0.2376 -0.0033
11236TIP3    H155199   2.823   1.625  15.814 -1.3395 -0.3704 -0.1693
11236TIP3    H255200   2.818   1.757  15.888 -1.2296 -0.5630  0.1848
11237TIP3   OH255201   0.840   6.455  15.000 -0.2164 -0.0876 -0.5061
11237TIP3    H155202   0.935   6.464  14.998 -0.1925 -0.1325  0.3093
11237TIP3    H255203   0.811   6.489  14.915  0.5396 -0.2943 -0.8512
11238TIP3   OH255204   6.675   1.474   3.581  0.8247 -0.1652 -0.2920
11238TIP3    H155205   6.731   1.540   3.622  0.0006  0.8272 -0.7231
11238TIP3    H255206   6.605   1.461   3.644  1.7568 -1.7689  0.4671
11239TIP3   OH255207   5.512   0.494  11.214 -0.2947 -0.3980  0.5421
11239TIP3    H155208   5.509   0.400  11.194  0.1719 -0.7604  1.9803
11239TIP3    H255209   5.447   0.534  11.157 -1.3725 -1.7786  0.7580
11240TIP3   OH255210   3.260   0.556  11.736 -0.1470  0.1167  0.2317
11240TIP3    H155211   3.324   0.625  11.754 -0.5338  0.2702  1.0644
11240TIP3    H255212   3.176   0.593  11.763 -0.5013 -0.3202 -0.2471
11241TIP3   OH255213   0.139   3.807   2.599  0.0093 -0.1212 -0.1526
11241TIP3    H155214   0.080   3.784   2.671  0.6223  0.8923  0.7065
11241TIP3    H255215   0.175   3.723   2.570  0.1294 -0.5064  1.0590
11242TIP3   OH255216   4.372   1.636   2.604  0.4139  0.4758  0.0262
11242TIP3    H155217   4.288   1.665   2.566  0.7236  1.4328  0.0516
11242TIP3    H255218   4.416   1.717   2.629  1.6984  0.0274 -0.7144
11243TIP3   OH255219   3.845   2.825   2.626  0.1055 -0.8719  0.5013
11243TIP3    H155220   3.830   2.915   2.597 -1.5844 -0.9075  1.1963
11243TIP3    H255221   3.885   2.783   2.550  0.6044  0.3634  0.0485
11244TIP3   OH255222   0.713   6.530  12.966 -0.5946 -0.5896  0.0117
11244TIP3    H155223   0.747   6.612  13.002  1.4440 -0.2840 -2.2827
11244TIP3    H255224   0.712   6.470  13.040  1.4149  0.5047  1.0226
11245TIP3   OH255225   3.371   0.898   4.634  0.6877  0.3415 -0.1964
11245TIP3    H155226   3.347   0.877   4.724 -1.1066  0.4742 -0.5952
11245TIP3    H255227   3.387   0.992   4.635 -1.8757  0.8690 -0.4380
11246TIP3   OH255228   3.269   4.091  15.486 -0.2018  0.7016 -0.3326
11246TIP3    H155229   3.206   4.020  15.497  2.0772 -1.4608 -0.3831
11246TIP3    H255230   3.258   4.145  15.564 -1.3070 -0.2678  0.2147
11247TIP3   OH255231   6.776   0.863   2.398  0.2656 -0.0137 -0.0177
11247TIP3    H155232   6.791   0.903   2.312  0.1998 -0.1376 -0.0867
11247TIP3    H255233   6.864   0.839   2.428  0.0997 -2.6356 -1.3340
11248TIP3   OH255234   0.612   3.025   0.614  0.2984  0.1339  0.1656
11248TIP3    H155235   0.678   3.045   0.547 -0.1474 -0.1198 -0.3539
11248TIP3    H255236   0.548   3.096   0.606 -0.2371 -0.3996 -0.3105
11249TIP3   OH255237   5.543   2.086  14.694 -0.0223  0.2003 -0.4161
11249TIP3    H155238   5.475   2.021  14.709 -0.8222  1.0318 -0.3241
11249TIP3    H255239   5.524   2.155  14.759  0.1564  1.0121 -1.2092
11250TIP3   OH255240   3.556   1.218   5.104 -0.2749 -0.1077  0.5519
11250TIP3    H155241   3.604   1.137   5.126 -0.4467 -0.5653 -0.6502
11250TIP3    H255242   3.482   1.188   5.051 -1.1682  0.7213  1.2954
11251TIP3   OH255243   3.361   1.419  10.491 -0.1140  0.0940 -0.2282
11251TIP3    H155244   3.270   1.402  10.513 -0.5140  1.2143 -0.8880
11251TIP3    H255245   3.357   1.488  10.424  1.1453 -1.0213 -1.5302
11252TIP3   OH255246   5.763   5.351  16.197  0.0066 -0.3153  0.1256
11252TIP3    H155247   5.731   5.395  16.119 -1.4113 -1.1760  0.1728
11252TIP3    H255248   5.689   5.353  16.257  0.5918 -0.9561  0.8933
11253TIP3   OH255249   4.066   1.608   3.206 -0.3689  0.3298  0.6292
11253TIP3    H155250   4.157   1.635   3.216 -0.0905  0.2646 -1.2723
11253TIP3    H255251   4.036   1.591   3.295  1.9424 -1.1703  1.2253
11254TIP3   OH255252   3.116   6.691  16.197 -0.1886 -0.0154  0.0078
11254TIP3    H155253   3.187   6.626  16.204 -0.1024 -0.0175 -0.8139
11254TIP3    H255254   3.153   6.762  16.146 -0.7767 -0.0146 -0.4299
11255TIP3   OH255255   0.028   1.885   2.881  0.0308 -0.1773  0.2816
11255TIP3    H155256   0.043   1.802   2.926  0.1588 -0.2174  0.1656
11255TIP3    H255257   0.113   1.909   2.845  0.1430  0.3333  0.8637
11256TIP3   OH255258   0.846   4.297   5.467 -0.2515 -0.2017  0.2227
11256TIP3    H155259   0.925   4.319   5.418  0.3147 -1.3026  0.6068
11256TIP3    H255260   0.865   4.212   5.508 -0.5117  0.8374  2.7067
11257TIP3   OH255261   3.172   3.196  14.903 -0.2159 -0.2340  0.2175
11257TIP3    H155262   3.251   3.195  14.849 -0.1973 -0.8951  0.2445
11257TIP3    H255263   3.150   3.289  14.912 -0.8813 -0.1557 -1.8653
11258TIP3   OH255264   0.137   6.762  12.227  0.4512  0.5482  0.0666
11258TIP3    H155265   0.052   6.765  12.272  0.3292  0.6094 -0.1618
11258TIP3    H255266   0.120   6.806  12.144  0.6081  0.2140 -0.1432
11259TIP3   OH255267   5.930   5.482   0.107 -0.1574  0.1396 -0.4205
11259TIP3    H155268   5.952   5.550   0.042 -1.0988 -0.1262 -1.0393
11259TIP3    H255269   5.860   5.431   0.065  0.3924 -1.0868  0.1233
11260TIP3   OH255270   3.156   5.509   5.342  0.1042  0.0229  0.2911
11260TIP3    H155271   3.093   5.567   5.384 -0.7671 -0.5837 -0.1483
11260TIP3    H255272   3.106   5.467   5.272  0.8678 -0.8381  0.2522
11261TIP3   OH255273   3.845   6.556  11.622 -0.2103 -0.2730 -0.2417
11261TIP3    H155274   3.750   6.556  11.630 -0.2691  0.9705 -0.6553
11261TIP3    H255275   3.877   6.558  11.712 -0.6453  1.9121 -0.0821
11262TIP3   OH255276   3.518   1.139   0.848  1.1797  0.5772  0.6870
11262TIP3    H155277   3.471   1.138   0.765  2.5268 -2.3799 -0.1829
11262TIP3    H255278   3.449   1.126   0.914  0.5078 -4.2629 -0.5904
11263TIP3   OH255279   3.922   4.267   3.397 -0.3116  0.0345  0.0639
11263TIP3    H155280   3.907   4.237   3.307 -0.0878 -0.6761  0.2581
11263TIP3    H255281   3.920   4.362   3.391  2.9941  0.1487 -1.3243
11264TIP3   OH255282   6.536   6.725  16.310 -0.2353 -0.5655  0.5758
11264TIP3    H155283   6.462   6.664  16.307 -2.4526  1.8832  1.6042
11264TIP3    H255284   6.514   6.786  16.381  2.2993  0.9086  0.2241
11265TIP3   OH255285   3.819   5.399   4.454  0.3685 -0.2376 -0.4105
11265TIP3    H155286   3.746   5.350   4.491  0.8285  0.0623  0.9351
11265TIP3    H255287   3.829   5.476   4.510  1.4790 -0.0827 -0.7826
11266TIP3   OH255288   4.443   1.304   3.895  0.1556 -0.2435  0.2478
11266TIP3    H155289   4.522   1.305   3.950  1.2756 -0.7317 -1.2807
11266TIP3    H255290   4.388   1.236   3.934  1.4614 -1.4544  0.0862
11267TIP3   OH255291   0.707   0.991  16.123 -0.0394 -0.1576 -0.1807
11267TIP3    H155292   0.632   1.019  16.070 -0.1851  1.2430  0.7251
11267TIP3    H255293   0.669   0.942  16.195 -0.2805  1.8977  1.1619
11268TIP3   OH255294   4.477   2.094   2.731 -0.1935 -0.2453 -0.5308
11268TIP3    H155295   4.403   2.066   2.784  1.1323 -1.4982  0.7183
11268TIP3    H255296   4.491   2.186   2.756 -0.3859 -0.4461  0.3381
11269TIP3   OH255297   5.039   0.765   2.571  0.1309 -0.4169  0.1335
11269TIP3    H155298   4.953   0.724   2.570  0.1813 -0.5187 -0.0946
11269TIP3    H255299   5.026   0.848   2.525  0.6423 -1.4302 -1.9563
11270TIP3   OH255300   1.675   1.767   1.525  0.3629  0.0773  0.0208
11270TIP3    H155301   1.587   1.769   1.488  0.6506 -0.5887 -0.7208
11270TIP3    H255302   1.663   1.791   1.617 -0.5080  0.6032 -0.2207
11271TIP3   OH255303   2.771   6.601  13.191 -0.2375 -0.2377 -0.2394
11271TIP3    H155304   2.837   6.667  13.170 -0.0756 -0.5461 -0.6934
11271TIP3    H255305   2.723   6.639  13.265  0.1944  0.1570 -0.1565
11272TIP3   OH255306   1.456   1.390  14.647  0.2981  0.1229 -0.2098
11272TIP3    H155307   1.524   1.458  14.644  0.2309  0.4328  2.7032
11272TIP3    H255308   1.498   1.313  14.610  1.5156  0.8673 -0.4403
11273TIP3   OH255309   4.196   5.245  15.543  0.5019  0.0770  0.0128
11273TIP3    H155310   4.134   5.307  15.582  0.2566 -1.0276  1.4654
11273TIP3    H255311   4.182   5.164  15.591  2.9347 -0.2802  0.2378
11274TIP3   OH255312   5.465   5.023   5.186 -0.4167 -0.0812 -0.2280
11274TIP3    H155313   5.383   5.038   5.231  1.0577  1.3865  2.1835
11274TIP3    H255314   5.488   5.109   5.149  1.0464  0.1135  1.0370
11275TIP3   OH255315   5.876   2.147   5.426  0.3978  0.5480  0.1439
11275TIP3    H155316   5.857   2.223   5.482 -2.6789  0.3178 -0.4485
11275TIP3    H255317   5.916   2.084   5.485  1.7565  2.0633  0.9502
11276TIP3   OH255318   0.146   6.100   3.269  0.0549 -0.5795 -0.1456
11276TIP3    H155319   0.148   6.025   3.328  0.6700 -1.1933 -0.9304
11276TIP3    H255320   0.220   6.154   3.297  1.7266 -1.9504 -1.6989
11277TIP3   OH255321   3.178   6.699   5.273 -0.0564  0.0282 -0.0445
11277TIP3    H155322   3.166   6.618   5.323  1.8438 -0.8317 -0.8945
11277TIP3    H255323   3.262   6.688   5.230 -1.4265  0.8600 -3.1927
11278TIP3   OH255324   0.115   6.603  16.657  0.3894 -0.4740  0.1096
11278TIP3    H155325   0.081   6.688  16.684  0.6635 -0.4636  0.4246
11278TIP3    H255326   0.094   6.545  16.730  2.2920 -0.1711  0.9704
11279TIP3   OH255327   1.962   3.272   1.477  0.1523  0.2387  0.0941
11279TIP3    H155328   2.013   3.216   1.417 -0.0016  0.3546 -0.1477
11279TIP3    H255329   1.889   3.303   1.424 -0.4805 -0.3638  0.5965
11280TIP3   OH255330   0.844   5.759   2.622  0.1512  0.6735 -0.1733
11280TIP3    H155331   0.860   5.727   2.711 -0.9273 -0.7066 -0.4350
11280TIP3    H255332   0.910   5.716   2.569 -1.5147 -1.5868 -0.5818
11281TIP3   OH255333   2.678   1.295   6.528  0.2838  0.0060 -0.3778
11281TIP3    H155334   2.582   1.286   6.521  0.2388  0.0108  0.1873
11281TIP3    H255335   2.697   1.273   6.620  0.7157  0.9869 -0.2257
11282TIP3   OH255336   2.685   5.111  13.038 -0.9425 -0.4351  0.1132
11282TIP3    H155337   2.679   5.151  13.124  0.7106  0.5890 -0.2047
11282TIP3    H255338   2.594   5.092  13.013 -1.6131  1.2055  1.1694
11283TIP3   OH255339   3.807   3.338   3.313 -0.2462  0.2862 -0.4674
11283TIP3    H155340   3.815   3.243   3.312 -1.0338  0.2100 -0.3534
11283TIP3    H255341   3.744   3.357   3.244 -0.7544  0.6504  0.0830
11284TIP3   OH255342   5.705   4.938  17.005  0.5788  0.4924 -0.0174
11284TIP3    H155343   5.701   5.031  17.030  0.7791  0.1961  1.1591
11284TIP3    H255344   5.617   4.918  16.975  0.7594  1.2882 -1.1760
11285TIP3   OH255345   4.208   4.457   3.581  0.1992 -0.1598  0.6344
11285TIP3    H155346   4.171   4.482   3.496  0.4035 -0.5458  0.4284
11285TIP3    H255347   4.298   4.431   3.561 -0.2131 -1.7798  0.7032
11286TIP3   OH255348   2.078   6.121   2.743  0.4341  0.4796  0.1272
11286TIP3    H155349   1.992   6.085   2.761 -0.0167  0.9096 -1.0945
11286TIP3    H255350   2.078   6.207   2.785  0.0841  0.6878 -0.2990
11287TIP3   OH255351   5.334   1.981   2.904 -0.3983 -0.1251 -0.0781
11287TIP3    H155352   5.294   1.911   2.852 -0.7634 -0.2956  0.4219
11287TIP3    H255353   5.399   1.937   2.958 -0.9884 -0.1698  0.6148
11288TIP3   OH255354   4.493   5.827   4.497 -0.8987 -0.3430 -0.3321
11288TIP3    H155355   4.453   5.842   4.412  0.9097  0.9794 -1.0128
11288TIP3    H255356   4.587   5.829   4.480 -0.5009 -0.6985  1.5998
11289TIP3   OH255357   3.073   0.640   0.065 -0.2456  0.0783  0.1207
11289TIP3    H155358   3.016   0.565   0.082  0.4046 -0.5351 -0.3406
11289TIP3    H255359   3.065   0.696   0.142 -0.4427 -0.6591  0.6327
11290TIP3   OH255360   6.696   3.903   4.577 -0.0506 -0.3346  0.2898
11290TIP3    H155361   6.783   3.932   4.550 -0.0663  0.3328  0.8935
11290TIP3    H255362   6.712   3.822   4.626  0.3464  0.2922  1.2213
11291TIP3   OH255363   3.329   1.500  12.026 -0.0156  0.1056 -0.5067
11291TIP3    H155364   3.373   1.415  12.035  0.6777  0.2191 -2.3282
11291TIP3    H255365   3.390   1.553  11.974 -0.5629  1.6436  0.3458
11292TIP3   OH255366   3.379   4.913   3.070  0.8379  0.8056  0.2619
11292TIP3    H155367   3.335   4.828   3.073  0.8973  0.4618 -3.7309
11292TIP3    H255368   3.338   4.964   3.140 -2.3806 -1.0661 -0.0930
11293TIP3   OH255369   3.988   2.877   1.652  0.6914  0.0393  0.4057
11293TIP3    H155370   3.965   2.910   1.565 -0.1066 -1.2460  0.1074
11293TIP3    H255371   4.084   2.883   1.655  0.6128  2.2575  0.3589
11294TIP3   OH255372   2.449   5.250  14.100  0.0866  0.1656  0.4953
11294TIP3    H155373   2.390   5.284  14.033 -0.4522  0.4359  1.1048
11294TIP3    H255374   2.404   5.174  14.136  0.5935 -0.2744  0.2213
11295TIP3   OH255375   5.567   2.460  14.662 -0.3637  0.2233  0.1057
11295TIP3    H155376   5.607   2.434  14.745 -1.5598  0.1995  0.6900
11295TIP3    H255377   5.485   2.502  14.687 -1.1427 -0.5196 -1.1000
11296TIP3   OH255378   3.794   4.271  14.617  0.0347 -0.2485 -0.3150
11296TIP3    H155379   3.833   4.240  14.535 -0.5021 -1.3389 -0.1774
11296TIP3    H255380   3.849   4.232  14.686 -1.2535 -1.8051 -0.1182
11297TIP3   OH255381   0.491   3.616   4.890 -0.0323 -0.0004 -0.0656
11297TIP3    H155382   0.500   3.636   4.984  0.1298  1.5742 -0.3930
11297TIP3    H255383   0.578   3.587   4.864  0.1539  0.3959  0.0991
11298TIP3   OH255384   4.672   5.066  15.686  0.3397 -0.3664  0.2948
11298TIP3    H155385   4.664   5.145  15.633  0.9082  0.7049  1.7570
11298TIP3    H255386   4.689   4.996  15.623  0.3066  0.7467 -0.9788
11299TIP3   OH255387   3.114   6.340   3.982  0.3535  0.1301 -0.8386
11299TIP3    H155388   3.098   6.263   4.036 -0.9304 -0.1028 -1.4994
11299TIP3    H255389   3.084   6.315   3.895  2.0869  0.6046 -1.6082
11300TIP3   OH255390   1.860   1.214  14.443 -0.3076 -0.5074  0.7001
11300TIP3    H155391   1.896   1.137  14.486 -1.3192 -1.3786  0.0215
11300TIP3    H255392   1.908   1.221  14.360 -0.2369 -0.4281  0.7477
11301TIP3   OH255393   3.908   1.080   3.940 -0.6074  0.2823 -0.1639
11301TIP3    H155394   3.869   1.102   3.856 -0.4847  0.2458 -0.2307
11301TIP3    H255395   3.854   1.008   3.974  0.2091 -0.6877 -0.8735
11302TIP3   OH255396   4.392   4.225   1.941  0.3402  0.4678 -0.2751
11302TIP3    H155397   4.372   4.133   1.927  0.8477  0.1908  0.7257
11302TIP3    H255398   4.349   4.271   1.869  0.4736 -0.5936 -1.0486
11303TIP3   OH255399   5.466   2.237  12.673  0.1982  0.0889  0.4267
11303TIP3    H155400   5.511   2.218  12.755 -0.5276  2.6690  1.5199
11303TIP3    H255401   5.496   2.324  12.648 -1.7026  0.5334 -0.5340
11304TIP3   OH255402   5.347   6.579  10.723 -0.0877  0.4231  0.2787
11304TIP3    H155403   5.303   6.495  10.736  1.4975 -0.7372 -1.4340
11304TIP3    H255404   5.360   6.613  10.812 -2.9234  0.0904  0.9126
11305TIP3   OH255405   5.115   2.006   0.846 -0.1405 -0.1187 -0.1343
11305TIP3    H155406   5.026   2.035   0.864  1.2403  2.9637  2.6189
11305TIP3    H255407   5.158   2.081   0.805  1.4829 -1.1699 -0.4736
11306TIP3   OH255408   6.578   5.321   0.763  0.4390 -0.4056  0.0245
11306TIP3    H155409   6.513   5.366   0.817  1.3890 -0.4996  1.2942
11306TIP3    H255410   6.551   5.229   0.765 -1.1423 -0.0801 -2.0564
11307TIP3   OH255411   3.790   4.040   3.746 -0.1561  0.0518  0.2303
11307TIP3    H155412   3.755   3.992   3.672  0.7746 -0.6640  0.2256
11307TIP3    H255413   3.781   4.132   3.722 -0.1825 -0.1638 -0.6183
11308TIP3   OH255414   2.791   0.178  11.217  0.0444  0.3111  0.0362
11308TIP3    H155415   2.739   0.252  11.248 -1.7672 -1.2127  0.8575
11308TIP3    H255416   2.859   0.217  11.163 -0.8121  2.5586  0.4814
11309TIP3   OH255417   5.642   2.719   5.037  0.2412 -0.0947 -0.0045
11309TIP3    H155418   5.639   2.815   5.033 -0.6573 -0.1211 -0.1726
11309TIP3    H255419   5.685   2.693   4.956  2.8972  0.2347  1.1610
11310TIP3   OH255420   1.838   0.828   2.791  0.4840 -0.6591 -0.1143
11310TIP3    H155421   1.925   0.821   2.829  0.6032  0.5205 -0.1385
11310TIP3    H255422   1.852   0.834   2.697  0.4529  0.4820 -0.0588
11311TIP3   OH255423   3.379   2.364   3.533 -0.2510  0.1692 -0.0281
11311TIP3    H155424   3.358   2.408   3.615  1.1165  0.3773  0.2257
11311TIP3    H255425   3.352   2.426   3.465 -0.5939  0.3461  0.2649
11312TIP3   OH255426   2.544   4.780  12.691 -0.4589  0.0341  0.4121
11312TIP3    H155427   2.612   4.834  12.649 -1.0860  0.9089  0.4921
11312TIP3    H255428   2.572   4.690  12.675  0.6759  0.3766  0.3622
11313TIP3   OH255429   5.539   6.629  15.022  0.1339 -0.3589 -0.0628
11313TIP3    H155430   5.589   6.656  15.098 -1.5242  1.2539  0.5203
11313TIP3    H255431   5.544   6.702  14.961 -0.5787 -0.6114 -0.4482
11314TIP3   OH255432   3.192   6.657   5.832  0.0951 -0.1841 -0.4488
11314TIP3    H155433   3.138   6.701   5.766 -0.4143  1.1581  0.7948
11314TIP3    H255434   3.264   6.717   5.849  0.0068 -0.3158  0.4764
11315TIP3   OH255435   4.655   4.681   4.278  0.5142  0.0095 -0.3225
11315TIP3    H155436   4.737   4.674   4.328 -0.2960 -0.3042  1.0290
11315TIP3    H255437   4.612   4.759   4.314 -0.5208 -0.7553  0.1603
11316TIP3   OH255438   2.948   6.022  15.378  0.1895 -0.4317  0.5279
11316TIP3    H155439   2.936   6.080  15.453 -1.6455  0.4527 -0.3816
11316TIP3    H255440   2.890   6.058  15.310  0.6393 -2.0859 -0.8034
11317TIP3   OH255441   0.426   2.248  11.422  0.0376 -0.2633 -0.3305
11317TIP3    H155442   0.462   2.336  11.427  0.4336 -0.5095  3.6490
11317TIP3    H255443   0.465   2.211  11.342 -0.6801  3.2678 -2.5001
11318TIP3   OH255444   0.436   6.810  12.484  0.5984  0.0438 -0.0466
11318TIP3    H155445   0.475   6.858  12.557  0.7758  1.4447 -1.0222
11318TIP3    H255446   0.509   6.794  12.424 -0.0366  1.6643 -1.3465
11319TIP3   OH255447   5.680   1.246  12.638 -0.2535 -0.2237  0.1238
11319TIP3    H155448   5.751   1.310  12.634 -0.6074  0.1475 -0.6006
11319TIP3    H255449   5.627   1.265  12.560 -1.4813 -0.0884  0.9703
11320TIP3   OH255450   0.220   6.133   2.475 -1.0690  0.4057 -0.4344
11320TIP3    H155451   0.280   6.157   2.546 -2.2776 -0.4985  0.9598
11320TIP3    H255452   0.205   6.039   2.487 -1.1746  0.1981 -2.0092
11321TIP3   OH255453   6.808   1.157   0.358 -0.4395  0.5998 -0.2127
11321TIP3    H155454   6.720   1.120   0.343 -0.9920  2.0893 -0.8144
11321TIP3    H255455   6.856   1.136   0.278 -0.1315 -0.4789  0.2377
11322TIP3   OH255456   4.237   6.075  14.152  0.1595 -0.3773 -0.0314
11322TIP3    H155457   4.258   6.168  14.150 -1.1707 -0.0244  1.1605
11322TIP3    H255458   4.141   6.072  14.159 -0.0320 -1.8765 -2.2492
11323TIP3   OH255459   4.689   5.571  15.534 -0.4018 -0.1318  0.6151
11323TIP3    H155460   4.741   5.584  15.613  1.5390 -1.1525 -0.4026
11323TIP3    H255461   4.727   5.631  15.470  0.0776 -1.4436 -0.3762
11324TIP3   OH255462   3.890   3.556  14.874 -0.5485  0.0881  0.1605
11324TIP3    H155463   3.947   3.595  14.807  0.5102 -0.3785  0.7519
11324TIP3    H255464   3.900   3.462  14.860  0.9891 -0.0769  1.9688
11325TIP3   OH255465   6.733   6.488   3.380  0.2165  0.1518  0.6143
11325TIP3    H155466   6.810   6.541   3.396 -0.6804  1.7482 -0.0711
11325TIP3    H255467   6.669   6.549   3.342 -1.5046 -1.0191  1.4759
11326TIP3   OH255468   1.038   0.795   0.269 -0.0800  0.2821 -0.1214
11326TIP3    H155469   0.981   0.818   0.196  1.4537  1.7201 -0.9347
11326TIP3    H255470   1.057   0.702   0.256  0.3776  0.5685 -1.7386
11327TIP3   OH255471   1.685   0.584   1.155 -0.1194 -0.4542 -0.5994
11327TIP3    H155472   1.767   0.634   1.153  0.3551 -1.2252 -1.3372
11327TIP3    H255473   1.616   0.650   1.162  0.5372  0.2465 -0.6531
11328TIP3   OH255474   0.386   3.516  11.677 -0.2829  0.0536  0.0420
11328TIP3    H155475   0.387   3.426  11.711 -2.2529 -0.1242 -0.2473
11328TIP3    H255476   0.424   3.509  11.590 -2.7904 -1.0606 -1.0740
11329TIP3   OH255477   5.136   3.099   2.282  0.2862  0.2843 -0.5230
11329TIP3    H155478   5.220   3.062   2.310  0.0873 -0.4873 -0.8971
11329TIP3    H255479   5.157   3.155   2.208  0.3540 -0.8318 -1.3755
11330TIP3   OH255480   1.166   4.568   6.760  0.0115  0.2313 -0.2577
11330TIP3    H155481   1.083   4.564   6.807  0.3578 -1.3528  0.2678
11330TIP3    H255482   1.144   4.599   6.673 -1.0426  0.3902  0.0600
11331TIP3   OH255483   1.479   3.728  11.185  0.8582  0.4131 -0.1948
11331TIP3    H155484   1.524   3.718  11.101  0.0883 -3.1775 -0.3615
11331TIP3    H255485   1.387   3.709  11.165 -0.2659  4.0186  0.7860
11332TIP3   OH255486   3.506   5.747   3.550 -0.0283 -0.4421  0.2466
11332TIP3    H155487   3.553   5.792   3.479 -0.7489 -0.4415 -0.2439
11332TIP3    H255488   3.433   5.805   3.570 -0.5439 -1.0394  0.1237
11333TIP3   OH255489   0.652   0.148  11.965 -0.7375  0.8027  0.2064
11333TIP3    H155490   0.706   0.074  11.937  0.7571  1.8583  0.1730
11333TIP3    H255491   0.651   0.141  12.061  0.7060  1.5846  0.3005
11334TIP3   OH255492   1.551   2.245   3.433  0.2823  0.8721  1.2964
11334TIP3    H155493   1.467   2.292   3.430  0.1348  0.5987  1.0267
11334TIP3    H255494   1.595   2.269   3.352 -1.3937 -2.3196 -0.7987
11335TIP3   OH255495   3.505   3.853   3.319  0.2470  0.2224 -0.1503
11335TIP3    H155496   3.514   3.816   3.407 -0.2470  0.9926  0.2318
11335TIP3    H255497   3.555   3.935   3.322  1.7617 -0.6053 -1.1386
11336TIP3   OH255498   4.761   6.562   4.225  0.5296  0.3993 -0.0329
11336TIP3    H155499   4.676   6.543   4.265  0.2952  0.2830 -0.5807
11336TIP3    H255500   4.802   6.476   4.215  0.5601  0.4212 -0.0958
11337TIP3   OH255501   5.275   0.578  16.695 -0.1701 -0.3193 -0.0866
11337TIP3    H155502   5.292   0.667  16.667 -1.0790 -0.1899 -0.2475
11337TIP3    H255503   5.304   0.576  16.786  0.0042  0.0947 -0.1314
11338TIP3   OH255504   6.712   6.208  11.165 -0.0056  0.0464 -0.3312
11338TIP3    H155505   6.805   6.228  11.179  0.0742  0.5121 -1.4398
11338TIP3    H255506   6.712   6.118  11.131 -0.0320 -0.2454  0.4168
11339TIP3   OH255507   1.444   6.364  14.459  0.3346 -0.4713 -0.0758
11339TIP3    H155508   1.381   6.436  14.458 -2.7992 -2.8409 -3.6046
11339TIP3    H255509   1.429   6.319  14.542 -0.2472  0.8781  0.5676
11340TIP3   OH255510   5.057   0.543  12.981  0.0208  0.4349 -0.3762
11340TIP3    H155511   5.022   0.504  13.062 -0.0456  0.9579 -0.1502
11340TIP3    H255512   5.118   0.478  12.948 -0.5984 -0.1662 -0.3682
11341TIP3   OH255513   5.107   2.860   4.857  0.0275 -0.0284 -0.5740
11341TIP3    H155514   5.042   2.919   4.818 -0.6443  0.0414  0.6085
11341TIP3    H255515   5.110   2.785   4.798 -0.3929  0.4206 -1.1770
11342TIP3   OH255516   5.854   3.189  11.688  0.2763  0.4376 -0.4306
11342TIP3    H155517   5.938   3.204  11.731 -0.5094  0.4615  1.1544
11342TIP3    H255518   5.794   3.252  11.728 -0.7387 -0.2579 -0.7911
11343TIP3   OH255519   4.642   3.154   5.634 -0.1482 -0.3299 -0.4183
11343TIP3    H155520   4.650   3.184   5.544 -2.0117  0.0975 -0.4874
11343TIP3    H255521   4.612   3.063   5.627  0.2370 -0.4709 -0.2337
11344TIP3   OH255522   0.191   3.553  16.718 -0.1186 -0.4491 -0.0168
11344TIP3    H155523   0.178   3.585  16.808  1.0893 -0.4822  0.1858
11344TIP3    H255524   0.275   3.506  16.721  0.1325 -0.1175 -1.2497
11345TIP3   OH255525   3.334   1.253  14.547 -0.6380  0.0032 -0.0718
11345TIP3    H155526   3.400   1.209  14.600 -0.0884  0.7617 -0.0962
11345TIP3    H255527   3.306   1.328  14.600 -1.1256 -0.0411 -0.2621
11346TIP3   OH255528   5.894   2.269   0.466  0.3433 -0.2738 -0.5090
11346TIP3    H155529   5.925   2.265   0.556 -1.9726  2.0180  0.5022
11346TIP3    H255530   5.954   2.328   0.422  1.8404 -1.8673 -0.7060
11347TIP3   OH255531   0.444   1.100  11.046 -0.3387  0.0251 -0.6924
11347TIP3    H155532   0.399   1.075  10.965 -1.8697 -1.2705  0.4922
11347TIP3    H255533   0.419   1.032  11.109  1.4584  0.5531  0.6668
11348TIP3   OH255534   1.434   6.503  14.747  0.5533  0.2278  0.5344
11348TIP3    H155535   1.434   6.569  14.817 -1.4687  1.4945 -0.5819
11348TIP3    H255536   1.376   6.434  14.779 -1.8957  1.6595 -0.5292
11349TIP3   OH255537   2.840   2.210  10.988  0.3892  0.1851  0.4881
11349TIP3    H155538   2.930   2.178  10.994  0.9418  1.5970  0.1370
11349TIP3    H255539   2.831   2.241  10.898 -0.8548 -1.0421  0.1648
11350TIP3   OH255540   2.289   2.637  16.210  0.0254  0.2636 -0.1115
11350TIP3    H155541   2.347   2.611  16.139  0.0421 -0.1040  0.0340
11350TIP3    H255542   2.324   2.721  16.241 -0.5734  0.9363 -1.1981
11351TIP3   OH255543   2.159   0.325  13.780 -0.1589 -0.3101  0.2660
11351TIP3    H155544   2.167   0.408  13.732 -0.5464 -0.5150 -0.1618
11351TIP3    H255545   2.068   0.299  13.766 -1.4853  1.5007  4.2220
11352TIP3   OH255546   5.161   2.908   7.063 -0.1624  0.0519  0.2666
11352TIP3    H155547   5.231   2.966   7.033 -0.9935  0.6249 -0.6599
11352TIP3    H255548   5.094   2.915   6.994 -0.8897 -0.8983  0.8578
11353TIP3   OH255549   4.306   4.852  16.012 -0.2682 -0.1557 -0.3164
11353TIP3    H155550   4.398   4.858  15.987  0.1090 -0.5035  0.8985
11353TIP3    H255551   4.283   4.760  16.000  0.6915 -0.9537  2.9532
11354TIP3   OH255552   1.143   6.434   0.357 -0.3097 -0.8018  0.3726
11354TIP3    H155553   1.147   6.341   0.338 -1.1407 -0.5948 -0.9214
11354TIP3    H255554   1.177   6.476   0.278 -3.3701  0.0760 -0.6044
11355TIP3   OH255555   3.418   0.108   4.438  0.0506 -0.1917  0.3111
11355TIP3    H155556   3.458   0.190   4.468  0.7713 -0.3394 -0.2015
11355TIP3    H255557   3.493   0.051   4.418 -0.2841  0.2116 -2.6052
11356TIP3   OH255558   1.166   1.479   4.400 -0.5214  0.0012 -0.0902
11356TIP3    H155559   1.119   1.399   4.421 -0.6079 -0.5803 -2.2729
11356TIP3    H255560   1.174   1.479   4.304  2.0562  1.1272  0.0234
11357TIP3   OH255561   6.081   5.116  17.170 -0.8278 -0.3905 -0.1412
11357TIP3    H155562   6.024   5.049  17.132 -1.6433  0.1077  0.1827
11357TIP3    H255563   6.168   5.096  17.135 -1.2792 -0.8920 -1.0050
11358TIP3   OH255564   2.259   1.002   1.355 -0.2153  0.7033 -0.2174
11358TIP3    H155565   2.344   1.031   1.324  1.0059  1.1826  3.1579
11358TIP3    H255566   2.244   0.919   1.309  1.7428  0.9268 -1.3701
11359TIP3   OH255567   0.195   5.423   1.225 -0.7920 -0.5204  0.6888
11359TIP3    H155568   0.163   5.498   1.174  1.5301 -0.2620 -0.5704
11359TIP3    H255569   0.198   5.455   1.315 -0.5177  0.6905  0.2769
11360TIP3   OH255570   4.770   5.780   3.269 -0.3621  0.3542  0.1550
11360TIP3    H155571   4.784   5.700   3.219  0.5252  0.1590  0.7040
11360TIP3    H255572   4.813   5.765   3.353 -0.9693  1.0602  0.6138
11361TIP3   OH255573   0.617   1.145  13.891 -0.5076  0.0603  0.3990
11361TIP3    H155574   0.665   1.220  13.857 -0.3935 -0.5235 -0.7549
11361TIP3    H255575   0.684   1.092  13.935 -0.3284 -0.0870 -0.0486
11362TIP3   OH255576   3.350   5.161  12.824 -0.2168 -0.2033  0.5632
11362TIP3    H155577   3.377   5.209  12.746 -0.4144 -3.1271 -1.4772
11362TIP3    H255578   3.433   5.139  12.868 -0.0053  0.2984  0.4213
11363TIP3   OH255579   4.973   2.164   3.616  0.2975  0.6124  0.1869
11363TIP3    H155580   5.062   2.195   3.599  0.2603  1.8185  1.9158
11363TIP3    H255581   4.929   2.240   3.655 -1.7916  0.3519 -1.5180
11364TIP3   OH255582   6.395   2.680   6.647 -0.7102 -0.1050  0.3167
11364TIP3    H155583   6.447   2.713   6.575 -1.8267 -2.2404 -1.6038
11364TIP3    H255584   6.458   2.641   6.707  0.2450  1.8084  0.6036
11365TIP3   OH255585   0.426   5.634   4.553 -0.1352 -0.1104  0.0523
11365TIP3    H155586   0.391   5.600   4.635 -1.7075 -0.1645 -0.6062
11365TIP3    H255587   0.350   5.667   4.506  1.0277  2.0980 -0.3958
11366TIP3   OH255588   5.600   4.054   2.755  0.7583 -0.0656 -0.3180
11366TIP3    H155589   5.618   3.961   2.770 -1.7931 -0.4256  1.1244
11366TIP3    H255590   5.552   4.057   2.672  0.4075 -0.1195 -0.1205
11367TIP3   OH255591   6.745   1.364  15.406 -0.5660  0.1526 -0.5352
11367TIP3    H155592   6.748   1.408  15.321 -0.0819 -0.1735 -0.6906
11367TIP3    H255593   6.756   1.271  15.385  4.7380  0.3407  0.1964
11368TIP3   OH255594   4.821   1.101   0.236 -0.6553 -0.2507  0.3145
11368TIP3    H155595   4.735   1.094   0.278 -1.1342 -1.1731 -0.7891
11368TIP3    H255596   4.825   1.026   0.177  0.0140  0.9836 -1.2624
11369TIP3   OH255597   4.894   1.870   2.985  0.1055  0.0238 -0.1604
11369TIP3    H155598   4.986   1.896   2.979 -0.1361  1.0886  0.4054
11369TIP3    H255599   4.848   1.951   3.007 -0.9579 -0.5161 -0.3257
11370TIP3   OH255600   2.291   4.526   3.283  0.3584 -0.0731 -0.4041
11370TIP3    H155601   2.262   4.489   3.367 -1.5820  0.5240 -0.7517
11370TIP3    H255602   2.293   4.621   3.299 -3.5218  0.4303 -1.8792
11371TIP3   OH255603   1.596   6.085  15.211  0.5662 -0.1631  0.0875
11371TIP3    H155604   1.521   6.027  15.225  0.3583  0.1753  0.3998
11371TIP3    H255605   1.633   6.057  15.127 -0.0695 -0.1478 -0.2010
11372TIP3   OH255606   0.761   1.982   4.449 -0.3740  0.2400 -0.9883
11372TIP3    H155607   0.816   2.015   4.520  1.0221  0.8178 -2.2939
11372TIP3    H255608   0.684   1.946   4.494  0.4363  0.6131  0.8049
11373TIP3   OH255609   5.447   0.563   0.649  0.3269  0.2549 -0.7850
11373TIP3    H155610   5.517   0.625   0.626  0.5838  0.4668  0.4777
11373TIP3    H255611   5.473   0.481   0.608  1.2498  0.3723 -0.4624
11374TIP3   OH255612   2.141   5.411  13.137 -0.2283  0.1098 -0.1089
11374TIP3    H155613   2.103   5.488  13.178 -0.6732  0.1530 -0.5921
11374TIP3    H255614   2.132   5.342  13.203 -0.1196  0.3886  0.2014
11375TIP3   OH255615   6.220   4.876  16.053 -0.0426 -0.0169 -0.0573
11375TIP3    H155616   6.292   4.925  16.012  0.3960 -0.4204  0.2091
11375TIP3    H255617   6.156   4.864  15.983 -1.8898  4.0493  0.6688
11376TIP3   OH255618   6.789   4.075   2.040 -1.2483 -0.0756  0.1688
11376TIP3    H155619   6.723   4.066   1.971 -0.9978  0.9325 -0.2110
11376TIP3    H255620   6.824   4.163   2.029  1.2252 -1.0845 -0.5914
11377TIP3   OH255621   4.855   4.832  15.031  0.3767 -0.3682 -0.1364
11377TIP3    H155622   4.948   4.851  15.019  0.3974 -0.2149  0.2625
11377TIP3    H255623   4.846   4.812  15.125  0.5015 -3.0707 -0.5999
11378TIP3   OH255624   5.004   4.371  13.566 -0.4598  0.5900  0.5649
11378TIP3    H155625   4.996   4.278  13.542 -0.7850  0.6708  0.3485
11378TIP3    H255626   4.913   4.399  13.579 -0.3917  1.0133  0.1195
11379TIP3   OH255627   4.238   2.129  15.067 -0.3217  0.2380 -0.5337
11379TIP3    H155628   4.254   2.203  15.126  1.2329 -0.8425  0.4937
11379TIP3    H255629   4.322   2.083  15.064 -0.7748 -0.5526 -2.4906
11380TIP3   OH255630   5.050   5.137   4.445  0.6235  0.8998  0.1420
11380TIP3    H155631   5.072   5.126   4.538 -0.7708 -3.2365  0.1906
11380TIP3    H255632   5.104   5.072   4.400 -1.0951  0.5240 -1.5010
11381TIP3   OH255633   2.412   1.344   5.414 -0.0461 -0.0682  0.1034
11381TIP3    H155634   2.371   1.431   5.416 -0.2711 -0.1749  0.1711
11381TIP3    H255635   2.506   1.362   5.421 -0.1571  0.1205  1.4025
11382TIP3   OH255636   1.875   5.268   4.098 -0.7833 -0.2902 -0.3458
11382TIP3    H155637   1.920   5.242   4.017 -0.3221 -0.3154 -0.0885
11382TIP3    H255638   1.786   5.290   4.070 -0.9474 -1.3449 -0.6938
11383TIP3   OH255639   6.016   4.607   2.580  0.0298 -0.2939  0.0222
11383TIP3    H155640   5.974   4.687   2.612 -0.3752  0.5156 -2.3575
11383TIP3    H255641   5.950   4.563   2.527  0.0528 -2.5831  1.7343
11384TIP3   OH255642   0.641   0.445  15.894  0.1587  0.3861 -0.2141
11384TIP3    H155643   0.559   0.396  15.883 -1.2375  1.7595  2.7620
11384TIP3    H255644   0.709   0.386  15.863 -1.6566 -2.3648  0.6932
11385TIP3   OH255645   1.680   1.209  11.467  0.1291  0.0138  0.1927
11385TIP3    H155646   1.625   1.136  11.495 -0.8699  0.9097  0.6055
11385TIP3    H255647   1.749   1.214  11.533 -0.1396 -0.1800  0.4855
11386TIP3   OH255648   0.480   3.388  14.091  0.5842  0.1365  0.3240
11386TIP3    H155649   0.554   3.429  14.047  0.0690  1.2706  0.4766
11386TIP3    H255650   0.403   3.425  14.049  0.0878 -0.6085  0.5473
11387TIP3   OH255651   2.389   4.569   2.897 -0.0654 -0.1602  0.3390
11387TIP3    H155652   2.467   4.609   2.859 -0.6839  0.5888 -0.1585
11387TIP3    H255653   2.346   4.639   2.946 -0.2767 -0.6388  0.8511
11388TIP3   OH255654   6.386   6.788  12.139 -1.3030 -0.2639 -0.5464
11388TIP3    H155655   6.380   6.836  12.056 -0.9630  0.2474 -0.2800
11388TIP3    H255656   6.383   6.856  12.206 -0.4825 -0.5864 -0.1657
11389TIP3   OH255657   6.579   5.834  11.231 -0.1364  0.1557  0.0199
11389TIP3    H155658   6.494   5.877  11.225  0.3565  1.1504 -0.0291
11389TIP3    H255659   6.580   5.773  11.157 -0.3578  0.9619 -0.6624
11390TIP3   OH255660   0.105   4.587  13.636 -0.1605  0.1965 -0.1380
11390TIP3    H155661   0.090   4.578  13.730 -0.0599 -0.0597 -0.1465
11390TIP3    H255662   0.044   4.526  13.595  1.4491 -1.5292 -0.1397
11391TIP3   OH255663   5.556   5.227  14.181 -0.6646 -0.1309  0.3082
11391TIP3    H155664   5.575   5.303  14.126 -0.6202  0.3782  1.0154
11391TIP3    H255665   5.552   5.154  14.120  3.2894 -0.2909  0.0115
11392TIP3   OH255666   5.127   3.753  10.763  0.2307 -0.3736  0.0953
11392TIP3    H155667   5.170   3.703  10.694 -1.5059 -0.2247 -1.1755
11392TIP3    H255668   5.036   3.763  10.733 -0.0448  1.6295  1.3468
11393TIP3   OH255669   5.131   1.057   2.489 -0.3635  0.5694  0.3551
11393TIP3    H155670   5.182   1.063   2.408 -0.6156  0.9954  0.2265
11393TIP3    H255671   5.197   1.054   2.559 -0.1476  2.5199  0.2881
11394TIP3   OH255672   5.242   6.713   6.406 -0.4004  0.1732  0.4112
11394TIP3    H155673   5.246   6.808   6.391 -0.7825  0.1531  0.1582
11394TIP3    H255674   5.333   6.685   6.402 -0.2925  0.5153  0.3649
11395TIP3   OH255675   4.388   0.154  14.670 -0.0828  0.3327  0.0395
11395TIP3    H155676   4.326   0.134  14.600 -1.0492 -1.2691  1.2928
11395TIP3    H255677   4.333   0.176  14.746  0.9050  0.6544  0.6874
11396TIP3   OH255678   5.552   4.667  13.174 -0.3711 -0.1385 -0.2270
11396TIP3    H155679   5.524   4.647  13.084  0.3281 -1.5702 -0.1578
11396TIP3    H255680   5.484   4.627  13.229 -0.9013  0.9073 -0.1075
11397TIP3   OH255681   1.347   2.016   2.446  0.0447 -0.4838  0.1261
11397TIP3    H155682   1.297   1.979   2.374 -2.7580  0.5219  1.4093
11397TIP3    H255683   1.367   1.941   2.503  0.1931 -0.9191 -0.4894
11398TIP3   OH255684   2.033   5.243   3.487  0.2935 -0.5279  0.1188
11398TIP3    H155685   2.117   5.209   3.458  0.4854  2.1911 -3.0328
11398TIP3    H255686   1.974   5.229   3.413 -0.6292  2.1492  0.2452
11399TIP3   OH255687   3.023   1.230  17.204 -0.3131 -0.3588  0.5414
11399TIP3    H155688   3.036   1.307  17.149 -2.6329  0.3859  0.9005
11399TIP3    H255689   3.066   1.252  17.287  0.8146 -0.3411 -0.0297
11400TIP3   OH255690   2.886   3.764  13.894 -0.0937  0.1011 -0.0572
11400TIP3    H155691   2.863   3.696  13.831 -0.4256 -0.5677  0.7666
11400TIP3    H255692   2.982   3.758  13.902  0.0004  0.5006 -0.8338
11401TIP3   OH255693   4.820   5.586  15.771 -0.2196 -0.2660  0.5897
11401TIP3    H155694   4.880   5.533  15.823  0.4844 -0.9355 -0.8254
11401TIP3    H255695   4.779   5.645  15.833  1.8065  0.1140  1.6368
11402TIP3   OH255696   0.359   4.795  14.706  0.6083 -0.3544  0.7439
11402TIP3    H155697   0.378   4.706  14.735 -1.4197 -0.6203  1.4922
11402TIP3    H255698   0.341   4.787  14.612  1.4926 -0.5336  0.5881
11403TIP3   OH255699   0.298   3.079  12.775 -0.8037  0.3868  0.2721
11403TIP3    H155700   0.282   3.095  12.868  1.2645  0.3726  0.6830
11403TIP3    H255701   0.305   2.984  12.768  2.2910  0.4869  0.7875
11404TIP3   OH255702   1.247   2.893  12.458  0.0598  0.3777 -0.2299
11404TIP3    H155703   1.197   2.832  12.511  1.9223 -0.1774  0.9995
11404TIP3    H255704   1.298   2.943  12.521  0.7725  1.1655 -1.3915
11405TIP3   OH255705   1.375   1.368  11.392  0.3476 -0.4457 -0.0763
11405TIP3    H155706   1.381   1.406  11.304 -0.0671  1.5079  0.6921
11405TIP3    H255707   1.382   1.274  11.377  2.4699 -0.0833 -2.0091
11406TIP3   OH255708   5.405   3.764  13.761  0.1494  0.5074  0.1805
11406TIP3    H155709   5.367   3.743  13.676  0.5445 -0.6907  0.2683
11406TIP3    H255710   5.398   3.682  13.811  1.5307  0.6566  0.6737
11407TIP3   OH255711   0.943   5.430  15.329 -0.8371  0.5087  0.4755
11407TIP3    H155712   0.984   5.347  15.353 -0.2555  0.7422  0.2988
11407TIP3    H255713   0.871   5.440  15.391 -0.6044  0.1158  0.8160
11408TIP3   OH255714   0.139   0.154   4.800  0.1948  0.1761  0.5032
11408TIP3    H155715   0.130   0.241   4.839 -2.1068  0.1052  0.2995
11408TIP3    H255716   0.122   0.093   4.872 -2.2561  0.0197 -0.1182
11409TIP3   OH255717   6.506   2.857  16.078 -0.1894 -0.1543 -0.2151
11409TIP3    H155718   6.590   2.812  16.089 -0.1367 -0.8431 -2.6764
11409TIP3    H255719   6.527   2.950  16.083  0.3899 -0.3322  0.9604
11410TIP3   OH255720   5.320   1.015  16.455  0.0836  0.0331  0.1239
11410TIP3    H155721   5.365   1.097  16.474  0.1186 -0.3751  1.9489
11410TIP3    H255722   5.261   1.036  16.382 -0.1915  1.7654  0.8145
11411TIP3   OH255723   0.974   0.612  16.218  0.4064 -0.3172  0.1981
11411TIP3    H155724   0.917   0.543  16.251  2.5304 -2.2571  0.0911
11411TIP3    H255725   0.924   0.654  16.148 -0.0535 -3.5514 -1.6021
11412TIP3   OH255726   6.162   0.319   5.059 -0.4475  0.2010 -0.1571
11412TIP3    H155727   6.216   0.365   5.124 -0.4808  1.5726 -1.0664
11412TIP3    H255728   6.072   0.331   5.089 -0.4606  0.8082 -0.4303
11413TIP3   OH255729   3.367   2.562   3.766  0.7068 -0.1702 -0.6754
11413TIP3    H155730   3.410   2.485   3.804 -0.6247 -1.0070 -0.8066
11413TIP3    H255731   3.277   2.557   3.798  0.7718  1.7952 -0.0197
11414TIP3   OH255732   3.772   6.267  13.871  0.4651  0.4117  0.1097
11414TIP3    H155733   3.706   6.301  13.932 -0.1519 -0.8786  0.1836
11414TIP3    H255734   3.850   6.254  13.925  0.2185  0.2147  0.4233
11415TIP3   OH255735   5.109   5.805  13.962 -0.0666 -0.6110 -0.4800
11415TIP3    H155736   5.176   5.792  14.029 -0.9593 -0.3469  0.4792
11415TIP3    H255737   5.156   5.792  13.879  0.5743 -3.2557  0.1923
11416TIP3   OH255738   2.906   3.025   3.696  0.1131  0.4394 -0.0024
11416TIP3    H155739   2.904   3.117   3.724 -2.4479  0.4391  0.0643
11416TIP3    H255740   2.911   3.030   3.600  0.3862  0.6288  0.0196
11417TIP3   OH255741   3.191   2.826   3.913 -0.0294 -0.9322 -0.0625
11417TIP3    H155742   3.104   2.796   3.888 -1.6161  1.6794  1.8539
11417TIP3    H255743   3.225   2.871   3.836 -1.7112  0.6815  0.0950
11418TIP3   OH255744   4.228   3.153  13.578 -0.1844 -0.3985 -0.9114
11418TIP3    H155745   4.314   3.189  13.602  1.2635 -1.1340 -4.4212
11418TIP3    H255746   4.179   3.228  13.545 -1.8274  0.4247  2.8662
11419TIP3   OH255747   2.042   3.708  15.598  0.0653  0.0771  0.1708
11419TIP3    H155748   1.987   3.631  15.617  0.4303 -0.6105 -1.4020
11419TIP3    H255749   1.990   3.782  15.629 -1.0819 -0.6784  0.1366
11420TIP3   OH255750   5.762   4.305   5.744  0.7323  0.1139  0.0313
11420TIP3    H155751   5.797   4.394   5.755  0.5373  0.5205 -2.2133
11420TIP3    H255752   5.759   4.270   5.833  1.1369  2.2256  0.9491
11421TIP3   OH255753   4.618   3.003   1.339  0.5392  0.1749 -0.5053
11421TIP3    H155754   4.567   3.050   1.273  0.6273  0.5905 -0.2866
11421TIP3    H255755   4.657   2.930   1.292  1.0029  0.7457 -1.0337
11422TIP3   OH255756   3.500   5.290  15.871  0.1234 -0.4639  0.3023
11422TIP3    H155757   3.582   5.241  15.878  0.1776 -0.3049  0.7961
11422TIP3    H255758   3.434   5.222  15.855  0.5267 -0.4704 -1.5267
11423TIP3   OH255759   0.762   0.617   0.865  0.3389  0.1301 -0.2034
11423TIP3    H155760   0.848   0.582   0.841  0.4649  0.9264 -0.9590
11423TIP3    H255761   0.713   0.616   0.783 -1.0530 -2.1128  0.5631
11424TIP3   OH255762   3.673   5.633   0.339 -0.5026  0.0081 -0.1645
11424TIP3    H155763   3.657   5.647   0.432 -1.4881 -2.3143  0.0792
11424TIP3    H255764   3.754   5.583   0.335  0.2132  1.1669 -0.6692
11425TIP3   OH255765   1.428   5.993   0.200  0.1641  0.0384 -0.9059
11425TIP3    H155766   1.395   5.921   0.145  0.4990 -0.0919 -0.9394
11425TIP3    H255767   1.405   5.967   0.289  1.9322 -1.0380 -0.7195
11426TIP3   OH255768   3.400   2.891  16.001  0.4683  0.3871 -0.2430
11426TIP3    H155769   3.494   2.871  16.010  0.1582 -0.3172  2.1080
11426TIP3    H255770   3.360   2.806  15.984  0.0453  0.3051  1.0664
11427TIP3   OH255771   0.711   0.784  15.603  0.2054 -0.7704  0.1844
11427TIP3    H155772   0.616   0.781  15.612  0.1845  0.7362  0.7165
11427TIP3    H255773   0.726   0.820  15.516  0.2713 -0.1953  0.4294
11428TIP3   OH255774   2.871   2.707  12.336  0.1344  0.1895 -0.6979
11428TIP3    H155775   2.782   2.688  12.364  0.0651 -0.9463 -1.6422
11428TIP3    H255776   2.903   2.625  12.298  1.8151  0.3775  0.2162
11429TIP3   OH255777   0.362   3.123   0.966  0.2336 -0.3850  0.5254
11429TIP3    H155778   0.380   3.211   0.998  0.0371 -0.6290  1.3577
11429TIP3    H255779   0.285   3.133   0.909 -0.5329 -0.1730  1.5591
11430TIP3   OH255780   5.295   4.258   3.541  0.0695  0.1929  0.3001
11430TIP3    H155781   5.377   4.288   3.580  1.1381  0.2836 -1.8431
11430TIP3    H255782   5.276   4.323   3.473 -1.0519 -0.5613 -0.1344
11431TIP3   OH255783   2.732   5.532   2.965  0.3407 -0.1206  0.1338
11431TIP3    H155784   2.664   5.503   3.026  0.5399 -0.3366  0.2555
11431TIP3    H255785   2.709   5.490   2.882  0.7151 -0.7534  0.3481
11432TIP3   OH255786   1.251   4.713   2.117 -0.9157  0.0815  0.0585
11432TIP3    H155787   1.297   4.669   2.189  0.5824  0.2830 -0.7377
11432TIP3    H255788   1.300   4.794   2.103 -0.7871 -0.2426 -1.5976
11433TIP3   OH255789   4.194   4.016  14.444  0.3425  0.0705 -0.4301
11433TIP3    H155790   4.228   4.018  14.533  1.1915  3.3107 -0.7042
11433TIP3    H255791   4.220   4.101  14.406 -0.1171 -1.1111 -3.7160
11434TIP3   OH255792   0.095   5.754  14.944  0.1549 -0.0162  0.2545
11434TIP3    H155793   0.085   5.682  14.882  0.0526 -0.0652  0.3275
11434TIP3    H255794   0.020   5.746  15.002  1.0547 -0.9543  1.3637
11435TIP3   OH255795   6.083   6.194   3.794  0.6017  0.1784 -0.4505
11435TIP3    H155796   6.114   6.284   3.802  0.0342  0.2894  0.9124
11435TIP3    H255797   6.018   6.185   3.864  1.6400 -1.6902  0.3803
11436TIP3   OH255798   1.977   2.836  11.575  0.1044  0.3636  0.2154
11436TIP3    H155799   1.962   2.930  11.560 -2.0019 -0.2994 -2.7714
11436TIP3    H255800   2.042   2.811  11.509  0.0916 -0.3917  0.4812
11437TIP3   OH255801   2.369   2.398  16.321 -0.2703  0.5339 -0.1158
11437TIP3    H155802   2.314   2.472  16.296 -1.4546 -0.6159 -1.0412
11437TIP3    H255803   2.324   2.322  16.286  2.4808 -0.3932 -1.9424
11438TIP3   OH255804   1.489   0.077  13.036  0.2416  0.2799 -0.6210
11438TIP3    H155805   1.459   0.053  12.948  0.2602 -0.8384 -0.3361
11438TIP3    H255806   1.409   0.086  13.087  0.2888 -1.0406 -0.2774
11439TIP3   OH255807   4.862   4.084   1.495 -0.1737 -0.3892  0.0208
11439TIP3    H155808   4.861   4.119   1.406  1.9775  0.1222  0.1558
11439TIP3    H255809   4.801   4.141   1.543 -1.5309 -0.8049 -1.1188
11440TIP3   OH255810   4.042   1.488   2.179  0.1842 -0.6686 -0.4065
11440TIP3    H155811   3.980   1.538   2.233 -0.0473 -1.1291 -0.2370
11440TIP3    H255812   4.048   1.403   2.223  1.3629 -0.4544 -0.1087
11441TIP3   OH255813   6.053   2.999   3.353 -0.2349  0.5754 -0.0222
11441TIP3    H155814   5.981   2.973   3.410 -0.0446 -0.0929 -0.0746
11441TIP3    H255815   6.126   2.944   3.380  0.3772  1.5397  0.3061
11442TIP3   OH255816   6.087   3.570   6.563  0.0334 -0.2529 -0.1908
11442TIP3    H155817   6.107   3.495   6.619 -1.0794 -1.3701 -1.2290
11442TIP3    H255818   6.154   3.635   6.586  1.3975 -1.7620  0.3532
11443TIP3   OH255819   6.639   6.207  15.401  0.6160 -0.3236 -0.2093
11443TIP3    H155820   6.709   6.239  15.345  1.1139 -0.4860  0.3107
11443TIP3    H255821   6.610   6.285  15.449  0.0054 -0.1295 -0.8759
11444TIP3   OH255822   0.044   6.819   5.832 -0.0664 -0.1155  0.0266
11444TIP3    H155823  -0.027   6.867   5.790  0.3406 -0.7354 -1.4503
11444TIP3    H255824   0.001   6.761   5.895 -0.7217  0.6583  0.2902
11445TIP3   OH255825   3.917   0.674   5.864 -0.3824  0.1511 -0.2365
11445TIP3    H155826   3.914   0.635   5.951 -2.2421 -1.9800 -1.1234
11445TIP3    H255827   3.856   0.748   5.868 -1.3556 -0.6357  0.0301
11446TIP3   OH255828   3.832   0.345   5.918  0.1007 -0.0152 -0.0851
11446TIP3    H155829   3.916   0.376   5.951 -0.0346  0.0446  0.2063
11446TIP3    H255830   3.852   0.303   5.835  0.5827 -1.1113  0.5775
11447TIP3   OH255831   2.027   5.837   0.699  0.1921 -0.2204  0.6389
11447TIP3    H155832   2.026   5.815   0.606  0.5219 -1.3278  0.8849
11447TIP3    H255833   2.088   5.910   0.706 -1.1950  1.0882 -0.2505
11448TIP3   OH255834   1.225   4.678   0.031  0.2415  0.0208  0.1950
11448TIP3    H155835   1.255   4.766   0.008  3.6712 -0.7538  1.1761
11448TIP3    H255836   1.204   4.684   0.125 -0.4586  0.0014  0.0434
11449TIP3   OH255837   6.052   6.555   4.173  0.3539  1.0256  0.2195
11449TIP3    H155838   5.990   6.595   4.235  1.3291  2.0904  0.5493
11449TIP3    H255839   6.088   6.480   4.221 -1.0872  0.0379 -0.1950
11450TIP3   OH255840   3.933   4.284  12.734 -0.5233 -0.0622  0.2419
11450TIP3    H155841   4.010   4.254  12.686 -1.1080  0.7664 -1.2858
11450TIP3    H255842   3.917   4.216  12.799  2.4253  0.4808  1.6885
11451TIP3   OH255843   6.542   6.813   5.431  0.2688  0.4777  0.0652
11451TIP3    H155844   6.572   6.901   5.454  1.2684  0.2890 -0.4591
11451TIP3    H255845   6.594   6.755   5.486 -0.1868  0.1982  0.2021
11452TIP3   OH255846   1.072   3.774  15.195 -0.3600  0.3244 -0.3238
11452TIP3    H155847   1.017   3.757  15.272  0.2444 -0.3116 -0.0160
11452TIP3    H255848   1.161   3.783  15.231  0.0218 -0.5970 -0.9937
11453TIP3   OH255849   0.448   3.339  11.930 -0.7255 -0.2436 -1.0437
11453TIP3    H155850   0.383   3.375  11.991 -0.7274 -0.1352 -1.1087
11453TIP3    H255851   0.418   3.250  11.912  0.0313 -0.7893  0.2290
11454TIP3   OH255852   2.919   6.056  16.895 -0.9886 -0.0447 -0.7430
11454TIP3    H155853   2.861   6.059  16.971 -2.4835 -0.8671 -1.8095
11454TIP3    H255854   3.007   6.059  16.933 -1.6890  0.9478  0.9295
11455TIP3   OH255855   4.222   3.782   5.541  0.7957  0.2989  0.1142
11455TIP3    H155856   4.296   3.814   5.491  1.9895 -0.9037  1.0140
11455TIP3    H255857   4.236   3.816   5.629 -0.0882  0.6048  0.1454
11456TIP3   OH255858   3.005   4.573  11.129 -0.3944  0.0951 -0.1727
11456TIP3    H155859   2.937   4.572  11.062 -0.9971  2.0487  0.3539
11456TIP3    H255860   3.014   4.665  11.154  3.2682  0.1621 -1.0360
11457TIP3   OH255861   5.902   6.802  16.183 -0.1110 -0.1921 -0.0008
11457TIP3    H155862   5.864   6.848  16.258 -2.4174 -0.9910 -0.6007
11457TIP3    H255863   5.904   6.868  16.113  0.2538  0.0298  0.2138
11458TIP3   OH255864   4.236   1.355   1.065  0.4940  0.5756  0.4100
11458TIP3    H155865   4.240   1.379   1.157 -0.5800 -0.5546  0.7822
11458TIP3    H255866   4.149   1.319   1.053  1.4651 -1.7293 -0.4083
11459TIP3   OH255867   0.788   1.777   4.874  0.4272  0.0073 -0.1264
11459TIP3    H155868   0.744   1.836   4.936 -0.3302  1.3527 -1.8578
11459TIP3    H255869   0.719   1.718   4.845  0.5323  0.0472 -0.4543
11460TIP3   OH255870   4.700   5.511   3.873 -0.2165 -0.2942  0.0925
11460TIP3    H155871   4.621   5.563   3.888  0.7714  0.8900  1.4597
11460TIP3    H255872   4.683   5.429   3.919 -1.1191 -0.5502 -0.6604
11461TIP3   OH255873   1.944   1.813  15.200 -0.0851  0.5104 -0.0425
11461TIP3    H155874   2.037   1.829  15.217  1.1675 -2.9091 -2.5082
11461TIP3    H255875   1.915   1.890  15.152  1.7883  1.2181 -0.1301
11462TIP3   OH255876   1.568   1.106  16.532  0.1282  0.1178 -0.3508
11462TIP3    H155877   1.620   1.128  16.609 -0.9602  0.0216  0.4344
11462TIP3    H255878   1.524   1.024  16.555 -0.5068  0.2884 -0.9190
11463TIP3   OH255879   2.497   0.434   2.238 -0.0220 -0.4124  0.0647
11463TIP3    H155880   2.441   0.369   2.196  0.0661  0.3798 -1.3421
11463TIP3    H255881   2.438   0.482   2.296 -0.2533 -1.2174  0.5036
11464TIP3   OH255882   0.523   3.116  11.634  0.6953 -0.1495  0.5621
11464TIP3    H155883   0.446   3.133  11.580  0.1967 -1.3954  0.8245
11464TIP3    H255884   0.540   3.022  11.622 -0.9273 -1.1199  4.3284
11465TIP3   OH255885   1.764   6.611   1.445 -0.5067  0.0866 -0.0578
11465TIP3    H155886   1.851   6.573   1.435 -0.1904  0.9585 -0.8453
11465TIP3    H255887   1.704   6.537   1.435  0.1440 -0.5699  0.7780
11466TIP3   OH255888   0.803   2.989   5.397 -0.1703  0.0860  0.2503
11466TIP3    H155889   0.717   3.029   5.388  0.2175  0.9179  0.1183
11466TIP3    H255890   0.853   3.051   5.451  0.9536  0.6486 -1.3467
11467TIP3   OH255891   3.902   0.076  11.497 -0.8027 -0.3832 -0.1102
11467TIP3    H155892   3.934  -0.003  11.453 -0.1057  0.3941 -1.0564
11467TIP3    H255893   3.807   0.074  11.484 -0.6226 -0.1914 -1.6924
11468TIP3   OH255894   6.617   4.073  15.123 -0.3150 -0.4394 -0.0039
11468TIP3    H155895   6.577   4.156  15.149  1.0815  0.6959 -1.2990
11468TIP3    H255896   6.601   4.015  15.197 -0.9542  1.0993  1.1320
11469TIP3   OH255897   3.351   5.167   2.406 -0.1384  0.0352  0.8093
11469TIP3    H155898   3.419   5.125   2.458  0.5964  2.6095  2.0763
11469TIP3    H255899   3.269   5.144   2.450  0.4410  1.8121  2.9872
11470TIP3   OH255900   2.632   1.953   5.721 -0.2494  0.4059 -0.2860
11470TIP3    H155901   2.537   1.952   5.712 -0.3855  0.0742  1.0418
11470TIP3    H255902   2.648   1.930   5.812  1.1125  0.4066 -0.5055
11471TIP3   OH255903   3.229   6.816   2.900  0.1708 -0.0987  0.3385
11471TIP3    H155904   3.182   6.747   2.853  0.4363 -1.4972  2.0260
11471TIP3    H255905   3.164   6.853   2.959  0.2598  0.5106  0.0599
11472TIP3   OH255906   1.497   0.336   3.192 -0.3287  0.0785 -0.1095
11472TIP3    H155907   1.476   0.364   3.103 -0.3614  1.0087  0.1816
11472TIP3    H255908   1.494   0.241   3.188 -2.0188  0.1121 -0.7171
11473TIP3   OH255909   6.567   3.935   4.058  0.3553 -0.2701  0.0230
11473TIP3    H155910   6.474   3.922   4.039 -0.1413  0.0058  2.0056
11473TIP3    H255911   6.608   3.944   3.972 -1.5389  0.2241 -0.8899
11474TIP3   OH255912   2.820   3.219  10.447 -0.0508  0.5375 -0.4264
11474TIP3    H155913   2.846   3.196  10.357 -0.9602  1.3523 -0.9105
11474TIP3    H255914   2.770   3.144  10.477 -1.4397  1.0706 -1.3367
11475TIP3   OH255915   5.405   5.197   1.458 -0.4362  0.4548 -0.0074
11475TIP3    H155916   5.358   5.200   1.375  1.5388 -2.3234 -1.3932
11475TIP3    H255917   5.338   5.175   1.523 -1.7011  0.8068 -1.1435
11476TIP3   OH255918   6.299   6.271  13.257 -0.0627 -0.4908  0.0222
11476TIP3    H155919   6.295   6.334  13.329  0.9728  0.9600 -1.1298
11476TIP3    H255920   6.210   6.234  13.252 -0.1162 -0.7255  2.0821
11477TIP3   OH255921   5.960   1.522   4.840 -0.2401 -0.0915 -0.3170
11477TIP3    H155922   5.933   1.432   4.859 -1.5095  0.8886  3.4597
11477TIP3    H255923   6.029   1.541   4.904 -0.8188  1.9423 -0.2141
11478TIP3   OH255924   3.533   4.077  11.399 -0.4928 -0.0374 -0.1753
11478TIP3    H155925   3.623   4.107  11.408 -0.3506  0.5419 -2.7299
11478TIP3    H255926   3.499   4.076  11.488  2.0480 -0.3947  0.8780
11479TIP3   OH255927   2.697   0.839   5.413  0.2078  0.1496  0.8607
11479TIP3    H155928   2.720   0.834   5.320  0.1217 -1.2778  0.9002
11479TIP3    H255929   2.779   0.818   5.459  0.0700  0.1090  1.0885
11480TIP3   OH255930   5.438   3.666   0.905 -0.6261 -0.4171  0.1111
11480TIP3    H155931   5.532   3.652   0.918 -0.3881 -0.1442 -1.2337
11480TIP3    H255932   5.398   3.632   0.985  0.5046 -1.9086  0.0887
11481TIP3   OH255933   6.501   1.292   0.418  0.4459 -0.1816 -0.7414
11481TIP3    H155934   6.420   1.308   0.467  0.2388  0.1964 -1.2012
11481TIP3    H255935   6.493   1.202   0.388 -0.1205  0.0523 -1.3449
11482TIP3   OH255936   6.685   0.848   2.695 -0.5163  0.3940 -0.3526
11482TIP3    H155937   6.680   0.756   2.722  0.2438  0.5556  0.3799
11482TIP3    H255938   6.756   0.850   2.631 -1.4678  0.2384 -1.4454
11483TIP3   OH255939   3.458   0.687  12.382  0.4551  0.5774  0.3973
11483TIP3    H155940   3.418   0.749  12.322  1.6178  0.8244 -0.1647
11483TIP3    H255941   3.400   0.685  12.458 -0.6398  0.8347 -0.4153
11484TIP3   OH255942   2.171   6.107   1.592  0.0801 -0.3599  0.0251
11484TIP3    H155943   2.207   6.056   1.519 -1.2681 -0.0508 -0.8913
11484TIP3    H255944   2.095   6.056   1.621 -0.1558  0.1791  0.3521
11485TIP3   OH255945   0.607   3.683  12.716 -0.1697  0.0193  0.8597
11485TIP3    H155946   0.638   3.596  12.740  1.2211  0.3610  0.4321
11485TIP3    H255947   0.683   3.740  12.731 -1.4723  1.4158  2.5211
11486TIP3   OH255948   2.565   2.939   3.341  0.2545 -0.1183  0.3215
11486TIP3    H155949   2.615   2.996   3.284  0.4749 -0.0984  0.5317
11486TIP3    H255950   2.610   2.855   3.336  0.1144 -0.1908  0.2563
11487TIP3   OH255951   3.369   1.120   5.481 -0.1646 -0.0859 -0.2547
11487TIP3    H155952   3.303   1.144   5.546  2.6171  1.9428  2.0825
11487TIP3    H255953   3.373   1.195   5.421  1.4149  0.8209  0.9167
11488TIP3   OH255954   0.009   5.299   5.986  0.3480  0.0050 -0.4315
11488TIP3    H155955   0.076   5.232   5.971 -1.4839 -1.8815 -0.6540
11488TIP3    H255956   0.024   5.329   6.076  0.7731 -1.2312 -0.0785
11489TIP3   OH255957   3.777   2.210   5.725  0.3881  0.2610 -0.4422
11489TIP3    H155958   3.769   2.114   5.719 -0.6452  0.3844 -1.4504
11489TIP3    H255959   3.809   2.236   5.639  2.2441  0.7138  0.3394
11490TIP3   OH255960   6.397   1.569  14.365  0.4034 -0.7190 -0.1786
11490TIP3    H155961   6.354   1.508  14.305 -1.2085  1.8840 -1.9051
11490TIP3    H255962   6.467   1.608  14.314 -1.4960  2.1330 -0.8741
11491TIP3   OH255963   3.968   4.695  14.948  0.2026  0.8601 -0.4829
11491TIP3    H155964   4.002   4.719  15.034  1.1139  1.2180 -0.9226
11491TIP3    H255965   3.910   4.621  14.964  1.1683  0.2644  0.3147
11492TIP3   OH255966   3.569   3.923  15.123 -0.2216 -0.2259 -0.3024
11492TIP3    H155967   3.653   3.967  15.121  0.2157 -1.0321 -0.0776
11492TIP3    H255968   3.525   3.951  15.043  0.5657 -0.3872 -0.7973
11493TIP3   OH255969   2.530   6.018  16.068  0.2032 -0.5779 -0.0520
11493TIP3    H155970   2.561   5.982  16.151 -0.0906 -1.2029 -0.2097
11493TIP3    H255971   2.441   5.985  16.060  0.2149 -0.4780 -0.5970
11494TIP3   OH255972   3.443   4.600   2.399 -0.6381 -0.4670  0.1481
11494TIP3    H155973   3.428   4.666   2.332 -1.4885 -0.1264  0.6614
11494TIP3    H255974   3.531   4.566   2.380 -0.7240 -0.1284 -0.9127
11495TIP3   OH255975   2.204   1.098  14.624 -0.0732 -0.4793 -0.2798
11495TIP3    H155976   2.198   1.063  14.712  0.6083  1.2122  0.4822
11495TIP3    H255977   2.293   1.131  14.617 -0.5323  0.6752 -1.0889
11496TIP3   OH255978   1.402   0.030   6.032  0.2180  0.7924 -0.5738
11496TIP3    H155979   1.353  -0.020   5.967 -1.4530  1.2115  0.3242
11496TIP3    H255980   1.395   0.121   6.002 -2.1378  1.2352  1.0876
11497TIP3   OH255981   4.223   6.063   0.377  0.5389 -0.5262 -0.3873
11497TIP3    H155982   4.277   6.011   0.318 -0.7863 -1.2330 -1.0204
11497TIP3    H255983   4.234   6.153   0.346  1.9438 -0.5406 -0.0066
11498TIP3   OH255984   0.889   6.283  14.388  0.2300 -0.7293 -0.0406
11498TIP3    H155985   0.973   6.261  14.427  0.8992  0.3643 -0.7905
11498TIP3    H255986   0.857   6.201  14.351  0.9328 -1.1663  0.3017
11499TIP3   OH255987   0.803   0.425  16.276 -0.0309  0.5266  0.3533
11499TIP3    H155988   0.820   0.353  16.216  1.1985  2.8172 -2.2657
11499TIP3    H255989   0.716   0.406  16.312 -1.9894  0.0668 -3.9661
11500TIP3   OH255990   2.655   1.946   1.166 -0.9603 -0.0109  0.0877
11500TIP3    H155991   2.656   1.968   1.073 -0.3325  0.6004  0.2268
11500TIP3    H255992   2.565   1.963   1.193 -1.2148 -0.4529 -0.4654
11501TIP3   OH255993   6.028   5.157  13.090  0.3050 -0.0319  0.1864
11501TIP3    H155994   5.971   5.082  13.078 -0.9951  1.1696 -1.8020
11501TIP3    H255995   6.052   5.184  13.001  1.4973  1.3488  0.8671
11502TIP3   OH255996   0.603   3.528  13.318  0.4610 -0.1396  0.1412
11502TIP3    H155997   0.594   3.572  13.402  1.1178  0.6805 -0.2030
11502TIP3    H255998   0.693   3.545  13.291  0.0928  0.1072 -0.9990
11503TIP3   OH255999   3.432   6.114   3.335  0.0496 -0.1477 -0.4208
11503TIP3    H156000   3.411   6.202   3.366 -0.5483 -0.5269  0.2903
11503TIP3    H256001   3.353   6.063   3.355  0.5484 -0.9362 -0.4352
11504TIP3   OH256002   4.128   6.802   4.088 -0.7587  0.0960 -0.5268
11504TIP3    H156003   4.083   6.797   4.173  0.6050 -0.4543  0.1887
11504TIP3    H256004   4.132   6.711   4.058  2.9015 -0.4588  1.1124
11505TIP3   OH256005   1.863   5.817  14.828  1.1076  0.6069  0.2513
11505TIP3    H156006   1.943   5.765  14.839  0.4214 -0.4794  0.3518
11505TIP3    H256007   1.890   5.894  14.779  1.9971 -0.3548 -0.8205
11506TIP3   OH256008   4.997   4.415  12.310 -0.3653 -0.0258  0.5075
11506TIP3    H156009   5.050   4.495  12.306  1.7469 -1.3626  0.3365
11506TIP3    H256010   5.001   4.379  12.221 -0.9624 -0.5383  0.6805
11507TIP3   OH256011   6.088   2.214  13.049  0.2358 -0.6727 -0.2171
11507TIP3    H156012   6.087   2.285  12.984 -1.5858 -0.2179  0.2332
11507TIP3    H256013   6.146   2.148  13.013  0.5722  0.2990 -1.5082
11508TIP3   OH256014   1.219   6.205  17.021 -0.4413 -0.0341  0.2813
11508TIP3    H156015   1.213   6.239  16.932 -3.8181 -0.0061  0.3900
11508TIP3    H256016   1.181   6.274  17.076  0.3651 -0.5904  1.5973
11509TIP3   OH256017   0.782   5.887  15.924 -0.6280 -0.7640  0.4974
11509TIP3    H156018   0.729   5.807  15.913 -1.2630 -0.2597 -0.2511
11509TIP3    H256019   0.719   5.953  15.952 -0.6055  0.0634 -1.2428
11510TIP3   OH256020   4.842   1.550   4.114 -0.1123  0.4342  0.1773
11510TIP3    H156021   4.821   1.631   4.161 -0.9299 -0.3773  1.2885
11510TIP3    H256022   4.869   1.578   4.027 -0.3617  1.8969  0.5481
11511TIP3   OH256023   3.600   1.191   2.462  0.5907 -0.2509 -0.0368
11511TIP3    H156024   3.530   1.244   2.425  0.1551  0.2571  1.4382
11511TIP3    H256025   3.674   1.205   2.403 -0.8432 -1.7708 -2.3306
11512TIP3   OH256026   0.783   5.561   0.117  0.1662  0.0074  0.4044
11512TIP3    H156027   0.747   5.625   0.055  0.1270  0.5313  0.9571
11512TIP3    H256028   0.793   5.610   0.198 -0.4484 -0.8464  1.0088
11513TIP3   OH256029   4.291   3.711  16.930 -0.2981  0.1709 -0.2121
11513TIP3    H156030   4.253   3.693  16.844 -2.5185  0.3937  0.6663
11513TIP3    H256031   4.369   3.655  16.933 -1.6906 -1.9857 -1.3043
11514TIP3   OH256032   1.003   2.978  16.343 -0.2646 -0.6816  0.0075
11514TIP3    H156033   0.969   3.006  16.258  2.0363  1.9394 -0.2041
11514TIP3    H256034   0.936   3.006  16.406 -0.9232 -0.4876 -0.7626
11515TIP3   OH256035   6.284   5.460   0.101  0.3328  0.5542 -0.2318
11515TIP3    H156036   6.307   5.460   0.008  0.4948 -0.2069 -0.1936
11515TIP3    H256037   6.205   5.407   0.106 -0.0850  1.1841 -0.0291
11516TIP3   OH256038   6.545   3.451   1.538 -0.3897  0.2652 -0.2785
11516TIP3    H156039   6.579   3.467   1.450  0.8743  1.6695  0.4256
11516TIP3    H256040   6.484   3.523   1.554 -2.8567 -1.5208 -1.0227
11517TIP3   OH256041   1.694   6.351  14.679  0.1677 -0.1363 -0.1103
11517TIP3    H156042   1.693   6.281  14.614 -0.8279 -0.6133  0.3913
11517TIP3    H256043   1.603   6.381  14.682  0.4741  0.7902  0.1027
11518TIP3   OH256044   0.787   1.379  15.858  0.4860  0.0332  0.1089
11518TIP3    H156045   0.770   1.291  15.891 -0.6888  0.5951  1.0780
11518TIP3    H256046   0.872   1.372  15.815  1.0779 -1.2487  1.3999
11519TIP3   OH256047   4.866   4.454   2.212  0.6346  0.5638  0.0804
11519TIP3    H156048   4.806   4.424   2.280 -0.4868 -0.8218 -1.4531
11519TIP3    H256049   4.813   4.459   2.133  2.5029 -0.7533 -1.3522
11520TIP3   OH256050   4.908   0.095   1.342  0.2035  0.0934 -0.2399
11520TIP3    H156051   4.976   0.030   1.362  0.6085  0.3750 -0.6536
11520TIP3    H256052   4.829   0.044   1.326  0.8329 -0.4146 -1.8989
11521TIP3   OH256053   1.913   2.433  12.277  0.3793  0.0172 -0.0004
11521TIP3    H156054   1.910   2.338  12.288  0.2011  0.2291  2.0906
11521TIP3    H256055   1.826   2.463  12.305 -0.6987  0.6194 -3.4948
11522TIP3   OH256056   5.945   3.956  13.557 -0.4330 -0.0544 -0.2885
11522TIP3    H156057   5.976   4.047  13.554 -0.4658 -0.0475 -0.4986
11522TIP3    H256058   5.850   3.963  13.545 -0.3032 -0.1846 -1.5187
11523TIP3   OH256059   0.641   1.528  12.252  0.4362 -0.0097 -0.2091
11523TIP3    H156060   0.701   1.484  12.190  0.1951 -2.1564  0.9741
11523TIP3    H256061   0.557   1.485  12.237 -0.0434  0.7043  0.4019
11524TIP3   OH256062   0.925   6.719   4.133 -0.2073  0.3719 -0.7060
11524TIP3    H156063   0.877   6.762   4.203 -0.0080  2.0440 -1.5611
11524TIP3    H256064   0.874   6.737   4.054  0.5284  0.0718 -1.2627
11525TIP3   OH256065   0.264   1.452  14.932 -0.4639 -0.0885 -0.0469
11525TIP3    H156066   0.261   1.377  14.872 -0.5211  1.6312 -2.3070
11525TIP3    H256067   0.194   1.434  14.995 -1.2426 -1.3968 -1.2128
11526TIP3   OH256068   2.159   5.178   3.170 -0.3044  0.4578  0.1976
11526TIP3    H156069   2.220   5.248   3.192 -0.3260  0.6374 -0.3087
11526TIP3    H256070   2.153   5.180   3.075 -1.1569  0.4893  0.2455
11527TIP3   OH256071   0.361   6.465   3.146  0.2714 -0.0611 -0.0632
11527TIP3    H156072   0.322   6.420   3.071  0.0021  1.3932 -0.8314
11527TIP3    H256073   0.353   6.403   3.218  0.3111 -1.3941 -1.1718
11528TIP3   OH256074   2.209   6.580   4.383 -0.7028 -0.0684 -0.1619
11528TIP3    H156075   2.187   6.628   4.463  0.9248  0.0757  0.2505
11528TIP3    H256076   2.218   6.647   4.316 -2.1027 -0.1922 -0.4970
11529TIP3   OH256077   4.611   6.525   2.718 -0.1802  0.3353  0.6955
11529TIP3    H156078   4.706   6.540   2.722 -0.3548  1.1645  2.4490
11529TIP3    H256079   4.592   6.521   2.624  1.5905  0.0969  0.3092
11530TIP3   OH256080   4.894   3.758  16.109  0.5915 -0.1572 -0.0454
11530TIP3    H156081   4.915   3.757  16.202  1.3383  1.0137 -0.1812
11530TIP3    H256082   4.972   3.795  16.067 -1.0818  2.8825 -0.7320
11531TIP3   OH256083   5.022   4.373   5.176  0.1355 -0.0341  0.5629
11531TIP3    H156084   4.933   4.408   5.185 -0.1422 -0.9210  1.5896
11531TIP3    H256085   5.069   4.439   5.125 -1.0581  0.5401  0.1583
11532TIP3   OH256086   0.632   4.915  15.777 -0.3848  0.3732 -0.5271
11532TIP3    H156087   0.600   4.825  15.773 -0.3822  0.3307  0.1784
11532TIP3    H256088   0.676   4.920  15.862 -1.3033  1.3324 -0.0785
11533TIP3   OH256089   6.478   5.280  13.172  0.3820  0.2335 -0.1366
11533TIP3    H156090   6.516   5.204  13.128 -0.1900 -0.0738 -0.0979
11533TIP3    H256091   6.554   5.334  13.195  0.7134  0.2263 -1.1747
11534TIP3   OH256092   4.000   5.932  14.484 -0.1360 -0.3696 -0.1694
11534TIP3    H156093   3.924   5.877  14.502 -0.1748 -0.1040  0.5104
11534TIP3    H256094   4.046   5.938  14.568 -0.7466  1.5654  0.0692
11535TIP3   OH256095   5.456   5.012   3.664 -0.6979 -0.3869 -0.6206
11535TIP3    H156096   5.398   5.019   3.587  0.8368 -0.3051 -1.8196
11535TIP3    H256097   5.486   4.921   3.662  0.9896  0.1536 -1.3971
11536TIP3   OH256098   2.348   3.452  14.787 -0.5303  0.3454 -0.6735
11536TIP3    H156099   2.412   3.416  14.849 -0.1449 -1.7888 -2.1933
11536TIP3    H256100   2.265   3.452  14.835  0.1865  1.0781  0.6142
11537TIP3   OH256101   4.198   3.715   4.335  0.5280 -0.0888 -0.3264
11537TIP3    H156102   4.264   3.658   4.294  0.3697  0.8403 -1.9819
11537TIP3    H256103   4.114   3.674   4.312  0.4456  0.2565 -0.6404
11538TIP3   OH256104   3.683   6.205   1.626 -0.4866 -0.6853  0.5073
11538TIP3    H156105   3.664   6.111   1.633 -0.7147 -0.6493  0.3915
11538TIP3    H256106   3.626   6.245   1.692  0.8885 -0.7828  1.8074
11539TIP3   OH256107   2.213   0.492   4.061  0.0325  0.2503  0.1405
11539TIP3    H156108   2.149   0.428   4.093 -0.9649  0.5353 -1.1951
11539TIP3    H256109   2.169   0.576   4.074  0.5908  0.5360  0.1852
11540TIP3   OH256110   1.003   1.062   2.769 -0.3123  0.1402 -0.1265
11540TIP3    H156111   0.997   0.967   2.760  0.5858  0.1143 -0.6097
11540TIP3    H256112   0.927   1.087   2.822 -0.1561 -0.9310  0.6173
11541TIP3   OH256113   2.954   2.356   0.882  0.3130  0.3118  0.7085
11541TIP3    H156114   2.912   2.417   0.944 -0.1071 -0.3002  1.0330
11541TIP3    H256115   2.889   2.289   0.866  1.2289 -0.7742  1.3821
11542TIP3   OH256116   5.348   3.343   5.545 -0.5921  0.4719  0.1896
11542TIP3    H156117   5.422   3.375   5.597 -0.6276  2.0356 -0.6689
11542TIP3    H256118   5.368   3.250   5.531  0.6235  0.5909  0.9528
11543TIP3   OH256119   1.401   3.873  12.692 -0.0334 -0.3691  0.1665
11543TIP3    H156120   1.379   3.928  12.617  1.0360 -0.4016 -0.1889
11543TIP3    H256121   1.415   3.935  12.764 -2.7777 -0.4164  0.8590
11544TIP3   OH256122   1.567   5.545  12.763  0.0324  0.2725 -0.1600
11544TIP3    H156123   1.661   5.527  12.768  0.5481  2.2279 -1.6400
11544TIP3    H256124   1.561   5.628  12.716 -2.4871 -0.1139 -0.6582
11545TIP3   OH256125   5.916   4.821   3.762  0.6836 -0.2797  0.2608
11545TIP3    H156126   5.908   4.725   3.758 -3.0662 -0.1479  0.5251
11545TIP3    H256127   5.935   4.847   3.671 -1.2029 -1.2068 -0.4557
11546TIP3   OH256128   2.904   3.395   5.901  0.0575  0.3058  0.1580
11546TIP3    H156129   2.838   3.449   5.943 -0.8194 -0.3896 -0.2798
11546TIP3    H256130   2.936   3.447   5.828 -0.2964  0.4950  0.1377
11547TIP3   OH256131   3.038   6.271   6.520  0.5482  1.2325  0.3316
11547TIP3    H156132   3.102   6.226   6.575  1.1129  0.6577 -0.7789
11547TIP3    H256133   2.983   6.202   6.484  0.1637  1.6056  0.1893
11548TIP3   OH256134   2.824   5.553  11.909  0.0926  0.2648  0.6673
11548TIP3    H156135   2.872   5.567  11.827  0.0295  0.9213  0.7345
11548TIP3    H256136   2.855   5.623  11.967 -1.2177  0.9459  0.5824
11549TIP3   OH256137   4.266   6.146   4.482  0.1814  0.3636 -0.5089
11549TIP3    H156138   4.241   6.201   4.409  2.1742  0.7681 -0.9389
11549TIP3    H256139   4.332   6.197   4.530 -0.1556 -0.4099  0.8496
11550TIP3   OH256140   0.207   0.576  16.909  0.0369  0.2177  0.1963
11550TIP3    H156141   0.153   0.653  16.923 -0.4996  0.3622 -2.1448
11550TIP3    H256142   0.296   0.610  16.898  0.0394  0.3426  0.6033
11551TIP3   OH256143   2.281   0.801   2.533  0.5288  0.5633 -0.4242
11551TIP3    H156144   2.376   0.815   2.528  0.1867  3.4110 -0.3734
11551TIP3    H256145   2.248   0.832   2.449 -0.5392  1.8671  0.4316
11552TIP3   OH256146   0.344   2.559   2.108 -0.4081 -0.1863 -0.3598
11552TIP3    H156147   0.343   2.619   2.183  2.0061 -2.0479  1.3204
11552TIP3    H256148   0.290   2.486   2.135 -0.0471 -0.5859 -0.6962
11553TIP3   OH256149   3.900   4.751  15.845  1.0223 -0.5153  0.2194
11553TIP3    H156150   3.837   4.679  15.854 -0.3533  0.4208 -1.3135
11553TIP3    H256151   3.865   4.804  15.774  1.8290  1.8511  1.4972
11554TIP3   OH256152   1.071   6.014   5.307 -0.0242  0.2239  0.8722
11554TIP3    H156153   1.073   5.944   5.373  2.3027  0.6366  1.2995
11554TIP3    H256154   0.978   6.038   5.302 -0.6933 -1.9001  1.7512
11555TIP3   OH256155   3.536   1.425  12.380  0.0289 -0.0695 -0.1030
11555TIP3    H156156   3.556   1.410  12.288 -0.9994  0.1504 -0.3815
11555TIP3    H256157   3.614   1.466  12.416  1.4399 -2.4416 -0.2497
11556TIP3   OH256158   1.636   5.654  16.808 -0.5950 -0.2664 -0.7521
11556TIP3    H156159   1.695   5.709  16.859  0.4292 -2.0029  0.0289
11556TIP3    H256160   1.562   5.637  16.866 -0.1927 -0.9094 -0.4058
11557TIP3   OH256161   1.418   1.428   1.496  0.2000  0.3086 -0.3587
11557TIP3    H156162   1.380   1.494   1.555  1.0751 -0.0337  0.6205
11557TIP3    H256163   1.508   1.458   1.482  0.3597 -0.2650 -0.5535
11558TIP3   OH256164   2.182   3.535  13.996  0.5122 -0.4258 -0.3226
11558TIP3    H156165   2.110   3.520  13.935 -0.0939  0.2433  0.2150
11558TIP3    H256166   2.177   3.462  14.058  0.6257 -0.6610 -0.5867
11559TIP3   OH256167   5.683   5.291   4.503  0.1769  0.0576 -0.0227
11559TIP3    H156168   5.730   5.237   4.439  0.1460 -0.1388  0.1184
11559TIP3    H256169   5.597   5.306   4.462 -0.2584 -1.0223  0.4549
11560TIP3   OH256170   4.511   1.356  14.780  0.3349 -0.1043  0.2746
11560TIP3    H156171   4.572   1.284  14.765 -1.6508 -1.7676 -0.3056
11560TIP3    H256172   4.428   1.313  14.799 -1.0694  2.0452 -0.6534
11561TIP3   OH256173   6.060   4.657   1.432  0.5510  0.3492 -0.6215
11561TIP3    H156174   6.008   4.673   1.512  0.7582  1.4374 -0.6928
11561TIP3    H256175   6.149   4.680   1.457  0.7294  0.0571 -0.9881
11562TIP3   OH256176   1.197   5.227   3.389 -1.4556 -0.4883 -0.5353
11562TIP3    H156177   1.144   5.152   3.360 -1.0797 -0.2983 -1.7343
11562TIP3    H256178   1.158   5.251   3.474 -1.7166 -1.8968 -0.2185
11563TIP3   OH256179   3.946   2.176  11.528 -0.2485  0.0624 -0.4243
11563TIP3    H156180   3.970   2.237  11.598  1.5039  1.6815 -2.3000
11563TIP3    H256181   3.875   2.221  11.481  0.2965  0.1782 -1.1588
11564TIP3   OH256182   3.889   4.363  16.149  0.5094 -0.3741 -0.0341
11564TIP3    H156183   3.809   4.317  16.175  1.7795 -1.7939  1.6596
11564TIP3    H256184   3.959   4.300  16.166  1.9060  0.2509 -2.9464
11565TIP3   OH256185   4.200   4.637  12.712 -0.3330  0.0908 -0.6050
11565TIP3    H156186   4.273   4.689  12.678  0.1340  1.1082  1.7733
11565TIP3    H256187   4.143   4.623  12.636  0.2570  2.8430 -1.6681
11566TIP3   OH256188   4.259   4.248  14.042 -0.3670 -0.0377  0.2741
11566TIP3    H156189   4.171   4.210  14.039  0.1768 -1.3106 -0.3920
11566TIP3    H256190   4.253   4.327  13.990 -0.9562 -0.5041 -0.3812
11567TIP3   OH256191   4.159   0.679  11.478 -0.6207  0.2681  0.4617
11567TIP3    H156192   4.092   0.619  11.510 -1.2443  1.1126  0.7784
11567TIP3    H256193   4.125   0.709  11.393 -0.0106 -0.2954  0.0063
11568TIP3   OH256194   6.743   5.416  15.937 -1.0774  0.3664 -0.6668
11568TIP3    H156195   6.725   5.331  15.977  0.1608  0.9091  1.1985
11568TIP3    H256196   6.781   5.395  15.852 -1.0163 -0.9494 -0.3391
11569TIP3   OH256197   3.308   5.101   5.079 -0.4662 -0.0398  0.0888
11569TIP3    H156198   3.286   5.192   5.098  3.2331  1.0846 -0.2297
11569TIP3    H256199   3.323   5.099   4.985  1.0943 -0.4702  0.3054
11570TIP3   OH256200   2.112   4.038  14.232 -0.1361  0.1136 -0.6539
11570TIP3    H156201   2.126   4.079  14.147  2.0132 -3.0382 -2.0113
11570TIP3    H256202   2.056   3.962  14.214  0.8347 -0.9483  0.5677
11571TIP3   OH256203   1.661   2.091  14.755  0.0527  0.2058  0.2553
11571TIP3    H156204   1.620   2.058  14.836  0.3258  2.0696  1.2038
11571TIP3    H256205   1.749   2.054  14.756  0.1463  0.4292  0.9589
11572TIP3   OH256206   2.164   3.277  14.085  0.1994 -0.2856  0.4130
11572TIP3    H156207   2.109   3.272  14.006  1.9072  1.6236 -0.9880
11572TIP3    H256208   2.226   3.205  14.075  0.1185 -0.3319  0.2385
11573TIP3   OH256209   6.513   5.242  15.698  1.0577 -0.3088  0.2181
11573TIP3    H156210   6.515   5.214  15.607 -0.9787  0.5081 -0.1261
11573TIP3    H256211   6.502   5.337  15.694 -3.5610 -0.5938  1.1394
11574TIP3   OH256212   0.389   4.544   0.281  0.5879 -0.0060  0.1138
11574TIP3    H156213   0.416   4.553   0.190 -1.7507  0.1486 -0.6293
11574TIP3    H256214   0.414   4.626   0.322  1.6787 -0.0847 -0.3672
11575TIP3   OH256215   1.934   4.693  15.313  0.0800 -0.5009  0.1379
11575TIP3    H156216   1.854   4.669  15.265 -1.1553 -2.1218  2.8020
11575TIP3    H256217   1.980   4.610  15.325  1.0811  0.1015  0.5498
11576TIP3   OH256218   3.484   6.612  12.522 -0.0593  0.0691 -0.2631
11576TIP3    H156219   3.412   6.568  12.478 -0.4744 -0.1194  0.5938
11576TIP3    H256220   3.493   6.695  12.476  0.5664 -0.7755 -1.7382
11577TIP3   OH256221   0.503   3.168  14.251 -0.0889 -0.0256  0.1716
11577TIP3    H156222   0.500   3.234  14.182  0.6825  1.0399  1.1264
11577TIP3    H256223   0.553   3.209  14.322 -0.5488 -1.2246  1.2280
11578TIP3   OH256224   4.492   2.199   4.572 -0.0538 -0.2122  0.0314
11578TIP3    H156225   4.578   2.220   4.535  0.0277  0.4898  0.6020
11578TIP3    H256226   4.488   2.103   4.569  1.8887 -0.4675  2.4256
11579TIP3   OH256227   0.848   5.969   6.314 -0.4745  0.3053 -0.8120
11579TIP3    H156228   0.898   5.909   6.260 -1.7111 -0.8199 -0.7681
11579TIP3    H256229   0.757   5.941   6.303 -0.7455 -0.7835  2.7430
11580TIP3   OH256230   5.972   4.334  15.139 -0.0008  0.1964 -0.2937
11580TIP3    H156231   5.892   4.371  15.101  0.8663  1.6583 -0.7876
11580TIP3    H256232   6.039   4.346  15.071  0.9198  0.1694  0.5855
11581TIP3   OH256233   2.539   5.190   3.236 -0.1841  0.0232  0.3801
11581TIP3    H156234   2.603   5.206   3.167 -1.5080 -0.0223 -0.8960
11581TIP3    H256235   2.483   5.268   3.236 -0.8996 -0.4829  0.6092
11582TIP3   OH256236   5.079   1.898  10.964  0.3659 -0.1864  0.4554
11582TIP3    H156237   5.165   1.896  10.923 -0.0506  0.4735 -0.5019
11582TIP3    H256238   5.034   1.971  10.921 -0.5966 -0.3818  1.0945
11583TIP3   OH256239   2.789   4.187  11.977  0.6044 -0.6895  0.3723
11583TIP3    H156240   2.794   4.152  12.066 -1.0180 -2.4358 -0.1529
11583TIP3    H256241   2.841   4.127  11.925  2.4252  0.9094  0.2064
11584TIP3   OH256242   6.208   6.364   3.118 -0.2045 -0.3264  0.1248
11584TIP3    H156243   6.221   6.308   3.194  0.4619 -1.5196 -0.8282
11584TIP3    H256244   6.147   6.432   3.148 -1.7876 -2.0685  1.0640
11585TIP3   OH256245   5.262   1.338   0.959 -0.2124  0.2716 -0.1247
11585TIP3    H156246   5.236   1.297   1.041  3.4222  0.7305  1.4481
11585TIP3    H256247   5.284   1.264   0.902 -0.8370 -0.0317  0.0181
11586TIP3   OH256248   1.032   5.071  17.248 -0.1296  0.8095 -0.7072
11586TIP3    H156249   1.031   5.051  17.154  0.2743  1.0844 -0.7728
11586TIP3    H256250   1.124   5.089  17.267 -0.1024  0.1061 -0.1169
11587TIP3   OH256251   4.486   1.075  16.015 -0.5512  0.0593 -0.0439
11587TIP3    H156252   4.417   1.104  16.076  0.0634  1.3772  0.0643
11587TIP3    H256253   4.444   1.076  15.929 -1.3964 -1.7092  0.2943
11588TIP3   OH256254   1.809   5.656   5.584  0.2062  0.0706  0.6694
11588TIP3    H156255   1.780   5.715   5.514 -0.3804  1.6136  2.1525
11588TIP3    H256256   1.777   5.696   5.664  0.9901 -1.5788  1.8619
11589TIP3   OH256257   4.424   0.373  13.718 -0.5498 -0.6739 -0.1637
11589TIP3    H156258   4.337   0.386  13.680 -0.5819  1.2107  0.4267
11589TIP3    H256259   4.457   0.462  13.731  1.1886 -1.3506  0.2641
11590TIP3   OH256260   1.716   0.595   2.246 -0.0753 -0.0477 -0.0135
11590TIP3    H156261   1.774   0.592   2.322 -1.9873  1.6538  1.6468
11590TIP3    H256262   1.748   0.668   2.193  1.7868 -1.7669 -1.4204
11591TIP3   OH256263   2.485   0.879   4.008  0.4964 -0.3828 -0.1527
11591TIP3    H156264   2.396   0.874   4.043  0.4247 -2.0813 -0.4823
11591TIP3    H256265   2.540   0.840   4.076  1.1573  1.4677  0.4371
11592TIP3   OH256266   3.291   0.618   1.835 -0.6053  1.0258  0.0110
11592TIP3    H156267   3.289   0.523   1.845 -0.7017  0.7069 -2.3412
11592TIP3    H256268   3.369   0.646   1.882  0.0771 -0.3719 -0.2421
11593TIP3   OH256269   1.232   0.354   0.963  0.0077 -0.1710  0.5783
11593TIP3    H156270   1.243   0.264   0.993 -1.2161 -0.3040  0.7038
11593TIP3    H256271   1.158   0.387   1.014 -0.1274  0.6015 -0.0991
11594TIP3   OH256272   2.497   6.365   5.664  0.0338  0.3244 -0.5818
11594TIP3    H156273   2.464   6.288   5.711 -0.6724 -0.1247 -1.7693
11594TIP3    H256274   2.575   6.392   5.714 -0.9219  0.1439  1.0791
11595TIP3   OH256275   0.589   3.672   0.717  0.4976  0.2147  0.1975
11595TIP3    H156276   0.507   3.696   0.675  0.9661  0.8066 -0.4044
11595TIP3    H256277   0.649   3.654   0.645  1.3395  1.3275  0.5971
11596TIP3   OH256278   2.030   1.147   3.013  0.2107  0.2323  0.3456
11596TIP3    H156279   2.023   1.112   3.102 -0.4389  0.5180  0.4164
11596TIP3    H256280   2.093   1.090   2.969 -0.9617 -1.1852  0.3983
11597TIP3   OH256281   6.618   1.691   3.344 -0.0378 -0.0579  0.1702
11597TIP3    H156282   6.652   1.627   3.406 -0.6248  0.3521  0.9229
11597TIP3    H256283   6.605   1.641   3.263 -1.3250 -1.1114  0.9876
11598TIP3   OH256284   1.270   4.449   1.020  0.0064 -0.1871 -0.1634
11598TIP3    H156285   1.183   4.434   1.058 -0.9551 -0.0255 -2.2008
11598TIP3    H256286   1.287   4.371   0.967  0.6711  0.2504 -0.6033
11599TIP3   OH256287   6.613   3.483  17.068  0.2573 -0.3028 -0.3150
11599TIP3    H156288   6.539   3.422  17.071  1.3208 -1.6317 -0.2773
11599TIP3    H256289   6.575   3.568  17.092 -1.1326 -1.0755  0.3366
11600TIP3   OH256290   0.152   5.535   3.591 -0.0713 -0.0441  0.1128
11600TIP3    H156291   0.079   5.512   3.534  0.3889  2.3497 -1.5963
11600TIP3    H256292   0.121   5.611   3.641  0.2213 -0.9151  1.7107
11601TIP3   OH256293   6.496   0.598   1.944  0.3406 -0.8171  0.0940
11601TIP3    H156294   6.470   0.506   1.937  1.7031 -1.1626 -0.7447
11601TIP3    H256295   6.453   0.629   2.024 -0.8510 -1.9280 -0.0846
11602TIP3   OH256296   2.790   0.153   6.336 -0.4522  0.7397 -0.2805
11602TIP3    H156297   2.868   0.166   6.390 -1.2728  0.8591  0.9044
11602TIP3    H256298   2.730   0.223   6.362 -1.4561 -0.1106 -0.2324
11603TIP3   OH256299   4.990   3.485  16.056 -0.1550 -0.5958 -0.2808
11603TIP3    H156300   4.962   3.577  16.051  0.5540 -0.2926  0.9508
11603TIP3    H256301   5.053   3.483  16.128 -0.6671 -2.1913  0.1534
11604TIP3   OH256302   3.282   4.883  15.145 -0.7025 -0.0020 -0.0366
11604TIP3    H156303   3.290   4.959  15.204  1.4545 -0.2382  0.0594
11604TIP3    H256304   3.362   4.832  15.161 -0.4996 -0.5617 -2.5030
11605TIP3   OH256305   6.264   4.689   2.475 -0.1985 -0.0786  0.1618
11605TIP3    H156306   6.182   4.663   2.517  0.1522 -0.6391  0.5052
11605TIP3    H256307   6.258   4.785   2.468 -0.6997 -0.0768  0.5679
11606TIP3   OH256308   5.449   2.332  16.203  0.1188 -0.4607 -0.3768
11606TIP3    H156309   5.522   2.287  16.245  1.0327  0.3342 -1.0610
11606TIP3    H256310   5.451   2.421  16.238 -0.1860 -0.2816 -0.7982
11607TIP3   OH256311   0.983   5.807   5.477  0.0969  0.2959 -0.2240
11607TIP3    H156312   1.053   5.783   5.538 -0.3055 -1.1656 -0.3033
11607TIP3    H256313   0.935   5.726   5.463 -2.4098  1.5107  0.8305
11608TIP3   OH256314   2.176   5.123  12.794 -0.4177  0.2299 -0.0920
11608TIP3    H156315   2.231   5.133  12.716 -0.0605 -0.3624  0.0710
11608TIP3    H256316   2.095   5.084  12.761 -0.6413  0.8685 -0.2982
11609TIP3   OH256317   3.763   6.038   5.600  0.3569  0.5057  0.1023
11609TIP3    H156318   3.823   5.968   5.624  0.2866 -0.3531 -2.0210
11609TIP3    H256319   3.721   6.064   5.682 -0.0356 -2.3210  0.8794
11610TIP3   OH256320   0.017   1.714  15.297 -0.4942  0.2809 -0.8002
11610TIP3    H156321  -0.034   1.670  15.229  0.8908 -1.3323 -0.8756
11610TIP3    H256322  -0.048   1.738  15.364 -1.5933  0.0542 -1.7479
11611TIP3   OH256323   3.570   2.559  11.110  0.1649  0.4423 -0.0976
11611TIP3    H156324   3.527   2.618  11.048 -0.5077 -1.3111 -1.3896
11611TIP3    H256325   3.505   2.547  11.180  0.7575  2.0916  0.7670
11612TIP3   OH256326   6.483   5.664  12.438 -0.0753  0.3940 -0.0334
11612TIP3    H156327   6.490   5.756  12.465  1.3921  1.2360 -2.8870
11612TIP3    H256328   6.532   5.659  12.357 -1.9322 -2.4758 -1.1424
11613TIP3   OH256329   4.655   3.565   2.724  0.2503 -0.2226 -0.2457
11613TIP3    H156330   4.705   3.646   2.710 -1.3077  0.7491 -0.3933
11613TIP3    H256331   4.681   3.508   2.652  0.9564  0.3494 -0.4511
11614TIP3   OH256332   0.409   1.210   4.498  0.4829 -0.4620  0.4363
11614TIP3    H156333   0.457   1.292   4.486  0.1474 -0.1640  1.1167
11614TIP3    H256334   0.419   1.190   4.591 -0.7218 -0.3974  0.5846
11615TIP3   OH256335   3.998   3.677  12.309 -0.3604 -0.3413 -0.2122
11615TIP3    H156336   4.048   3.747  12.352 -2.1424  0.6395  0.3723
11615TIP3    H256337   3.990   3.608  12.375  0.0028 -0.3971 -0.2265
11616TIP3   OH256338   1.535   0.203  12.246  0.1101 -0.0224 -0.0934
11616TIP3    H156339   1.599   0.218  12.176 -1.9476 -0.5267 -2.2224
11616TIP3    H256340   1.531   0.107  12.254 -0.7845 -0.0217 -0.4295
11617TIP3   OH256341   6.690   5.786   5.708  0.0738  0.4824  0.1606
11617TIP3    H156342   6.645   5.708   5.676  0.5851  0.6325 -0.9700
11617TIP3    H256343   6.656   5.798   5.796 -1.2901 -0.0381 -0.2562
11618TIP3   OH256344   4.322   3.057  11.380 -0.1543 -0.1830 -0.0708
11618TIP3    H156345   4.351   2.976  11.423  1.1758  0.3259  0.0230
11618TIP3    H256346   4.313   3.120  11.451  2.4360  0.7736 -0.5112
11619TIP3   OH256347   4.681   2.704  16.550 -0.1854 -0.7516  0.0041
11619TIP3    H156348   4.729   2.766  16.605  0.3881 -0.8412 -0.3987
11619TIP3    H256349   4.593   2.742  16.543  0.2103  0.1238 -0.4032
11620TIP3   OH256350   3.919   3.996  14.422 -0.2760 -0.2685  0.4952
11620TIP3    H156351   4.013   3.994  14.440 -0.0271 -1.5260 -0.7164
11620TIP3    H256352   3.909   4.059  14.351 -0.0127 -1.5570 -0.7564
11621TIP3   OH256353   2.928   6.217  15.592  0.1596 -0.0969  0.2477
11621TIP3    H156354   2.992   6.285  15.574  0.1488  0.2294  1.3601
11621TIP3    H256355   2.850   6.265  15.622 -0.7904 -0.4534 -1.5138
11622TIP3   OH256356   4.862   0.736   3.078  0.2352 -0.1005 -0.7977
11622TIP3    H156357   4.820   0.727   2.992 -1.3735 -1.4757  0.0625
11622TIP3    H256358   4.835   0.657   3.126  1.0558  0.6488  0.9754
11623TIP3   OH256359   2.811   6.361   4.842 -0.0006  0.3091 -0.2012
11623TIP3    H156360   2.726   6.377   4.801 -0.7351 -1.1529  0.6828
11623TIP3    H256361   2.811   6.415   4.920 -0.7542 -0.7587  0.5694
11624TIP3   OH256362   3.941   5.840   5.045  0.0326  0.4087 -0.5788
11624TIP3    H156363   3.918   5.802   5.129 -0.2870 -2.3923 -1.8256
11624TIP3    H256364   3.858   5.872   5.009 -0.0337  0.4711 -0.3703
11625TIP3   OH256365   5.158   5.193  12.844  0.7318  0.8272 -0.1625
11625TIP3    H156366   5.207   5.174  12.924 -0.5328  0.1310  0.4728
11625TIP3    H256367   5.135   5.286  12.852 -1.1220  0.3077  1.3176
11626TIP3   OH256368   0.984   6.446  15.701  0.5709 -0.5058  0.1155
11626TIP3    H156369   0.923   6.383  15.739 -1.2404  0.8120 -0.4466
11626TIP3    H256370   0.985   6.520  15.762 -0.8679  0.7975 -1.3226
11627TIP3   OH256371   4.179   5.372   1.248  0.4775 -0.1739 -0.3683
11627TIP3    H156372   4.180   5.453   1.198 -0.3841 -0.5690 -1.0615
11627TIP3    H256373   4.091   5.369   1.287  0.5410 -0.7089 -0.2527
11628TIP3   OH256374   1.749   0.659  17.025 -0.0360  0.3812  0.5921
11628TIP3    H156375   1.756   0.749  16.993  1.1260 -0.4558 -1.7762
11628TIP3    H256376   1.677   0.621  16.974 -0.6210 -0.0338  1.6808
11629TIP3   OH256377   0.945   1.772   3.896  0.1706 -0.0189 -0.4712
11629TIP3    H156378   0.960   1.859   3.933  1.0988 -0.5482  0.4433
11629TIP3    H256379   0.888   1.729   3.959  1.6307 -0.8680  0.3355
11630TIP3   OH256380   1.893   2.076  16.920 -0.7312  0.1881 -0.1533
11630TIP3    H156381   1.901   2.044  16.830 -0.4242  1.2769 -0.5234
11630TIP3    H256382   1.799   2.072  16.939 -0.7526 -0.4632 -0.3512
11631TIP3   OH256383   0.653   4.304  12.958  0.8450 -0.5901  0.4359
11631TIP3    H156384   0.745   4.331  12.962  1.0203 -1.2910  1.4685
11631TIP3    H256385   0.626   4.298  13.049 -0.1397 -0.7162  0.1465
11632TIP3   OH256386   0.436   2.706  14.902 -0.0439  0.0555  0.1829
11632TIP3    H156387   0.498   2.754  14.957  0.0546  0.4770 -0.2828
11632TIP3    H256388   0.467   2.720  14.813  0.5800 -1.7255  0.0776
11633TIP3   OH256389   1.479   1.281  11.033 -0.7745 -0.4739  0.1861
11633TIP3    H156390   1.507   1.274  10.942  0.1932 -0.1178  0.4508
11633TIP3    H256391   1.477   1.191  11.065 -1.3061 -0.6147 -0.2415
11634TIP3   OH256392   1.018   5.403   0.041 -0.4266 -0.3608 -0.0124
11634TIP3    H156393   1.063   5.322   0.065 -0.5028 -0.5930 -0.6222
11634TIP3    H256394   0.936   5.401   0.090  0.2444  0.0913  1.1468
11635TIP3   OH256395   2.871   3.338  13.763 -1.1598 -0.1286  0.1121
11635TIP3    H156396   2.897   3.313  13.674 -0.2771 -0.1265  0.3662
11635TIP3    H256397   2.863   3.433  13.759  2.9286  0.4385  0.9998
11636TIP3   OH256398   3.838   6.516   3.783  0.1399 -0.2788  0.3188
11636TIP3    H156399   3.829   6.583   3.852  0.4349 -1.4295  1.5034
11636TIP3    H256400   3.754   6.471   3.784  0.0997 -0.2156 -0.1821
11637TIP3   OH256401   2.597   0.976   1.811  1.0693  0.4582  0.5427
11637TIP3    H156402   2.656   1.039   1.852  0.1168  1.2229  0.7455
11637TIP3    H256403   2.563   1.021   1.734  1.1938 -0.2014  0.0879
11638TIP3   OH256404   2.982   5.922  15.053 -0.2728  0.5377  0.5365
11638TIP3    H156405   2.996   6.011  15.020  0.1697  0.2424 -0.0811
11638TIP3    H256406   2.908   5.889  15.001  0.8864 -0.1880 -0.7162
11639TIP3   OH256407   1.798   2.936   5.630 -0.6335  0.0662 -0.1693
11639TIP3    H156408   1.865   2.892   5.683 -0.7559  0.4838  0.3430
11639TIP3    H256409   1.748   2.987   5.694 -0.7498  0.6226 -0.7027
11640TIP3   OH256410   5.350   4.568  13.429  0.2722  0.2998  0.0010
11640TIP3    H156411   5.258   4.567  13.457  0.4121  0.0511  0.4628
11640TIP3    H256412   5.383   4.481  13.452  0.1360 -0.3007 -1.8586
11641TIP3   OH256413   0.531   1.497   0.714 -0.1865 -0.8744 -0.0307
11641TIP3    H156414   0.624   1.474   0.716 -0.0868 -0.4997  1.4271
11641TIP3    H256415   0.522   1.555   0.638  1.3860  1.3236  1.3281
11642TIP3   OH256416   4.259   6.796  16.157  0.2936  0.0441  0.2613
11642TIP3    H156417   4.277   6.831  16.245 -2.6330  1.1250  0.5496
11642TIP3    H256418   4.258   6.873  16.100  0.4998 -0.4476 -0.4179
11643TIP3   OH256419   2.449   4.570  11.971 -0.1308  0.4947  0.0020
11643TIP3    H156420   2.519   4.526  12.020 -0.1591  1.0237  0.5221
11643TIP3    H256421   2.455   4.532  11.883  0.1478 -0.2106  0.3121
11644TIP3   OH256422   5.286   3.592   6.701 -0.0292  0.4947 -0.2749
11644TIP3    H156423   5.338   3.655   6.650 -0.4078  0.6345 -0.4924
11644TIP3    H256424   5.279   3.632   6.788 -0.0652  0.6362 -0.3430
11645TIP3   OH256425   5.923   5.800   1.236 -0.7750 -0.5613  0.0851
11645TIP3    H156426   5.866   5.859   1.187 -1.1529 -0.1789  0.9636
11645TIP3    H256427   5.921   5.834   1.326 -0.2378 -1.3435  0.4022
11646TIP3   OH256428   2.971   2.516  15.660  0.3135 -0.3567  0.3237
11646TIP3    H156429   2.943   2.426  15.675  1.0008 -0.9546 -1.7355
11646TIP3    H256430   2.899   2.556  15.612  1.3920 -0.8518 -1.8022
11647TIP3   OH256431   2.408   1.018  14.921 -0.0307 -0.0710  0.1508
11647TIP3    H156432   2.494   1.006  14.962 -1.0830 -1.1176  2.2400
11647TIP3    H256433   2.393   1.112  14.925  1.1004  0.1595 -0.4689
11648TIP3   OH256434   1.254   2.899  14.877  0.5802 -0.4176 -0.0714
11648TIP3    H156435   1.265   2.965  14.945  0.2261 -1.1949  0.7626
11648TIP3    H256436   1.255   2.948  14.795  2.6130  0.3834  0.3602
11649TIP3   OH256437   0.436   1.962   0.113 -0.0133  0.0244 -0.1664
11649TIP3    H156438   0.448   1.949   0.019 -0.9575 -0.6741 -0.2118
11649TIP3    H256439   0.343   1.982   0.122  0.4318  2.0034  0.4463
11650TIP3   OH256440   5.778   4.822   2.004  0.0568  0.5609 -0.2912
11650TIP3    H156441   5.851   4.880   1.984  0.5553 -0.1879 -0.6607
11650TIP3    H256442   5.751   4.787   1.919  0.2748 -0.3625  0.0154
11651TIP3   OH256443   5.733   4.444  15.641  0.4612  0.4743  0.1469
11651TIP3    H156444   5.761   4.363  15.599  2.3052  1.4587 -0.6202
11651TIP3    H256445   5.715   4.419  15.732  1.7252 -0.6692  0.1082
11652TIP3   OH256446   3.377   4.397   5.165  0.2469  0.3813 -0.0135
11652TIP3    H156447   3.438   4.407   5.091 -0.7797  2.6234 -0.6385
11652TIP3    H256448   3.431   4.361   5.235  1.5553 -0.6148 -1.4403
11653TIP3   OH256449   6.029   1.357  11.377  0.3954 -0.1096 -0.5175
11653TIP3    H156450   5.939   1.327  11.364  0.2329  0.3388 -0.4214
11653TIP3    H256451   6.040   1.429  11.315  0.1777  0.8837  0.5615
11654TIP3   OH256452   3.372   2.555   3.056  0.3029 -0.0916  0.2537
11654TIP3    H156453   3.435   2.626   3.055  0.6294 -0.3787  0.0939
11654TIP3    H256454   3.407   2.492   3.120  1.1009 -1.0526 -1.0658
11655TIP3   OH256455   5.395   1.232  17.109  0.4727 -0.3198 -0.2377
11655TIP3    H156456   5.489   1.253  17.108  0.3121  0.4482 -0.1735
11655TIP3    H256457   5.353   1.310  17.073  0.0141 -1.6370 -2.7976
11656TIP3   OH256458   1.091   1.977   2.608 -0.8844 -0.2197  0.6165
11656TIP3    H156459   1.054   2.059   2.638 -0.6392 -0.5146  1.7591
11656TIP3    H256460   1.142   2.000   2.530 -2.5041  0.3627 -0.3213
11657TIP3   OH256461   4.131   0.852   1.102 -0.5106  0.2138 -0.3469
11657TIP3    H156462   4.142   0.799   1.024  1.9567  1.0405 -0.6633
11657TIP3    H256463   4.077   0.926   1.075 -0.1170  0.2162 -1.1344
11658TIP3   OH256464   1.952   0.779   1.573  0.0737  0.1221 -0.0855
11658TIP3    H156465   1.985   0.692   1.591  0.4180  0.6695  2.1845
11658TIP3    H256466   1.890   0.767   1.501  1.5980 -1.6480 -1.1774
11659TIP3   OH256467   1.198   6.018  11.754  0.2540 -0.1488 -1.0651
11659TIP3    H156468   1.226   6.064  11.833  3.2489 -2.4991 -0.5282
11659TIP3    H256469   1.200   6.084  11.685  0.0776  1.4051  0.3588
11660TIP3   OH256470   2.330   4.067  12.502  0.1036 -0.1854  0.1841
11660TIP3    H156471   2.252   4.014  12.481 -0.7709  0.7211  1.0442
11660TIP3    H256472   2.322   4.086  12.595  2.3708 -1.6460  0.7548
11661TIP3   OH256473   0.603   4.032   6.442  0.2686 -0.8832  0.0413
11661TIP3    H156474   0.628   3.945   6.473  1.3230 -0.4243  0.5343
11661TIP3    H256475   0.540   4.063   6.508  0.0506 -1.1874 -0.0225
11662TIP3   OH256476   5.096   1.988   6.558 -0.0017 -0.1840 -0.1675
11662TIP3    H156477   5.029   1.933   6.598  1.9141 -1.0081  2.1505
11662TIP3    H256478   5.166   1.927   6.534  0.2817  0.7370 -1.7688
11663TIP3   OH256479   3.508   4.175  14.391  0.2748  0.6438 -0.1535
11663TIP3    H156480   3.551   4.255  14.363  0.7294  1.3175  2.2667
11663TIP3    H256481   3.414   4.192  14.376  0.3631  1.6455  0.3716
11664TIP3   OH256482   0.089   4.205   6.441 -0.0411  0.7220  0.5957
11664TIP3    H156483   0.065   4.279   6.385 -1.1411  0.7439  1.0797
11664TIP3    H256484   0.161   4.238   6.495 -0.6014  1.4811  0.8863
11665TIP3   OH256485   4.064   0.063  16.525 -0.0376  0.7833 -0.0609
11665TIP3    H156486   4.035   0.026  16.609 -1.5539 -1.2375 -1.3861
11665TIP3    H256487   4.159   0.070  16.533  0.0355 -1.0402  1.2155
11666TIP3   OH256488   0.344   1.386  16.089 -0.8565 -0.2037 -0.1884
11666TIP3    H156489   0.306   1.461  16.135  0.8187  0.1553  0.6631
11666TIP3    H256490   0.406   1.424  16.028  0.1919 -0.8903  0.4246
11667TIP3   OH256491   4.120   0.527   0.798 -0.4636 -0.5165  0.2098
11667TIP3    H156492   4.181   0.569   0.858  0.0962 -1.6922  0.4851
11667TIP3    H256493   4.073   0.600   0.757  0.3737  0.3656  0.7745
11668TIP3   OH256494   2.611   0.596  10.847 -0.0948  0.0359 -0.1616
11668TIP3    H156495   2.604   0.690  10.861  2.4143  0.2375  0.1692
11668TIP3    H256496   2.679   0.586  10.780  0.0807 -1.5535  0.2042
11669TIP3   OH256497   4.053   4.811  16.455  0.5735 -0.0043 -0.3395
11669TIP3    H156498   4.092   4.853  16.532  1.0122 -0.0303 -0.5404
11669TIP3    H256499   4.034   4.884  16.396 -0.6367  0.1139  0.1584
11670TIP3   OH256500   5.885   3.690  15.190  0.1817 -0.2687  0.3344
11670TIP3    H156501   5.838   3.677  15.107 -1.0225  0.9493  0.8066
11670TIP3    H256502   5.834   3.755  15.237 -0.1017 -2.1391  2.7961
11671TIP3   OH256503   4.198   0.887  14.235 -0.0120 -0.5567  0.0943
11671TIP3    H156504   4.243   0.971  14.243 -0.3945 -0.3880  0.4948
11671TIP3    H256505   4.126   0.904  14.174 -0.4454 -0.4407  0.6325
11672TIP3   OH256506   4.263   3.904  12.218 -0.0362 -0.3492 -0.5017
11672TIP3    H156507   4.333   3.940  12.164 -0.1327  1.0467  0.2510
11672TIP3    H256508   4.292   3.816  12.239  0.3766 -0.6328 -2.1255
11673TIP3   OH256509   4.308   5.200  13.093  0.1277 -0.2861 -0.5273
11673TIP3    H156510   4.320   5.239  13.179  1.4296 -1.1413 -0.2921
11673TIP3    H256511   4.376   5.240  13.039 -0.8046  0.3938 -1.2292
11674TIP3   OH256512   1.674   2.034  17.115 -0.0453  0.0874 -0.0074
11674TIP3    H156513   1.617   2.102  17.080 -0.2868  0.3095  0.7792
11674TIP3    H256514   1.640   1.952  17.079  1.0391  0.4572 -2.0105
11675TIP3   OH256515   3.754   6.010  16.968  0.1590 -0.3150 -0.4475
11675TIP3    H156516   3.760   5.915  16.972  1.0957 -0.3000 -1.2316
11675TIP3    H256517   3.664   6.028  16.942  0.0973 -1.0041 -0.7240
11676TIP3   OH256518   0.489   2.173  12.902 -0.0224  0.2281 -0.2912
11676TIP3    H156519   0.563   2.231  12.921 -0.6219  0.3963  1.6928
11676TIP3    H256520   0.439   2.221  12.836  0.2020  1.3943  0.3449
11677TIP3   OH256521   6.229   0.938   5.186  0.8843  0.0575 -0.1397
11677TIP3    H156522   6.241   1.027   5.153  0.1104 -0.1916 -1.1710
11677TIP3    H256523   6.265   0.939   5.275 -1.0968  1.9730  0.7106
11678TIP3   OH256524   1.113   2.134   5.006  0.7224 -0.4514 -0.3662
11678TIP3    H156525   1.188   2.104   4.955  1.5337 -1.8142  1.5245
11678TIP3    H256526   1.151   2.174   5.084 -0.4875 -0.6353  0.3466
11679TIP3   OH256527   1.805   5.372   5.670 -0.9773  0.5637 -0.0315
11679TIP3    H156528   1.862   5.349   5.596 -0.6778 -1.9594  0.9045
11679TIP3    H256529   1.728   5.412   5.629 -1.0499 -1.2085 -1.8022
11680TIP3   OH256530   6.577   5.436  12.905 -0.4701 -0.0635  0.2674
11680TIP3    H156531   6.487   5.466  12.919  0.4417  2.2118  1.7656
11680TIP3    H256532   6.614   5.428  12.993  1.1025  0.0926 -0.3512
11681TIP3   OH256533   0.780   3.015  12.090  0.0481  0.2567 -1.0060
11681TIP3    H156534   0.705   2.979  12.042 -0.0156  0.1892 -0.8548
11681TIP3    H256535   0.760   3.109  12.097  0.3320  0.3696 -1.6160
11682TIP3   OH256536   2.294   2.054  17.028 -0.3100  0.3204  0.4736
11682TIP3    H156537   2.282   2.085  16.938 -1.1342  0.6683  0.6921
11682TIP3    H256538   2.389   2.044  17.037 -0.2497 -0.4030 -0.6561
11683TIP3   OH256539   1.403   6.755   3.784 -0.3190 -0.3817  0.1711
11683TIP3    H156540   1.471   6.822   3.790 -0.2082 -0.5980  1.9581
11683TIP3    H256541   1.330   6.791   3.836 -1.2624 -0.5170 -1.0288
11684TIP3   OH256542   5.147   0.786  12.362  0.1508  0.0166  0.5321
11684TIP3    H156543   5.083   0.852  12.335 -1.5755 -2.1581 -1.0379
11684TIP3    H256544   5.209   0.834  12.417 -2.1980  2.4653  1.2598
11685TIP3   OH256545   3.536   0.853  13.621  0.0655 -0.5066  0.0496
11685TIP3    H156546   3.484   0.924  13.583 -0.0519 -0.5118  0.1970
11685TIP3    H256547   3.490   0.773  13.598 -0.8673 -0.4188  1.5067
11686TIP3   OH256548   3.988   2.535  13.426  0.3023 -0.4028 -0.2509
11686TIP3    H156549   4.026   2.548  13.513 -1.5278 -0.9487  0.6702
11686TIP3    H256550   4.064   2.531  13.367  1.5456  0.8392  1.1797
11687TIP3   OH256551   4.701   0.633   3.618  0.0044  0.4673 -0.5431
11687TIP3    H156552   4.755   0.623   3.539  0.6590  0.7972 -0.1470
11687TIP3    H256553   4.750   0.587   3.686  0.9587  2.6457  0.3415
11688TIP3   OH256554   6.075   1.090   0.042  0.0849 -0.3147  0.4784
11688TIP3    H156555   6.123   1.160   0.086 -1.7294  0.4175  1.4208
11688TIP3    H256556   6.033   1.134  -0.033 -0.6184 -0.4943  0.7595
11689TIP3   OH256557   3.556   2.216  13.644  0.3085 -0.2136  0.1468
11689TIP3    H156558   3.597   2.134  13.616  0.6468  0.3725 -1.1352
11689TIP3    H256559   3.620   2.283  13.625 -0.8625  0.6191 -1.0379
11690TIP3   OH256560   4.962   1.328  12.215 -0.4054 -0.4864  1.0435
11690TIP3    H156561   4.973   1.422  12.226 -2.0312  0.0099 -1.0468
11690TIP3    H256562   5.052   1.294  12.211  0.2702  0.5273  4.2850
11691TIP3   OH256563   3.766   5.452  14.272 -0.4471  0.2371 -0.3560
11691TIP3    H156564   3.760   5.444  14.176  0.4428  0.7200 -0.4564
11691TIP3    H256565   3.771   5.546  14.288  0.5537  0.1107  0.0980
11692TIP3   OH256566   0.884   2.253   6.054  0.1211 -0.4162  0.3357
11692TIP3    H156567   0.960   2.238   5.997 -0.2628 -1.1789  0.0147
11692TIP3    H256568   0.920   2.250   6.142  0.7818  1.1194  0.1541
11693TIP3   OH256569   2.504   5.708  14.522  0.0955  0.3831 -0.2246
11693TIP3    H156570   2.454   5.743  14.595  0.5070 -1.7990  1.1827
11693TIP3    H256571   2.555   5.783  14.489  0.2920  1.3114  2.0441
11694TIP3   OH256572   1.721   4.154   2.016 -0.6653  0.4419  0.1267
11694TIP3    H156573   1.655   4.168   1.948 -0.0454  2.2063 -0.1674
11694TIP3    H256574   1.670   4.130   2.094 -1.4117 -1.2041 -0.8120
11695TIP3   OH256575   4.804   4.537   5.198  0.3173 -0.1454 -0.5158
11695TIP3    H156576   4.713   4.507   5.205  0.3802 -0.2854 -0.2875
11695TIP3    H256577   4.797   4.632   5.188  0.0904 -0.2869 -1.8452
11696TIP3   OH256578   0.040   0.419   4.102  0.1735  0.3380  0.0349
11696TIP3    H156579   0.097   0.452   4.032  1.4979 -0.0813  0.8952
11696TIP3    H256580   0.025   0.327   4.079  1.2515 -0.0171  0.6876
11697TIP3   OH256581   0.138   3.612  15.487  0.2202  0.1599 -0.1021
11697TIP3    H156582   0.100   3.561  15.415 -0.4792 -0.2673  0.5513
11697TIP3    H256583   0.068   3.619  15.551  1.0268 -0.0653  0.8423
11698TIP3   OH256584   3.945   6.375  11.974 -0.0647 -0.1129  0.2225
11698TIP3    H156585   3.930   6.469  11.963  0.9544  0.1667  0.9766
11698TIP3    H256586   4.018   6.370  12.037  0.2626 -1.3931 -0.2248
11699TIP3   OH256587   0.113   4.524   3.667  0.5882 -0.3222 -0.1154
11699TIP3    H156588   0.188   4.465   3.677  1.1367  0.5069  0.8622
11699TIP3    H256589   0.104   4.566   3.753 -0.3698  0.3325 -0.5172
11700TIP3   OH256590   1.940   0.397   3.798 -0.2497  0.6338 -0.2083
11700TIP3    H156591   1.889   0.427   3.874 -2.9647 -0.8979 -1.2609
11700TIP3    H256592   1.919   0.460   3.729  3.0021  2.6082  0.4233
11701TIP3   OH256593   4.510   3.739  13.590  0.0006  0.2395 -0.1141
11701TIP3    H156594   4.446   3.797  13.549 -0.7590 -0.0451  0.6523
11701TIP3    H256595   4.466   3.705  13.668  1.2841  0.4654  0.7354
11702TIP3   OH256596   2.093   4.948  13.518  0.6647  0.1262 -0.2390
11702TIP3    H156597   2.000   4.938  13.538  0.2175  0.0784 -2.1110
11702TIP3    H256598   2.123   5.016  13.578 -0.6962  0.4839  0.0808
11703TIP3   OH256599   0.964   0.390   0.545 -0.0794 -0.1372 -0.4376
11703TIP3    H156600   0.965   0.444   0.624 -0.8644  2.2139 -1.9150
11703TIP3    H256601   0.929   0.306   0.574 -0.2391  0.6093  1.7217
11704TIP3   OH256602   6.682   4.151   4.775 -0.3307  0.2893  0.0371
11704TIP3    H156603   6.631   4.155   4.856 -1.8094 -2.1607 -0.6553
11704TIP3    H256604   6.731   4.069   4.781 -0.0990  0.2997 -1.3345
11705TIP3   OH256605   1.629   2.986   2.990  0.5606  0.3010 -0.3388
11705TIP3    H156606   1.554   2.929   2.972  0.8486 -0.4593  0.7258
11705TIP3    H256607   1.610   3.067   2.942 -1.5654  0.6244  0.9190
11706TIP3   OH256608   4.338   5.315  16.763  0.3156  0.1151  0.1801
11706TIP3    H156609   4.397   5.292  16.835 -1.1529 -1.0004  1.0782
11706TIP3    H256610   4.281   5.239  16.754 -2.1100  1.8118  0.5061
11707TIP3   OH256611   0.161   5.523   0.076  0.0514 -0.1214 -0.2451
11707TIP3    H156612   0.252   5.507   0.053  0.2801 -0.7508  0.9894
11707TIP3    H256613   0.164   5.556   0.166 -0.9334 -0.1123 -0.1975
11708TIP3   OH256614   1.542   5.159   2.023  0.0996 -0.0540  0.4610
11708TIP3    H156615   1.582   5.246   2.029  1.5948 -0.5918 -0.8992
11708TIP3    H256616   1.518   5.149   1.931  0.6325 -1.3426  0.4354
11709TIP3   OH256617   4.762   3.986   5.252 -0.5962 -0.1925  0.3244
11709TIP3    H156618   4.730   3.989   5.343 -0.5032 -2.1119  0.4717
11709TIP3    H256619   4.854   4.011   5.258 -0.6198 -0.2004  0.7588
11710TIP3   OH256620   0.754   5.067   2.618 -0.0186  0.3603 -0.0971
11710TIP3    H156621   0.802   5.147   2.642  0.8745 -0.4119  0.7562
11710TIP3    H256622   0.750   5.016   2.698 -2.9537  0.6781  0.0834
11711TIP3   OH256623   0.284   6.377  11.032 -0.1443  0.7901  0.4208
11711TIP3    H156624   0.351   6.332  10.981  0.7462  1.1707  1.2206
11711TIP3    H256625   0.269   6.459  10.985  0.4411  1.0006  0.5960
11712TIP3   OH256626   1.614   0.113   5.144 -0.2383 -0.2776 -0.0763
11712TIP3    H156627   1.544   0.097   5.208 -0.3741 -2.1081 -0.6320
11712TIP3    H256628   1.583   0.186   5.092 -0.6812  0.4431  1.1435
11713TIP3   OH256629   4.335   1.034   4.121 -0.1318  0.2221 -0.4742
11713TIP3    H156630   4.274   1.089   4.073 -1.1693  0.7940  1.3655
11713TIP3    H256631   4.287   1.009   4.200  1.6138 -0.2638  0.4971
11714TIP3   OH256632   2.557   6.052  15.755 -0.2578  0.0251 -0.3173
11714TIP3    H156633   2.563   6.129  15.812  0.7170  0.5928 -1.1536
11714TIP3    H256634   2.635   6.001  15.776  0.4878  0.5879 -1.5920
11715TIP3   OH256635   6.379   1.934  16.835 -0.0207  0.4874 -0.3417
11715TIP3    H156636   6.307   1.994  16.819 -0.4864 -0.3638 -1.5505
11715TIP3    H256637   6.353   1.886  16.914  0.1654  1.5440  0.3911
11716TIP3   OH256638   0.548   4.521  14.565 -0.3981  1.0182 -0.2724
11716TIP3    H156639   0.539   4.561  14.652  0.4704 -1.3484  0.9854
11716TIP3    H256640   0.460   4.491  14.543 -0.2276 -0.4344  0.8925
11717TIP3   OH256641   3.775   1.329  13.138  0.1982  0.1703 -0.1060
11717TIP3    H156642   3.725   1.322  13.056 -0.0617 -1.6490  0.1599
11717TIP3    H256643   3.821   1.245  13.144  1.1001  0.7378  1.0556
11718TIP3   OH256644   6.334   2.647  16.026 -0.4541  0.3983 -0.7754
11718TIP3    H156645   6.384   2.728  16.036  0.5633  0.0658 -2.6166
11718TIP3    H256646   6.377   2.585  16.084  0.8386  0.3360 -1.7470
11719TIP3   OH256647   5.985   3.055   1.503 -0.0479 -0.7455  0.2928
11719TIP3    H156648   5.944   3.029   1.586  0.2370 -0.5588  0.4960
11719TIP3    H256649   5.915   3.052   1.439 -0.7654  1.0491  0.9218
11720TIP3   OH256650   6.649   1.091  13.658  0.4037 -0.3344 -0.3193
11720TIP3    H156651   6.613   1.176  13.635 -1.1003 -0.3743  1.6549
11720TIP3    H256652   6.736   1.110  13.693  0.8011  0.1619 -1.5024
11721TIP3   OH256653   2.729   6.758   6.180  0.3483 -0.2872 -0.3583
11721TIP3    H156654   2.659   6.785   6.120  2.2123 -0.5722 -2.8265
11721TIP3    H256655   2.737   6.830   6.242 -2.6540 -0.6245  0.5819
11722TIP3   OH256656   6.516   5.349   4.747 -0.4238  0.6364  0.4209
11722TIP3    H156657   6.507   5.444   4.749 -1.4704  0.5417  0.4779
11722TIP3    H256658   6.427   5.316   4.735 -0.2442 -0.3841  1.6823
11723TIP3   OH256659   1.920   6.478   4.558  0.6128 -0.0462  0.2380
11723TIP3    H156660   1.914   6.446   4.648 -0.5455  1.0397  0.5747
11723TIP3    H256661   1.969   6.410   4.512 -1.6016 -2.2907  0.9503
11724TIP3   OH256662   5.270   1.879  15.862  0.3809 -0.0959  0.0648
11724TIP3    H156663   5.256   1.875  15.767 -1.0976  0.4362  0.2333
11724TIP3    H256664   5.287   1.788  15.887 -2.6550 -0.8574 -0.2804
11725TIP3   OH256665   5.131   3.747   5.305 -0.4691 -0.2724 -0.3949
11725TIP3    H156666   5.133   3.656   5.275 -0.6197  0.0419 -1.3800
11725TIP3    H256667   5.039   3.762   5.328 -0.5949 -0.1257 -0.9948
11726TIP3   OH256668   1.157   0.628   3.349  0.1334  0.3303  0.1582
11726TIP3    H156669   1.176   0.670   3.265  2.0971 -0.3654  0.2132
11726TIP3    H256670   1.113   0.696   3.400 -2.1849  0.4464 -1.7609
11727TIP3   OH256671   5.880   2.186   0.719  0.1202  0.0660 -0.6157
11727TIP3    H156672   5.886   2.124   0.792  0.8252  0.2876 -0.4783
11727TIP3    H256673   5.791   2.221   0.725  0.7554  1.4873  1.3121
11728TIP3   OH256674   0.846   6.569   0.129  0.2818  0.5801  0.1078
11728TIP3    H156675   0.823   6.489   0.176 -1.8312  1.0210 -0.0833
11728TIP3    H256676   0.846   6.543   0.036  0.4969  0.5967  0.1036
11729TIP3   OH256677   2.937   5.548   4.084  0.5139  0.1887 -0.5243
11729TIP3    H156678   2.892   5.467   4.059 -0.3983  0.9379 -1.4331
11729TIP3    H256679   3.030   5.528   4.072  0.3537 -0.9300 -0.0622
11730TIP3   OH256680   6.771   4.980   1.630  0.2153  0.7438  0.0033
11730TIP3    H156681   6.835   4.956   1.562 -0.7154  1.3689 -1.1426
11730TIP3    H256682   6.697   4.920   1.616 -0.9687  2.3712 -1.1079
11731TIP3   OH256683   0.164   3.914   6.093 -0.4500  0.1886 -0.6755
11731TIP3    H156684   0.096   3.927   6.159  0.5368 -1.7466  0.8327
11731TIP3    H256685   0.245   3.940   6.137  0.0449  0.4987 -1.7356
11732TIP3   OH256686   4.410   3.984   1.170  0.1280  0.3318  0.4615
11732TIP3    H156687   4.367   4.057   1.126  3.2906  3.0713  1.4650
11732TIP3    H256688   4.428   3.920   1.101 -0.5282  1.6562 -0.9775
11733TIP3   OH256689   5.062   5.773   3.439 -0.4214 -0.1635 -0.6921
11733TIP3    H156690   5.102   5.798   3.356  3.2860  2.9376  1.6365
11733TIP3    H256691   5.101   5.689   3.461  1.1083  0.5278 -0.6884
11734TIP3   OH256692   2.297   2.643  13.531  0.3830  0.7993 -0.1917
11734TIP3    H156693   2.384   2.603  13.523  0.2286  0.7043 -1.6505
11734TIP3    H256694   2.244   2.576  13.575  0.8181  0.4905 -0.1241
11735TIP3   OH256695   5.438   4.574  11.916 -0.0501 -0.0747  0.5613
11735TIP3    H156696   5.444   4.565  12.011 -1.8777  1.0877  0.8295
11735TIP3    H256697   5.352   4.613  11.900 -0.5446 -1.8658 -1.7022
11736TIP3   OH256698   0.679   4.231   6.231 -0.3996  0.3886 -0.4666
11736TIP3    H156699   0.676   4.312   6.281  0.3079  0.8060 -1.0790
11736TIP3    H256700   0.659   4.162   6.295  0.1456  0.9353  0.3084
11737TIP3   OH256701   0.584   6.808  14.605 -0.0331  0.2739  0.8289
11737TIP3    H156702   0.545   6.869  14.542  0.4769  1.5482  1.7227
11737TIP3    H256703   0.512   6.748  14.628 -0.3929  0.1837 -0.4653
11738TIP3   OH256704   6.171   1.723   1.451 -0.0116  0.4298 -0.4137
11738TIP3    H156705   6.154   1.814   1.425 -0.1188  0.6765  0.4943
11738TIP3    H256706   6.146   1.719   1.543 -0.2001 -0.5814 -0.4970
11739TIP3   OH256707   4.468   4.111   5.539  0.1068 -0.3090 -0.4045
11739TIP3    H156708   4.519   4.184   5.504 -1.2412  0.5541 -0.6829
11739TIP3    H256709   4.521   4.076   5.610  1.4342  0.0083 -1.2005
11740TIP3   OH256710   2.221   2.595   1.955  0.6000 -0.1168 -0.3143
11740TIP3    H156711   2.246   2.522   1.899 -1.9032 -0.4593 -1.1392
11740TIP3    H256712   2.183   2.553   2.033 -1.1277  0.2187 -0.9199
11741TIP3   OH256713   2.323   1.888   2.435  0.3061  0.0525  0.6961
11741TIP3    H156714   2.282   1.963   2.392 -0.6801 -1.0722 -0.4067
11741TIP3    H256715   2.404   1.923   2.471  0.1837  1.5082 -0.3389
11742TIP3   OH256716   0.126   2.284  12.247 -0.4307 -0.2915 -0.1476
11742TIP3    H156717   0.082   2.364  12.221 -0.8511 -0.4090  0.1862
11742TIP3    H256718   0.197   2.273  12.183  1.1517  1.6056  1.1833
11743TIP3   OH256719   1.602   6.797   2.265  0.4370 -0.0974  0.0997
11743TIP3    H156720   1.509   6.805   2.246  0.2032 -0.2446  1.1142
11743TIP3    H256721   1.638   6.748   2.192 -0.5623 -1.3323  0.4135
11744TIP3   OH256722   4.762   1.263   2.334  0.1274 -0.4193 -0.6338
11744TIP3    H156723   4.745   1.219   2.417 -0.1681  0.2868 -0.3073
11744TIP3    H256724   4.857   1.275   2.331  0.1111 -0.1769 -0.2515
11745TIP3   OH256725   3.772   2.417   0.933 -0.4331 -0.3036 -0.2254
11745TIP3    H156726   3.830   2.350   0.897  0.2582  0.3082 -0.2693
11745TIP3    H256727   3.696   2.368   0.966  0.8016 -1.2963  1.2935
11746TIP3   OH256728   5.240   3.066   3.846 -0.4233  0.7623 -0.1730
11746TIP3    H156729   5.300   3.007   3.891  0.4425  1.8778  0.1920
11746TIP3    H256730   5.282   3.086   3.763 -0.9916  0.4115 -0.5506
11747TIP3   OH256731   4.105   5.758  13.918 -0.2079  0.4271 -0.7478
11747TIP3    H156732   4.126   5.669  13.947 -1.0711  0.1686 -0.8669
11747TIP3    H256733   4.173   5.779  13.855  0.5027  0.1919 -0.0726
11748TIP3   OH256734   6.029   3.372  15.082 -0.3859 -0.0281  0.6792
11748TIP3    H156735   6.088   3.447  15.093 -1.3661  1.0677 -1.0556
11748TIP3    H256736   5.954   3.394  15.138 -0.7811  0.4536 -0.0138
11749TIP3   OH256737   2.353   2.574  13.052 -0.0560  0.6254 -0.4540
11749TIP3    H156738   2.301   2.511  13.102  1.9727 -0.2055  0.7226
11749TIP3    H256739   2.315   2.572  12.964 -1.6020 -0.3658  0.1887
11750TIP3   OH256740   2.303   0.743  11.892 -0.9733  0.3031  0.0951
11750TIP3    H156741   2.241   0.785  11.832 -0.4939  0.9304  0.0334
11750TIP3    H256742   2.370   0.809  11.907 -0.4400 -0.2913  0.3494
11751TIP3   OH256743   5.639   6.437   1.299 -0.2426  0.3046  1.0781
11751TIP3    H156744   5.562   6.390   1.267  0.0647 -0.9930  2.1603
11751TIP3    H256745   5.657   6.503   1.231 -0.7937 -1.0215 -0.4292
11752TIP3   OH256746   0.992   3.304  13.412  0.2288 -0.4249 -0.0312
11752TIP3    H156747   1.026   3.388  13.380  0.3875 -0.1173  0.9102
11752TIP3    H256748   0.932   3.275  13.344 -0.3673  0.8062 -0.0653
11753TIP3   OH256749   0.507   4.425  16.449 -0.3876 -0.1024  0.4012
11753TIP3    H156750   0.578   4.484  16.476  0.4332 -1.2536  0.8858
11753TIP3    H256751   0.552   4.341  16.432 -1.2647 -0.1736 -1.9130
11754TIP3   OH256752   2.237   6.752   5.052  0.0672 -0.3544  0.8763
11754TIP3    H156753   2.277   6.681   5.103 -0.8833 -0.4895  1.4621
11754TIP3    H256754   2.186   6.802   5.116  0.6263  0.7999  0.4497
11755TIP3   OH256755   5.431   2.423  15.899  0.7881 -0.3358 -0.4616
11755TIP3    H156756   5.450   2.355  15.835  3.4188  1.1870 -1.4562
11755TIP3    H256757   5.419   2.502  15.847 -0.4812  0.3088  0.7575
11756TIP3   OH256758   2.690   6.710   3.033 -0.6067  0.2782 -0.1685
11756TIP3    H156759   2.762   6.657   2.998  1.5005  2.9291 -0.1914
11756TIP3    H256760   2.613   6.654   3.024  1.2080 -2.2477 -1.3514
11757TIP3   OH256761   4.712   1.327   1.718  0.2855 -0.0413  0.5030
11757TIP3    H156762   4.735   1.401   1.661  0.3323  0.3348  1.0026
11757TIP3    H256763   4.718   1.363   1.806 -1.9434  0.0183  0.6943
11758TIP3   OH256764   2.994   2.711  14.877  0.3384 -0.0963  0.2158
11758TIP3    H156765   3.010   2.803  14.902  0.3098  0.0099 -0.1556
11758TIP3    H256766   2.901   2.697  14.895  0.6855 -0.5647  1.9007
11759TIP3   OH256767   3.428   2.527  13.775 -0.4886  0.0205 -0.0862
11759TIP3    H156768   3.504   2.504  13.827 -0.2393  1.2756  0.1437
11759TIP3    H256769   3.459   2.596  13.716 -1.2939  0.1189 -0.4182
11760TIP3   OH256770   3.281   2.191   2.256 -0.0115 -0.2876  0.1124
11760TIP3    H156771   3.222   2.266   2.256  1.4152  0.9073  1.4405
11760TIP3    H256772   3.364   2.225   2.223  0.3156 -1.6180 -0.5006
11761TIP3   OH256773   5.548   6.006   1.200  0.0464  0.4036  0.3287
11761TIP3    H156774   5.586   5.921   1.179  1.1946  1.3757 -1.8658
11761TIP3    H256775   5.493   5.989   1.276  0.1573 -2.3029 -0.0853
11762TIP3   OH256776   4.681   6.293   4.065 -0.4307  0.2570  0.5345
11762TIP3    H156777   4.720   6.229   4.006 -4.3041 -2.6505  0.6958
11762TIP3    H256778   4.714   6.270   4.152  0.3987  0.3616  0.2486
11763TIP3   OH256779   4.301   3.386  14.127  0.5171 -0.1687  0.5062
11763TIP3    H156780   4.275   3.478  14.130 -1.1191 -0.6096  0.6865
11763TIP3    H256781   4.235   3.340  14.178  1.2934 -1.4638  0.4079
11764TIP3   OH256782   1.752   3.054  14.528  0.1375 -0.2474 -0.3114
11764TIP3    H156783   1.686   3.110  14.568  1.9225  0.3978  1.9320
11764TIP3    H256784   1.831   3.069  14.579  1.5723 -2.3583 -1.7227
11765TIP3   OH256785   0.089   6.060  15.697  0.5319  0.4191 -0.2306
11765TIP3    H156786   0.132   6.030  15.778  0.5374 -0.3270 -0.4993
11765TIP3    H256787   0.082   5.981  15.643 -0.8756  0.5917 -0.3381
11766TIP3   OH256788   3.514   6.066  17.163  0.0922 -0.0388  0.9080
11766TIP3    H156789   3.423   6.042  17.151  0.4799 -1.6606  1.0101
11766TIP3    H256790   3.540   6.104  17.079  0.1265 -2.3917 -0.2272
11767TIP3   OH256791   5.885   5.766  14.423  0.2933  0.0865  0.1487
11767TIP3    H156792   5.934   5.834  14.376  1.6231 -0.4090  0.7649
11767TIP3    H256793   5.951   5.721  14.476 -0.5447 -1.6731 -0.2140
11768TIP3   OH256794   4.261   0.496  11.312 -0.3417  0.0704 -0.2769
11768TIP3    H156795   4.183   0.440  11.305 -0.0699 -0.2812 -0.5021
11768TIP3    H256796   4.239   0.559  11.381 -0.4710 -0.6073  0.3115
11769TIP3   OH256797   5.442   1.541  12.272 -0.9996 -0.2582  0.0015
11769TIP3    H156798   5.448   1.610  12.337 -0.5901 -0.7074  0.4505
11769TIP3    H256799   5.372   1.569  12.213 -0.7479  0.5895  0.1043
11770TIP3   OH256800   3.714   1.886   2.770 -0.1796 -0.0708  0.3879
11770TIP3    H156801   3.709   1.928   2.684 -0.4568 -4.0759 -1.7998
11770TIP3    H256802   3.790   1.828   2.763  1.0935  0.9629  3.7431
11771TIP3   OH256803   0.061   2.395   5.095  0.0175 -0.0229  0.2934
11771TIP3    H156804  -0.033   2.404   5.110 -0.3097  0.1986 -1.6007
11771TIP3    H256805   0.080   2.303   5.115 -1.3677 -1.0743 -2.5595
11772TIP3   OH256806   3.372   2.041  13.847 -0.2113  0.8086  0.0725
11772TIP3    H156807   3.378   2.040  13.942 -0.6438 -1.8506  0.1549
11772TIP3    H256808   3.456   2.007  13.817 -0.3536  0.9276 -0.4798
11773TIP3   OH256809   6.410   6.253   4.485  0.3103 -0.5130 -0.3099
11773TIP3    H156810   6.379   6.164   4.501  0.2274 -0.1631  1.6110
11773TIP3    H256811   6.500   6.254   4.517  0.3593  0.0700 -0.4405
11774TIP3   OH256812   3.692   2.841  11.364  0.4596 -0.1307  0.0022
11774TIP3    H156813   3.607   2.810  11.333  0.8231 -1.1581  0.0126
11774TIP3    H256814   3.671   2.920  11.415 -0.4039  0.0764 -0.6407
11775TIP3   OH256815   3.725   6.524  14.743  0.0199  0.5648 -0.0949
11775TIP3    H156816   3.712   6.430  14.741  4.1991 -0.2995  1.8891
11775TIP3    H256817   3.744   6.548  14.652  0.2455 -0.7838 -0.4195
11776TIP3   OH256818   6.022   1.311  11.745  0.4909 -0.1074  0.6083
11776TIP3    H156819   5.939   1.288  11.704 -0.6718  1.4259  1.9522
11776TIP3    H256820   6.067   1.365  11.680 -0.8776  1.4612  0.9038
11777TIP3   OH256821   0.977   3.234   3.550  0.5147 -0.3027  0.0606
11777TIP3    H156822   0.949   3.266   3.465 -1.4805  0.5333  0.9664
11777TIP3    H256823   0.901   3.189   3.586  1.4814 -1.1001  1.2040
11778TIP3   OH256824   2.234   5.176   3.741  0.5437 -0.0707 -0.2025
11778TIP3    H156825   2.278   5.198   3.659 -1.1186  0.0705 -1.0980
11778TIP3    H256826   2.179   5.253   3.759  1.0948  0.0204  1.2124
11779TIP3   OH256827   5.627   4.543   4.921 -0.2447 -0.5765  0.4016
11779TIP3    H156828   5.591   4.585   4.843 -0.5509 -1.3796  0.0959
11779TIP3    H256829   5.579   4.460   4.928 -1.0521 -0.0303  2.0962
11780TIP3   OH256830   5.062   5.383  16.242  0.0438  0.9737 -0.1897
11780TIP3    H156831   4.971   5.358  16.254  0.0545  0.9581 -0.1428
11780TIP3    H256832   5.082   5.440  16.316 -0.0057  1.1899 -0.3414
11781TIP3   OH256833   3.783   5.132  13.925 -0.1541  0.2453  0.1521
11781TIP3    H156834   3.710   5.086  13.968 -2.6063  1.4667 -2.3557
11781TIP3    H256835   3.767   5.225  13.946  1.4115  0.4657  0.4928
11782TIP3   OH256836   1.326   5.865   4.441 -0.2134 -0.3628 -0.1517
11782TIP3    H156837   1.355   5.868   4.350 -0.1844  0.2357 -0.1252
11782TIP3    H256838   1.405   5.881   4.492 -0.1792 -0.9629 -0.0096
11783TIP3   OH256839   2.898   2.116   5.350  0.5898  0.1975 -0.0244
11783TIP3    H156840   2.844   2.065   5.411  0.8412 -1.0652 -0.8283
11783TIP3    H256841   2.856   2.104   5.265  0.8542  1.0648 -0.2836
11784TIP3   OH256842   4.887   0.081   2.077 -0.1795  0.2049  0.1368
11784TIP3    H156843   4.816   0.135   2.041 -0.9503  0.4024  1.8770
11784TIP3    H256844   4.842   0.015   2.130  0.8949 -0.5506  0.1307
11785TIP3   OH256845   5.443   6.082   5.869 -0.2760  0.1297  0.0655
11785TIP3    H156846   5.365   6.138   5.869 -1.4239 -1.4259 -0.1831
11785TIP3    H256847   5.418   6.006   5.922  0.3905 -1.3032 -1.6054
11786TIP3   OH256848   3.238   2.111   0.002  0.0319 -0.1024  0.4459
11786TIP3    H156849   3.301   2.113   0.074 -1.3106 -1.5929  1.7396
11786TIP3    H256850   3.154   2.133   0.042 -0.5135  0.6572 -1.0102
11787TIP3   OH256851   3.930   3.595  15.641 -0.1995  0.6045  0.6539
11787TIP3    H156852   3.853   3.626  15.592  1.0799  1.8741 -0.6282
11787TIP3    H256853   3.987   3.671  15.646  2.7582 -1.2174 -1.9233
11788TIP3   OH256854   4.341   5.155   4.312 -0.6208 -0.1855 -0.3793
11788TIP3    H156855   4.379   5.163   4.400  0.3008  2.3474 -0.9112
11788TIP3    H256856   4.417   5.157   4.254 -1.2595 -1.2788 -1.2891
11789TIP3   OH256857   4.899   1.169   2.578  0.2989 -0.0570 -0.3860
11789TIP3    H156858   4.928   1.202   2.663 -1.2625 -1.0400  0.5782
11789TIP3    H256859   4.974   1.119   2.545  0.7987  0.0231  0.5906
11790TIP3   OH256860   6.477   3.172   3.305  0.5820 -0.6208 -0.2406
11790TIP3    H156861   6.389   3.198   3.334 -0.2481 -0.8632 -2.3809
11790TIP3    H256862   6.468   3.157   3.211  3.4391  1.6069 -1.0102
11791TIP3   OH256863   5.190   3.711   0.728 -0.0883  0.1863 -0.5773
11791TIP3    H156864   5.096   3.709   0.745 -0.2970 -0.3322 -1.6628
11791TIP3    H256865   5.227   3.647   0.789 -0.4993  0.0833 -0.4334
11792TIP3   OH256866   2.654   1.421   2.696 -0.0550 -0.0299  0.1549
11792TIP3    H156867   2.749   1.415   2.694 -0.1122 -1.7035  0.9058
11792TIP3    H256868   2.631   1.455   2.609  1.0723 -3.1945 -1.5724
11793TIP3   OH256869   2.812   3.167  15.380  0.6746  0.2724 -0.1004
11793TIP3    H156870   2.828   3.122  15.298 -1.5194 -0.6686 -0.0718
11793TIP3    H256871   2.781   3.254  15.355 -1.3129 -0.4735 -0.3508
11794TIP3   OH256872   4.189   2.206  16.955  0.6859  0.0696  0.0877
11794TIP3    H156873   4.259   2.269  16.940 -0.7919  1.3955 -1.5278
11794TIP3    H256874   4.187   2.152  16.876  0.7365 -0.8268  0.6833
11795TIP3   OH256875   5.578   0.143  16.114  0.2257 -0.0119 -0.6742
11795TIP3    H156876   5.510   0.160  16.049 -1.9574  1.8166  1.8910
11795TIP3    H256877   5.570   0.049  16.132 -2.9466  0.3947  0.7435
11796TIP3   OH256878   2.811   0.015  11.549 -0.0836 -0.5070  0.2665
11796TIP3    H156879   2.892   0.060  11.575 -0.9883  1.0654  0.5092
11796TIP3    H256880   2.752   0.086  11.524 -1.0136 -1.6975 -1.0272
11797TIP3   OH256881   2.967   0.600  13.362  0.1925 -0.3765  0.0812
11797TIP3    H156882   2.894   0.629  13.416  0.7738  0.1184  0.6096
11797TIP3    H256883   3.044   0.610  13.417  0.7113 -0.5530 -0.5911
11798TIP3   OH256884   2.882   0.054   1.861 -0.0757 -0.0935 -0.1730
11798TIP3    H156885   2.966   0.030   1.900 -0.0937 -0.7066 -0.5046
11798TIP3    H256886   2.886   0.019   1.772 -1.0637 -0.9856  0.1166
11799TIP3   OH256887   0.141   0.374   1.478  0.7023  0.1969 -0.1871
11799TIP3    H156888   0.047   0.369   1.461  0.6234  2.0458 -0.5291
11799TIP3    H256889   0.157   0.310   1.547 -0.5204 -1.2557 -1.1905
11800TIP3   OH256890   3.382   5.168   1.603  0.1278 -0.4687 -0.4283
11800TIP3    H156891   3.326   5.244   1.612  1.5584  0.4792  1.1896
11800TIP3    H256892   3.469   5.204   1.585  0.2910 -1.8798 -2.8987
11801TIP3   OH256893   2.286   5.015   5.900 -0.1763 -0.4255 -0.0106
11801TIP3    H156894   2.362   4.958   5.884  0.4086 -0.1968  1.7555
11801TIP3    H256895   2.295   5.042   5.991 -1.0108  1.6851 -0.4967
11802TIP3   OH256896   3.210   1.220   3.343 -0.6413 -0.7360 -0.8677
11802TIP3    H156897   3.135   1.276   3.325 -0.4726  1.4362  3.7627
11802TIP3    H256898   3.284   1.264   3.302 -1.1157  0.2145 -0.7249
11803TIP3   OH256899   1.532   5.717  15.487 -0.1678  0.3748  0.6665
11803TIP3    H156900   1.624   5.744  15.478 -0.1665  0.2812  0.3894
11803TIP3    H256901   1.510   5.680  15.402 -0.8101  1.4310  0.3671
11804TIP3   OH256902   2.215   4.096   1.311  0.2050 -0.1836  0.6365
11804TIP3    H156903   2.157   4.109   1.236  0.4549 -1.6174  0.1708
11804TIP3    H256904   2.180   4.020   1.356  2.2157 -1.6620 -0.1623
11805TIP3   OH256905   3.693   0.783   1.071 -0.3490 -0.0052  0.5292
11805TIP3    H156906   3.693   0.840   0.994 -0.9093  0.9030  1.1682
11805TIP3    H256907   3.627   0.716   1.051  0.8677 -0.9247 -0.5511
11806TIP3   OH256908   0.314   5.994   1.637 -0.0505  0.0521  0.2751
11806TIP3    H156909   0.287   6.062   1.574  0.1451 -1.6010 -1.7066
11806TIP3    H256910   0.312   5.913   1.586  0.6837 -1.2981  2.3012
11807TIP3   OH256911   5.139   1.336   5.561  0.3047  0.1570  0.0971
11807TIP3    H156912   5.179   1.272   5.502  1.6548  0.2680  0.8463
11807TIP3    H256913   5.148   1.420   5.516 -0.5981 -0.0266 -0.4582
11808TIP3   OH256914   0.467   1.068   0.620  0.3393  0.1755  0.5580
11808TIP3    H156915   0.386   1.110   0.591 -0.0950  0.4514  2.0425
11808TIP3    H256916   0.469   0.984   0.574 -1.5462 -0.4622  1.5200
11809TIP3   OH256917   5.380   3.575   1.163 -0.2434  0.3100  0.0251
11809TIP3    H156918   5.446   3.551   1.228 -0.2660 -3.3753 -1.0523
11809TIP3    H256919   5.321   3.634   1.210  1.0319 -0.3137  2.6013
11810TIP3   OH256920   5.238   1.556   5.385  0.3841  0.2672 -0.6714
11810TIP3    H156921   5.328   1.589   5.373 -0.1106  1.7353 -0.5834
11810TIP3    H256922   5.195   1.624   5.437 -0.6615 -0.6416 -0.3287
11811TIP3   OH256923   6.752   4.054   3.079  0.0253 -0.1294  0.3334
11811TIP3    H156924   6.840   4.016   3.074  0.8438  1.4841  1.3939
11811TIP3    H256925   6.703   3.994   3.134  1.2560  0.2182  1.8997
11812TIP3   OH256926   5.101   0.384   4.768  0.6729  0.6532 -0.0333
11812TIP3    H156927   5.010   0.359   4.757  0.4688  0.1378  2.2869
11812TIP3    H256928   5.098   0.479   4.784  0.4943  0.5791  0.3855
11813TIP3   OH256929   5.735   6.824  14.968 -0.4403 -0.4719 -0.3373
11813TIP3    H156930   5.720   6.903  14.917  3.9358  0.0189 -1.1899
11813TIP3    H256931   5.756   6.855  15.056 -2.6237 -1.0394  0.4565
11814TIP3   OH256932   2.761   0.883   6.184  0.2417  0.1133 -0.0114
11814TIP3    H156933   2.739   0.976   6.192 -3.2557 -0.5572 -0.3262
11814TIP3    H256934   2.723   0.842   6.261  2.8707 -0.9932  0.8139
11815TIP3   OH256935   1.031   0.207  11.432  0.0533  0.4331 -0.3936
11815TIP3    H156936   1.126   0.204  11.437 -0.0438 -1.2877  2.4895
11815TIP3    H256937   1.007   0.293  11.468  0.4839  0.9834 -1.3897
11816TIP3   OH256938   3.166   0.079  16.488  0.6706 -0.1574 -0.1049
11816TIP3    H156939   3.188   0.161  16.445  0.0651 -1.0468 -2.2601
11816TIP3    H256940   3.071   0.083  16.501  0.4199 -1.0101 -1.4562
11817TIP3   OH256941   5.843   2.739   5.447 -1.0694  0.4934 -0.3775
11817TIP3    H156942   5.917   2.698   5.492 -0.6180  0.8562 -0.7905
11817TIP3    H256943   5.774   2.741   5.513 -0.9850 -0.5870 -0.2264
11818TIP3   OH256944   2.618   6.279   3.479 -0.1035 -0.0256  0.5575
11818TIP3    H156945   2.653   6.344   3.540 -0.5851  0.4589  0.3254
11818TIP3    H256946   2.524   6.274   3.499 -0.0155 -0.9141  0.8124
11819TIP3   OH256947   3.472   3.914  14.238  0.4223 -0.4576  0.0023
11819TIP3    H156948   3.391   3.916  14.289 -0.8218 -0.5596 -1.8959
11819TIP3    H256949   3.516   3.996  14.261 -2.2626  1.7373 -2.0356
11820TIP3   OH256950   4.268   0.777  16.203 -0.2357  0.5781 -0.0053
11820TIP3    H156951   4.270   0.858  16.255  0.9429 -0.9450  2.5127
11820TIP3    H256952   4.350   0.778  16.155 -0.5797  1.2037 -0.6116
11821TIP3   OH256953   3.829   0.280   4.420  0.2314  0.2354  0.0358
11821TIP3    H156954   3.810   0.222   4.346 -0.4738  1.0941 -0.4890
11821TIP3    H256955   3.896   0.339   4.387  0.8440 -0.1850  0.5201
11822TIP3   OH256956   4.641   4.523   3.273  0.2622  0.2995 -0.1538
11822TIP3    H156957   4.628   4.572   3.354  0.2352 -0.0106  0.0320
11822TIP3    H256958   4.586   4.445   3.284  0.2430  0.2669 -0.4786
11823TIP3   OH256959   6.384   1.669   1.132  0.3924 -0.0551 -0.2459
11823TIP3    H156960   6.428   1.610   1.070 -0.1765 -1.6193  0.7716
11823TIP3    H256961   6.454   1.724   1.166  0.9689 -0.1955 -1.1424
11824TIP3   OH256962   2.349   6.290   0.148 -0.0687 -0.1251 -0.1704
11824TIP3    H156963   2.314   6.235   0.219 -1.0296 -0.8728 -1.1851
11824TIP3    H256964   2.423   6.241   0.114  0.1274  0.0289  0.0320
11825TIP3   OH256965   6.819   2.434   5.640  0.2713 -0.3178  0.0830
11825TIP3    H156966   6.833   2.432   5.735 -0.3217 -0.1721  0.1776
11825TIP3    H256967   6.855   2.351   5.609  0.4281 -0.3876  0.4409
11826TIP3   OH256968   6.189   6.419   0.170  0.4649  0.2258  0.4615
11826TIP3    H156969   6.199   6.370   0.252 -1.5938 -0.5046  0.3374
11826TIP3    H256970   6.255   6.380   0.112  0.9637 -0.2566  1.3121
11827TIP3   OH256971   1.541   5.003   0.834 -0.0924  0.2912  0.4491
11827TIP3    H156972   1.477   4.932   0.833 -0.1578  0.1565 -3.3427
11827TIP3    H256973   1.608   4.975   0.896 -1.4150 -1.8223  1.0092
11828TIP3   OH256974   1.285   2.517   0.842  0.0435  0.1574  0.9680
11828TIP3    H156975   1.289   2.515   0.938 -0.3175 -0.6510  0.9713
11828TIP3    H256976   1.376   2.509   0.814  0.1090 -0.0483  1.2402
11829TIP3   OH256977   1.884   6.267  11.919 -0.3189  0.1170 -0.2263
11829TIP3    H156978   1.907   6.196  11.859 -2.3399 -1.2565  0.5217
11829TIP3    H256979   1.795   6.290  11.895 -0.8702  0.1015  1.6759
11830TIP3   OH256980   4.466   6.144   0.084 -0.1639 -0.7833  0.1337
11830TIP3    H156981   4.545   6.092   0.100  0.7591  0.6055  0.2548
11830TIP3    H256982   4.420   6.097   0.014  1.0273 -1.3450 -0.2894
11831TIP3   OH256983   1.926   3.886  14.928  0.6671  0.3646  0.3468
11831TIP3    H156984   1.909   3.908  14.837 -0.4687  0.2557  0.5183
11831TIP3    H256985   1.984   3.956  14.959  0.6056  0.7094 -0.3062
11832TIP3   OH256986   1.193   1.190  15.097 -0.9028  0.2999 -0.0651
11832TIP3    H156987   1.267   1.194  15.037  0.8348 -1.8871  1.7316
11832TIP3    H256988   1.217   1.247  15.170 -0.2821 -1.4329  1.1480
11833TIP3   OH256989   1.961   0.724  14.948  0.4581  0.3385  0.0280
11833TIP3    H156990   1.997   0.636  14.938 -1.3055 -0.3542 -0.6431
11833TIP3    H256991   2.033   0.782  14.923  1.7516 -0.8745  0.7898
11834TIP3   OH256992   2.360   4.779  15.374  0.1605 -0.4638  0.0807
11834TIP3    H156993   2.336   4.855  15.426 -1.5902 -0.5847 -0.4983
11834TIP3    H256994   2.406   4.722  15.435  0.5897  0.5947  0.7736
11835TIP3   OH256995   4.623   6.478   0.392  0.5777  0.3511 -0.0992
11835TIP3    H156996   4.594   6.547   0.453 -0.1238  1.0197 -1.1512
11835TIP3    H256997   4.706   6.447   0.428  0.2217  0.7926  1.1414
11836TIP3   OH256998   0.965   3.601   0.008  0.3084 -0.0532 -0.3827
11836TIP3    H156999   1.030   3.600  -0.061 -0.2108  2.0371 -0.9687
11836TIP3    H257000   0.883   3.623  -0.036 -0.1751  0.5428  0.7616
11837TIP3   OH257001   6.182   4.434   1.297  0.1416 -0.2724  0.5664
11837TIP3    H157002   6.161   4.517   1.340  0.0388 -0.0356  0.0594
11837TIP3    H257003   6.132   4.368   1.346  1.0575 -0.1832  1.6557
11838TIP3   OH257004   4.333   3.461   5.669  0.5440  0.7174 -0.2392
11838TIP3    H157005   4.408   3.426   5.716  1.0809  0.9257 -0.9331
11838TIP3    H257006   4.370   3.518   5.602 -0.0766 -0.9790 -2.1362
11839TIP3   OH257007   0.795   6.693  16.458 -0.5000  0.0938  0.2598
11839TIP3    H157008   0.755   6.779  16.443 -0.7237 -0.0508  0.0277
11839TIP3    H257009   0.878   6.697  16.411 -0.5736  0.1356  0.1314
11840TIP3   OH257010   3.744   6.312  16.177 -0.3610  0.7869  0.6726
11840TIP3    H157011   3.797   6.350  16.246  0.6507 -1.2903  1.1169
11840TIP3    H257012   3.806   6.290  16.108 -1.0470  0.8385  0.0273
11841TIP3   OH257013   0.599   1.354   4.163  0.1185  0.3669 -0.1277
11841TIP3    H157014   0.650   1.378   4.086  1.0064 -0.2284  0.2492
11841TIP3    H257015   0.594   1.258   4.160  0.1576  0.3357  0.5385
11842TIP3   OH257016   0.911   4.936  13.536  0.0476  0.8094 -1.0462
11842TIP3    H157017   0.851   4.941  13.611  0.3899  1.3166 -0.8006
11842TIP3    H257018   0.862   4.888  13.470  0.3390 -1.1214  0.0680
11843TIP3   OH257019   2.794   3.950   0.565 -0.2502  0.1938 -0.4637
11843TIP3    H157020   2.750   3.968   0.482  0.2119 -0.3878 -0.8373
11843TIP3    H257021   2.728   3.969   0.631 -0.8774 -0.1096 -0.9932
11844TIP3   OH257022   4.741   5.760  16.848  0.3536 -0.0765 -0.3161
11844TIP3    H157023   4.655   5.799  16.864 -0.4256 -1.7779 -0.1571
11844TIP3    H257024   4.722   5.673  16.813  1.9878 -0.9666  0.8458
11845TIP3   OH257025   5.434   1.438   2.373 -0.4024  0.2472  0.3834
11845TIP3    H157026   5.485   1.506   2.328 -1.1104  1.7390  1.7216
11845TIP3    H257027   5.343   1.457   2.349 -0.6352 -0.0016  1.0389
11846TIP3   OH257028   5.780   2.240  17.242 -0.5040  0.2388  0.7413
11846TIP3    H157029   5.717   2.266  17.175  0.6129  0.2933 -0.3179
11846TIP3    H257030   5.839   2.314  17.250  0.5017 -0.5009  0.3893
11847TIP3   OH257031   3.464   0.390   2.357 -0.5069  0.4223  0.2461
11847TIP3    H157032   3.434   0.468   2.403 -2.9494 -0.0054 -0.4699
11847TIP3    H257033   3.434   0.402   2.267  1.1732 -0.2930 -0.4548
11848TIP3   OH257034   0.861   3.222   4.740 -0.4053  0.1038  0.2677
11848TIP3    H157035   0.948   3.193   4.767  0.2035  0.3674 -1.3294
11848TIP3    H257036   0.834   3.283   4.809  1.5698  1.6376 -0.2309
11849TIP3   OH257037   3.578   6.553  16.350 -0.7483  0.3426 -0.5572
11849TIP3    H157038   3.528   6.630  16.321  0.1028  0.7340 -1.0375
11849TIP3    H257039   3.567   6.551  16.445  1.0834  2.4642 -0.2091
11850TIP3   OH257040   2.495   6.520  16.637 -0.4272  0.0230 -0.3853
11850TIP3    H157041   2.520   6.541  16.546  1.6767 -0.7043 -0.0431
11850TIP3    H257042   2.510   6.601  16.685  0.6377 -0.1786 -0.3367
11851TIP3   OH257043   6.509   2.878   6.046 -0.2655 -0.0136 -0.1465
11851TIP3    H157044   6.470   2.861   6.132 -2.4298  0.6646 -0.9088
11851TIP3    H257045   6.452   2.831   5.985  1.1313 -0.3381 -1.2491
11852TIP3   OH257046   4.189   3.498  12.949 -0.1544  0.4169 -0.0203
11852TIP3    H157047   4.219   3.578  12.993  1.7797 -1.6849  2.8481
11852TIP3    H257048   4.261   3.436  12.961 -1.0986 -1.4968 -3.1048
11853TIP3   OH257049   3.715   1.818  16.615  0.0843 -0.3559  0.4990
11853TIP3    H157050   3.785   1.872  16.651  0.5846 -1.3337  1.0228
11853TIP3    H257051   3.639   1.876  16.612  0.7617  0.5526  0.4624
11854TIP3   OH257052   4.067   6.017  12.937  0.1703 -0.5582 -0.1069
11854TIP3    H157053   4.026   6.101  12.951  0.2123 -0.6747  0.7870
11854TIP3    H257054   4.149   6.037  12.892  0.6074 -0.0241  0.8959
11855TIP3   OH257055   1.689   6.745  15.734 -0.4211 -0.1910  0.1768
11855TIP3    H157056   1.648   6.668  15.694 -1.2413  0.6515 -0.6424
11855TIP3    H257057   1.739   6.784  15.663 -0.1611  0.1337  0.5420
11856TIP3   OH257058   2.170   5.150  16.249  0.7887  0.0919 -0.1464
11856TIP3    H157059   2.171   5.055  16.258 -0.2500 -0.0181 -0.9618
11856TIP3    H257060   2.217   5.182  16.326 -0.0753 -1.0332  0.8947
11857TIP3   OH257061   0.784   3.727  17.108 -0.2385  0.1856 -0.0089
11857TIP3    H157062   0.866   3.722  17.059  0.5492  2.1444  1.0033
11857TIP3    H257063   0.754   3.817  17.096 -3.0306 -0.8162 -1.4934
11858TIP3   OH257064   3.442   3.506  16.671  0.0184 -0.2417 -0.6709
11858TIP3    H157065   3.354   3.469  16.673  0.0779 -0.3534  0.1303
11858TIP3    H257066   3.438   3.581  16.731  0.5773 -0.4970 -0.3038
11859TIP3   OH257067   5.889   6.190   3.432  0.2532  0.0101  0.4008
11859TIP3    H157068   5.974   6.233   3.443 -0.1953  1.1340 -0.3854
11859TIP3    H257069   5.911   6.098   3.417  1.3914  0.3974 -0.5178
11860TIP3   OH257070   0.197   2.167   5.171  0.2509  0.3393  0.2345
11860TIP3    H157071   0.212   2.162   5.265 -0.7774 -2.0184  0.3457
11860TIP3    H257072   0.129   2.101   5.154 -1.5800  2.5562 -1.7859
11861TIP3   OH257073   4.448   2.187  12.850  0.2101  0.4707  0.4266
11861TIP3    H157074   4.529   2.199  12.899  2.6394  0.2392 -3.1411
11861TIP3    H257075   4.430   2.093  12.855  1.1310  0.2598 -0.0683
11862TIP3   OH257076   1.633   1.038   3.254 -0.6477 -0.8679 -0.1878
11862TIP3    H157077   1.569   1.106   3.277  1.7904  1.1613  1.0984
11862TIP3    H257078   1.596   0.958   3.290 -2.9467 -0.0008 -0.4329
11863TIP3   OH257079   6.023   1.310  15.231 -0.3387  0.2863 -0.9297
11863TIP3    H157080   6.073   1.228  15.234  0.4752  0.7908 -0.0223
11863TIP3    H257081   6.072   1.365  15.170  0.5491  0.9585  0.3354
11864TIP3   OH257082   6.050   1.661   4.397 -0.5730 -0.2960 -0.3649
11864TIP3    H157083   6.067   1.655   4.491  2.7369  2.3765 -0.5820
11864TIP3    H257084   5.984   1.730   4.389  0.5527  0.8919  0.0408
11865TIP3   OH257085   6.023   4.689   1.175 -1.0258  0.0031 -0.1029
11865TIP3    H157086   6.025   4.674   1.269 -0.2274 -2.6018 -0.4493
11865TIP3    H257087   6.115   4.686   1.148 -1.1988  1.2517 -0.9165
11866TIP3   OH257088   5.292   6.014   4.745  0.0285  0.1689  0.1330
11866TIP3    H157089   5.275   5.962   4.667 -1.7683 -0.0879  0.6670
11866TIP3    H257090   5.310   5.950   4.813  2.7193  0.4013 -0.2251
11867TIP3   OH257091   3.584   2.028  15.975 -0.0662 -0.4474 -0.6024
11867TIP3    H157092   3.503   2.074  15.997  0.3877  0.3212 -0.5118
11867TIP3    H257093   3.586   2.025  15.880 -0.0946 -0.2569 -0.6101
11868TIP3   OH257094   3.722   2.248  12.456 -0.1144  0.1790  1.4123
11868TIP3    H157095   3.789   2.215  12.516 -0.9596  0.7970  2.7189
11868TIP3    H257096   3.665   2.303  12.510 -1.4481  0.0054  0.2379
11869TIP3   OH257097   6.157   4.683  12.839 -0.2808  0.0811 -0.5257
11869TIP3    H157098   6.114   4.698  12.755 -0.7529  1.8139  0.0016
11869TIP3    H257099   6.249   4.668  12.816 -0.4002  0.5665 -1.3503
11870TIP3   OH257100   0.797   1.101   1.776  0.3987  0.2587 -0.1762
11870TIP3    H157101   0.882   1.061   1.793 -0.3548 -1.4130 -0.0817
11870TIP3    H257102   0.811   1.157   1.700  1.4834 -0.3827 -0.4697
11871TIP3   OH257103   6.340   2.175  12.834  0.5480 -0.1573  0.0691
11871TIP3    H157104   6.340   2.098  12.778  1.7774  0.9042 -1.4903
11871TIP3    H257105   6.432   2.186  12.861  0.8118  1.7892 -1.3452
11872TIP3   OH257106   3.633   5.082  14.630 -0.1898  0.2261 -0.0072
11872TIP3    H157107   3.636   5.143  14.556 -1.9773  0.2618 -0.1059
11872TIP3    H257108   3.640   4.995  14.590 -0.4544  0.2755 -0.1676
11873TIP3   OH257109   1.988   3.298  13.585 -0.2427  0.1735 -0.0714
11873TIP3    H157110   1.928   3.336  13.522  0.3029 -0.3651 -0.9335
11873TIP3    H257111   2.044   3.240  13.534 -0.6944 -1.3861  1.1065
11874TIP3   OH257112   1.605   5.145  16.072  0.2567  0.4427  0.0587
11874TIP3    H157113   1.598   5.116  16.163  2.0814  4.1459  1.5985
11874TIP3    H257114   1.517   5.173  16.049 -0.1219 -0.0502  0.8535
11875TIP3   OH257115   6.624   0.212  15.760  0.1164 -0.7749 -0.1039
11875TIP3    H157116   6.591   0.184  15.845 -0.2824 -1.5997 -0.5177
11875TIP3    H257117   6.546   0.235  15.710  0.2358 -1.5852 -0.6878
11876TIP3   OH257118   6.418   5.777   1.863  0.2936 -0.1488 -0.6181
11876TIP3    H157119   6.365   5.737   1.932 -0.2649  0.6673 -0.5650
11876TIP3    H257120   6.355   5.805   1.797  0.7000  0.3719 -0.7924
11877TIP3   OH257121   6.197   0.950   2.530  0.1671  0.5184  0.5891
11877TIP3    H157122   6.276   0.934   2.477 -0.3622  1.0030 -0.3635
11877TIP3    H257123   6.130   0.895   2.491  0.0000  0.1603  1.3580
11878TIP3   OH257124   4.704   3.568  15.058  0.2709  0.0974  0.6971
11878TIP3    H157125   4.737   3.640  15.005 -1.1503  0.9418  0.8909
11878TIP3    H257126   4.715   3.597  15.148  1.0911 -0.5998  0.8347
11879TIP3   OH257127   2.044   4.174   0.680  0.0236  0.4979 -0.5142
11879TIP3    H157128   2.021   4.185   0.587 -0.5718 -0.6528 -0.5233
11879TIP3    H257129   2.063   4.081   0.689 -2.3565  0.0699  1.0099
11880TIP3   OH257130   2.206   4.392   3.492 -0.3779 -1.2747 -0.3730
11880TIP3    H157131   2.112   4.372   3.492 -0.4287 -1.3902  2.0394
11880TIP3    H257132   2.247   4.312   3.525  0.4240 -0.7724 -0.1269
11881TIP3   OH257133   1.113   1.595   2.376 -0.7287  0.1974 -0.2354
11881TIP3    H157134   1.145   1.572   2.463  0.7489  2.8168 -0.0036
11881TIP3    H257135   1.161   1.537   2.317 -0.9337 -0.8353  0.5779
11882TIP3   OH257136   3.498   2.830   5.323 -0.3762  0.7010 -0.6662
11882TIP3    H157137   3.504   2.759   5.387 -2.4969  1.7279  0.7414
11882TIP3    H257138   3.436   2.798   5.258 -1.5698  1.3401  0.1304
11883TIP3   OH257139   2.269   2.353   3.061  0.2739  0.1806  0.8880
11883TIP3    H157140   2.294   2.275   3.111  0.0893  0.6981  1.8213
11883TIP3    H257141   2.319   2.347   2.980 -0.3275 -1.3127  0.5867
11884TIP3   OH257142   1.045   5.653   0.178  0.8225  0.6303  0.3321
11884TIP3    H157143   0.959   5.621   0.152  0.5993  1.0665  0.5154
11884TIP3    H257144   1.075   5.592   0.246  0.7177  0.4021  0.1730
11885TIP3   OH257145   6.606   3.159  15.125  0.3875 -0.2186 -0.5625
11885TIP3    H157146   6.701   3.161  15.128  0.3613  0.3426  0.5466
11885TIP3    H257147   6.584   3.163  15.032  1.4498 -2.5499 -0.9680
11886TIP3   OH257148   0.694   3.342  16.101 -0.1016 -0.0156 -0.2546
11886TIP3    H157149   0.698   3.343  16.005  0.0431  0.0208 -0.2483
11886TIP3    H257150   0.632   3.272  16.121 -1.4850  1.1072 -0.4179
11887TIP3   OH257151   0.928   0.348  15.009 -0.3894  0.3784  0.3174
11887TIP3    H157152   0.968   0.267  14.976 -1.5293 -0.3071  0.5609
11887TIP3    H257153   1.000   0.394  15.052  0.3879 -0.2631 -0.2636
11888TIP3   OH257154   5.723   3.073  13.847  0.9947  0.0298 -0.6130
11888TIP3    H157155   5.751   2.986  13.818 -3.3183 -1.4400 -1.1195
11888TIP3    H257156   5.717   3.065  13.942  1.1800 -0.0385 -0.6069
11889TIP3   OH257157   0.623   6.028  13.549  0.7512 -0.3247  0.5422
11889TIP3    H157158   0.710   6.019  13.510  1.2909  0.1025  1.6222
11889TIP3    H257159   0.623   6.115  13.590 -0.7241  0.3439 -0.7341
11890TIP3   OH257160   3.614   2.567  16.929 -0.5686  0.5243  0.5724
11890TIP3    H157161   3.622   2.640  16.990 -2.2673 -0.1702  1.7256
11890TIP3    H257162   3.595   2.608  16.844 -0.2914  1.4448  0.9446
11891TIP3   OH257163   3.326   5.273  11.328  0.4335 -0.2335 -0.4553
11891TIP3    H157164   3.379   5.333  11.276  0.1670  0.3852 -0.0253
11891TIP3    H257165   3.328   5.310  11.416 -0.3082 -0.4717 -0.3320
11892TIP3   OH257166   3.809   2.465  16.630  0.2114  0.2170  0.0424
11892TIP3    H157167   3.717   2.445  16.649  0.7614 -1.7267  0.8372
11892TIP3    H257168   3.859   2.410  16.690  1.9238  0.5847 -0.9786
11893TIP3   OH257169   6.625   6.671   6.280  0.2084 -0.0621 -0.4898
11893TIP3    H157170   6.640   6.577   6.271  0.2795 -0.2642  1.3356
11893TIP3    H257171   6.532   6.678   6.305  0.6927  0.1731  1.3663
11894TIP3   OH257172   5.793   3.406   1.496 -0.0512  0.3022  0.8880
11894TIP3    H157173   5.732   3.466   1.454 -0.3695 -1.0493 -0.6518
11894TIP3    H257174   5.840   3.460   1.560 -3.6123  1.1729  3.0031
11895TIP3   OH257175   2.921   0.419   4.567 -0.2996  0.1243 -0.1635
11895TIP3    H157176   2.961   0.349   4.618 -1.9858 -0.8683 -0.1471
11895TIP3    H257177   2.856   0.458   4.625 -0.7686  0.3840 -0.8453
11896TIP3   OH257178   3.471   3.227  14.533 -0.3361  0.3083  0.4639
11896TIP3    H157179   3.453   3.242  14.440 -0.8206 -1.2167  0.2780
11896TIP3    H257180   3.551   3.173  14.533 -1.0821 -0.8369  0.8410
11897TIP3   OH257181   2.035   0.523   1.700  0.1097 -0.0792 -0.4139
11897TIP3    H157182   2.009   0.452   1.758 -2.5618  0.1110 -1.2038
11897TIP3    H257183   2.007   0.493   1.613  0.5736  1.1905 -1.0205
11898TIP3   OH257184   0.443   4.324  15.911 -0.0690  0.2318  0.5364
11898TIP3    H157185   0.437   4.228  15.907 -0.3724  0.2160  1.1589
11898TIP3    H257186   0.519   4.346  15.858 -0.0405 -0.3524  0.3298
11899TIP3   OH257187   6.675   3.406   3.167  0.1282  0.1371  0.3786
11899TIP3    H157188   6.627   3.327   3.145 -1.0183  0.6739  0.8727
11899TIP3    H257189   6.741   3.414   3.098  2.1956 -2.7480  1.8114
11900TIP3   OH257190   5.393   5.060  12.678 -0.0626 -0.3495  0.2957
11900TIP3    H157191   5.348   5.106  12.749  0.6764 -0.6981  1.0210
11900TIP3    H257192   5.455   5.125  12.644 -0.5226 -0.1339 -0.1422
11901TIP3   OH257193   3.522   1.456  13.253  0.7039  0.5540 -0.0895
11901TIP3    H157194   3.607   1.431  13.215  0.0557 -2.3410  0.1620
11901TIP3    H257195   3.479   1.373  13.272 -2.2790  1.9458 -0.2946
11902TIP3   OH257196   0.304   5.930  16.321 -0.0302  0.0245  0.7712
11902TIP3    H157197   0.386   5.970  16.294  0.3283 -0.3382  1.3104
11902TIP3    H257198   0.238   5.971  16.265  0.2049  1.9280  1.8218
11903TIP3   OH257199   2.568   2.957   2.011 -0.3732 -0.3367 -0.0293
11903TIP3    H157200   2.533   2.895   1.947 -1.4685 -0.4634  0.6694
11903TIP3    H257201   2.543   2.921   2.096  1.7884 -0.6085  0.5402
11904TIP3   OH257202   0.946   1.822  15.356  0.3243 -0.3729  0.2105
11904TIP3    H157203   1.034   1.853  15.331  0.5991 -1.7668 -0.6467
11904TIP3    H257204   0.890   1.850  15.284  0.1678  0.0025  0.4753
11905TIP3   OH257205   3.263   5.280   5.942 -0.3825 -0.1374  0.1072
11905TIP3    H157206   3.312   5.231   6.007 -1.4967 -0.5002  0.7069
11905TIP3    H257207   3.229   5.356   5.989 -2.9851 -1.4799  0.6147
11906TIP3   OH257208   3.040   6.601   0.923  0.6109 -0.3607  0.2980
11906TIP3    H157209   2.970   6.538   0.940 -0.6461  1.5030  2.6765
11906TIP3    H257210   3.042   6.611   0.828 -1.5786 -1.3338  0.0919
11907TIP3   OH257211   3.131   2.472  14.854 -0.1216  0.4762 -0.1666
11907TIP3    H157212   3.103   2.436  14.938  0.0157  1.4258  0.2921
11907TIP3    H257213   3.087   2.557  14.848 -0.3335  0.3097 -1.1720
11908TIP3   OH257214   3.601   5.955  11.892 -0.2660  0.0317  0.4031
11908TIP3    H157215   3.639   5.869  11.874 -2.3871 -0.8195 -0.3597
11908TIP3    H257216   3.672   6.004  11.934  1.4412 -1.6136 -0.3678
11909TIP3   OH257217   0.136   3.159  13.947 -0.7702  0.0441 -0.1090
11909TIP3    H157218   0.078   3.227  13.982  0.4671  0.8908  0.3695
11909TIP3    H257219   0.182   3.202  13.875  0.5978 -0.0220  0.6974
11910TIP3   OH257220   1.941   4.375   4.978  0.9023 -0.0433  0.7140
11910TIP3    H157221   1.854   4.347   4.948  0.8395 -0.6941  1.4533
11910TIP3    H257222   1.963   4.312   5.046  0.3372  2.3031  3.2210
11911TIP3   OH257223   5.391   5.619  11.717  0.5910 -0.3057 -0.0289
11911TIP3    H157224   5.459   5.666  11.765  0.0338  2.5752 -1.7753
11911TIP3    H257225   5.438   5.555  11.664  1.3491 -2.2506  2.7430
11912TIP3   OH257226   2.482   2.548  15.068 -0.2106 -0.5199 -0.3579
11912TIP3    H157227   2.393   2.522  15.043 -0.3981  0.1967 -0.4672
11912TIP3    H257228   2.469   2.623  15.126  0.3651  0.6828 -1.7090
11913TIP3   OH257229   6.817   6.285   5.301 -0.0064 -0.6735 -0.3498
11913TIP3    H157230   6.770   6.256   5.223 -0.8266  1.2785 -0.6428
11913TIP3    H257231   6.829   6.379   5.289  2.5901 -0.8208  0.4955
11914TIP3   OH257232   0.543   5.908  14.201 -0.1195  0.2889  0.0144
11914TIP3    H157233   0.556   5.813  14.207  1.1979  0.5192  1.3547
11914TIP3    H257234   0.448   5.919  14.198 -0.3056 -1.0470  0.3375
11915TIP3   OH257235   6.346   2.810  13.764 -0.3299 -0.1087 -0.4762
11915TIP3    H157236   6.395   2.809  13.846 -0.8368 -1.3738 -0.1571
11915TIP3    H257237   6.265   2.764  13.784  0.0685 -1.5931 -1.9823
11916TIP3   OH257238   1.978   3.905   4.930 -0.1749 -1.0450  0.5924
11916TIP3    H157239   1.913   3.972   4.910  0.8969  0.4221  1.8016
11916TIP3    H257240   1.928   3.823   4.931 -1.3184 -0.4726 -2.0062
11917TIP3   OH257241   1.195   5.185  12.860  0.1057 -0.1191 -0.3774
11917TIP3    H157242   1.188   5.232  12.777 -0.8741  0.6850  0.1351
11917TIP3    H257243   1.225   5.251  12.922  2.0799 -1.0147 -0.3124
11918TIP3   OH257244   4.263   4.690  10.786 -0.4712 -0.1639 -0.2839
11918TIP3    H157245   4.347   4.726  10.814 -0.2810  1.0389 -2.2264
11918TIP3    H257246   4.286   4.605  10.747 -0.5528 -1.1113  1.5866
11919TIP3   OH257247   3.375   6.030   0.809 -0.4303 -0.1284 -0.6538
11919TIP3    H157248   3.386   6.043   0.715  1.6967 -1.2887 -0.6322
11919TIP3    H257249   3.444   6.083   0.849 -1.7587  0.9200  0.3296
11920TIP3   OH257250   5.233   0.447   3.456 -0.4744  0.2916 -0.3456
11920TIP3    H157251   5.253   0.473   3.546 -2.1206 -0.4883  0.2872
11920TIP3    H257252   5.276   0.514   3.402  2.7705 -0.6580  0.8423
11921TIP3   OH257253   0.588   2.333   5.623 -0.0310 -0.0626  0.2417
11921TIP3    H157254   0.648   2.295   5.687  0.7172 -0.3162 -0.5963
11921TIP3    H257255   0.502   2.327   5.665  0.6840  1.9510  2.2489
11922TIP3   OH257256   2.317   2.413   1.748 -0.3728  0.1374 -0.7183
11922TIP3    H157257   2.280   2.328   1.771  1.1793 -0.5934 -0.8245
11922TIP3    H257258   2.278   2.434   1.663 -2.4383  0.5943  0.2860
11923TIP3   OH257259   1.069   1.770   3.665 -0.9887  0.7694 -0.6844
11923TIP3    H157260   1.144   1.824   3.689  0.5636 -1.4936 -0.1311
11923TIP3    H257261   1.016   1.765   3.744 -0.4986  0.5004 -0.3708
11924TIP3   OH257262   0.682   0.841   1.658 -0.6993  0.1562  0.0808
11924TIP3    H157263   0.702   0.934   1.668  0.1210 -0.1916  2.0678
11924TIP3    H257264   0.620   0.838   1.585  1.0102  1.9977 -1.5757
11925TIP3   OH257265   3.585   2.103  10.777  0.2482  0.1514 -0.3586
11925TIP3    H157266   3.518   2.042  10.808  0.9574 -1.9895 -2.6793
11925TIP3    H257267   3.540   2.187  10.770 -0.7773  0.0103  2.9253
11926TIP3   OH257268   4.072   5.751  11.641  0.0845 -0.9335  0.0092
11926TIP3    H157269   4.161   5.756  11.676 -0.3130 -0.9450  1.0849
11926TIP3    H257270   4.060   5.834  11.594  0.1689 -0.2519  1.1465
11927TIP3   OH257271   3.576   5.719  15.742  0.6983 -0.1587 -0.6228
11927TIP3    H157272   3.565   5.630  15.706  0.6602 -0.1825 -0.5520
11927TIP3    H257273   3.599   5.705  15.834  1.9624 -0.1235 -0.9184
11928TIP3   OH257274   0.759   3.778   4.302 -0.2441 -0.6853  0.0033
11928TIP3    H157275   0.679   3.827   4.318 -0.6832 -0.5897 -2.1906
11928TIP3    H257276   0.830   3.838   4.327 -0.7904  0.7575 -1.7342
11929TIP3   OH257277   4.047   1.155  12.388 -0.4252 -0.1353 -0.5000
11929TIP3    H157278   4.065   1.185  12.477  1.0859 -1.5971 -0.2520
11929TIP3    H257279   4.008   1.068  12.399  0.5129 -0.6831 -1.2385
11930TIP3   OH257280   5.306   4.484  13.797 -0.0682  0.2387 -0.2236
11930TIP3    H157281   5.284   4.414  13.735  0.0397 -0.2305  0.2584
11930TIP3    H257282   5.383   4.451  13.844  0.5481  1.0793 -0.6209
11931TIP3   OH257283   3.907   5.584  16.088  0.0837  0.6238 -0.9013
11931TIP3    H157284   3.871   5.566  16.175  1.4817 -2.5717 -0.8607
11931TIP3    H257285   3.830   5.595  16.032 -0.8596  0.3263  0.2921
11932TIP3   OH257286   3.087   0.741  13.636  0.6787 -0.4022  0.2612
11932TIP3    H157287   3.114   0.673  13.699  2.1420  0.5356  0.7066
11932TIP3    H257288   3.049   0.810  13.691  1.3233  0.1231  0.0547
11933TIP3   OH257289   2.603   0.738  16.238  0.2214  0.5329 -0.0243
11933TIP3    H157290   2.645   0.764  16.320  0.4102  1.0276 -0.2735
11933TIP3    H257291   2.672   0.746  16.172 -0.1594  0.9802 -0.3706
11934TIP3   OH257292   2.026   3.737  14.145 -0.3144 -0.1453 -0.1288
11934TIP3    H157293   1.982   3.653  14.160  0.0390 -0.6002 -1.4636
11934TIP3    H257294   2.119   3.719  14.160 -0.0056 -0.4988 -2.1439
11935TIP3   OH257295   1.056   4.948  12.886 -0.0456  0.1817  0.3259
11935TIP3    H157296   1.064   4.929  12.979  1.4742 -2.6139 -0.2771
11935TIP3    H257297   1.115   5.022  12.872  0.3927  0.0569  1.4269
11936TIP3   OH257298   3.269   3.232   4.184  0.0620  0.3471  0.4667
11936TIP3    H157299   3.314   3.189   4.111  0.0419  1.1962 -0.0674
11936TIP3    H257300   3.296   3.323   4.178 -1.4092  0.8128  0.3618
11937TIP3   OH257301   5.106   3.730  15.949 -0.0629 -0.3481 -0.2079
11937TIP3    H157302   5.161   3.656  15.971 -1.9073 -1.7156  0.0130
11937TIP3    H257303   5.068   3.707  15.864 -0.5977  0.3833 -0.1765
11938TIP3   OH257304   4.874   3.122   2.392  0.4093  0.1227  0.1364
11938TIP3    H157305   4.969   3.114   2.382  0.3005 -0.4607 -0.4421
11938TIP3    H257306   4.842   3.142   2.305 -0.1306 -0.9730  0.0713
11939TIP3   OH257307   4.925   4.162  11.813 -0.0051 -0.1534  0.1256
11939TIP3    H157308   4.977   4.123  11.883  0.5967  1.0227  0.3587
11939TIP3    H257309   4.884   4.088  11.769 -0.1508 -0.9276  1.5315
11940TIP3   OH257310   4.717   1.881   3.286 -0.0453  0.0019 -0.3335
11940TIP3    H157311   4.750   1.937   3.217 -1.6144  1.4826  0.0506
11940TIP3    H257312   4.647   1.932   3.327 -1.5089 -2.2033  0.0795
11941TIP3   OH257313   0.302   1.334   2.858 -0.1811  0.0075 -0.1054
11941TIP3    H157314   0.314   1.303   2.948  0.3715 -1.1650 -0.5668
11941TIP3    H257315   0.341   1.266   2.803  0.5331  1.2421 -1.1917
11942TIP3   OH257316   4.186   5.531  16.870 -0.3234 -0.0302  0.2196
11942TIP3    H157317   4.142   5.570  16.795  0.3095  0.0436 -0.1221
11942TIP3    H257318   4.229   5.453  16.834 -1.4047 -0.9446  0.8490
11943TIP3   OH257319   2.687   4.637   2.080 -0.3750  0.4848  0.2221
11943TIP3    H157320   2.696   4.545   2.054 -0.5042  0.4784  0.1967
11943TIP3    H257321   2.775   4.673   2.073 -0.4376  0.5272 -0.3838
11944TIP3   OH257322   3.117   1.715  14.573 -0.9392  0.6909  0.0093
11944TIP3    H157323   3.069   1.656  14.514 -0.3491 -0.1061  0.3085
11944TIP3    H257324   3.052   1.744  14.636 -1.2436  0.3655 -0.1509
11945TIP3   OH257325   0.487   4.014  11.783 -0.0671  0.4459 -0.1555
11945TIP3    H157326   0.487   4.053  11.696 -0.3761  1.3238  0.2314
11945TIP3    H257327   0.465   4.086  11.842  0.5768 -0.0364  0.6993
11946TIP3   OH257328   6.394   2.654  14.163 -0.6272  0.0135 -0.1634
11946TIP3    H157329   6.315   2.707  14.176  0.2195  0.9844  1.3433
11946TIP3    H257330   6.413   2.618  14.249  0.6471 -0.0910 -0.4659
11947TIP3   OH257331   5.679   4.590  13.504  0.1243  0.1908  0.0299
11947TIP3    H157332   5.750   4.604  13.567 -0.6592  1.7124  0.6499
11947TIP3    H257333   5.723   4.585  13.419  1.3084 -2.8954  0.6872
11948TIP3   OH257334   0.359   6.416   5.627  0.0933  0.2696  0.3821
11948TIP3    H157335   0.411   6.473   5.684  0.4842 -0.6936  0.9988
11948TIP3    H257336   0.424   6.358   5.586 -0.4140 -0.4367  0.5705
11949TIP3   OH257337   1.230   6.053   2.989 -0.2135  0.1161 -0.3344
11949TIP3    H157338   1.174   6.032   3.064 -1.2682  0.7739 -0.9132
11949TIP3    H257339   1.169   6.058   2.915  0.9075 -1.3477 -1.4174
11950TIP3   OH257340   3.518   0.169   2.045 -0.2127  0.2936 -0.2604
11950TIP3    H157341   3.602   0.189   2.086 -0.1016 -0.4080 -0.1362
11950TIP3    H257342   3.541   0.128   1.962 -0.4143 -1.0440  0.3270
11951TIP3   OH257343   1.525   2.767  12.210 -0.1729 -0.0592  0.1368
11951TIP3    H157344   1.525   2.803  12.298  2.0541 -1.8194  0.9359
11951TIP3    H257345   1.611   2.790  12.175 -0.6703 -0.2005 -1.2403
11952TIP3   OH257346   5.586   6.379   5.539 -0.2573 -0.2103  0.2838
11952TIP3    H157347   5.566   6.379   5.632  0.7276 -0.3976  0.5014
11952TIP3    H257348   5.568   6.469   5.511  0.3592  0.1051  0.8651
11953TIP3   OH257349   0.399   2.030  12.408 -0.1788 -0.2616 -0.3078
11953TIP3    H157350   0.373   1.939  12.389  0.5455 -0.7269  0.8275
11953TIP3    H257351   0.362   2.080  12.335 -1.6647 -1.2792 -0.3122
11954TIP3   OH257352   5.981   2.217  16.925  0.6554 -0.0654  0.3271
11954TIP3    H157353   6.008   2.300  16.965 -1.0218  0.7366 -0.1118
11954TIP3    H257354   5.929   2.174  16.994 -0.6145  0.4403 -0.2810
11955TIP3   OH257355   6.390   3.285   5.633  0.2327  0.0687  0.2806
11955TIP3    H157356   6.405   3.368   5.588  1.1978  0.1661  0.7526
11955TIP3    H257357   6.439   3.293   5.714  1.6374 -1.5464 -0.3493
11956TIP3   OH257358   6.477   3.077  16.397 -0.0060  0.4477  0.0263
11956TIP3    H157359   6.448   3.096  16.308 -1.7817 -1.5084  0.1195
11956TIP3    H257360   6.572   3.090  16.394 -0.1789  1.6046 -1.8121
11957TIP3   OH257361   0.369   2.089  16.020  0.3140 -0.3718 -0.6474
11957TIP3    H157362   0.420   2.159  16.061 -2.6787  1.3436  0.4866
11957TIP3    H257363   0.388   2.097  15.927 -0.4522  2.5597 -0.6577
11958TIP3   OH257364   2.767   4.176  15.720 -0.3930  0.1239 -0.0563
11958TIP3    H157365   2.847   4.195  15.768 -0.1651  0.6840 -0.6562
11958TIP3    H257366   2.740   4.090  15.752 -0.1427  0.4005  0.9331
11959TIP3   OH257367   6.058   1.470  10.653  0.5623 -0.1103  0.5984
11959TIP3    H157368   6.103   1.386  10.658  0.7221  0.0412  2.6471
11959TIP3    H257369   5.986   1.455  10.591  1.5516 -1.2526 -0.3205
11960TIP3   OH257370   0.088   6.118  16.953 -0.2575  0.6736  0.2231
11960TIP3    H157371   0.078   6.115  17.049  2.4233  1.5807  0.6097
11960TIP3    H257372   0.121   6.032  16.929 -2.1789 -0.0265 -0.1534
11961TIP3   OH257373   2.845   2.903  15.655 -0.2368 -0.6351  0.0849
11961TIP3    H157374   2.825   2.996  15.648 -1.0072 -0.5166  2.7369
11961TIP3    H257375   2.935   2.895  15.624 -0.0776  1.0371  0.0487
11962TIP3   OH257376   5.158   3.064   0.461  0.1234 -0.3555  0.3846
11962TIP3    H157377   5.071   3.037   0.489 -0.9097  0.5622 -1.6726
11962TIP3    H257378   5.184   3.131   0.524 -1.2197  0.2240  0.3629
11963TIP3   OH257379   0.190   1.419  13.128  0.3806  0.1951 -0.2731
11963TIP3    H157380   0.218   1.375  13.208 -3.0834 -1.7713  0.0731
11963TIP3    H257381   0.219   1.362  13.057  0.0560 -0.1240 -0.1493
11964TIP3   OH257382   1.612   1.984   5.494  0.1728  0.1172 -0.4128
11964TIP3    H157383   1.518   1.981   5.511  0.3793  1.4417  1.1070
11964TIP3    H257384   1.639   1.892   5.497 -0.6121 -0.1173  2.0988
11965TIP3   OH257385   2.598   4.798  13.059  0.4849  0.2029  0.1492
11965TIP3    H157386   2.597   4.772  13.151  0.8383  1.3946  0.5108
11965TIP3    H257387   2.610   4.893  13.061  3.0595  0.0074 -1.1684
11966TIP3   OH257388   4.991   0.322   3.081 -0.1337  0.5562  0.1204
11966TIP3    H157389   4.926   0.329   3.011  0.2877 -2.0121 -0.6389
11966TIP3    H257390   5.072   0.355   3.042 -0.0681 -0.1584 -0.3526
11967TIP3   OH257391   0.217   3.787   3.291  0.4053  0.6623 -0.1682
11967TIP3    H157392   0.129   3.815   3.317  1.1194  1.5433  1.4703
11967TIP3    H257393   0.235   3.838   3.212  0.4894  2.6722  1.0708
11968TIP3   OH257394   3.763   3.365  16.508 -0.1481 -0.5260 -0.0578
11968TIP3    H157395   3.806   3.397  16.429 -0.7531 -2.2143 -1.1197
11968TIP3    H257396   3.670   3.385  16.495  0.0427  2.5317  1.9427
11969TIP3   OH257397   1.898   4.099   4.750  0.3185 -0.8093 -0.5915
11969TIP3    H157398   1.927   4.012   4.722 -0.2476 -0.9936 -0.6145
11969TIP3    H257399   1.888   4.148   4.668 -0.3500 -1.0361 -0.6478
11970TIP3   OH257400   6.678   2.961   2.662 -0.1345  0.2312  0.0913
11970TIP3    H157401   6.682   2.896   2.733 -0.4264  1.1838  0.9948
11970TIP3    H257402   6.712   2.914   2.585  2.1894 -0.2121  1.3009
11971TIP3   OH257403   1.035   6.450   4.575 -0.0759 -0.3413 -0.2022
11971TIP3    H157404   1.016   6.366   4.615  0.7424 -0.9469 -1.0401
11971TIP3    H257405   0.949   6.487   4.555 -0.4494 -1.6121 -1.0932
11972TIP3   OH257406   4.650   3.561  16.237 -0.3658 -0.3656  0.0700
11972TIP3    H157407   4.658   3.466  16.247  1.8277 -0.4175 -1.5372
11972TIP3    H257408   4.574   3.573  16.181 -0.3394 -1.1996 -0.1581
11973TIP3   OH257409   4.915   3.934  11.505 -0.1254 -0.1182  0.2392
11973TIP3    H157410   4.999   3.978  11.491  0.3671 -0.5087  1.7253
11973TIP3    H257411   4.850   3.994  11.469  0.6672  0.9976  0.6075
11974TIP3   OH257412   6.564   1.231  11.863 -0.1352  0.3428  0.0675
11974TIP3    H157413   6.510   1.310  11.871 -1.1532 -0.4617  1.8704
11974TIP3    H257414   6.554   1.204  11.772 -3.1371  0.0331  0.3847
11975TIP3   OH257415   1.629   0.840  15.838 -0.8180 -0.1316  0.2940
11975TIP3    H157416   1.600   0.895  15.765 -3.8090 -0.4667  1.1081
11975TIP3    H257417   1.620   0.896  15.915  0.6018 -0.3377  0.6309
11976TIP3   OH257418   2.887   4.183  15.021 -0.0901  0.6193 -0.8421
11976TIP3    H157419   2.915   4.258  15.073  1.1532  0.5861 -1.4390
11976TIP3    H257420   2.968   4.138  14.998 -0.8631 -1.9171  0.9507
11977TIP3   OH257421   2.881   2.425  12.195 -0.0487  0.0569 -0.3661
11977TIP3    H157422   2.794   2.399  12.163 -0.1098 -1.5508  0.9942
11977TIP3    H257423   2.930   2.342  12.202  1.6845  0.9398 -1.2846
11978TIP3   OH257424   0.508   4.812   3.028  0.7570 -0.1944 -0.8719
11978TIP3    H157425   0.418   4.782   3.014  1.0410 -1.5171  0.0001
11978TIP3    H257426   0.500   4.907   3.036 -0.5172 -0.2611 -1.1389
11979TIP3   OH257427   4.470   3.155   1.116  0.1437  0.2882 -0.2949
11979TIP3    H157428   4.448   3.234   1.066 -0.9918  0.4342  0.4050
11979TIP3    H257429   4.444   3.083   1.059  1.1796  0.3953 -0.9345
11980TIP3   OH257430   4.078   6.400   3.499  0.4996  0.1698  0.0846
11980TIP3    H157431   4.014   6.329   3.508  0.0154  0.6110  0.1829
11980TIP3    H257432   4.143   6.366   3.438 -0.2616  0.0125 -0.6696
11981TIP3   OH257433   5.873   0.869  15.762  0.2869  0.2537 -0.4131
11981TIP3    H157434   5.816   0.840  15.833 -0.1079  0.4915 -0.6270
11981TIP3    H257435   5.904   0.789  15.721 -0.7034  0.1167 -0.9271
11982TIP3   OH257436   1.187   0.816   2.140 -0.4323 -0.0367 -0.1381
11982TIP3    H157437   1.228   0.901   2.125 -0.5375  0.1037  0.3395
11982TIP3    H257438   1.207   0.796   2.231  0.7642 -1.1684 -0.6179
11983TIP3   OH257439   0.615   6.004  10.351  0.3478 -0.4133 -0.1990
11983TIP3    H157440   0.668   5.937  10.394  1.0362  0.2441 -0.0077
11983TIP3    H257441   0.665   6.028  10.273 -0.1131 -0.4382 -0.5056
11984TIP3   OH257442   6.131   6.130   2.658 -0.2912 -0.1182  0.2371
11984TIP3    H157443   6.142   6.134   2.753  0.1348  3.0746  0.1783
11984TIP3    H257444   6.217   6.102   2.625  0.5654  1.7230  0.7469
11985TIP3   OH257445   4.364   4.374   6.226 -0.4255  0.6972 -0.0339
11985TIP3    H157446   4.302   4.386   6.298  1.1575 -0.5818  1.6406
11985TIP3    H257447   4.397   4.462   6.209 -1.2567  1.1043  0.3938
11986TIP3   OH257448   0.196   3.524   4.519  0.1498 -0.4844 -0.3463
11986TIP3    H157449   0.194   3.540   4.613  0.2150 -2.2942 -0.0025
11986TIP3    H257450   0.130   3.584   4.483  1.2734  1.4376  0.6014
11987TIP3   OH257451   1.011   3.525   5.068 -0.3410 -0.0747  0.1557
11987TIP3    H157452   1.058   3.496   5.146 -1.0783  1.1832  1.0955
11987TIP3    H257453   0.954   3.595   5.099 -1.6041 -0.4251 -1.2681
11988TIP3   OH257454   2.677   4.810  15.999  0.4845  0.1936  0.0498
11988TIP3    H157455   2.766   4.800  15.966 -0.5603 -3.0418 -2.2644
11988TIP3    H257456   2.639   4.722  15.993 -3.1803  1.6190  0.0084
11989TIP3   OH257457   0.666   6.539   3.468  0.2275 -0.1620 -0.4156
11989TIP3    H157458   0.660   6.518   3.374  2.8864  0.1524 -0.7160
11989TIP3    H257459   0.688   6.455   3.510  2.4940  0.2945 -0.5693
11990TIP3   OH257460   6.299   1.526  12.915 -0.2296 -0.0780  0.1023
11990TIP3    H157461   6.258   1.509  13.000 -0.4708 -1.3349 -0.2384
11990TIP3    H257462   6.390   1.549  12.936 -0.3199 -0.2607  0.7113
11991TIP3   OH257463   1.942   2.905  15.015  1.0689 -0.7029 -0.1679
11991TIP3    H157464   1.987   2.936  14.936  0.6444  0.6782  0.1053
11991TIP3    H257465   1.942   2.980  15.074  0.2780 -1.3316  0.6648
11992TIP3   OH257466   4.066   6.083  15.816  0.4205  0.3712  0.1650
11992TIP3    H157467   4.152   6.051  15.791 -0.4667 -1.0051 -1.3449
11992TIP3    H257468   4.010   6.005  15.815 -0.7032  1.0981  1.8598
11993TIP3   OH257469   4.155   5.763  12.562 -0.3113 -0.5103 -0.7955
11993TIP3    H157470   4.096   5.832  12.531  0.4502  1.0689  1.0656
11993TIP3    H257471   4.150   5.768  12.657  3.8966  0.7451 -0.4539
11994TIP3   OH257472   6.745   3.400  16.848  0.6503  0.1767  0.3453
11994TIP3    H157473   6.831   3.376  16.882  0.1119  0.1667  1.7397
11994TIP3    H257474   6.692   3.418  16.925 -0.7467 -0.2485 -0.4729
11995TIP3   OH257475   4.945   1.369  15.566 -0.3250 -0.0837 -0.4648
11995TIP3    H157476   4.961   1.306  15.636 -2.1679 -2.2215 -1.8370
11995TIP3    H257477   4.913   1.316  15.493 -0.1115  2.2556 -2.3713
11996TIP3   OH257478   0.346   0.131   1.363  0.4763 -0.0368  0.0609
11996TIP3    H157479   0.358   0.220   1.330  2.1821 -0.2383  0.0406
11996TIP3    H257480   0.407   0.078   1.312 -0.6789 -1.2815 -0.0821
11997TIP3   OH257481   2.801   5.609   5.878 -0.5271 -0.1013  0.6699
11997TIP3    H157482   2.720   5.657   5.895 -0.4947  0.2962 -0.2128
11997TIP3    H257483   2.774   5.517   5.872 -1.0422  0.0991 -0.3215
11998TIP3   OH257484   1.296   2.383   0.407 -0.3649 -0.0289  0.3221
11998TIP3    H157485   1.333   2.470   0.392 -0.5170  0.0608  0.4494
11998TIP3    H257486   1.216   2.382   0.354 -1.0358  0.3815  1.2700
11999TIP3   OH257487   0.344   5.645  10.970 -0.2071 -0.0511  0.0042
11999TIP3    H157488   0.397   5.654  11.049 -0.0357 -2.1821  0.2027
11999TIP3    H257489   0.254   5.649  11.001 -0.1688  1.5295 -0.0479
12000TIP3   OH257490   4.272   5.768   4.651  0.1931  0.2037 -0.5102
12000TIP3    H157491   4.238   5.688   4.610 -1.9720  0.8367 -0.1017
12000TIP3    H257492   4.332   5.805   4.587 -0.1306 -0.8300 -1.4439
12001TIP3   OH257493   3.968   2.582  10.949 -0.2044  0.1978  0.4420
12001TIP3    H157494   3.905   2.610  11.016 -0.9486 -1.0041  0.2703
12001TIP3    H257495   4.053   2.612  10.982 -0.5789 -0.1813  1.8227
12002TIP3   OH257496   5.621   3.027   2.442 -0.3092  0.3356 -0.2855
12002TIP3    H157497   5.693   3.062   2.389  0.7943 -2.0391 -0.4638
12002TIP3    H257498   5.606   3.094   2.508  3.4469  0.1453  1.0080
12003TIP3   OH257499   4.358   3.615  16.272  0.8779  0.2656  0.4493
12003TIP3    H157500   4.283   3.577  16.226 -0.1935  1.9410  0.7109
12003TIP3    H257501   4.408   3.660  16.203 -0.5369  2.4755  0.7689
12004TIP3   OH257502   0.415   6.587  14.677 -0.8157 -0.0838 -0.5974
12004TIP3    H157503   0.443   6.575  14.768  0.1279  0.0766 -0.8620
12004TIP3    H257504   0.359   6.511  14.660 -1.5199  0.2106  0.3086
12005TIP3   OH257505   6.051   2.063   6.133  0.0413  0.1582  0.4093
12005TIP3    H157506   6.142   2.032   6.129 -0.1473 -0.3272 -0.8470
12005TIP3    H257507   6.057   2.157   6.118  0.2283 -0.1875 -2.3795
12006TIP3   OH257508   5.233   1.838  16.536 -0.6349 -0.2438 -0.4251
12006TIP3    H157509   5.245   1.868  16.626  0.3141  2.1751 -1.2515
12006TIP3    H257510   5.141   1.812  16.531  0.0534 -3.7982  2.0477
12007TIP3   OH257511   2.589   4.085  14.724  0.1607 -0.5939 -0.0713
12007TIP3    H157512   2.613   4.025  14.653  0.7950  0.3564 -0.6885
12007TIP3    H257513   2.661   4.148  14.726  0.2344 -0.7021  1.5499
12008TIP3   OH257514   4.072   5.268  11.953  0.1915  0.2334 -0.7751
12008TIP3    H157515   4.024   5.350  11.941 -1.0823 -0.7056 -2.8364
12008TIP3    H257516   4.164   5.294  11.956 -0.1521  1.7378 -1.7939
12009TIP3   OH257517   0.304   2.212   3.317 -0.3572  0.0506 -0.1420
12009TIP3    H157518   0.277   2.139   3.372  1.2596  0.0952  0.7715
12009TIP3    H257519   0.300   2.178   3.227  0.5520 -1.2424  0.2874
12010TIP3   OH257520   0.522   1.490  15.885  0.0011 -0.0867  0.5531
12010TIP3    H157521   0.609   1.449  15.892 -0.0061  0.0915  1.9384
12010TIP3    H257522   0.485   1.454  15.804 -0.3321 -3.4962  2.0477
12011TIP3   OH257523   6.751   3.019   5.032 -0.1498  0.2030  0.2768
12011TIP3    H157524   6.693   3.061   4.969  0.0938  0.4269  0.2005
12011TIP3    H257525   6.725   3.056   5.117 -1.3230 -1.0211  0.4884
12012TIP3   OH257526   5.001   5.611  16.035  0.5378  0.4599  0.4512
12012TIP3    H157527   4.940   5.633  16.105 -2.9427  0.3206 -2.2462
12012TIP3    H257528   5.003   5.689  15.979  2.3674  0.2097  0.1083
12013TIP3   OH257529   5.571   3.430   5.676  0.0254 -0.2895 -0.9838
12013TIP3    H157530   5.541   3.510   5.720  1.1143  0.6814 -1.8984
12013TIP3    H257531   5.667   3.439   5.674  0.0815 -0.8188 -2.5269
12014TIP3   OH257532   6.421   3.767   3.750  0.3172 -0.4988  0.5092
12014TIP3    H157533   6.439   3.675   3.729  1.1518 -0.4353  0.9344
12014TIP3    H257534   6.375   3.764   3.834  0.6579 -0.5042  0.6945
12015TIP3   OH257535   3.138   2.939   4.180  0.2381 -0.4517 -0.1467
12015TIP3    H157536   3.156   2.917   4.089  1.0936  1.2263 -0.4357
12015TIP3    H257537   3.053   2.900   4.199 -0.0780 -0.5963 -1.7539
12016TIP3   OH257538   4.875   4.730   0.081  0.0360  0.4995 -0.2292
12016TIP3    H157539   4.962   4.716   0.118  0.5106  0.5598 -1.2809
12016TIP3    H257540   4.827   4.650   0.102  1.3312 -0.9232 -2.2700
12017TIP3   OH257541   2.435   4.662  10.848  0.5124 -0.2167 -0.0183
12017TIP3    H157542   2.401   4.583  10.806 -0.7357  1.2299 -1.9535
12017TIP3    H257543   2.463   4.634  10.935 -0.5893 -2.6053 -0.3625
12018TIP3   OH257544   6.622   0.848  13.548 -1.0327  0.5855  0.1763
12018TIP3    H157545   6.644   0.928  13.595 -3.0539  0.7376  0.9952
12018TIP3    H257546   6.597   0.877  13.461  0.8483  0.5066 -0.4382
12019TIP3   OH257547   4.256   3.688   3.287  0.3280 -0.0962 -0.3657
12019TIP3    H157548   4.291   3.614   3.238 -0.3416 -0.9360  0.3675
12019TIP3    H257549   4.332   3.728   3.329  0.5374 -1.4245  0.6020
12020TIP3   OH257550   0.448   2.951   4.149 -0.1643 -0.3837 -0.3331
12020TIP3    H157551   0.360   2.983   4.165  0.3042 -0.4508  3.1458
12020TIP3    H257552   0.467   2.894   4.223  1.3168 -3.8723 -3.0807
12021TIP3   OH257553   3.478   6.438   3.528  0.0467 -0.5919  0.1472
12021TIP3    H157554   3.465   6.532   3.531 -1.1685 -0.7103 -0.8288
12021TIP3    H257555   3.564   6.427   3.486  0.0381  0.0680 -0.0584
12022TIP3   OH257556   5.707   0.632   1.931 -0.1238 -0.1860  1.0692
12022TIP3    H157557   5.744   0.559   1.881 -2.1661 -1.1039  0.7972
12022TIP3    H257558   5.615   0.610   1.941 -0.1408  0.6956  3.9536
12023TIP3   OH257559   3.478   1.393  15.978 -0.3481 -0.3272 -0.1375
12023TIP3    H157560   3.392   1.351  15.973 -0.1321 -0.5961 -2.6226
12023TIP3    H257561   3.533   1.342  15.919  0.6315  1.8499 -1.2214
12024TIP3   OH257562   2.875   4.153  13.576  0.7429  0.4759 -0.1079
12024TIP3    H157563   2.794   4.193  13.544  0.9100  0.8731 -0.0357
12024TIP3    H257564   2.845   4.085  13.638  0.4063 -0.4794 -1.2798
12025TIP3   OH257565   4.850   0.040  10.461 -0.0849  0.2414  0.1933
12025TIP3    H157566   4.905   0.096  10.516  0.7780 -0.4747  0.0899
12025TIP3    H257567   4.771   0.092  10.445  0.5611  1.3053  0.3447
12026TIP3   OH257568   6.126   5.192  14.454  0.0621  0.3465 -0.0202
12026TIP3    H157569   6.129   5.202  14.549  1.1806 -1.7328  0.2299
12026TIP3    H257570   6.034   5.204  14.431 -0.3972 -0.1266  1.4669
12027TIP3   OH257571   0.372   0.861   3.310 -0.4669 -0.6963 -0.3491
12027TIP3    H157572   0.458   0.830   3.338  0.1208  2.0762  1.3058
12027TIP3    H257573   0.311   0.823   3.373 -0.0727 -0.3648  0.2399
12028TIP3   OH257574   2.091   5.899   5.149 -0.1474  0.0134  0.2249
12028TIP3    H157575   2.083   5.932   5.238  2.4763 -0.9120  0.9171
12028TIP3    H257576   2.001   5.883   5.120 -1.0908  0.9779  2.4381
12029TIP3   OH257577   3.556   4.432  15.154  0.4487 -0.1707 -0.3726
12029TIP3    H157578   3.649   4.414  15.166  0.3858 -0.4486 -0.3033
12029TIP3    H257579   3.519   4.350  15.123 -0.0258 -0.4954  0.9682
12030TIP3   OH257580   0.788   4.895   3.309 -0.1320  0.0336 -0.5647
12030TIP3    H157581   0.786   4.836   3.234 -1.3235  1.1107 -1.4239
12030TIP3    H257582   0.832   4.973   3.277  1.2609 -0.2631  0.5062
12031TIP3   OH257583   2.045   0.168   0.987  0.1886 -0.2382 -0.0178
12031TIP3    H157584   2.127   0.119   0.978  1.1821  1.1675  0.9648
12031TIP3    H257585   2.050   0.234   0.918 -0.6044 -0.7679 -0.5953
12032TIP3   OH257586   2.250   0.479  14.112 -0.3076 -0.2597  0.3597
12032TIP3    H157587   2.267   0.394  14.072  1.7003 -0.4462  1.4717
12032TIP3    H257588   2.155   0.483  14.120 -0.4810 -2.1817 -0.1911
12033TIP3   OH257589   1.623   4.859  12.747 -0.6334  0.1910  0.3549
12033TIP3    H157590   1.679   4.886  12.674 -0.5828  0.9874  0.6728
12033TIP3    H257591   1.546   4.915  12.739  0.7544  2.7114  2.7741
12034TIP3   OH257592   5.872   5.846  10.877 -0.0544  0.1365 -0.2294
12034TIP3    H157593   5.882   5.752  10.861  0.6203  0.1923 -0.1850
12034TIP3    H257594   5.946   5.868  10.934 -0.2113  0.6934 -0.2378
12035TIP3   OH257595   6.678   6.219  15.007  0.2046 -0.3334 -0.2534
12035TIP3    H157596   6.670   6.196  14.914  1.4175 -0.0393 -0.4497
12035TIP3    H257597   6.666   6.314  15.008  0.0102 -0.3601 -0.0801
12036TIP3   OH257598   5.531   0.779  16.311 -0.3655  0.5320 -0.1543
12036TIP3    H157599   5.463   0.832  16.351 -1.4432  0.8353 -2.2274
12036TIP3    H257600   5.495   0.691  16.307 -0.0841  0.4096 -0.0397
12037TIP3   OH257601   0.041   3.879  15.449 -0.2230  0.5421 -0.4201
12037TIP3    H157602   0.061   3.808  15.510  0.2820  1.3010  0.3198
12037TIP3    H257603   0.101   3.865  15.376  0.8365  0.9574  0.3330
12038TIP3   OH257604   2.200   3.320   0.917 -0.1828 -0.7103  0.4408
12038TIP3    H157605   2.268   3.374   0.877 -2.3973  0.9663 -1.2983
12038TIP3    H257606   2.209   3.235   0.874  0.9659 -0.6177  0.4599
12039TIP3   OH257607   3.927   6.275   1.534 -0.6089  0.4930 -0.0274
12039TIP3    H157608   3.967   6.313   1.612 -0.8629  0.1975  0.2522
12039TIP3    H257609   3.840   6.248   1.563  0.4831 -2.8545  0.5748
12040TIP3   OH257610   2.134   4.710  14.919  0.4468 -0.2620  0.0247
12040TIP3    H157611   2.222   4.722  14.882  1.0663  1.8712  1.9647
12040TIP3    H257612   2.141   4.744  15.008 -2.0002 -1.4254  0.7239
12041TIP3   OH257613   6.709   5.376   1.671 -0.0031  0.4815  0.3001
12041TIP3    H157614   6.636   5.386   1.732  2.5238  0.4447  3.6134
12041TIP3    H257615   6.786   5.406   1.720  2.2122  0.8322 -3.0802
12042TIP3   OH257616   3.162   1.214  13.466  0.0288 -0.2307 -0.1293
12042TIP3    H157617   3.094   1.255  13.412 -0.3083 -0.8205 -0.1545
12042TIP3    H257618   3.122   1.208  13.553  0.6830  1.0047  0.2749
12043TIP3   OH257619   0.826   5.785   5.206 -0.5594 -0.4892  0.4742
12043TIP3    H157620   0.763   5.765   5.136  0.1902 -2.2311  0.2432
12043TIP3    H257621   0.821   5.711   5.265  0.5161 -0.1551  1.0157
12044TIP3   OH257622   0.897   4.001   1.790 -0.3430  0.3554  0.2549
12044TIP3    H157623   0.853   4.080   1.821  1.8011  1.3037  1.0722
12044TIP3    H257624   0.956   4.032   1.720  2.5815  0.0823  2.4115
12045TIP3   OH257625   6.499   4.491  11.107 -0.5313  0.0873 -0.8231
12045TIP3    H157626   6.439   4.437  11.055  0.8553 -1.2778 -1.0949
12045TIP3    H257627   6.567   4.517  11.045  0.0702  0.1393 -0.1604
12046TIP3   OH257628   1.161   5.484  12.306 -0.0046 -0.3181 -0.5297
12046TIP3    H157629   1.164   5.535  12.225 -1.9286  1.7101  0.5697
12046TIP3    H257630   1.231   5.521  12.360  0.1734 -0.5172 -0.6215
12047TIP3   OH257631   3.159   3.654  10.563  0.0941 -0.3064  0.2646
12047TIP3    H157632   3.092   3.690  10.622 -0.5250  1.1966 -1.2719
12047TIP3    H257633   3.142   3.560  10.562 -1.2715 -0.0921  0.8080
12048TIP3   OH257634   3.251   0.387   2.132  0.7654  0.1331  0.6172
12048TIP3    H157635   3.240   0.296   2.159 -0.5526  0.3708  0.9565
12048TIP3    H257636   3.299   0.382   2.050 -1.4070 -1.0625 -0.6940
12049TIP3   OH257637   4.850   3.233   4.050 -0.0157  0.0249 -0.4952
12049TIP3    H157638   4.775   3.251   3.993 -2.0655 -1.4665  1.5652
12049TIP3    H257639   4.811   3.203   4.132  2.6614  3.6642  2.4334
12050TIP3   OH257640   4.318   2.044  16.004 -0.2638 -1.0489 -0.0433
12050TIP3    H157641   4.402   2.000  15.992 -0.1130 -0.9134  0.5333
12050TIP3    H257642   4.305   2.048  16.098 -1.4900 -2.1464 -0.1398
12051TIP3   OH257643   5.026   3.966   5.530 -0.2087 -0.4733  0.4323
12051TIP3    H157644   5.112   3.973   5.572 -0.2079  2.0575  0.1582
12051TIP3    H257645   5.035   4.015   5.448 -2.2987  1.3142  1.1684
12052TIP3   OH257646   4.494   0.946   2.555  0.0309  0.6489  0.7923
12052TIP3    H157647   4.464   0.856   2.545  2.6295 -0.2229 -0.0545
12052TIP3    H257648   4.488   0.983   2.467  1.3874  0.4321  0.5910
12053TIP3   OH257649   4.921   0.485  15.612  0.0389 -0.0905 -0.2210
12053TIP3    H157650   4.968   0.458  15.533 -1.2954 -0.8546 -0.7974
12053TIP3    H257651   4.884   0.404  15.647  0.2063  0.3168  0.9129
12054TIP3   OH257652   2.511   4.141   5.895  0.0401  0.0439  0.4707
12054TIP3    H157653   2.601   4.174   5.898  0.5222 -1.2899  1.3059
12054TIP3    H257654   2.462   4.210   5.849  1.2576  1.2842  0.9689
12055TIP3   OH257655   2.654   0.149   5.775 -0.0008 -0.1033  0.0236
12055TIP3    H157656   2.746   0.160   5.752 -0.5383  1.2512 -1.6701
12055TIP3    H257657   2.640   0.054   5.777  1.6108 -0.3516  1.2033
12056TIP3   OH257658   1.625   3.848   0.053 -0.2983 -0.0332  0.1126
12056TIP3    H157659   1.678   3.768   0.044 -0.0237  0.2213 -0.6622
12056TIP3    H257660   1.662   3.908  -0.012 -0.5836  0.6838  0.5998
12057TIP3   OH257661   4.722   4.341   2.410 -0.4851 -0.0458 -0.8989
12057TIP3    H157662   4.747   4.299   2.492 -1.7795 -1.3197 -1.1172
12057TIP3    H257663   4.692   4.270   2.354 -3.2511  1.1526 -1.1189
12058TIP3   OH257664   4.813   6.393   1.075 -0.8120  0.3639  0.3747
12058TIP3    H157665   4.753   6.458   1.038 -0.1630  0.0634 -1.3143
12058TIP3    H257666   4.879   6.445   1.121 -0.2776  0.9478 -0.9918
12059TIP3   OH257667   3.720   2.836   6.464  0.1898 -0.4362  0.3286
12059TIP3    H157668   3.626   2.842   6.451  0.1297 -0.2555  0.8338
12059TIP3    H257669   3.734   2.865   6.554  0.8476  0.6693 -0.1066
12060TIP3   OH257670   6.161   2.961  12.644  0.1932 -0.3981  0.5400
12060TIP3    H157671   6.090   2.953  12.581  0.1037 -0.5785  0.6629
12060TIP3    H257672   6.163   2.877  12.689  2.2897 -1.4585 -1.3524
12061TIP3   OH257673   6.381   1.073  13.461  0.1351  0.2503  0.1806
12061TIP3    H157674   6.330   1.000  13.497 -1.0100  0.6343 -0.5761
12061TIP3    H257675   6.455   1.032  13.417  0.5910 -0.3209  1.4559
12062TIP3   OH257676   3.502   5.456   3.300  0.6253  0.0114 -0.4519
12062TIP3    H157677   3.550   5.492   3.374 -0.9156 -0.0171  0.6053
12062TIP3    H257678   3.497   5.362   3.318  0.5505 -0.0528 -0.7912
12063TIP3   OH257679   4.789   1.566  15.432  0.2294 -0.8320  0.2976
12063TIP3    H157680   4.856   1.603  15.373  0.1557 -0.1798  0.6070
12063TIP3    H257681   4.837   1.504  15.487  1.1869  1.4648  2.2632
12064TIP3   OH257682   3.712   1.450   4.345  0.0708  0.3101  0.1725
12064TIP3    H157683   3.732   1.526   4.291 -0.2001  0.0369 -0.3218
12064TIP3    H257684   3.616   1.445   4.344  0.1090 -0.8770 -1.0099
12065TIP3   OH257685   4.678   4.334  11.226 -0.2671 -0.2806 -0.1579
12065TIP3    H157686   4.651   4.286  11.148 -2.1097 -1.2398  0.9962
12065TIP3    H257687   4.728   4.271  11.277  2.2662  0.7785 -1.1543
12066TIP3   OH257688   0.803   3.236  13.248  0.2758 -0.0875  0.8749
12066TIP3    H157689   0.736   3.272  13.190  2.1447 -0.2824 -1.5497
12066TIP3    H257690   0.849   3.172  13.194  0.9426 -1.7077  3.2032
12067TIP3   OH257691   6.737   0.089   0.546  0.0221 -0.7036 -0.7072
12067TIP3    H157692   6.688   0.171   0.541 -0.9823 -1.2940 -0.7719
12067TIP3    H257693   6.671   0.021   0.536  1.1077 -1.5169 -2.8960
12068TIP3   OH257694   1.556   3.444   1.684  0.3314 -0.3742 -0.4099
12068TIP3    H157695   1.549   3.365   1.631  0.4076 -0.3879 -0.3989
12068TIP3    H257696   1.643   3.478   1.665  0.6035 -0.7193  0.1905
12069TIP3   OH257697   1.141   1.927  13.340 -0.1782 -0.7977  0.1948
12069TIP3    H157698   1.145   2.000  13.401  3.1630 -0.3415 -0.3737
12069TIP3    H257699   1.102   1.855  13.390 -0.2497  0.3702  1.8870
12070TIP3   OH257700   0.494   0.514   2.577 -0.2841  0.3562 -0.2432
12070TIP3    H157701   0.414   0.518   2.525  0.4637 -0.9965 -1.5697
12070TIP3    H257702   0.541   0.595   2.556  0.6894 -0.8053 -2.8967
12071TIP3   OH257703   5.041   2.157  12.740  0.6630  0.5074 -0.8671
12071TIP3    H157704   5.028   2.245  12.777  1.4555  0.1619  0.2835
12071TIP3    H257705   5.100   2.113  12.802 -0.2858 -1.0881 -1.0353
12072TIP3   OH257706   4.491   5.215  16.072 -0.1240  0.0651 -0.0133
12072TIP3    H157707   4.512   5.214  16.165  0.1664  1.6138 -0.0210
12072TIP3    H257708   4.399   5.189  16.068 -0.3048  0.5351  0.7716
12073TIP3   OH257709   1.601   3.047  13.036 -0.6390  0.7718 -0.3326
12073TIP3    H157710   1.550   2.989  13.093 -0.9430  1.4807  0.1449
12073TIP3    H257711   1.538   3.078  12.971 -0.8749  1.7619  0.3450
12074TIP3   OH257712   4.437   6.645   3.259 -0.0308 -0.0429 -0.0954
12074TIP3    H157713   4.507   6.592   3.299  0.0291  0.1851  0.1027
12074TIP3    H257714   4.384   6.673   3.333  1.7116  2.8182  0.2235
12075TIP3   OH257715   3.152   4.115   1.963  0.1165  0.3378  0.3384
12075TIP3    H157716   3.174   4.099   1.871  0.0220 -1.3030  0.5826
12075TIP3    H257717   3.060   4.089   1.970 -0.2046  1.4818  0.6870
12076TIP3   OH257718   6.220   0.155  13.880  1.0063 -0.0916 -0.1818
12076TIP3    H157719   6.264   0.158  13.795  0.6639  2.9132 -0.3702
12076TIP3    H257720   6.287   0.183  13.943  1.4134 -2.7818  0.7383
12077TIP3   OH257721   6.730   6.623   4.955  0.1355 -0.0464  0.3143
12077TIP3    H157722   6.811   6.654   4.914  0.5035 -0.2485  0.8667
12077TIP3    H257723   6.750   6.623   5.049 -0.5666  0.0698  0.4676
12078TIP3   OH257724   5.621   3.120   7.117 -0.0825  0.2786  0.0272
12078TIP3    H157725   5.564   3.195   7.135 -1.6621 -0.3139 -2.1361
12078TIP3    H257726   5.650   3.132   7.027  0.7804 -0.9922  0.1024
12079TIP3   OH257727   3.999   3.726  14.616  0.4867  0.1767  0.5024
12079TIP3    H157728   4.051   3.802  14.639  0.1120  1.1306 -1.5589
12079TIP3    H257729   3.923   3.762  14.569  1.4152 -1.4883 -2.5632
12080TIP3   OH257730   6.050   2.822   4.692 -0.0372  0.2206  0.5953
12080TIP3    H157731   6.100   2.898   4.721  1.5191 -0.7037  0.4305
12080TIP3    H257732   6.039   2.769   4.771  0.2973 -0.1487  0.3987
12081TIP3   OH257733   4.935   1.022   4.439  0.0108  0.2484 -0.3460
12081TIP3    H157734   4.982   1.018   4.356  0.6870 -2.2905  0.0800
12081TIP3    H257735   4.910   1.114   4.448  0.7766  0.7713 -2.8585
12082TIP3   OH257736   5.491   6.138  12.066 -0.4759 -0.1793 -0.4486
12082TIP3    H157737   5.518   6.164  12.154 -1.7103  0.3574 -0.2052
12082TIP3    H257738   5.479   6.221  12.019 -1.7069 -0.3800 -0.5238
12083TIP3   OH257739   1.186   2.064  13.105 -0.5041 -0.5993  0.1607
12083TIP3    H157740   1.165   2.009  13.181 -0.9471 -1.6896 -0.7246
12083TIP3    H257741   1.171   2.007  13.029  0.4299  0.2985 -0.7320
12084TIP3   OH257742   5.082   0.462  12.026  0.1165  0.5645  0.4142
12084TIP3    H157743   5.104   0.382  11.979  0.1773  0.9381 -0.2130
12084TIP3    H257744   4.987   0.457  12.039 -0.2945  1.4845 -1.7798
12085TIP3   OH257745   4.142   4.871  16.729  0.1286 -0.0765  0.8244
12085TIP3    H157746   4.186   4.898  16.809  0.2715 -1.2543  1.1615
12085TIP3    H257747   4.122   4.778  16.743  0.2943 -0.3414 -0.5516
12086TIP3   OH257748   5.431   3.707  16.633 -0.0802 -0.7149 -0.0367
12086TIP3    H157749   5.472   3.658  16.561  0.5580 -1.0221  0.5254
12086TIP3    H257750   5.385   3.640  16.684 -0.9408 -0.4287 -0.4251
12087TIP3   OH257751   3.194   4.095  16.785 -0.2295 -0.2120  0.1587
12087TIP3    H157752   3.229   4.049  16.709 -0.7402  1.3069 -1.0659
12087TIP3    H257753   3.099   4.092  16.774 -0.3251 -0.3966  0.9994
12088TIP3   OH257754   6.387   0.523   3.657 -0.6033 -0.1163 -0.5613
12088TIP3    H157755   6.372   0.577   3.579 -0.6142  2.6146  1.1775
12088TIP3    H257756   6.311   0.540   3.713  0.3717 -0.3410  0.8791
12089TIP3   OH257757   4.355   6.638  12.872 -0.1462 -0.6761  0.6546
12089TIP3    H157758   4.439   6.661  12.834 -0.1539  0.3388  1.2059
12089TIP3    H257759   4.369   6.552  12.912  0.2996 -1.0233 -0.2276
12090TIP3   OH257760   3.188   6.487  16.746 -0.1294 -0.4708 -0.0037
12090TIP3    H157761   3.252   6.419  16.729  0.8776  0.6305 -0.7466
12090TIP3    H257762   3.234   6.569  16.730 -0.5759  0.5417  3.1576
12091TIP3   OH257763   4.183   6.586  11.320 -0.0475  0.5687  0.1715
12091TIP3    H157764   4.216   6.646  11.387 -0.0779  0.2533  0.4727
12091TIP3    H257765   4.108   6.631  11.283 -2.3168 -0.6749  2.8116
12092TIP3   OH257766   4.771   0.322  13.027 -0.4784 -0.2133 -0.3288
12092TIP3    H157767   4.794   0.229  13.027  1.9007  0.3163 -0.6355
12092TIP3    H257768   4.681   0.324  13.061 -0.4837 -2.5822 -0.0116
12093TIP3   OH257769   4.340   4.082  15.002  0.0393 -0.3388 -0.1729
12093TIP3    H157770   4.346   4.076  14.907  0.6288  0.9395 -0.2429
12093TIP3    H257771   4.341   3.991  15.033  2.7252 -0.7714 -1.2351
12094TIP3   OH257772   0.077   3.046   0.428 -0.3413  0.1787 -0.2286
12094TIP3    H157773   0.001   3.104   0.430  1.4023  2.6083  0.7719
12094TIP3    H257774   0.084   3.019   0.336 -2.3954 -0.1535 -0.3342
12095TIP3   OH257775   4.146   5.432   4.101 -0.4494  0.2646  0.1106
12095TIP3    H157776   4.119   5.430   4.009 -0.4762  1.4395  0.0757
12095TIP3    H257777   4.242   5.432   4.097 -0.4485 -0.0671  0.1004
12096TIP3   OH257778   4.573   0.559  17.127  0.3591  0.6159  0.3975
12096TIP3    H157779   4.490   0.603  17.148 -0.2730 -0.0489 -0.5930
12096TIP3    H257780   4.546   0.473  17.094  1.4612  0.3431  0.1852
12097TIP3   OH257781   2.536   4.953  14.213  0.4902 -0.4087  0.0687
12097TIP3    H157782   2.578   4.905  14.283 -0.8504 -0.1367  1.1003
12097TIP3    H257783   2.590   5.031  14.200  2.5988 -2.0422 -1.5175
12098TIP3   OH257784   3.877   5.185  14.766  0.1626 -0.6854 -0.1911
12098TIP3    H157785   3.791   5.198  14.726  0.5410 -1.4917 -1.3117
12098TIP3    H257786   3.930   5.144  14.698  1.8482  0.9776  0.0398
12099TIP3   OH257787   0.659   0.024   0.572  0.2862 -0.2811 -0.2403
12099TIP3    H157788   0.598   0.066   0.632  0.8742 -0.5691  0.5765
12099TIP3    H257789   0.745   0.042   0.609  0.6141 -1.1507 -0.5499
12100TIP3   OH257790   2.700   3.792   0.146 -0.6730 -0.1644 -0.0753
12100TIP3    H157791   2.696   3.856   0.217 -0.0917  2.0032 -1.8656
12100TIP3    H257792   2.608   3.775   0.124 -0.8647 -0.9880  1.2433
12101TIP3   OH257793   5.317   2.268   3.039  0.0250  0.2837  0.2803
12101TIP3    H157794   5.324   2.223   2.955 -1.1154  0.2356  0.2052
12101TIP3    H257795   5.395   2.324   3.042  1.6085 -1.8132  0.4890
12102TIP3   OH257796   5.009   0.050  16.016  0.1289 -0.1747 -0.5239
12102TIP3    H157797   5.036  -0.041  16.031  0.3708 -0.0237  0.0075
12102TIP3    H257798   4.914   0.047  16.019  0.1264 -0.4670 -0.8601
12103TIP3   OH257799   5.412   1.110  14.295  0.0408  0.3801 -0.1211
12103TIP3    H157800   5.333   1.151  14.258 -0.4757 -0.1841  0.3232
12103TIP3    H257801   5.475   1.110  14.223 -1.1282 -1.1891 -1.2410
12104TIP3   OH257802   6.322   6.102   3.167  0.1139 -0.7856  0.3613
12104TIP3    H157803   6.228   6.085   3.172 -0.1699  0.8091  1.1867
12104TIP3    H257804   6.362   6.031   3.217 -0.5267 -2.1136 -0.9128
12105TIP3   OH257805   2.387   4.689  13.532  0.0539  0.5127  0.3158
12105TIP3    H157806   2.359   4.620  13.472 -0.0636  0.7102  0.1423
12105TIP3    H257807   2.479   4.704  13.509  0.4754 -0.4984  1.2354
12106TIP3   OH257808   2.727   5.776   3.777  0.0467  0.0089  0.2809
12106TIP3    H157809   2.713   5.869   3.795 -0.0962  0.0704 -0.1281
12106TIP3    H257810   2.820   5.762   3.793 -0.1215 -0.0025  1.3095
12107TIP3   OH257811   6.759   2.099   3.841 -0.3240  0.2543 -0.0784
12107TIP3    H157812   6.800   2.157   3.904 -1.1973  1.1950 -0.3491
12107TIP3    H257813   6.823   2.090   3.771 -0.7815  2.2010 -0.7961
12108TIP3   OH257814   6.427   1.781  16.576 -0.6557 -0.4212  0.4460
12108TIP3    H157815   6.417   1.697  16.621 -2.0830 -0.6626 -0.2729
12108TIP3    H257816   6.358   1.836  16.613 -1.1695 -0.2887 -0.6873
12109TIP3   OH257817   5.864   2.492  10.822 -0.3090  0.3501 -1.1208
12109TIP3    H157818   5.806   2.517  10.751 -0.9184 -2.8109 -1.8724
12109TIP3    H257819   5.807   2.481  10.898 -0.5943 -1.5693 -1.5619
12110TIP3   OH257820   5.984   2.041  17.131 -0.4460  0.1606  0.5730
12110TIP3    H157821   6.050   1.972  17.131  0.6943  1.1920  0.3419
12110TIP3    H257822   5.956   2.048  17.222  2.7814  2.3623  1.5847
12111TIP3   OH257823   3.580   0.171  14.664 -0.5942 -0.1332  0.3409
12111TIP3    H157824   3.600   0.263  14.683  1.3575 -0.8324  2.1245
12111TIP3    H257825   3.562   0.169  14.570  1.6718  1.7562 -0.2265
12112TIP3   OH257826   1.256   4.048  13.554 -0.2008 -0.2903 -0.5688
12112TIP3    H157827   1.204   4.000  13.490 -1.2269 -0.2824  0.2275
12112TIP3    H257828   1.220   4.137  13.552 -1.4144 -0.6935  1.1959
12113TIP3   OH257829   2.062   3.410  17.086 -0.1390  0.3715  0.4305
12113TIP3    H157830   2.060   3.349  17.160 -2.2015  0.7344  0.7500
12113TIP3    H257831   2.028   3.359  17.012  0.1687  0.5283  0.1816
12114TIP3   OH257832   6.612   1.772   1.260  0.1976  0.1838 -0.4980
12114TIP3    H157833   6.695   1.728   1.279 -1.0060 -1.6715  0.7361
12114TIP3    H257834   6.635   1.865   1.258  2.0944 -0.1775  1.0500
12115TIP3   OH257835   0.929   4.561  13.268 -0.1411 -0.2231 -0.6007
12115TIP3    H157836   0.900   4.577  13.358  0.4160  0.1808 -0.4912
12115TIP3    H257837   0.983   4.636  13.246 -0.4526 -0.2113 -1.3580
12116TIP3   OH257838   4.610   5.873  14.047  0.3166 -0.8377  0.4608
12116TIP3    H157839   4.687   5.859  13.993 -0.4679 -1.7308 -0.4766
12116TIP3    H257840   4.644   5.882  14.136  1.7441  1.7792 -0.2359
12117TIP3   OH257841   0.228   5.745   4.375  0.3679  0.5537  0.5605
12117TIP3    H157842   0.148   5.796   4.387  0.7915  1.2256  0.5715
12117TIP3    H257843   0.200   5.666   4.329 -0.1191  1.3602 -0.5743
12118TIP3   OH257844   5.330   5.191   4.707 -0.3166  0.2072 -0.3251
12118TIP3    H157845   5.259   5.249   4.680 -0.6000 -0.2669 -0.6104
12118TIP3    H257846   5.294   5.141   4.780  0.0246  0.5913  0.1134
12119TIP3   OH257847   5.756   4.932   4.423  0.0982 -0.1464 -0.0308
12119TIP3    H157848   5.749   5.006   4.364 -0.7727  0.3873  0.7083
12119TIP3    H257849   5.676   4.881   4.408 -0.0491 -0.1000  0.5437
12120TIP3   OH257850   0.319   2.387   4.828 -0.5673 -0.3784  0.0788
12120TIP3    H157851   0.377   2.433   4.767  1.1253 -0.6356  1.4096
12120TIP3    H257852   0.243   2.445   4.838 -0.2203  0.3169 -1.1704
12121TIP3   OH257853   0.262   1.160   3.093 -0.2973  0.1136  0.3517
12121TIP3    H157854   0.182   1.133   3.138 -1.3610  1.0454 -0.8982
12121TIP3    H257855   0.250   1.129   3.003  0.9203 -0.0298  0.2196
12122TIP3   OH257856   0.989   4.990  11.160  0.2691  0.2360  0.1602
12122TIP3    H157857   1.066   4.945  11.195  0.0825  0.2651  0.6245
12122TIP3    H257858   0.992   4.974  11.066  1.1628  0.7362  0.0933
12123TIP3   OH257859   4.735   6.737   5.647  0.9676  0.2015  0.2256
12123TIP3    H157860   4.723   6.660   5.702 -1.5311  0.2277 -0.1925
12123TIP3    H257861   4.807   6.785   5.689  0.3611 -0.6776  2.4175
12124TIP3   OH257862   2.851   5.347   0.774 -0.5242  0.4605  0.0297
12124TIP3    H157863   2.759   5.354   0.800 -1.1241  0.1990 -1.9392
12124TIP3    H257864   2.852   5.370   0.681  0.9194 -2.6261 -0.8241
12125TIP3   OH257865   0.050   1.533   5.903 -0.8055 -0.9475  0.6385
12125TIP3    H157866  -0.011   1.573   5.966 -1.6897  2.4270 -2.0574
12125TIP3    H257867  -0.006   1.508   5.830  0.7458  0.5659 -1.1555
12126TIP3   OH257868   3.957   5.524  11.941  0.1614  0.5308  0.2735
12126TIP3    H157869   4.040   5.534  11.986 -0.0025 -0.6237  0.8588
12126TIP3    H257870   3.940   5.610  11.902 -0.5202  2.1907  3.8156
12127TIP3   OH257871   3.165   3.260   0.407 -0.2791 -0.2805  0.6228
12127TIP3    H157872   3.175   3.204   0.330  0.8160 -1.6165  1.6797
12127TIP3    H257873   3.159   3.349   0.372 -0.1124 -0.8889 -1.0119
12128TIP3   OH257874   4.046   6.097   2.336 -0.1955  0.0049 -0.6583
12128TIP3    H157875   4.000   6.044   2.400  0.3325  0.4311  0.0906
12128TIP3    H257876   4.078   6.034   2.271 -1.7216 -0.3048 -1.1402
12129TIP3   OH257877   4.845   3.124  15.358 -0.2213  0.4415  0.2015
12129TIP3    H157878   4.804   3.207  15.334 -0.5878  0.2744  0.2408
12129TIP3    H257879   4.808   3.104  15.444 -1.1351 -0.4235 -0.3839
12130TIP3   OH257880   2.867   5.703   2.760  0.9282  0.0772 -0.4637
12130TIP3    H157881   2.880   5.797   2.771  0.8259  0.3511 -2.3280
12130TIP3    H257882   2.912   5.683   2.678 -0.1030 -1.2660 -0.7208
12131TIP3   OH257883   4.525   2.798   2.056  0.4497 -0.2457 -0.0455
12131TIP3    H157884   4.535   2.763   1.968  0.9185  1.2208 -0.6049
12131TIP3    H257885   4.613   2.800   2.093  0.2079 -1.2544  0.6484
12132TIP3   OH257886   2.564   5.351  15.518  0.3804  0.6492 -0.6459
12132TIP3    H157887   2.573   5.436  15.560  0.8404  0.0777  0.4438
12132TIP3    H257888   2.484   5.314  15.554  1.4737 -0.4115  0.8241
12133TIP3   OH257889   5.354   6.496  16.909  0.3000  0.4482  0.2926
12133TIP3    H157890   5.274   6.536  16.942 -0.0261  0.2545 -0.2448
12133TIP3    H257891   5.411   6.489  16.985 -1.0072 -1.4340  1.1773
12134TIP3   OH257892   2.248   2.559   0.873  0.1362 -0.0571  0.7565
12134TIP3    H157893   2.178   2.624   0.874 -0.9513 -1.1822  0.2334
12134TIP3    H257894   2.318   2.600   0.823  0.3457  1.5495  2.2759
12135TIP3   OH257895   5.241   6.389   0.156 -0.4070  0.2597 -0.0545
12135TIP3    H157896   5.168   6.347   0.110 -1.5741  1.2486  0.8270
12135TIP3    H257897   5.249   6.340   0.238 -0.6907  0.7157  0.2504
12136TIP3   OH257898   1.380   2.922  10.541 -0.5305  0.5043  0.2861
12136TIP3    H157899   1.348   2.858  10.606  1.7590  0.1272  1.1590
12136TIP3    H257900   1.447   2.874  10.493 -0.5980  1.4987 -0.8251
12137TIP3   OH257901   3.028   3.448  11.805 -0.5753 -0.4388 -0.6471
12137TIP3    H157902   2.951   3.492  11.769 -0.2583  0.9777  0.3287
12137TIP3    H257903   3.103   3.488  11.761 -0.3260 -0.8155 -0.5768
12138TIP3   OH257904   6.318   0.005   4.809  0.3940 -0.0571  0.6257
12138TIP3    H157905   6.353   0.088   4.776  1.5295 -0.3496  1.0282
12138TIP3    H257906   6.240   0.030   4.858 -1.0855  0.4326 -1.8109
12139TIP3   OH257907   0.359   3.993  15.304  0.3649 -0.2596 -0.3505
12139TIP3    H157908   0.436   3.999  15.247  0.7471 -2.9722 -0.2426
12139TIP3    H257909   0.305   3.925  15.264 -1.6672  1.0692  0.0067
12140TIP3   OH257910   4.053   2.043  10.600 -0.5355  0.4590  0.5979
12140TIP3    H157911   4.092   1.992  10.530 -0.9653 -2.5413  2.3538
12140TIP3    H257912   4.126   2.093  10.636  0.3702 -0.3670 -0.0245
12141TIP3   OH257913   6.527   2.245   1.879 -0.6597  0.1037 -0.7004
12141TIP3    H157914   6.621   2.263   1.889 -0.9220  0.4122  2.0289
12141TIP3    H257915   6.510   2.175   1.941 -2.1673 -0.3473 -1.5803
12142TIP3   OH257916   2.570   6.313   1.123  0.2412 -0.2510 -0.1940
12142TIP3    H157917   2.623   6.254   1.070  0.3286 -1.4669  1.1832
12142TIP3    H257918   2.564   6.270   1.209 -1.6837  0.5883  0.1551
12143TIP3   OH257919   3.896   0.076  15.084 -0.2771  0.0609 -0.2798
12143TIP3    H157920   3.924   0.065  15.174 -0.7292  0.4809 -0.0839
12143TIP3    H257921   3.805   0.046  15.083  0.0551 -1.0045 -0.8424
12144TIP3   OH257922   3.967   0.688  14.759 -0.2414 -0.1387  0.5320
12144TIP3    H157923   3.995   0.777  14.738 -0.7596 -0.2343 -0.6628
12144TIP3    H257924   4.048   0.636  14.758 -0.2130 -0.1207 -1.2728
12145TIP3   OH257925   4.153   6.626  14.154  0.4969 -0.4582 -0.1131
12145TIP3    H157926   4.130   6.632  14.062  0.2067  0.3731  0.0070
12145TIP3    H257927   4.082   6.673  14.200  1.2973  0.2561  0.4271
12146TIP3   OH257928   5.338   4.109  17.134 -0.0847  0.3753  0.3599
12146TIP3    H157929   5.305   4.196  17.111  0.8647  0.4716 -0.6950
12146TIP3    H257930   5.259   4.059  17.157 -1.1126  0.3993 -2.6992
12147TIP3   OH257931   5.518   6.085  14.793  0.0894 -0.3118  0.7048
12147TIP3    H157932   5.427   6.113  14.776 -0.4964 -0.5475  3.0560
12147TIP3    H257933   5.569   6.130  14.726 -1.3269  2.9692  1.6243
12148TIP3   OH257934   1.697   1.103  15.638 -0.2055 -0.0456 -0.2263
12148TIP3    H157935   1.671   1.185  15.681  0.1770 -0.9659  1.9320
12148TIP3    H257936   1.677   1.116  15.546 -3.1250  1.3137  0.4978
12149TIP3   OH257937   6.385   5.996  16.453 -0.6417 -0.5775 -0.3985
12149TIP3    H157938   6.389   6.075  16.399  1.2719 -1.1653 -1.1788
12149TIP3    H257939   6.349   5.929  16.394  1.1360 -1.1372 -0.8936
12150TIP3   OH257940   3.939   1.751   2.247  0.4942 -0.5481  0.8431
12150TIP3    H157941   3.956   1.841   2.221  0.5351 -1.3004 -2.0063
12150TIP3    H257942   3.849   1.734   2.221  0.8958 -1.7019  0.1286
12151TIP3   OH257943   5.310   2.945  13.025 -1.0561  0.3218  0.3726
12151TIP3    H157944   5.381   2.899  12.982 -2.0822 -3.4781  2.3062
12151TIP3    H257945   5.232   2.891  13.007 -2.5256  1.6773  2.2239
12152TIP3   OH257946   6.807   0.134   0.217 -0.5981 -0.0371 -0.4710
12152TIP3    H157947   6.773   0.045   0.230 -0.6025 -0.0883 -0.8377
12152TIP3    H257948   6.889   0.136   0.267 -0.5416 -0.2826 -0.5528
12153TIP3   OH257949   4.324   6.314   3.348  0.2734  0.0671 -0.4651
12153TIP3    H157950   4.377   6.360   3.413  0.2916  1.5667 -1.5096
12153TIP3    H257951   4.377   6.238   3.324  0.7471  0.0939  0.4415
12154TIP3   OH257952   3.939   6.085   4.383  0.5335 -0.0452  0.0234
12154TIP3    H157953   3.904   6.049   4.464  3.0304 -1.2172  0.6872
12154TIP3    H257954   3.997   6.017   4.349  0.3234  0.8095 -2.2558
12155TIP3   OH257955   1.758   3.773  15.143 -0.3258  0.5954  0.1268
12155TIP3    H157956   1.759   3.697  15.085 -2.6046  1.7203 -1.5193
12155TIP3    H257957   1.837   3.822  15.119 -0.8316  0.6503 -1.5497
12156TIP3   OH257958   2.441   3.678  11.411  0.4456 -0.1687  0.3757
12156TIP3    H157959   2.532   3.652  11.426  1.6971  3.0946 -0.6123
12156TIP3    H257960   2.426   3.749  11.473 -1.1218 -0.0034 -0.1444
12157TIP3   OH257961   1.695   2.838   5.322  1.4274  0.0135 -0.6663
12157TIP3    H157962   1.762   2.858   5.387  0.5067  0.9487  0.0197
12157TIP3    H257963   1.715   2.749   5.293  1.0571 -0.9742  1.9208
12158TIP3   OH257964   1.024   1.426   1.408 -0.0948  0.0020 -0.1206
12158TIP3    H157965   1.103   1.409   1.356 -1.2400 -1.0325 -1.6065
12158TIP3    H257966   1.034   1.371   1.485  1.1263  0.7069  0.2496
12159TIP3   OH257967   4.035   6.008  13.271 -0.1342  0.1302 -0.2403
12159TIP3    H157968   4.124   6.043  13.268  0.6145 -1.5280  1.1568
12159TIP3    H257969   4.036   5.935  13.209 -0.5815  0.1966 -0.3283
12160TIP3   OH257970   6.067   2.786   2.573  0.0967  0.6678  0.6265
12160TIP3    H157971   6.091   2.721   2.507 -1.1702  3.2008 -2.5388
12160TIP3    H257972   6.149   2.830   2.595  0.3021  0.7773 -0.3542
12161TIP3   OH257973   2.105   6.175   4.930 -0.2928 -0.2418 -0.6210
12161TIP3    H157974   2.116   6.147   5.020  1.1861 -1.5918 -1.1667
12161TIP3    H257975   2.086   6.095   4.882 -1.4888  0.5134 -1.4775
12162TIP3   OH257976   6.799   4.890   3.170 -0.1568  0.4026  0.7987
12162TIP3    H157977   6.890   4.882   3.142 -0.4700 -1.0067  0.0687
12162TIP3    H257978   6.748   4.857   3.095 -1.2259  0.5487  1.4437
12163TIP3   OH257979   6.033   3.230   1.763  0.1173  0.3646  0.0792
12163TIP3    H157980   6.102   3.281   1.720 -0.1057  1.0743  0.5498
12163TIP3    H257981   5.976   3.295   1.803 -1.4300 -0.1524 -1.1712
12164TIP3   OH257982   1.270   1.614  12.750  0.2488  0.1891 -0.2706
12164TIP3    H157983   1.188   1.656  12.775  0.0194  0.2194 -1.0404
12164TIP3    H257984   1.282   1.637  12.658 -0.0049 -1.5717 -0.7955
12165TIP3   OH257985   3.005   2.459  15.131  0.1942  0.4198  0.5883
12165TIP3    H157986   2.926   2.474  15.079  1.0360  1.3655 -0.4735
12165TIP3    H257987   2.983   2.491  15.218 -1.2801 -1.2860  0.9086
12166TIP3   OH257988   3.436   3.103  11.110  0.1773 -0.3528  0.1985
12166TIP3    H157989   3.440   3.008  11.112 -1.3831 -0.4604 -0.5923
12166TIP3    H257990   3.347   3.124  11.140  0.1904  0.8054 -0.5413
12167TIP3   OH257991   3.552   2.365  14.656 -0.2806 -0.0748  0.2958
12167TIP3    H157992   3.459   2.352  14.677 -0.2588 -0.5402  0.1206
12167TIP3    H257993   3.597   2.291  14.697 -0.1647 -0.6452 -0.8126
12168TIP3   OH257994   3.291   6.113  14.449 -0.4992  0.2058 -0.0662
12168TIP3    H157995   3.291   6.171  14.525  3.0151  0.3294 -0.0033
12168TIP3    H257996   3.274   6.026  14.485  0.3536  0.3765  0.8104
12169TIP3   OH257997   5.475   4.343  13.505 -0.2092  0.1649  0.3902
12169TIP3    H157998   5.484   4.299  13.421 -1.1661  0.3158  0.1984
12169TIP3    H257999   5.538   4.414  13.502 -0.0848  0.0371 -0.1094
12170TIP3   OH258000   2.969   5.066  16.396 -0.5933  0.1555 -0.2671
12170TIP3    H158001   3.002   5.058  16.485 -1.2384 -0.1121 -0.0497
12170TIP3    H258002   2.889   5.118  16.404 -0.5291  0.3341 -0.7217
12171TIP3   OH258003   0.153   6.237  15.279  0.0549 -0.1397  0.0627
12171TIP3    H158004   0.159   6.258  15.372  3.9577 -0.8085  0.1294
12171TIP3    H258005   0.185   6.147  15.273  2.2197  0.6648 -2.0844
12172TIP3   OH258006   0.693   1.786  12.031  0.7692  0.0718 -0.2454
12172TIP3    H158007   0.723   1.749  11.948 -0.7423 -0.3325 -0.6462
12172TIP3    H258008   0.695   1.881  12.017 -0.6481 -0.0161 -1.2021
12173TIP3   OH258009   5.377   1.590  11.752  0.3713  0.7046 -1.3925
12173TIP3    H158010   5.322   1.566  11.677  0.9432  0.5370 -1.7709
12173TIP3    H258011   5.455   1.534  11.743 -0.9682 -1.8601  1.2262
12174TIP3   OH258012   1.976   5.881   1.181 -0.2235  0.3461 -0.3434
12174TIP3    H158013   1.961   5.813   1.116  0.6280 -0.3836  0.1870
12174TIP3    H258014   1.997   5.959   1.131  3.2857 -0.8514 -1.0504
12175TIP3   OH258015   1.027   5.066   2.744  0.2229 -0.1735 -0.1752
12175TIP3    H158016   1.031   5.051   2.649  2.1042 -0.8275 -0.0269
12175TIP3    H258017   0.989   4.986   2.779  1.1806 -0.6776 -0.2476
12176TIP3   OH258018   3.338   6.295  14.667  0.8528  0.2843  0.3011
12176TIP3    H158019   3.340   6.273  14.761 -0.9583 -0.2409  0.2604
12176TIP3    H258020   3.343   6.390  14.665 -0.4447  0.4016  1.0530
12177TIP3   OH258021   5.850   0.946   4.555  0.2333  0.3663 -0.2231
12177TIP3    H158022   5.926   0.935   4.499 -0.3488 -1.2281 -0.7346
12177TIP3    H258023   5.837   1.041   4.559  1.1783  0.5730 -1.5519
12178TIP3   OH258024   4.979   2.440   3.917 -0.7589 -0.2545 -0.0196
12178TIP3    H158025   4.915   2.488   3.969 -1.0911 -0.1182 -0.5461
12178TIP3    H258026   4.989   2.493   3.837 -1.4805 -1.2877 -0.8247
12179TIP3   OH258027   5.041   2.209  16.759  0.2181  0.2244  0.7178
12179TIP3    H158028   5.009   2.278  16.702  1.3326  0.3313  0.2080
12179TIP3    H258029   5.091   2.151  16.702  0.8209 -0.0084  1.4702
12180TIP3   OH258030   4.317   0.833  12.194 -0.5273 -0.5758 -0.2456
12180TIP3    H158031   4.351   0.866  12.277 -2.2338  0.0007  0.2665
12180TIP3    H258032   4.277   0.910  12.153 -2.0943 -1.4137 -0.3299
12181TIP3   OH258033   6.792   3.343  15.877 -0.0572 -0.1754 -0.6266
12181TIP3    H158034   6.744   3.384  15.806  0.6144 -0.5871 -1.3321
12181TIP3    H258035   6.858   3.409  15.902  0.0084 -0.2114 -0.7038
12182TIP3   OH258036   0.243   4.194  13.425 -0.2570 -0.1838 -0.5964
12182TIP3    H158037   0.154   4.222  13.444  0.3696  0.6698  1.2941
12182TIP3    H258038   0.271   4.148  13.504  1.7198  1.4608 -0.2813
12183TIP3   OH258039   1.719   3.354   1.921  0.8309  0.1958 -0.9085
12183TIP3    H158040   1.754   3.280   1.872  0.2774  0.5889 -1.9320
12183TIP3    H258041   1.660   3.314   1.985  0.5060 -0.2557 -1.4747
12184TIP3   OH258042   2.060   3.460   3.942  0.4495 -0.0117  0.2451
12184TIP3    H158043   2.017   3.488   3.861  2.0953  3.3882  0.3489
12184TIP3    H258044   2.120   3.391   3.914 -0.9343 -0.8215 -0.8895
12185TIP3   OH258045   5.615   1.564   4.094  0.2885 -0.3788  0.2990
12185TIP3    H158046   5.603   1.544   4.187  0.7575  1.0357  0.6943
12185TIP3    H258047   5.560   1.642   4.079  0.0846 -0.6964 -0.6540
12186TIP3   OH258048   5.975   5.506   5.281 -0.5904  0.4459  0.2654
12186TIP3    H158049   5.881   5.492   5.275 -0.5873  0.5261  0.0003
12186TIP3    H258050   6.013   5.419   5.272 -0.5219  0.6775 -2.4750
12187TIP3   OH258051   4.305   1.478  15.263  0.4262 -0.1336  0.3652
12187TIP3    H158052   4.228   1.528  15.292  0.4783  0.6547 -0.7807
12187TIP3    H258053   4.374   1.503  15.324  0.0379 -0.0247  0.7637
12188TIP3   OH258054   2.293   5.417   3.229 -0.3737 -0.6320  0.3330
12188TIP3    H158055   2.230   5.467   3.177 -0.1335 -0.3685  0.2900
12188TIP3    H258056   2.263   5.429   3.319 -1.1483 -1.5971  0.2251
12189TIP3   OH258057   5.604   3.300   4.610 -0.1538 -0.1212  0.7993
12189TIP3    H158058   5.637   3.389   4.598  1.4424 -0.5311  1.8272
12189TIP3    H258059   5.672   3.256   4.660  0.0302 -2.5004 -1.3613
12190TIP3   OH258060   3.563   5.497   4.553 -0.1828  0.0640  0.0278
12190TIP3    H158061   3.490   5.499   4.491  0.4893  0.7140 -0.7574
12190TIP3    H258062   3.521   5.480   4.638 -1.1907 -0.0845 -0.4825
12191TIP3   OH258063   6.251   1.908  12.726 -0.1070  0.1271 -0.4295
12191TIP3    H158064   6.174   1.925  12.780 -0.1433  0.8282 -0.7005
12191TIP3    H258065   6.225   1.832  12.673 -0.3689 -0.0517 -0.0550
12192TIP3   OH258066   2.080   3.359  16.146 -0.0485  0.5021 -0.8109
12192TIP3    H158067   2.100   3.286  16.087  0.3724  1.2120 -1.5705
12192TIP3    H258068   2.146   3.425  16.125  0.1689  0.7470  0.5327
12193TIP3   OH258069   5.339   6.198  12.903 -0.1506  0.9358  0.3255
12193TIP3    H158070   5.373   6.260  12.967  0.3190  2.5264 -1.4090
12193TIP3    H258071   5.244   6.197  12.920 -0.0946  1.6813  0.7364
12194TIP3   OH258072   2.898   2.951   1.417  0.0200  0.5675 -0.5031
12194TIP3    H158073   2.878   2.911   1.502  1.0509  1.0752 -0.0112
12194TIP3    H258074   2.895   2.878   1.356  1.0307 -0.1395  0.2546
12195TIP3   OH258075   3.870   2.975  11.222 -0.1266  0.2914 -0.9106
12195TIP3    H158076   3.962   2.950  11.223 -0.0366  0.6217 -0.7979
12195TIP3    H258077   3.829   2.922  11.290 -0.3349 -1.0398 -2.0427
12196TIP3   OH258078   1.139   0.987  14.897  0.6525 -0.3149 -0.0092
12196TIP3    H158079   1.120   1.034  14.978  2.0918 -1.6201  1.1596
12196TIP3    H258080   1.055   0.952  14.869  0.4897 -2.1442  2.4824
12197TIP3   OH258081   6.694   0.194   1.179  0.6207 -0.7604 -0.3782
12197TIP3    H158082   6.601   0.216   1.168  0.8344 -0.1637 -1.0651
12197TIP3    H258083   6.699   0.101   1.157  0.3242 -0.5841 -1.2548
12198TIP3   OH258084   4.320   0.141  14.162  0.4294 -0.3431 -0.1838
12198TIP3    H158085   4.408   0.105  14.154  0.4710 -0.2891  0.0396
12198TIP3    H258086   4.262   0.065  14.153  0.5382 -0.6249  1.2157
12199TIP3   OH258087   6.532   4.646   1.385 -0.1256 -0.1325  0.3293
12199TIP3    H158088   6.442   4.673   1.400 -0.5075 -1.5546  0.7395
12199TIP3    H258089   6.580   4.679   1.462 -0.7116 -1.1512  1.1600
12200TIP3   OH258090   6.532   6.302   1.852  0.2392 -0.1404 -0.1385
12200TIP3    H158091   6.508   6.215   1.885  1.5057  0.1796  1.7859
12200TIP3    H258092   6.595   6.335   1.916  1.3663  1.3550 -1.9493
12201TIP3   OH258093   2.145   4.113  14.635 -0.0847 -0.0595 -0.5434
12201TIP3    H158094   2.113   4.189  14.586 -0.9792  0.2127  0.4149
12201TIP3    H258095   2.189   4.150  14.712 -1.3352 -0.4823  0.4194
12202TIP3   OH258096   3.946   3.443  13.997  0.2713 -0.5726 -0.7917
12202TIP3    H158097   3.858   3.457  14.033  0.4986 -1.3727  0.1507
12202TIP3    H258098   3.987   3.529  13.998 -0.5124 -0.1856 -1.2775
12203TIP3   OH258099   0.470   5.437  12.391 -0.8800  0.0213  0.0974
12203TIP3    H158100   0.543   5.376  12.382 -2.4617 -1.8206 -1.0622
12203TIP3    H258101   0.472   5.489  12.311  0.2695  1.3280  0.9381
12204TIP3   OH258102   4.039   2.245  12.250 -0.0650  0.1765  0.1402
12204TIP3    H158103   4.031   2.198  12.333  1.4225 -3.8215 -1.7164
12204TIP3    H258104   3.949   2.252  12.218 -0.3844 -1.1512  0.6787
12205TIP3   OH258105   1.210   2.107  15.198  0.6081  0.0331  0.1966
12205TIP3    H158106   1.201   2.013  15.183 -2.5027  0.5310 -2.1112
12205TIP3    H258107   1.186   2.120  15.290 -0.9569 -1.2665  0.0086
12206TIP3   OH258108   2.319   1.498  10.556 -0.4365 -0.6302 -0.3211
12206TIP3    H158109   2.244   1.531  10.605 -0.1460  3.6431 -2.2483
12206TIP3    H258110   2.395   1.530  10.603 -0.0843  0.3679 -1.4925
12207TIP3   OH258111   2.295   1.264  14.920 -0.2447 -0.0622  1.0962
12207TIP3    H158112   2.229   1.305  14.865  0.9114  0.9444  0.4066
12207TIP3    H258113   2.273   1.289  15.009 -0.8781  0.1201  0.8900
12208TIP3   OH258114   6.005   2.488   0.331  0.6232  0.0160  0.0239
12208TIP3    H158115   6.000   2.566   0.386  0.1013  0.2292 -0.3216
12208TIP3    H258116   5.970   2.515   0.247  1.2780 -0.3494 -0.3766
12209TIP3   OH258117   2.350   6.710  15.992 -0.4356  0.6006 -0.6134
12209TIP3    H158118   2.287   6.642  15.970 -0.7686  0.2259  1.3175
12209TIP3    H258119   2.433   6.664  16.001 -0.9363  0.0475  2.2760
12210TIP3   OH258120   1.538   1.208  13.725 -0.2412  0.0245 -0.5776
12210TIP3    H158121   1.468   1.193  13.661 -1.4499  1.0461  0.4656
12210TIP3    H258122   1.504   1.275  13.783  1.0248 -0.5475  0.8899
12211TIP3   OH258123   6.072   1.992   4.396 -0.0303  0.3052 -0.0310
12211TIP3    H158124   6.117   1.961   4.318 -0.2527 -0.8580  0.2841
12211TIP3    H258125   6.140   1.995   4.464  0.1784  1.3826 -0.2653
12212TIP3   OH258126   0.620   0.771   2.454 -1.0039 -0.5224 -0.1979
12212TIP3    H158127   0.633   0.820   2.373 -3.2762  0.3174 -0.1326
12212TIP3    H258128   0.576   0.833   2.512  1.9945 -0.5117  2.3829
12213TIP3   OH258129   4.767   1.460  15.161 -0.0930  0.3431 -0.7955
12213TIP3    H158130   4.786   1.518  15.235 -0.0330 -0.3599 -0.2502
12213TIP3    H258131   4.674   1.476  15.142  0.1973  1.4282 -1.3830
12214TIP3   OH258132   1.619   5.866   3.296  0.2983  0.3230  0.1616
12214TIP3    H158133   1.691   5.929   3.296 -0.9727  1.8934 -1.2009
12214TIP3    H258134   1.561   5.897   3.226 -1.0430 -1.6396  0.3355
12215TIP3   OH258135   3.614   2.561  15.752 -0.4536  0.1200  0.0399
12215TIP3    H158136   3.696   2.595  15.716 -0.2775 -1.0282 -0.6742
12215TIP3    H258137   3.635   2.473  15.783 -1.7401 -0.8068 -1.5743
12216TIP3   OH258138   5.180   3.816   4.085  1.3475  0.1749  0.5570
12216TIP3    H158139   5.157   3.724   4.080  1.8929 -0.0715  2.0863
12216TIP3    H258140   5.104   3.858   4.125  1.6746  0.1285  1.2469
12217TIP3   OH258141   1.558   0.828   5.161  0.3065 -0.2563  0.3355
12217TIP3    H158142   1.636   0.785   5.195  0.5032 -0.5898 -0.5164
12217TIP3    H258143   1.585   0.918   5.144  0.2618 -0.1415  0.8576
12218TIP3   OH258144   5.407   3.981  12.144 -0.0577  0.2363 -0.2006
12218TIP3    H158145   5.416   4.066  12.187 -0.5946  0.2904 -0.1884
12218TIP3    H258146   5.463   3.922  12.195 -0.0700  0.4752  0.0908
12219TIP3   OH258147   1.752   3.647   4.622 -0.1147 -0.2029 -0.2817
12219TIP3    H158148   1.679   3.644   4.560 -1.4200  3.3029  0.8490
12219TIP3    H258149   1.719   3.602   4.700 -0.8531  0.7352 -0.0338
12220TIP3   OH258150   2.499   2.310  11.432 -0.2215 -0.7011  0.2535
12220TIP3    H158151   2.461   2.389  11.469 -1.0578 -0.6815 -0.6056
12220TIP3    H258152   2.573   2.341  11.379 -1.6238 -0.2694 -1.5451
12221TIP3   OH258153   1.431   6.237  13.778  0.6376  0.1309  0.1915
12221TIP3    H158154   1.365   6.195  13.833  1.5019 -0.8035  0.5331
12221TIP3    H258155   1.390   6.242  13.692  0.3952 -1.1682  0.2102
12222TIP3   OH258156   4.094   5.460   5.774 -0.0468  0.4257  0.2634
12222TIP3    H158157   4.114   5.509   5.854  0.0227 -1.3842  1.4386
12222TIP3    H258158   4.144   5.503   5.705  1.3601  0.9497  1.5670
12223TIP3   OH258159   0.607   5.646  13.672 -0.3604 -0.1691 -0.2525
12223TIP3    H158160   0.604   5.554  13.646  0.3629 -0.2252 -0.1535
12223TIP3    H258161   0.606   5.645  13.767 -2.5993  0.0240 -0.2229
12224TIP3   OH258162   4.813   3.195  12.876 -0.3290 -0.1362  0.0486
12224TIP3    H158163   4.895   3.217  12.831  0.7513 -0.2399  1.8963
12224TIP3    H258164   4.832   3.114  12.924 -1.8156 -0.6915 -0.2162
12225TIP3   OH258165   3.801   4.374   5.120 -1.0891 -0.5499  0.7963
12225TIP3    H158166   3.877   4.431   5.117 -0.9109 -0.8306 -1.2133
12225TIP3    H258167   3.830   4.298   5.170 -0.2782 -0.3533  0.6314
12226TIP3   OH258168   3.594   2.448  14.165  0.5018 -0.7851 -0.1539
12226TIP3    H158169   3.581   2.366  14.214  0.7946 -0.4661  0.4782
12226TIP3    H258170   3.540   2.512  14.212 -0.7682 -0.8748 -1.4149
12227TIP3   OH258171   1.199   0.058  16.963  0.1958  0.0353 -0.1586
12227TIP3    H158172   1.113   0.037  17.000  0.0818  0.2243 -0.3169
12227TIP3    H258173   1.258   0.059  17.039 -0.2233  1.4701  0.1806
12228TIP3   OH258174   3.987   0.710  15.046  0.3726  0.4678 -0.1781
12228TIP3    H158175   3.972   0.758  14.965 -0.6616  0.3739 -0.0648
12228TIP3    H258176   4.008   0.621  15.018  1.0795  0.6847 -0.3577
12229TIP3   OH258177   1.238   3.196  11.545 -0.2499  0.0127  0.5064
12229TIP3    H158178   1.282   3.116  11.572 -0.6377 -0.4874 -0.3181
12229TIP3    H258179   1.156   3.197  11.595  0.3631  0.5998  1.5329
12230TIP3   OH258180   1.203   1.570  14.102  0.3182  0.4057 -0.2297
12230TIP3    H158181   1.256   1.611  14.171 -0.9269  0.3239  0.8136
12230TIP3    H258182   1.113   1.589  14.127 -0.1844 -0.0685 -1.5881
12231TIP3   OH258183   2.612   4.009   0.334 -0.4944 -0.0435 -0.2090
12231TIP3    H158184   2.532   3.970   0.372 -0.0575  0.8650  1.7577
12231TIP3    H258185   2.580   4.085   0.285 -0.9116 -0.1495 -0.1123
12232TIP3   OH258186   4.123   0.518  15.972  0.8084 -0.2438  0.2499
12232TIP3    H158187   4.169   0.470  15.904  0.5863 -0.7798  0.4706
12232TIP3    H258188   4.174   0.598  15.984  0.6619  0.0205 -0.7808
12233TIP3   OH258189   0.883   1.273  12.420  0.3165 -0.2744 -0.0518
12233TIP3    H158190   0.845   1.218  12.488  1.9533 -0.0486  1.1136
12233TIP3    H258191   0.977   1.253  12.422  0.8878  2.0791 -0.0058
12234TIP3   OH258192   6.696   4.648   0.769 -0.2141 -0.5053  0.2990
12234TIP3    H158193   6.710   4.631   0.862 -1.1996 -0.2774  0.5099
12234TIP3    H258194   6.662   4.565   0.734  0.4112 -0.6724  0.0798
12235TIP3   OH258195   1.531   6.231   0.368 -0.0840  0.1478  0.5337
12235TIP3    H158196   1.475   6.306   0.351  2.3165  2.3152  1.6069
12235TIP3    H258197   1.556   6.200   0.281 -0.8382  0.8156  0.0694
12236TIP3   OH258198   1.627   0.470  13.783 -0.4769 -0.3463  1.0022
12236TIP3    H158199   1.585   0.457  13.698  0.3175 -0.4163  0.6038
12236TIP3    H258200   1.576   0.539  13.826  0.7090  1.6682 -0.6513
12237TIP3   OH258201   5.609   6.674  16.936  0.0185 -0.2078  0.4604
12237TIP3    H158202   5.605   6.621  16.856  1.2042  0.5734 -0.1522
12237TIP3    H258203   5.700   6.667  16.965 -0.1564  0.3341  1.1775
12238TIP3   OH258204   4.968   1.273  15.114  0.6853 -0.2070  0.1023
12238TIP3    H158205   4.886   1.320  15.127 -0.0062 -0.9772 -1.2641
12238TIP3    H258206   4.945   1.201  15.055  2.0471 -1.2890  0.8295
12239TIP3   OH258207   4.490   2.287  13.708 -1.1452 -0.4327  0.0652
12239TIP3    H158208   4.461   2.239  13.785  1.1238 -0.8785  0.7119
12239TIP3    H258209   4.583   2.265  13.699 -1.4805 -1.0046 -3.2602
12240TIP3   OH258210   3.651   5.062   5.534  0.1074 -0.3932 -0.0510
12240TIP3    H158211   3.625   5.057   5.442 -1.1656  1.2034  0.1763
12240TIP3    H258212   3.671   5.155   5.548  3.2005 -1.0284  0.5735
12241TIP3   OH258213   4.710   6.590  14.768 -0.7035 -0.6122  0.0092
12241TIP3    H158214   4.692   6.671  14.816 -0.6903 -0.7775  0.2924
12241TIP3    H258215   4.667   6.602  14.684 -0.8516 -0.3819  0.1163
12242TIP3   OH258216   5.352   1.094   1.377  0.0734 -0.0307  0.0997
12242TIP3    H158217   5.417   1.141   1.430  0.4404 -0.2048 -0.1934
12242TIP3    H258218   5.368   1.002   1.396  1.1290 -0.1817 -1.3432
12243TIP3   OH258219   5.500   6.376  14.415 -0.1748  0.2083 -0.2825
12243TIP3    H158220   5.552   6.413  14.486 -0.0147 -1.9703  0.8204
12243TIP3    H258221   5.523   6.429  14.339  3.1313 -0.1337  0.3034
12244TIP3   OH258222   2.031   5.337   2.418 -0.3110 -0.2059  0.1509
12244TIP3    H158223   2.113   5.309   2.377 -0.1338  0.3582  0.1123
12244TIP3    H258224   2.047   5.428   2.445 -0.3807 -0.5924  1.5868
12245TIP3   OH258225   2.818   2.894   4.521  0.7186 -0.2309 -0.2278
12245TIP3    H158226   2.836   2.869   4.612 -0.9543  2.8000  1.0640
12245TIP3    H258227   2.728   2.924   4.521  0.8391  0.3702 -2.8060
12246TIP3   OH258228   4.275   5.324   1.495 -0.0497  0.4524  0.2978
12246TIP3    H158229   4.266   5.342   1.402 -0.9897  1.0807  0.4968
12246TIP3    H258230   4.192   5.351   1.533 -0.2765 -1.3131  1.1116
12247TIP3   OH258231   0.396   5.867   3.421  0.2252 -0.2669 -0.0536
12247TIP3    H158232   0.449   5.933   3.466  0.1283  0.1220 -0.5023
12247TIP3    H258233   0.445   5.786   3.431 -0.7309 -0.6168  2.4622
12248TIP3   OH258234   2.923   0.042  12.795  0.4934 -0.0921 -0.4585
12248TIP3    H158235   2.951   0.131  12.776  1.2048 -0.3093 -0.4651
12248TIP3    H258236   2.962   0.023  12.880  0.5310 -0.4774 -0.5613
12249TIP3   OH258237   4.829   4.839  12.426 -0.3455 -0.2352  0.1037
12249TIP3    H158238   4.742   4.835  12.467 -0.9289 -3.9210 -1.1136
12249TIP3    H258239   4.869   4.755  12.447  2.6556  1.0264 -0.1028
12250TIP3   OH258240   2.185   5.356   0.280 -0.7409  0.0288 -0.2266
12250TIP3    H158241   2.195   5.283   0.340 -1.0281 -0.9196 -1.2978
12250TIP3    H258242   2.111   5.406   0.315 -0.6350 -0.2660  0.4352
12251TIP3   OH258243   5.193   2.323   0.862 -0.1286 -0.7371 -0.3013
12251TIP3    H158244   5.234   2.400   0.903 -0.9319 -0.8623  0.7710
12251TIP3    H258245   5.264   2.283   0.811 -0.0338  1.4841 -2.0648
12252TIP3   OH258246   0.665   2.492   6.364  0.6140  0.2678  0.8060
12252TIP3    H158247   0.621   2.554   6.305  2.2316 -0.1910 -0.9736
12252TIP3    H258248   0.594   2.444   6.406 -0.6265  1.7393  0.4739
12253TIP3   OH258249   5.104   1.294  13.415 -0.6812  0.3494  0.7777
12253TIP3    H158250   5.180   1.286  13.473  0.6261 -0.6630 -0.9785
12253TIP3    H258251   5.085   1.388  13.414  1.6146  0.8753  0.0065
12254TIP3   OH258252   2.747   4.933   1.364 -0.1657 -0.3166 -0.4381
12254TIP3    H158253   2.807   4.990   1.413 -0.4426  0.4967 -1.0114
12254TIP3    H258254   2.804   4.877   1.312  0.1412 -1.3880  0.9810
12255TIP3   OH258255   1.379   5.282  13.542  0.7013 -0.5115  0.2822
12255TIP3    H158256   1.407   5.192  13.556  0.3600 -0.4662  1.2948
12255TIP3    H258257   1.284   5.276  13.530  0.8082 -0.3973 -0.7700
12256TIP3   OH258258   4.868   4.819   2.878 -0.0133  0.1348  0.0461
12256TIP3    H158259   4.958   4.851   2.885  0.1798 -0.2058 -0.7160
12256TIP3    H258260   4.849   4.782   2.964 -0.0569  1.7613  0.7771
12257TIP3   OH258261   3.581   0.901  12.938  0.0322  0.2258 -0.2488
12257TIP3    H158262   3.658   0.953  12.915  1.6461 -2.4488 -1.2468
12257TIP3    H258263   3.585   0.894  13.033 -0.0537  1.5822 -0.1144
12258TIP3   OH258264   0.703   2.596   5.563 -0.7819 -0.1864  0.1188
12258TIP3    H158265   0.694   2.501   5.563 -1.1618 -0.1643  1.2847
12258TIP3    H258266   0.696   2.621   5.655  1.7956  0.7517  0.1450
12259TIP3   OH258267   1.457   4.978   1.519  0.0360  0.7400  1.1238
12259TIP3    H158268   1.498   4.894   1.499 -0.6351  0.3212  1.4585
12259TIP3    H258269   1.424   5.009   1.435 -0.9081  0.0057  1.2065
12260TIP3   OH258270   1.210   2.954  13.674  0.5746  0.3154 -0.3123
12260TIP3    H158271   1.278   2.962  13.606 -0.9934  1.6729 -1.8123
12260TIP3    H258272   1.194   2.860  13.680 -0.2373  0.1999 -2.9345
12261TIP3   OH258273   3.949   2.972  15.563  0.7493 -0.1512  0.0822
12261TIP3    H158274   3.947   3.065  15.542 -0.5457 -0.5737 -2.0224
12261TIP3    H258275   3.874   2.935  15.515  2.3255 -2.5565 -0.7047
12262TIP3   OH258276   6.260   2.331  11.539 -0.2741  0.3158  0.3274
12262TIP3    H158277   6.325   2.293  11.480 -3.2969 -0.1891 -3.0536
12262TIP3    H258278   6.305   2.404  11.582  3.0192 -1.2739 -0.1305
12263TIP3   OH258279   0.280   4.391  14.552  0.1896  0.4270  0.1804
12263TIP3    H158280   0.187   4.410  14.539  0.2073  0.3048 -0.1379
12263TIP3    H258281   0.284   4.295  14.560  0.2146  0.4744  0.8269
12264TIP3   OH258282   0.312   3.353   2.993  0.1890 -0.3166  0.0785
12264TIP3    H158283   0.373   3.400   3.049 -1.2074  1.5268  0.1473
12264TIP3    H258284   0.366   3.287   2.949  2.1349  0.9559  0.4249
12265TIP3   OH258285   3.971   3.418  16.318  0.3502  0.3364 -0.0620
12265TIP3    H158286   4.063   3.393  16.318  0.1308 -0.4854 -0.1626
12265TIP3    H258287   3.972   3.512  16.298  1.0812  0.0066 -1.7047
12266TIP3   OH258288   0.552   2.050   5.825  0.7326  0.2087 -0.0463
12266TIP3    H158289   0.613   1.987   5.861  0.6717  0.1683 -0.0141
12266TIP3    H258290   0.575   2.133   5.866  1.4412  0.4046 -0.8007
12267TIP3   OH258291   0.075   5.321   5.051 -0.2984  0.2084 -0.3778
12267TIP3    H158292  -0.010   5.291   5.084 -0.3958  0.1560 -0.6742
12267TIP3    H258293   0.136   5.304   5.122 -0.6090  0.6228 -0.0045
12268TIP3   OH258294   0.715   6.526  11.394 -0.0801 -0.0225 -0.0238
12268TIP3    H158295   0.624   6.534  11.363 -1.9343 -0.8583  4.4505
12268TIP3    H258296   0.745   6.617  11.402 -1.8400  0.4898  1.5411
12269TIP3   OH258297   1.159   5.651  12.052  0.6393 -0.3782 -0.4878
12269TIP3    H158298   1.237   5.702  12.074 -0.6168  1.1457  0.6887
12269TIP3    H258299   1.130   5.687  11.968  0.0781  0.4921  0.0638
12270TIP3   OH258300   3.970   3.689   4.892 -0.1689 -0.0551 -0.3289
12270TIP3    H158301   3.928   3.605   4.905 -0.1956  0.0631  0.4114
12270TIP3    H258302   3.909   3.739   4.839 -0.5093 -0.2340 -0.1071
12271TIP3   OH258303   4.508   1.705   4.412 -0.4571 -0.2691 -0.0638
12271TIP3    H158304   4.432   1.746   4.371 -1.4513 -0.8165  1.1769
12271TIP3    H258305   4.567   1.778   4.430 -0.1926  0.0506 -1.9608
12272TIP3   OH258306   0.572   2.234  12.512 -0.0989 -1.0779 -0.3181
12272TIP3    H158307   0.527   2.151  12.498 -1.4474 -0.0991 -2.1932
12272TIP3    H258308   0.584   2.270  12.424  1.6939  0.1093  0.3506
12273TIP3   OH258309   2.747   4.698   3.118 -0.3405 -0.1273  0.7719
12273TIP3    H158310   2.685   4.626   3.131 -1.4106  0.7412  0.6612
12273TIP3    H258311   2.826   4.671   3.165 -1.3720 -0.5454  2.3621
12274TIP3   OH258312   3.057   3.433  14.922 -0.3822 -0.3239 -0.0202
12274TIP3    H158313   2.990   3.443  14.990 -0.4038  0.0338 -0.0894
12274TIP3    H258314   3.098   3.520  14.917 -0.2054 -0.4232 -0.2797
12275TIP3   OH258315   5.424   0.158  12.358  0.4218  0.6811  0.5844
12275TIP3    H158316   5.369   0.204  12.421  1.9900 -0.2728  2.7937
12275TIP3    H258317   5.510   0.199  12.365  0.3512  1.4959 -2.0699
12276TIP3   OH258318   4.403   2.835  11.516 -0.3125 -0.0501  0.0855
12276TIP3    H158319   4.447   2.853  11.599 -0.9889  0.2550  0.3823
12276TIP3    H258320   4.342   2.764  11.535  0.6031 -1.0348 -0.5164
12277TIP3   OH258321   1.750   5.649  12.043  0.2940 -0.0879 -0.5780
12277TIP3    H158322   1.738   5.744  12.046  0.0447 -0.1293 -0.0379
12277TIP3    H258323   1.814   5.634  11.974  2.0384  0.6448  0.8182
12278TIP3   OH258324   5.672   1.433  15.192 -0.8257  0.0913 -0.1995
12278TIP3    H158325   5.633   1.358  15.238 -2.3341 -0.4329 -2.2138
12278TIP3    H258326   5.744   1.395  15.142  0.1046  0.4772  0.8074
12279TIP3   OH258327   5.496   0.191  12.915 -0.0668  0.1362  0.4784
12279TIP3    H158328   5.531   0.117  12.965  0.2172 -1.2584 -1.6424
12279TIP3    H258329   5.401   0.181  12.920 -0.0473 -1.4618 -1.1650
12280TIP3   OH258330   0.331   2.125   3.947 -0.2617 -0.4511  0.2388
12280TIP3    H158331   0.409   2.156   3.993  1.0442 -1.5610 -1.1156
12280TIP3    H258332   0.303   2.048   3.997 -0.9576  0.3448  1.1290
12281TIP3   OH258333   2.117   1.276  11.783 -0.2391 -0.8079 -0.2891
12281TIP3    H158334   2.173   1.217  11.834 -0.2707 -0.7241 -0.1576
12281TIP3    H258335   2.164   1.359  11.782 -0.1761 -0.8447 -0.5081
12282TIP3   OH258336   0.235   0.376  12.854  0.1941 -0.6679  0.3354
12282TIP3    H158337   0.159   0.362  12.910  1.4691 -1.1759  2.0227
12282TIP3    H258338   0.295   0.305  12.877  1.3624 -0.0238 -0.6186
12283TIP3   OH258339   5.697   3.305   5.961  0.2028  0.3774  0.1052
12283TIP3    H158340   5.683   3.312   5.866 -0.8741 -0.6486  0.1747
12283TIP3    H258341   5.777   3.252   5.970  1.6968  2.4259 -0.2213
12284TIP3   OH258342   3.170   5.236   4.780  0.4375  0.1386 -0.3834
12284TIP3    H158343   3.254   5.192   4.791  0.3880  0.4283  1.5044
12284TIP3    H258344   3.193   5.328   4.765  0.4794  0.2340  0.2238
12285TIP3   OH258345   5.386   4.185   0.676 -0.2643  0.4321  0.8892
12285TIP3    H158346   5.349   4.241   0.608 -0.5724  0.8205  1.3683
12285TIP3    H258347   5.359   4.097   0.652 -1.5736  0.7114  1.2680
12286TIP3   OH258348   4.363   4.094  16.645  0.2115 -0.7278 -0.6406
12286TIP3    H158349   4.359   4.056  16.733  0.4695  0.7084  0.0034
12286TIP3    H258350   4.445   4.061  16.609  0.6599 -0.4346  0.0865
12287TIP3   OH258351   3.467   0.160  17.071 -0.6311 -0.4143 -0.1469
12287TIP3    H158352   3.503   0.242  17.038 -3.0813 -0.0622 -2.2452
12287TIP3    H258353   3.508   0.148  17.156  1.8866  1.5277 -0.9737
12288TIP3   OH258354   3.991   3.271   2.100 -0.2763  0.0736 -0.3763
12288TIP3    H158355   3.969   3.210   2.030 -0.8342 -0.8596  0.5772
12288TIP3    H258356   4.085   3.287   2.090 -0.1892 -0.6910 -0.8454
12289TIP3   OH258357   6.717   3.246  12.033 -0.1926  0.2503 -0.1818
12289TIP3    H158358   6.742   3.156  12.011  1.4767  0.8216 -0.7059
12289TIP3    H258359   6.730   3.295  11.952  1.8435  1.5368  0.8499
12290TIP3   OH258360   3.097   5.003   4.074 -0.2074 -0.0563 -0.3807
12290TIP3    H158361   3.028   4.950   4.116 -2.0165  2.6292  0.2976
12290TIP3    H258362   3.052   5.045   4.000  1.4068 -0.1054 -1.4291
12291TIP3   OH258363   1.361   3.887   5.746 -0.5129 -0.0842  0.2660
12291TIP3    H158364   1.348   3.796   5.720  0.0794 -0.2864  0.6553
12291TIP3    H258365   1.456   3.900   5.741 -0.6110  0.5716  0.0179
12292TIP3   OH258366   3.376   1.117   0.270  0.4453  0.1021  0.3553
12292TIP3    H158367   3.339   1.127   0.358  1.0148 -1.2652  0.7789
12292TIP3    H258368   3.326   1.046   0.231  1.4319 -0.5883  0.2945
12293TIP3   OH258369   4.368   4.615  15.825 -0.6376  0.5793 -0.4438
12293TIP3    H158370   4.431   4.557  15.868 -0.7948  0.1883 -0.7420
12293TIP3    H258371   4.284   4.596  15.868 -0.4338  1.6387  0.4848
12294TIP3   OH258372   6.343   5.028  14.769 -0.2146 -0.5536 -0.0167
12294TIP3    H158373   6.362   4.990  14.683  0.0170 -0.3358 -0.0628
12294TIP3    H258374   6.248   5.043  14.768 -0.0440  0.5408 -0.6879
12295TIP3   OH258375   1.064   0.479  11.517 -1.0810  0.1647  0.6243
12295TIP3    H158376   1.108   0.564  11.510 -0.4880 -0.1452  0.5567
12295TIP3    H258377   0.986   0.488  11.461  0.3769 -0.2070 -1.5840
12296TIP3   OH258378   3.121   1.928  17.053  0.1159 -0.4226  0.2349
12296TIP3    H158379   3.172   2.007  17.074 -1.6273  1.0518 -0.7779
12296TIP3    H258380   3.107   1.886  17.138 -1.3532  1.9333  1.2629
12297TIP3   OH258381   3.317   4.010  10.358  0.3242 -0.0189 -0.1846
12297TIP3    H158382   3.292   3.932  10.407 -1.3474  1.1043  0.8699
12297TIP3    H258383   3.390   4.048  10.406  0.4308 -0.3512 -0.0859
12298TIP3   OH258384   5.200   1.892  11.536  0.0642 -0.2692  0.9159
12298TIP3    H158385   5.122   1.947  11.542 -0.5609 -0.7441 -1.6724
12298TIP3    H258386   5.254   1.933  11.468  2.3170  0.2372  2.8508
12299TIP3   OH258387   1.394   5.825   3.550  0.0286 -0.2532 -0.1118
12299TIP3    H158388   1.331   5.863   3.489  0.6274 -0.5716 -0.9552
12299TIP3    H258389   1.479   5.848   3.513  0.4000 -0.8918  0.3277
12300TIP3   OH258390   3.900   2.105  13.440  0.5573  0.2748  0.1495
12300TIP3    H158391   3.965   2.143  13.499 -1.2086  1.1333  1.6074
12300TIP3    H258392   3.891   2.015  13.469 -1.2385  1.0170  2.1591
12301TIP3   OH258393   3.621   6.512  10.830  0.2168  0.9406 -0.1397
12301TIP3    H158394   3.660   6.438  10.782  0.6993  0.3181  1.1484
12301TIP3    H258395   3.693   6.546  10.883 -0.2886  1.6308  0.1169
12302TIP3   OH258396   4.646   6.506  11.959 -0.3388  0.2525 -0.1038
12302TIP3    H158397   4.638   6.425  12.009  0.9718 -2.2619 -3.6277
12302TIP3    H258398   4.573   6.560  11.990 -1.1134 -2.0931  2.5705
12303TIP3   OH258399   6.341   0.692   3.444 -0.1065 -0.3549  0.0944
12303TIP3    H158400   6.392   0.755   3.392  1.4073  0.1139  2.0444
12303TIP3    H258401   6.358   0.607   3.403  0.5487  0.0755 -0.5336
12304TIP3   OH258402   0.192   6.458   2.159 -0.4078 -0.3014 -0.0043
12304TIP3    H158403   0.285   6.447   2.180 -0.7483 -0.8552  1.2705
12304TIP3    H258404   0.178   6.399   2.085  0.6700  1.2525 -1.5691
12305TIP3   OH258405   4.397   0.276   2.125 -0.7724 -0.6203 -0.6808
12305TIP3    H158406   4.376   0.365   2.099  0.9445 -1.0014 -3.8258
12305TIP3    H258407   4.370   0.271   2.217 -0.5437  3.2325 -0.2410
12306TIP3   OH258408   2.725   0.505  14.631 -0.0512  0.2337 -0.3192
12306TIP3    H158409   2.699   0.588  14.670  1.1892 -0.0063  1.1137
12306TIP3    H258410   2.772   0.529  14.551 -1.1145  0.8141 -0.7888
12307TIP3   OH258411   1.458   5.250  14.033 -0.4312 -0.6653  0.1637
12307TIP3    H158412   1.417   5.233  14.117  0.0054  0.4994  0.6432
12307TIP3    H258413   1.432   5.340  14.011  2.6286  0.5654  1.0347
12308TIP3   OH258414   3.830   5.626  10.700 -0.2897 -0.0252  0.1409
12308TIP3    H158415   3.798   5.606  10.611 -1.3972 -1.7238  0.8666
12308TIP3    H258416   3.830   5.722  10.704 -0.9155  0.0829 -1.4478
12309TIP3   OH258417   3.256   5.613  11.381  0.5380  0.1224  0.6669
12309TIP3    H158418   3.340   5.641  11.418  0.6038 -1.1131  1.4821
12309TIP3    H258419   3.202   5.592  11.457  0.1246 -0.8872  0.1050
12310TIP3   OH258420   3.703   1.645  13.622 -0.4849  0.4803 -0.8931
12310TIP3    H158421   3.787   1.615  13.587 -0.5114  0.1764 -0.7017
12310TIP3    H258422   3.718   1.737  13.643  0.6283 -0.1876  1.5897
12311TIP3   OH258423   5.590   0.238   5.533  0.5502  0.1946 -0.2446
12311TIP3    H158424   5.622   0.261   5.621 -0.1337 -0.7647  0.2736
12311TIP3    H258425   5.496   0.255   5.537  0.2938 -1.0900 -0.3550
12312TIP3   OH258426   0.494   5.069   2.492 -0.0868 -0.4033 -0.1259
12312TIP3    H158427   0.433   5.036   2.558 -1.2809  1.6380 -0.1477
12312TIP3    H258428   0.580   5.062   2.533 -0.6034 -0.8881  0.9023
12313TIP3   OH258429   1.457   5.019  13.642  0.7977  0.0869  0.4154
12313TIP3    H158430   1.363   5.023  13.660  0.0927 -1.1122 -2.5501
12313TIP3    H258431   1.487   4.940  13.687  0.1022 -0.3030  0.1946
12314TIP3   OH258432   1.699   6.625   3.575  0.2724 -0.0569 -0.2012
12314TIP3    H158433   1.778   6.662   3.538 -0.7795  2.3373 -0.2706
12314TIP3    H258434   1.633   6.634   3.506 -0.6384  0.3332  0.6901
12315TIP3   OH258435   2.882   5.409  15.111  0.3681  0.0027  0.0622
12315TIP3    H158436   2.918   5.497  15.103  0.8869 -0.0135  1.7734
12315TIP3    H258437   2.935   5.356  15.052  1.3571  0.4921  0.4923
12316TIP3   OH258438   3.528   3.804  15.371 -0.0321 -0.7187  0.5591
12316TIP3    H158439   3.600   3.827  15.430 -1.4307  4.0560  0.8415
12316TIP3    H258440   3.530   3.872  15.304 -2.8436 -1.8554 -0.8153
12317TIP3   OH258441   5.144   4.026  11.147 -0.0389  0.0157  0.0384
12317TIP3    H158442   5.162   4.112  11.109  0.7543  0.6783  1.8139
12317TIP3    H258443   5.194   3.965  11.093  0.2276  0.7843 -0.6071
12318TIP3   OH258444   6.805   0.230  12.628 -0.1496  0.1231 -0.4296
12318TIP3    H158445   6.870   0.160  12.636  1.3249  1.3707 -0.9831
12318TIP3    H258446   6.779   0.228  12.536  0.0669  0.4222 -0.5011
12319TIP3   OH258447   1.966   2.767  14.723 -0.1686  0.4961  0.5990
12319TIP3    H158448   2.045   2.739  14.769  1.2430  0.4417 -1.6793
12319TIP3    H258449   1.927   2.685  14.692 -0.5785  0.5895  0.8601
12320TIP3   OH258450   6.444   3.747  16.644 -0.4644  0.1533 -0.0087
12320TIP3    H158451   6.535   3.718  16.636 -0.4134  0.2397  0.2389
12320TIP3    H258452   6.413   3.757  16.554  0.0103  0.8649 -0.1017
12321TIP3   OH258453   1.399   4.359   4.546 -0.0313  0.1059  0.0096
12321TIP3    H158454   1.417   4.361   4.640 -0.8655  3.5188  0.2383
12321TIP3    H258455   1.482   4.379   4.504 -0.2142  1.3749  0.2213
12322TIP3   OH258456   1.326   1.131  15.575 -0.0251 -0.2529  0.0724
12322TIP3    H158457   1.265   1.147  15.503 -0.1068 -1.7633 -0.2128
12322TIP3    H258458   1.372   1.051  15.551 -0.2707 -0.9844  1.8397
12323TIP3   OH258459   4.619   5.300   1.859  0.1245  0.1691 -0.2255
12323TIP3    H158460   4.697   5.302   1.914  1.2110  0.8727 -1.7238
12323TIP3    H258461   4.632   5.224   1.802  0.1765  0.8184 -1.0985
12324TIP3   OH258462   4.423   2.115   0.744  0.2537 -0.0325  0.6159
12324TIP3    H158463   4.347   2.077   0.700 -1.1130  3.6357 -0.5805
12324TIP3    H258464   4.489   2.124   0.676 -0.8489  3.0654 -0.1790
12325TIP3   OH258465   5.140   0.428  17.128  0.2970  0.1587  0.1243
12325TIP3    H158466   5.128   0.479  17.209  1.7135  0.6961  0.0300
12325TIP3    H258467   5.201   0.481  17.076  1.4655 -1.4225 -0.1776
12326TIP3   OH258468   5.749   3.825   3.298  0.0668  0.1743 -0.0633
12326TIP3    H158469   5.732   3.737   3.332 -2.6792  0.9826  0.9960
12326TIP3    H258470   5.786   3.872   3.372  1.2718  0.0053 -0.5466
12327TIP3   OH258471   0.301   1.563   1.188  0.2224  0.1545  0.0594
12327TIP3    H158472   0.364   1.622   1.228  1.4948 -0.9559 -0.2400
12327TIP3    H258473   0.351   1.516   1.121 -0.9452 -0.6883 -0.2586
12328TIP3   OH258474   0.419   2.666  12.928  0.2319  0.3262  0.0452
12328TIP3    H158475   0.356   2.632  12.991 -0.1978  1.0809  0.0319
12328TIP3    H258476   0.366   2.703  12.857  0.7041 -1.9956 -1.6221
12329TIP3   OH258477   2.243   2.931   3.100  0.0963  0.5291  0.3236
12329TIP3    H158478   2.252   2.891   3.186  0.0302  0.7820  0.4486
12329TIP3    H258479   2.333   2.947   3.071  0.1260  0.0951  0.1829
12330TIP3   OH258480   2.702   0.827   4.196 -0.1560 -0.3134 -0.2644
12330TIP3    H158481   2.753   0.748   4.178 -1.4906 -1.2499 -0.1026
12330TIP3    H258482   2.757   0.880   4.253  0.9971 -0.8553 -0.8468
12331TIP3   OH258483   1.605   5.456   4.276  0.2516 -0.3412 -0.2569
12331TIP3    H158484   1.519   5.476   4.313  1.7342  1.9026  2.4495
12331TIP3    H258485   1.618   5.363   4.294 -1.6857 -0.8096 -1.0502
12332TIP3   OH258486   1.103   4.854   5.748  0.6459 -0.0599 -0.1502
12332TIP3    H158487   1.027   4.831   5.694 -0.2989  2.2460  0.0879
12332TIP3    H258488   1.066   4.891   5.828  1.9858  1.4320 -0.1692
12333TIP3   OH258489   4.790   6.825   1.711  0.1280 -0.0571  0.1951
12333TIP3    H158490   4.718   6.854   1.655 -0.6240  0.1126  1.2170
12333TIP3    H258491   4.750   6.764   1.772  1.1602 -1.1379 -0.1648
12334TIP3   OH258492   6.621   1.635  15.733  0.3910 -0.1644 -0.1703
12334TIP3    H158493   6.555   1.633  15.802  0.5217 -0.3417 -0.0524
12334TIP3    H258494   6.589   1.702  15.672 -1.4667 -2.2801 -1.6749
12335TIP3   OH258495   3.177   5.314  15.961 -0.6116 -0.1526  0.1507
12335TIP3    H158496   3.152   5.364  16.038 -0.6513 -0.2251  0.1848
12335TIP3    H258497   3.260   5.272  15.985  0.7269  1.8390 -0.7122
12336TIP3   OH258498   0.209   0.382  14.119 -0.1702  0.8241 -0.1155
12336TIP3    H158499   0.293   0.346  14.147  0.1082  1.6976  0.1765
12336TIP3    H258500   0.215   0.385  14.024 -0.5386 -0.7132 -0.2189
12337TIP3   OH258501   1.985   4.969   0.178  0.1299  0.4293  0.1522
12337TIP3    H158502   2.063   5.009   0.217  0.9760 -0.4409 -0.5742
12337TIP3    H258503   1.978   4.884   0.223  1.6401 -0.9915 -2.0506
12338TIP3   OH258504   4.758   5.201   3.179 -0.0143  0.1896  0.3642
12338TIP3    H158505   4.691   5.154   3.129  0.0047  1.3386 -0.7789
12338TIP3    H258506   4.830   5.139   3.186 -0.5320 -0.4545  0.1481
12339TIP3   OH258507   4.799   1.180   2.053  0.2817  0.1509 -0.0073
12339TIP3    H158508   4.724   1.229   2.021  0.8950  0.6735 -0.6712
12339TIP3    H258509   4.863   1.247   2.078 -0.0596 -0.2265  2.0932
12340TIP3   OH258510   3.270   2.692   1.233  0.2163 -0.1772  0.7663
12340TIP3    H158511   3.354   2.724   1.197 -0.1253 -1.1941 -1.0733
12340TIP3    H258512   3.239   2.764   1.287  1.7670  0.6623  0.6153
12341TIP3   OH258513   0.736   4.484   0.315 -0.4683  0.2114 -0.0018
12341TIP3    H158514   0.748   4.495   0.409 -3.0333  0.9838  0.3100
12341TIP3    H258515   0.679   4.557   0.289 -1.6952 -1.2567 -1.7000
12342TIP3   OH258516   0.144   5.189   2.976 -0.0937  0.0105  0.1229
12342TIP3    H158517   0.222   5.239   3.000 -0.1842 -0.1350  0.7319
12342TIP3    H258518   0.075   5.223   3.033 -0.7043  0.7696 -1.0213
12343TIP3   OH258519   3.262   2.059  16.289 -0.0240 -0.0525 -0.1167
12343TIP3    H158520   3.253   1.965  16.275 -0.5517 -0.2105  1.1463
12343TIP3    H258521   3.267   2.096  16.201 -2.1773 -1.0305 -0.7116
12344TIP3   OH258522   5.736   2.426  13.467  0.6495  0.4726  0.0698
12344TIP3    H158523   5.660   2.411  13.524 -0.2276  1.5917 -0.7512
12344TIP3    H258524   5.770   2.339  13.450 -0.6505 -0.0943  0.2180
12345TIP3   OH258525   3.592   0.747   0.562  0.0652  0.3472  0.1005
12345TIP3    H158526   3.680   0.761   0.526  0.5585  0.9048  1.4434
12345TIP3    H258527   3.600   0.770   0.654 -1.8015  1.6073  0.0053
12346TIP3   OH258528   2.610   6.209  10.858  0.0552 -0.4202 -0.3039
12346TIP3    H158529   2.561   6.287  10.831 -0.9419 -0.5582  1.0480
12346TIP3    H258530   2.605   6.151  10.782 -0.6548  0.1503 -0.7054
12347TIP3   OH258531   3.924   4.728   1.190  0.1178  0.1806  0.2416
12347TIP3    H158532   3.830   4.720   1.209  0.7995 -0.4415  4.2462
12347TIP3    H258533   3.958   4.639   1.199  1.4098  0.7407  1.2699
12348TIP3   OH258534   4.692   0.101  13.774  0.3619 -0.0196 -0.6643
12348TIP3    H158535   4.669   0.176  13.830  1.1039 -0.5255  0.3583
12348TIP3    H258536   4.770   0.130  13.727  0.4395 -0.0250 -0.5386
12349TIP3   OH258537   4.121   3.767  16.459 -0.5209  0.1397  0.2824
12349TIP3    H158538   4.198   3.766  16.402 -0.7141  0.0073  0.0195
12349TIP3    H258539   4.047   3.755  16.399 -0.8152  1.1335  0.4317
12350TIP3   OH258540   1.269   6.206   0.888 -0.1111 -0.6049 -0.7428
12350TIP3    H158541   1.349   6.241   0.848 -0.9405  1.9524 -0.3293
12350TIP3    H258542   1.210   6.190   0.814 -0.0587 -0.2052 -0.8706
12351TIP3   OH258543   4.127   1.057  11.039  0.0590  0.0725 -0.0378
12351TIP3    H158544   4.205   1.034  11.089  0.8108  1.4063 -0.5511
12351TIP3    H258545   4.112   0.981  10.982  0.6788 -0.4063  0.4277
12352TIP3   OH258546   2.206   0.307  10.708 -0.0961  0.0558 -0.3091
12352TIP3    H158547   2.232   0.383  10.656 -1.0346  1.6882  1.4845
12352TIP3    H258548   2.274   0.242  10.690  0.1794  0.9046 -2.7150
12353TIP3   OH258549   3.664   4.847  14.516  0.1492 -0.4187 -0.0912
12353TIP3    H158550   3.688   4.864  14.424 -1.3412 -2.3253 -0.8968
12353TIP3    H258551   3.720   4.773  14.541 -1.8099 -2.1736 -0.6482
12354TIP3   OH258552   0.222   4.363  13.743 -0.2700  0.2014 -0.0150
12354TIP3    H158553   0.172   4.289  13.777 -0.7835  0.6100  0.1230
12354TIP3    H258554   0.169   4.396  13.670 -1.2860  1.9402  1.4110
12355TIP3   OH258555   6.001   1.589   2.116 -0.2653 -0.0540  0.5408
12355TIP3    H158556   5.960   1.643   2.184 -1.7813 -0.7582  0.2199
12355TIP3    H258557   6.072   1.544   2.162 -0.8503 -0.0266  1.5126
12356TIP3   OH258558   3.952   1.643  12.954 -0.1187 -0.1315 -0.3414
12356TIP3    H158559   3.981   1.588  13.026 -1.7805  0.2251  0.6481
12356TIP3    H258560   3.905   1.584  12.895 -0.8389 -0.0031  0.0977
12357TIP3   OH258561   6.420   1.376   1.367 -0.0895 -0.4775 -0.5564
12357TIP3    H158562   6.447   1.468   1.361  0.6452 -0.7600 -1.8842
12357TIP3    H258563   6.330   1.380   1.399  0.4317  0.6266  0.8588
12358TIP3   OH258564   4.814   4.422  10.913 -0.3539 -0.1627  0.0893
12358TIP3    H158565   4.825   4.498  10.855 -0.4522  0.5530  0.9877
12358TIP3    H258566   4.720   4.416  10.928 -0.2374  0.4655  1.1983
12359TIP3   OH258567   6.742   2.854   4.379  0.3874  0.1058  0.1161
12359TIP3    H158568   6.734   2.802   4.299 -2.3596 -1.5160  1.2785
12359TIP3    H258569   6.814   2.813   4.428 -0.6909 -1.6948  0.2896
12360TIP3   OH258570   5.812   0.417  12.197  0.0485 -0.3063  0.5909
12360TIP3    H158571   5.767   0.491  12.157 -0.1136 -0.7461 -0.0584
12360TIP3    H258572   5.854   0.372  12.124  1.4244  0.0077  1.1670
12361TIP3   OH258573   3.187   2.628   0.963 -0.3098 -0.1420 -0.0127
12361TIP3    H158574   3.233   2.692   0.910 -0.8085 -0.5502 -0.9744
12361TIP3    H258575   3.227   2.634   1.050 -1.8302  3.0523  0.6012
12362TIP3   OH258576   3.408   0.284   0.124  0.3781  0.2669 -0.3169
12362TIP3    H158577   3.356   0.204   0.123  0.4302  0.1812  1.1597
12362TIP3    H258578   3.372   0.338   0.055  2.6470 -2.4131 -3.9637
12363TIP3   OH258579   6.393   3.243  13.059  0.5843  0.5068 -0.1927
12363TIP3    H158580   6.348   3.214  12.979  1.2894  1.6432 -1.0342
12363TIP3    H258581   6.447   3.317  13.031  0.0378  1.6293  1.5524
12364TIP3   OH258582   3.056   2.772   2.999  0.6317 -0.2818 -0.2396
12364TIP3    H158583   3.043   2.856   3.041 -0.5086 -0.6137  0.0994
12364TIP3    H258584   3.107   2.792   2.920  0.5893  0.6775 -0.0290
12365TIP3   OH258585   0.351   0.436   2.160  0.4758 -0.3634  0.0187
12365TIP3    H158586   0.339   0.462   2.068 -0.0807 -0.6958 -0.0021
12365TIP3    H258587   0.393   0.512   2.200 -0.2031  0.1812 -0.2824
12366TIP3   OH258588   2.196   3.504   3.082  0.2385 -0.3609  0.4340
12366TIP3    H158589   2.139   3.577   3.058 -0.1714 -0.1994  1.8133
12366TIP3    H258590   2.208   3.513   3.177  2.2348 -0.6362  0.2334
12367TIP3   OH258591   0.403   6.758   4.256 -0.0537  0.0609  0.1566
12367TIP3    H158592   0.329   6.700   4.278 -0.4990  0.7095  0.3943
12367TIP3    H258593   0.475   6.698   4.239 -0.9295 -0.6482 -1.2370
12368TIP3   OH258594   1.078   0.060  13.328 -0.0682  0.3617  0.3111
12368TIP3    H158595   1.109   0.010  13.253 -0.1149 -0.8481  1.0650
12368TIP3    H258596   1.151   0.060  13.389 -0.8724 -0.8705  1.3114
12369TIP3   OH258597   4.157   5.080  10.748  0.6174 -0.1042  0.1969
12369TIP3    H158598   4.226   5.127  10.701 -0.5034  0.5506 -0.8492
12369TIP3    H258599   4.184   5.083  10.840  1.2292  1.4510 -0.0032
12370TIP3   OH258600   5.542   5.820   2.813  0.1942 -0.0842  0.1461
12370TIP3    H158601   5.474   5.776   2.761  0.3637  0.8291 -0.9107
12370TIP3    H258602   5.619   5.765   2.804  0.3365  0.2680 -0.9491
12371TIP3   OH258603   1.365   0.356   3.885  0.0675  0.3154 -0.0897
12371TIP3    H158604   1.395   0.383   3.972  0.7836  4.8345 -1.4410
12371TIP3    H258605   1.269   0.357   3.891  0.1012  1.4643  0.4810
12372TIP3   OH258606   1.356   1.015  12.094  0.5763 -0.5284  0.5815
12372TIP3    H158607   1.388   0.949  12.156 -0.3994  0.9456  2.7898
12372TIP3    H258608   1.262   0.997  12.086  0.5979 -0.3831 -0.0827
12373TIP3   OH258609   1.718   2.305  14.570 -0.6978  0.2067  0.6722
12373TIP3    H158610   1.755   2.273  14.488  0.8912  0.4790  1.2485
12373TIP3    H258611   1.721   2.230  14.629  0.0772  0.5507  1.0822
12374TIP3   OH258612   6.367   2.868  11.552  0.0741  0.6431  0.3405
12374TIP3    H158613   6.316   2.945  11.575  2.2760  2.1515  0.3764
12374TIP3    H258614   6.416   2.894  11.474  0.1913 -1.0273 -0.1797
12375TIP3   OH258615   1.895   6.588   5.456  0.3737 -0.7544  1.0655
12375TIP3    H158616   1.975   6.586   5.403 -0.3064  1.0421 -0.1260
12375TIP3    H258617   1.901   6.669   5.506 -2.0483  1.1567 -1.4308
12376TIP3   OH258618   0.402   6.292   3.783 -0.4254  0.3836 -0.1076
12376TIP3    H158619   0.324   6.243   3.756  0.6081 -0.7266 -1.2135
12376TIP3    H258620   0.411   6.360   3.716  0.2286 -0.2611 -0.6930
12377TIP3   OH258621   6.345   2.604   2.427 -0.0640 -0.0534  0.0755
12377TIP3    H158622   6.258   2.564   2.427 -0.2810  0.3180  2.2665
12377TIP3    H258623   6.340   2.673   2.492  1.7616  0.2704 -0.0746
12378TIP3   OH258624   3.074   4.814  13.071  0.5390  0.3902 -0.2013
12378TIP3    H158625   3.083   4.840  12.979  0.2916 -2.8756 -1.2807
12378TIP3    H258626   2.985   4.781  13.078  1.2600 -1.5476  0.5218
12379TIP3   OH258627   2.410   0.963   3.158 -0.1238  0.3200  0.5310
12379TIP3    H158628   2.498   0.998   3.148  0.4926 -1.3609 -0.2437
12379TIP3    H258629   2.412   0.918   3.243  0.1970 -0.8537 -0.0812
12380TIP3   OH258630   2.571   3.160   2.869  0.7953 -0.0926 -0.0358
12380TIP3    H158631   2.506   3.227   2.848  1.1605  0.8041  1.5294
12380TIP3    H258632   2.644   3.209   2.907  1.6668 -1.2509 -0.1776
12381TIP3   OH258633   4.437   0.621  13.208 -0.1815  0.2552  0.1552
12381TIP3    H158634   4.379   0.646  13.137 -1.5187 -2.1309  0.3163
12381TIP3    H258635   4.402   0.665  13.285 -0.8546  0.0902 -0.0488
12382TIP3   OH258636   3.765   1.350  12.184 -0.1029  0.4942  0.0447
12382TIP3    H158637   3.856   1.377  12.189  0.1144 -0.2290  0.0634
12382TIP3    H258638   3.756   1.282  12.250 -0.4666  0.0379 -0.4593
12383TIP3   OH258639   0.862   0.645  14.900 -0.0443  0.4192  0.4940
12383TIP3    H158640   0.935   0.590  14.926  1.1033  1.4902 -0.3475
12383TIP3    H258641   0.820   0.597  14.828 -2.5712 -2.0279  3.3395
12384TIP3   OH258642   2.183   6.452  11.875 -0.6849  0.6066 -0.4054
12384TIP3    H158643   2.271   6.474  11.845 -0.3602 -1.2783 -0.9377
12384TIP3    H258644   2.130   6.446  11.796 -0.6201 -0.9906 -0.3661
12385TIP3   OH258645   6.781   2.099   6.142 -0.2298  0.5613 -0.4797
12385TIP3    H158646   6.831   2.180   6.149 -0.7777  0.9070 -0.4889
12385TIP3    H258647   6.715   2.105   6.211 -0.1083  0.0012 -0.3110
12386TIP3   OH258648   1.830   6.375  15.956  0.2359  0.4052  0.1262
12386TIP3    H158649   1.891   6.349  16.024 -0.7663  0.4790  1.0949
12386TIP3    H258650   1.744   6.349  15.990 -0.6527  3.2730  0.3609
12387TIP3   OH258651   1.666   5.635   3.484  0.3943  0.3023  0.2200
12387TIP3    H158652   1.634   5.709   3.434  0.8997 -0.8659 -1.9769
12387TIP3    H258653   1.587   5.593   3.518 -0.0008  0.8984  0.0532
12388TIP3   OH258654   2.621   6.157   0.864  0.2488 -0.0388  0.0365
12388TIP3    H158655   2.593   6.106   0.788  0.2191 -1.6717  1.0895
12388TIP3    H258656   2.695   6.108   0.901  1.5695  1.7659 -0.0395
12389TIP3   OH258657   3.960   1.940   4.196  0.4548  0.2041 -0.1446
12389TIP3    H158658   3.880   1.959   4.245 -0.4180 -0.9803 -1.0236
12389TIP3    H258659   4.031   1.967   4.254 -0.5458 -0.3244  1.4068
12390TIP3   OH258660   1.140   2.080  15.467  0.7958  0.3980 -0.2435
12390TIP3    H158661   1.067   2.102  15.525 -0.5633 -0.0658 -1.7073
12390TIP3    H258662   1.194   2.019  15.518 -1.2466 -1.3173  0.0016
12391TIP3   OH258663   0.617   0.178  16.756  0.5849 -0.5881 -0.1159
12391TIP3    H158664   0.568   0.116  16.810 -3.1653  0.8468 -1.4936
12391TIP3    H258665   0.614   0.260  16.804  0.9279 -0.2843 -0.6021
12392TIP3   OH258666   0.876   5.378  16.553 -0.2005  0.3154 -0.0789
12392TIP3    H158667   0.911   5.462  16.524 -0.6543  0.8362  0.8238
12392TIP3    H258668   0.783   5.396  16.572 -0.4988 -0.5770 -0.6309
12393TIP3   OH258669   3.888   2.286  11.139  0.2305 -0.1943  0.0876
12393TIP3    H158670   3.956   2.314  11.077 -0.0787  0.8331  0.2009
12393TIP3    H258671   3.931   2.217  11.191  1.5434  1.1395  0.8354
12394TIP3   OH258672   5.145   6.176  14.380  0.9786 -0.1901  0.3825
12394TIP3    H158673   5.084   6.242  14.348  0.9187  0.8482  2.4712
12394TIP3    H258674   5.184   6.215  14.458  3.2876 -1.3998 -0.0754
12395TIP3   OH258675   6.529   4.448  15.280  0.0306  0.1719 -0.5708
12395TIP3    H158676   6.491   4.405  15.357  1.4550 -0.2074 -0.0432
12395TIP3    H258677   6.472   4.424  15.208 -2.3223  1.8912  0.5911
12396TIP3   OH258678   5.356   0.794  13.456 -0.1048  0.6869 -0.3607
12396TIP3    H158679   5.261   0.787  13.443  0.1363  2.0154 -4.5145
12396TIP3    H258680   5.381   0.710  13.494 -2.7234 -0.5444 -1.0762
12397TIP3   OH258681   3.260   0.615   4.422  0.0852 -0.6636 -0.0698
12397TIP3    H158682   3.312   0.577   4.492  1.3599  0.3986 -0.4180
12397TIP3    H258683   3.199   0.673   4.467  2.1315  1.4669  0.1065
12398TIP3   OH258684   5.950   5.649   0.569 -0.3287  0.4030 -0.4258
12398TIP3    H158685   5.930   5.587   0.499  1.4550  0.2282 -0.8261
12398TIP3    H258686   5.983   5.594   0.641  1.2008  0.8408 -0.7615
12399TIP3   OH258687   2.870   5.040  10.927 -0.1007  0.0842  0.4804
12399TIP3    H158688   2.835   5.074  10.845  0.5400 -1.7455 -0.5900
12399TIP3    H258689   2.950   4.994  10.902  1.6718  1.8078  2.4977
12400TIP3   OH258690   5.178   4.659  14.950 -0.0669  0.5831  0.0754
12400TIP3    H158691   5.138   4.738  14.987 -0.1782  1.7695 -2.3586
12400TIP3    H258692   5.270   4.682  14.936 -0.0041  0.1437 -0.2758
12401TIP3   OH258693   5.081   6.237   2.036  0.1498 -0.3929 -0.7601
12401TIP3    H158694   5.170   6.236   2.000  0.3536 -3.8390 -0.4802
12401TIP3    H258695   5.033   6.297   1.980  2.4002  0.8315 -1.5146
12402TIP3   OH258696   2.656   6.168  12.781  0.4000 -0.1409 -0.4566
12402TIP3    H158697   2.711   6.090  12.777 -0.8505 -1.0477 -0.7585
12402TIP3    H258698   2.620   6.168  12.870  0.5296  0.1882 -0.4030
12403TIP3   OH258699   3.701   1.370   5.297 -0.2083  0.4201  0.2920
12403TIP3    H158700   3.652   1.307   5.244  0.6452  0.3053 -0.3781
12403TIP3    H258701   3.669   1.456   5.267  1.5666  0.4406 -1.7916
12404TIP3   OH258702   2.476   6.193   4.119  0.2866 -0.1960 -0.1542
12404TIP3    H158703   2.503   6.228   4.034  1.3412 -1.6415 -0.4522
12404TIP3    H258704   2.443   6.269   4.167  1.7003  1.0633 -1.0807
12405TIP3   OH258705   5.833   4.584   6.719 -0.1600 -0.4541  0.2950
12405TIP3    H158706   5.848   4.510   6.778 -0.5816 -0.5265  0.3155
12405TIP3    H258707   5.770   4.551   6.655  2.1075 -1.1872 -1.7092
12406TIP3   OH258708   6.238   2.945   6.113 -0.5033  0.6921 -0.2469
12406TIP3    H158709   6.209   2.884   6.181 -1.6316  1.2639 -0.1890
12406TIP3    H258710   6.158   2.967   6.066 -0.2010  2.4527  0.0092
12407TIP3   OH258711   5.802   2.377  12.798 -0.1632 -0.2850  0.4150
12407TIP3    H158712   5.740   2.390  12.726 -0.8159  0.6743  1.1301
12407TIP3    H258713   5.884   2.353  12.755  0.3962  3.4367 -0.9482
12408TIP3   OH258714   4.462   4.376  15.043  0.2340 -0.0358  0.1856
12408TIP3    H158715   4.554   4.350  15.055 -0.0955 -0.5811  1.8214
12408TIP3    H258716   4.413   4.297  15.063 -0.6431  0.6829  0.9523
12409TIP3   OH258717   0.568   0.605  13.837 -0.1302 -0.3434  0.3305
12409TIP3    H158718   0.552   0.697  13.858 -0.7789 -0.4789  0.4257
12409TIP3    H258719   0.519   0.589  13.757  1.3758 -0.1539 -0.6730
12410TIP3   OH258720   1.197   4.785   1.704  0.4603 -0.4649  0.2818
12410TIP3    H158721   1.124   4.730   1.732  0.7791 -1.2323 -0.3494
12410TIP3    H258722   1.199   4.857   1.767  0.3080 -1.4130  1.3963
12411TIP3   OH258723   6.200   3.588   6.227  0.4314 -0.7320  0.0844
12411TIP3    H158724   6.196   3.672   6.181  1.3435 -1.4285 -1.3327
12411TIP3    H258725   6.264   3.602   6.297 -0.1626  0.0226  0.4991
12412TIP3   OH258726   3.947   1.050   1.002 -0.5220  0.2862  0.1119
12412TIP3    H158727   3.885   1.070   0.932  2.0101  0.8910 -2.1693
12412TIP3    H258728   3.960   1.134   1.046  1.6846  1.2840 -2.1744
12413TIP3   OH258729   1.281   1.208  12.880  0.2357  0.4174 -0.7860
12413TIP3    H158730   1.226   1.143  12.923  1.2174  0.3382  0.3974
12413TIP3    H258731   1.295   1.275  12.946  1.6604  0.3593 -0.9992
12414TIP3   OH258732   3.244   1.785   5.162 -0.2457 -0.3659 -0.0012
12414TIP3    H158733   3.170   1.817   5.215 -0.7016 -1.8523  0.3001
12414TIP3    H258734   3.309   1.756   5.227  0.8536  1.3494 -0.2527
12415TIP3   OH258735   3.008   6.385   2.429  0.2122 -0.1001  0.1292
12415TIP3    H158736   2.915   6.407   2.421  0.4011  0.1612 -1.5231
12415TIP3    H258737   3.031   6.345   2.346  2.1413  1.9658 -0.4242
12416TIP3   OH258738   1.440   2.919  15.946  1.0802  0.0136  0.1351
12416TIP3    H158739   1.463   2.889  16.034 -1.6315 -0.1262  0.8878
12416TIP3    H258740   1.390   2.999  15.960  0.4264 -0.1143 -1.2589
12417TIP3   OH258741   5.795   2.347   3.641 -0.1682  0.0955 -0.1826
12417TIP3    H158742   5.849   2.410   3.592 -0.5587  0.7368  0.2044
12417TIP3    H258743   5.858   2.299   3.695 -0.0815  1.7032  1.2307
12418TIP3   OH258744   2.881   6.536  15.145  0.2068 -0.3674  0.6686
12418TIP3    H158745   2.921   6.479  15.080  0.2222 -0.2433  0.5674
12418TIP3    H258746   2.936   6.615  15.145  0.1386 -0.3197  0.7460
12419TIP3   OH258747   3.113   0.846  12.974  0.4599  0.0541  0.5833
12419TIP3    H158748   3.024   0.873  12.998  1.2696  2.2868  1.3618
12419TIP3    H258749   3.159   0.928  12.956  2.4690 -1.0071  0.5876
12420TIP3   OH258750   3.026   3.852   2.718 -0.6724 -0.1017 -0.5359
12420TIP3    H158751   3.007   3.797   2.641 -1.0150 -1.0839  0.2245
12420TIP3    H258752   2.940   3.869   2.756 -0.7360  2.2694 -1.5762
12421TIP3   OH258753   0.975   3.909   3.146  0.1530 -0.0553  0.2562
12421TIP3    H158754   0.967   3.886   3.054 -0.1218 -1.5882  0.6376
12421TIP3    H258755   0.947   3.830   3.193 -1.7455  1.3658  1.6578
12422TIP3   OH258756   1.619   4.548   5.578 -0.1314  0.0494 -0.2874
12422TIP3    H158757   1.614   4.466   5.627 -0.4126 -0.2483 -0.8078
12422TIP3    H258758   1.564   4.609   5.627  1.0325  0.2958  0.7818
12423TIP3   OH258759   4.686   5.600  11.896 -0.1397  0.0355 -0.2674
12423TIP3    H158760   4.649   5.574  11.812 -1.4145 -0.0827  0.3062
12423TIP3    H258761   4.612   5.602  11.956  0.9476 -1.5300  1.2604
12424TIP3   OH258762   0.621   6.581  12.148  0.0052  0.2405  0.2301
12424TIP3    H158763   0.634   6.638  12.224 -1.3336 -1.2974  1.7057
12424TIP3    H258764   0.531   6.598  12.120 -0.8583 -1.9130  1.4670
12425TIP3   OH258765   4.173   3.413  13.538 -0.0273 -0.0563  0.8116
12425TIP3    H158766   4.202   3.420  13.629 -1.5507 -0.3557  1.3619
12425TIP3    H258767   4.100   3.475  13.532 -0.2560 -0.4017 -0.0717
12426TIP3   OH258768   0.427   5.579   0.276  0.1997  0.4558  0.2138
12426TIP3    H158769   0.445   5.586   0.182  2.0916  2.4984  0.6598
12426TIP3    H258770   0.449   5.489   0.298  1.5045  0.4463 -0.9954
12427TIP3   OH258771   0.179   4.915  16.793 -0.0624  0.2891  0.0684
12427TIP3    H158772   0.191   4.903  16.699  1.9258 -1.2372  0.4619
12427TIP3    H258773   0.182   4.827  16.829 -0.2369  0.8934  1.6400
12428TIP3   OH258774   3.537   1.028  17.226 -0.0824  0.2472 -0.3749
12428TIP3    H158775   3.458   1.080  17.242  0.4837  0.6092  1.5248
12428TIP3    H258776   3.511   0.938  17.248 -0.3662  0.1067 -1.2402
12429TIP3   OH258777   5.037   2.332   1.987  0.1980 -0.0430 -0.2597
12429TIP3    H158778   5.038   2.245   2.026 -0.6961 -1.0220 -2.2499
12429TIP3    H258779   4.950   2.367   2.005 -0.1035 -0.3649 -1.0312
12430TIP3   OH258780   3.926   4.930   0.946  0.5787  0.5455  0.0925
12430TIP3    H158781   3.910   4.875   1.023 -0.0559  0.7358  0.1016
12430TIP3    H258782   4.020   4.947   0.947  0.5976  0.4044  0.7286
12431TIP3   OH258783   1.505   1.708  13.327 -0.2180  0.0447  0.8649
12431TIP3    H158784   1.549   1.629  13.361  0.5756  0.1788  0.1782
12431TIP3    H258785   1.418   1.705  13.367  0.4254 -0.1872  2.3330
12432TIP3   OH258786   3.096   2.112  15.670 -0.0395 -0.1210  0.4450
12432TIP3    H158787   3.044   2.090  15.593  0.5736  0.3518 -0.1105
12432TIP3    H258788   3.038   2.094  15.744 -0.8272 -0.0457 -0.1447
12433TIP3   OH258789   3.173   5.081   0.900  0.3382 -0.1484 -0.0811
12433TIP3    H158790   3.107   5.048   0.961  0.9469 -0.1037  0.6080
12433TIP3    H258791   3.153   5.037   0.817 -1.2127  0.6742 -0.1727
12434TIP3   OH258792   3.716   2.220   6.307 -0.0344  0.3548  0.4753
12434TIP3    H158793   3.661   2.259   6.239  0.4700 -1.1857 -0.8775
12434TIP3    H258794   3.756   2.295   6.352 -1.1543  1.4249 -0.2605
12435TIP3   OH258795   0.670   1.306   3.291  0.4277  0.1280 -0.2376
12435TIP3    H158796   0.655   1.362   3.214  0.6063 -0.1780 -0.4963
12435TIP3    H258797   0.590   1.254   3.298  0.5270 -0.0453 -0.3867
12436TIP3   OH258798   1.363   0.641   3.942  0.0062 -0.1192 -0.8080
12436TIP3    H158799   1.369   0.731   3.909  0.4556 -0.6312 -2.1906
12436TIP3    H258800   1.392   0.587   3.869 -0.2612 -1.3991  0.0061
12437TIP3   OH258801   2.761   1.648   0.424  0.7732 -0.6825  0.3009
12437TIP3    H158802   2.683   1.679   0.470  0.8967 -0.8081  0.5929
12437TIP3    H258803   2.743   1.668   0.332  0.6442 -0.1822  0.4310
12438TIP3   OH258804   2.265   0.714   6.243 -0.0349 -0.0160 -0.1870
12438TIP3    H158805   2.282   0.674   6.158 -1.9947 -0.7420 -0.2972
12438TIP3    H258806   2.172   0.740   6.238 -0.3214 -0.5091  1.8899
12439TIP3   OH258807   4.475   1.548  13.648 -0.9363 -0.1794  0.1780
12439TIP3    H158808   4.436   1.635  13.637  0.5817  0.4728 -0.2499
12439TIP3    H258809   4.486   1.515  13.559  1.0816  0.4012  0.1777
12440TIP3   OH258810   5.578   0.613   2.914 -0.3743  0.1641  0.2778
12440TIP3    H158811   5.662   0.632   2.957  0.1013 -0.4049 -0.3704
12440TIP3    H258812   5.602   0.598   2.822 -1.2677  0.5793 -0.0256
12441TIP3   OH258813   5.170   0.186  13.392 -0.0906 -0.2689  0.0643
12441TIP3    H158814   5.090   0.153  13.351  0.7047 -1.0892 -0.8823
12441TIP3    H258815   5.222   0.107  13.409  1.5051  0.3988 -1.4813
12442TIP3   OH258816   0.102   6.218  16.595  0.3825  0.1131  0.1205
12442TIP3    H158817   0.122   6.126  16.579  0.1950 -0.0323  0.7093
12442TIP3    H258818   0.186   6.257  16.621  0.8822  0.5393 -1.9480
12443TIP3   OH258819   5.714   4.359  12.609  0.3273 -0.3459  0.6405
12443TIP3    H158820   5.770   4.414  12.663  0.3662 -0.4442  0.6992
12443TIP3    H258821   5.774   4.310  12.553  0.2175  1.8217 -1.5234
12444TIP3   OH258822   4.681   1.607   0.513 -0.4377  0.4032 -0.1681
12444TIP3    H158823   4.738   1.541   0.473  1.5113  0.8507  1.7273
12444TIP3    H258824   4.605   1.557   0.544 -1.1811 -0.2089 -2.7260
12445TIP3   OH258825   3.233   2.459   0.426  0.1859  0.2447  0.7339
12445TIP3    H158826   3.174   2.392   0.462 -1.0633  0.4068 -0.8944
12445TIP3    H258827   3.183   2.498   0.354  2.1420  0.7054 -0.4272
12446TIP3   OH258828   2.911   2.811   0.841  0.0043 -0.3130 -0.0353
12446TIP3    H158829   2.934   2.904   0.850  0.3439 -0.3916 -0.0699
12446TIP3    H258830   2.893   2.800   0.747  1.7269 -0.6649 -0.3738
12447TIP3   OH258831   1.722   6.787  12.992  0.4440  0.6343  0.1346
12447TIP3    H158832   1.650   6.830  13.039  1.1822  1.3913  0.6079
12447TIP3    H258833   1.688   6.700  12.969  1.0605 -1.2274  5.0418
12448TIP3   OH258834   0.991   4.932   3.966  0.1655  0.2467 -0.3531
12448TIP3    H158835   0.999   4.837   3.973 -1.9065 -0.0997 -1.6516
12448TIP3    H258836   0.955   4.959   4.050  0.3208 -0.1745 -0.1472
12449TIP3   OH258837   6.615   3.619  14.069 -0.0088 -0.4654  0.1896
12449TIP3    H158838   6.684   3.667  14.023  1.5411 -2.6189  0.0452
12449TIP3    H258839   6.574   3.566  14.001  0.1023 -1.2526  0.7206
12450TIP3   OH258840   5.966   3.575   3.143  0.3652  0.3870  0.3596
12450TIP3    H158841   5.930   3.551   3.228  0.6595 -0.5436  0.2267
12450TIP3    H258842   6.054   3.536   3.142  0.7315  1.1946  0.0066
12451TIP3   OH258843   4.920   5.030   3.807 -0.5795  0.5756 -0.3569
12451TIP3    H158844   4.992   5.087   3.780  0.1032  0.2019  0.6017
12451TIP3    H258845   4.848   5.053   3.749 -0.0288  1.7482 -0.6078
12452TIP3   OH258846   4.944   2.816  16.054  0.3696  0.1249  0.0739
12452TIP3    H158847   4.956   2.770  16.137 -0.8475 -1.0640 -0.3655
12452TIP3    H258848   4.879   2.884  16.073 -1.2961 -1.3081 -0.2606
12453TIP3   OH258849   2.912   2.574  13.455  0.0788 -0.2747  0.4100
12453TIP3    H158850   2.889   2.506  13.392  0.1042  0.8117 -0.8261
12453TIP3    H258851   2.990   2.615  13.418  0.1042  0.3768  1.1642
12454TIP3   OH258852   1.803   6.226  15.489 -0.1144  0.1532 -0.0727
12454TIP3    H158853   1.823   6.242  15.581  0.9396 -0.8137 -0.1065
12454TIP3    H258854   1.855   6.149  15.466  0.8767  1.2813 -1.8855
12455TIP3   OH258855   2.629   1.919  16.412 -0.5877  0.5748  0.1652
12455TIP3    H158856   2.613   1.835  16.367  1.6367  1.8688 -3.5215
12455TIP3    H258857   2.596   1.985  16.351  1.7857  2.4992  0.8190
12456TIP3   OH258858   5.062   1.141   5.331  0.2573  0.0393  0.3794
12456TIP3    H158859   5.042   1.203   5.260  1.8296  0.8455  0.6007
12456TIP3    H258860   4.989   1.150   5.392 -0.3165  0.5167 -0.3565
12457TIP3   OH258861   6.598   6.731   1.161 -0.0286 -0.0174 -0.0213
12457TIP3    H158862   6.582   6.730   1.067  1.4856  3.5625 -0.4864
12457TIP3    H258863   6.688   6.699   1.170 -0.7979 -2.2213  0.5299
12458TIP3   OH258864   2.270   1.577  14.315  0.6440  0.0820 -0.0250
12458TIP3    H158865   2.293   1.668  14.298 -2.8188  1.1671  0.3890
12458TIP3    H258866   2.220   1.549  14.238 -0.6866 -0.4989  1.0023
12459TIP3   OH258867   6.772   4.170  11.338  0.1680 -0.3512 -0.0530
12459TIP3    H158868   6.730   4.186  11.254 -0.7955 -4.2163 -0.4884
12459TIP3    H258869   6.703   4.132  11.392  1.5269 -0.7589  1.4608
12460TIP3   OH258870   1.673   6.484   2.724  0.3293 -0.2839  0.1711
12460TIP3    H158871   1.620   6.537   2.664 -0.0670  0.9480  1.5423
12460TIP3    H258872   1.611   6.421   2.761  0.5014 -0.8215 -0.4346
12461TIP3   OH258873   0.045   5.859  14.648  0.5648  0.2316 -0.3657
12461TIP3    H158874   0.040   5.764  14.641  1.3100  0.1994 -0.5504
12461TIP3    H258875   0.136   5.876  14.674 -0.1830  0.7525  2.2386
12462TIP3   OH258876   4.225   1.834  13.173 -0.2725  0.4573 -0.1004
12462TIP3    H158877   4.299   1.790  13.215 -0.9491  0.1646  0.8122
12462TIP3    H258878   4.248   1.836  13.080  0.8892  0.3942  0.1714
12463TIP3   OH258879   3.474   1.622  13.468  0.2149 -0.5275  0.2726
12463TIP3    H158880   3.555   1.604  13.516  0.0411 -0.1417  0.7180
12463TIP3    H258881   3.484   1.573  13.386  1.8116  1.1645 -0.6098
12464TIP3   OH258882   1.614   5.778  14.047 -0.5021  0.1859 -1.0254
12464TIP3    H158883   1.579   5.692  14.070  0.0646  0.6942  2.2016
12464TIP3    H258884   1.550   5.840  14.082  0.1579  1.0874 -1.3789
12465TIP3   OH258885   2.558   6.812   5.141  0.1901  0.4658  0.2081
12465TIP3    H158886   2.565   6.718   5.124 -0.9039  0.1436  1.4368
12465TIP3    H258887   2.530   6.849   5.057 -1.5500 -0.6162  0.2716
12466TIP3   OH258888   4.300   3.638  10.403  0.1180  0.4238  0.4802
12466TIP3    H158889   4.267   3.579  10.335 -1.4637 -2.0554  3.2282
12466TIP3    H258890   4.387   3.603  10.424  0.6815  1.2972 -0.2757
12467TIP3   OH258891   4.500   0.797  16.050  0.0750 -0.5207 -0.5455
12467TIP3    H158892   4.575   0.750  16.011 -0.4243 -0.5897 -1.4526
12467TIP3    H258893   4.519   0.889  16.034  2.1801 -0.1188  3.2149
12468TIP3   OH258894   2.148   6.398  13.307 -0.2907 -0.2686  0.2416
12468TIP3    H158895   2.106   6.419  13.391 -0.2135  0.2518  0.1499
12468TIP3    H258896   2.085   6.343  13.261 -1.3275  1.3587 -0.3378
12469TIP3   OH258897   6.770   4.665  16.865  0.5809  0.3861  0.0227
12469TIP3    H158898   6.730   4.680  16.950 -0.1923 -1.6558  0.0842
12469TIP3    H258899   6.696   4.642  16.808  1.3677 -1.0763 -0.4640
12470TIP3   OH258900   5.112   0.761   3.359 -0.4079 -0.4829  0.2040
12470TIP3    H158901   5.122   0.834   3.298 -0.8448 -0.8057 -0.2687
12470TIP3    H258902   5.198   0.750   3.399 -0.3778  0.3886  0.3961
12471TIP3   OH258903   3.897   2.445   1.779 -0.1472 -0.2779 -0.2371
12471TIP3    H158904   3.941   2.367   1.744  0.2102 -0.4956  0.6568
12471TIP3    H258905   3.916   2.443   1.873 -0.5012  0.6550 -0.1312
12472TIP3   OH258906   6.644   0.732   5.029 -0.0967  0.3294 -0.3019
12472TIP3    H158907   6.555   0.698   5.024 -0.3602  0.4922  2.0880
12472TIP3    H258908   6.633   0.825   5.051  0.6786  0.6014 -0.9858
12473TIP3   OH258909   2.678   6.015   4.135 -0.0118 -0.0983  0.1802
12473TIP3    H158910   2.592   6.058   4.132  1.4129  2.9829 -0.2325
12473TIP3    H258911   2.695   5.989   4.045  0.0591  0.5530  0.0012
12474TIP3   OH258912   6.572   5.852  13.674 -0.2689 -0.2441  0.4173
12474TIP3    H158913   6.568   5.815  13.762 -0.0876  0.3638  0.6865
12474TIP3    H258914   6.568   5.947  13.687  0.0775 -0.1335 -0.2110
12475TIP3   OH258915   0.599   3.767   6.506 -0.2991 -0.1711  0.0131
12475TIP3    H158916   0.649   3.713   6.567  0.1602 -1.5105 -1.4748
12475TIP3    H258917   0.508   3.748   6.526 -0.1446 -1.2830 -0.2920
12476TIP3   OH258918   2.524   1.251  11.956  0.3370  0.6742 -0.0336
12476TIP3    H158919   2.481   1.243  11.871 -2.1832  1.2007  1.0743
12476TIP3    H258920   2.593   1.316  11.943  1.0527 -0.4251 -2.0020
12477TIP3   OH258921   0.712   0.783  11.890 -0.3480  0.1532 -0.2180
12477TIP3    H158922   0.707   0.770  11.985  0.4737 -1.4359 -0.3562
12477TIP3    H258923   0.805   0.798  11.874 -0.7201  2.3992 -0.5854
12478TIP3   OH258924   4.123   0.329   1.016  0.4774  0.6330 -0.4724
12478TIP3    H158925   4.098   0.377   1.095 -2.5048 -1.0525 -0.2618
12478TIP3    H258926   4.094   0.383   0.944  0.0831  0.6236 -0.3216
12479TIP3   OH258927   6.556   5.553  16.370  0.0588 -0.5229 -0.8066
12479TIP3    H158928   6.486   5.490  16.389 -0.6695 -0.0609 -1.8062
12479TIP3    H258929   6.527   5.634  16.412 -0.6795  0.0156 -2.2560
12480TIP3   OH258930   0.920   3.069  16.901  0.0141 -0.1085 -0.0387
12480TIP3    H158931   1.002   3.073  16.853  1.3375 -1.3066  1.9770
12480TIP3    H258932   0.853   3.085  16.835  1.7458 -1.0926 -2.1599
12481TIP3   OH258933   2.739   4.823   1.044  0.3934 -0.2046 -0.0788
12481TIP3    H158934   2.759   4.770   1.120  0.4624 -0.7076 -0.4406
12481TIP3    H258935   2.781   4.778   0.971 -2.0531 -1.3689 -0.8989
12482TIP3   OH258936   3.376   0.060  14.180 -0.3526 -0.2586  0.1412
12482TIP3    H158937   3.287   0.072  14.145 -0.3745 -1.1956 -0.1495
12482TIP3    H258938   3.422   0.013  14.111  0.3785  0.2236  0.2936
12483TIP3   OH258939   1.136   1.454  17.239 -0.7190 -0.1276 -0.3632
12483TIP3    H158940   1.069   1.458  17.307 -0.5576 -0.5739 -0.1776
12483TIP3    H258941   1.157   1.546  17.221  0.9873  0.0183  1.9346
12484TIP3   OH258942   5.561   5.655   2.161  0.5278 -0.6566  0.0577
12484TIP3    H158943   5.553   5.750   2.174  1.2805 -0.7976  1.7214
12484TIP3    H258944   5.478   5.629   2.121  0.2122  0.6579 -0.1857
12485TIP3   OH258945   1.193   1.815   1.638 -0.1891  0.6393 -0.3506
12485TIP3    H158946   1.142   1.831   1.717 -0.0798 -1.3478  0.1825
12485TIP3    H258947   1.134   1.767   1.580  0.1427  0.9454 -0.9555
12486TIP3   OH258948   4.795   5.604  16.207 -0.9601 -0.0195  0.1618
12486TIP3    H158949   4.795   5.667  16.279 -0.5773  1.0184 -0.7161
12486TIP3    H258950   4.775   5.520  16.248  1.3992  0.1381  1.8171
12487TIP3   OH258951   2.655   5.977   0.156  0.1463 -0.0226 -0.0251
12487TIP3    H158952   2.746   5.986   0.185 -0.0919  1.1349  0.3819
12487TIP3    H258953   2.635   6.060   0.114 -1.8180  1.1594  2.9632
12488TIP3   OH258954   1.498   2.679   1.843 -0.2786  0.4833  0.2861
12488TIP3    H158955   1.554   2.652   1.770 -0.0200  0.2933  0.5541
12488TIP3    H258956   1.537   2.761   1.874 -1.8051  1.9417 -1.3623
12489TIP3   OH258957   6.203   2.489   4.867 -0.5004  0.1126 -0.1707
12489TIP3    H158958   6.150   2.565   4.893 -0.8500  0.0056 -0.5586
12489TIP3    H258959   6.139   2.423   4.842 -0.1931  0.3400 -1.6830
12490TIP3   OH258960   5.075   1.874   3.565 -0.1295  0.1920 -0.5942
12490TIP3    H158961   5.011   1.803   3.576  2.0000 -1.8519 -0.5164
12490TIP3    H258962   5.069   1.924   3.646  0.2659 -1.6552  0.6410
12491TIP3   OH258963   6.639   2.569  13.047  0.2220  0.1012 -0.2061
12491TIP3    H158964   6.616   2.552  12.956 -1.2413  1.1494 -0.0820
12491TIP3    H258965   6.583   2.509  13.097  1.2207 -0.6718  0.0230
12492TIP3   OH258966   3.710   5.165   2.251  0.5915  0.3099 -0.1067
12492TIP3    H158967   3.690   5.117   2.171 -0.4951  1.1402 -0.3495
12492TIP3    H258968   3.803   5.187   2.243  0.8830 -0.9343 -0.4002
12493TIP3   OH258969   5.193   2.962  15.938 -0.2092  0.2340  0.1189
12493TIP3    H158970   5.250   2.908  15.993 -0.0530  0.6208  0.3381
12493TIP3    H258971   5.104   2.932  15.958 -0.2000  0.7440  1.0050
12494TIP3   OH258972   3.125   4.739   4.240  0.4669  0.3024 -0.0735
12494TIP3    H158973   3.032   4.758   4.230 -0.2523 -3.4200 -1.9722
12494TIP3    H258974   3.134   4.711   4.332 -0.6015 -0.6627 -0.2510
12495TIP3   OH258975   5.966   2.821  16.730 -0.2310 -0.3507 -0.0129
12495TIP3    H158976   6.041   2.778  16.689 -1.1593 -0.5930 -1.5336
12495TIP3    H258977   5.894   2.809  16.667 -1.0422  1.5959  0.4729
12496TIP3   OH258978   1.588   5.356   2.733 -0.0515 -0.0097 -0.2211
12496TIP3    H158979   1.663   5.352   2.673 -1.0106 -1.9210 -1.4348
12496TIP3    H258980   1.513   5.331   2.678 -1.0832 -1.1915  1.6172
12497TIP3   OH258981   5.730   1.379  13.404  0.0883 -0.1585  0.0197
12497TIP3    H158982   5.723   1.312  13.473 -0.1840 -2.2544 -1.9412
12497TIP3    H258983   5.642   1.384  13.367  0.9640 -1.8520 -2.5573
12498TIP3   OH258984   4.190   3.884   4.770  0.3026  0.0290  0.1271
12498TIP3    H158985   4.132   3.830   4.824 -0.1332 -1.0301 -1.3149
12498TIP3    H258986   4.147   3.969   4.766 -1.2510 -0.7480 -0.9491
12499TIP3   OH258987   4.091   3.884   3.189  0.4315  0.2048 -0.4246
12499TIP3    H158988   4.010   3.847   3.154  0.4968  0.2479 -0.6197
12499TIP3    H258989   4.137   3.809   3.228 -0.7725  0.5280  1.7936
12500TIP3   OH258990   3.443   3.912   5.452  0.7047  0.4287 -0.0057
12500TIP3    H158991   3.473   3.881   5.367  0.8312  0.2113  0.1194
12500TIP3    H258992   3.522   3.946   5.494  0.7067  0.2042  0.1709
12501TIP3   OH258993   3.707   2.034  15.694 -0.3008 -0.2217  0.7202
12501TIP3    H158994   3.720   2.083  15.613 -1.4174 -0.9857  0.0640
12501TIP3    H258995   3.787   2.051  15.745 -0.2784  1.5536  0.1592
12502TIP3   OH258996   6.226   6.340   5.911 -0.3326  0.0610  0.2637
12502TIP3    H158997   6.259   6.396   5.981 -0.4269  1.8419 -1.0346
12502TIP3    H258998   6.304   6.302   5.871 -0.2170 -0.0898  0.6248
12503TIP3   OH258999   0.459   0.161   2.666  0.3951  0.4492 -0.2337
12503TIP3    H159000   0.412   0.138   2.746 -0.6033  0.2251 -0.8669
12503TIP3    H259001   0.403   0.225   2.623 -0.5330 -1.5264 -2.1654
12504TIP3   OH259002   1.671   3.030  12.737 -0.4087 -0.0660 -0.2702
12504TIP3    H159003   1.747   3.073  12.777 -0.4756 -0.7733  0.6265
12504TIP3    H259004   1.702   3.003  12.650  0.6865 -1.2271  0.4572
12505TIP3   OH259005   2.267   6.339  12.899  0.1429  0.2585  0.0701
12505TIP3    H159006   2.280   6.258  12.948  1.3644 -0.5111 -1.4239
12505TIP3    H259007   2.274   6.409  12.964 -2.8093 -0.8325  1.7550
12506TIP3   OH259008   0.376   0.964   2.197 -0.8819  0.1493  0.8580
12506TIP3    H159009   0.380   1.047   2.150 -2.8629 -0.2187 -0.0357
12506TIP3    H259010   0.329   0.905   2.139  0.0255 -1.4803  1.7008
12507TIP3   OH259011   0.617   6.303   0.306  0.3687 -0.4022 -0.1166
12507TIP3    H159012   0.702   6.325   0.342 -0.1390 -0.3020  1.0471
12507TIP3    H259013   0.559   6.373   0.337  0.0643  0.1748 -1.8273
12508TIP3   OH259014   3.120   1.143  12.212  0.6680  0.1352  0.2759
12508TIP3    H159015   3.186   1.086  12.252 -0.4494 -0.2241  1.7028
12508TIP3    H259016   3.138   1.230  12.250  0.4517  0.0752  0.5210
12509TIP3   OH259017   5.589   1.246  12.137  0.1471  0.0008 -0.3955
12509TIP3    H159018   5.664   1.260  12.080 -0.8339  0.3626 -1.6503
12509TIP3    H259019   5.540   1.174  12.097 -0.3382 -0.0322  0.2229
12510TIP3   OH259020   6.134   4.175   4.359 -0.4502 -0.0040  0.0501
12510TIP3    H159021   6.180   4.195   4.441 -0.4533  0.9826 -0.1661
12510TIP3    H259022   6.073   4.248   4.348 -1.6824 -1.0125  0.0444
12511TIP3   OH259023   3.813   6.660   1.151  0.4055  0.0673  0.4890
12511TIP3    H159024   3.768   6.585   1.112  0.1962 -0.3752  1.5465
12511TIP3    H259025   3.906   6.643   1.137  0.3135  1.0598 -1.8469
12512TIP3   OH259026   2.135   1.528   5.878  0.3433  0.3704  0.0443
12512TIP3    H159027   2.195   1.599   5.900  0.8343  0.0204 -0.1644
12512TIP3    H259028   2.187   1.448   5.888  0.2135  0.1204 -1.1503
12513TIP3   OH259029   6.135   0.720   2.734  0.2285 -0.0919  0.4822
12513TIP3    H159030   6.132   0.815   2.747 -2.0229 -0.1054  0.3919
12513TIP3    H259031   6.170   0.686   2.817  0.5120  0.7550  0.7254
12514TIP3   OH259032   1.771   3.973  14.276  0.4329  0.0625 -0.0130
12514TIP3    H159033   1.789   3.928  14.193 -0.3378 -0.7493  0.2433
12514TIP3    H259034   1.686   3.939  14.304  1.3408 -0.8268  1.8598
12515TIP3   OH259035   6.241   5.153  13.643 -0.1730 -0.4701 -0.5719
12515TIP3    H159036   6.228   5.059  13.653 -3.0614 -0.1504 -0.4711
12515TIP3    H259037   6.234   5.169  13.549 -0.7249 -0.2508 -0.4979
12516TIP3   OH259038   3.336   3.141  13.991  0.1493 -0.5213  0.1167
12516TIP3    H159039   3.297   3.191  13.919 -0.6873  0.4156  1.1684
12516TIP3    H259040   3.296   3.054  13.984 -1.9900  0.3168  0.9582
12517TIP3   OH259041   2.429   5.172   1.508 -0.0830 -0.2248 -0.2346
12517TIP3    H159042   2.506   5.222   1.535 -0.9114 -0.0648  2.1252
12517TIP3    H259043   2.356   5.233   1.519 -0.5838 -0.2680 -2.7543
12518TIP3   OH259044   4.153   4.645  12.003 -0.1856  0.0084  0.2370
12518TIP3    H159045   4.074   4.603  11.970  0.8340 -2.7142  0.9670
12518TIP3    H259046   4.199   4.675  11.924 -2.2834  2.4974 -0.1488
12519TIP3   OH259047   4.940   4.755  13.481  0.1729  0.1763 -0.5561
12519TIP3    H159048   4.916   4.832  13.533 -0.9330  1.3588 -2.6811
12519TIP3    H259049   4.970   4.692  13.546 -3.1780  0.7255  1.8522
12520TIP3   OH259050   2.813   3.711  16.615  0.0093 -0.4761 -0.4982
12520TIP3    H159051   2.820   3.622  16.580  1.6615 -0.7212  0.3859
12520TIP3    H259052   2.888   3.757  16.578 -0.7373  0.5374 -0.8135
12521TIP3   OH259053   6.385   0.159   3.439  0.2619  0.6902  0.4165
12521TIP3    H159054   6.466   0.123   3.476  0.0162  1.5180  1.8418
12521TIP3    H259055   6.407   0.250   3.419 -0.1441  0.7612  0.2865
12522TIP3   OH259056   5.885   6.554  12.944  0.1957 -0.5674  0.1873
12522TIP3    H159057   5.908   6.645  12.964  1.3852 -0.5761 -0.9935
12522TIP3    H259058   5.789   6.553  12.946  0.1554  0.8002 -0.1196
12523TIP3   OH259059   3.805   6.100  13.452 -0.1135 -0.1808 -0.0944
12523TIP3    H159060   3.881   6.048  13.428  0.8522  0.4201  1.5004
12523TIP3    H259061   3.817   6.119  13.545 -3.1421 -1.6355  0.7368
12524TIP3   OH259062   0.021   3.405  14.009 -0.1666  0.0184  0.1838
12524TIP3    H159063  -0.029   3.435  14.085 -1.6172  0.8884 -1.0663
12524TIP3    H259064  -0.043   3.399  13.938  1.3782  0.5155 -1.3218
12525TIP3   OH259065   4.852   0.489  12.152 -0.3496 -0.6520  0.0794
12525TIP3    H159066   4.819   0.420  12.210 -0.6085  0.2715  1.0679
12525TIP3    H259067   4.783   0.555  12.153  0.3848  0.1328  0.0806
12526TIP3   OH259068   4.548   1.934   5.298 -0.0126 -0.3442 -0.0916
12526TIP3    H159069   4.569   1.914   5.389  0.0218  1.3850  0.3154
12526TIP3    H259070   4.628   1.912   5.250  0.7755  0.7723  0.6334
12527TIP3   OH259071   0.863   4.367  15.293 -0.2281  0.5163  0.9204
12527TIP3    H159072   0.867   4.338  15.202 -1.1695 -1.3268  1.4100
12527TIP3    H259073   0.782   4.417  15.298  0.6340  2.0412  0.4221
12528TIP3   OH259074   3.188   4.753  14.860 -0.1276 -0.1644  0.2391
12528TIP3    H159075   3.117   4.814  14.877  0.0280  0.5141 -1.3346
12528TIP3    H259076   3.239   4.752  14.941  0.1551  2.2170  0.1732
12529TIP3   OH259077   3.323   1.316   1.906  0.2843 -0.1328  0.7454
12529TIP3    H159078   3.339   1.399   1.860 -0.9399 -0.4121 -0.2319
12529TIP3    H259079   3.407   1.295   1.947  1.0646  0.7745 -0.3208
12530TIP3   OH259080   3.182   2.417  11.682  0.6760  0.9245 -0.2254
12530TIP3    H159081   3.103   2.374  11.647  1.7393 -1.6612  0.2878
12530TIP3    H259082   3.152   2.459  11.763 -0.2255  0.1332 -0.1219
12531TIP3   OH259083   2.729   2.672  15.571  0.0377  0.1190  0.0153
12531TIP3    H159084   2.789   2.744  15.591  0.5157 -0.0538 -0.7614
12531TIP3    H259085   2.652   2.690  15.626 -0.4572  2.0288 -1.1813
12532TIP3   OH259086   2.385   5.568   1.798  0.0976 -0.0475 -0.4699
12532TIP3    H159087   2.385   5.664   1.799 -1.7959  0.0050 -0.8887
12532TIP3    H259088   2.373   5.543   1.889 -1.2502  0.1969 -0.5556
12533TIP3   OH259089   0.468   1.922  10.995  0.2174 -0.2309 -0.7262
12533TIP3    H159090   0.381   1.923  11.035  0.4593 -0.6772 -0.1836
12533TIP3    H259091   0.508   1.841  11.026  1.7156  1.0748  0.9578
12534TIP3   OH259092   2.299   1.967   5.601 -0.3779  0.0894  0.2013
12534TIP3    H159093   2.211   2.002   5.585 -0.8551 -0.8050  0.7760
12534TIP3    H259094   2.357   2.031   5.561 -1.3768 -0.9346 -3.2220
12535TIP3   OH259095   1.814   4.085   6.620  0.5876  0.2610  0.7800
12535TIP3    H159096   1.901   4.124   6.628  0.7869 -0.0548  0.1930
12535TIP3    H259097   1.759   4.156   6.586  0.9116  0.0883 -0.1242
12536TIP3   OH259098   4.595   0.754  14.547  0.3047  0.1020  0.7639
12536TIP3    H159099   4.532   0.731  14.478 -0.2737  0.0325  1.3116
12536TIP3    H259100   4.646   0.674  14.560 -0.4517 -0.3070  1.3258
12537TIP3   OH259101   6.261   3.322   0.227 -0.1166 -0.3643  0.1834
12537TIP3    H159102   6.317   3.388   0.268  0.0655 -0.3033 -0.1689
12537TIP3    H259103   6.294   3.313   0.138  0.6843 -1.8796  0.6023
12538TIP3   OH259104   4.229   0.953   0.299 -0.0421 -0.1022 -0.3795
12538TIP3    H159105   4.180   1.024   0.343  0.4029 -0.8359  1.3683
12538TIP3    H259106   4.280   0.998   0.232  0.2927  1.2714  0.7409
12539TIP3   OH259107   6.481   6.033   0.639  0.8253 -0.5132  0.1980
12539TIP3    H159108   6.541   5.962   0.663 -0.2796 -2.0023 -1.2402
12539TIP3    H259109   6.406   6.022   0.697  0.8353 -0.2402  0.2650
12540TIP3   OH259110   2.405   6.788   4.407 -0.4668  0.2078 -0.5576
12540TIP3    H159111   2.408   6.831   4.321 -0.1222 -0.9634 -1.1526
12540TIP3    H259112   2.473   6.720   4.402 -1.2581 -0.6593  0.2045
12541TIP3   OH259113   5.830   5.145   0.305 -0.0906 -0.5351  0.3776
12541TIP3    H159114   5.739   5.122   0.324  0.0088  0.1435  1.7250
12541TIP3    H259115   5.861   5.189   0.384  0.8275  0.9846 -0.7809
12542TIP3   OH259116   1.246   6.575  11.898  0.0885  0.0376 -0.5356
12542TIP3    H159117   1.167   6.586  11.845  0.0023 -2.9365 -1.1943
12542TIP3    H259118   1.219   6.519  11.971  1.2726  0.1984  0.0572
12543TIP3   OH259119   3.419   4.976  15.917  0.0749  0.6165 -0.8261
12543TIP3    H159120   3.352   5.006  15.978 -1.5051 -0.3602 -2.0078
12543TIP3    H259121   3.463   4.904  15.963 -0.4401  0.5249 -0.4764
12544TIP3   OH259122   1.910   3.863  13.743 -0.3543 -0.1204  0.5284
12544TIP3    H159123   1.877   3.867  13.653 -0.7540 -0.6244  0.6455
12544TIP3    H259124   1.836   3.828  13.793  0.9789 -3.3613  0.4791
12545TIP3   OH259125   1.564   4.893  14.919  0.3548  0.0646  0.3296
12545TIP3    H159126   1.559   4.822  14.982  2.8250  0.0761  0.6182
12545TIP3    H259127   1.658   4.905  14.903 -0.1207  0.0595 -3.3550
12546TIP3   OH259128   6.656   4.673  11.796  0.4305 -0.0432 -0.3190
12546TIP3    H159129   6.728   4.709  11.745  0.0686 -0.6603 -1.3000
12546TIP3    H259130   6.616   4.607  11.738 -0.1562 -0.5785  0.6671
12547TIP3   OH259131   0.502   1.167   5.923  0.0290 -0.2045  0.5934
12547TIP3    H159132   0.590   1.139   5.897  0.8944  2.3435  0.5632
12547TIP3    H259133   0.516   1.245   5.976 -2.2733  1.7837 -1.4641
12548TIP3   OH259134   6.764   4.235  12.987  0.2837  0.1634 -0.0549
12548TIP3    H159135   6.781   4.276  13.071  1.4422 -1.1089  0.3656
12548TIP3    H259136   6.669   4.243  12.975  0.4173  2.8457 -0.0074
12549TIP3   OH259137   2.572   5.411  13.494  0.1832  0.4364 -0.0549
12549TIP3    H159138   2.596   5.484  13.437  0.2168  1.2529  0.9627
12549TIP3    H259139   2.638   5.414  13.564 -0.4814  0.1327  0.5926
12550TIP3   OH259140   0.659   3.973  17.010  0.9639 -0.2100 -0.1194
12550TIP3    H159141   0.668   4.060  17.049  1.9158 -0.7706  0.9806
12550TIP3    H259142   0.582   3.936  17.053  0.8588 -0.1038 -0.2144
12551TIP3   OH259143   2.067   5.802  14.526 -0.8230 -0.0655 -0.2509
12551TIP3    H159144   1.983   5.763  14.500 -1.3274  1.1333 -0.4560
12551TIP3    H259145   2.127   5.775  14.457 -1.5126  0.7274 -1.2059
12552TIP3   OH259146   3.113   0.342  13.197  0.0626  0.3670 -0.3162
12552TIP3    H159147   3.096   0.432  13.170  1.4219  0.8523  0.3633
12552TIP3    H259148   3.114   0.346  13.293 -2.1429 -0.8286 -0.1711
12553TIP3   OH259149   4.809   0.577  14.595 -0.3820 -0.2789 -0.5296
12553TIP3    H159150   4.872   0.528  14.543 -0.3256 -1.3336  0.4787
12553TIP3    H259151   4.780   0.514  14.661 -1.9525  0.4063 -0.5375
12554TIP3   OH259152   3.628   5.823   3.002  0.4647 -0.0811  0.3496
12554TIP3    H159153   3.627   5.917   2.986  1.7397  0.0391  0.8117
12554TIP3    H259154   3.543   5.803   3.041 -0.0063  0.7834 -0.2212
12555TIP3   OH259155   1.161   0.838  13.837 -0.1022 -0.1587 -0.2732
12555TIP3    H159156   1.203   0.869  13.917  0.5102  1.2263 -1.1145
12555TIP3    H259157   1.072   0.874  13.840 -0.1131 -0.1922 -0.1866
12556TIP3   OH259158   5.434   4.547  14.262 -0.3139 -0.3195  0.2943
12556TIP3    H159159   5.341   4.527  14.262 -0.4146  0.1307  0.4287
12556TIP3    H259160   5.446   4.604  14.185 -0.4342  0.8546  1.1110
12557TIP3   OH259161   3.420   4.577  11.276 -0.0504  0.2588 -0.1158
12557TIP3    H159162   3.414   4.514  11.204  0.7349 -0.5069  0.4645
12557TIP3    H259163   3.442   4.660  11.233  0.7297 -0.2563 -0.7523
12558TIP3   OH259164   3.205   3.992  17.115 -0.1291 -0.4289 -0.3514
12558TIP3    H159165   3.228   4.033  17.032  1.7368 -1.6415 -0.4990
12558TIP3    H259166   3.117   4.024  17.134  0.5534  2.2696 -1.2564
12559TIP3   OH259167   5.576   4.146   0.029 -0.0400 -0.5202 -0.6169
12559TIP3    H159168   5.634   4.069   0.030  0.1392 -0.5394 -3.4465
12559TIP3    H259169   5.493   4.112  -0.003  0.1121  0.4643 -2.1198
12560TIP3   OH259170   0.712   2.688   4.711 -0.3094 -0.0853 -0.0678
12560TIP3    H159171   0.756   2.757   4.662 -0.4472 -0.3261 -0.5346
12560TIP3    H259172   0.636   2.730   4.750 -0.4218  0.0158 -0.3958
12561TIP3   OH259173   3.534   6.118  16.169  0.3705  0.1560  0.0838
12561TIP3    H159174   3.604   6.177  16.141  0.0590  0.7724  0.6009
12561TIP3    H259175   3.454   6.170  16.164  0.0025 -0.4029 -0.0355
12562TIP3   OH259176   2.798   3.310   3.684  0.1298 -0.1163 -0.2454
12562TIP3    H159177   2.704   3.305   3.703  0.0448  1.2874 -0.1909
12562TIP3    H259178   2.836   3.355   3.759  0.6116  0.6725 -0.9400
12563TIP3   OH259179   6.716   1.970   1.841  0.3485  0.6460  0.5467
12563TIP3    H159180   6.701   2.008   1.927  2.0174  0.6047  0.8940
12563TIP3    H259181   6.729   1.876   1.858  4.1272  1.0770  0.8033
12564TIP3   OH259182   1.404   4.069  12.924  0.3861  0.1295 -0.3702
12564TIP3    H159183   1.324   4.107  12.887 -0.2450 -1.8523 -1.1665
12564TIP3    H259184   1.394   4.079  13.018  1.2084  3.6841 -0.5044
12565TIP3   OH259185   4.067   4.384  14.375 -0.2058  0.1879  0.3683
12565TIP3    H159186   4.099   4.429  14.453  1.7766 -2.1725  1.0576
12565TIP3    H259187   4.080   4.447  14.304 -0.3192  1.7225  1.6434
12566TIP3   OH259188   2.266   4.425  12.952 -0.0619 -0.3681  0.0125
12566TIP3    H159189   2.306   4.504  12.917 -0.5476 -0.9573 -1.9813
12566TIP3    H259190   2.339   4.377  12.992  0.4440  0.5178  0.1857
12567TIP3   OH259191   4.703   5.737  12.460  0.2486 -0.3481  0.6239
12567TIP3    H159192   4.624   5.689  12.486 -0.0648  1.1428  2.6556
12567TIP3    H259193   4.695   5.747  12.365 -0.5528 -2.6913  0.3783
12568TIP3   OH259194   2.471   0.173  15.594  0.4602 -0.4766 -0.1426
12568TIP3    H159195   2.550   0.175  15.648 -1.6313 -0.0668  3.2781
12568TIP3    H259196   2.444   0.081  15.594 -0.8888 -0.1624  1.9289
12569TIP3   OH259197   5.937   0.392   3.710 -0.2445 -0.6838  0.4914
12569TIP3    H159198   5.901   0.448   3.779  0.4092 -1.5670  1.5704
12569TIP3    H259199   6.031   0.387   3.730  0.0151 -0.7008 -0.6563
12570TIP3   OH259200   5.128   0.153  13.984  0.1942 -0.4358 -0.4395
12570TIP3    H159201   5.201   0.147  13.922  0.4148 -2.6138 -0.0547
12570TIP3    H259202   5.169   0.147  14.070 -0.3741 -1.4233 -0.2131
12571TIP3   OH259203   5.565   0.195   3.935  0.3542  0.5510 -0.0997
12571TIP3    H159204   5.583   0.188   3.841 -0.9495 -0.7276 -0.3025
12571TIP3    H259205   5.634   0.142   3.976  0.4459  0.4336 -0.4001
12572TIP3   OH259206   3.653   2.981   0.562 -0.5793 -0.1686 -0.1510
12572TIP3    H159207   3.563   2.971   0.594 -1.0402  0.0792 -1.3098
12572TIP3    H259208   3.654   3.069   0.523 -0.4399 -0.9260 -1.9441
12573TIP3   OH259209   4.412   0.626   3.687  0.3717  0.3514  0.4738
12573TIP3    H159210   4.353   0.698   3.709 -2.8180 -1.5573 -1.0078
12573TIP3    H259211   4.472   0.664   3.623 -2.0600  1.5452 -1.3064
12574TIP3   OH259212   1.243   5.925   3.300  0.0477 -0.2581  0.2920
12574TIP3    H159213   1.167   5.927   3.358  1.3592 -0.3918  2.0897
12574TIP3    H259214   1.262   6.017   3.283 -2.1239 -0.1683 -2.5266
12575TIP3   OH259215   0.103   3.573  15.886 -0.2593  0.0114  0.3548
12575TIP3    H159216   0.121   3.590  15.978 -1.4089  2.1250  0.2365
12575TIP3    H259217   0.168   3.624  15.838 -0.2660 -0.3191 -0.0148
12576TIP3   OH259218   1.478   1.370   4.719 -0.0021  0.1681 -0.1825
12576TIP3    H159219   1.383   1.375   4.722  0.0764  3.0304  2.9298
12576TIP3    H259220   1.504   1.442   4.661  0.1930  2.3253  2.3803
12577TIP3   OH259221   6.437   3.238  17.039 -0.3619  0.4373 -0.4126
12577TIP3    H159222   6.502   3.184  17.084  0.7561  1.1503 -1.1344
12577TIP3    H259223   6.385   3.175  16.989  0.5923 -0.0406 -0.8438
12578TIP3   OH259224   6.344   0.988   1.834 -0.1941  0.7954 -0.4754
12578TIP3    H159225   6.275   0.922   1.833  0.2688  0.3193 -1.7189
12578TIP3    H259226   6.302   1.067   1.799 -0.3834  0.7914 -0.2580
12579TIP3   OH259227   2.826   1.924  17.097  0.3536 -0.6956 -0.0386
12579TIP3    H159228   2.888   1.924  17.024  0.3371 -2.5609 -0.0782
12579TIP3    H259229   2.836   2.011  17.136  2.0368 -0.4890 -0.8354
12580TIP3   OH259230   0.001   4.144  16.973  0.2457 -0.1853  0.3246
12580TIP3    H159231   0.088   4.107  16.957  1.4260  2.4040  0.1821
12580TIP3    H259232  -0.010   4.138  17.068  1.0505  0.3815  0.4635
12581TIP3   OH259233   2.331   1.508  11.429 -0.7654 -0.1561 -0.1238
12581TIP3    H159234   2.344   1.537  11.339  1.1719  0.0694  0.1681
12581TIP3    H259235   2.340   1.588  11.481 -2.4033 -0.1946  0.2535
12582TIP3   OH259236   0.611   3.408   6.625  0.5934 -0.1040 -0.1824
12582TIP3    H159237   0.599   3.484   6.681 -0.0484 -0.5696  0.3353
12582TIP3    H259238   0.554   3.341   6.664  2.5398 -1.4455  0.4993
12583TIP3   OH259239   2.398   5.199   3.489  0.8293  0.5774 -0.1211
12583TIP3    H159240   2.448   5.167   3.414  0.2713  0.5299 -0.4737
12583TIP3    H259241   2.450   5.173   3.565  1.0478  0.0127 -0.4576
12584TIP3   OH259242   5.877   2.958  15.320  0.2848 -0.7703  0.1313
12584TIP3    H159243   5.956   2.926  15.276  0.7553  0.5060  0.0009
12584TIP3    H259244   5.855   2.889  15.382 -0.7373 -2.9225 -2.4285
12585TIP3   OH259245   4.532   1.951   5.664  0.0959 -0.5031 -0.5760
12585TIP3    H159246   4.556   2.042   5.679  0.4918 -0.8643  1.2921
12585TIP3    H259247   4.606   1.914   5.618  0.3205 -0.0848 -0.5551
12586TIP3   OH259248   2.454   4.303   1.611  0.2010  0.4176  0.0179
12586TIP3    H159249   2.477   4.210   1.607 -0.8798  0.0619  1.4154
12586TIP3    H259250   2.539   4.348   1.612  0.7430 -0.5355 -0.6312
12587TIP3   OH259251   4.450   0.174   2.750  0.1881  0.6091  0.4427
12587TIP3    H159252   4.391   0.226   2.804  0.4322 -0.3081  1.6247
12587TIP3    H259253   4.400   0.096   2.728  0.6700  0.2128  0.7496
12588TIP3   OH259254   4.297   0.231  11.840 -0.7722 -0.0106  0.2003
12588TIP3    H159255   4.297   0.142  11.874 -1.1324  0.4647  1.5343
12588TIP3    H259256   4.269   0.222  11.749  0.4931 -1.3695 -0.0936
12589TIP3   OH259257   0.180   2.502  14.607 -0.0468  0.1120  0.3301
12589TIP3    H159258   0.260   2.510  14.555  0.6462  1.2735  1.5086
12589TIP3    H259259   0.204   2.446  14.680 -0.3212  0.3995  0.6452
12590TIP3   OH259260   6.415   1.801  15.690  0.5055  0.7227  0.2446
12590TIP3    H159261   6.451   1.889  15.676  0.0380  1.1696  1.7048
12590TIP3    H259262   6.356   1.811  15.764  1.9312 -1.2274  1.7284
12591TIP3   OH259263   1.721   1.831  16.910 -0.5119  0.1040  0.1498
12591TIP3    H159264   1.719   1.890  16.834  1.0760 -1.2650 -1.0226
12591TIP3    H259265   1.638   1.784  16.906 -0.3828 -0.0667 -0.8785
12592TIP3   OH259266   5.128   5.641  11.636 -0.3769 -0.5647  0.0812
12592TIP3    H159267   5.198   5.578  11.650  0.4811  0.0910 -1.0948
12592TIP3    H259268   5.068   5.598  11.576 -0.2705 -0.6157  0.0121
12593TIP3   OH259269   4.966   3.513   2.414 -0.0432 -0.6199  0.2425
12593TIP3    H159270   5.022   3.569   2.469  0.6400 -0.6764 -0.3841
12593TIP3    H259271   4.965   3.429   2.460 -2.2866  0.2578  1.9909
12594TIP3   OH259272   0.291   3.115  12.008  0.2687 -0.0253  0.2174
12594TIP3    H159273   0.231   3.166  11.955 -0.0936 -0.2914  0.3688
12594TIP3    H259274   0.269   3.137  12.098 -0.4244 -1.0281  0.3099
12595TIP3   OH259275   4.954   1.259   1.444 -0.0204 -0.5734 -0.4963
12595TIP3    H159276   4.880   1.301   1.488 -0.2335 -0.6523 -0.7796
12595TIP3    H259277   5.029   1.313   1.468 -0.4692  0.7618 -1.9032
12596TIP3   OH259278   2.331   4.218  14.817 -0.5226 -0.2411 -0.2370
12596TIP3    H159279   2.404   4.164  14.848 -0.1825  0.2353 -0.1962
12596TIP3    H259280   2.355   4.307  14.842 -1.4119 -0.1520  0.3103
12597TIP3   OH259281   3.760   4.091  13.451 -0.0265 -0.2126 -0.2728
12597TIP3    H159282   3.673   4.112  13.484  0.1194  0.8019 -0.4855
12597TIP3    H259283   3.818   4.102  13.526  0.0937  0.5287 -0.4604
12598TIP3   OH259284   1.839   5.600  15.715 -0.0135  0.1229 -0.0356
12598TIP3    H159285   1.792   5.676  15.747 -0.6846 -0.3958  0.2327
12598TIP3    H259286   1.876   5.560  15.794 -0.4205 -0.3244 -0.0644
12599TIP3   OH259287   2.801   1.232  10.784  0.0908 -0.6691  0.6582
12599TIP3    H159288   2.710   1.218  10.810  0.1296 -1.4532  0.4060
12599TIP3    H259289   2.796   1.260  10.692  0.0966 -0.5696  0.6882
12600TIP3   OH259290   2.416   6.018   4.587 -0.3363  0.1299 -0.3587
12600TIP3    H159291   2.473   5.951   4.549  1.1691  0.8221  0.5519
12600TIP3    H259292   2.363   6.050   4.515 -0.5270 -1.4985 -0.9603
12601TIP3   OH259293   2.916   6.249  10.953 -0.2057  0.0140 -0.4471
12601TIP3    H159294   2.894   6.163  10.918 -2.2153 -0.2382  1.1942
12601TIP3    H259295   2.881   6.311  10.888 -0.1141 -0.4045 -0.9005
12602TIP3   OH259296   4.581   3.823  16.997  0.3180 -0.4468 -0.6588
12602TIP3    H159297   4.555   3.736  16.968  0.4205 -0.2142 -1.4743
12602TIP3    H259298   4.499   3.869  17.012  0.2442 -0.9348  0.6337
12603TIP3   OH259299   4.439   1.498   0.916 -0.3740 -0.3170 -0.5602
12603TIP3    H159300   4.476   1.491   1.004 -0.8826  0.9459 -0.2174
12603TIP3    H259301   4.353   1.458   0.922  0.3911 -2.1128 -1.0364
12604TIP3   OH259302   2.791   1.011  11.199 -0.2575  0.8674 -0.0674
12604TIP3    H159303   2.716   1.071  11.196  0.0289  1.2725  0.6756
12604TIP3    H259304   2.867   1.068  11.185 -0.0808  0.4540 -0.8337
12605TIP3   OH259305   0.311   1.666   1.801  0.5187  0.5931 -0.1651
12605TIP3    H159306   0.259   1.681   1.722 -2.8588 -3.2653  0.9695
12605TIP3    H259307   0.345   1.577   1.790 -1.9719 -1.0463  3.4348
12606TIP3   OH259308   1.642   6.649  17.053  0.7100  0.0723  0.5704
12606TIP3    H159309   1.728   6.611  17.070  0.3261 -0.7332  0.7932
12606TIP3    H259310   1.621   6.623  16.963 -0.4800 -2.1934  1.4089
12607TIP3   OH259311   3.788   1.988   2.503 -0.3976 -0.0192  0.1957
12607TIP3    H159312   3.744   1.914   2.462  0.7798 -0.9430  0.5087
12607TIP3    H259313   3.724   2.059   2.501 -0.2622  0.1991 -3.6812
12608TIP3   OH259314   0.518   0.390  13.505  0.3465 -0.1962  0.0378
12608TIP3    H159315   0.472   0.445  13.568  2.0054  0.0806  1.0637
12608TIP3    H259316   0.449   0.355  13.449 -0.8819  2.0011  0.0671
12609TIP3   OH259317   4.869   2.419  15.591  0.5215  0.2305  0.1577
12609TIP3    H159318   4.797   2.461  15.544  0.1320 -0.4742  0.1057
12609TIP3    H259319   4.947   2.440  15.540  0.3560  1.0140  0.2228
12610TIP3   OH259320   1.029   2.201  12.726 -0.9032 -0.8173  0.0998
12610TIP3    H159321   0.936   2.220  12.736 -0.9431 -1.6071  1.4067
12610TIP3    H259322   1.042   2.193  12.632 -2.0068 -0.0044 -0.1398
12611TIP3   OH259323   0.440   5.768  16.841  0.2814 -0.0618 -0.1419
12611TIP3    H159324   0.416   5.678  16.864  2.6424 -0.5561  0.6636
12611TIP3    H259325   0.507   5.758  16.773  1.8364  0.9788  1.1803
12612TIP3   OH259326   5.166   0.054  10.913 -0.1034 -0.2269 -0.0288
12612TIP3    H159327   5.260   0.050  10.928  0.0381 -2.1537 -1.0728
12612TIP3    H259328   5.153   0.133  10.861  0.7268  0.7890  1.2698
12613TIP3   OH259329   5.726   0.340  17.056 -0.0826  0.1909 -0.4900
12613TIP3    H159330   5.743   0.280  16.983  1.4716 -0.8779  0.6669
12613TIP3    H259331   5.631   0.349  17.058 -0.2579 -0.9362 -1.7200
12614TIP3   OH259332   5.578   0.383   5.182  0.1358 -0.1642 -0.4085
12614TIP3    H159333   5.647   0.336   5.228  1.3288  1.4202 -0.4999
12614TIP3    H259334   5.565   0.464   5.233 -3.4082 -1.4218  1.0310
12615TIP3   OH259335   0.048   4.074   4.062  0.0515  0.2047  0.6423
12615TIP3    H159336   0.051   4.073   4.158 -2.4388 -1.5955  0.7835
12615TIP3    H259337   0.056   4.166   4.039 -1.4527  0.9246  2.7181
12616TIP3   OH259338   6.594   5.043  15.041  0.3604  0.1273  0.0911
12616TIP3    H159339   6.686   5.044  15.017  0.1992 -0.1931 -0.5621
12616TIP3    H259340   6.593   5.065  15.135  1.3186 -2.3696  0.7770
12617TIP3   OH259341   4.846   6.049   5.293  0.3582  0.4623 -0.5814
12617TIP3    H159342   4.922   6.013   5.248  1.0260  1.4569 -0.2898
12617TIP3    H259343   4.848   6.011   5.380  0.6496  0.6473 -0.5063
12618TIP3   OH259344   5.485   6.257  13.700 -0.1243 -0.0588 -0.1690
12618TIP3    H159345   5.473   6.351  13.690  0.9199  0.0919 -0.1126
12618TIP3    H259346   5.496   6.244  13.794 -2.9220 -0.6018  0.1859
12619TIP3   OH259347   0.038   0.072  14.412  0.1820  0.3886  0.4420
12619TIP3    H159348   0.114   0.090  14.357  0.7050  0.0940  1.0528
12619TIP3    H259349  -0.021   0.020  14.357  0.5116  0.4502  0.0295
12620TIP3   OH259350   4.696   3.758   1.359 -0.3060  0.1526 -0.3453
12620TIP3    H159351   4.650   3.676   1.343 -1.1268  0.1883  1.4860
12620TIP3    H259352   4.741   3.743   1.443 -0.3611  1.5163 -0.0599
12621TIP3   OH259353   4.573   3.665  11.623 -0.0897  0.0012  0.7213
12621TIP3    H159354   4.515   3.741  11.615 -0.6797 -0.5182 -0.0245
12621TIP3    H259355   4.576   3.648  11.717 -0.2154  0.7420  0.8722
12622TIP3   OH259356   1.490   4.837  14.177 -0.3812  0.6866 -0.0975
12622TIP3    H159357   1.540   4.838  14.095 -1.1084  2.2762 -0.5606
12622TIP3    H259358   1.413   4.784  14.157  0.2303 -0.2761  0.0676
12623TIP3   OH259359   3.701   6.352  11.788 -0.4125 -0.1175  0.2344
12623TIP3    H159360   3.685   6.301  11.867 -3.1349  1.7410  1.0125
12623TIP3    H259361   3.701   6.288  11.717  1.1857 -1.7146  1.5842
12624TIP3   OH259362   5.163   4.569   0.620  0.3176  0.2787  0.1385
12624TIP3    H159363   5.188   4.546   0.710 -0.7998  0.3696  0.4759
12624TIP3    H259364   5.073   4.540   0.611 -0.2964  2.1754 -0.2795
12625TIP3   OH259365   6.486   2.506   4.527 -0.1786  0.4052  0.0777
12625TIP3    H159366   6.509   2.543   4.442  1.9532 -0.6114  0.1318
12625TIP3    H259367   6.397   2.474   4.516  0.2275 -0.1855 -1.9657
12626TIP3   OH259368   1.349   2.635   2.638 -0.2773 -0.2106  0.3411
12626TIP3    H159369   1.271   2.619   2.585  0.8134 -0.4822 -1.2496
12626TIP3    H259370   1.344   2.571   2.708 -2.0066  0.4765  0.9052
12627TIP3   OH259371   4.443   5.049   3.087 -0.1112  0.1547  0.5597
12627TIP3    H159372   4.518   4.990   3.085 -0.2741 -0.0404 -1.1996
12627TIP3    H259373   4.367   4.990   3.094 -0.2453  0.1396 -0.7244
12628TIP3   OH259374   6.659   6.601   4.478  0.5145  0.1211  0.3028
12628TIP3    H159375   6.690   6.514   4.505 -1.0026 -0.5637 -0.0807
12628TIP3    H259376   6.596   6.626   4.545  2.7260  2.1075  1.8138
12629TIP3   OH259377   4.387   0.217   1.315  0.4221 -0.0389  0.1838
12629TIP3    H159378   4.317   0.282   1.325 -0.0182 -0.3733 -0.6038
12629TIP3    H259379   4.468   0.268   1.320  0.0819  0.5844 -0.4681
12630TIP3   OH259380   0.115   4.326   2.056  0.2148  0.1589  0.1036
12630TIP3    H159381   0.140   4.305   2.146  1.1422 -0.8785 -0.3603
12630TIP3    H259382   0.137   4.418   2.045  0.9731  0.0522  0.6600
12631TIP3   OH259383   2.561   0.457   2.855 -0.1760 -0.2096 -1.1155
12631TIP3    H159384   2.526   0.442   2.943  3.3468 -2.4610  0.0793
12631TIP3    H259385   2.491   0.428   2.796 -1.2424 -2.2666  1.0259
12632TIP3   OH259386   1.232   6.471   0.046 -0.5334  0.6773  0.0485
12632TIP3    H159387   1.153   6.417   0.040 -0.5263  0.7083 -0.3618
12632TIP3    H259388   1.290   6.436  -0.022  0.0618  0.2457  0.7611
12633TIP3   OH259389   2.963   5.720  12.774 -0.5728 -1.1133 -0.1656
12633TIP3    H159390   2.918   5.639  12.753 -0.7438 -1.2069  0.5463
12633TIP3    H259391   3.052   5.708  12.739 -0.5570 -1.6543  0.0548
12634TIP3   OH259392   5.480   4.824   1.470  0.2231 -0.1634 -0.5097
12634TIP3    H159393   5.427   4.802   1.547  0.5637  0.2610 -0.1464
12634TIP3    H259394   5.418   4.820   1.397 -0.4924  1.0307 -0.0063
12635TIP3   OH259395   3.595   1.650  12.137  0.1665 -0.4862  0.1455
12635TIP3    H159396   3.552   1.734  12.156  1.2108 -0.1864  1.3633
12635TIP3    H259397   3.639   1.627  12.219  0.1802 -2.0723 -0.2696
12636TIP3   OH259398   4.253   1.391   5.568  0.0441 -0.2385 -0.1999
12636TIP3    H159399   4.317   1.338   5.615  0.8667  1.9438  1.2797
12636TIP3    H259400   4.258   1.359   5.478  1.1097 -2.0397  0.4377
12637TIP3   OH259401   1.822   0.966  13.073  0.1975 -0.3648  0.2897
12637TIP3    H159402   1.887   0.996  13.010  0.2065 -0.4974  0.2352
12637TIP3    H259403   1.851   0.878  13.097 -0.7415 -0.9907 -0.8114
12638TIP3   OH259404   6.695   5.743  15.120  0.1200  0.6969 -0.7056
12638TIP3    H159405   6.663   5.833  15.134 -0.3639  0.5370 -0.7515
12638TIP3    H259406   6.767   5.733  15.182 -0.3267  0.8610 -0.1551
12639TIP3   OH259407   0.265   6.038  13.126 -0.2277 -0.2309  0.4416
12639TIP3    H159408   0.280   6.061  13.217  1.0013  0.6741  0.0267
12639TIP3    H259409   0.307   6.107  13.075 -2.7444  0.4731 -0.8456
12640TIP3   OH259410   3.578   5.030  17.064  0.0472 -0.6665 -0.7227
12640TIP3    H159411   3.488   5.020  17.034 -0.4799  0.6279  0.3331
12640TIP3    H259412   3.571   5.029  17.160  0.6444  2.8736 -0.5092
12641TIP3   OH259413   1.594   6.434   2.327  0.2250  0.0075 -0.0089
12641TIP3    H159414   1.571   6.493   2.398  0.0333  0.9068 -0.7932
12641TIP3    H259415   1.511   6.395   2.300  0.1063  0.6407 -0.5750
12642TIP3   OH259416   0.642   0.064   2.986 -0.2350  0.5539  0.0049
12642TIP3    H159417   0.555   0.094   2.960  0.2452  1.0537 -1.0862
12642TIP3    H259418   0.630   0.028   3.074 -1.3053  1.7074  0.3550
12643TIP3   OH259419   6.766   4.505   1.279  0.5636 -0.0515  0.2412
12643TIP3    H159420   6.703   4.526   1.348  0.1905  0.6476 -0.3032
12643TIP3    H259421   6.814   4.430   1.313 -0.0259 -0.0955  1.0058
12644TIP3   OH259422   1.387   0.320  11.736 -0.6025  0.5136  0.1281
12644TIP3    H159423   1.424   0.400  11.774  0.7750  0.4822 -1.0677
12644TIP3    H259424   1.294   0.340  11.724 -0.6785  1.2146  1.6610
12645TIP3   OH259425   0.901   6.746   4.941  0.0826 -0.0368 -0.2767
12645TIP3    H159426   0.975   6.707   4.894  0.9678 -0.8337  1.6507
12645TIP3    H259427   0.856   6.671   4.981  0.7589  0.7040  2.0279
12646TIP3   OH259428   3.661   5.622   4.303  0.2718  0.5035  0.6052
12646TIP3    H159429   3.699   5.684   4.365  1.6102  0.3723 -0.0521
12646TIP3    H259430   3.639   5.545   4.356 -0.8460  1.2786  1.3195
12647TIP3   OH259431   2.891   5.073   5.244  0.1353 -0.0602  0.3426
12647TIP3    H159432   2.808   5.108   5.213 -0.9460 -1.8410  1.1115
12647TIP3    H259433   2.909   5.121   5.324  1.1770  2.0864 -1.0658
12648TIP3   OH259434   0.626   4.409  12.408  0.4451  0.1052  0.0679
12648TIP3    H159435   0.670   4.341  12.460 -2.8760 -4.1637 -2.0355
12648TIP3    H259436   0.549   4.432  12.460 -0.3918 -0.6646 -0.7795
12649TIP3   OH259437   2.691   6.720   0.510  0.2280 -1.0218 -0.1488
12649TIP3    H159438   2.639   6.706   0.431  0.0346  0.3759 -0.2901
12649TIP3    H259439   2.676   6.812   0.533  0.6555 -1.2759  1.2476
12650TIP3   OH259440   0.601   3.708  16.298  0.1066 -0.4015 -0.3659
12650TIP3    H159441   0.581   3.747  16.213 -1.8200  1.7552  0.9472
12650TIP3    H259442   0.519   3.667  16.325 -0.2645  1.4727  1.6367
12651TIP3   OH259443   6.073   0.399  15.473 -0.4675  0.3709  0.2605
12651TIP3    H159444   6.099   0.417  15.383 -0.7926 -2.1505 -0.4270
12651TIP3    H259445   6.047   0.484  15.508  1.1235  1.6846 -1.4992
12652TIP3   OH259446   4.995   0.152   5.562 -0.7552  1.1522  0.0306
12652TIP3    H159447   4.900   0.144   5.569 -0.6122  0.3592  1.4514
12652TIP3    H259448   5.027   0.062   5.565  0.1155  1.4732  1.1690
12653TIP3   OH259449   2.018   6.243  13.976  0.0221 -0.1115 -0.2209
12653TIP3    H159450   1.981   6.281  13.897  1.7300 -0.8001 -1.4194
12653TIP3    H259451   2.104   6.286  13.984 -0.0101 -0.2649  1.1041
12654TIP3   OH259452   2.252   1.190   3.494 -0.3561 -0.1483 -0.6723
12654TIP3    H159453   2.230   1.278   3.463 -0.8837  0.1364  0.4695
12654TIP3    H259454   2.331   1.202   3.546  1.6406 -0.9049 -3.2976
12655TIP3   OH259455   0.461   0.694   1.495  0.6530  0.1220 -0.1711
12655TIP3    H159456   0.476   0.602   1.520  0.5346 -0.2088 -1.2664
12655TIP3    H259457   0.411   0.731   1.568 -0.5191 -1.0676 -0.3408
12656TIP3   OH259458   6.430   1.843  13.173  0.2660  0.0724  0.8476
12656TIP3    H159459   6.504   1.903  13.163  0.0378  0.7050  2.5427
12656TIP3    H259460   6.466   1.757  13.150  0.7286  0.7456 -1.1547
12657TIP3   OH259461   1.907   3.361  16.694 -0.4643  0.3097 -0.1302
12657TIP3    H159462   1.968   3.412  16.748  0.6231 -0.4801 -0.5726
12657TIP3    H259463   1.858   3.426  16.644  0.4488  0.9522 -0.2086
12658TIP3   OH259464   0.256   4.559   5.242 -0.2369 -0.5022 -0.7074
12658TIP3    H159465   0.292   4.474   5.269 -0.2703 -0.0329  0.9312
12658TIP3    H259466   0.310   4.623   5.288  0.2927  0.4374 -2.5424
12659TIP3   OH259467   4.884   6.685   4.774  0.2552  0.3069 -0.1216
12659TIP3    H159468   4.863   6.657   4.684 -1.8322 -2.6100  1.1122
12659TIP3    H259469   4.980   6.682   4.778  0.3517 -3.4373 -1.2656
12660TIP3   OH259470   5.469   4.849  16.927  0.1498  0.3026  0.3518
12660TIP3    H159471   5.463   4.807  16.841 -0.6231  0.1458  0.4780
12660TIP3    H259472   5.453   4.778  16.990 -2.6610  0.9793  0.5443
12661TIP3   OH259473   1.258   0.453   2.554  0.5660  0.4746  0.1077
12661TIP3    H159474   1.256   0.358   2.567  0.4210  0.4468 -0.1007
12661TIP3    H259475   1.274   0.489   2.640 -0.1087  0.2911  0.3171
12662TIP3   OH259476   0.161   1.809   1.135 -0.6929 -0.4414  0.0184
12662TIP3    H159477   0.153   1.825   1.041 -0.1135  1.4011  0.2352
12662TIP3    H259478   0.175   1.715   1.143  0.7597 -0.4273 -1.8420
12663TIP3   OH259479   0.761   6.011   2.545  0.3457 -0.5300  0.2196
12663TIP3    H159480   0.693   6.013   2.477  1.4986 -1.8803 -1.0398
12663TIP3    H259481   0.769   5.919   2.568  0.8655 -0.2265  1.2802
12664TIP3   OH259482   5.056   3.575  13.926 -0.1477  0.4133 -0.1084
12664TIP3    H159483   5.045   3.669  13.943  1.8826  0.5467  0.6791
12664TIP3    H259484   5.085   3.539  14.010 -0.8295 -0.9412 -0.4227
12665TIP3   OH259485   3.283   4.410   1.373 -0.2597 -0.2059  0.9235
12665TIP3    H159486   3.218   4.446   1.433  0.9175  0.7243  1.6886
12665TIP3    H259487   3.338   4.485   1.351  0.1871 -0.8465 -0.2052
12666TIP3   OH259488   1.579   1.364  15.717 -0.0541  0.0694 -0.1179
12666TIP3    H159489   1.641   1.384  15.647 -0.8885  0.1398 -0.8411
12666TIP3    H259490   1.493   1.388  15.682 -0.4795  0.1492  0.9414
12667TIP3   OH259491   2.268   3.576   2.323 -0.7625  0.2863 -0.6606
12667TIP3    H159492   2.338   3.584   2.258 -1.1743  1.1934 -1.0062
12667TIP3    H259493   2.216   3.656   2.313  0.3904  1.5186  2.2675
12668TIP3   OH259494   5.281   6.471  15.943  0.1316  0.1074  0.0476
12668TIP3    H159495   5.306   6.427  16.025  0.3943 -0.7783 -0.4934
12668TIP3    H259496   5.239   6.403  15.891 -0.1544  0.6972 -0.5049
12669TIP3   OH259497   4.281   3.930  11.227 -0.1118 -0.1994  0.2506
12669TIP3    H159498   4.301   3.972  11.144 -1.7245  0.1615  0.0142
12669TIP3    H259499   4.363   3.890  11.254  0.5458  0.0381 -1.3011
12670TIP3   OH259500   0.670   6.489   3.193  0.3271  0.0268 -0.1713
12670TIP3    H159501   0.703   6.469   3.106  0.6833 -1.0492  0.1987
12670TIP3    H259502   0.575   6.498   3.181  0.3527 -0.3016 -0.6396
12671TIP3   OH259503   1.722   2.367   2.890 -0.7579  0.2026 -0.4773
12671TIP3    H159504   1.712   2.322   2.806 -1.1222  1.2562 -1.0258
12671TIP3    H259505   1.675   2.450   2.878  0.9410  1.2873  0.0307
12672TIP3   OH259506   5.752   1.151   5.538 -0.8556 -0.5585  0.3609
12672TIP3    H159507   5.722   1.233   5.500  0.3570 -0.7720 -1.1723
12672TIP3    H259508   5.737   1.086   5.470  2.6660 -0.7092 -0.5106
12673TIP3   OH259509   5.331   4.219  14.066 -0.9358  0.5390 -0.4653
12673TIP3    H159510   5.353   4.306  14.034  1.2788  0.0235 -0.5493
12673TIP3    H259511   5.297   4.172  13.990 -1.2829  1.0496 -0.6288
12674TIP3   OH259512   0.875   5.026   6.675  0.6607 -0.3762 -0.5326
12674TIP3    H159513   0.889   5.120   6.673 -0.9810 -0.1082 -2.1503
12674TIP3    H259514   0.848   5.007   6.765  2.1141  0.4753  0.1108
12675TIP3   OH259515   1.605   2.352  10.984 -0.1913  0.3737 -0.5589
12675TIP3    H159516   1.613   2.434  11.033  0.5460 -0.5360  0.8978
12675TIP3    H259517   1.659   2.366  10.906 -0.8231  1.5841 -0.8213
12676TIP3   OH259518   2.965   3.113  12.985 -0.0191  0.2589 -0.5669
12676TIP3    H159519   2.997   3.140  12.899 -0.2738 -1.2699 -1.1612
12676TIP3    H259520   3.005   3.028  13.000 -1.7302 -0.5135 -0.1834
12677TIP3   OH259521   3.019   5.363   5.753 -0.2712 -0.5114 -0.1192
12677TIP3    H159522   3.027   5.405   5.839 -3.1641 -0.9041  0.4268
12677TIP3    H259523   3.110   5.341   5.729  0.8307  1.5155  1.8202
12678TIP3   OH259524   5.678   0.500   3.492  0.0051 -0.3291  0.1647
12678TIP3    H159525   5.632   0.450   3.424 -0.9752 -0.0866  0.6433
12678TIP3    H259526   5.757   0.449   3.509 -0.0706 -0.7465 -0.6777
12679TIP3   OH259527   1.735   1.422  15.503 -0.4226  0.1629 -0.1697
12679TIP3    H159528   1.677   1.449  15.432 -0.6165 -1.6276 -0.7540
12679TIP3    H259529   1.806   1.376  15.459 -0.3006 -0.5620  0.7549
12680TIP3   OH259530   5.233   5.916  11.159 -0.1781  0.0564  0.4210
12680TIP3    H159531   5.298   5.850  11.137  0.8235  1.1706 -0.0693
12680TIP3    H259532   5.172   5.915  11.085  0.3721  0.3288 -0.0446
12681TIP3   OH259533   0.898   0.111   3.277 -0.1239 -0.0904 -0.3775
12681TIP3    H159534   0.924   0.201   3.292  2.5822 -0.8061 -0.2541
12681TIP3    H259535   0.815   0.101   3.324  0.6630  1.7061  1.5156
12682TIP3   OH259536   4.704   0.215   5.554 -0.3344 -0.4393  0.0593
12682TIP3    H159537   4.660   0.292   5.590 -1.7795 -1.3559  0.3425
12682TIP3    H259538   4.663   0.202   5.469  0.6123 -0.3315 -0.4258
12683TIP3   OH259539   5.660   5.622  11.464  0.9244  0.6108 -0.7597
12683TIP3    H159540   5.643   5.694  11.524  0.9941 -0.8010  1.0618
12683TIP3    H259541   5.656   5.544  11.520  3.0737 -0.6101 -2.1958
12684TIP3   OH259542   5.149   5.206  13.701 -0.5215  0.5823  0.2854
12684TIP3    H159543   5.131   5.210  13.608 -1.5947  0.0481  0.4633
12684TIP3    H259544   5.206   5.281  13.718 -1.6914  1.6768 -0.4906
12685TIP3   OH259545   0.516   3.317  16.446 -0.2958 -0.2729 -0.3022
12685TIP3    H159546   0.590   3.257  16.434 -0.5510 -0.5170 -0.6867
12685TIP3    H259547   0.554   3.394  16.488  0.3264 -0.0732 -1.1975
12686TIP3   OH259548   5.928   4.397   6.277 -0.3484  0.1452  0.2561
12686TIP3    H159549   6.007   4.363   6.319 -0.8598 -1.1538  0.1942
12686TIP3    H259550   5.875   4.433   6.349  0.1811  0.8271  0.3207
12687TIP3   OH259551   4.306   4.036  16.975 -0.3753 -0.0808 -0.2417
12687TIP3    H159552   4.368   4.109  16.968  0.7624 -1.0476 -0.7482
12687TIP3    H259553   4.302   4.017  17.069 -1.2721  1.0888 -0.0180
12688TIP3   OH259554   3.762   1.515  14.400  0.7782 -0.1630 -0.0168
12688TIP3    H159555   3.852   1.526  14.433  1.0237 -0.6240 -0.5284
12688TIP3    H259556   3.711   1.577  14.452  1.4779  0.4709 -0.0620
12689TIP3   OH259557   1.798   2.456  12.831 -0.6386  0.3069  0.2733
12689TIP3    H159558   1.863   2.503  12.778 -2.4383  4.3844  1.2217
12689TIP3    H259559   1.741   2.413  12.768  0.2821  0.6386 -0.8150
12690TIP3   OH259560   5.314   5.565   0.379  0.1707  0.0989  0.3821
12690TIP3    H159561   5.316   5.469   0.378  0.3839  0.0770 -1.2861
12690TIP3    H259562   5.388   5.590   0.435  2.0812 -0.7687 -1.5705
12691TIP3   OH259563   0.503   2.843  15.718 -0.5090 -0.1732  0.2913
12691TIP3    H159564   0.439   2.787  15.674 -1.9545  1.6263  0.0149
12691TIP3    H259565   0.555   2.880  15.647 -1.0543  0.5975  0.2850
12692TIP3   OH259566   4.932   0.789   2.091  0.2771  0.2308 -0.0858
12692TIP3    H159567   4.994   0.744   2.148  0.5974 -0.0090 -0.6207
12692TIP3    H259568   4.894   0.858   2.146  0.9421  0.3142  0.2718
12693TIP3   OH259569   3.039   0.654  15.282 -0.2005 -0.0233  0.4957
12693TIP3    H159570   3.033   0.743  15.247  0.3068 -0.5524 -1.0403
12693TIP3    H259571   3.077   0.603  15.210 -2.6406 -1.9574  0.4476
12694TIP3   OH259572   3.536   1.958  17.213 -0.5174  0.1098  0.5212
12694TIP3    H159573   3.624   1.927  17.237 -0.3786  0.1279  0.0573
12694TIP3    H259574   3.514   2.023  17.279 -0.1512  0.1493  0.6055
12695TIP3   OH259575   6.280   1.449   4.644  0.5040 -0.2658 -0.0131
12695TIP3    H159576   6.348   1.494   4.594 -0.1004  1.4986  0.6688
12695TIP3    H259577   6.215   1.517   4.663 -1.3765 -1.8464 -0.4771
12696TIP3   OH259578   2.152   6.283   5.883  0.6275  0.3153  0.0407
12696TIP3    H159579   2.158   6.353   5.948 -1.4434  0.2060  0.4091
12696TIP3    H259580   2.141   6.203   5.934  0.9306 -0.0173 -0.4128
12697TIP3   OH259581   5.513   5.408  16.346  0.1346  0.3006 -0.0495
12697TIP3    H159582   5.449   5.413  16.417  2.4261  1.3542  2.0614
12697TIP3    H259583   5.461   5.424  16.266 -1.8169  4.5034  1.7626
12698TIP3   OH259584   4.406   6.291   4.066  0.1283 -0.3271 -0.1665
12698TIP3    H159585   4.412   6.213   4.010  0.1408  0.2478 -0.9786
12698TIP3    H259586   4.496   6.324   4.070 -0.2472  0.9808 -1.7756
12699TIP3   OH259587   2.746   6.610  16.915  0.0666 -0.0585 -0.0170
12699TIP3    H159588   2.813   6.663  16.958  1.1633 -1.1137 -0.3573
12699TIP3    H259589   2.694   6.673  16.865  0.7542  0.7987  0.3145
12700TIP3   OH259590   1.616   6.233  15.777  0.4024  0.1802  0.3040
12700TIP3    H159591   1.564   6.189  15.845 -0.0454 -0.5424 -0.4782
12700TIP3    H259592   1.591   6.188  15.696 -0.2229  2.0021 -0.5773
12701TIP3   OH259593   6.284   4.987  12.682 -0.5717  0.2786  0.5687
12701TIP3    H159594   6.284   4.957  12.591  1.6772  0.2450  0.5247
12701TIP3    H259595   6.359   4.942  12.722 -0.1767  1.9605  1.8356
12702TIP3   OH259596   4.173   5.335  11.164  0.3290 -0.3845 -0.0322
12702TIP3    H159597   4.079   5.354  11.158  0.5905  0.7174 -1.2575
12702TIP3    H259598   4.202   5.383  11.242 -0.0094 -0.1633 -0.0385
12703TIP3   OH259599   2.830   4.246  14.701  0.2170  0.2877  0.1116
12703TIP3    H159600   2.875   4.325  14.672  0.2032  0.4627  0.5637
12703TIP3    H259601   2.829   4.252  14.797 -0.2749  0.0165  0.1276
12704TIP3   OH259602   0.678   1.504   1.572 -0.2324 -0.0036 -0.2310
12704TIP3    H159603   0.615   1.569   1.542 -0.1994 -0.4111 -1.2170
12704TIP3    H259604   0.628   1.422   1.575 -0.8879  0.3912  3.1390
12705TIP3   OH259605   6.708   4.872   1.289  0.5214  0.1881 -0.1502
12705TIP3    H159606   6.796   4.835   1.286  0.7340  0.6609  0.1568
12705TIP3    H259607   6.651   4.795   1.298  0.9636 -0.0657  0.6135
12706TIP3   OH259608   5.000   0.254  15.754 -0.2814  0.8451 -0.1977
12706TIP3    H159609   5.078   0.309  15.762 -0.6257  1.0532  2.4159
12706TIP3    H259610   5.034   0.165  15.754 -0.0482  0.7819  3.8494
12707TIP3   OH259611   5.530   3.566  16.994 -0.3241  0.0894 -0.2761
12707TIP3    H159612   5.598   3.607  16.941  1.5583  0.8732  2.5243
12707TIP3    H259613   5.576   3.498  17.043 -2.5114 -2.4495 -1.4657
12708TIP3   OH259614   5.103   3.261   2.022 -0.0552 -0.3642  0.4823
12708TIP3    H159615   5.138   3.302   1.943 -1.7191 -1.2167 -0.7556
12708TIP3    H259616   5.036   3.323   2.054 -0.0421 -0.4562  0.6925
12709TIP3   OH259617   0.900   3.148  15.605  0.3392 -0.0516 -0.0404
12709TIP3    H159618   0.970   3.125  15.544 -0.0661 -0.0576 -0.5062
12709TIP3    H259619   0.863   3.229  15.570 -1.1280 -1.0318 -0.8736
12710TIP3   OH259620   5.297   6.454  12.226 -0.0607  0.3975 -0.6386
12710TIP3    H159621   5.355   6.489  12.294 -0.0938 -0.0279 -0.3903
12710TIP3    H259622   5.241   6.392  12.272 -1.4816  1.6237 -0.6465
12711TIP3   OH259623   3.427   3.815  17.102  0.2347 -0.0673  0.4638
12711TIP3    H159624   3.339   3.851  17.091  0.6247  0.9321  0.4842
12711TIP3    H259625   3.479   3.889  17.134  1.4125 -0.2092 -0.9894
12712TIP3   OH259626   1.802   4.385  12.542  0.0145 -0.1033  0.0276
12712TIP3    H159627   1.782   4.456  12.603  1.2123 -0.0030  0.3434
12712TIP3    H259628   1.864   4.424  12.480  0.3657 -0.7533 -0.0393
12713TIP3   OH259629   1.053   4.988   3.404 -0.9005  0.3820  0.0857
12713TIP3    H159630   1.037   4.907   3.354 -1.6898  0.6137 -0.0539
12713TIP3    H259631   1.054   4.960   3.495  2.8011 -0.4348 -0.0378
12714TIP3   OH259632   1.372   5.191  14.298  0.5423  0.4580  0.0877
12714TIP3    H159633   1.357   5.099  14.321  0.9306  0.9913  2.9033
12714TIP3    H259634   1.457   5.211  14.336  0.1545  2.1557  0.1244
12715TIP3   OH259635   4.130   0.876  17.126  0.0495 -0.0252  0.0627
12715TIP3    H159636   4.048   0.872  17.078 -0.0517 -1.1492  0.3029
12715TIP3    H259637   4.116   0.944  17.192 -0.0513  1.0365 -1.0067
12716TIP3   OH259638   0.143   3.644   5.433  0.0705  0.0055  0.3413
12716TIP3    H159639   0.182   3.660   5.519  1.5612  0.7775 -0.4299
12716TIP3    H259640   0.086   3.720   5.418  1.0979  0.7374 -0.0168
12717TIP3   OH259641   6.458   1.471  13.396 -0.0394 -0.4617  0.1261
12717TIP3    H159642   6.426   1.407  13.333 -2.5160 -0.3012  1.0826
12717TIP3    H259643   6.427   1.556  13.362 -0.7779 -0.3024  1.1536
12718TIP3   OH259644   5.790   5.214  11.803  0.0035 -0.1403  0.9094
12718TIP3    H159645   5.781   5.149  11.872  0.4008 -0.1971  0.9074
12718TIP3    H259646   5.740   5.290  11.835  0.9417  0.1747  1.6808
12719TIP3   OH259647   1.409   6.364  16.648 -0.4909 -0.3929 -0.7424
12719TIP3    H159648   1.400   6.421  16.572  1.2521 -0.6900 -1.2033
12719TIP3    H259649   1.406   6.422  16.723 -0.4258  0.1010 -1.1197
12720TIP3   OH259650   4.137   4.791   4.785 -0.0387  0.4574  0.6828
12720TIP3    H159651   4.231   4.777   4.772  0.1364  0.3872  1.9016
12720TIP3    H259652   4.130   4.825   4.874 -1.2898 -0.8505  1.1297
12721TIP3   OH259653   1.297   2.126  12.716 -0.5593 -1.0633 -0.5598
12721TIP3    H159654   1.327   2.072  12.789 -0.1731  0.8692  0.7930
12721TIP3    H259655   1.204   2.141  12.734 -0.3463 -0.1730 -0.1784
12722TIP3   OH259656   4.838   5.868   5.774 -0.0355  0.0166 -0.2762
12722TIP3    H159657   4.796   5.908   5.699  0.6310  0.1554 -0.5805
12722TIP3    H259658   4.931   5.884   5.761  0.0765  0.1932  0.6678
12723TIP3   OH259659   2.518   1.430  13.082 -0.2006 -0.1191 -0.2538
12723TIP3    H159660   2.519   1.376  13.162 -0.5027  1.7342  1.0554
12723TIP3    H259661   2.453   1.498  13.100  1.2963  1.6430 -1.1814
12724TIP3   OH259662   4.478   0.568   5.438  0.5302 -0.5376 -0.2063
12724TIP3    H159663   4.512   0.509   5.504  2.6474 -1.0288 -1.6302
12724TIP3    H259664   4.438   0.511   5.373 -1.8060 -0.0451  0.7121
12725TIP3   OH259665   5.176   1.520   1.708 -0.5640 -0.3168  0.6207
12725TIP3    H159666   5.187   1.464   1.631  0.6443 -0.9078  1.1799
12725TIP3    H259667   5.100   1.574   1.689 -0.3135 -0.4871 -0.9631
12726TIP3   OH259668   6.514   3.339  16.709 -0.1240 -0.2543  0.5701
12726TIP3    H159669   6.597   3.356  16.754  0.1807 -0.8818  0.2559
12726TIP3    H259670   6.528   3.373  16.620  0.2201 -1.3861  0.1661
12727TIP3   OH259671   5.684   6.546   1.994  0.3978  0.9522 -0.0232
12727TIP3    H159672   5.668   6.639   1.976  1.0398  1.0859  0.0672
12727TIP3    H259673   5.628   6.500   1.931  1.1939  1.4125 -1.1187
12728TIP3   OH259674   4.401   2.739   3.853  0.3639  0.0437 -0.2296
12728TIP3    H159675   4.367   2.656   3.818 -2.2253  1.4161 -1.2862
12728TIP3    H259676   4.467   2.767   3.789 -0.4902 -0.0739 -1.1936
12729TIP3   OH259677   5.642   2.937   6.193  0.9337  0.1736 -0.7576
12729TIP3    H159678   5.705   2.890   6.248 -0.3975 -2.6493 -1.4917
12729TIP3    H259679   5.625   2.878   6.120 -0.2888  2.1779 -2.1827
12730TIP3   OH259680   4.562   6.426   0.134 -0.2253  0.1191 -0.6526
12730TIP3    H159681   4.560   6.331   0.118 -0.3906  0.3331 -2.0086
12730TIP3    H259682   4.573   6.434   0.229  1.0033 -1.2535 -0.6481
12731TIP3   OH259683   5.229   5.969   3.670 -0.8568 -0.7724 -0.1772
12731TIP3    H159684   5.271   5.883   3.661 -1.7373 -1.2388  0.0658
12731TIP3    H259685   5.172   5.975   3.593 -1.0899 -0.5742  0.0135
12732TIP3   OH259686   6.263   4.203  11.767  0.4642  0.4794 -0.4103
12732TIP3    H159687   6.263   4.226  11.674 -1.8320  0.8675 -0.3791
12732TIP3    H259688   6.238   4.284  11.812 -1.3231 -0.3765  0.2480
12733TIP3   OH259689   1.134   2.798  12.888  0.4827  0.1448 -0.5289
12733TIP3    H159690   1.129   2.871  12.827  2.4028 -0.5347 -1.5753
12733TIP3    H259691   1.205   2.743  12.855  0.5278 -1.0867  1.4233
12734TIP3   OH259692   6.065   6.156  12.943 -0.7741  0.2533 -0.3082
12734TIP3    H159693   6.082   6.185  12.853  0.6806 -0.9821 -0.4764
12734TIP3    H259694   6.012   6.077  12.934  0.3526 -0.5452 -0.1749
12735TIP3   OH259695   1.215   0.615   4.500 -0.0356 -0.1212  0.4969
12735TIP3    H159696   1.298   0.640   4.541 -0.2189  1.9418 -0.2429
12735TIP3    H259697   1.224   0.523   4.479  1.2225 -0.4779  2.3890
12736TIP3   OH259698   2.403   0.758  13.383  0.6333 -0.0122  0.7514
12736TIP3    H159699   2.347   0.754  13.305  1.8571 -0.6823 -0.1264
12736TIP3    H259700   2.423   0.667  13.403  0.8198  0.1831  1.4908
12737TIP3   OH259701   1.542   4.930   6.867 -0.3008  0.3638  0.6679
12737TIP3    H159702   1.485   5.007   6.865 -0.7628  0.0159  0.3219
12737TIP3    H259703   1.488   4.861   6.906  0.4249  0.4559  1.8924
12738TIP3   OH259704   2.876   3.598   5.375 -0.0145 -0.1798  0.1420
12738TIP3    H159705   2.955   3.547   5.355  1.0364  1.4137  0.0911
12738TIP3    H259706   2.905   3.689   5.375 -1.9268  0.4754 -0.1632
12739TIP3   OH259707   1.220   2.581  13.113 -0.1131 -0.4285  0.2273
12739TIP3    H159708   1.244   2.621  13.029  0.8350 -0.2719  0.5638
12739TIP3    H259709   1.167   2.505  13.089 -0.3400 -0.0561 -0.4914
12740TIP3   OH259710   6.576   3.061  12.753 -0.4033  0.0160  0.1673
12740TIP3    H159711   6.492   3.068  12.798  0.7200  1.8460  2.1564
12740TIP3    H259712   6.570   3.125  12.681 -1.3771 -1.2971 -0.9783
12741TIP3   OH259713   3.813   4.495  12.240  0.5186 -0.3277  0.1131
12741TIP3    H159714   3.720   4.475  12.226  1.0925 -1.4838 -2.6912
12741TIP3    H259715   3.816   4.591  12.239 -0.6186 -0.2689  0.0654
12742TIP3   OH259716   4.641   3.033  13.172 -0.4662  0.0999  0.6598
12742TIP3    H159717   4.727   3.025  13.131 -0.2775  1.3233  0.7804
12742TIP3    H259718   4.659   3.031  13.266 -0.8513 -2.2335  0.7214
12743TIP3   OH259719   4.788   6.700   6.764 -0.2140  0.3301 -0.3842
12743TIP3    H159720   4.828   6.785   6.745  0.0058  0.4749  0.6717
12743TIP3    H259721   4.842   6.637   6.717  2.7574  0.2584  2.6995
12744TIP3   OH259722   1.520   3.148  13.442  0.5685 -0.0469 -0.2434
12744TIP3    H159723   1.463   3.134  13.367 -0.0445  0.4098  0.1272
12744TIP3    H259724   1.609   3.140  13.407  0.2784 -0.6065 -0.8532
12745TIP3   OH259725   1.269   0.291  12.333 -0.7832 -0.0048  0.5086
12745TIP3    H159726   1.244   0.382  12.347  1.6193  0.7388  0.3790
12745TIP3    H259727   1.361   0.295  12.305 -0.1557 -2.5311  1.8803
12746TIP3   OH259728   4.329   0.033   1.809  0.2992 -0.0750  0.1391
12746TIP3    H159729   4.324  -0.027   1.734 -0.5314 -0.1522  0.2473
12746TIP3    H259730   4.336   0.120   1.769  2.3658 -0.2609 -0.0245
12747TIP3   OH259731   0.512   1.280  16.315 -0.0341  0.6720  0.1925
12747TIP3    H159732   0.563   1.360  16.300  0.1086  0.5221 -0.1254
12747TIP3    H259733   0.467   1.265  16.232  0.0385  0.3503  0.2124
12748TIP3   OH259734   6.589   4.339   1.586  0.0323  0.2545 -0.3426
12748TIP3    H159735   6.629   4.426   1.592  2.4872 -0.6618 -1.9598
12748TIP3    H259736   6.546   4.339   1.501 -1.5536  0.4389  0.4196
12749TIP3   OH259737   2.961   4.503  15.963 -0.1247 -1.1083 -0.0531
12749TIP3    H159738   2.963   4.407  15.968  0.5036 -1.0282  1.6244
12749TIP3    H259739   2.868   4.524  15.956 -0.4049 -1.7804  1.3709
12750TIP3   OH259740   6.129   3.657   2.431 -0.2835  0.4608  0.5555
12750TIP3    H159741   6.110   3.724   2.497  1.0835  1.6073 -0.1574
12750TIP3    H259742   6.219   3.676   2.403  0.2134 -1.7757  0.4209
12751TIP3   OH259743   5.784   3.156  13.050 -0.3113 -0.1121  0.0852
12751TIP3    H159744   5.831   3.095  13.106 -0.5926 -0.5189 -0.1214
12751TIP3    H259745   5.771   3.110  12.967 -0.5162  0.2248 -0.0753
12752TIP3   OH259746   4.106   1.120  14.610 -0.1560  0.6865 -0.5330
12752TIP3    H159747   4.135   1.034  14.639  1.1885  1.4403  0.4395
12752TIP3    H259748   4.103   1.113  14.514  0.1021 -0.3716 -0.4767
12753TIP3   OH259749   4.592   6.650  12.706 -0.2200  0.1534 -0.0332
12753TIP3    H159750   4.633   6.600  12.777 -1.7153 -1.5493 -0.3066
12753TIP3    H259751   4.625   6.740  12.718  1.5257 -0.5962  1.2678
12754TIP3   OH259752   3.563   4.437  14.303  0.8495 -0.8514  0.1378
12754TIP3    H159753   3.517   4.439  14.219 -3.0768  1.3357  2.0180
12754TIP3    H259754   3.602   4.525  14.311  1.4333 -1.1374  0.4757
12755TIP3   OH259755   2.510   4.723   5.008 -0.1954  0.4363 -0.1175
12755TIP3    H159756   2.501   4.634   4.974 -0.3418  0.3451  0.1535
12755TIP3    H259757   2.602   4.731   5.032 -0.7529 -0.8003  2.9546
12756TIP3   OH259758   5.705   2.901  11.217 -0.6548 -0.2903 -0.3995
12756TIP3    H159759   5.746   2.987  11.228  0.3641 -0.7297 -0.6810
12756TIP3    H259760   5.742   2.867  11.136 -2.0556 -0.4455 -0.9944
12757TIP3   OH259761   4.962   4.459  16.237 -0.1204  0.3942  0.1298
12757TIP3    H159762   4.879   4.482  16.278 -0.2190 -0.0913  0.2044
12757TIP3    H259763   5.021   4.442  16.310 -1.0436 -3.3105  0.2083
12758TIP3   OH259764   6.193   2.346   3.470  0.2036  0.2731  0.3505
12758TIP3    H159765   6.259   2.386   3.413  0.8571  0.6969  1.3600
12758TIP3    H259766   6.175   2.261   3.431  2.1747 -0.3194  0.6259
12759TIP3   OH259767   3.020   5.685   1.286  0.0118 -0.8922 -0.2368
12759TIP3    H159768   3.052   5.676   1.197  1.3900 -1.1403  0.2565
12759TIP3    H259769   2.927   5.664   1.281 -0.0037 -0.5446 -1.6650
12760TIP3   OH259770   3.376   0.313  16.743 -0.1803  0.0368  0.1421
12760TIP3    H159771   3.291   0.298  16.784 -0.8629  0.0493 -1.2197
12760TIP3    H259772   3.440   0.287  16.810 -1.2592 -1.6152  0.5851
12761TIP3   OH259773   0.878   1.192  11.221 -0.3252 -0.6626  0.6481
12761TIP3    H159774   0.896   1.286  11.211 -1.3897 -0.4756  0.4180
12761TIP3    H259775   0.904   1.172  11.311 -0.7915  0.0158  0.9399
12762TIP3   OH259776   4.738   3.885   2.446  0.0492  0.4754 -0.9545
12762TIP3    H159777   4.810   3.938   2.413 -0.9167  2.0209 -0.6414
12762TIP3    H259778   4.662   3.943   2.447 -0.4167 -0.0136  2.1985
12763TIP3   OH259779   0.275   2.964   4.385  0.5373  0.0019 -0.2582
12763TIP3    H159780   0.343   3.025   4.411 -0.2303  0.5686  0.4697
12763TIP3    H259781   0.193   3.009   4.405 -0.0674 -1.6514  1.3267
12764TIP3   OH259782   4.137   5.579   6.012 -0.3244 -0.2710  0.0009
12764TIP3    H159783   4.202   5.636   6.052 -0.0178  0.2524 -1.1961
12764TIP3    H259784   4.145   5.496   6.059  0.1237  0.2674  0.8979
12765TIP3   OH259785   4.661   6.057  13.465 -0.5048 -0.2411 -0.4454
12765TIP3    H159786   4.644   6.032  13.556 -0.7977  0.0267 -0.4281
12765TIP3    H259787   4.748   6.098  13.467  0.2484 -1.7549 -0.5621
12766TIP3   OH259788   4.174   4.222   2.194 -0.3318 -0.4813 -0.4602
12766TIP3    H159789   4.160   4.311   2.226 -0.8627 -0.3510 -1.0241
12766TIP3    H259790   4.246   4.231   2.131 -0.2882 -0.4745 -0.4093
12767TIP3   OH259791   6.084   4.760  17.236  0.1347  0.1932  0.3774
12767TIP3    H159792   6.083   4.798  17.323 -1.8905 -0.8630  0.8684
12767TIP3    H259793   6.177   4.748  17.216  0.7378  2.5350  1.4039
12768TIP3   OH259794   3.372   6.801   1.133 -0.0927  0.4247 -0.0453
12768TIP3    H159795   3.317   6.730   1.168 -0.8998  1.2610  0.4375
12768TIP3    H259796   3.326   6.881   1.160  0.6766  1.1223 -0.7894
12769TIP3   OH259797   0.035   0.442  16.755  0.6533  0.6136 -0.0902
12769TIP3    H159798   0.015   0.360  16.799 -0.3702 -0.0905 -1.7399
12769TIP3    H259799   0.096   0.487  16.813  0.9254 -1.1262  1.0455
12770TIP3   OH259800   1.459   1.800   3.101 -0.0627  0.6350  0.1609
12770TIP3    H159801   1.376   1.847   3.099 -0.4575 -0.0678 -0.7562
12770TIP3    H259802   1.483   1.789   3.009 -0.3907 -1.6430  0.3065
12771TIP3   OH259803   2.760   5.221  10.728  0.0621  0.3458 -0.0381
12771TIP3    H159804   2.713   5.304  10.715  2.2514  1.7952  0.8438
12771TIP3    H259805   2.829   5.222  10.662  1.4118  0.2332  1.3397
12772TIP3   OH259806   1.800   4.048   1.578 -0.0279  0.5067 -0.1156
12772TIP3    H159807   1.859   4.123   1.577  0.4950  0.0981 -0.4118
12772TIP3    H259808   1.717   4.083   1.609  0.8529  0.7331  2.2176
12773TIP3   OH259809   2.069   1.766   1.258 -0.7902  0.0249 -0.4939
12773TIP3    H159810   2.032   1.844   1.299 -0.6169  1.2615 -2.5864
12773TIP3    H259811   2.065   1.699   1.327 -0.1056  2.0771  1.6791
12774TIP3   OH259812   1.868   3.541  12.683 -0.0132  0.1927  0.5422
12774TIP3    H159813   1.958   3.573  12.690  0.0750 -0.0981  0.7854
12774TIP3    H259814   1.816   3.619  12.667  0.0754  0.6116  2.1212
12775TIP3   OH259815   0.041   3.484   5.813  0.1583  0.1968 -0.1302
12775TIP3    H159816   0.054   3.401   5.768  2.1291  1.1533 -1.4671
12775TIP3    H259817  -0.050   3.508   5.793 -0.0088 -0.9812 -0.8664
12776TIP3   OH259818   0.006   0.304  12.368 -0.3332 -0.3525 -0.0358
12776TIP3    H159819   0.082   0.286  12.313 -0.6750 -0.7983 -0.3692
12776TIP3    H259820  -0.068   0.268  12.319 -0.7570  0.0801  0.2874
12777TIP3   OH259821   6.377   0.063   3.861 -0.9708 -0.0991  0.2572
12777TIP3    H159822   6.450   0.125   3.864  0.1602 -1.4258  1.5281
12777TIP3    H259823   6.356   0.046   3.952 -1.1578 -1.6570 -0.0417
12778TIP3   OH259824   5.099   3.666   0.419 -0.3739 -0.4660 -0.7004
12778TIP3    H159825   5.188   3.695   0.436 -1.2543  4.1139 -2.3168
12778TIP3    H259826   5.102   3.627   0.331 -0.0486  0.4380 -1.0982
12779TIP3   OH259827   2.630   5.633  14.948  0.1740 -0.3981  0.1967
12779TIP3    H159828   2.642   5.720  14.985  0.3052 -1.1145  1.9444
12779TIP3    H259829   2.555   5.597  14.996  1.3351 -1.9568  0.9120
12780TIP3   OH259830   6.230   0.417  11.209  0.1998 -0.5761 -0.2864
12780TIP3    H159831   6.207   0.418  11.116 -0.3754 -0.6077 -0.1474
12780TIP3    H259832   6.223   0.325  11.234 -1.5037 -0.3558  0.2250
12781TIP3   OH259833   0.960   3.423  16.739  0.3320 -0.6418  1.1420
12781TIP3    H159834   1.030   3.481  16.710 -0.7580  1.0006  1.6648
12781TIP3    H259835   0.987   3.393  16.826  0.5034 -0.2368  1.2281
12782TIP3   OH259836   6.286   0.307   2.263 -0.0274 -0.3511  0.2040
12782TIP3    H159837   6.232   0.285   2.187  2.0033 -1.0140 -1.1260
12782TIP3    H259838   6.316   0.396   2.246  0.4766 -0.5196  0.1902
12783TIP3   OH259839   0.767   4.281   3.951 -0.1974 -0.3847  0.4245
12783TIP3    H159840   0.707   4.249   3.884 -1.0728 -0.4974  1.2224
12783TIP3    H259841   0.711   4.335   4.008  0.7522  0.6317  0.4250
12784TIP3   OH259842   5.423   4.039   4.897 -0.3399  0.3441  0.4853
12784TIP3    H159843   5.470   4.087   4.965 -0.5083 -0.5036  1.2323
12784TIP3    H259844   5.368   3.977   4.946 -0.9807  0.1852 -0.4133
12785TIP3   OH259845   0.273   1.193   5.329 -0.0088 -0.1224  0.1716
12785TIP3    H159846   0.264   1.103   5.359  0.3670 -0.2167  0.0046
12785TIP3    H259847   0.185   1.230   5.339 -0.3525 -0.7305 -0.4725
12786TIP3   OH259848   3.655   0.778   2.751  0.1818 -0.3638 -0.3068
12786TIP3    H159849   3.715   0.779   2.677  0.7292 -0.3833  0.1280
12786TIP3    H259850   3.581   0.832   2.723  0.7971  0.3825 -0.5308
12787TIP3   OH259851   2.669   3.446  16.434  0.1638 -0.3047  0.1770
12787TIP3    H159852   2.669   3.414  16.344  1.9381  1.4599 -0.5314
12787TIP3    H259853   2.591   3.501  16.441  0.2513 -0.0961 -0.4325
12788TIP3   OH259854   1.484   5.687  15.216  0.7717 -0.7916  0.3914
12788TIP3    H159855   1.415   5.694  15.150 -0.0008 -0.3006  1.2327
12788TIP3    H259856   1.560   5.729  15.177  0.9515 -2.2920 -0.9850
12789TIP3   OH259857   0.533   6.045  15.948  0.6375  0.0166  0.3147
12789TIP3    H159858   0.475   5.970  15.936  1.1881 -0.4064  0.2501
12789TIP3    H259859   0.478   6.121  15.931  0.1051 -0.3798  0.2486
12790TIP3   OH259860   0.542   0.828   6.465  0.0070  0.2123  0.0935
12790TIP3    H159861   0.509   0.760   6.406 -0.4357  0.0900  0.4716
12790TIP3    H259862   0.636   0.812   6.469  0.5829  2.1025 -2.9467
12791TIP3   OH259863   0.985   5.980   4.964  0.8561  0.3597  0.4888
12791TIP3    H159864   1.019   5.940   5.044  3.4183 -1.2829 -1.2518
12791TIP3    H259865   1.037   6.059   4.953  0.9390  0.2598  0.1533
12792TIP3   OH259866   1.994   4.733  15.609 -0.2816 -0.8348 -0.1141
12792TIP3    H159867   2.047   4.686  15.674 -2.0991 -3.2735 -0.2645
12792TIP3    H259868   1.949   4.801  15.660  1.7302  0.3113  0.2675
12793TIP3   OH259869   0.488   5.103   2.881  0.1093  0.2222 -0.1482
12793TIP3    H159870   0.448   5.055   2.808  1.2987 -1.2129  0.0921
12793TIP3    H259871   0.581   5.079   2.876  0.1317 -0.3660  2.1683
12794TIP3   OH259872   1.166   3.223   6.668  0.3244  0.1363  0.4087
12794TIP3    H159873   1.203   3.148   6.714  0.6432  0.1737  0.2129
12794TIP3    H259874   1.136   3.188   6.584 -3.5124 -0.7228  1.9365
12795TIP3   OH259875   6.511   0.702  13.294 -0.2497  0.0252 -0.2666
12795TIP3    H159876   6.428   0.743  13.320  0.1332  0.9368 -0.4402
12795TIP3    H259877   6.509   0.616  13.335 -0.6490  0.5810  0.9144
12796TIP3   OH259878   4.020   0.091   2.375  0.0163 -0.3988 -0.1681
12796TIP3    H159879   4.013   0.066   2.467 -0.7931 -2.9390 -0.8587
12796TIP3    H259880   4.061   0.178   2.377 -2.4133  0.8322  2.6819
12797TIP3   OH259881   3.650   1.564   0.055  0.6020  0.5569  0.1624
12797TIP3    H159882   3.745   1.565   0.045  0.6588  0.8192  0.6988
12797TIP3    H259883   3.629   1.477   0.089  0.6493  0.5116  0.0765
12798TIP3   OH259884   3.575   6.517  11.553  0.0142  0.0273  0.6238
12798TIP3    H159885   3.561   6.424  11.539 -1.2628  0.2905  0.0520
12798TIP3    H259886   3.532   6.560  11.480  0.1558  1.0937  1.1410
12799TIP3   OH259887   2.786   0.251   1.653  0.2906  0.0437  0.5085
12799TIP3    H159888   2.756   0.203   1.730 -2.4900  1.8411  0.6748
12799TIP3    H259889   2.864   0.298   1.682 -0.1124 -0.1296  1.9379
12800TIP3   OH259890   0.495   4.748  16.747  0.3104 -0.2902  0.6259
12800TIP3    H159891   0.407   4.713  16.757  0.2786  0.1274  2.0526
12800TIP3    H259892   0.550   4.673  16.725 -0.4108 -0.5316 -0.3768
12801TIP3   OH259893   2.823   3.075  16.722 -0.0031  0.2667 -0.2399
12801TIP3    H159894   2.804   3.015  16.650  1.2668  1.2063 -1.4103
12801TIP3    H259895   2.781   3.035  16.798 -4.2729  0.7808 -2.0152
12802TIP3   OH259896   2.497   3.336  12.988  0.2055 -0.2008  0.2793
12802TIP3    H159897   2.582   3.312  12.953  1.1461  1.0393  1.5947
12802TIP3    H259898   2.505   3.429  13.010 -0.0528 -0.9208  4.2455
12803TIP3   OH259899   4.741   2.803   1.132  0.3947 -0.6168  0.1354
12803TIP3    H159900   4.769   2.711   1.141  0.7826 -0.4084  1.3219
12803TIP3    H259901   4.646   2.800   1.140  0.5010 -0.7858  1.7813
12804TIP3   OH259902   4.324   0.277  10.656 -0.3015 -0.1595  0.2533
12804TIP3    H159903   4.343   0.183  10.648  0.6085  0.1250 -1.3040
12804TIP3    H259904   4.229   0.283  10.643 -0.5889 -0.9664  1.6866
12805TIP3   OH259905   3.344   4.804  15.698 -0.2887 -0.3332 -0.4778
12805TIP3    H159906   3.379   4.717  15.720  1.6268  0.2776 -0.8655
12805TIP3    H259907   3.348   4.853  15.780  1.6750  0.2932 -0.8759
12806TIP3   OH259908   0.459   0.689  16.884  0.0071  0.4199  0.4398
12806TIP3    H159909   0.416   0.774  16.875 -1.8535 -0.4917  0.0966
12806TIP3    H259910   0.529   0.704  16.947  0.2908  2.3843 -0.2640
12807TIP3   OH259911   3.907   6.326   3.221  0.2902  0.4650 -0.8642
12807TIP3    H159912   3.923   6.234   3.202  0.4436  0.2593  0.2281
12807TIP3    H259913   3.991   6.369   3.203  0.2538  0.3749 -1.2531
12808TIP3   OH259914   2.040   3.939  15.205  0.1500 -0.6326 -0.5169
12808TIP3    H159915   2.019   3.994  15.280 -1.1333 -2.5756  0.6197
12808TIP3    H259916   2.067   4.001  15.137 -0.4044  1.3154  0.9542
12809TIP3   OH259917   6.225   4.197   4.864  0.1285  0.3040 -0.1000
12809TIP3    H159918   6.157   4.232   4.921 -0.6476 -2.4205  0.7764
12809TIP3    H259919   6.240   4.108   4.895  4.2517  0.7951 -0.1619
12810TIP3   OH259920   4.815   2.501  16.381  0.1579  0.2091 -0.0385
12810TIP3    H159921   4.825   2.557  16.305  0.7404  0.7373  0.4175
12810TIP3    H259922   4.763   2.552  16.442 -1.9041 -0.9210 -0.7661
12811TIP3   OH259923   4.229   3.091  12.458 -0.1995  0.5458 -0.6022
12811TIP3    H159924   4.309   3.128  12.496 -0.3554  0.6245 -0.3499
12811TIP3    H259925   4.260   3.039  12.384  0.3946 -1.9130  1.2495
12812TIP3   OH259926   3.195   6.077  15.165 -0.6392 -0.2770 -0.1422
12812TIP3    H159927   3.253   6.075  15.241  0.7669  0.2652 -1.1587
12812TIP3    H259928   3.112   6.043  15.197  0.5685 -2.2728  1.0822
12813TIP3   OH259929   4.602   1.623  14.848  0.0040 -0.5241 -0.0077
12813TIP3    H159930   4.588   1.530  14.828  2.1289 -1.2530  1.5544
12813TIP3    H259931   4.620   1.625  14.941  1.0339  1.3357 -0.2058
12814TIP3   OH259932   5.860   6.581  16.386  0.1543 -0.0626  0.1017
12814TIP3    H159933   5.919   6.655  16.372 -0.4408  0.1166 -1.6809
12814TIP3    H259934   5.773   6.619  16.383 -0.4735 -1.1360 -4.8855
12815TIP3   OH259935   5.960   3.228  12.600 -0.1310  0.2316  0.1063
12815TIP3    H159936   6.021   3.300  12.580  0.3807 -0.1321  0.3507
12815TIP3    H259937   5.988   3.157  12.543  0.3793 -0.3058  1.0079
12816TIP3   OH259938   1.462   5.382   1.145  0.8977 -0.2690 -0.1110
12816TIP3    H159939   1.416   5.332   1.213  0.3109  2.4491  1.6641
12816TIP3    H259940   1.453   5.473   1.173  2.0608  0.8529 -3.0412
12817TIP3   OH259941   3.346   3.173  13.419  0.0222 -0.4156  0.0639
12817TIP3    H159942   3.421   3.113  13.414 -0.1586 -0.6449  0.1159
12817TIP3    H259943   3.335   3.205  13.329  0.5376  0.0566  0.1588
12818TIP3   OH259944   1.195   5.588  10.525 -0.7875 -0.1059  0.1860
12818TIP3    H159945   1.111   5.610  10.564 -0.7484  0.3744 -0.0027
12818TIP3    H259946   1.254   5.658  10.552 -0.6676  0.0384 -0.4206
12819TIP3   OH259947   0.294   1.262  16.654 -0.2332 -0.2831 -0.2648
12819TIP3    H159948   0.263   1.305  16.734  0.5659 -1.7074  0.8506
12819TIP3    H259949   0.360   1.323  16.619  0.1126 -0.0744  0.7004
12820TIP3   OH259950   6.457   2.447  13.987  0.6923  0.6430 -0.4782
12820TIP3    H159951   6.500   2.384  14.046  0.9633  2.7675  1.7415
12820TIP3    H259952   6.422   2.514  14.045 -0.9636  1.7699 -2.6501
12821TIP3   OH259953   5.720   4.870   2.766  0.2116 -0.0515  0.6308
12821TIP3    H159954   5.739   4.786   2.809  0.5158  0.1515  0.9018
12821TIP3    H259955   5.626   4.867   2.747 -0.0881  0.1339  1.9670
12822TIP3   OH259956   6.560   1.946  14.960  0.4191  0.0981 -0.2966
12822TIP3    H159957   6.481   1.911  15.001  1.8882 -0.6095  2.1732
12822TIP3    H259958   6.586   2.018  15.017  2.8267 -1.2281  0.4236
12823TIP3   OH259959   1.579   1.965  13.309  0.2022 -0.6198 -0.4122
12823TIP3    H159960   1.582   1.870  13.302  0.7746 -0.7365  1.0798
12823TIP3    H259961   1.519   1.982  13.381  0.3421  0.1372 -0.4703
12824TIP3   OH259962   4.829   2.598   4.901 -0.0771 -0.2560 -0.0275
12824TIP3    H159963   4.902   2.633   4.850  0.0420 -0.2263  0.1644
12824TIP3    H259964   4.834   2.644   4.985  1.2202 -2.0369  0.9404
12825TIP3   OH259965   5.428   3.585   5.319 -0.2206 -0.2596  0.1306
12825TIP3    H159966   5.407   3.534   5.397  0.1921 -0.4662  0.1056
12825TIP3    H259967   5.413   3.676   5.345 -0.2281 -0.3383  0.4003
12826TIP3   OH259968   6.554   5.992   1.774  0.1837  0.1094 -0.1390
12826TIP3    H159969   6.470   6.014   1.734  1.2230 -0.8998 -3.1032
12826TIP3    H259970   6.543   5.901   1.803 -0.3069  0.5896  1.2946
12827TIP3   OH259971   1.869   1.613  16.472  0.1237 -0.3243  0.2480
12827TIP3    H159972   1.912   1.585  16.391 -0.3330 -0.1125 -0.0724
12827TIP3    H259973   1.780   1.634  16.445  0.2890  0.8857  0.5815
12828TIP3   OH259974   5.833   6.513   4.600  0.1048 -0.3136 -0.1275
12828TIP3    H159975   5.827   6.608   4.590  0.2288 -0.3724 -0.8355
12828TIP3    H259976   5.867   6.500   4.689 -0.0108  0.2978  0.0108
12829TIP3   OH259977   4.737   4.278  13.727 -0.2030 -0.2497 -0.0900
12829TIP3    H159978   4.753   4.352  13.669  1.3960  1.1927  2.0254
12829TIP3    H259979   4.652   4.297  13.766  0.5122  0.9359  0.9798
12830TIP3   OH259980   0.578   5.685  11.511 -0.7614  0.1224 -0.1506
12830TIP3    H159981   0.550   5.650  11.596  0.8433 -2.5067 -0.6080
12830TIP3    H259982   0.673   5.672  11.511 -0.5676  1.3272 -1.8343
12831TIP3   OH259983   2.198   3.141  15.040  0.6309  0.7438 -0.2445
12831TIP3    H159984   2.283   3.107  15.066  0.0211 -1.4748 -0.9066
12831TIP3    H259985   2.214   3.190  14.960  1.3509  0.7738 -0.0845
12832TIP3   OH259986   0.659   3.494  17.073 -0.8783  0.4150 -0.1650
12832TIP3    H159987   0.739   3.459  17.035  0.0463 -0.8693  2.6356
12832TIP3    H259988   0.684   3.580  17.106 -1.1414  0.7338 -0.7939
12833TIP3   OH259989   1.057   3.029   5.984 -0.0783  0.3152 -0.0613
12833TIP3    H159990   0.973   3.031   6.030 -0.5226  0.0356 -0.8473
12833TIP3    H259991   1.120   3.003   6.051 -0.7092 -0.0968  0.3848
12834TIP3   OH259992   3.618   2.650  16.245  0.2189  0.5097 -0.4335
12834TIP3    H159993   3.603   2.704  16.323 -2.7072 -1.6555  0.6941
12834TIP3    H259994   3.670   2.577  16.277 -1.4682 -0.6784 -0.2937
12835TIP3   OH259995   5.338   5.319   3.074  0.4492 -0.1230 -0.4165
12835TIP3    H159996   5.314   5.387   3.138 -0.2781 -1.2430  0.5478
12835TIP3    H259997   5.296   5.346   2.993 -2.9274 -1.1757  0.8041
12836TIP3   OH259998   4.860   4.079   4.924  0.1436 -0.1300 -0.7732
12836TIP3    H159999   4.951   4.068   4.954  0.5939  0.9355 -1.6905
12836TIP3    H260000   4.830   4.157   4.969 -0.3037 -0.4319 -0.5413
12837TIP3   OH260001   1.294   1.911  15.623 -0.0752  0.0839  0.2116
12837TIP3    H160002   1.304   1.962  15.704 -0.1189 -0.3798  0.5142
12837TIP3    H260003   1.220   1.853  15.640  0.9810 -1.2267  0.4866
12838TIP3   OH260004   0.799   3.770  15.593 -0.8609  0.1424 -0.0253
12838TIP3    H160005   0.768   3.747  15.681 -1.0922  0.9278  0.1057
12838TIP3    H260006   0.895   3.769  15.601 -0.8730 -0.4153  0.0674
12839TIP3   OH260007   2.623   3.500  13.487 -0.3714  0.1466  0.3879
12839TIP3    H160008   2.561   3.555  13.535 -1.4967 -0.1209 -0.7075
12839TIP3    H260009   2.695   3.560  13.463 -0.1907  0.4627  1.6516
12840TIP3   OH260010   5.623   2.994  16.520 -0.8926 -0.3687 -0.2644
12840TIP3    H160011   5.624   3.004  16.615 -1.9590 -0.1238 -0.2704
12840TIP3    H260012   5.640   2.901  16.505 -0.2527 -0.3243  0.1371
12841TIP3   OH260013   5.915   6.395  11.893  0.4954  0.4937  0.2079
12841TIP3    H160014   5.958   6.322  11.849  0.0985  1.2508 -1.5435
12841TIP3    H260015   5.822   6.380  11.881  0.4162  1.5437 -0.6894
12842TIP3   OH260016   1.654   4.174  11.607  0.3595 -0.4000 -0.1113
12842TIP3    H160017   1.579   4.217  11.649  1.6771 -0.3599  2.3875
12842TIP3    H260018   1.698   4.244  11.559  0.4149  0.2649  0.8667
12843TIP3   OH260019   0.239   2.752  11.184  0.5824 -0.0093 -0.3621
12843TIP3    H160020   0.212   2.706  11.105  2.7348  0.6111 -1.5413
12843TIP3    H260021   0.236   2.845  11.161  1.1468  0.1838  0.2980
12844TIP3   OH260022   4.145   1.401   4.871  0.1095 -0.2223  0.6996
12844TIP3    H160023   4.065   1.448   4.892  0.6114  1.3190 -0.6496
12844TIP3    H260024   4.216   1.460   4.897  0.7553 -0.3334 -0.6994
12845TIP3   OH260025   1.035   0.196   1.853 -0.8703 -0.0797  0.4501
12845TIP3    H160026   1.004   0.284   1.834 -1.7333 -0.6920 -1.1796
12845TIP3    H260027   0.974   0.163   1.920 -0.5639  0.5421  1.0377
12846TIP3   OH260028   3.671   5.309  14.480  0.3419 -0.1206 -0.2933
12846TIP3    H160029   3.627   5.382  14.521  1.8342  0.1521  0.9230
12846TIP3    H260030   3.720   5.348  14.407  3.3936  0.7356  1.9821
12847TIP3   OH260031   4.145   3.814   2.089 -0.4085 -0.6748 -0.3257
12847TIP3    H160032   4.066   3.764   2.068  0.8197 -2.2976 -1.3423
12847TIP3    H260033   4.217   3.753   2.072  1.0504  0.4430  1.4736
12848TIP3   OH260034   5.877   1.274  14.189  0.2172  0.1250 -0.1124
12848TIP3    H160035   5.893   1.253  14.097  1.0453  1.8618 -0.3913
12848TIP3    H260036   5.800   1.331  14.188 -0.4829 -0.7773  0.4042
12849TIP3   OH260037   6.388   3.847  16.107  0.1289 -0.6701 -0.3334
12849TIP3    H160038   6.480   3.872  16.103  0.1443 -0.8281 -1.7529
12849TIP3    H260039   6.345   3.905  16.044 -0.6759 -0.8443  0.0443
12850TIP3   OH260040   0.427   4.209  11.960 -0.6225  0.4628 -0.2942
12850TIP3    H160041   0.460   4.296  11.939 -0.9901  0.4899 -0.7689
12850TIP3    H260042   0.334   4.223  11.979 -0.7171  0.1553 -0.5219
12851TIP3   OH260043   4.888   1.135  15.743  0.0021 -0.1883  0.5200
12851TIP3    H160044   4.812   1.176  15.784  1.6887  0.7338  2.8740
12851TIP3    H260045   4.908   1.060  15.799 -1.3019 -2.7314 -2.1465
12852TIP3   OH260046   2.433   4.224  11.894  0.4088  0.6496 -0.7946
12852TIP3    H160047   2.386   4.286  11.838 -0.4929  2.4225  1.7074
12852TIP3    H260048   2.478   4.280  11.958 -0.4910 -1.2251  1.6358
12853TIP3   OH260049   4.832   1.753   3.588 -0.0920 -0.3900  0.6371
12853TIP3    H160050   4.770   1.682   3.574 -0.0768 -0.1970 -0.4465
12853TIP3    H260051   4.792   1.829   3.546  0.7702 -0.2105  0.1162
12854TIP3   OH260052   1.651   3.829  16.743 -0.0528 -0.0848 -0.4752
12854TIP3    H160053   1.741   3.795  16.734 -0.6278 -1.3997 -1.8462
12854TIP3    H260054   1.655   3.887  16.818  1.9264 -0.2139 -0.4088
12855TIP3   OH260055   6.360   2.260   2.274 -0.0403  0.0021  0.1498
12855TIP3    H160056   6.451   2.292   2.268 -0.0360  0.4685  1.9781
12855TIP3    H260057   6.321   2.284   2.190  1.5367 -0.2672 -0.7101
12856TIP3   OH260058   3.549   5.105  10.613  0.3436 -0.0482 -0.0339
12856TIP3    H160059   3.601   5.181  10.641 -0.8315  0.9009 -0.3797
12856TIP3    H260060   3.465   5.141  10.586 -0.3624 -1.5143  0.0923
12857TIP3   OH260061   1.996   0.121  10.564  0.4785 -0.0742  0.3057
12857TIP3    H160062   2.038   0.179  10.626 -0.6181  0.0958  0.9234
12857TIP3    H260063   1.907   0.155  10.555 -0.0695 -1.4117  0.3714
12858TIP3   OH260064   3.924   5.937   1.871  0.0547 -0.1543 -0.0289
12858TIP3    H160065   4.016   5.912   1.880 -0.1384 -0.5997  0.8223
12858TIP3    H260066   3.876   5.870   1.921 -0.5801  1.2207  1.2612
12859TIP3   OH260067   6.769   2.007   4.708  0.2227  0.1476  0.6641
12859TIP3    H160068   6.711   1.940   4.671  0.0189  0.6024  0.1456
12859TIP3    H260069   6.743   2.088   4.664  2.3661  0.1069 -0.8209
12860TIP3   OH260070   4.277   1.289  10.965 -0.3045 -0.3503  0.6252
12860TIP3    H160071   4.258   1.360  11.026 -1.8126  0.3933 -0.6145
12860TIP3    H260072   4.230   1.213  11.001 -0.5821 -0.1115  0.7690
12861TIP3   OH260073   3.479   0.713  13.855 -0.3021 -0.0381  0.2000
12861TIP3    H160074   3.520   0.765  13.786  0.1368 -0.7335 -0.0777
12861TIP3    H260075   3.492   0.763  13.935  0.4579  0.0906 -0.0007
12862TIP3   OH260076   1.497   6.020   1.738  0.7877 -0.2160  0.4548
12862TIP3    H160077   1.508   5.926   1.727  1.4999  0.1123 -2.1122
12862TIP3    H260078   1.521   6.036   1.830  0.1388 -2.5623  1.1112
12863TIP3   OH260079   4.940   6.135   2.515  0.2965  0.1158  0.1963
12863TIP3    H160080   4.888   6.184   2.580  1.7963  0.1413  1.4309
12863TIP3    H260081   4.882   6.064   2.487 -1.6283  2.0283 -0.9925
12864TIP3   OH260082   0.224   2.302  16.915  0.3283 -0.5106  0.7521
12864TIP3    H160083   0.164   2.339  16.850  1.1508  1.8098  1.2185
12864TIP3    H260084   0.171   2.236  16.961 -1.0757 -0.3030 -0.4916
12865TIP3   OH260085   1.725   5.041  11.647 -0.0003  0.2726 -0.2992
12865TIP3    H160086   1.660   4.974  11.670  2.1311 -1.4544  1.0536
12865TIP3    H260087   1.672   5.115  11.617 -2.4772 -2.3385 -3.0932
12866TIP3   OH260088   4.804   4.438  12.819  0.1621 -0.0745  0.2803
12866TIP3    H160089   4.731   4.493  12.790  1.9799  2.7220  0.7339
12866TIP3    H260090   4.817   4.376  12.746 -0.4582  1.6343 -1.3590
12867TIP3   OH260091   4.145   2.541  13.668  0.1505  0.2737  0.1906
12867TIP3    H160092   4.200   2.617  13.651 -1.2171  1.2863  0.1264
12867TIP3    H260093   4.126   2.546  13.762  0.8978 -0.5932  0.4020
12868TIP3   OH260094   3.237   0.113  11.351  1.1588  0.1091 -0.2721
12868TIP3    H160095   3.253   0.195  11.304 -0.1787  0.6476  0.1533
12868TIP3    H260096   3.163   0.073  11.305  1.4496 -0.5947 -0.1361
12869TIP3   OH260097   0.275   0.129  14.594 -0.0978 -0.1005  0.0609
12869TIP3    H160098   0.215   0.074  14.543  1.0333 -0.9230 -0.4217
12869TIP3    H260099   0.287   0.082  14.676 -0.0243  0.0072  0.1117
12870TIP3   OH260100   2.876   4.081   1.943 -0.1775  0.1033  0.0900
12870TIP3    H160101   2.801   4.134   1.915  0.3854  1.1803  0.5700
12870TIP3    H260102   2.854   4.054   2.032 -0.0571  0.3260  0.1895
12871TIP3   OH260103   2.844   2.210  15.028  0.2687  0.0108  0.1854
12871TIP3    H160104   2.824   2.303  15.035  1.0032  0.0450  2.6912
12871TIP3    H260105   2.939   2.206  15.033  0.2000 -0.9261  0.8384
12872TIP3   OH260106   1.027   1.349  15.745 -0.0677  0.0711  0.7373
12872TIP3    H160107   1.097   1.324  15.804  2.3678  3.8635 -0.1913
12872TIP3    H260108   1.063   1.332  15.657 -0.8889  0.7341  0.2602
12873TIP3   OH260109   2.714   3.236  10.787  0.5830  0.3251 -0.2497
12873TIP3    H160110   2.745   3.183  10.713 -1.3125 -0.3040 -0.6397
12873TIP3    H260111   2.630   3.270  10.759  0.3655  1.0524  1.1895
12874TIP3   OH260112   5.223   0.529  11.467  0.7679  0.6854 -0.2521
12874TIP3    H160113   5.202   0.620  11.447  1.7759  1.2118  0.9784
12874TIP3    H260114   5.247   0.491  11.382  0.6628  1.6544 -0.7274
12875TIP3   OH260115   5.800   1.071   0.412 -0.2116 -0.5080 -0.2598
12875TIP3    H160116   5.832   1.005   0.473 -1.0249 -0.5680  0.1085
12875TIP3    H260117   5.825   1.037   0.326  1.1997 -0.2797  0.0294
12876TIP3   OH260118   4.760   0.625  16.938  0.4996  0.2274  0.1906
12876TIP3    H160119   4.708   0.594  17.012  1.4115 -0.6041  0.5175
12876TIP3    H260120   4.710   0.601  16.861  0.5367 -0.8517  0.4880
12877TIP3   OH260121   2.773   6.635  13.979 -0.1288 -0.4599 -0.4805
12877TIP3    H160122   2.688   6.670  13.952 -0.8703 -1.6897  0.1137
12877TIP3    H260123   2.837   6.680  13.924 -0.9198  2.1636  0.5935
12878TIP3   OH260124   6.718   1.959   6.475  0.1572 -0.5109  0.2651
12878TIP3    H160125   6.804   1.927   6.446 -0.1063 -1.1118  0.1287
12878TIP3    H260126   6.704   2.039   6.424  0.5859 -0.4664  0.2103
12879TIP3   OH260127   1.282   6.710  16.674 -0.4206  0.7496  0.1507
12879TIP3    H160128   1.188   6.710  16.693 -0.2791 -1.8295  1.1972
12879TIP3    H260129   1.289   6.665  16.590 -0.1601  1.9040 -0.4705
12880TIP3   OH260130   0.805   4.690   1.850 -0.1396  0.5545 -0.1131
12880TIP3    H160131   0.805   4.763   1.788 -0.5695 -1.0722 -2.1607
12880TIP3    H260132   0.897   4.664   1.855 -0.2783 -0.3495 -1.4821
12881TIP3   OH260133   4.823   4.589   1.914  0.3221  0.4660  0.4963
12881TIP3    H160134   4.756   4.523   1.931  1.6003 -0.9064  0.4418
12881TIP3    H260135   4.777   4.673   1.920 -1.6627 -0.4538 -0.7666
12882TIP3   OH260136   1.048   0.442   5.325  0.5150 -0.0508 -0.0974
12882TIP3    H160137   1.005   0.459   5.409  0.3978  0.9447 -0.3436
12882TIP3    H260138   1.057   0.347   5.321  0.4020 -0.1157  0.9823
12883TIP3   OH260139   5.668   4.499   3.167 -0.9455 -0.0078  0.5209
12883TIP3    H160140   5.623   4.440   3.228  0.2248 -2.5650 -0.9638
12883TIP3    H260141   5.614   4.498   3.088 -0.4880  0.2993  0.1994
12884TIP3   OH260142   4.475   1.242  17.091  0.3743  0.0724  0.4901
12884TIP3    H160143   4.461   1.207  17.004  1.9952  1.0763 -0.2220
12884TIP3    H260144   4.494   1.335  17.077  1.6925  0.0375  1.7956
12885TIP3   OH260145   0.920   3.670  13.841  0.3799  0.0942 -0.3551
12885TIP3    H160146   0.966   3.732  13.785  2.6313 -0.1652  1.0587
12885TIP3    H260147   0.986   3.604  13.863 -0.8121 -0.5988  1.4174
12886TIP3   OH260148   5.034   1.458   3.662  0.3218 -0.0517 -0.6636
12886TIP3    H160149   5.054   1.379   3.612 -1.0042  0.2384 -1.7181
12886TIP3    H260150   4.973   1.507   3.606 -0.5048  0.7182  0.8454
12887TIP3   OH260151   1.035   5.288  15.987  0.2492  0.1400  0.0225
12887TIP3    H160152   1.002   5.355  15.927 -0.4233 -0.6914 -0.5518
12887TIP3    H260153   0.996   5.207  15.956 -0.5717 -0.2437  1.9294
12888TIP3   OH260154   5.269   4.288  16.098 -0.1254 -1.0359  0.0871
12888TIP3    H160155   5.301   4.260  16.183  0.2166 -2.2294 -0.4142
12888TIP3    H260156   5.197   4.228  16.078  0.5830 -1.5652 -0.9844
12889TIP3   OH260157   2.827   4.510  10.914  0.0522 -0.0866  0.0140
12889TIP3    H160158   2.809   4.416  10.914 -1.4293  0.1446  1.5215
12889TIP3    H260159   2.743   4.551  10.892  0.3314  0.9054  0.6963
12890TIP3   OH260160   2.189   0.085  12.798 -0.0682  0.1337 -0.4080
12890TIP3    H160161   2.196   0.179  12.813  2.4458  0.7041 -3.8977
12890TIP3    H260162   2.110   0.075  12.745  0.1800  0.4297 -0.8404
12891TIP3   OH260163   2.351   5.472  12.292  0.0944  0.0697 -0.0604
12891TIP3    H160164   2.296   5.429  12.226  0.3365 -1.6424  0.7733
12891TIP3    H260165   2.307   5.555  12.310 -1.5254 -0.6889 -0.3485
12892TIP3   OH260166   0.063   1.317   3.951 -0.5284  0.3921 -0.3125
12892TIP3    H160167   0.081   1.226   3.928  1.4732  1.0038 -1.3948
12892TIP3    H260168   0.143   1.347   3.994 -0.9655  1.7903 -0.4276
12893TIP3   OH260169   2.806   2.564   5.152 -0.0701  0.4670 -0.1302
12893TIP3    H160170   2.711   2.571   5.158  0.0820  2.4643  0.4079
12893TIP3    H260171   2.821   2.504   5.078 -1.7213  0.6838 -0.6775
12894TIP3   OH260172   4.532   5.275  12.927 -0.2937  0.0021 -0.6599
12894TIP3    H160173   4.607   5.284  12.869  0.3236  1.1551  0.2734
12894TIP3    H260174   4.570   5.252  13.012 -1.0804 -0.4964 -0.4333
12895TIP3   OH260175   6.006   3.825  11.460  0.2575 -0.2297  0.0064
12895TIP3    H160176   6.003   3.919  11.482 -0.8062 -0.4759  0.9995
12895TIP3    H260177   6.017   3.823  11.365  1.0215  0.8961  0.0478
12896TIP3   OH260178   0.513   1.476   4.426 -0.4712  0.5440 -0.1126
12896TIP3    H160179   0.516   1.448   4.334  0.6185 -1.3309  0.4313
12896TIP3    H260180   0.431   1.525   4.434 -1.8791 -1.4178 -1.5116
12897TIP3   OH260181   4.594   4.540  13.280  0.7128  0.0042 -0.6149
12897TIP3    H160182   4.511   4.586  13.294  0.6082  0.1982 -1.7711
12897TIP3    H260183   4.653   4.607  13.245  2.0387  0.4025  2.1406
12898TIP3   OH260184   2.652   3.075  12.931 -0.1819 -0.5207  0.2253
12898TIP3    H160185   2.745   3.095  12.919  0.5235 -1.7054  2.9548
12898TIP3    H260186   2.642   2.986  12.897 -0.2647 -0.4660  0.1072
12899TIP3   OH260187   1.498   6.019   5.773 -0.3627  0.0360  0.1244
12899TIP3    H160188   1.542   6.004   5.857 -0.9080  1.7904  0.7691
12899TIP3    H260189   1.418   6.067   5.796 -0.0308  1.4414 -1.4793
12900TIP3   OH260190   1.353   5.378   5.309 -0.3909  0.5175  0.1869
12900TIP3    H160191   1.348   5.473   5.310  1.5283  0.7466 -2.1794
12900TIP3    H260192   1.309   5.352   5.228  1.1499 -0.3444 -0.4220
12901TIP3   OH260193   2.579   0.344  15.432  0.3686 -0.5543 -0.0950
12901TIP3    H160194   2.552   0.278  15.495  1.6708 -0.7035  0.3445
12901TIP3    H260195   2.619   0.293  15.360  1.2126 -0.2726  0.1632
12902TIP3   OH260196   0.424   5.448  13.254 -0.4114  0.2389  0.1459
12902TIP3    H160197   0.485   5.511  13.215 -3.2969  2.6107 -0.9471
12902TIP3    H260198   0.420   5.376  13.191 -1.0056  1.5429 -1.3810
12903TIP3   OH260199   1.508   5.504   1.802  0.4359 -0.5884  0.5470
12903TIP3    H160200   1.476   5.563   1.870  0.4942 -0.9858  0.9321
12903TIP3    H260201   1.429   5.464   1.766  0.2139  1.2874 -1.2270
12904TIP3   OH260202   2.951   1.296   4.182  0.6806  0.0960  0.4048
12904TIP3    H160203   2.986   1.227   4.238  2.3380  0.1797 -0.4712
12904TIP3    H260204   3.018   1.364   4.182  1.1391 -0.2492 -2.2805
12905TIP3   OH260205   5.549   4.599   0.092  0.3789 -0.3346  0.6556
12905TIP3    H160206   5.643   4.610   0.082  0.0742  1.4621 -0.8292
12905TIP3    H260207   5.538   4.509   0.123  2.5155 -0.8379  0.0903
12906TIP3   OH260208   0.921   6.572   2.900 -0.2467 -0.5462 -0.5693
12906TIP3    H160209   0.929   6.614   2.986 -0.3143 -1.1076 -0.2879
12906TIP3    H260210   0.830   6.541   2.896 -0.3957 -0.0681 -1.0554
12907TIP3   OH260211   1.951   0.072  12.647  0.1319  0.7364  0.2190
12907TIP3    H160212   1.946  -0.022  12.666  1.4339  0.9585  1.8412
12907TIP3    H260213   1.879   0.087  12.586  0.9923 -1.6384 -1.5479
12908TIP3   OH260214   1.992   1.835   2.881 -0.0326 -0.4586 -0.3594
12908TIP3    H160215   1.930   1.783   2.933 -2.1109 -0.3899 -2.6268
12908TIP3    H260216   2.005   1.784   2.801  2.1395  0.0148 -0.3846
12909TIP3   OH260217   6.007   6.216   2.946 -0.5084  0.1935  0.1982
12909TIP3    H160218   6.085   6.241   2.996  0.3136 -0.8468 -0.5401
12909TIP3    H260219   5.940   6.279   2.974  0.3724  0.6293  1.4104
12910TIP3   OH260220   5.942   3.636  13.771 -0.6035 -0.1067  0.1593
12910TIP3    H160221   5.921   3.730  13.768  0.4682  0.1353 -1.5489
12910TIP3    H260222   5.912   3.603  13.686 -2.5720 -1.7380  1.4065
12911TIP3   OH260223   3.102   6.422   6.199 -0.1224  0.3353 -0.7358
12911TIP3    H160224   3.034   6.469   6.247 -1.8318 -0.9143 -1.8423
12911TIP3    H260225   3.082   6.330   6.214  1.1835 -0.0576 -1.3153
12912TIP3   OH260226   1.344   5.802   0.419  0.1463  0.3366 -0.1420
12912TIP3    H160227   1.417   5.831   0.473 -0.4692  2.8750 -0.5719
12912TIP3    H260228   1.344   5.706   0.429  2.5366  0.3918  1.0703
12913TIP3   OH260229   2.482   5.150  15.115  0.2881 -0.3257 -0.0848
12913TIP3    H160230   2.407   5.199  15.149 -1.0854 -0.3711 -2.7563
12913TIP3    H260231   2.541   5.217  15.080  0.7834 -0.3828  0.6064
12914TIP3   OH260232   6.517   3.281   5.393 -0.1762 -0.0597  0.8239
12914TIP3    H160233   6.546   3.239   5.475  1.2539 -1.4647 -0.3308
12914TIP3    H260234   6.579   3.352   5.380  0.6671 -0.8957  0.1311
12915TIP3   OH260235   4.673   0.447  12.729  0.4453 -0.0195  0.0645
12915TIP3    H160236   4.640   0.482  12.646 -2.0258 -1.4140  0.3700
12915TIP3    H260237   4.660   0.518  12.792  1.8087  0.8410 -0.5729
12916TIP3   OH260238   4.315   2.214   1.500  0.3226 -0.3214  0.0009
12916TIP3    H160239   4.408   2.234   1.490  0.2647 -0.4740 -0.9484
12916TIP3    H260240   4.271   2.266   1.433 -0.6972  2.4533  2.6105
12917TIP3   OH260241   3.275   4.238  16.108 -0.3883  0.6524  0.3293
12917TIP3    H160242   3.197   4.283  16.076 -0.0255  2.6383  2.0413
12917TIP3    H260243   3.240   4.167  16.163 -1.0019  1.2471  0.7233
12918TIP3   OH260244   6.419   0.940  16.112  0.5421  0.4619  0.1118
12918TIP3    H160245   6.428   0.861  16.164  0.6068 -0.3763 -1.1267
12918TIP3    H260246   6.503   0.949  16.066  0.4182  1.0592 -0.0147
12919TIP3   OH260247   1.047   2.983  13.368  0.0688  0.0931  0.5029
12919TIP3    H160248   1.026   2.967  13.276  2.1506 -1.0305  0.1554
12919TIP3    H260249   1.086   2.901  13.398 -0.5902  0.4317  2.4228
12920TIP3   OH260250   3.148   4.416   1.959  0.2314 -0.7838  0.3852
12920TIP3    H160251   3.133   4.322   1.963  1.6273 -1.0483 -0.0689
12920TIP3    H260252   3.214   4.433   2.026  1.2083 -0.4194 -0.6359
12921TIP3   OH260253   5.491   3.700   5.729  0.7632 -0.5309 -0.1829
12921TIP3    H160254   5.560   3.737   5.674 -0.4126  1.2799 -0.5228
12921TIP3    H260255   5.412   3.748   5.704  0.1830  0.5142  3.1607
12922TIP3   OH260256   1.776   3.188  17.226 -0.2386 -0.2593  0.3999
12922TIP3    H160257   1.752   3.156  17.313  1.3319  2.3816  1.9589
12922TIP3    H260258   1.842   3.126  17.195  1.1224  0.1231  2.3159
12923TIP3   OH260259   5.279   1.503  14.313  0.0530 -0.1853  0.5998
12923TIP3    H160260   5.190   1.507  14.349 -0.7526 -1.3704 -1.1198
12923TIP3    H260261   5.331   1.556  14.373 -2.1769  2.2157  0.6151
12924TIP3   OH260262   2.812   5.380   3.684 -0.1097 -0.1305  0.0759
12924TIP3    H160263   2.903   5.363   3.661  0.0255 -0.6173  0.9260
12924TIP3    H260264   2.768   5.394   3.600  0.6884 -0.1628 -0.3577
12925TIP3   OH260265   5.676   4.022  13.550  0.3637 -0.1405 -0.0827
12925TIP3    H160266   5.606   4.063  13.602  1.0159  0.3990  0.3887
12925TIP3    H260267   5.647   3.932  13.538 -0.3381  0.0327  0.2509
12926TIP3   OH260268   6.703   0.034  12.884 -0.1108 -0.0252  0.2621
12926TIP3    H160269   6.671   0.043  12.794 -0.7770 -1.6009  0.2953
12926TIP3    H260270   6.730  -0.058  12.890  1.3090  0.4278  1.2524
12927TIP3   OH260271   6.532   4.640  16.728  0.5979  0.2664 -0.3497
12927TIP3    H160272   6.572   4.669  16.645 -0.7961  0.2388 -1.0544
12927TIP3    H260273   6.454   4.695  16.737  0.1104 -0.5263  0.3540
12928TIP3   OH260274   0.725   5.380  15.140  0.4332 -0.3220  0.2805
12928TIP3    H160275   0.807   5.423  15.165  0.2346  0.3792 -0.2339
12928TIP3    H260276   0.658   5.423  15.192  0.2702 -0.2111 -0.0170
12929TIP3   OH260277   4.281   0.327   2.881  1.0073  0.0100  0.1506
12929TIP3    H160278   4.204   0.307   2.933  0.9834 -0.3221 -0.0071
12929TIP3    H260279   4.313   0.411   2.915  0.3875  0.3147 -0.0093
12930TIP3   OH260280   2.696   5.671  12.484  0.0466  0.3767  0.2949
12930TIP3    H160281   2.749   5.749  12.467  0.2049  0.6165  1.7437
12930TIP3    H260282   2.760   5.604  12.507 -0.0293 -0.4355 -1.6627
12931TIP3   OH260283   2.889   6.677  15.502 -0.0662  0.2967 -0.1998
12931TIP3    H160284   2.941   6.730  15.442  0.4694 -0.9806 -0.9106
12931TIP3    H260285   2.914   6.708  15.589  0.5820  0.8943 -0.5847
12932TIP3   OH260286   3.900   5.220  16.637  0.2073  0.3227  0.3910
12932TIP3    H160287   3.842   5.155  16.598 -0.7850  0.9266  0.8197
12932TIP3    H260288   3.844   5.271  16.696  1.5654 -0.3515  2.4052
12933TIP3   OH260289   3.041   5.781  13.989  0.1165  0.0798  0.2976
12933TIP3    H160290   3.011   5.735  13.911 -0.4504  0.3509  0.3548
12933TIP3    H260291   3.129   5.747  14.005 -0.9548 -2.3638  1.4330
12934TIP3   OH260292   0.545   3.378  13.670  0.4856 -0.6818  0.3364
12934TIP3    H160293   0.553   3.454  13.728 -0.4105 -1.1678  1.1273
12934TIP3    H260294   0.628   3.375  13.623  0.2942  1.1410 -0.1578
12935TIP3   OH260295   6.108   2.169  13.300  0.0012 -0.5692 -0.2339
12935TIP3    H160296   6.169   2.095  13.302  0.8961  0.1434 -0.3852
12935TIP3    H260297   6.096   2.187  13.206 -2.5659 -2.3738 -0.3526
12936TIP3   OH260298   4.527   6.670  16.715  0.0356  0.3890 -0.1710
12936TIP3    H160299   4.518   6.642  16.806 -1.3253 -0.7595 -0.6054
12936TIP3    H260300   4.561   6.759  16.720  0.2446  0.2492  1.4461
12937TIP3   OH260301   1.338   2.634  12.857 -0.2114  0.0080  0.2062
12937TIP3    H160302   1.429   2.663  12.852 -0.5649  1.3525  1.0783
12937TIP3    H260303   1.344   2.538  12.857  1.2155  0.0738  0.4721
12938TIP3   OH260304   1.980   3.445   2.033 -0.8915  0.8255  0.4517
12938TIP3    H160305   1.890   3.414   2.046 -0.1917 -2.3181 -1.1258
12938TIP3    H260306   1.987   3.459   1.939  0.7779 -0.9680  0.2587
12939TIP3   OH260307   3.209   0.134   1.289  0.5853  0.3092 -0.0085
12939TIP3    H160308   3.165   0.219   1.293 -0.2971 -0.1242 -0.2011
12939TIP3    H260309   3.158   0.079   1.348  0.6979 -0.2906 -0.4657
12940TIP3   OH260310   1.960   3.253   4.625 -0.2328  0.1329 -0.1665
12940TIP3    H160311   1.915   3.317   4.571  1.0605  0.3992 -0.9581
12940TIP3    H260312   2.053   3.264   4.604  0.2432 -0.3063  1.5126
12941TIP3   OH260313   4.620   0.849   0.681  0.0854  0.2407 -0.4091
12941TIP3    H160314   4.554   0.906   0.720  0.2657  0.8213 -0.9540
12941TIP3    H260315   4.643   0.789   0.752  0.5546  1.4072  0.4531
12942TIP3   OH260316   6.248   1.982  14.863  0.5834  0.0564 -0.1710
12942TIP3    H160317   6.306   1.924  14.812 -0.1453 -0.4956 -0.3909
12942TIP3    H260318   6.245   1.942  14.950  0.6791  0.1911 -0.1053
12943TIP3   OH260319   2.765   3.646   6.328 -0.2765  0.7200 -0.7006
12943TIP3    H160320   2.695   3.628   6.264 -2.2030  1.2904  1.1370
12943TIP3    H260321   2.754   3.579   6.395 -0.1117  1.7832  0.4166
12944TIP3   OH260322   4.042   5.982  12.438  0.2956 -0.2669 -0.1261
12944TIP3    H160323   4.028   6.045  12.367  1.2069 -0.6251 -0.6363
12944TIP3    H260324   3.991   6.016  12.511 -0.2616  0.3713 -0.7983
12945TIP3   OH260325   1.487   4.917   4.379  0.0250  0.5251  0.1119
12945TIP3    H160326   1.434   4.923   4.300 -0.8040 -2.5717  0.3341
12945TIP3    H260327   1.497   4.824   4.395  1.4072  1.0410  2.8833
12946TIP3   OH260328   1.105   0.261  16.632 -0.4683 -0.3435  0.0937
12946TIP3    H160329   1.171   0.246  16.700 -0.1230  1.3253  0.1824
12946TIP3    H260330   1.117   0.353  16.607 -0.9085 -0.7797 -1.8932
12947TIP3   OH260331   0.537   5.766   1.484 -0.8942  0.3688  0.7130
12947TIP3    H160332   0.477   5.707   1.529 -0.6873 -0.1557  0.3187
12947TIP3    H260333   0.612   5.710   1.461 -0.7370  0.7643  0.2564
12948TIP3   OH260334   0.660   1.280  10.387 -0.0258 -0.2143 -0.0957
12948TIP3    H160335   0.564   1.276  10.385 -0.0071 -0.7794 -2.4918
12948TIP3    H260336   0.688   1.190  10.400  0.1398 -0.5772 -2.5373
12949TIP3   OH260337   1.597   0.101  16.905 -0.5326 -0.5988  0.2061
12949TIP3    H160338   1.536   0.174  16.916 -3.4485 -2.8162  0.1161
12949TIP3    H260339   1.600   0.058  16.990  0.3347 -0.9734  0.0041
12950TIP3   OH260340   1.834   4.416   2.479  0.4049  0.2633  0.1076
12950TIP3    H160341   1.854   4.494   2.427 -0.7271  0.2082 -0.4415
12950TIP3    H260342   1.739   4.409   2.476  0.1524  0.9902  3.2933
12951TIP3   OH260343   6.566   5.817   2.315 -0.3073  0.2128 -0.2024
12951TIP3    H160344   6.490   5.810   2.372  0.0702  0.4641  0.3355
12951TIP3    H260345   6.628   5.872   2.363  1.2348 -1.9915  0.5245
12952TIP3   OH260346   4.845   5.519  16.619  0.3031 -0.0919  0.4580
12952TIP3    H160347   4.768   5.533  16.565  0.7579  0.7351  0.0041
12952TIP3    H260348   4.893   5.602  16.615  0.9574 -0.4212  1.1432
12953TIP3   OH260349   5.188   2.793   2.129  0.1101 -0.5374  0.2111
12953TIP3    H160350   5.149   2.860   2.073 -1.2903  0.3855  2.1715
12953TIP3    H260351   5.133   2.716   2.118 -0.1532 -0.3616  0.2836
12954TIP3   OH260352   0.305   3.721  15.760 -0.4261 -0.7994  0.1856
12954TIP3    H160353   0.353   3.763  15.688  0.8444 -2.7680 -0.1969
12954TIP3    H260354   0.362   3.732  15.836 -0.7397 -0.5988  0.3881
12955TIP3   OH260355   2.236   6.117  13.081 -0.3777  0.7456  0.0992
12955TIP3    H160356   2.244   6.022  13.076 -0.4009  0.7572 -4.2639
12955TIP3    H260357   2.161   6.133  13.137 -0.1650 -1.7442  1.1978
12956TIP3   OH260358   1.425   1.794   2.585  0.5221 -0.4804  0.4353
12956TIP3    H160359   1.438   1.761   2.496  1.7134  0.5645  0.1908
12956TIP3    H260360   1.498   1.757   2.635  0.5683 -0.0690  0.6817
12957TIP3   OH260361   2.213   4.182  16.712 -0.1606 -0.3685 -0.0135
12957TIP3    H160362   2.167   4.263  16.734 -0.3086 -0.6053  0.5527
12957TIP3    H260363   2.216   4.132  16.793  0.5080 -0.6503 -0.1969
12958TIP3   OH260364   6.469   2.297  15.619  0.1100  0.0032  0.2134
12958TIP3    H160365   6.408   2.363  15.586 -0.1195 -0.4917 -0.3840
12958TIP3    H260366   6.412   2.234  15.665 -0.4848 -2.5195 -3.5000
12959TIP3   OH260367   4.990   3.027  11.259  0.3548 -0.8178 -0.2787
12959TIP3    H160368   4.970   3.121  11.261  2.2311 -0.3754  1.1669
12959TIP3    H260369   4.997   3.006  11.166 -0.3547  0.3995 -0.6405
12960TIP3   OH260370   4.045   6.175   2.685 -0.0718  0.5732 -0.1094
12960TIP3    H160371   3.955   6.209   2.682 -0.3256 -0.0131  0.6739
12960TIP3    H260372   4.045   6.103   2.622 -0.5730 -0.4018  0.9871
12961TIP3   OH260373   4.169   2.000   4.337  0.4770 -0.2424 -0.1126
12961TIP3    H160374   4.163   2.040   4.424  0.4144  0.8803 -0.6081
12961TIP3    H260375   4.254   2.029   4.303  0.6177 -0.8883 -0.3290
12962TIP3   OH260376   0.368   3.303  16.680 -0.8012  0.0836 -0.1127
12962TIP3    H160377   0.429   3.285  16.609 -0.8707 -0.1504 -0.1163
12962TIP3    H260378   0.282   3.294  16.640 -0.8419  0.7330 -0.1875
12963TIP3   OH260379   4.879   0.887   0.651  0.4670  0.0685 -0.4065
12963TIP3    H160380   4.788   0.858   0.642 -0.0852  1.6977 -0.3421
12963TIP3    H260381   4.880   0.937   0.733  1.6702 -0.7495  0.1220
12964TIP3   OH260382   0.002   0.797   0.971 -0.3725 -0.0810  0.1007
12964TIP3    H160383   0.022   0.837   0.886 -0.3097  0.8878  0.5517
12964TIP3    H260384   0.044   0.712   0.968  1.4325  0.7617 -0.0617
12965TIP3   OH260385   3.090   2.762  13.802 -0.0971  0.1244 -0.4797
12965TIP3    H160386   3.046   2.837  13.762  1.8156  1.7952  0.3882
12965TIP3    H260387   3.045   2.686  13.766 -2.4141  1.6664 -1.0486
12966TIP3   OH260388   6.517   6.069  13.457 -0.0412 -0.0413 -0.0629
12966TIP3    H160389   6.489   5.989  13.412  1.3055 -0.4637 -0.2173
12966TIP3    H260390   6.613   6.062  13.460  0.0064  0.7783  1.3908
12967TIP3   OH260391   6.748   3.677  11.553 -0.5215 -0.0238 -0.1980
12967TIP3    H160392   6.760   3.587  11.522 -2.5597 -0.2160 -0.5958
12967TIP3    H260393   6.761   3.730  11.474 -1.5207 -0.1771 -0.4847
12968TIP3   OH260394   1.609   2.968  14.192  0.5408 -0.0269 -0.0523
12968TIP3    H160395   1.701   2.953  14.169  0.8332 -0.3775  1.2407
12968TIP3    H260396   1.597   3.062  14.184  1.3732  0.1882  0.9212
12969TIP3   OH260397   6.782   2.272   1.970 -0.0610 -0.1595 -0.1775
12969TIP3    H160398   6.863   2.318   1.994  0.2720  0.4476 -2.2605
12969TIP3    H260399   6.754   2.229   2.051  2.7372 -1.0190  0.4312
12970TIP3   OH260400   1.618   4.788  16.254 -0.2236 -0.1244  0.1919
12970TIP3    H160401   1.602   4.849  16.182 -0.9748  0.5569  0.9127
12970TIP3    H260402   1.533   4.747  16.270  0.4944 -2.2641 -1.0328
12971TIP3   OH260403   6.751   5.651  11.356  0.0088  0.4514  0.0257
12971TIP3    H160404   6.715   5.563  11.368  0.4784  0.1857 -0.4325
12971TIP3    H260405   6.695   5.691  11.289  0.3999  0.1209 -0.5176
12972TIP3   OH260406   4.410   5.853  12.882 -0.5310  0.5227 -0.1305
12972TIP3    H160407   4.493   5.826  12.843  0.0134  1.4957  0.3045
12972TIP3    H260408   4.409   5.948  12.873 -0.1161  0.8817  2.6152
12973TIP3   OH260409   1.046   1.543  10.512 -0.1833 -0.0468  0.0525
12973TIP3    H160410   0.953   1.547  10.534 -0.2442  0.6026 -0.2877
12973TIP3    H260411   1.053   1.473  10.447 -0.4380 -0.0725  0.0543
12974TIP3   OH260412   6.323   1.777  11.913 -0.4278  0.1100  0.9402
12974TIP3    H160413   6.281   1.813  11.835  0.0368 -3.3567 -1.1236
12974TIP3    H260414   6.253   1.774  11.978 -0.9598  2.6145  0.5869
12975TIP3   OH260415   2.071   5.308  11.184 -0.2126 -0.0104 -0.4859
12975TIP3    H160416   2.140   5.347  11.238 -0.8333 -0.4450  0.6660
12975TIP3    H260417   2.107   5.306  11.096  0.6202  1.2575 -0.1985
12976TIP3   OH260418   2.506   3.959  12.943  0.0108  0.2932 -0.3736
12976TIP3    H160419   2.508   3.864  12.932 -1.5784  0.0771  0.9024
12976TIP3    H260420   2.595   3.982  12.973 -0.4347 -1.2607  2.4677
12977TIP3   OH260421   2.102   2.116   1.265 -0.3117  0.0651  0.7620
12977TIP3    H160422   2.039   2.069   1.210  0.3148  0.5803 -0.4128
12977TIP3    H260423   2.187   2.079   1.242  0.1930  1.7308 -0.1663
12978TIP3   OH260424   2.889   3.246  12.641 -0.1495 -0.0644 -0.4130
12978TIP3    H160425   2.867   3.247  12.547 -2.3555 -0.4085  0.0515
12978TIP3    H260426   2.980   3.215  12.643  0.5892  1.6738 -2.5169
12979TIP3   OH260427   1.636   4.650  15.018  0.2003  0.3253  0.0932
12979TIP3    H160428   1.719   4.670  14.976 -0.6470  0.5109 -1.5564
12979TIP3    H260429   1.624   4.556  15.005  0.5565  0.1244  1.1224
12980TIP3   OH260430   5.318   6.586   0.849  0.2640 -0.9875 -0.0211
12980TIP3    H160431   5.284   6.643   0.780  3.1255  0.2525 -0.5492
12980TIP3    H260432   5.375   6.524   0.803 -0.8845 -2.7578  0.8323
12981TIP3   OH260433   0.132   2.924   6.475  0.8627 -0.1800  0.3829
12981TIP3    H160434   0.116   3.018   6.464  0.5477 -0.4199 -1.4276
12981TIP3    H260435   0.075   2.899   6.548 -0.4231  0.6971 -0.2824
12982TIP3   OH260436   4.680   4.606   0.744  0.0397 -0.3002  0.1034
12982TIP3    H160437   4.613   4.540   0.729 -1.5518  1.0192  1.0587
12982TIP3    H260438   4.631   4.685   0.765  1.8970  1.0028 -0.2611
12983TIP3   OH260439   0.480   5.921   4.672  0.0271 -0.3166 -0.2439
12983TIP3    H160440   0.423   5.981   4.624 -1.4240 -1.3023  0.1724
12983TIP3    H260441   0.566   5.934   4.634 -0.2202  2.0425 -0.1396
12984TIP3   OH260442   5.397   3.648  15.981  0.1164 -0.2698  0.1273
12984TIP3    H160443   5.434   3.567  15.944 -0.9902 -0.8659  0.2829
12984TIP3    H260444   5.420   3.644  16.074 -1.4916 -1.3548  0.5223
12985TIP3   OH260445   2.418   1.663   2.991 -1.0403  0.4949  0.3286
12985TIP3    H160446   2.430   1.734   3.053 -0.0661 -1.6631  2.8047
12985TIP3    H260447   2.382   1.591   3.043  0.8042 -1.7925 -1.3112
12986TIP3   OH260448   0.104   1.281   1.466  0.2851 -0.7879  0.0865
12986TIP3    H160449   0.016   1.249   1.447  0.4312 -0.7923 -0.6357
12986TIP3    H260450   0.150   1.205   1.502  0.0040 -0.7940  0.4290
12987TIP3   OH260451   4.942   5.182  13.173 -0.4513 -0.4062 -0.4115
12987TIP3    H160452   4.999   5.250  13.137 -0.6978  0.4797  0.8105
12987TIP3    H260453   5.000   5.108  13.188 -0.3131 -0.7749 -2.4527
12988TIP3   OH260454   6.421   3.076  13.643  0.1956 -0.0449  0.2334
12988TIP3    H160455   6.378   3.155  13.676  1.3898  0.9412 -0.4424
12988TIP3    H260456   6.388   3.005  13.698  0.9516  1.2733  2.5458
12989TIP3   OH260457   4.611   3.301  12.358  0.2822  0.6980  0.7409
12989TIP3    H160458   4.524   3.284  12.321 -0.1327 -0.7744  2.2329
12989TIP3    H260459   4.595   3.364  12.428  0.8779  2.5511 -0.7319
12990TIP3   OH260460   6.527   0.292   3.726  0.1530  0.1579 -0.3008
12990TIP3    H160461   6.552   0.333   3.808  1.5310  0.3744 -0.7977
12990TIP3    H260462   6.481   0.361   3.677 -0.3019  0.1503  0.1108
12991TIP3   OH260463   1.008   3.995  17.234 -0.4540  0.2227 -0.0643
12991TIP3    H160464   1.020   3.902  17.215 -0.7544  0.0398  0.5819
12991TIP3    H260465   1.033   4.040  17.154 -1.5157 -0.4935 -0.8352
12992TIP3   OH260466   1.510   4.597  13.379  0.1902 -0.0033 -0.5743
12992TIP3    H160467   1.415   4.593  13.376  0.1382  0.7126 -0.1945
12992TIP3    H260468   1.537   4.612  13.289 -0.0557 -0.2786 -0.6901
12993TIP3   OH260469   3.513   6.497  16.082 -0.3749  0.3442 -0.1506
12993TIP3    H160470   3.572   6.483  16.157  0.7961  0.2307 -1.0558
12993TIP3    H260471   3.431   6.455  16.107 -0.1985  0.8013  1.2927
12994TIP3   OH260472   5.170   2.144  15.261 -0.3390  0.2621 -0.1384
12994TIP3    H160473   5.132   2.204  15.198  3.1240  2.7563 -0.1402
12994TIP3    H260474   5.103   2.134  15.329 -1.4466  3.4217 -0.6412
12995TIP3   OH260475   2.616   0.076   1.930  0.9025 -0.3979 -0.0264
12995TIP3    H160476   2.708   0.104   1.923  1.0850 -0.8484  0.5314
12995TIP3    H260477   2.620  -0.019   1.934  0.5265 -0.3796  1.4949
12996TIP3   OH260478   2.197   3.771   3.755  0.2734 -0.0814 -0.9968
12996TIP3    H160479   2.125   3.796   3.813 -0.5959 -3.5522 -0.3241
12996TIP3    H260480   2.276   3.785   3.808 -0.2680 -0.2817 -0.1130
12997TIP3   OH260481   1.853   5.961   0.152 -0.3384 -0.5792 -0.4604
12997TIP3    H160482   1.810   5.943   0.236  0.8456 -0.1824  0.2485
12997TIP3    H260483   1.787   6.009   0.101 -0.4609  0.7857  0.9265
12998TIP3   OH260484   0.776   4.139  11.645  0.0598 -0.3356  0.0942
12998TIP3    H160485   0.748   4.113  11.732  1.6200  1.6570  1.2842
12998TIP3    H260486   0.772   4.059  11.593 -2.6790 -1.1976  1.4545
12999TIP3   OH260487   6.185   4.778  13.164  0.2762  0.2148  0.1403
12999TIP3    H160488   6.278   4.791  13.183  0.3455  0.1473 -0.1463
12999TIP3    H260489   6.172   4.820  13.079 -0.0330  0.5275  0.3390
13000TIP3   OH260490   0.280   2.528   2.795 -0.3576 -0.7747  0.1855
13000TIP3    H160491   0.228   2.577   2.859  0.2912  0.5065 -0.2314
13000TIP3    H260492   0.299   2.445   2.838 -0.7356 -0.3179  1.2790
13001TIP3   OH260493   2.218   3.455  11.110  0.1723  0.1291 -0.2288
13001TIP3    H160494   2.271   3.462  11.031  2.3465  0.6163  1.1883
13001TIP3    H260495   2.166   3.536  11.111  2.6803  1.8290  0.5283
13002TIP3   OH260496   4.155   1.029  16.024  0.0146  0.5452  0.2460
13002TIP3    H160497   4.088   1.030  16.093  0.8339  0.2251  1.0557
13002TIP3    H260498   4.207   1.108  16.038 -0.3725  0.9742 -0.5941
13003TIP3   OH260499   3.898   4.642   2.344 -0.0472  0.1626  0.3406
13003TIP3    H160500   3.821   4.694   2.322  0.8205  1.1667 -0.4495
13003TIP3    H260501   3.954   4.701   2.394  1.2479  0.2437 -1.1187
13004TIP3   OH260502   2.730   0.376   4.752 -0.3779 -0.8201 -0.5670
13004TIP3    H160503   2.653   0.358   4.806 -0.2491  0.4892  0.0926
13004TIP3    H260504   2.803   0.382   4.814  0.4499 -2.8980 -1.2618
13005TIP3   OH260505   4.564   5.928  13.251 -0.2288  0.5757  0.2063
13005TIP3    H160506   4.626   5.930  13.178  1.0200 -0.4340  1.2080
13005TIP3    H260507   4.613   5.961  13.326 -1.1897  0.6522  0.8171
13006TIP3   OH260508   4.117   4.562  14.602  0.1244 -0.2968  0.3312
13006TIP3    H160509   4.175   4.523  14.668  1.7014  1.5258  0.1229
13006TIP3    H260510   4.111   4.654  14.627  1.3440  0.6375 -2.3830
13007TIP3   OH260511   2.307   2.544  11.505  0.3643  0.3127 -0.2299
13007TIP3    H160512   2.240   2.486  11.542  1.1636  0.6962  2.0202
13007TIP3    H260513   2.258   2.619  11.472 -0.4771 -0.4050 -0.6405
13008TIP3   OH260514   4.749   1.852   5.546  0.0485  0.3039 -0.3921
13008TIP3    H160515   4.823   1.914   5.548  0.8378 -0.6419  0.4929
13008TIP3    H260516   4.755   1.805   5.629 -2.5572  1.3129  0.4579
13009TIP3   OH260517   0.576   5.920  10.909  0.1247  0.3058  0.0629
13009TIP3    H160518   0.536   5.896  10.992  0.4942 -0.2723  0.0782
13009TIP3    H260519   0.668   5.894  10.917 -0.0334 -0.6443 -0.8554
13010TIP3   OH260520   5.880   2.901  14.515  0.3395 -0.3612 -0.0578
13010TIP3    H160521   5.908   2.824  14.466 -1.0000 -2.4185  2.1700
13010TIP3    H260522   5.789   2.914  14.490  0.4662  0.3586 -0.1899
13011TIP3   OH260523   5.081   0.161   2.691  0.5175 -0.3280  0.0481
13011TIP3    H160524   5.092   0.081   2.640 -0.0185 -0.3975  0.0305
13011TIP3    H260525   4.989   0.160   2.717  0.6416  0.0077  0.5100
13012TIP3   OH260526   6.184   3.002  12.086  0.2132 -0.2103 -0.4786
13012TIP3    H160527   6.199   3.062  12.013 -0.6078  0.5960 -0.0046
13012TIP3    H260528   6.100   3.029  12.123 -1.2618 -2.9531 -1.5140
13013TIP3   OH260529   0.933   0.785   1.005  0.2685 -0.3486 -0.3611
13013TIP3    H160530   1.005   0.725   0.987  0.6121 -0.2165  0.5472
13013TIP3    H260531   0.855   0.730   1.003  0.5859 -0.8390  0.5220
13014TIP3   OH260532   1.012   2.999   3.828 -0.4772 -0.5778 -0.2632
13014TIP3    H160533   0.928   3.041   3.845 -0.7139  0.3205 -3.1812
13014TIP3    H260534   0.998   2.949   3.748  2.0998  0.8792 -1.7640
13015TIP3   OH260535   2.046   6.030   3.263  0.3157 -0.0163  0.1549
13015TIP3    H160536   2.124   6.087   3.258  0.6945 -0.6105 -3.3573
13015TIP3    H260537   2.075   5.947   3.225 -0.9763 -1.7534  2.7100
13016TIP3   OH260538   2.158   4.890  15.967 -0.6173 -0.2194 -0.2868
13016TIP3    H160539   2.230   4.877  15.905 -0.9081  0.3703 -0.7640
13016TIP3    H260540   2.192   4.860  16.051 -0.5068 -1.8741 -0.8753
13017TIP3   OH260541   5.250   2.668   4.328 -0.7446 -0.7620  0.0694
13017TIP3    H160542   5.307   2.619   4.387 -1.6258 -0.3753  1.2622
13017TIP3    H260543   5.185   2.710   4.385 -0.2040  1.5870 -0.9080
13018TIP3   OH260544   2.079   0.080   4.784 -0.2070 -0.1156  0.0453
13018TIP3    H160545   2.043   0.102   4.869  0.8911  1.5227  0.1263
13018TIP3    H260546   2.130   0.157   4.758  3.0970 -2.1464 -0.1000
13019TIP3   OH260547   4.736   4.191  10.612 -0.2616  0.7558  0.2125
13019TIP3    H160548   4.665   4.131  10.587  0.1549  0.0472  0.6981
13019TIP3    H260549   4.691   4.272  10.638 -1.1354 -0.5675  3.1819
13020TIP3   OH260550   0.341   2.713  12.189 -0.0810  0.2748 -0.2738
13020TIP3    H160551   0.329   2.654  12.263 -1.2818 -0.2937 -0.9020
13020TIP3    H260552   0.272   2.779  12.200  1.2522  1.6170  0.4340
13021TIP3   OH260553   3.255   0.402  15.728  0.1256 -0.0864  0.0096
13021TIP3    H160554   3.328   0.381  15.787  0.3529  0.3297 -0.1161
13021TIP3    H260555   3.217   0.317  15.706  0.4972 -0.3003  0.1755
13022TIP3   OH260556   5.728   5.660   3.675 -0.3083 -0.0703 -0.5464
13022TIP3    H160557   5.792   5.731   3.667 -1.7366  1.1060 -2.0526
13022TIP3    H260558   5.648   5.702   3.706 -0.5080 -1.4728  1.0240
13023TIP3   OH260559   0.289   5.057   4.458 -0.2250  0.2481 -0.3349
13023TIP3    H160560   0.251   4.993   4.398 -2.1124  0.2023  0.8032
13023TIP3    H260561   0.240   5.045   4.540  0.7005  1.8318  0.5178
13024TIP3   OH260562   5.541   1.246   1.121  0.1856  0.1464 -0.0777
13024TIP3    H160563   5.451   1.244   1.089  0.4714 -0.5373 -0.8825
13024TIP3    H260564   5.595   1.238   1.042  0.9840  1.5705  0.2943
13025TIP3   OH260565   5.950   4.298  15.796 -0.1571  0.2791 -0.1316
13025TIP3    H160566   5.965   4.224  15.737  3.2195 -1.2628  2.3575
13025TIP3    H260567   5.902   4.260  15.870  0.5515  0.8560  0.6363
13026TIP3   OH260568   3.480   4.686  13.708  0.0514  0.1205 -0.5300
13026TIP3    H160569   3.415   4.684  13.638 -0.1510  1.1437 -0.3773
13026TIP3    H260570   3.494   4.594  13.729 -1.8877 -0.1019 -0.0612
13027TIP3   OH260571   1.760   4.903  12.235  0.0934 -0.4710 -0.4966
13027TIP3    H160572   1.670   4.886  12.208 -1.1528  3.1534  0.8281
13027TIP3    H260573   1.777   4.839  12.304 -1.2721 -1.4627 -1.0231
13028TIP3   OH260574   4.705   5.543   0.351 -0.6352  0.0164  0.0170
13028TIP3    H160575   4.632   5.572   0.406 -1.4486  0.2223 -1.1320
13028TIP3    H260576   4.679   5.569   0.263 -0.5115 -2.5463 -0.8235
13029TIP3   OH260577   1.414   0.347  14.898 -0.2431 -0.1928  0.1099
13029TIP3    H160578   1.458   0.418  14.944 -2.4681  0.7141  0.9917
13029TIP3    H260579   1.467   0.270  14.917  0.7140  0.7406  1.4697
13030TIP3   OH260580   3.390   4.238   2.904  0.0072  0.1237  0.1397
13030TIP3    H160581   3.364   4.176   2.836 -0.6736  1.0054 -0.4205
13030TIP3    H260582   3.319   4.301   2.908  0.6756  0.8660  0.7225
13031TIP3   OH260583   1.387   1.682   0.956  0.1032  0.3526  0.2275
13031TIP3    H160584   1.397   1.676   0.861 -1.4078 -0.4195  0.0904
13031TIP3    H260585   1.442   1.757   0.981  2.2211 -0.7111 -0.9429
13032TIP3   OH260586   2.336   2.921  13.526  0.0004  0.2156 -0.5736
13032TIP3    H160587   2.310   2.829  13.538  0.1206  0.0512 -1.4822
13032TIP3    H260588   2.420   2.916  13.481 -0.0988  0.7763 -0.8230
13033TIP3   OH260589   1.346   3.399  13.262 -0.4160 -0.0025 -0.2032
13033TIP3    H160590   1.316   3.308  13.257  1.5973 -0.8555  1.3937
13033TIP3    H260591   1.396   3.412  13.181  1.8333 -1.4335  0.8388
13034TIP3   OH260592   4.114   0.104   4.973  0.2390  0.1404  0.3159
13034TIP3    H160593   4.178   0.171   4.996  1.4559 -0.7549 -0.3577
13034TIP3    H260594   4.092   0.121   4.882 -0.3598  0.3291  0.4893
13035TIP3   OH260595   5.138   5.741  15.617  0.1641  0.1209  0.0743
13035TIP3    H160596   5.124   5.748  15.523 -2.4918 -3.6356 -0.0274
13035TIP3    H260597   5.054   5.766  15.656  1.3956  2.2066  1.5957
13036TIP3   OH260598   2.546   5.123  15.974  0.2181  1.0393  0.2988
13036TIP3    H160599   2.463   5.138  15.929  0.3411 -1.3884 -0.8736
13036TIP3    H260600   2.524   5.064  16.047  1.0098 -0.4853 -0.6456
13037TIP3   OH260601   3.670   3.697  11.153  0.2397  0.9207  0.2295
13037TIP3    H160602   3.729   3.640  11.103 -0.8141 -0.2414  0.2728
13037TIP3    H260603   3.717   3.781  11.159  2.3470 -0.2324  1.1196
13038TIP3   OH260604   2.721   1.607   4.229 -0.0940  0.6025  0.2232
13038TIP3    H160605   2.750   1.670   4.295  0.4159  1.9384 -1.2124
13038TIP3    H260606   2.793   1.604   4.166  0.0913 -1.8012  0.4660
13039TIP3   OH260607   4.234   0.510  10.277 -0.1457 -0.1155 -0.3243
13039TIP3    H160608   4.329   0.497  10.276  0.0964  1.4494 -1.5901
13039TIP3    H260609   4.197   0.422  10.289  1.4504 -0.7313  0.2752
13040TIP3   OH260610   6.265   2.205   0.482  0.3613  0.1691 -0.8088
13040TIP3    H160611   6.197   2.204   0.415 -0.0805 -2.0521 -0.4000
13040TIP3    H260612   6.302   2.117   0.480  1.2805  0.4792  0.9136
13041TIP3   OH260613   6.080   3.553  12.105 -0.0478  0.6617  0.1258
13041TIP3    H160614   5.987   3.548  12.082  0.2491 -2.1910 -0.8583
13041TIP3    H260615   6.121   3.593  12.029 -0.2100 -0.3177 -0.4974
13042TIP3   OH260616   2.097   1.221  12.634  0.3234 -0.7343  0.4815
13042TIP3    H160617   2.151   1.201  12.558  0.9859 -0.9305  0.9879
13042TIP3    H260618   2.159   1.224  12.707 -0.0996  0.7930  0.8153
13043TIP3   OH260619   2.015   1.553  16.854 -0.5624  0.0525 -0.2140
13043TIP3    H160620   1.923   1.563  16.876 -0.9735 -0.2994 -1.6570
13043TIP3    H260621   2.036   1.629  16.800 -0.1837 -0.1931 -0.4221
13044TIP3   OH260622   5.923   0.690   0.750 -0.2626  0.4287 -0.0521
13044TIP3    H160623   5.963   0.697   0.837  0.4292  2.0334 -0.4574
13044TIP3    H260624   5.928   0.597   0.728 -1.2938 -0.1542  1.9855
13045TIP3   OH260625   2.121   2.008   3.461  0.0147 -0.1118  0.0110
13045TIP3    H160626   2.034   2.025   3.424 -0.7362 -1.6624  0.9709
13045TIP3    H260627   2.145   1.923   3.425  1.8835  0.9712 -1.5064
13046TIP3   OH260628   1.678   2.220  11.787 -0.0832  0.4302 -0.4250
13046TIP3    H160629   1.651   2.151  11.848 -1.4836  1.7804  0.5598
13046TIP3    H260630   1.635   2.198  11.705  0.0644 -0.2545 -0.3251
13047TIP3   OH260631   1.850   5.289  13.910 -0.4862 -0.1755  0.2302
13047TIP3    H160632   1.883   5.291  14.000  0.4860  0.1348 -0.1147
13047TIP3    H260633   1.857   5.197  13.884 -2.5813 -0.6238  1.0882
13048TIP3   OH260634   1.316   4.471   3.286  0.7631  0.3069 -0.5707
13048TIP3    H160635   1.325   4.376   3.291 -0.6472  0.1574 -0.4672
13048TIP3    H260636   1.222   4.487   3.292  0.9345  1.6887 -1.0829
13049TIP3   OH260637   5.170   0.255   0.955 -0.4553 -0.6319 -0.3385
13049TIP3    H160638   5.108   0.184   0.973 -1.5081  0.6142  1.2463
13049TIP3    H260639   5.234   0.217   0.894 -3.5537 -1.5658 -3.2732
13050TIP3   OH260640   2.292   4.128  11.610 -0.0047  0.1566 -0.9264
13050TIP3    H160641   2.202   4.149  11.584 -0.0350 -0.7728 -1.5899
13050TIP3    H260642   2.318   4.202  11.665 -0.4888  1.3976 -2.3060
13051TIP3   OH260643   1.560   2.231   5.322  0.4960 -0.1076  0.5151
13051TIP3    H160644   1.515   2.315   5.329  0.0068 -0.4529  1.9262
13051TIP3    H260645   1.563   2.198   5.412  1.3512 -1.2573  0.0928
13052TIP3   OH260646   0.756   5.321   6.026  0.4518 -0.2261 -0.4942
13052TIP3    H160647   0.735   5.409   6.059  0.4053 -0.3461 -0.1994
13052TIP3    H260648   0.672   5.287   5.994  0.1256 -0.7967  0.8975
13053TIP3   OH260649   6.494   4.003   5.783 -0.1865  0.0598  0.1421
13053TIP3    H160650   6.569   3.969   5.735  0.3125 -1.5209  1.9462
13053TIP3    H260651   6.459   4.072   5.726 -0.3190 -2.3905 -3.0366
13054TIP3   OH260652   2.505   5.777   4.486  0.1164 -0.0262  0.9594
13054TIP3    H160653   2.441   5.714   4.455  0.6150 -0.1631  0.1804
13054TIP3    H260654   2.574   5.777   4.419  2.3002 -1.8605  3.0267
13055TIP3   OH260655   2.259   5.829   1.813 -0.9747 -0.4203  0.0416
13055TIP3    H160656   2.227   5.849   1.725 -1.6623  2.2763  0.8247
13055TIP3    H260657   2.266   5.914   1.856 -0.0066 -1.6098  2.3915
13056TIP3   OH260658   3.900   1.156  10.886  0.1763 -0.8270  0.3790
13056TIP3    H160659   3.842   1.089  10.922  0.7431 -1.5689 -0.0557
13056TIP3    H260660   3.978   1.153  10.942 -0.0126 -0.1365  0.6943
13057TIP3   OH260661   2.925   1.029   5.537 -0.1185 -0.2841  0.8274
13057TIP3    H160662   2.972   1.088   5.479 -0.3204 -0.1098  0.8387
13057TIP3    H260663   2.838   1.021   5.497 -0.3062 -0.0496  1.1806
13058TIP3   OH260664   6.547   4.177   5.083 -0.0944  0.4552 -0.3132
13058TIP3    H160665   6.507   4.259   5.053  0.2713  0.3977 -0.9748
13058TIP3    H260666   6.553   4.187   5.178 -2.1614  0.2419 -0.1258
13059TIP3   OH260667   4.706   5.655  14.463 -0.2677 -0.3890  0.1061
13059TIP3    H160668   4.778   5.592  14.464 -0.1864 -0.2914  0.6665
13059TIP3    H260669   4.646   5.625  14.532 -0.7238 -0.4278 -0.3053
13060TIP3   OH260670   1.282   5.551   2.265 -0.2310  0.4091 -0.6929
13060TIP3    H160671   1.242   5.636   2.283 -0.6123 -0.3032  2.5480
13060TIP3    H260672   1.208   5.492   2.253  0.0115  0.6665 -4.6136
13061TIP3   OH260673   6.325   5.275   2.035 -0.1250  0.6845  0.2847
13061TIP3    H160674   6.258   5.327   1.991 -0.6176  0.5729  0.8982
13061TIP3    H260675   6.382   5.246   1.964 -0.7034  0.8057 -0.2420
13062TIP3   OH260676   4.878   2.534  10.586  0.2706 -0.3774  0.5241
13062TIP3    H160677   4.863   2.615  10.537  3.9648 -1.3866 -2.8115
13062TIP3    H260678   4.845   2.465  10.528  0.9616 -1.4475  1.3756
13063TIP3   OH260679   4.919   0.983  13.051  0.0342 -0.2553 -0.4610
13063TIP3    H160680   4.996   1.003  13.103 -1.5562  1.3351  1.4422
13063TIP3    H260681   4.883   0.903  13.090  0.0895 -0.3579 -0.6182
13064TIP3   OH260682   6.071   6.538   5.381  0.2612  0.2148  0.1087
13064TIP3    H160683   6.095   6.595   5.308 -0.5315  2.1878  1.3197
13064TIP3    H260684   6.095   6.587   5.459  0.0674 -1.3722  1.2189
13065TIP3   OH260685   4.809   4.617   3.762  0.2218 -0.5842 -0.1115
13065TIP3    H160686   4.762   4.598   3.843  1.0211 -2.9384 -0.1286
13065TIP3    H260687   4.901   4.610   3.786  0.4735 -0.6644 -1.0826
13066TIP3   OH260688   1.699   0.857  16.295  0.3990  0.8498  0.4033
13066TIP3    H160689   1.617   0.818  16.266  0.5580  0.8883 -0.1126
13066TIP3    H260690   1.683   0.883  16.386  0.0369  0.3071  0.5031
13067TIP3   OH260691   1.998   6.796  13.012 -0.2355  0.3477 -0.3334
13067TIP3    H160692   1.903   6.806  13.007 -0.1909  0.8284 -0.3324
13067TIP3    H260693   2.032   6.878  12.976  0.1674  0.6205  0.6204
13068TIP3   OH260694   6.518   4.681  14.197  0.2375 -0.4436 -0.9063
13068TIP3    H160695   6.474   4.751  14.148 -2.1052 -2.8705 -2.5467
13068TIP3    H260696   6.459   4.664  14.270  0.3882 -1.2016 -0.9579
13069TIP3   OH260697   2.610   1.375  16.310 -0.5163  0.3075  0.1929
13069TIP3    H160698   2.693   1.340  16.340 -0.8756 -0.8784 -0.1693
13069TIP3    H260699   2.571   1.305  16.259 -0.7845  1.5861 -1.4599
13070TIP3   OH260700   5.864   2.685  12.851 -0.3460 -0.6251 -0.4259
13070TIP3    H160701   5.845   2.599  12.889  0.8271 -1.6387 -1.9768
13070TIP3    H260702   5.778   2.724  12.835 -1.0323 -2.6672 -2.1362
13071TIP3   OH260703   0.517   2.751  16.570 -0.3450  0.3333  0.3221
13071TIP3    H160704   0.607   2.782  16.558  0.7530 -2.5754  0.3901
13071TIP3    H260705   0.463   2.826  16.545  2.0623  2.2018  0.3353
13072TIP3   OH260706   5.747   1.740   5.752 -0.1993  0.0824 -0.4427
13072TIP3    H160707   5.697   1.818   5.726  0.0891 -0.1440 -1.7417
13072TIP3    H260708   5.682   1.670   5.756 -0.1887  0.0385 -0.9601
13073TIP3   OH260709   5.864   4.232   5.152 -0.2865 -0.5304 -0.3298
13073TIP3    H160710   5.847   4.313   5.200 -0.1583 -0.2113 -0.8117
13073TIP3    H260711   5.901   4.261   5.069  1.9063 -1.1455  0.3615
13074TIP3   OH260712   1.836   3.785   5.272  0.6087 -0.7985  0.0136
13074TIP3    H160713   1.762   3.844   5.281  0.4937 -1.1758  1.7480
13074TIP3    H260714   1.801   3.709   5.226 -0.5242 -1.6401  2.1403
13075TIP3   OH260715   3.167   3.754  12.229 -0.4178 -0.2912  0.2433
13075TIP3    H160716   3.095   3.691  12.229 -0.3303 -0.3921  0.3983
13075TIP3    H260717   3.138   3.824  12.287  0.3747 -1.2207  1.8282
13076TIP3   OH260718   1.652   3.293  16.464  0.5208 -0.1280 -0.1520
13076TIP3    H160719   1.652   3.244  16.546 -0.3721 -0.7699 -0.5251
13076TIP3    H260720   1.689   3.379  16.487 -1.9385  0.5958  1.4681
13077TIP3   OH260721   6.015   3.044   3.086 -0.2346 -0.0456  0.0315
13077TIP3    H160722   6.014   3.043   3.182 -1.2590 -1.0865  0.0283
13077TIP3    H260723   5.940   2.989   3.060 -0.2104  0.5360 -1.3643
13078TIP3   OH260724   1.160   2.228  16.628  0.1187 -0.0235 -0.3977
13078TIP3    H160725   1.193   2.139  16.635 -1.1765 -0.3981  1.5647
13078TIP3    H260726   1.237   2.283  16.639  0.8375 -0.8762 -1.0347
13079TIP3   OH260727   0.171   1.718  12.043 -0.2784 -0.1637 -0.7348
13079TIP3    H160728   0.257   1.702  12.081 -1.0647  0.5674  1.5345
13079TIP3    H260729   0.116   1.743  12.117 -2.3814 -0.2733 -2.1536
13080TIP3   OH260730   5.602   2.008   5.394  0.0664 -0.1707  0.1030
13080TIP3    H160731   5.651   2.077   5.350 -0.4450 -0.2345 -0.5906
13080TIP3    H260732   5.510   2.030   5.378 -0.1077 -0.8179  0.1765
13081TIP3   OH260733   0.829   4.218  15.540  0.5674  0.0917  0.4314
13081TIP3    H160734   0.886   4.142  15.530 -0.1561 -0.4734  0.4820
13081TIP3    H260735   0.826   4.258  15.453  0.7014 -0.1296  0.3238
13082TIP3   OH260736   1.757   3.642   1.878  0.2657  0.4253 -0.7242
13082TIP3    H160737   1.828   3.626   1.941  0.3573 -1.3293 -1.2237
13082TIP3    H260738   1.716   3.556   1.866 -0.9089  1.0908 -1.6997
13083TIP3   OH260739   5.099   1.631  11.613  0.1599 -0.0595 -0.1367
13083TIP3    H160740   5.143   1.709  11.579  2.3344 -1.0327  0.2958
13083TIP3    H260741   5.099   1.644  11.708  1.3196 -0.9219  0.0082
13084TIP3   OH260742   6.369   0.200  11.779  0.3460 -0.4362  0.3556
13084TIP3    H160743   6.424   0.205  11.857  1.7622 -0.2680 -0.5995
13084TIP3    H260744   6.368   0.107  11.756 -2.3329 -0.9269  2.0471
13085TIP3   OH260745   3.654   5.075   0.244  0.0180 -0.2123  0.2195
13085TIP3    H160746   3.733   5.039   0.284 -0.7449 -1.6786  0.4626
13085TIP3    H260747   3.676   5.167   0.227  1.4351 -0.3446  1.1457
13086TIP3   OH260748   2.872   0.247   3.633  0.0741 -0.5332  0.5265
13086TIP3    H160749   2.794   0.270   3.584 -0.9203 -0.8921  1.8923
13086TIP3    H260750   2.921   0.329   3.639 -0.4376 -0.1871  0.1039
13087TIP3   OH260751   0.409   2.688  14.031  0.3853  0.3310 -0.2747
13087TIP3    H160752   0.502   2.668  14.021  0.2259 -0.2046 -0.7135
13087TIP3    H260753   0.404   2.783  14.027  0.5879  0.2841 -3.2735
13088TIP3   OH260754   4.277   4.392   1.729 -0.2419 -0.0865 -0.5406
13088TIP3    H160755   4.212   4.460   1.746  0.6589  0.5253  0.6380
13088TIP3    H260756   4.228   4.321   1.690 -1.6946  0.2440  0.6009
13089TIP3   OH260757   6.012   1.770  11.668 -0.1646  1.1493  0.1752
13089TIP3    H160758   6.016   1.702  11.735 -1.9159 -0.7556 -1.4851
13089TIP3    H260759   6.101   1.802  11.660  1.0773 -1.9547  0.1376
13090TIP3   OH260760   1.438   3.608   0.493 -0.0685 -0.1719  0.1780
13090TIP3    H160761   1.380   3.645   0.426 -0.1571 -2.2008 -0.9169
13090TIP3    H260762   1.440   3.675   0.561 -1.7046  1.0349 -0.8763
13091TIP3   OH260763   6.093   5.168   0.178 -0.2690 -0.4176 -0.5047
13091TIP3    H160764   6.004   5.204   0.185 -0.4586 -0.6882 -1.3720
13091TIP3    H260765   6.115   5.177   0.085  0.1404 -1.4372 -0.5176
13092TIP3   OH260766   4.534   4.141  15.525 -0.0220  0.5183  0.0255
13092TIP3    H160767   4.454   4.158  15.475 -0.8594  0.0363  1.1241
13092TIP3    H260768   4.527   4.200  15.601  0.4164  0.1251  0.3776
13093TIP3   OH260769   3.068   5.938  13.603 -0.3181  0.0215  0.0496
13093TIP3    H160770   3.133   5.904  13.665 -1.3681 -1.9009  0.1601
13093TIP3    H260771   3.083   5.889  13.522 -2.2490 -1.2010  0.3853
13094TIP3   OH260772   1.824   2.785  15.974 -0.0930 -0.2584 -0.1084
13094TIP3    H160773   1.773   2.705  15.965 -0.9641  0.2107  0.5932
13094TIP3    H260774   1.914   2.754  15.989 -0.6709 -1.1293  1.7738
13095TIP3   OH260775   0.412   1.461  14.341 -0.0210 -0.1174  0.7337
13095TIP3    H160776   0.344   1.521  14.312  1.0587  0.7615 -0.0427
13095TIP3    H260777   0.429   1.406  14.265  0.2882 -0.1961  0.8602
13096TIP3   OH260778   3.643   3.911   5.061 -0.9080  0.1727  0.1130
13096TIP3    H160779   3.553   3.941   5.046 -0.9892 -0.8688 -1.7280
13096TIP3    H260780   3.634   3.841   5.126 -1.6541 -0.9211 -1.1121
13097TIP3   OH260781   1.777   4.632  15.781  0.2109  0.4706 -0.6948
13097TIP3    H160782   1.783   4.584  15.698  0.7046 -0.2984 -0.2242
13097TIP3    H260783   1.825   4.578  15.844  1.8556  2.1373 -0.3963
13098TIP3   OH260784   2.505   3.920  14.203 -0.2122  0.4428  0.4381
13098TIP3    H160785   2.415   3.909  14.173 -0.0101  0.9002 -0.3615
13098TIP3    H260786   2.521   3.843  14.258 -0.6060 -0.4414 -0.6276
13099TIP3   OH260787   0.005   2.811   3.238 -0.3070  0.3731  0.3082
13099TIP3    H160788   0.026   2.902   3.219  1.6328  0.0942  0.9259
13099TIP3    H260789   0.013   2.804   3.333  0.2876 -0.6010  0.1963
13100TIP3   OH260790   3.154   5.125   3.532  0.4091  0.1858  0.0886
13100TIP3    H160791   3.123   5.140   3.443  1.1157  1.8613  0.0869
13100TIP3    H260792   3.201   5.042   3.527 -2.0097 -1.2588 -0.4040
13101TIP3   OH260793   2.265   0.275  13.117  0.2582  0.4511 -0.0212
13101TIP3    H160794   2.182   0.280  13.163  0.3611  1.8573  0.0698
13101TIP3    H260795   2.244   0.297  13.026  0.2291 -1.2201 -0.4467
13102TIP3   OH260796   5.144   0.188   5.950 -0.3274 -0.2754 -0.6125
13102TIP3    H160797   5.153   0.206   6.044 -1.4062 -2.1433 -0.1139
13102TIP3    H260798   5.222   0.227   5.911 -0.4323  1.5830  0.8748
13103TIP3   OH260799   4.176   2.640   4.084 -0.0484 -0.1728  0.3988
13103TIP3    H160800   4.173   2.676   3.996 -0.6219  1.4314  1.0396
13103TIP3    H260801   4.090   2.601   4.097 -0.2027  0.2072  0.5041
13104TIP3   OH260802   6.151   5.727  14.517 -0.9224  1.0940  0.3359
13104TIP3    H160803   6.196   5.645  14.500 -2.7585 -0.3406  1.9043
13104TIP3    H260804   6.188   5.789  14.454 -0.7631 -1.3577 -2.1598
13105TIP3   OH260805   5.772   1.983   2.801 -0.8005  0.5059  0.0511
13105TIP3    H160806   5.861   1.948   2.807 -0.7281  0.6695 -0.0596
13105TIP3    H260807   5.719   1.908   2.776 -0.8328  0.2065  0.9756
13106TIP3   OH260808   5.665   1.949  13.597 -0.5047 -0.2858  0.6528
13106TIP3    H160809   5.608   1.925  13.670 -2.5553 -1.8189 -1.2838
13106TIP3    H260810   5.674   1.868  13.547 -0.0200  0.9181 -1.3081
13107TIP3   OH260811   3.749   5.318   0.148  0.2595  0.2302  0.0218
13107TIP3    H160812   3.711   5.335   0.061  0.8293  0.6086 -0.1585
13107TIP3    H260813   3.805   5.394   0.164  0.1163  0.1870  0.7508
13108TIP3   OH260814   5.627   2.191  15.476  0.1229  0.4792 -0.1788
13108TIP3    H160815   5.718   2.206  15.452  0.7944  0.6968  2.2318
13108TIP3    H260816   5.607   2.104  15.443  2.1455 -0.7684  1.6385
13109TIP3   OH260817   6.179   1.790   3.509 -0.0041 -0.2584 -0.1894
13109TIP3    H160818   6.181   1.810   3.415 -0.4578  0.1516 -0.1149
13109TIP3    H260819   6.265   1.751   3.527  0.2400  0.0393 -0.6914
13110TIP3   OH260820   3.252   2.290  12.265  0.5216  0.0098  0.9378
13110TIP3    H160821   3.340   2.299  12.228 -1.0177  0.2373 -3.2484
13110TIP3    H260822   3.239   2.196  12.276  0.1743 -0.3859 -2.0175
13111TIP3   OH260823   1.614   6.069   0.043 -0.3401  0.0731 -0.3548
13111TIP3    H160824   1.540   6.055   0.102 -1.1964 -1.1210 -1.6519
13111TIP3    H260825   1.602   6.005  -0.027 -0.7343  2.9154 -3.1457
13112TIP3   OH260826   1.808   2.252   0.308 -0.2868 -0.6134 -0.2153
13112TIP3    H160827   1.724   2.242   0.262  0.3008  1.2014 -1.8234
13112TIP3    H260828   1.863   2.181   0.274 -0.5193 -0.5545 -0.7187
13113TIP3   OH260829   1.424   3.976  15.509  0.1948 -0.7108  0.6641
13113TIP3    H160830   1.387   3.893  15.478 -1.7876 -0.2502  1.6772
13113TIP3    H260831   1.406   4.038  15.439 -0.8814 -0.5226  1.0898
13114TIP3   OH260832   1.195   5.742   1.201 -0.2137  0.0807  0.2053
13114TIP3    H160833   1.289   5.747   1.218  0.0826 -1.4688 -0.8223
13114TIP3    H260834   1.187   5.680   1.129 -1.9212  1.2852 -0.7221
13115TIP3   OH260835   4.675   4.015   1.245  0.4315 -0.3138  0.0313
13115TIP3    H160836   4.582   4.017   1.222 -0.0270  1.3264  1.7932
13115TIP3    H260837   4.687   3.933   1.292 -0.5395  0.2415  1.2870
13116TIP3   OH260838   3.581   2.585   5.471  0.1366 -0.0438  0.2924
13116TIP3    H160839   3.639   2.577   5.395  0.0744  0.1964  0.2204
13116TIP3    H260840   3.626   2.538   5.541 -0.1217 -0.8745 -0.0734
13117TIP3   OH260841   4.220   5.574  12.028 -0.2364 -0.1390  0.0243
13117TIP3    H160842   4.224   5.610  12.116 -3.2852  0.9250 -0.1892
13117TIP3    H260843   4.291   5.618  11.981  0.3219  0.5711  1.4677
13118TIP3   OH260844   4.490   6.590  13.619 -0.0703 -0.6965  0.0272
13118TIP3    H160845   4.478   6.512  13.566 -0.4191  0.6109 -1.9417
13118TIP3    H260846   4.479   6.560  13.709 -2.9986 -2.4287 -0.7676
13119TIP3   OH260847   4.855   1.084   6.089 -0.5380  0.6423  0.0028
13119TIP3    H160848   4.906   1.150   6.043  1.5109 -0.3243  0.7801
13119TIP3    H260849   4.919   1.036   6.142 -1.8070 -2.3500 -0.9408
13120TIP3   OH260850   2.344   6.757  12.311 -0.0214 -0.2649 -0.0701
13120TIP3    H160851   2.307   6.745  12.224 -1.1410  1.9386  0.0437
13120TIP3    H260852   2.343   6.669  12.350 -1.0824 -0.9891 -1.6435
13121TIP3   OH260853   2.687   5.359   2.737 -0.8152 -0.5570  0.3048
13121TIP3    H160854   2.672   5.264   2.732 -0.7063 -0.5458 -0.4966
13121TIP3    H260855   2.720   5.381   2.650 -1.5926  0.3489  0.2263
13122TIP3   OH260856   4.559   2.819  14.264  0.5014 -0.1820  0.2726
13122TIP3    H160857   4.582   2.807  14.356  0.7775 -1.3469  0.0727
13122TIP3    H260858   4.573   2.912  14.247  1.8673 -0.2235  1.0288
13123TIP3   OH260859   3.372   6.240   1.376  0.5335  0.3710 -0.3973
13123TIP3    H160860   3.339   6.300   1.442 -0.9508  0.3509 -1.0928
13123TIP3    H260861   3.376   6.155   1.420  0.2501  0.4940 -0.1332
13124TIP3   OH260862   5.092   5.241  17.038  0.2535  0.0875 -0.4838
13124TIP3    H160863   5.175   5.195  17.024 -0.0282 -0.2395 -1.1489
13124TIP3    H260864   5.026   5.183  16.999 -0.6142 -0.8860  2.2143
13125TIP3   OH260865   5.388   5.604  16.867  0.9140  0.3909 -0.1421
13125TIP3    H160866   5.406   5.695  16.890  0.8025  0.0918  1.2092
13125TIP3    H260867   5.440   5.553  16.929 -1.4670 -0.4723  1.2670
13126TIP3   OH260868   0.395   6.757  13.830  0.5915 -0.1984 -0.1314
13126TIP3    H160869   0.437   6.843  13.821  1.6778 -0.6663  0.2002
13126TIP3    H260870   0.394   6.722  13.741 -1.2149  0.7345 -0.5214
13127TIP3   OH260871   0.841   6.038   5.631 -0.4085 -0.3406 -1.0030
13127TIP3    H160872   0.911   6.097   5.657  0.7814 -1.0773 -2.3974
13127TIP3    H260873   0.867   6.007   5.544 -1.9811 -1.3945 -1.1360
13128TIP3   OH260874   3.622   6.491   4.039  0.2626 -0.3379 -0.2788
13128TIP3    H160875   3.562   6.461   3.970  0.5336 -1.8765  0.1077
13128TIP3    H260876   3.660   6.572   4.004 -0.2731 -0.6044 -1.5483
13129TIP3   OH260877   0.008   4.479  15.138  0.1908  0.1471  0.7118
13129TIP3    H160878   0.071   4.409  15.157  0.0901 -0.3337 -0.6190
13129TIP3    H260879  -0.035   4.496  15.222  1.3577 -0.2399  1.4177
13130TIP3   OH260880   3.760   1.777  16.328 -0.6112  0.1322  0.1120
13130TIP3    H160881   3.672   1.741  16.321 -0.2926 -0.8238  0.7024
13130TIP3    H260882   3.777   1.780  16.422 -0.0132  0.2862  0.0043
13131TIP3   OH260883   0.211   0.098  14.194  0.5594 -0.2340  0.7731
13131TIP3    H160884   0.294   0.139  14.168 -0.7341  0.7349 -2.3065
13131TIP3    H260885   0.221   0.007  14.168  0.7193 -0.1511  0.5339
13132TIP3   OH260886   1.301   3.708   3.738  0.4257  0.6672 -0.1971
13132TIP3    H160887   1.256   3.783   3.700  0.4772  0.0632 -1.5170
13132TIP3    H260888   1.272   3.705   3.829 -0.7826  1.3589 -0.5434
13133TIP3   OH260889   6.617   3.346   3.951 -0.0428  0.1344 -0.0151
13133TIP3    H160890   6.640   3.253   3.951 -3.0363 -0.7158 -0.3509
13133TIP3    H260891   6.597   3.366   3.859 -1.3881  0.4970  0.3294
13134TIP3   OH260892   4.384   2.296   3.612 -0.0980 -0.0558 -0.4830
13134TIP3    H160893   4.308   2.243   3.635  1.4104 -2.1682 -0.0506
13134TIP3    H260894   4.373   2.316   3.519 -1.4555  0.1962 -0.2803
13135TIP3   OH260895   0.600   5.230  16.930 -0.4866 -0.0256  0.0375
13135TIP3    H160896   0.618   5.146  16.886 -1.0736  0.6310 -1.5046
13135TIP3    H260897   0.644   5.221  17.014 -1.3880 -2.2908  0.3622
13136TIP3   OH260898   1.751   5.811  11.527 -0.0832  0.3141 -0.0328
13136TIP3    H160899   1.707   5.895  11.539 -0.4401  0.0134  0.8571
13136TIP3    H260900   1.683   5.746  11.541  0.2448 -0.1318 -0.4783
13137TIP3   OH260901   5.540   6.490  14.170 -0.2490  0.6272  0.5392
13137TIP3    H160902   5.480   6.564  14.158  0.0369  1.0549  1.6386
13137TIP3    H260903   5.538   6.444  14.086 -1.5257  1.0682  0.2974
13138TIP3   OH260904   4.484   5.422  13.745 -0.0613  0.2437  0.3469
13138TIP3    H160905   4.569   5.378  13.738 -0.3774 -0.4071  0.5782
13138TIP3    H260906   4.493   5.500  13.690 -0.9377 -2.2789 -3.8017
13139TIP3   OH260907   3.117   2.317   6.333  0.3883  0.1563  0.4610
13139TIP3    H160908   3.090   2.248   6.273  1.6118  0.9394 -1.0793
13139TIP3    H260909   3.039   2.370   6.346  0.6007  1.4317 -2.5613
13140TIP3   OH260910   2.034   1.850  14.427 -0.6961  0.0155 -0.1634
13140TIP3    H160911   2.110   1.862  14.370 -0.1036  1.8670  0.9228
13140TIP3    H260912   2.059   1.779  14.486 -0.7162 -0.8827 -1.2024
13141TIP3   OH260913   3.370   3.272  12.747  0.4583 -0.6524 -0.0751
13141TIP3    H160914   3.439   3.294  12.684  0.5594 -0.5591  0.0671
13141TIP3    H260915   3.410   3.207  12.804  1.1421  0.8939  1.2934
13142TIP3   OH260916   3.861   1.175  16.789 -0.0195  0.1961 -0.4778
13142TIP3    H160917   3.832   1.179  16.880  0.2681  0.3803 -0.3934
13142TIP3    H260918   3.807   1.106  16.749 -0.5347  0.5049 -0.3135
13143TIP3   OH260919   1.738   6.449  14.299  0.1239 -0.0990 -0.2870
13143TIP3    H160920   1.736   6.364  14.342  0.4472  0.1611  0.2541
13143TIP3    H260921   1.765   6.510  14.368  0.1061  0.4069 -0.7225
13144TIP3   OH260922   1.417   5.959  14.134  0.4661 -0.2005 -0.4167
13144TIP3    H160923   1.457   6.028  14.187  1.0549  0.4868 -1.7204
13144TIP3    H260924   1.365   5.908  14.197  1.0992  0.6089  0.8026
13145TIP3   OH260925   5.850   0.882  16.864  0.0365  0.1779  0.4577
13145TIP3    H160926   5.923   0.872  16.803 -0.4589 -0.7173 -0.0179
13145TIP3    H260927   5.788   0.813  16.838 -0.6244  0.4200  1.3470
13146TIP3   OH260928   2.139   0.170  14.296 -0.2628 -0.0647 -0.3420
13146TIP3    H160929   2.229   0.143  14.281 -0.3359 -2.3402  2.4510
13146TIP3    H260930   2.089   0.089  14.298 -1.7954  0.8279  1.3047
13147TIP3   OH260931   1.569   4.874  11.178  0.2717  0.2764  0.1116
13147TIP3    H160932   1.574   4.914  11.091 -1.5070  1.0707  0.3340
13147TIP3    H260933   1.575   4.947  11.239 -0.6230 -0.0294  0.5850
13148TIP3   OH260934   5.485   2.607  16.325 -0.0694 -0.2240 -0.2129
13148TIP3    H160935   5.424   2.673  16.358  1.4996  0.8736  0.6601
13148TIP3    H260936   5.476   2.534  16.386 -2.4709 -1.2782 -1.6964
13149TIP3   OH260937   4.624   2.430   0.351  0.3376  0.9796 -0.0342
13149TIP3    H160938   4.700   2.373   0.338  0.6243  0.4295  3.2046
13149TIP3    H260939   4.662   2.517   0.363  0.3493  0.9503  0.1478
13150TIP3   OH260940   0.697   4.113  14.048  0.3389  0.2901  0.4799
13150TIP3    H160941   0.770   4.071  14.003  1.4979 -0.3419  2.8255
13150TIP3    H260942   0.645   4.152  13.977  1.2158 -1.9000 -1.5094
13151TIP3   OH260943   5.298   5.741  16.346 -0.2161  0.0388 -0.3068
13151TIP3    H160944   5.308   5.649  16.369 -1.7569  0.4683  2.6861
13151TIP3    H260945   5.356   5.787  16.407  1.1525  1.0661 -2.2966
13152TIP3   OH260946   0.874   2.404   0.397 -0.4825 -0.2893 -0.1887
13152TIP3    H160947   0.947   2.366   0.349  0.3903 -0.1828  1.0076
13152TIP3    H260948   0.914   2.450   0.471 -1.7732 -0.5106  0.6984
13153TIP3   OH260949   1.043   1.549  16.896 -0.0208 -0.0174 -0.5959
13153TIP3    H160950   1.119   1.589  16.937  0.3066  0.1800 -1.3634
13153TIP3    H260951   0.968   1.595  16.932  0.1039 -1.1499  1.2360
13154TIP3   OH260952   3.096   4.179   6.475  0.5820 -0.4005  0.3700
13154TIP3    H160953   3.012   4.173   6.429  0.7139 -1.1836  0.2016
13154TIP3    H260954   3.127   4.088   6.478  1.1924 -0.1791  0.8579
13155TIP3   OH260955   5.284   1.180  15.613  0.4840 -0.3182  0.5358
13155TIP3    H160956   5.251   1.202  15.527  0.5745 -0.6884  0.4048
13155TIP3    H260957   5.278   1.084  15.618  2.9349 -0.5755 -0.1000
13156TIP3   OH260958   4.435   2.880   4.491  0.5895 -0.0280 -0.2067
13156TIP3    H160959   4.372   2.871   4.419  1.8296  3.9269 -2.0735
13156TIP3    H260960   4.520   2.865   4.449  1.2361  0.7572  0.7968
13157TIP3   OH260961   5.326   1.898  14.796  0.0478  0.3922 -0.5296
13157TIP3    H160962   5.303   1.854  14.878 -0.0416  0.4936 -0.4989
13157TIP3    H260963   5.246   1.945  14.771 -0.0660 -0.0062 -0.9158
13158TIP3   OH260964   3.818   1.914  11.535  0.5100 -0.2207 -0.1211
13158TIP3    H160965   3.853   2.002  11.522  0.6481 -0.5110 -2.0637
13158TIP3    H260966   3.757   1.902  11.461 -2.6368 -0.2902  2.2525
13159TIP3   OH260967   4.314   4.922  11.739 -0.2146  0.1970 -0.5284
13159TIP3    H160968   4.334   4.849  11.680 -0.2219 -0.0313 -0.2552
13159TIP3    H260969   4.218   4.924  11.742 -0.2137 -0.3219  0.1100
13160TIP3   OH260970   1.385   0.560  12.565  0.1725 -0.1354  0.2641
13160TIP3    H160971   1.432   0.517  12.494  0.3905 -0.0827  0.3771
13160TIP3    H260972   1.356   0.643  12.527 -2.9191 -1.5956 -0.9694
13161TIP3   OH260973   1.934   6.423   3.534 -0.0552  0.5244 -0.4694
13161TIP3    H160974   1.935   6.479   3.457  1.2602  0.8322 -0.2463
13161TIP3    H260975   1.860   6.363   3.520 -0.7953  1.5883 -1.2202
13162TIP3   OH260976   2.034   5.954  16.247  0.2219 -0.2177  0.0275
13162TIP3    H160977   1.982   6.033  16.232  0.4384 -0.1751 -0.5289
13162TIP3    H260978   2.084   5.973  16.326 -0.2412 -0.0694  0.2917
13163TIP3   OH260979   2.025   3.060   1.282  0.1025  0.1532  0.3190
13163TIP3    H160980   2.086   2.997   1.319 -1.3279 -0.0784  2.4581
13163TIP3    H260981   2.078   3.114   1.223  2.0983 -0.7280  1.2248
13164TIP3   OH260982   4.392   5.427  14.257 -0.3970  0.1349 -0.2975
13164TIP3    H160983   4.440   5.508  14.235 -0.7035  0.1111 -1.1067
13164TIP3    H260984   4.344   5.406  14.177  0.5198 -1.4527 -0.4741
13165TIP3   OH260985   3.539   0.143  12.208 -0.2320  0.2785 -0.8266
13165TIP3    H160986   3.618   0.196  12.224  0.5865 -1.2512  0.4766
13165TIP3    H260987   3.507   0.173  12.122  1.7782  0.9336 -1.4065
13166TIP3   OH260988   5.365   5.869  15.170  0.2818  0.0157 -0.1744
13166TIP3    H160989   5.411   5.819  15.103  2.2652  3.1611 -1.3952
13166TIP3    H260990   5.394   5.832  15.253  2.3779 -0.2958 -0.9920
13167TIP3   OH260991   4.320   4.141   0.818  0.4432  0.3746  0.0094
13167TIP3    H160992   4.308   4.199   0.894  0.5431  0.2886  0.0924
13167TIP3    H260993   4.236   4.142   0.773  0.2964  0.2103  0.2760
13168TIP3   OH260994   1.149   1.115  12.433  0.0864 -0.2467 -0.4422
13168TIP3    H160995   1.227   1.117  12.488 -0.6759  1.4185  0.6327
13168TIP3    H260996   1.114   1.027  12.445  0.7863 -0.4123  0.5006
13169TIP3   OH260997   4.504   4.558  14.776  0.4364 -0.7207  0.0565
13169TIP3    H160998   4.574   4.530  14.836  1.6796  0.9524 -0.5079
13169TIP3    H260999   4.531   4.525  14.690  0.3334 -0.4373 -0.0891
13170TIP3   OH261000   6.547   5.738  16.150 -0.0703 -0.3896 -0.5269
13170TIP3    H161001   6.554   5.666  16.213  0.7617 -0.6401 -0.8978
13170TIP3    H261002   6.622   5.727  16.092  0.4997  1.2243 -0.1401
13171TIP3   OH261003   0.730   1.160   2.812 -0.2128 -0.6117 -0.4343
13171TIP3    H161004   0.665   1.090   2.818  0.3552 -1.2310 -1.3208
13171TIP3    H261005   0.697   1.217   2.742  0.5426 -1.3145 -1.3810
13172TIP3   OH261006   2.236   0.183   0.387  0.0002 -0.2856 -0.5207
13172TIP3    H161007   2.206   0.181   0.478  0.7835 -2.0604 -0.2620
13172TIP3    H261008   2.157   0.169   0.335 -0.4239  0.5696 -0.1399
13173TIP3   OH261009   6.653   0.149  12.211  0.0280  0.0147 -0.5997
13173TIP3    H161010   6.629   0.158  12.119  1.4447 -0.4609 -1.0294
13173TIP3    H261011   6.690   0.061  12.218  1.4198  0.6262  0.0697
13174TIP3   OH261012   4.256   0.710  13.992 -0.6218 -0.2041  0.2351
13174TIP3    H161013   4.229   0.621  14.014 -2.2576  0.5429  1.5281
13174TIP3    H261014   4.280   0.749  14.076 -2.5526  1.3543  0.1240
13175TIP3   OH261015   5.632   0.873   6.111 -0.1117 -0.1083  0.0647
13175TIP3    H161016   5.677   0.925   6.045 -0.0516  0.0919  0.2626
13175TIP3    H261017   5.541   0.870   6.081 -0.0865 -0.0099 -0.0225
13176TIP3   OH261018   5.771   6.030  13.344 -0.3835  0.5911  0.4128
13176TIP3    H161019   5.791   6.086  13.419  1.0068  0.3914  0.2193
13176TIP3    H261020   5.768   5.941  13.380  1.1087  0.3944  0.1466
13177TIP3   OH261021   0.283   5.808  12.980  0.3620 -0.4054  0.7814
13177TIP3    H161022   0.305   5.890  13.024 -2.2544  0.7239  0.1967
13177TIP3    H261023   0.253   5.750  13.050  0.2810 -0.1200  0.9865
13178TIP3   OH261024   2.822   6.509   5.336 -0.0848  0.3049  0.0761
13178TIP3    H161025   2.754   6.562   5.377 -0.2413  0.8809 -0.8823
13178TIP3    H261026   2.821   6.536   5.244  0.5242 -0.6475 -0.2269
13179TIP3   OH261027   0.071   1.912   4.227  0.3320  0.1291  0.6011
13179TIP3    H161028   0.145   1.885   4.173 -0.1308 -0.0087  0.0294
13179TIP3    H261029   0.043   1.833   4.272  0.4002  0.1383  0.6602
13180TIP3   OH261030   4.153   2.960  13.754 -0.1925 -0.2630  0.2719
13180TIP3    H161031   4.157   3.032  13.690 -2.7169  1.1060  1.5101
13180TIP3    H261032   4.229   2.907  13.734  0.5985  1.5691 -2.1336
13181TIP3   OH261033   3.711   4.712  15.408  0.5877  0.3146 -0.0388
13181TIP3    H161034   3.689   4.628  15.448  2.1684 -0.3311 -0.4566
13181TIP3    H261035   3.653   4.718  15.331 -0.3211  0.1597  0.6164
13182TIP3   OH261036   2.868   6.411   3.073  0.0740 -0.0899  0.6972
13182TIP3    H161037   2.884   6.348   3.003  0.8827 -0.2894  1.0457
13182TIP3    H261038   2.955   6.433   3.106 -0.3067 -0.6511  2.1951
13183TIP3   OH261039   2.640   6.014  11.369  0.1409 -0.4894  0.2558
13183TIP3    H161040   2.677   6.049  11.450 -0.0243 -1.7186  0.8979
13183TIP3    H261041   2.654   6.082  11.304 -1.2442  1.2524  1.6980
13184TIP3   OH261042   5.874   3.115   4.192  0.5882 -0.5357  0.3766
13184TIP3    H161043   5.953   3.140   4.239  0.9403 -3.2389  1.3811
13184TIP3    H261044   5.896   3.033   4.149 -1.0412 -0.2436 -1.1601
13185TIP3   OH261045   0.457   0.243  15.889 -0.3041 -0.1897  0.6027
13185TIP3    H161046   0.384   0.304  15.900 -0.4477 -0.4549  1.1834
13185TIP3    H261047   0.417   0.156  15.899 -0.0665 -0.3722 -0.0074
13186TIP3   OH261048   2.543   0.037   2.784  0.2479 -0.0681 -0.0861
13186TIP3    H161049   2.485   0.074   2.717  1.1873  0.1558 -0.7968
13186TIP3    H261050   2.484   0.014   2.856 -0.6733  0.5015 -0.6300
13187TIP3   OH261051   3.886   5.107  10.845 -0.0596  0.2068 -0.4070
13187TIP3    H161052   3.921   5.047  10.911 -0.2319 -0.9773 -1.3721
13187TIP3    H261053   3.964   5.145  10.804  0.0532 -0.1308 -0.5011
13188TIP3   OH261054   3.209   4.196  10.185 -0.0034 -0.0160  0.2479
13188TIP3    H161055   3.184   4.272  10.238 -2.9806 -0.5331 -0.2287
13188TIP3    H261056   3.241   4.132  10.249  0.0643  0.7066  0.9541
13189TIP3   OH261057   5.474   5.440  15.201 -0.0190  0.2949 -0.4360
13189TIP3    H161058   5.466   5.421  15.295  0.1866 -1.7732 -0.7908
13189TIP3    H261059   5.548   5.500  15.195 -1.1970  1.9756  0.8664
13190TIP3   OH261060   6.009   4.756   3.507  0.3279  0.1323  0.1376
13190TIP3    H161061   5.958   4.695   3.454 -2.2278  1.9338  0.3295
13190TIP3    H261062   6.071   4.794   3.446  1.1205 -1.6748 -0.2580
13191TIP3   OH261063   1.507   3.464   0.976  0.5262  0.3169  0.0694
13191TIP3    H161064   1.551   3.496   1.055 -0.6447  0.5338  0.6592
13191TIP3    H261065   1.565   3.397   0.941  1.5932  0.9900  0.4894
13192TIP3   OH261066   4.809   4.277  15.654 -0.0455 -0.0596 -0.0495
13192TIP3    H161067   4.831   4.354  15.601  1.7651  0.4337  1.2978
13192TIP3    H261068   4.860   4.206  15.615  0.6715  0.1310  0.5103
13193TIP3   OH261069   4.277   0.220  16.658 -0.1053 -0.2222 -0.3060
13193TIP3    H161070   4.348   0.187  16.713 -1.8249 -1.2772  1.4351
13193TIP3    H261071   4.294   0.313  16.648  0.7944 -0.2050  1.2234
13194TIP3   OH261072   1.831   0.880  14.259  0.6775 -0.4310 -0.7773
13194TIP3    H161073   1.849   0.916  14.346  0.7618 -0.7429 -0.6662
13194TIP3    H261074   1.915   0.845  14.229  0.6745 -0.2245 -1.0327
13195TIP3   OH261075   0.549   4.618  11.584 -0.1802 -0.6874  0.7885
13195TIP3    H161076   0.584   4.701  11.618  2.5791 -1.1060 -0.7841
13195TIP3    H261077   0.520   4.639  11.495  1.0383 -1.4757  0.1797
13196TIP3   OH261078   5.010   1.724   6.103  0.1187 -0.0331 -0.5806
13196TIP3    H161079   5.008   1.628   6.098 -0.3834 -0.0686  0.0765
13196TIP3    H261080   4.926   1.747   6.143  1.0351  0.5335  1.1464
13197TIP3   OH261081   0.115   1.256   6.659  0.3192 -0.3708 -0.4518
13197TIP3    H161082   0.149   1.184   6.711  0.4135 -0.7636 -1.0501
13197TIP3    H261083   0.189   1.283   6.604  0.7496  1.1838  0.8332
13198TIP3   OH261084   6.672   0.511   1.230  0.4215 -0.2574  0.1280
13198TIP3    H161085   6.758   0.483   1.199  0.8038  0.2147  0.7322
13198TIP3    H261086   6.610   0.456   1.182  1.0340 -0.2582 -0.6717
13199TIP3   OH261087   3.226   5.645   3.295 -0.4586 -0.1761  0.0939
13199TIP3    H161088   3.270   5.560   3.297 -2.2867 -1.1661  1.9236
13199TIP3    H261089   3.143   5.629   3.251 -0.9177  0.6088  0.6427
13200TIP3   OH261090   6.014   0.679  16.731  0.1535  0.0820  0.1013
13200TIP3    H161091   6.006   0.606  16.669  0.3000  0.2079 -0.0696
13200TIP3    H261092   6.066   0.744  16.683 -0.2738  0.4412  0.1207
13201TIP3   OH261093   1.270   3.336  15.048 -0.5206  0.0236  0.3176
13201TIP3    H161094   1.284   3.427  15.020 -0.6902  0.2391  0.9050
13201TIP3    H261095   1.251   3.343  15.142  0.3196 -0.6983  0.5543
13202TIP3   OH261096   5.132   4.805   4.615 -0.2343  0.2208 -0.0637
13202TIP3    H161097   5.049   4.836   4.578 -0.0702  0.2156 -0.4403
13202TIP3    H261098   5.198   4.861   4.574  0.1174 -0.9280 -1.1328
13203TIP3   OH261099   1.776   1.802   0.041 -0.0369 -0.0599  0.1120
13203TIP3    H161100   1.806   1.815   0.131 -1.4247  0.3962  0.5405
13203TIP3    H261101   1.792   1.886  -0.002  0.4660 -0.2230 -0.0251
13204TIP3   OH261102   0.729   4.439  11.406 -0.2186  0.4956  0.0806
13204TIP3    H161103   0.647   4.424  11.358  0.0013  1.6768 -0.6971
13204TIP3    H261104   0.722   4.528  11.440  0.8081  0.6759 -0.1389
13205TIP3   OH261105   3.644   2.868   4.771  0.1785 -0.0546 -0.1768
13205TIP3    H161106   3.577   2.930   4.744 -0.3760 -0.5886 -0.0433
13205TIP3    H261107   3.711   2.922   4.814 -0.5151  0.3945  0.3557
13206TIP3   OH261108   3.542   3.059  11.422  0.0102 -0.5786 -0.2633
13206TIP3    H161109   3.546   3.084  11.330  1.5690  0.9376  0.1572
13206TIP3    H261110   3.540   3.142  11.470  1.5658 -1.2707  1.1141
13207TIP3   OH261111   3.233   5.869   4.474 -0.0702  0.4077 -0.0735
13207TIP3    H161112   3.195   5.918   4.547 -1.2866 -0.8624  0.1911
13207TIP3    H261113   3.318   5.841   4.505 -0.2246  0.6097  0.5388
13208TIP3   OH261114   5.085   3.020  13.942 -0.1878  0.1781  0.0957
13208TIP3    H161115   5.011   3.069  13.978  0.6516 -0.4980  3.0118
13208TIP3    H261116   5.048   2.935  13.919 -1.7137  1.9006 -5.2519
13209TIP3   OH261117   6.647   0.506   6.304 -0.3693  0.6600  0.5268
13209TIP3    H161118   6.597   0.474   6.228  1.6909  0.1122 -0.6655
13209TIP3    H261119   6.637   0.601   6.300 -0.6743  0.6117 -0.1454
13210TIP3   OH261120   5.756   1.185   2.061 -0.1317  0.5755 -0.0412
13210TIP3    H161121   5.731   1.093   2.065  0.9033  0.3074  3.0746
13210TIP3    H261122   5.831   1.188   2.002  0.8574 -0.9127  1.0769
13211TIP3   OH261123   2.483   3.358  15.038  0.2533  0.3958  0.0928
13211TIP3    H161124   2.424   3.428  15.065 -1.4409 -1.5818  1.8413
13211TIP3    H261125   2.477   3.292  15.108  1.4756 -1.6652 -1.6045
13212TIP3   OH261126   2.875   4.853   4.140  0.3143 -0.2726 -0.0522
13212TIP3    H161127   2.825   4.814   4.211 -1.2523 -1.0462 -1.4983
13212TIP3    H261128   2.810   4.870   4.071  1.8231 -0.0225 -1.4862
13213TIP3   OH261129   0.289   1.050   3.630  0.2619 -0.6763  0.1499
13213TIP3    H161130   0.244   1.092   3.557 -1.0717 -1.4201  0.5101
13213TIP3    H261131   0.380   1.077   3.621 -0.1874  0.5986 -0.8049
13214TIP3   OH261132   3.670   3.533  14.534 -0.0928 -0.1464  0.3387
13214TIP3    H161133   3.651   3.581  14.615 -0.1760  0.9290 -0.3000
13214TIP3    H261134   3.594   3.548  14.478 -0.4727 -1.6744  0.3947
13215TIP3   OH261135   1.087   3.205   4.290 -0.2504 -0.5127 -0.3209
13215TIP3    H161136   1.103   3.224   4.383 -1.3101  0.5528 -0.3268
13215TIP3    H261137   1.163   3.153   4.262  2.0719  2.3801  0.1614
13216TIP3   OH261138   5.131   2.340   1.285 -0.1054  0.1408  0.3147
13216TIP3    H161139   5.222   2.319   1.263  0.2430  0.3282  1.4921
13216TIP3    H261140   5.081   2.315   1.207  0.4527 -3.6512  0.9600
13217TIP3   OH261141   3.256   5.685   2.231  0.0198 -0.9264  0.1664
13217TIP3    H161142   3.303   5.637   2.299  1.1042 -0.5063 -0.2549
13217TIP3    H261143   3.203   5.749   2.279  1.9979  0.4672  0.6181
13218TIP3   OH261144   2.181   1.789   3.308  0.3921  0.0052 -0.1958
13218TIP3    H161145   2.273   1.770   3.293  0.7255  2.6310 -2.0153
13218TIP3    H261146   2.153   1.837   3.231 -3.0095 -2.1079 -0.5178
13219TIP3   OH261147   1.492   6.455   6.397 -0.5047 -0.1403  0.1485
13219TIP3    H161148   1.508   6.496   6.313 -0.2287 -0.6017 -0.0287
13219TIP3    H261149   1.563   6.391   6.407  1.4544  2.1333  2.2100
13220TIP3   OH261150   0.503   3.254  13.266  0.2518  0.1022 -0.4887
13220TIP3    H161151   0.521   3.200  13.343 -1.4641  0.0845 -0.0453
13220TIP3    H261152   0.522   3.344  13.295 -2.7907  0.4338  0.9208
13221TIP3   OH261153   1.394   1.076  12.534 -0.5266 -0.0694 -0.2730
13221TIP3    H161154   1.476   1.041  12.569 -0.1823  0.8432 -0.1265
13221TIP3    H261155   1.420   1.130  12.460 -0.9631  0.4592 -0.0500
13222TIP3   OH261156   3.109   0.916   4.853 -0.5036  0.5930 -0.5537
13222TIP3    H161157   3.199   0.888   4.870 -0.5253 -2.7673 -4.3687
13222TIP3    H261158   3.056   0.865   4.914  0.0726  0.1734 -0.3894
13223TIP3   OH261159   0.317   4.144   1.637  0.0176 -0.1423 -0.4037
13223TIP3    H161160   0.275   4.223   1.669 -0.4179 -0.5606  0.0912
13223TIP3    H261161   0.320   4.086   1.714 -0.9896 -1.1475 -1.0992
13224TIP3   OH261162   1.129   5.109  13.614  0.6045  0.1805  0.2152
13224TIP3    H161163   1.065   5.041  13.592  1.6391 -0.3610 -1.2499
13224TIP3    H261164   1.125   5.115  13.710 -2.5824  1.1393  0.1146
13225TIP3   OH261165   1.637   6.600  15.081  0.2883 -0.3308 -0.3108
13225TIP3    H161166   1.714   6.613  15.027  0.6607  1.1811  0.5009
13225TIP3    H261167   1.665   6.626  15.169 -1.1281  0.2888 -0.0102
13226TIP3   OH261168   1.029   1.939  12.872  0.7909  0.0704  0.4305
13226TIP3    H161169   0.994   1.991  12.800  1.1018  1.2592  1.1159
13226TIP3    H261170   0.983   1.971  12.949  1.1828 -0.4990  0.9082
13227TIP3   OH261171   3.168   6.623   1.196  0.1179  0.1690 -0.7209
13227TIP3    H161172   3.219   6.542   1.198 -0.9058 -0.5078 -1.0255
13227TIP3    H261173   3.134   6.628   1.107 -0.2998  0.6372 -0.5392
13228TIP3   OH261174   2.393   1.013  12.763 -0.3902 -0.7660  0.2508
13228TIP3    H161175   2.338   1.088  12.739  0.3689 -0.4015 -0.4299
13228TIP3    H261176   2.374   0.948  12.696  0.6246 -0.3146 -0.4949
13229TIP3   OH261177   2.178   2.984  16.754  0.3908  0.1111  0.7237
13229TIP3    H161178   2.223   2.911  16.796 -0.6687 -0.2710  1.2361
13229TIP3    H261179   2.093   2.989  16.798 -0.5047  0.1218 -0.9000
13230TIP3   OH261180   3.504   4.595   0.656  0.2536 -0.5197 -0.3346
13230TIP3    H161181   3.409   4.587   0.653  0.3500 -1.8794 -0.4592
13230TIP3    H261182   3.524   4.673   0.604 -0.7775 -0.2573 -0.3553
13231TIP3   OH261183   4.152   3.320   2.959 -0.0096 -0.0972  0.5384
13231TIP3    H161184   4.076   3.290   2.909  1.2272 -1.5253 -0.5579
13231TIP3    H261185   4.119   3.331   3.048 -1.3535 -1.3203  0.2260
13232TIP3   OH261186   0.156   0.018  12.604 -0.0197 -0.4778 -0.0675
13232TIP3    H161187   0.204  -0.008  12.525  0.1862  1.9095 -0.7873
13232TIP3    H261188   0.213  -0.010  12.676  0.7389 -0.8980 -0.8024
13233TIP3   OH261189   6.399   1.271   4.102 -0.1449 -0.6124  0.2593
13233TIP3    H161190   6.405   1.224   4.019 -1.2334 -2.4731  1.1580
13233TIP3    H261191   6.342   1.345   4.084 -1.2067 -1.5647 -0.4445
13234TIP3   OH261192   1.741   5.935  13.877  0.1237  0.5101  0.7008
13234TIP3    H161193   1.824   5.923  13.924  1.4483 -3.3770 -2.0823
13234TIP3    H261194   1.680   5.877  13.922  0.2027  0.0346  0.2087
13235TIP3   OH261195   4.692   1.798   0.301  0.5310  0.8088 -0.0952
13235TIP3    H161196   4.720   1.746   0.377  1.4920  2.6861  0.9243
13235TIP3    H261197   4.662   1.733   0.238  1.0498 -0.9347  1.3315
13236TIP3   OH261198   6.224   2.499   4.431  0.0828 -0.0801 -0.3945
13236TIP3    H161199   6.204   2.476   4.340 -1.1148 -2.0238  0.2939
13236TIP3    H261200   6.159   2.451   4.483  0.7773  0.9200  1.5102
13237TIP3   OH261201   0.847   5.277   5.547  0.0342 -0.6108 -0.3856
13237TIP3    H161202   0.896   5.243   5.622 -0.1195 -0.1470 -0.0676
13237TIP3    H261203   0.907   5.270   5.473  1.0492  1.1138  0.2277
13238TIP3   OH261204   0.176   3.958   1.120  0.2507 -0.0197 -0.5519
13238TIP3    H161205   0.183   3.962   1.216 -0.0757  1.0035 -0.5559
13238TIP3    H261206   0.082   3.960   1.103  0.3177  0.4332 -0.9009
13239TIP3   OH261207   3.292   3.366  14.299 -0.5735 -0.6498  0.3588
13239TIP3    H161208   3.367   3.357  14.240 -0.6981 -0.1256  0.1154
13239TIP3    H261209   3.263   3.276  14.315  0.3161 -0.8751  0.7309
13240TIP3   OH261210   1.399   1.779   1.470 -0.3849 -0.3027  0.6526
13240TIP3    H161211   1.315   1.811   1.502 -0.9407 -1.1290  0.0610
13240TIP3    H261212   1.377   1.725   1.394  0.6246 -1.0038  0.8405
13241TIP3   OH261213   5.119   5.203  11.321 -0.0439  0.3665 -0.2085
13241TIP3    H161214   5.135   5.296  11.305 -0.3321  0.2205 -1.4289
13241TIP3    H261215   5.038   5.184  11.273  0.6955 -0.8045 -1.0539
13242TIP3   OH261216   2.717   3.848  13.200  0.0014  0.0426 -0.0515
13242TIP3    H161217   2.659   3.790  13.152 -1.5221  0.6696  0.9485
13242TIP3    H261218   2.767   3.894  13.132  0.0686 -1.2474 -0.8940
13243TIP3   OH261219   1.311   2.740   0.691 -0.2222 -0.4721  0.0383
13243TIP3    H161220   1.312   2.662   0.746  1.2309 -0.4822  0.0575
13243TIP3    H261221   1.227   2.738   0.646 -0.0831 -2.1898 -0.1785
13244TIP3   OH261222   4.097   1.403  13.946  0.5022  0.3227 -0.2020
13244TIP3    H161223   4.151   1.340  13.899  2.6047  2.4102 -0.8166
13244TIP3    H261224   4.115   1.487  13.903  0.5541  1.9326  2.6510
13245TIP3   OH261225   4.988   2.581   3.641  0.1761 -0.8076  0.4617
13245TIP3    H161226   5.038   2.643   3.695 -0.2536  0.8079 -0.9340
13245TIP3    H261227   4.999   2.613   3.552  0.5584 -3.2069 -0.4261
13246TIP3   OH261228   4.287   6.761  11.485  0.1142  0.5637 -0.1639
13246TIP3    H161229   4.263   6.847  11.519  1.0931  0.5466  0.6206
13246TIP3    H261230   4.361   6.734  11.539 -0.6336 -1.0956  0.0743
13247TIP3   OH261231   2.413   6.122  11.208 -0.0497  0.0825  0.5436
13247TIP3    H161232   2.505   6.141  11.192 -0.1769 -0.6975 -1.2907
13247TIP3    H261233   2.393   6.049  11.150 -1.5566 -0.4744  1.7153
13248TIP3   OH261234   0.257   4.775   6.003 -0.7773  0.2419  0.7887
13248TIP3    H161235   0.289   4.835   6.070  1.3985 -0.2312  0.2393
13248TIP3    H261236   0.305   4.693   6.018  0.5865  0.4217 -1.8914
13249TIP3   OH261237   4.295   0.804   1.667 -0.1155 -0.0711  0.3451
13249TIP3    H161238   4.338   0.822   1.751 -0.5071  1.3014  0.2695
13249TIP3    H261239   4.205   0.834   1.678 -0.0453  0.5853 -0.7133
13250TIP3   OH261240   4.740   2.293   4.108  0.1078 -0.3958  1.0535
13250TIP3    H161241   4.665   2.271   4.164  0.1123 -1.6652  0.5991
13250TIP3    H261242   4.714   2.372   4.061 -0.8896 -0.7519  0.9983
13251TIP3   OH261243   0.106   5.678  13.134  0.3385 -0.0169  0.2750
13251TIP3    H161244   0.107   5.593  13.180 -2.1658 -0.8827 -1.1085
13251TIP3    H261245   0.013   5.698  13.123  0.8767  1.8163 -1.4306
13252TIP3   OH261246   1.069   2.361   0.220  0.1250  0.1570  0.3903
13252TIP3    H161247   1.100   2.363   0.129 -0.0330 -0.8495  0.2956
13252TIP3    H261248   1.049   2.269   0.235  0.7608  0.2128  1.6609
13253TIP3   OH261249   5.781   5.415  14.970 -0.0704  0.0093  0.2115
13253TIP3    H161250   5.706   5.466  14.998  0.9163  1.2548  0.6461
13253TIP3    H261251   5.840   5.478  14.929  0.3103 -1.1079 -1.0570
13254TIP3   OH261252   1.028   6.587   0.878  0.0372  0.3989 -0.2711
13254TIP3    H161253   1.053   6.554   0.792 -0.6621  0.1883 -0.3911
13254TIP3    H261254   1.048   6.681   0.874  1.7626  0.0931 -0.0175
13255TIP3   OH261255   0.744   5.412  13.627  0.1842 -0.2791  0.2141
13255TIP3    H161256   0.740   5.342  13.562  0.0704 -0.5061  0.4658
13255TIP3    H261257   0.777   5.370  13.706  0.8651  0.1120  0.1482
13256TIP3   OH261258   3.986   2.086  14.952  0.5223 -0.4778 -0.3959
13256TIP3    H161259   4.082   2.087  14.955  0.5305  0.3118 -0.7716
13256TIP3    H261260   3.959   2.145  15.022  0.3473  0.5022 -1.2679
13257TIP3   OH261261   4.014   0.512   2.627  0.0884  0.1154  0.7162
13257TIP3    H161262   4.062   0.446   2.577 -0.1573 -0.3812  1.1243
13257TIP3    H261263   3.927   0.514   2.587  0.0199  0.0144  0.8590
13258TIP3   OH261264   4.272   1.920  14.788 -0.4393  0.2238 -0.2840
13258TIP3    H161265   4.228   1.854  14.842 -0.4397  0.8332  0.4685
13258TIP3    H261266   4.205   1.950  14.727 -0.6147 -0.0122 -0.2075
13259TIP3   OH261267   2.078   4.030   5.783 -0.7195 -0.3202  0.3179
13259TIP3    H161268   2.089   3.972   5.709  0.6681  0.5237 -0.1724
13259TIP3    H261269   2.155   4.016   5.837  0.9951  2.7650 -1.0732
13260TIP3   OH261270   1.129   3.518  13.893 -0.3141  0.0870 -0.1419
13260TIP3    H161271   1.160   3.502  13.983 -0.7834  0.8894  0.1741
13260TIP3    H261272   1.170   3.449  13.841  0.0755 -0.3095  0.6683
13261TIP3   OH261273   5.334   2.081   3.292  0.5261  0.3188  0.2033
13261TIP3    H161274   5.288   2.151   3.246 -0.0504 -0.4802 -0.4662
13261TIP3    H261275   5.423   2.114   3.303 -0.4639  2.4947  2.8138
13262TIP3   OH261276   4.031   1.894  16.837 -0.4529 -0.1984  0.0342
13262TIP3    H161277   4.082   1.895  16.917 -2.5289  1.4241  1.4456
13262TIP3    H261278   3.943   1.868  16.865 -0.9448 -0.8318 -1.9325
13263TIP3   OH261279   5.993   5.305   4.735 -0.3100  0.1992 -0.4030
13263TIP3    H161280   6.073   5.316   4.787 -0.0938 -0.0864 -0.6727
13263TIP3    H261281   5.956   5.393   4.730 -1.2229 -0.0241  1.6367
13264TIP3   OH261282   4.233   3.668  11.852  0.1832  0.6313 -0.2362
13264TIP3    H161283   4.155   3.723  11.855  0.4842  1.0210  0.9208
13264TIP3    H261284   4.211   3.594  11.909  0.4860  0.4973 -0.2949
13265TIP3   OH261285   2.524   1.645  10.157 -0.3376 -0.2597 -0.3162
13265TIP3    H161286   2.573   1.574  10.200  1.0490  1.6254  1.4613
13265TIP3    H261287   2.588   1.687  10.100 -0.6911  0.4859 -0.1770
13266TIP3   OH261288   4.491   4.681   2.075 -0.4771 -0.1040 -0.2969
13266TIP3    H161289   4.538   4.717   2.150 -1.6930  0.6890  0.1122
13266TIP3    H261290   4.541   4.603   2.051 -0.2125 -0.5332  1.5075
13267TIP3   OH261291   6.366   5.163  15.453  0.3100  0.5243 -0.3366
13267TIP3    H161292   6.308   5.236  15.475 -2.3153 -0.8783 -2.0950
13267TIP3    H261293   6.308   5.086  15.453  2.1552 -0.9604 -2.3144
13268TIP3   OH261294   2.569   5.378  12.430  0.8024 -0.0271  0.0015
13268TIP3    H161295   2.580   5.426  12.512 -1.7928 -0.8021  0.9037
13268TIP3    H261296   2.493   5.419  12.388  1.3032 -0.4809 -1.4163
13269TIP3   OH261297   3.276   1.684  14.035  0.0449 -0.4073 -0.0520
13269TIP3    H161298   3.320   1.603  14.059  0.5708 -0.7248 -1.9309
13269TIP3    H261299   3.319   1.752  14.087  0.5000 -1.1389  0.5449
13270TIP3   OH261300   4.634   6.253   4.489 -0.8260  0.3463  0.6060
13270TIP3    H161301   4.620   6.216   4.576 -1.9676  1.6233  1.0085
13270TIP3    H261302   4.591   6.192   4.430 -2.2347  0.6960  1.2050
13271TIP3   OH261303   3.773   1.688  16.956 -0.0721 -0.5206 -0.4500
13271TIP3    H161304   3.686   1.651  16.969 -0.7934  1.2258 -0.1337
13271TIP3    H261305   3.825   1.615  16.921 -0.5765 -2.7943  2.9767
13272TIP3   OH261306   4.416   1.738   3.373  0.0441  0.1052  0.4388
13272TIP3    H161307   4.439   1.827   3.400  0.4501  0.5142 -1.1347
13272TIP3    H261308   4.375   1.749   3.287  0.6602 -1.2747 -0.0591
13273TIP3   OH261309   2.973   3.578  15.129 -0.4259 -0.1901  0.4272
13273TIP3    H161310   2.913   3.649  15.152 -1.0235 -0.1388 -1.1782
13273TIP3    H261311   2.975   3.523  15.208 -0.6537  1.0954  1.3757
13274TIP3   OH261312   4.523   6.485   4.369  0.1736 -0.2763  0.3495
13274TIP3    H161313   4.572   6.425   4.426  1.3267 -1.0917 -1.4242
13274TIP3    H261314   4.443   6.438   4.347  0.4182 -0.5799  0.1035
13275TIP3   OH261315   6.356   2.709   5.580  0.0001  0.0231 -0.5312
13275TIP3    H161316   6.413   2.741   5.510 -0.1723 -0.0531 -0.7082
13275TIP3    H261317   6.368   2.772   5.652 -0.5464  0.6434 -0.9747
13276TIP3   OH261318   6.156   1.365  17.071  0.0648 -0.7142 -0.2061
13276TIP3    H161319   6.208   1.419  17.132  1.2864  0.3552 -2.0974
13276TIP3    H261320   6.221   1.323  17.015 -1.0199 -1.8382 -0.6640
13277TIP3   OH261321   5.036   2.986  13.294 -0.5811  0.2807 -0.2000
13277TIP3    H161322   5.109   3.037  13.259 -0.1032  0.3234  0.8211
13277TIP3    H261323   5.051   2.985  13.389 -0.7993 -1.4311 -0.1598
13278TIP3   OH261324   3.003   2.497   2.443 -0.4691  0.5859 -0.6302
13278TIP3    H161325   3.048   2.472   2.363 -1.8535 -1.9891 -0.7306
13278TIP3    H261326   3.055   2.458   2.513 -1.3256 -0.5610 -0.6023
13279TIP3   OH261327   0.079   2.297  15.597 -0.0366 -0.0059  0.4392
13279TIP3    H161328   0.150   2.263  15.543 -0.0766  2.1151 -1.0552
13279TIP3    H261329   0.020   2.222  15.610  2.2794 -1.7446  1.5285
13280TIP3   OH261330   6.525   1.799   6.411 -0.1272 -0.0854 -0.1599
13280TIP3    H161331   6.572   1.875   6.446  0.9194  0.4503 -2.4983
13280TIP3    H261332   6.569   1.723   6.449 -0.2420  0.4489  1.0766
13281TIP3   OH261333   1.210   5.802   4.706 -0.5515  0.6575  0.2334
13281TIP3    H161334   1.275   5.866   4.736  0.5956  0.0436 -0.8697
13281TIP3    H261335   1.244   5.718   4.736 -0.3317  0.2362 -1.1226
13282TIP3   OH261336   2.854   2.921  16.491 -0.4268 -0.4235 -0.2834
13282TIP3    H161337   2.835   2.829  16.508  0.0349 -0.8415 -1.8794
13282TIP3    H261338   2.948   2.923  16.474 -0.1799  0.5759  1.0212
13283TIP3   OH261339   5.286   2.997  15.175  0.6003  0.5287  0.0522
13283TIP3    H161340   5.295   3.036  15.088  0.3739  0.3375 -0.0578
13283TIP3    H261341   5.372   3.007  15.215  0.9602 -0.1810 -0.5232
13284TIP3   OH261342   1.234   1.060  16.920 -0.0593  0.3085  0.7558
13284TIP3    H161343   1.294   1.127  16.887 -0.7143  0.3981 -0.2962
13284TIP3    H261344   1.205   1.093  17.005  0.0491  1.0987  0.4963
13285TIP3   OH261345   2.097   0.456  17.028 -0.7209 -0.7054  0.3595
13285TIP3    H161346   2.087   0.551  17.019 -1.0020 -0.8406 -0.9605
13285TIP3    H261347   2.161   0.445  17.098 -0.6214  0.4580  0.4648
13286TIP3   OH261348   6.233   3.735   3.111 -0.0360 -0.3156  0.1055
13286TIP3    H161349   6.267   3.697   3.191  0.0802 -0.0219  0.1955
13286TIP3    H261350   6.184   3.664   3.070  0.8728 -0.8088 -0.1439
13287TIP3   OH261351   4.964   4.467  12.006 -0.0281  0.0484 -0.6375
13287TIP3    H161352   4.946   4.493  11.915 -1.4595 -1.2505 -0.7734
13287TIP3    H261353   4.878   4.443  12.041  0.5258  0.3744  1.0372
13288TIP3   OH261354   4.415   5.842   4.220 -0.6418 -0.0994  0.1558
13288TIP3    H161355   4.502   5.843   4.181 -0.5681 -0.9915  0.2910
13288TIP3    H261356   4.357   5.868   4.149 -0.3604 -0.3820 -0.1787
13289TIP3   OH261357   5.403   3.034   2.258 -0.1620 -0.0579  0.1074
13289TIP3    H161358   5.434   3.084   2.183  0.8481  0.3333  0.7661
13289TIP3    H261359   5.476   3.035   2.320 -0.8075 -0.7549  0.9115
13290TIP3   OH261360   0.991   0.037  14.795 -0.0781  0.0207  0.5168
13290TIP3    H161361   1.043   0.109  14.758 -1.6397  1.7938  1.6022
13290TIP3    H261362   1.056  -0.026  14.826  1.4258  1.8895  1.3510
13291TIP3   OH261363   0.927   3.349  16.451 -0.0960  0.7267  0.0636
13291TIP3    H161364   0.882   3.428  16.422  0.3600  0.9250 -0.1099
13291TIP3    H261365   0.872   3.277  16.419  0.2038  0.9445 -0.9924
13292TIP3   OH261366   0.612   0.866   4.513 -0.1461  0.3978  0.0969
13292TIP3    H161367   0.586   0.900   4.428  0.9979 -0.2502 -0.5293
13292TIP3    H261368   0.698   0.903   4.529  0.4857 -0.9920  0.0717
13293TIP3   OH261369   6.247   6.778  14.447 -0.3453 -0.2898  0.3878
13293TIP3    H161370   6.153   6.769  14.433 -0.5421  1.8915 -0.0667
13293TIP3    H261371   6.262   6.742  14.535 -1.9339  0.9691  1.2228
13294TIP3   OH261372   2.346   2.942  15.356 -0.1466  0.7465  0.0112
13294TIP3    H161373   2.283   2.926  15.427 -1.1598 -0.3407 -1.0824
13294TIP3    H261374   2.333   2.869  15.296  0.5246  1.7526 -1.4053
13295TIP3   OH261375   5.973   4.934  16.986 -0.8063  0.1192  0.0548
13295TIP3    H161376   5.894   4.880  16.982 -0.3811 -0.4419 -2.3057
13295TIP3    H261377   5.970   4.987  16.906  1.1207  0.1791 -0.0205
13296TIP3   OH261378   2.244   1.817  13.345  0.1020 -0.1138 -0.1255
13296TIP3    H161379   2.158   1.789  13.374 -0.4191 -1.1306 -2.4100
13296TIP3    H261380   2.305   1.764  13.396 -0.6397 -0.1143  0.7883
13297TIP3   OH261381   2.136   0.024   0.080 -0.0631 -0.0630  0.9016
13297TIP3    H161382   2.219  -0.024   0.081 -0.1514 -0.2585 -0.2325
13297TIP3    H261383   2.124   0.051  -0.011  0.0803  2.3234  1.5385
13298TIP3   OH261384   0.836   4.886  16.920 -0.6526 -0.1735  0.5042
13298TIP3    H161385   0.826   4.832  16.841 -2.8575 -2.5863  2.2388
13298TIP3    H261386   0.747   4.917  16.938  0.1589  1.9531  1.0276
13299TIP3   OH261387   4.120   4.171  12.559 -0.3093  0.3002  0.0666
13299TIP3    H161388   4.065   4.109  12.512  0.1215 -0.8652  1.0543
13299TIP3    H261389   4.198   4.180  12.504 -0.6469  0.4813 -0.3932
13300TIP3   OH261390   4.185   6.801   5.465  0.0033 -0.3873 -0.1143
13300TIP3    H161391   4.143   6.791   5.379  1.4470 -1.0687 -0.7769
13300TIP3    H261392   4.268   6.756   5.456  0.5188  0.1977  1.4251
13301TIP3   OH261393   0.496   6.415  12.822  0.7032  0.2717 -0.0721
13301TIP3    H161394   0.571   6.433  12.878  0.5680  0.8587 -0.0758
13301TIP3    H261395   0.532   6.413  12.733  0.7874  0.1173 -0.0350
13302TIP3   OH261396   1.699   6.187  13.903  0.7808 -0.1043  0.0331
13302TIP3    H161397   1.620   6.228  13.869 -0.2628 -1.8175  0.2805
13302TIP3    H261398   1.693   6.095  13.875  2.8076 -0.2369 -0.1438
13303TIP3   OH261399   2.558   2.021   0.206 -0.1838  0.0881  0.0047
13303TIP3    H161400   2.555   2.093   0.142 -0.7878  0.0177 -0.0536
13303TIP3    H261401   2.646   2.026   0.243  0.2071  0.0820 -0.8878
13304TIP3   OH261402   2.365   0.461   1.341 -0.4144  0.3038 -0.4269
13304TIP3    H161403   2.452   0.424   1.329 -0.6318 -0.3929  0.0350
13304TIP3    H261404   2.366   0.496   1.430  0.0291  2.1463 -1.1056
13305TIP3   OH261405   6.148   6.632  15.027  0.4880 -0.2897  0.1482
13305TIP3    H161406   6.204   6.577  15.082 -0.6072 -1.7609 -0.1557
13305TIP3    H261407   6.182   6.621  14.939  0.4110 -0.2938  0.1194
13306TIP3   OH261408   0.932   2.466  15.596  0.0377  0.3907 -0.8945
13306TIP3    H161409   0.861   2.460  15.660  0.5517  0.5113 -0.3030
13306TIP3    H261410   0.932   2.381  15.553  0.4932 -0.1622  0.1495
13307TIP3   OH261411   2.319   6.162  11.999  0.8033  0.4105 -0.4438
13307TIP3    H161412   2.290   6.118  12.079  0.0157  1.6753 -0.0084
13307TIP3    H261413   2.244   6.156  11.939  1.5578 -0.9770 -1.3230
13308TIP3   OH261414   4.037   3.449   0.386  0.4537 -0.0465 -0.0286
13308TIP3    H161415   4.030   3.544   0.373  0.5387 -0.3052 -2.2721
13308TIP3    H261416   3.983   3.411   0.317  2.2098 -1.6570 -0.6115
13309TIP3   OH261417   0.992   4.267   4.271  0.5451 -0.1802 -0.2943
13309TIP3    H161418   1.066   4.252   4.330  0.9853  0.5693 -0.6491
13309TIP3    H261419   0.916   4.273   4.330  0.9820  0.6048  0.2173
13310TIP3   OH261420   3.936   5.370   1.382 -0.4278  0.0061 -0.0240
13310TIP3    H161421   3.867   5.424   1.344 -0.2269 -0.0223 -0.4389
13310TIP3    H261422   3.945   5.402   1.472 -1.4143 -0.4224  0.2290
13311TIP3   OH261423   6.195   3.579   1.087 -0.0277 -0.0749  0.0755
13311TIP3    H161424   6.265   3.526   1.048 -0.5049 -1.8232  1.4414
13311TIP3    H261425   6.129   3.585   1.018  1.6036  2.0899 -1.4397
13312TIP3   OH261426   5.305   1.359  12.022  0.1899 -0.6153 -1.1040
13312TIP3    H161427   5.396   1.345  12.048 -0.5766 -1.4490  1.3942
13312TIP3    H261428   5.293   1.454  12.026  0.9508 -0.4895 -1.5539
13313TIP3   OH261429   0.884   0.260   3.945  0.1001 -0.0886 -0.0542
13313TIP3    H161430   0.858   0.169   3.935 -2.3835  0.4927  0.4385
13313TIP3    H261431   0.917   0.266   4.034  0.1314 -0.4863 -0.0403
13314TIP3   OH261432   6.502   5.502   4.313  0.4837  0.6117  0.6995
13314TIP3    H161433   6.471   5.500   4.222 -1.1749  0.1610  1.2413
13314TIP3    H261434   6.573   5.438   4.315 -0.7937 -0.8716  0.1464
13315TIP3   OH261435   6.082   2.004  14.179  0.2119 -0.4247  0.3994
13315TIP3    H161436   5.989   2.000  14.200  0.3340  0.5561  1.1796
13315TIP3    H261437   6.123   2.044  14.256  0.9224  1.6245 -0.9489
13316TIP3   OH261438   1.008   4.844  15.988  0.9698 -0.2586 -0.0788
13316TIP3    H161439   1.013   4.756  15.951 -2.1768 -0.2776 -0.7956
13316TIP3    H261440   0.921   4.847  16.029  1.0647  2.4667  0.0996
13317TIP3   OH261441   1.604   0.614  15.510  0.0812 -0.1773  0.3753
13317TIP3    H161442   1.597   0.559  15.432 -1.7270  0.8571 -0.2713
13317TIP3    H261443   1.688   0.659  15.501  1.1364 -2.0548  0.4263
13318TIP3   OH261444   4.503   1.977  14.114  0.1929  0.3726 -0.4102
13318TIP3    H161445   4.536   2.027  14.189  0.2063 -1.0201  0.5401
13318TIP3    H261446   4.582   1.954  14.065  0.6997 -2.1389  1.3525
13319TIP3   OH261447   3.857   3.880   0.630 -0.3018 -0.3074 -0.0081
13319TIP3    H161448   3.853   3.887   0.534  0.7216  0.5909 -0.0123
13319TIP3    H261449   3.769   3.855   0.656 -2.0765  4.0597 -0.8798
13320TIP3   OH261450   3.445   2.925   2.596  0.0619  0.4309  0.2649
13320TIP3    H161451   3.357   2.888   2.599  0.3717 -0.2655  1.5527
13320TIP3    H261452   3.459   2.946   2.504 -0.8263 -0.9688 -0.2215
13321TIP3   OH261453   3.984   3.879   5.739  0.3242 -0.5357 -0.0538
13321TIP3    H161454   4.075   3.851   5.753  0.2590 -1.3105 -1.0111
13321TIP3    H261455   3.947   3.810   5.684 -0.9649 -0.4300  0.6571
13322TIP3   OH261456   5.612   2.957   0.728  0.2043  0.4035  0.0431
13322TIP3    H161457   5.617   2.957   0.823  0.8344 -0.6323  0.0257
13322TIP3    H261458   5.556   3.032   0.706  1.3077  1.5971  1.1546
13323TIP3   OH261459   1.705   2.692  15.307  1.0367  0.1989  0.1586
13323TIP3    H161460   1.739   2.766  15.357  1.4709 -0.8918  1.5308
13323TIP3    H261461   1.610   2.697  15.317  0.8767  1.7333 -1.5053
13324TIP3   OH261462   1.516   1.232  12.340  0.4167 -0.4405  0.7072
13324TIP3    H161463   1.608   1.250  12.319 -0.1427  2.7406  0.4035
13324TIP3    H261464   1.479   1.200  12.257  1.3470 -2.5443  1.0442
13325TIP3   OH261465   0.708   3.281  12.407 -0.3414 -0.1788  0.7578
13325TIP3    H161466   0.676   3.191  12.407  2.7313 -1.3676  0.9402
13325TIP3    H261467   0.745   3.295  12.320  2.6743 -0.5562  1.8511
13326TIP3   OH261468   4.942   4.792   3.990 -0.6070 -0.1015  0.1277
13326TIP3    H161469   5.036   4.788   4.007 -0.0680 -0.3541 -2.5342
13326TIP3    H261470   4.929   4.875   3.945 -1.4821 -0.5450 -0.4498
13327TIP3   OH261471   3.764   3.617  12.168 -0.5900  0.2687 -0.4486
13327TIP3    H161472   3.733   3.642  12.255 -2.5629  0.6636 -1.2042
13327TIP3    H261473   3.857   3.641  12.168 -0.7800  1.2051  1.2016
13328TIP3   OH261474   0.388   3.170   2.778 -0.0884  0.7785  0.0028
13328TIP3    H161475   0.311   3.153   2.832  0.0572  0.1513  0.0255
13328TIP3    H261476   0.383   3.105   2.708 -0.0811  1.3454 -0.5345
13329TIP3   OH261477   6.083   4.514   0.299 -0.0560  0.1273  0.8718
13329TIP3    H161478   6.054   4.522   0.390  0.7265 -1.0390  1.2463
13329TIP3    H261479   6.152   4.448   0.301  0.1552  0.2605 -0.5404
13330TIP3   OH261480   4.270   2.616  14.461 -0.2658 -0.1210 -0.1138
13330TIP3    H161481   4.307   2.642  14.376  0.2878  1.6244  0.6209
13330TIP3    H261482   4.274   2.695  14.515 -4.4054  0.0093  0.3253
13331TIP3   OH261483   1.147   4.103   6.044  0.1805  0.8073  0.1120
13331TIP3    H161484   1.183   4.182   6.004  0.3349  0.9008  0.4325
13331TIP3    H261485   1.055   4.124   6.061  0.3480  1.1175  0.6890
13332TIP3   OH261486   2.909   0.934   1.503 -0.8229 -0.3721  0.2237
13332TIP3    H161487   2.919   0.887   1.586 -0.8993  0.2661  0.5982
13332TIP3    H261488   2.984   0.992   1.499 -1.3605  0.3434  0.3376
13333TIP3   OH261489   2.770   5.805  16.858  0.0916  0.3630  0.5139
13333TIP3    H161490   2.852   5.852  16.875 -0.7164  1.3863  1.8761
13333TIP3    H261491   2.777   5.725  16.910 -0.0308  0.7978  1.2312
13334TIP3   OH261492   2.572   2.023   3.771  0.4763 -0.8173 -0.4010
13334TIP3    H161493   2.572   1.972   3.690 -0.6311  0.5614 -1.3152
13334TIP3    H261494   2.646   1.988   3.821  0.7570 -2.1748 -1.6879
13335TIP3   OH261495   4.951   6.087  16.073  0.2369 -0.1636  0.6403
13335TIP3    H161496   5.000   6.034  16.136  1.1630  0.6873  0.6593
13335TIP3    H261497   4.864   6.095  16.112  0.1308 -1.5101  0.7114
13336TIP3   OH261498   1.211   5.669   5.256 -0.0610 -0.0411 -0.3478
13336TIP3    H161499   1.186   5.694   5.167 -0.1451 -0.0155 -0.3169
13336TIP3    H261500   1.267   5.741   5.286  0.9375 -0.6126 -0.8098
13337TIP3   OH261501   3.374   0.395  12.404 -0.1676 -0.1079  0.4610
13337TIP3    H161502   3.381   0.463  12.471 -3.1002  0.8279 -0.0068
13337TIP3    H261503   3.325   0.436  12.333 -1.0972 -2.3765 -0.3222
13338TIP3   OH261504   2.881   4.457   4.267 -0.5156  0.2884  0.4039
13338TIP3    H161505   2.869   4.544   4.304  0.1572  0.2396  0.7573
13338TIP3    H261506   2.947   4.416   4.324  0.6071  0.2347 -0.8784
13339TIP3   OH261507   2.879   5.266  13.923  0.0423 -0.8241 -0.1410
13339TIP3    H161508   2.968   5.290  13.900 -0.0835 -1.5972 -1.5640
13339TIP3    H261509   2.888   5.193  13.984  0.3727  0.7125  1.7578
13340TIP3   OH261510   2.595   3.434   2.752  0.3947 -0.5721  0.1519
13340TIP3    H161511   2.669   3.415   2.810 -0.1170 -0.0019  1.0240
13340TIP3    H261512   2.528   3.469   2.810  0.0839  0.6150 -0.8809
13341TIP3   OH261513   5.747   3.937  15.575  0.1817 -0.1344  0.3594
13341TIP3    H161514   5.684   3.891  15.631  0.1653  1.1143  1.4342
13341TIP3    H261515   5.725   3.909  15.486 -1.0618 -0.6967  0.8155
13342TIP3   OH261516   6.406   4.890  16.763  0.4718  0.5723 -0.0210
13342TIP3    H161517   6.362   4.878  16.678  0.1642 -0.1241  0.2253
13342TIP3    H261518   6.335   4.882  16.827  0.7643  0.7266  0.3192
13343TIP3   OH261519   1.178   3.161   2.280 -0.3471 -0.4570  0.2496
13343TIP3    H161520   1.227   3.206   2.211 -1.1273 -1.9122 -1.3261
13343TIP3    H261521   1.090   3.197   2.274 -1.0214 -2.1587 -1.1276
13344TIP3   OH261522   0.698   1.607   1.206  0.0945 -0.2338  0.3411
13344TIP3    H161523   0.711   1.568   1.120 -2.1501 -0.6353  0.1190
13344TIP3    H261524   0.721   1.537   1.267 -2.6841 -1.6689 -0.0477
13345TIP3   OH261525   1.014   6.174   1.498  0.2010  0.0410 -0.4259
13345TIP3    H161526   0.944   6.130   1.546  0.7141  1.4076  1.7084
13345TIP3    H261527   0.969   6.232   1.436 -0.6434  1.2462  1.2307
13346TIP3   OH261528   5.706   3.520  14.652 -0.3629 -0.2487  0.1949
13346TIP3    H161529   5.774   3.468  14.695 -0.1746 -2.7551 -2.7670
13346TIP3    H261530   5.713   3.497  14.560 -1.8651  3.4359 -1.0168
13347TIP3   OH261531   1.288   5.609   0.962 -0.1889 -0.3237  0.0578
13347TIP3    H161532   1.292   5.519   0.930 -0.3217 -0.0680 -0.7048
13347TIP3    H261533   1.376   5.643   0.948  0.1603 -0.6364  1.3123
13348TIP3   OH261534   6.249   3.018  17.161 -0.5752  0.1757 -0.2718
13348TIP3    H161535   6.251   3.050  17.071  0.2518 -0.2065 -0.4000
13348TIP3    H261536   6.207   3.088  17.211 -0.5087  0.6429 -0.8632
13349TIP3   OH261537   3.256   3.877   3.928  0.0096  0.1229  0.0095
13349TIP3    H161538   3.334   3.833   3.962  0.3886  1.3920  0.8364
13349TIP3    H261539   3.234   3.943   3.994 -0.5163  1.2116 -1.2096
13350TIP3   OH261540   6.199   1.210  10.707  0.2190 -0.0767  0.2706
13350TIP3    H161541   6.274   1.240  10.759 -0.1547  0.8496  0.2990
13350TIP3    H261542   6.192   1.117  10.728  0.3838  0.1649  1.5157
13351TIP3   OH261543   0.816   5.549   4.316 -0.0881  0.8330  0.4578
13351TIP3    H161544   0.803   5.458   4.288 -0.9495  0.3100  2.3394
13351TIP3    H261545   0.751   5.562   4.385  1.6350  2.0743  1.9420
13352TIP3   OH261546   3.482   2.500   4.647 -0.0067  0.3004 -0.0008
13352TIP3    H161547   3.423   2.573   4.627 -0.8911 -0.2472  0.5012
13352TIP3    H261548   3.548   2.537   4.706  0.6732  1.1292 -1.2500
13353TIP3   OH261549   6.677   3.542   1.768  0.4484 -0.4861 -0.3066
13353TIP3    H161550   6.718   3.620   1.730  0.1300  0.1636  0.6674
13353TIP3    H261551   6.603   3.524   1.710 -0.6560  1.1141  0.5400
13354TIP3   OH261552   6.746   5.355   3.050  0.3729 -0.1500 -0.1234
13354TIP3    H161553   6.680   5.424   3.059  0.4553 -0.1187  0.2478
13354TIP3    H261554   6.792   5.377   2.969  0.6372  0.4366  0.1799
13355TIP3   OH261555   6.738   0.839   3.661  0.1683 -0.1155  0.1307
13355TIP3    H161556   6.797   0.767   3.637  2.2855  1.9070 -1.0921
13355TIP3    H261557   6.785   0.889   3.727 -1.8201 -0.4701  1.9347
13356TIP3   OH261558   6.192   3.614  14.062 -0.0894 -0.0320  0.3461
13356TIP3    H161559   6.116   3.556  14.065 -0.1496  0.0068 -0.3573
13356TIP3    H261560   6.257   3.566  14.012 -0.2636  0.6535 -0.5537
13357TIP3   OH261561   3.281   3.187   2.242 -0.4922 -0.1582 -0.5032
13357TIP3    H161562   3.328   3.268   2.222 -0.0916 -0.0654  0.7267
13357TIP3    H261563   3.209   3.184   2.179  0.4283  0.3366 -1.5943
13358TIP3   OH261564   6.355   4.671   6.505  0.3632 -0.0485 -0.2072
13358TIP3    H161565   6.266   4.680   6.538  0.2206 -1.4312 -0.1439
13358TIP3    H261566   6.404   4.742   6.548 -0.2152 -0.6649  1.5582
13359TIP3   OH261567   1.639   1.533   2.204 -0.4473  0.5215  0.2710
13359TIP3    H161568   1.690   1.471   2.256 -0.0685 -0.0705 -0.7832
13359TIP3    H261569   1.577   1.478   2.155  1.0280  0.7535 -1.9943
13360TIP3   OH261570   0.562   5.204  16.384 -0.1074  0.0453  0.0491
13360TIP3    H161571   0.469   5.220  16.366  0.1092 -0.1372 -1.3254
13360TIP3    H261572   0.562   5.150  16.462 -1.1947 -0.4158 -0.2548
13361TIP3   OH261573   2.764   2.919   6.471  0.0542  0.3348  0.3768
13361TIP3    H161574   2.835   2.878   6.521  0.6444 -1.3538 -1.7120
13361TIP3    H261575   2.801   2.932   6.384 -1.6917  0.9697 -0.3069
13362TIP3   OH261576   2.241   5.540   3.500  0.5927  0.0663 -0.0589
13362TIP3    H161577   2.158   5.584   3.482  0.9827  0.1241 -1.9070
13362TIP3    H261578   2.237   5.518   3.593 -1.6310 -0.2132 -0.1721
13363TIP3   OH261579   0.393   1.711   5.846 -0.2037  0.5654 -0.3693
13363TIP3    H161580   0.358   1.676   5.928  0.3633  0.2827 -0.2455
13363TIP3    H261581   0.391   1.806   5.858 -3.1194  0.7058 -1.2652
13364TIP3   OH261582   0.545   5.906  12.414  0.4149 -0.1155 -0.2068
13364TIP3    H161583   0.586   5.912  12.327  0.9696  1.5374  0.1329
13364TIP3    H261584   0.605   5.853  12.466 -0.3056 -1.7955 -1.0094
13365TIP3   OH261585   1.087   5.102   1.339  0.4701  0.2929  0.5301
13365TIP3    H161586   1.001   5.080   1.305 -0.1575  0.1282  2.1609
13365TIP3    H261587   1.109   5.029   1.398  1.1552  0.9524  1.1086
13366TIP3   OH261588   5.843   1.833   4.050 -0.2454  0.4526  0.0620
13366TIP3    H161589   5.809   1.744   4.044 -0.6160  0.6758 -1.6976
13366TIP3    H261590   5.767   1.889   4.033 -0.2161  1.1713  2.0106
13367TIP3   OH261591   3.168   5.149  17.225  0.1854 -0.2626  0.3438
13367TIP3    H161592   3.263   5.145  17.210  0.0992 -2.4924  0.0335
13367TIP3    H261593   3.129   5.127  17.141 -0.5634 -0.5722  0.7550
13368TIP3   OH261594   5.919   0.302   4.681  0.5087 -0.0757  0.0378
13368TIP3    H161595   5.908   0.397   4.679 -2.1237 -0.2664  1.3237
13368TIP3    H261596   5.943   0.278   4.592  2.1668  1.8490 -0.1028
13369TIP3   OH261597   4.266   2.101  15.554 -0.4472  0.0433  0.0338
13369TIP3    H161598   4.335   2.079  15.617  1.0457  2.1408 -0.7640
13369TIP3    H261599   4.232   2.016  15.526  0.5961 -1.0067  1.7639
13370TIP3   OH261600   6.402   5.611   4.071  0.2018 -0.1135  0.3735
13370TIP3    H161601   6.310   5.585   4.066 -0.6908  2.6650  0.8709
13370TIP3    H261602   6.408   5.691   4.020  1.9755  0.6924  1.7352
13371TIP3   OH261603   2.071   6.341  16.195 -0.6598  0.9430 -0.2888
13371TIP3    H161604   2.090   6.275  16.262 -0.3246  0.1932 -1.0967
13371TIP3    H261605   2.050   6.420  16.244  0.1720  0.5770  0.6925
13372TIP3   OH261606   0.664   4.738  17.134  0.1231 -0.0029 -0.1007
13372TIP3    H161607   0.721   4.808  17.167 -1.0477  1.1918 -0.5691
13372TIP3    H261608   0.592   4.783  17.091 -0.9521 -1.4975  0.0538
13373TIP3   OH261609   0.853   3.891  12.204  0.4445  0.2161  0.8448
13373TIP3    H161610   0.916   3.904  12.133 -2.1494 -0.7820 -1.9008
13373TIP3    H261611   0.806   3.974  12.210 -0.3769 -0.1876  0.2228
13374TIP3   OH261612   4.926   5.240   1.692  0.5143  0.2054 -0.0423
13374TIP3    H161613   4.867   5.224   1.765 -0.9471  0.9489 -1.0223
13374TIP3    H261614   4.979   5.315   1.719  0.6635 -0.1384  0.6294
13375TIP3   OH261615   4.961   0.445  12.751  0.4463 -0.1551  0.3678
13375TIP3    H161616   4.993   0.506  12.818  1.2217  0.3174 -0.4054
13375TIP3    H261617   4.867   0.438  12.767  0.2587  1.6011  0.2122
13376TIP3   OH261618   4.874   1.145  16.778 -0.3756 -0.1961 -0.2353
13376TIP3    H161619   4.799   1.096  16.813 -0.3861 -0.9160 -1.2445
13376TIP3    H261620   4.893   1.105  16.693  0.8530  0.2903 -0.2218
13377TIP3   OH261621   2.003   0.379  14.424 -0.0849  0.1280 -0.2427
13377TIP3    H161622   2.025   0.363  14.516 -1.5049 -1.3665 -0.1058
13377TIP3    H261623   2.050   0.311  14.376  0.5387  0.8167 -0.6311
13378TIP3   OH261624   1.146   2.381   0.629 -0.6733  0.0673  0.0040
13378TIP3    H161625   1.209   2.381   0.556 -0.3617 -1.2834  0.2362
13378TIP3    H261626   1.191   2.427   0.699  0.8100 -2.2651  0.7152
13379TIP3   OH261627   0.416   4.977  12.179  0.0875  0.0412 -0.1431
13379TIP3    H161628   0.412   4.964  12.084  0.2614 -0.4361 -0.0849
13379TIP3    H261629   0.479   4.913  12.210 -2.2720 -2.0323  0.6960
13380TIP3   OH261630   3.076   4.540   5.984  0.4162 -0.0999  0.1084
13380TIP3    H161631   3.023   4.547   5.904  1.6147  1.4727 -0.6041
13380TIP3    H261632   3.105   4.449   5.986  0.5493 -0.1219 -1.3993
13381TIP3   OH261633   2.535   5.945  15.491  0.2502 -0.0123  0.8080
13381TIP3    H161634   2.511   5.975  15.579 -0.7008  1.8085 -0.0327
13381TIP3    H261635   2.605   6.004  15.463  0.4006 -0.4391  0.2632
13382TIP3   OH261636   6.656   2.207  11.993 -0.7531  0.3566  0.3135
13382TIP3    H161637   6.633   2.117  12.015  0.0167 -0.1326 -0.7486
13382TIP3    H261638   6.748   2.215  12.017 -0.4303  0.4027 -0.8472
13383TIP3   OH261639   6.600   1.704  12.513 -0.2763 -0.2468 -0.2202
13383TIP3    H161640   6.535   1.638  12.537 -1.6329  0.4482 -1.7366
13383TIP3    H261641   6.573   1.782  12.560  1.1857 -0.6588  1.3800
13384TIP3   OH261642   2.131   2.528  14.370 -0.0906  0.0491 -0.9261
13384TIP3    H161643   2.141   2.610  14.418 -1.0213 -0.0597 -0.5284
13384TIP3    H261644   2.171   2.546  14.284  1.0263  0.4338 -0.3394
13385TIP3   OH261645   0.848   2.393   4.595  0.5280  0.2364 -0.4944
13385TIP3    H161646   0.918   2.328   4.604  0.5364  0.2951 -0.0952
13385TIP3    H261647   0.892   2.471   4.564  0.5169  0.0490 -0.9868
13386TIP3   OH261648   5.702   3.068   3.824 -0.0894  0.5150 -0.0788
13386TIP3    H161649   5.777   3.011   3.840 -1.0533 -1.0629 -0.9265
13386TIP3    H261650   5.735   3.135   3.763  0.7606  0.1599 -0.0224
13387TIP3   OH261651   5.347   1.327  14.893  0.6923  0.3591 -0.0957
13387TIP3    H161652   5.331   1.311  14.800  2.1834 -2.7286  0.0648
13387TIP3    H261653   5.416   1.393  14.895  1.2157 -0.1310 -1.2483
13388TIP3   OH261654   2.044   5.939   4.768 -0.1168  0.4259  0.1862
13388TIP3    H161655   1.971   5.878   4.768 -0.3756  0.7333 -0.1374
13388TIP3    H261656   2.112   5.896   4.716  0.8361 -0.9068  2.3767
13389TIP3   OH261657   4.754   3.050  11.934 -0.4396 -0.2727 -0.2703
13389TIP3    H161658   4.720   3.111  11.869  0.4288 -0.7829 -1.2234
13389TIP3    H261659   4.823   3.002  11.889 -1.0652 -1.9385  0.4641
13390TIP3   OH261660   5.285   0.288  12.569  0.1476  0.0735  0.4976
13390TIP3    H161661   5.318   0.297  12.658 -1.7518  0.1760  1.2295
13390TIP3    H261662   5.254   0.375  12.546  0.1605 -0.0718 -0.0809
13391TIP3   OH261663   6.192   3.351   2.100  0.3058 -0.1140  0.0385
13391TIP3    H161664   6.237   3.351   2.184  0.0997 -1.1075  0.1536
13391TIP3    H261665   6.260   3.330   2.036  0.8794  2.4295 -0.3114
13392TIP3   OH261666   0.066   0.605  12.010 -0.2435  0.2677 -0.4632
13392TIP3    H161667   0.042   0.515  12.033 -1.3335  0.7658  0.4304
13392TIP3    H261668  -0.011   0.657  12.031  0.8521  1.6277  0.4045
13393TIP3   OH261669   6.512   2.520  13.738  0.0044  0.0317  0.1048
13393TIP3    H161670   6.507   2.614  13.724 -0.7932 -0.1651 -1.0449
13393TIP3    H261671   6.483   2.508  13.829 -0.5751  0.8414  0.0379
13394TIP3   OH261672   2.626   2.548  12.945  0.5950  0.3824 -0.7464
13394TIP3    H161673   2.560   2.499  12.993  0.6901  0.7759 -0.2029
13394TIP3    H261674   2.709   2.520  12.983  0.5607  2.5977  1.1914
13395TIP3   OH261675   4.435   1.932  11.217 -0.0731  0.2552 -0.4071
13395TIP3    H161676   4.525   1.913  11.244 -0.1580 -0.2751 -0.4799
13395TIP3    H261677   4.423   2.025  11.236  0.0599  0.0323  0.8793
13396TIP3   OH261678   3.200   2.839  12.940  0.8835 -0.6499  0.2532
13396TIP3    H161679   3.120   2.787  12.950 -0.4626  0.9863 -1.3197
13396TIP3    H261680   3.246   2.799  12.866  0.7618 -0.6585  0.1837
13397TIP3   OH261681   4.554   4.970   6.789 -0.6180  0.0646  0.1854
13397TIP3    H161682   4.525   4.880   6.799 -0.0700 -0.2700 -0.9894
13397TIP3    H261683   4.483   5.013   6.742 -1.1071  0.3956  1.1995
13398TIP3   OH261684   0.559   4.962  16.903 -0.0023 -0.0211 -0.1050
13398TIP3    H161685   0.562   4.894  16.836 -2.1023  1.1801 -1.5512
13398TIP3    H261686   0.487   4.936  16.960  0.1799  0.2260  0.2397
13399TIP3   OH261687   2.588   2.900  13.418 -0.3900  0.2476 -0.6025
13399TIP3    H161688   2.603   2.974  13.359 -0.6638  0.6633 -0.1579
13399TIP3    H261689   2.585   2.824  13.361  2.4104  0.2324 -0.8500
13400TIP3   OH261690   2.873   0.022  16.970 -0.6965 -0.1185 -0.4188
13400TIP3    H161691   2.914  -0.003  16.887 -1.3567 -0.8051 -0.5472
13400TIP3    H261692   2.917   0.103  16.995  1.2123 -1.1492 -0.2235
13401TIP3   OH261693   6.216   1.822   2.026  0.0742  0.1613 -0.1581
13401TIP3    H161694   6.140   1.769   1.999  0.4044 -2.0157  2.7129
13401TIP3    H261695   6.179   1.902   2.063 -0.6841  0.1069 -0.7842
13402TIP3   OH261696   3.227   6.129  15.894  0.0316  0.5312 -0.1197
13402TIP3    H161697   3.317   6.131  15.861  0.5421  2.7543  1.1697
13402TIP3    H261698   3.235   6.091  15.982 -0.4148  0.0759 -0.2706
13403TIP3   OH261699   3.455   6.179  15.748  0.0909  0.0762 -0.3030
13403TIP3    H161700   3.462   6.210  15.658  2.0305 -0.3720 -0.3456
13403TIP3    H261701   3.532   6.215  15.792 -0.1177 -0.8031  0.8250
13404TIP3   OH261702   2.229   1.547  11.754  0.2155  0.5591  0.5270
13404TIP3    H161703   2.228   1.632  11.711  0.7201  0.5739  0.5365
13404TIP3    H261704   2.320   1.536  11.783  0.7233 -0.9444 -1.3880
13405TIP3   OH261705   4.572   1.683   1.401  0.0790 -0.3963  0.0063
13405TIP3    H161706   4.484   1.669   1.435  0.3039 -1.8845  0.0346
13405TIP3    H261707   4.622   1.717   1.476 -0.8992  2.4618 -0.5147
13406TIP3   OH261708   6.615   0.891  13.896  0.2230  0.0019 -0.1127
13406TIP3    H161709   6.586   0.948  13.825  1.7776 -1.9515 -2.4473
13406TIP3    H261710   6.665   0.949  13.954  1.7599  1.1165 -2.3913
13407TIP3   OH261711   6.474   4.810  10.908 -0.1855 -0.0499 -0.1023
13407TIP3    H161712   6.455   4.722  10.876 -1.1311 -0.4265  1.4114
13407TIP3    H261713   6.462   4.866  10.831 -2.7095 -0.8543 -0.3785
13408TIP3   OH261714   4.414   1.324  13.178  0.6092 -0.2917  0.2471
13408TIP3    H161715   4.410   1.290  13.089 -1.0006 -0.6412  0.4194
13408TIP3    H261716   4.507   1.334  13.196  0.9668 -0.2672 -1.4443
13409TIP3   OH261717   3.976   5.623   2.954 -0.0674 -0.6788 -0.5050
13409TIP3    H161718   3.982   5.528   2.966 -1.8576 -0.8817 -0.9713
13409TIP3    H261719   4.046   5.644   2.892  0.0707 -1.7623 -0.7356
13410TIP3   OH261720   2.684   3.022  11.025 -0.1997  0.0333  0.3404
13410TIP3    H161721   2.770   2.981  11.027  0.6771  1.7688  0.8844
13410TIP3    H261722   2.697   3.103  10.975 -0.9181  1.4727  2.3223
13411TIP3   OH261723   4.404   6.387   1.697  0.1016  0.3335  0.0851
13411TIP3    H161724   4.451   6.427   1.770  0.1282  0.2950  0.0896
13411TIP3    H261725   4.401   6.454   1.630 -0.3921  0.5490  0.3203
13412TIP3   OH261726   1.073   6.074   2.750  0.0636 -0.6943 -0.0783
13412TIP3    H161727   1.095   6.003   2.689  1.0256 -0.0568 -0.4971
13412TIP3    H261728   0.978   6.084   2.740  0.0754 -1.1861 -0.8385
13413TIP3   OH261729   2.925   6.232   3.768 -0.1701  0.0403  0.1493
13413TIP3    H161730   2.907   6.325   3.754 -0.9605 -0.0107  0.7665
13413TIP3    H261731   2.918   6.192   3.681 -0.4372  0.4552 -0.0182
13414TIP3   OH261732   3.529   2.240   1.030  0.3810 -0.0368 -0.2286
13414TIP3    H161733   3.532   2.278   1.118  0.5317  0.3148 -0.3876
13414TIP3    H261734   3.481   2.158   1.042  0.1560  0.1448  0.1311
13415TIP3   OH261735   1.435   4.002  17.104  0.1529  0.0853 -0.4190
13415TIP3    H161736   1.506   4.011  17.040  0.2829 -1.0463 -0.4405
13415TIP3    H261737   1.419   4.092  17.134 -0.9652  0.9259 -3.1681
13416TIP3   OH261738   0.534   1.002   3.066  0.7114 -0.1150 -0.2150
13416TIP3    H161739   0.629   1.013   3.071  0.6408  0.3432  0.2148
13416TIP3    H261740   0.501   1.043   3.146  0.1311 -0.0623 -0.4770
13417TIP3   OH261741   6.585   2.744  13.971 -0.1730 -0.1342 -0.4577
13417TIP3    H161742   6.512   2.714  14.026  0.7335 -1.2905  0.1801
13417TIP3    H261743   6.663   2.718  14.020  0.6735 -0.5285 -1.9475
13418TIP3   OH261744   2.165   5.729  10.991  0.1575  0.3212  0.2021
13418TIP3    H161745   2.210   5.654  11.030  0.3753  0.2083 -0.2553
13418TIP3    H261746   2.088   5.691  10.948  0.3752  0.3336 -0.1996
13419TIP3   OH261747   1.668   5.590   6.804  0.5981 -0.2009  0.6031
13419TIP3    H161748   1.753   5.628   6.826  1.4367 -0.1836 -2.2984
13419TIP3    H261749   1.689   5.514   6.750 -1.2324 -1.0664  1.0280
13420TIP3   OH261750   6.403   0.490   2.836 -0.2752  1.1278  0.0755
13420TIP3    H161751   6.332   0.491   2.899  0.3802  0.4467  0.8466
13420TIP3    H261752   6.448   0.406   2.851  0.4450  1.3629 -0.6598
13421TIP3   OH261753   0.992   5.490   5.299 -0.2943 -0.5442  0.6868
13421TIP3    H161754   1.070   5.546   5.296 -1.0862  0.5502 -0.0984
13421TIP3    H261755   1.006   5.435   5.376  0.2137  1.1919  1.9080
13422TIP3   OH261756   5.421   6.619   5.137  0.6959 -0.2884 -0.1699
13422TIP3    H161757   5.435   6.559   5.211  2.1890  0.8931  0.5597
13422TIP3    H261758   5.327   6.639   5.140  0.1788 -2.3967 -0.3366
13423TIP3   OH261759   2.212   0.917  12.512  0.0609 -0.0274  0.3884
13423TIP3    H161760   2.287   0.865  12.483  0.5087 -0.3696  2.0377
13423TIP3    H261761   2.232   1.006  12.484  0.8776 -0.1837  0.4464
13424TIP3   OH261762   4.806   6.665  13.546  0.1481 -0.3624  0.0106
13424TIP3    H161763   4.713   6.672  13.569  0.5296 -1.1495  2.0167
13424TIP3    H261764   4.851   6.721  13.610  1.0188  0.6922 -1.4684
13425TIP3   OH261765   5.565   1.750   4.830 -0.2884 -0.2404  0.1225
13425TIP3    H161766   5.522   1.832   4.803 -2.5411 -1.1221  0.7978
13425TIP3    H261767   5.656   1.775   4.846 -0.5734  1.8123 -1.1180
13426TIP3   OH261768   5.263   5.459  15.694 -0.2963 -0.5875  0.2584
13426TIP3    H161769   5.231   5.550  15.689  2.3173  0.6320  2.8753
13426TIP3    H261770   5.221   5.423  15.772 -2.3105 -2.1942 -1.4530
13427TIP3   OH261771   2.380   3.109  14.056 -0.5677  0.1950  0.2909
13427TIP3    H161772   2.376   3.019  14.088  0.7794  0.0450  0.0920
13427TIP3    H261773   2.390   3.100  13.962  0.3918  0.5315  0.3555
13428TIP3   OH261774   6.380   5.357  11.339 -0.2258  0.1336  0.2780
13428TIP3    H161775   6.343   5.444  11.356  1.6669  0.7209  1.7507
13428TIP3    H261776   6.474   5.373  11.330 -0.0046 -1.6046 -0.9341
13429TIP3   OH261777   1.955   2.074  11.980  0.5243  0.3445 -0.6354
13429TIP3    H161778   1.917   2.037  12.060 -0.2867  2.7167  0.1672
13429TIP3    H261779   1.908   2.031  11.909 -2.4029  1.6961  0.3090
13430TIP3   OH261780   6.778   4.650   2.936 -0.0736  0.9153 -0.2052
13430TIP3    H161781   6.728   4.721   2.896 -2.1739 -0.5679 -0.3579
13430TIP3    H261782   6.755   4.572   2.886  0.8551 -0.1766  0.9900
13431TIP3   OH261783   2.891   0.790  16.345 -0.0093 -0.1983 -0.0536
13431TIP3    H161784   2.903   0.697  16.368  0.3164 -0.1612 -0.0660
13431TIP3    H261785   2.972   0.813  16.299 -0.2926 -0.0351 -0.4691
13432TIP3   OH261786   4.944   1.903  11.824  0.2269  0.0666  0.4285
13432TIP3    H161787   4.850   1.897  11.807  0.4694 -0.4349 -0.7728
13432TIP3    H261788   4.961   1.837  11.891 -0.4595  0.9728  1.5392
13433TIP3   OH261789   6.440   0.408   5.445 -0.1090  0.2732 -0.3713
13433TIP3    H161790   6.384   0.333   5.426  1.7238 -0.7225 -2.3379
13433TIP3    H261791   6.527   0.371   5.455  0.5816  1.9843  0.4131
13434TIP3   OH261792   0.648   2.197  13.277  0.3388 -0.2429 -0.5091
13434TIP3    H161793   0.631   2.290  13.294  1.3736  0.0038 -0.7465
13434TIP3    H261794   0.704   2.197  13.199  2.4779 -0.9011  0.9301
13435TIP3   OH261795   4.489   0.352  11.996  0.2230  0.1471  0.8163
13435TIP3    H161796   4.496   0.286  12.064  0.6916 -1.9592 -1.1499
13435TIP3    H261797   4.429   0.315  11.931  1.8858  0.7672 -1.2160
13436TIP3   OH261798   2.540   0.974  13.236  0.1018  0.1303  0.1871
13436TIP3    H161799   2.523   0.941  13.147  1.3548 -0.8296  0.2751
13436TIP3    H261800   2.493   0.914  13.293  0.8191 -0.3718  0.2555
13437TIP3   OH261801   1.689   1.728   5.561 -0.7488  0.1659 -0.2536
13437TIP3    H161802   1.628   1.683   5.620 -0.6705  0.8823  0.3768
13437TIP3    H261803   1.767   1.744   5.614 -0.5615  0.5421 -0.6382
13438TIP3   OH261804   5.861   1.177   3.965 -0.0622 -0.0950  0.2334
13438TIP3    H161805   5.788   1.237   3.979 -0.7146 -0.2259 -2.1195
13438TIP3    H261806   5.939   1.225   3.993 -0.6131  1.7633 -1.2314
13439TIP3   OH261807   0.195   5.921  16.555  0.1710  0.3041 -0.2716
13439TIP3    H161808   0.145   5.841  16.537  0.4818 -0.1624  0.8023
13439TIP3    H261809   0.269   5.918  16.494 -1.0674  1.0007 -1.8755
13440TIP3   OH261810   1.209   4.376   2.706  0.5146 -0.2604 -0.2641
13440TIP3    H161811   1.232   4.285   2.724  0.5622 -0.3937 -0.9717
13440TIP3    H261812   1.291   4.424   2.716  0.3146 -0.1506  0.9880
13441TIP3   OH261813   1.766   4.569  10.656 -0.5774 -0.0564  0.5933
13441TIP3    H161814   1.795   4.611  10.737  1.4732 -1.0800  0.4489
13441TIP3    H261815   1.762   4.640  10.592 -1.1410  0.5698  1.3000
13442TIP3   OH261816   3.836   3.433  13.606  0.1945 -0.1591 -0.5202
13442TIP3    H161817   3.897   3.395  13.669  0.3776  1.5285  0.3605
13442TIP3    H261818   3.888   3.496  13.557 -0.4527  0.0501 -0.9514
13443TIP3   OH261819   3.635   2.903   5.694  0.0672  0.0927  0.2441
13443TIP3    H161820   3.672   2.904   5.782  0.4519  0.9026  0.0814
13443TIP3    H261821   3.704   2.864   5.640 -0.3992 -0.9672  0.3870
13444TIP3   OH261822   3.448   1.579  11.575 -0.3585 -0.3763 -0.1102
13444TIP3    H161823   3.359   1.590  11.540 -0.5539 -2.5247 -0.3746
13444TIP3    H261824   3.504   1.579  11.497 -0.4443 -1.7826 -0.1960
13445TIP3   OH261825   0.303   6.265   0.448 -0.3753 -0.0818 -0.0423
13445TIP3    H161826   0.364   6.209   0.496 -0.7153  0.1200  0.6478
13445TIP3    H261827   0.322   6.353   0.480 -0.6008  0.0564 -0.2898
13446TIP3   OH261828   6.381   6.065   2.553  0.5254  0.0267  0.4890
13446TIP3    H161829   6.430   6.091   2.475  0.4725 -1.9602 -0.2528
13446TIP3    H261830   6.447   6.024   2.609  0.4064  0.7407  1.1743
13447TIP3   OH261831   4.445   4.764   1.173  0.2203 -0.7891  0.5118
13447TIP3    H161832   4.415   4.797   1.257 -0.0196 -0.2250  0.2096
13447TIP3    H261833   4.462   4.671   1.188  0.0756 -0.7147  1.1519
13448TIP3   OH261834   2.911   4.838   5.898 -0.2449 -0.1821  0.4541
13448TIP3    H161835   2.874   4.815   5.983  1.0058 -0.6692  0.8883
13448TIP3    H261836   2.916   4.934   5.899 -2.7245  0.0315 -0.1807
13449TIP3   OH261837   0.693   3.826  13.703 -0.3257 -0.1677 -0.1100
13449TIP3    H161838   0.764   3.813  13.767 -1.2323 -3.0736  0.4560
13449TIP3    H261839   0.652   3.908  13.730  1.5560  0.5365  0.7950
13450TIP3   OH261840   4.253   0.498   4.604 -0.3598  0.4585 -0.4087
13450TIP3    H161841   4.307   0.441   4.549 -0.8858 -1.3220  0.8443
13450TIP3    H261842   4.164   0.482   4.574 -0.5260  0.5190  0.0464
13451TIP3   OH261843   0.992   1.777   3.402  0.4210 -0.3525 -0.1645
13451TIP3    H161844   1.022   1.792   3.492 -0.2394  1.9780 -0.2870
13451TIP3    H261845   0.924   1.709   3.411  0.6118 -0.4102  1.0471
13452TIP3   OH261846   3.330   3.704  12.851 -0.1428 -0.1114 -0.5044
13452TIP3    H161847   3.379   3.782  12.878 -0.9405  0.1565  0.2228
13452TIP3    H261848   3.381   3.630  12.885 -0.4972  0.1790  0.7323
13453TIP3   OH261849   2.238   4.853  16.257 -0.0807 -0.8427  0.0484
13453TIP3    H161850   2.327   4.851  16.293 -0.0448  0.3955  0.0799
13453TIP3    H261851   2.199   4.770  16.283  0.4042 -0.5671  1.7559
13454TIP3   OH261852   5.794   6.669  10.742 -0.0211 -0.3450 -0.2261
13454TIP3    H161853   5.711   6.714  10.727 -0.1803 -0.6838 -0.3660
13454TIP3    H261854   5.815   6.688  10.834 -0.1016 -0.0149 -0.2726
13455TIP3   OH261855   5.081   4.022   0.537  0.0835  0.4692  0.1015
13455TIP3    H161856   5.087   4.003   0.630  1.0106  0.6858  0.0979
13455TIP3    H261857   4.996   3.987   0.511 -0.1322  0.2992  0.9988
13456TIP3   OH261858   5.725   6.010   2.553  0.0113 -0.4692 -0.5997
13456TIP3    H161859   5.634   6.013   2.584  0.2657 -1.3209  0.2996
13456TIP3    H261860   5.763   5.936   2.600  0.6240 -1.4065 -2.4928
13457TIP3   OH261861   2.116   6.656   0.313  0.2720  0.4210 -0.2170
13457TIP3    H161862   2.156   6.621   0.234 -1.8426 -1.0628 -0.6969
13457TIP3    H261863   2.068   6.582   0.351  1.9892  0.7802  3.0382
13458TIP3   OH261864   2.112   4.550  12.532  0.1704  0.4361  0.1062
13458TIP3    H161865   2.190   4.500  12.507 -0.9109 -0.9875 -0.6160
13458TIP3    H261866   2.135   4.641  12.515  1.1715 -0.0868 -1.5526
13459TIP3   OH261867   3.700   4.095  13.806  0.6786 -0.2317  1.0600
13459TIP3    H161868   3.618   4.091  13.756 -0.1287 -0.7822  2.3859
13459TIP3    H261869   3.767   4.110  13.739 -0.6670  2.0241  0.1078
13460TIP3   OH261870   4.437   3.729  16.554 -0.0420  0.2976 -0.3835
13460TIP3    H161871   4.386   3.669  16.608  0.9970  1.1351  1.6283
13460TIP3    H261872   4.430   3.693  16.466 -1.1735 -1.5665  0.4014
13461TIP3   OH261873   2.486   1.319  12.403  0.5673  0.1931  0.0193
13461TIP3    H161874   2.557   1.353  12.458  1.9431 -0.9362 -0.9557
13461TIP3    H261875   2.426   1.393  12.392  1.8554  1.3573  0.4811
13462TIP3   OH261876   4.768   1.673  16.754  0.2978 -0.0574 -0.4390
13462TIP3    H161877   4.761   1.735  16.827  0.1085 -0.1309 -0.3949
13462TIP3    H261878   4.817   1.599  16.789  0.8811  0.2429 -0.6086
13463TIP3   OH261879   1.941   1.513  16.230  0.1875 -0.5933  0.2053
13463TIP3    H161880   1.932   1.491  16.137  0.1495 -1.2265  0.3511
13463TIP3    H261881   2.002   1.448  16.264  1.9138  0.9455  0.1790
13464TIP3   OH261882   3.247   2.973  11.422  0.4016 -0.0564  0.7211
13464TIP3    H161883   3.224   3.005  11.509 -1.1463 -1.5964  0.9364
13464TIP3    H261884   3.216   3.041  11.362  1.3958  0.9702  1.3204
13465TIP3   OH261885   6.067   4.449  11.586 -0.6862 -0.3466 -0.7444
13465TIP3    H161886   5.986   4.435  11.636 -0.5290 -0.1484 -0.4305
13465TIP3    H261887   6.057   4.393  11.509 -1.3829  0.1225 -1.0050
13466TIP3   OH261888   1.464   4.936  16.638 -0.3597 -0.0182 -0.2156
13466TIP3    H161889   1.373   4.949  16.611 -0.4558  0.0856  0.1473
13466TIP3    H261890   1.485   4.848  16.609 -0.5055  0.0388 -0.4996
13467TIP3   OH261891   4.712   1.389   5.983 -0.2443 -0.4778  0.2532
13467TIP3    H161892   4.626   1.421   5.957  0.2113  1.0918  0.6053
13467TIP3    H261893   4.750   1.353   5.903 -0.1076  1.4098 -0.5668
13468TIP3   OH261894   2.057   3.575   1.505  0.1939 -0.4003 -0.1949
13468TIP3    H161895   2.066   3.670   1.506 -0.6133 -0.2407  2.8648
13468TIP3    H261896   2.143   3.542   1.482  0.8827  1.0757  0.1733
13469TIP3   OH261897   4.027   5.558   5.183  0.1333  0.2188 -0.5316
13469TIP3    H161898   3.972   5.595   5.252  0.4394  0.5906 -0.4817
13469TIP3    H261899   3.967   5.543   5.109 -0.6013 -2.0171  0.4305
13470TIP3   OH261900   2.456   2.848  14.123  0.1233 -0.1937 -0.0149
13470TIP3    H161901   2.546   2.879  14.114 -0.3008  1.0896  0.0375
13470TIP3    H261902   2.455   2.803  14.208  0.6074  0.1830  0.1966
13471TIP3   OH261903   3.148   0.059  14.500 -0.2308 -0.1048  0.2961
13471TIP3    H161904   3.194  -0.023  14.488  0.9456  0.1785  2.3388
13471TIP3    H261905   3.204   0.110  14.559 -2.7251  0.5850  2.2922
13472TIP3   OH261906   1.178   3.896   3.508  0.0373  0.4245  0.3534
13472TIP3    H161907   1.093   3.858   3.526 -0.3607  1.9687  1.9873
13472TIP3    H261908   1.162   3.990   3.500  1.4938  0.6814  0.0205
13473TIP3   OH261909   4.547   0.373  11.679  0.1823  0.4294  1.1963
13473TIP3    H161910   4.596   0.435  11.734  0.8383  0.6348  0.3934
13473TIP3    H261911   4.455   0.391  11.698  0.3552  1.9554  0.6337
13474TIP3   OH261912   3.075   6.324  12.268 -0.1858 -0.3483  1.0988
13474TIP3    H161913   3.055   6.413  12.240 -1.1890 -0.5266  1.1890
13474TIP3    H261914   3.143   6.294  12.208 -2.4150 -0.8031 -1.4012
13475TIP3   OH261915   6.612   5.179   1.502  0.4777  0.2101  0.1075
13475TIP3    H161916   6.655   5.249   1.551  1.0216 -0.8065  1.1518
13475TIP3    H261917   6.662   5.100   1.524 -0.3816 -0.5868 -0.6720
13476TIP3   OH261918   3.324   4.925  11.321 -0.0153 -0.2593 -0.2378
13476TIP3    H161919   3.337   5.010  11.277  1.0343 -0.9092 -1.2251
13476TIP3    H261920   3.276   4.872  11.257  0.0094 -0.6719  0.0817
13477TIP3   OH261921   2.131   5.273   0.606  0.6898  0.2399  0.1254
13477TIP3    H161922   2.072   5.207   0.642  0.0118 -0.0925 -1.5232
13477TIP3    H261923   2.193   5.290   0.677  0.2017 -1.3229  0.9817
13478TIP3   OH261924   3.011   2.975   5.271 -0.3678 -0.0115  0.5244
13478TIP3    H161925   3.003   2.895   5.323 -2.4077  0.0581  0.3906
13478TIP3    H261926   3.072   2.952   5.201  0.6860 -0.7795  1.6590
13479TIP3   OH261927   3.393   6.472  13.768 -0.0738  0.0688 -0.2455
13479TIP3    H161928   3.305   6.448  13.739  0.0555 -0.4572 -0.2219
13479TIP3    H261929   3.437   6.503  13.688  0.1007 -0.8366 -0.5104
13480TIP3   OH261930   5.591   3.977   4.525  0.8110  0.2081 -0.9325
13480TIP3    H161931   5.676   3.963   4.567 -0.2372  0.2512  1.3582
13480TIP3    H261932   5.558   4.058   4.563 -1.5384 -1.3338  0.6269
13481TIP3   OH261933   5.225   2.787  11.787 -0.1332  0.0751  0.0197
13481TIP3    H161934   5.308   2.749  11.757  0.3612  0.6932  0.5530
13481TIP3    H261935   5.180   2.715  11.830  0.9983  0.1694  1.4381
13482TIP3   OH261936   0.173   3.956   2.383  0.1616  0.0011  0.3591
13482TIP3    H161937   0.122   3.949   2.463  0.0714 -0.5645  0.2598
13482TIP3    H261938   0.242   3.889   2.392 -0.1948 -0.4658 -0.2761
13483TIP3   OH261939   1.185   6.583   4.074 -0.3009  0.0490  0.7166
13483TIP3    H161940   1.112   6.604   4.131  0.5081 -1.5569  2.4609
13483TIP3    H261941   1.262   6.618   4.118  0.3578 -1.3226  0.7150
13484TIP3   OH261942   6.466   2.914   4.919  0.2765  0.6733 -0.2679
13484TIP3    H161943   6.387   2.917   4.864 -0.0159  1.6615  0.1721
13484TIP3    H261944   6.504   3.001   4.911  0.0584  0.9397  1.3215
13485TIP3   OH261945   2.129   3.065   3.621  0.3143  0.1383 -0.6185
13485TIP3    H161946   2.174   3.050   3.538  0.7550 -1.0827 -0.1725
13485TIP3    H261947   2.193   3.110   3.675  0.3420  0.1152 -0.6319
13486TIP3   OH261948   4.805   6.288  11.422  0.4233  0.3129 -0.1294
13486TIP3    H161949   4.779   6.232  11.349  0.6045  2.1294 -1.6976
13486TIP3    H261950   4.732   6.349  11.432  0.5472  0.2865  1.0247
13487TIP3   OH261951   6.252   6.571  14.098  0.6131 -0.4629  0.0455
13487TIP3    H161952   6.172   6.550  14.146  0.1640 -1.4824 -1.0917
13487TIP3    H261953   6.320   6.518  14.139  0.3021 -1.0733 -0.2189
13488TIP3   OH261954   0.822   0.141   4.508  0.1902  0.2635 -0.7190
13488TIP3    H161955   0.783   0.128   4.422  0.5641 -1.6432 -0.6345
13488TIP3    H261956   0.760   0.102   4.569  0.7903 -0.0587 -0.3075
13489TIP3   OH261957   0.495   1.471  12.863  0.2535  0.2236  0.0878
13489TIP3    H161958   0.468   1.449  12.952  0.1746  0.5827  0.1572
13489TIP3    H261959   0.522   1.563  12.869  1.2360 -0.0370 -0.0323
13490TIP3   OH261960   5.845   2.996   0.276 -0.6058  0.2928 -0.3306
13490TIP3    H161961   5.822   3.007   0.368 -0.8137  0.0663 -0.3553
13490TIP3    H261962   5.788   3.057   0.229 -1.9449 -1.0290 -0.4914
13491TIP3   OH261963   4.761   5.439   4.689 -0.2116  0.3081  0.1242
13491TIP3    H161964   4.826   5.507   4.672  0.9910 -0.2503  2.1901
13491TIP3    H261965   4.677   5.486   4.688  0.4729  1.5873  0.2920
13492TIP3   OH261966   3.341   6.432   5.341  0.4598 -0.7923 -0.1348
13492TIP3    H161967   3.389   6.442   5.423  0.1267  1.3993 -0.1408
13492TIP3    H261968   3.265   6.378   5.363  1.2550 -1.6195  0.6005
13493TIP3   OH261969   5.793   6.304  14.562 -0.0511  0.0792  0.1996
13493TIP3    H161970   5.732   6.366  14.604  1.3970  1.0771  0.9016
13493TIP3    H261971   5.749   6.219  14.570 -0.6333  0.5004  2.1785
13494TIP3   OH261972   1.678   6.615  11.588 -0.0499  1.0032  0.0120
13494TIP3    H161973   1.638   6.621  11.675 -2.1959  1.6481 -0.9464
13494TIP3    H261974   1.772   6.626  11.604  0.0781 -2.3426  2.5867
13495TIP3   OH261975   6.482   6.435  14.221  0.1721 -0.5520 -0.2060
13495TIP3    H161976   6.562   6.476  14.256  0.1937 -0.0785 -0.7957
13495TIP3    H261977   6.464   6.364  14.282  0.0610  0.4078  0.9221
13496TIP3   OH261978   3.077   3.782   0.829  0.0086 -0.0239 -0.1793
13496TIP3    H161979   3.041   3.861   0.869 -0.2744  0.0319 -0.5389
13496TIP3    H261980   3.169   3.804   0.813  0.9736 -1.0550  3.1017
13497TIP3   OH261981   0.326   6.690   0.524 -0.0537 -0.9095 -0.6577
13497TIP3    H161982   0.286   6.658   0.605  1.5324  3.5055  2.2051
13497TIP3    H261983   0.420   6.690   0.542  0.1737  3.1201 -1.0810
13498TIP3   OH261984   6.716   3.277   0.249 -0.6287  0.0804  0.1816
13498TIP3    H161985   6.629   3.253   0.219 -1.2570  3.0677 -0.7560
13498TIP3    H261986   6.761   3.307   0.170  1.2745 -1.3103  0.6693
13499TIP3   OH261987   2.146   2.128  15.411  0.0439 -0.3060  0.2126
13499TIP3    H161988   2.112   2.188  15.344  0.3422 -0.7316 -0.3300
13499TIP3    H261989   2.130   2.041  15.375 -2.9430 -0.7028  2.2107
13500TIP3   OH261990   1.092   0.688   3.609  0.1500 -0.0680  0.2900
13500TIP3    H161991   1.072   0.755   3.675 -2.1809 -1.1934  0.8378
13500TIP3    H261992   1.050   0.609   3.642  0.8559 -1.2307 -1.4753
13501TIP3   OH261993   1.250   6.760   0.415 -0.6119 -0.1828 -0.0138
13501TIP3    H161994   1.175   6.775   0.358 -0.9440  0.7675  0.6398
13501TIP3    H261995   1.326   6.773   0.358 -0.9250 -1.1607 -0.6819
13502TIP3   OH261996   5.893   5.352  15.346  0.8620 -0.2556  0.0425
13502TIP3    H161997   5.924   5.267  15.378  1.0645 -0.5015 -0.7864
13502TIP3    H261998   5.935   5.363  15.261 -0.9431 -0.3967 -0.9345
13503TIP3   OH261999   1.568   1.345   0.678 -0.1216  0.0308  0.0431
13503TIP3    H162000   1.631   1.319   0.745 -0.1874 -0.2915 -0.0201
13503TIP3    H262001   1.483   1.321   0.714 -0.1365 -0.4045 -0.2764
13504TIP3   OH262002   4.145   3.371   5.007  0.4180  0.8709 -0.3087
13504TIP3    H162003   4.187   3.323   5.079  0.4782  2.0240  0.4604
13504TIP3    H262004   4.052   3.369   5.027  0.3002  0.0990 -0.8976
13505TIP3   OH262005   5.370   5.116   5.450 -0.6156 -0.0266  0.1629
13505TIP3    H162006   5.425   5.039   5.455 -1.2483 -0.8589 -3.1056
13505TIP3    H262007   5.317   5.113   5.529 -1.5529 -3.7764 -0.4127
13506TIP3   OH262008   0.445   6.429   2.218 -0.2995  0.7457 -0.7338
13506TIP3    H162009   0.514   6.495   2.220 -0.3701  0.8348 -1.1897
13506TIP3    H262010   0.488   6.350   2.183 -0.6637  1.0918 -2.0182
13507TIP3   OH262011   5.447   6.239   0.947  0.4610 -0.5433  0.3169
13507TIP3    H162012   5.474   6.227   1.038 -0.9675 -1.5380  0.6288
13507TIP3    H262013   5.392   6.318   0.949 -1.9579 -2.1321  0.9075
13508TIP3   OH262014   6.064   5.318   0.776  0.2504 -0.3270 -0.4956
13508TIP3    H162015   6.110   5.268   0.844 -0.0149  0.6562  0.4232
13508TIP3    H262016   6.050   5.404   0.814 -0.8014 -0.0627 -1.4240
13509TIP3   OH262017   4.644   3.289  16.303 -0.1930 -0.8791  0.0964
13509TIP3    H162018   4.681   3.232  16.371 -0.5935 -2.5204 -1.0052
13509TIP3    H262019   4.705   3.281  16.229 -1.0435 -1.1039 -0.6013
13510TIP3   OH262020   5.237   6.743   0.648  0.3688  0.5348 -0.1379
13510TIP3    H162021   5.251   6.723   0.556 -1.5109 -1.1991 -0.1192
13510TIP3    H262022   5.153   6.789   0.651  0.7199  1.1577  0.6608
13511TIP3   OH262023   6.790   2.418  14.432 -0.1445  0.0486  0.1157
13511TIP3    H162024   6.726   2.474  14.475  0.0775  0.0614  0.4338
13511TIP3    H262025   6.873   2.440  14.474  0.2844  0.9084 -1.1086
13512TIP3   OH262026   0.718   6.523   2.215  0.1271 -0.0042 -0.0230
13512TIP3    H162027   0.772   6.545   2.139  0.1263  0.0588 -0.0058
13512TIP3    H262028   0.747   6.585   2.282  0.2485 -0.1735  0.0812
13513TIP3   OH262029   1.113   3.526  13.333  0.3802 -0.0081  0.6611
13513TIP3    H162030   1.194   3.485  13.303  0.8769  1.0723  0.5059
13513TIP3    H262031   1.140   3.606  13.376 -0.5573 -0.0143  1.3124
13514TIP3   OH262032   2.199   5.520  14.554 -0.1512 -0.6044 -0.0184
13514TIP3    H162033   2.244   5.591  14.508 -1.5967 -1.0304 -2.2632
13514TIP3    H262034   2.114   5.557  14.577  0.0711 -0.8161  1.2191
13515TIP3   OH262035   4.979   2.551  11.235 -0.5752 -0.0381  0.3106
13515TIP3    H162036   5.051   2.491  11.255  0.3501  0.7950 -0.4533
13515TIP3    H262037   4.931   2.559  11.317 -1.2556 -2.4925  0.2337
13516TIP3   OH262038   4.360   2.541   3.042  0.2114 -0.4776 -0.1494
13516TIP3    H162039   4.393   2.613   3.097  0.1382 -1.4942  1.2613
13516TIP3    H262040   4.281   2.576   3.002 -1.0324 -0.4375  2.2057
13517TIP3   OH262041   2.483   2.103  16.206 -0.5231 -0.3463 -0.1228
13517TIP3    H162042   2.452   2.087  16.117 -0.3549  1.0669 -0.4684
13517TIP3    H262043   2.422   2.167  16.241  0.0627 -0.0605  0.3813
13518TIP3   OH262044   3.735   0.882   5.617 -0.3198 -0.1988 -0.5481
13518TIP3    H162045   3.709   0.814   5.555  1.1870 -1.4209  0.0978
13518TIP3    H262046   3.716   0.844   5.703  0.6701  0.1318 -0.1718
13519TIP3   OH262047   3.113   2.181  15.034 -0.1307 -0.0731  0.8465
13519TIP3    H162048   3.183   2.165  14.970 -0.8242 -2.5049  0.5610
13519TIP3    H262049   3.154   2.233  15.103  1.4072  0.2302 -0.2436
13520TIP3   OH262050   6.535   3.148   0.577  0.2705  0.4925  0.5519
13520TIP3    H162051   6.612   3.111   0.622  3.2749  4.1622 -0.9892
13520TIP3    H262052   6.492   3.202   0.644  1.0719  1.0587  0.6247
13521TIP3   OH262053   6.792   5.901  12.265 -0.6285  0.6340 -0.6376
13521TIP3    H162054   6.816   5.817  12.224 -0.2949 -0.4730  1.6514
13521TIP3    H262055   6.710   5.926  12.222  0.6096  0.5789 -3.2620
13522TIP3   OH262056   1.060   2.125   3.740  0.4223 -0.4154  0.5810
13522TIP3    H162057   1.075   2.070   3.817  3.2979 -2.3301 -1.1514
13522TIP3    H262058   1.058   2.215   3.774 -0.2706 -1.2867  3.0273
13523TIP3   OH262059   2.334   3.165  16.042 -0.0702 -0.6108  0.2140
13523TIP3    H162060   2.383   3.117  15.975 -0.2479 -0.1469 -0.2530
13523TIP3    H262061   2.353   3.257  16.024 -1.3414 -0.4076 -0.1576
13524TIP3   OH262062   0.285   0.668  15.391 -0.1735  0.6321 -0.3615
13524TIP3    H162063   0.320   0.658  15.302 -0.5794  1.0731 -0.5720
13524TIP3    H262064   0.192   0.687  15.378 -0.4845 -0.4368  0.1863
13525TIP3   OH262065   2.767   0.988  11.773 -0.2940  0.8236  0.1513
13525TIP3    H162066   2.822   0.963  11.847 -0.6005  0.6034  0.3086
13525TIP3    H262067   2.778   1.082  11.764 -0.3756  0.8715  0.5750
13526TIP3   OH262068   4.857   2.150   2.694  0.6050 -0.2419 -0.0739
13526TIP3    H162069   4.898   2.108   2.769  0.5109  0.7813  0.5755
13526TIP3    H262070   4.825   2.234   2.728 -0.1243 -0.0912 -1.0735
13527TIP3   OH262071   1.615   4.964  15.566 -0.3454  0.2664  0.3006
13527TIP3    H162072   1.692   4.962  15.510 -0.4596  1.6575  0.0548
13527TIP3    H262073   1.551   4.908  15.521  0.6570 -1.2602  0.7433
13528TIP3   OH262074   4.135   5.862   2.885  0.8085  0.3240  0.0878
13528TIP3    H162075   4.160   5.936   2.831 -0.2264  0.8947  0.3663
13528TIP3    H262076   4.053   5.888   2.926  0.9881 -0.5430  1.0528
13529TIP3   OH262077   3.874   4.972   1.747  0.3656  0.1502 -0.3268
13529TIP3    H162078   3.853   4.889   1.788  1.5465 -0.0646 -0.1295
13529TIP3    H262079   3.930   5.017   1.810  1.1371  0.3620 -1.1418
13530TIP3   OH262080   6.352   5.081   3.366 -0.4467  0.5509  0.2656
13530TIP3    H162081   6.366   5.168   3.328 -1.3482  0.6399  0.1243
13530TIP3    H262082   6.434   5.035   3.350  0.1156  1.4371  0.5178
13531TIP3   OH262083   1.423   3.793  14.047 -0.2437 -0.0652  0.4413
13531TIP3    H162084   1.340   3.831  14.076  0.0504  1.4640 -0.6149
13531TIP3    H262085   1.398   3.712  14.002 -1.0898 -0.0039  0.7891
13532TIP3   OH262086   4.070   4.168  11.078 -0.2593  0.0383 -0.2991
13532TIP3    H162087   3.994   4.123  11.114  0.3132 -2.0377 -1.5254
13532TIP3    H262088   4.082   4.130  10.991  2.9053 -0.6022  0.2931
13533TIP3   OH262089   1.022   6.400   2.266  0.2820 -0.4271  0.0064
13533TIP3    H162090   0.972   6.423   2.344 -0.7191 -1.1016 -0.4246
13533TIP3    H262091   1.088   6.337   2.297  0.8451  0.4131  0.5589
13534TIP3   OH262092   2.051   0.336  16.805  0.1383  0.5847  0.4747
13534TIP3    H162093   2.077   0.365  16.892  1.5678  1.7268 -0.2967
13534TIP3    H262094   2.132   0.306  16.764 -0.2765  1.2530 -0.8952
13535TIP3   OH262095   3.334   1.492  16.391 -0.3114  0.1643  0.5534
13535TIP3    H162096   3.373   1.487  16.478 -0.4239  0.6334  0.6306
13535TIP3    H262097   3.328   1.400  16.363  1.1196  0.0975  0.4023
13536TIP3   OH262098   3.479   6.721   2.954  0.3717 -0.0721  0.9353
13536TIP3    H162099   3.528   6.786   2.904 -0.9380 -0.7463 -1.3857
13536TIP3    H262100   3.388   6.748   2.947 -0.0593 -1.3841  1.1353
13537TIP3   OH262101   6.288   5.691  13.554 -1.0474  0.1346 -0.2180
13537TIP3    H162102   6.374   5.726  13.532 -0.3809 -0.5948  1.0543
13537TIP3    H262103   6.295   5.597  13.535 -1.5216  0.0453  0.0265
13538TIP3   OH262104   0.774   2.737  14.675 -0.2063 -1.2830 -0.1764
13538TIP3    H162105   0.796   2.656  14.721 -0.4630  0.1044  2.6391
13538TIP3    H262106   0.694   2.768  14.718  0.4728  0.9770 -0.4173
13539TIP3   OH262107   3.091   0.944  16.197 -0.0581 -0.2762 -0.5343
13539TIP3    H162108   3.086   0.891  16.118 -1.7803 -0.7415 -0.1733
13539TIP3    H262109   3.037   1.021  16.178 -1.2153 -0.8008  0.4273
13540TIP3   OH262110   1.805   1.987  16.416  0.7958  0.0390 -0.0364
13540TIP3    H162111   1.742   1.917  16.398 -0.1372  1.0452 -0.8373
13540TIP3    H262112   1.776   2.060  16.361  1.2091  1.3660  1.4276
13541TIP3   OH262113   5.625   4.846  11.358 -0.0805  0.0581 -0.0679
13541TIP3    H162114   5.644   4.814  11.270 -2.6386  0.0379 -0.7009
13541TIP3    H262115   5.550   4.905  11.347 -0.5848 -0.0702  2.0974
13542TIP3   OH262116   5.737   5.200   3.994  0.1838  0.3656  0.2147
13542TIP3    H162117   5.784   5.227   3.916 -0.0674 -0.4429 -0.2253
13542TIP3    H262118   5.644   5.209   3.971  0.0900 -0.7723  0.0773
13543TIP3   OH262119   4.820   1.171  17.189  0.3423 -0.7920  0.4060
13543TIP3    H162120   4.773   1.252  17.170  1.2833 -0.6763 -1.6730
13543TIP3    H262121   4.891   1.168  17.124  0.8496 -2.8532  0.9770
13544TIP3   OH262122   6.747   5.977   4.853 -0.1067  0.7843 -0.0337
13544TIP3    H162123   6.730   6.028   4.932 -0.1439 -0.4233  0.7662
13544TIP3    H262124   6.811   6.028   4.804  1.0689  0.8416  1.4997
13545TIP3   OH262125   0.254   0.344  12.529 -0.2724 -0.3605 -0.8547
13545TIP3    H162126   0.226   0.285  12.599 -1.2860  1.0130 -0.0573
13545TIP3    H262127   0.241   0.294  12.449 -0.0379 -1.6120 -0.1463
13546TIP3   OH262128   3.099   2.642   4.343 -0.1509  0.6200  0.8911
13546TIP3    H162129   3.114   2.607   4.255 -0.0302 -0.0720  1.1754
13546TIP3    H262130   3.019   2.693   4.335 -0.7533 -0.3342  0.6064
13547TIP3   OH262131   5.008   2.759   6.487 -0.3368  0.1408  0.2748
13547TIP3    H162132   4.999   2.852   6.503 -1.7377 -0.1882  1.5639
13547TIP3    H262133   4.931   2.719   6.528  0.3885 -1.6083  0.0394
13548TIP3   OH262134   5.238   5.990   1.283 -0.3918  0.8821 -0.6773
13548TIP3    H162135   5.161   5.934   1.297  1.9293 -2.6755 -0.7316
13548TIP3    H262136   5.245   5.998   1.188  0.2245 -0.3946 -0.7719
13549TIP3   OH262137   5.181   0.898  16.802 -0.0389 -0.0201  0.0758
13549TIP3    H162138   5.244   0.885  16.872  0.6462 -2.3225 -0.8644
13549TIP3    H262139   5.099   0.862  16.837 -0.3006  0.9247  0.4792
13550TIP3   OH262140   4.918   4.481   0.721  0.4541 -0.1909 -0.3483
13550TIP3    H162141   4.905   4.392   0.754 -1.7488 -0.0995 -0.8197
13550TIP3    H262142   4.830   4.517   0.714  1.3104  2.1868  0.1862
13551TIP3   OH262143   6.630   4.620  16.476 -0.1818  0.3390 -0.2367
13551TIP3    H162144   6.582   4.543  16.445  0.2179 -0.0214  0.0417
13551TIP3    H262145   6.704   4.628  16.417  0.2165  0.0411  0.2202
13552TIP3   OH262146   3.906   2.937  11.579  0.0508 -0.3658 -0.2374
13552TIP3    H162147   3.834   2.933  11.643  0.6866 -0.7301  0.4613
13552TIP3    H262148   3.929   2.845  11.563 -0.8201 -0.3561 -1.8446
13553TIP3   OH262149   3.613   1.818   5.823 -0.6550  0.1137 -0.2938
13553TIP3    H162150   3.600   1.804   5.917 -0.7827 -0.7741 -0.4339
13553TIP3    H262151   3.688   1.877   5.818  1.2486 -2.0930  0.3540
13554TIP3   OH262152   5.000   0.930  14.030 -0.1492 -0.2309  0.6469
13554TIP3    H162153   5.066   0.935  13.961  0.2469 -2.4035  0.7884
13554TIP3    H262154   4.972   1.021  14.044  1.4108  0.5115 -0.7523
13555TIP3   OH262155   6.460   2.301   2.691 -0.1720 -0.5372  0.5983
13555TIP3    H162156   6.514   2.294   2.769  2.5172  2.0052 -0.8416
13555TIP3    H262157   6.419   2.387   2.697 -0.5659 -0.6386 -0.4081
13556TIP3   OH262158   4.399   0.446   0.748 -0.4342  0.1070 -0.3204
13556TIP3    H162159   4.314   0.491   0.750 -0.9813 -0.8834 -0.5664
13556TIP3    H262160   4.394   0.382   0.819  1.4663  2.3404  2.0087
13557TIP3   OH262161   1.213   1.448   1.903 -0.3819 -0.6903  0.1053
13557TIP3    H162162   1.256   1.468   1.986 -0.4068  0.2760 -0.1026
13557TIP3    H262163   1.127   1.490   1.910  0.5916  1.7662 -1.4331
13558TIP3   OH262164   5.903   1.907  16.842 -0.3516  0.1032  0.0092
13558TIP3    H162165   5.851   1.934  16.767  0.9058 -0.8837 -1.2973
13558TIP3    H262166   5.877   1.965  16.913 -4.4847 -1.4075  0.0104
13559TIP3   OH262167   1.889   5.772   6.268  0.4304 -0.2763  0.0842
13559TIP3    H162168   1.810   5.807   6.308  1.1421  2.0651 -0.3871
13559TIP3    H262169   1.890   5.680   6.292 -0.3773  0.4794  3.4716
13560TIP3   OH262170   1.231   3.021  14.623  0.4099 -0.7058 -0.6434
13560TIP3    H162171   1.164   2.952  14.626  0.0657 -0.3905 -0.8807
13560TIP3    H262172   1.189   3.092  14.575  0.8715 -0.4479 -0.6697
13561TIP3   OH262173   5.814   6.022   4.400 -0.1275  0.0011 -0.1748
13561TIP3    H162174   5.742   5.971   4.438  0.3282 -0.5317 -0.0041
13561TIP3    H262175   5.878   6.029   4.471 -0.4488  1.3709  0.0072
13562TIP3   OH262176   3.873   3.631  16.022  0.1886 -0.0810  0.1925
13562TIP3    H162177   3.835   3.715  15.995  1.5785  0.6899  0.5175
13562TIP3    H262178   3.833   3.566  15.964  0.9552  1.1455 -1.8146
13563TIP3   OH262179   0.809   2.026  13.113 -0.1390 -0.3583  0.5398
13563TIP3    H162180   0.723   2.013  13.072 -0.2236 -0.6927  0.8041
13563TIP3    H262181   0.836   1.937  13.139  0.4021 -0.2844  0.2356
13564TIP3   OH262182   3.522   6.551  16.628 -0.4329 -0.1989 -0.2859
13564TIP3    H162183   3.521   6.549  16.724  1.1158  0.5899 -0.2299
13564TIP3    H262184   3.546   6.641  16.606  2.2563 -1.0841 -1.3394
13565TIP3   OH262185   0.447   1.477   2.193 -0.0205  0.0449  0.4791
13565TIP3    H162186   0.427   1.534   2.267 -0.2309  1.4454 -0.6010
13565TIP3    H262187   0.376   1.493   2.131  0.4361 -0.6794 -0.2428
13566TIP3   OH262188   3.673   4.964  14.925  0.2671  0.2179  0.0794
13566TIP3    H162189   3.685   5.018  14.847 -3.7874 -1.5641 -2.1302
13566TIP3    H262190   3.605   5.010  14.975 -2.2718 -1.8833 -1.1786
13567TIP3   OH262191   6.138   1.223   0.537 -0.2840 -0.0612  0.2388
13567TIP3    H162192   6.187   1.145   0.563 -0.0479 -0.0082 -0.0408
13567TIP3    H262193   6.205   1.292   0.532 -0.4553  0.1064  0.2652
13568TIP3   OH262194   1.803   5.541  13.223 -0.4757  0.5435 -0.0660
13568TIP3    H162195   1.847   5.529  13.307 -1.4489 -3.2848  0.0777
13568TIP3    H262196   1.874   5.545  13.159  0.2016  0.9427  0.6902
13569TIP3   OH262197   5.534   6.360  10.957 -0.4561  0.1187 -0.1650
13569TIP3    H162198   5.491   6.279  10.985 -1.9213  0.7132 -0.5835
13569TIP3    H262199   5.470   6.428  10.976 -0.1319  0.9261 -1.7731
13570TIP3   OH262200   0.181   4.085   5.842 -0.2124  0.3575 -0.1837
13570TIP3    H162201   0.105   4.143   5.848 -2.1150 -1.8776 -1.1971
13570TIP3    H262202   0.183   4.040   5.926  0.4421  0.8579  0.0849
13571TIP3   OH262203   5.357   1.501   4.373  0.1200  0.4742  0.3626
13571TIP3    H162204   5.287   1.482   4.436  1.4171  3.3042  2.8713
13571TIP3    H262205   5.315   1.555   4.306 -0.3645  1.1458  1.1955
13572TIP3   OH262206   6.746   5.353   4.328  0.5575  0.0719 -0.0479
13572TIP3    H162207   6.795   5.367   4.409  1.9971 -2.0725 -0.4673
13572TIP3    H262208   6.767   5.263   4.303 -0.2934  0.4919 -2.5062
13573TIP3   OH262209   2.529   1.603   0.686  0.1678  0.6255 -0.2091
13573TIP3    H162210   2.464   1.640   0.746  0.0209 -1.6455  1.1679
13573TIP3    H262211   2.603   1.579   0.742  0.5299 -0.4834 -1.1053
13574TIP3   OH262212   1.249   4.728  16.906 -0.5197  0.7560 -0.1512
13574TIP3    H162213   1.252   4.633  16.893 -1.7281  0.3526  2.0902
13574TIP3    H262214   1.339   4.751  16.927  0.4984  0.7176 -3.6746
13575TIP3   OH262215   5.590   2.416  17.101 -0.3397 -0.1993 -0.0497
13575TIP3    H162216   5.579   2.507  17.127  3.5296 -0.4052  3.3783
13575TIP3    H262217   5.642   2.420  17.021  1.3356  0.7403  1.0263
13576TIP3   OH262218   5.220   1.629  15.209 -0.2398 -0.0826 -0.1922
13576TIP3    H162219   5.312   1.655  15.206 -0.2594  0.0849  0.4322
13576TIP3    H262220   5.220   1.537  15.181  0.2421 -0.3749  0.7384
13577TIP3   OH262221   0.418   1.566  17.177 -0.5100  0.1403 -0.3019
13577TIP3    H162222   0.470   1.641  17.206 -1.7637  0.9790 -0.1751
13577TIP3    H262223   0.338   1.604  17.140 -1.7966 -1.1590  1.0030
13578TIP3   OH262224   2.759   1.803   3.707  0.4444  0.4040  0.4908
13578TIP3    H162225   2.710   1.762   3.635  0.3282 -0.0902  0.8460
13578TIP3    H262226   2.801   1.879   3.667 -1.2402  1.3092  0.3605
13579TIP3   OH262227   0.191   5.048  15.792 -0.3289  0.8574  0.1616
13579TIP3    H162228   0.099   5.073  15.800 -0.3605  0.7056  0.2968
13579TIP3    H262229   0.240   5.121  15.828 -0.4289  0.6297  0.7735
13580TIP3   OH262230   5.551   1.988   5.879 -0.3307 -0.6889  0.4006
13580TIP3    H162231   5.529   1.942   5.959  1.9687 -0.8039  1.0459
13580TIP3    H262232   5.636   2.029   5.897  0.1843 -0.5756 -1.8998
13581TIP3   OH262233   6.517   5.844   1.263  0.7329 -0.3922  0.2601
13581TIP3    H162234   6.494   5.803   1.179  1.4386 -3.2138  1.3244
13581TIP3    H262235   6.499   5.937   1.250  0.1301 -0.8229 -2.7675
13582TIP3   OH262236   4.811   1.375   3.424  0.4822  0.0606  0.1693
13582TIP3    H162237   4.833   1.316   3.495  1.4166  1.4190  1.0608
13582TIP3    H262238   4.716   1.385   3.428  0.6240  0.9813  1.9740
13583TIP3   OH262239   1.387   5.077   4.094  0.2359 -0.3573 -0.3577
13583TIP3    H162240   1.299   5.068   4.130  0.7254  0.1913  1.0503
13583TIP3    H262241   1.435   5.127   4.161  2.1097 -2.2128 -0.2277
13584TIP3   OH262242   3.655   4.097  12.691 -0.5140 -0.5911  0.0871
13584TIP3    H162243   3.687   4.166  12.632 -0.1466 -0.4420  0.4529
13584TIP3    H262244   3.691   4.121  12.777 -0.5342 -1.1409  0.2502
13585TIP3   OH262245   6.092   1.571  15.769  0.3151 -0.4866 -0.5758
13585TIP3    H162246   6.132   1.532  15.692  2.8264  1.9030 -0.6528
13585TIP3    H262247   6.134   1.526  15.843  0.6670 -0.2876 -0.6504
13586TIP3   OH262248   1.660   2.781  14.525  0.4778  0.0780 -0.1913
13586TIP3    H162249   1.690   2.869  14.503  1.9289 -0.3767 -0.1434
13586TIP3    H262250   1.635   2.786  14.617  0.3325  0.4788 -0.2485
13587TIP3   OH262251   4.182   0.673   4.134 -0.3318  0.0663  0.0398
13587TIP3    H162252   4.229   0.716   4.206  0.4394 -0.2565 -0.2637
13587TIP3    H262253   4.250   0.631   4.083 -0.6689  1.7519 -1.9158
13588TIP3   OH262254   4.014   6.456  13.523  0.2168 -0.3091  0.1410
13588TIP3    H162255   4.038   6.365  13.539 -0.0811 -0.2666  0.8485
13588TIP3    H262256   4.097   6.502  13.515  0.3682 -0.6198 -0.0806
13589TIP3   OH262257   4.266   5.074   2.828  0.0988  0.5043  0.2189
13589TIP3    H162258   4.321   5.125   2.887  0.3481 -0.7304  1.0922
13589TIP3    H262259   4.218   5.139   2.777  0.1608  1.6035  1.5283
13590TIP3   OH262260   3.985   0.374  13.761  0.0121  0.5977  0.4731
13590TIP3    H162261   3.892   0.365  13.742  0.3430 -3.0591 -0.1618
13590TIP3    H262262   4.015   0.284  13.777  3.1803  1.7615  2.0276
13591TIP3   OH262263   3.948   4.717   0.232 -0.4749  0.4849  0.2854
13591TIP3    H162264   4.015   4.785   0.243 -0.6499  0.5840  0.7908
13591TIP3    H262265   3.998   4.636   0.222 -0.2677  0.6604 -0.1094
13592TIP3   OH262266   1.408   2.286   4.348 -0.2983 -0.0896  0.2160
13592TIP3    H162267   1.402   2.372   4.390  0.3403 -0.0568  0.2516
13592TIP3    H262268   1.495   2.285   4.309 -0.8655 -0.1171 -1.1079
13593TIP3   OH262269   0.447   1.448  13.983  0.2971 -0.0299  0.0589
13593TIP3    H162270   0.362   1.449  13.940  0.3818  1.1281 -0.1117
13593TIP3    H262271   0.477   1.539  13.980  1.2272 -0.2939  0.7387
13594TIP3   OH262272   2.947   1.660   5.218  0.4679 -0.1405  0.4881
13594TIP3    H162273   3.018   1.611   5.177  0.7945  0.9208 -0.2479
13594TIP3    H262274   2.868   1.631   5.173  0.7785  0.7247 -0.6642
13595TIP3   OH262275   4.443   2.021  12.300 -0.5900 -0.0643  0.0812
13595TIP3    H162276   4.400   2.021  12.215 -0.8957  1.2516  0.2102
13595TIP3    H262277   4.383   2.071  12.357 -0.7440 -1.4992  1.2558
13596TIP3   OH262278   5.260   6.026   0.987 -0.0443  0.2767  0.0764
13596TIP3    H162279   5.257   5.938   0.948  0.5920 -0.3152  1.3182
13596TIP3    H262280   5.353   6.050   0.984 -0.0950  0.5324  0.5644
13597TIP3   OH262281   5.566   6.807  13.142  0.4253  0.3812  0.5440
13597TIP3    H162282   5.653   6.846  13.148  1.1377 -1.0201 -0.1098
13597TIP3    H262283   5.563   6.745  13.215  1.0071 -1.4169 -0.8691
13598TIP3   OH262284   4.967   2.949  16.792 -0.0572 -0.2235  0.2809
13598TIP3    H162285   4.885   2.905  16.813  0.4208 -0.6401  1.3485
13598TIP3    H262286   5.035   2.887  16.819  0.6181  0.5548  0.4013
13599TIP3   OH262287   1.733   6.610   3.961 -0.1185  0.1861 -0.6783
13599TIP3    H162288   1.798   6.641   3.898  0.4275 -0.0197 -0.2250
13599TIP3    H262289   1.675   6.554   3.910 -0.1642  0.6649 -1.1676
13600TIP3   OH262290   0.144   0.437  14.390  0.5807 -0.0968  0.4560
13600TIP3    H162291   0.053   0.423  14.416 -0.1946  0.1181 -1.9351
13600TIP3    H262292   0.150   0.402  14.302  2.9557 -0.4686  0.6963
13601TIP3   OH262293   2.685   1.457   4.764  0.3390  0.2149 -0.5819
13601TIP3    H162294   2.680   1.543   4.723  1.9143  0.6374  0.0305
13601TIP3    H262295   2.605   1.451   4.816  0.8341  1.9104  0.4612
13602TIP3   OH262296   6.627   3.997   2.237  0.7833 -0.4938 -0.0273
13602TIP3    H162297   6.676   4.045   2.170  0.7945  1.1037  1.0513
13602TIP3    H262298   6.686   3.996   2.313  0.0028 -0.4912  0.5867
13603TIP3   OH262299   0.990   4.606   5.696 -0.5311 -0.1688 -0.1679
13603TIP3    H162300   0.930   4.532   5.709  1.3753 -1.6898  0.5222
13603TIP3    H262301   1.020   4.628   5.784  0.9314 -0.3785 -0.5889
13604TIP3   OH262302   3.962   1.302   1.145  0.3767  0.1689 -0.5406
13604TIP3    H162303   3.895   1.323   1.079 -0.0839 -0.8002 -0.3978
13604TIP3    H262304   3.981   1.386   1.186  0.6726  0.8014 -1.8948
13605TIP3   OH262305   2.584   0.779  12.669 -0.2144  0.0824  0.5401
13605TIP3    H162306   2.659   0.721  12.677  0.0996  0.3398 -0.3941
13605TIP3    H262307   2.543   0.755  12.586  2.1616  3.6467 -1.9354
13606TIP3   OH262308   2.205   6.756   4.135  0.4307 -0.8301 -0.0721
13606TIP3    H162309   2.120   6.781   4.100  1.2106 -1.2221 -2.4318
13606TIP3    H262310   2.259   6.835   4.129  0.0838 -0.3675  2.1230
13607TIP3   OH262311   3.048   4.302   3.825  0.3268  0.5114  0.2058
13607TIP3    H162312   3.041   4.353   3.906  1.3840  1.1171 -0.0662
13607TIP3    H262313   3.136   4.321   3.792  0.0930 -0.1185 -0.8261
13608TIP3   OH262314   5.822   4.599   2.854  0.3847 -0.3577  0.3901
13608TIP3    H162315   5.813   4.506   2.874  0.5358  0.0613  2.5863
13608TIP3    H262316   5.889   4.630   2.914 -1.2954  1.6316  1.3408
13609TIP3   OH262317   4.431   3.065   2.076 -0.4530 -0.4910  0.3341
13609TIP3    H162318   4.360   3.031   2.022  0.1824 -0.5830 -0.4565
13609TIP3    H262319   4.490   2.990   2.087  0.3945  0.0343 -0.4868
13610TIP3   OH262320   1.108   2.023   0.655 -0.3075  0.3649 -0.2520
13610TIP3    H162321   1.101   1.959   0.584 -2.3865  0.4089 -0.1667
13610TIP3    H262322   1.035   2.084   0.639 -2.9069 -1.3993  3.5521
13611TIP3   OH262323   5.881   0.471  11.673 -0.2709  0.2062 -0.1510
13611TIP3    H162324   5.975   0.460  11.686 -0.5394 -2.2330  0.2170
13611TIP3    H262325   5.874   0.532  11.600  1.5705  0.8279  0.1295
13612TIP3   OH262326   4.073   0.385   1.280  0.2849 -0.2162 -0.2407
13612TIP3    H162327   3.985   0.368   1.313  0.8156 -1.7317  0.4903
13612TIP3    H262328   4.122   0.417   1.355  0.4734  0.2331 -0.5473
13613TIP3   OH262329   4.334   1.703   0.414 -0.2460 -0.6679 -0.2529
13613TIP3    H162330   4.268   1.674   0.477  0.6082 -1.8519  0.1220
13613TIP3    H262331   4.414   1.657   0.439  0.7708  0.8170 -0.6463
13614TIP3   OH262332   1.013   2.069   2.052  0.8049 -0.5891 -0.1723
13614TIP3    H162333   1.078   2.103   1.991  0.2985  0.7824  0.0339
13614TIP3    H262334   1.019   2.126   2.128  0.2645 -1.2542  0.3789
13615TIP3   OH262335   4.675   2.275  12.955  0.5236  0.1343  0.4640
13615TIP3    H162336   4.711   2.325  12.882  1.0229 -1.2615 -0.2699
13615TIP3    H262337   4.750   2.225  12.989  0.2023  0.4435  1.6636
13616TIP3   OH262338   4.584   2.961  14.804  0.0844  0.3088  0.1516
13616TIP3    H162339   4.611   2.869  14.802  1.1319  0.5958 -2.3050
13616TIP3    H262340   4.504   2.961  14.856  0.0314 -1.9882  0.1882
13617TIP3   OH262341   5.988   5.852  15.184 -0.9068 -0.0927 -0.6450
13617TIP3    H162342   6.077   5.886  15.172 -1.1295  1.0593  0.6677
13617TIP3    H262343   5.997   5.757  15.179  0.3174  0.0281 -0.9539
13618TIP3   OH262344   6.095   1.203  14.837 -0.1026  0.1492  0.3299
13618TIP3    H162345   6.153   1.157  14.776  0.1634  0.5620  0.2664
13618TIP3    H262346   6.045   1.264  14.781 -0.2175  0.1713  0.4562
13619TIP3   OH262347   0.340   2.635   1.444  0.3100 -0.0030  0.3672
13619TIP3    H162348   0.290   2.563   1.484  2.2019 -1.0193  1.0590
13619TIP3    H262349   0.317   2.631   1.351 -1.4672  0.0974  0.7681
13620TIP3   OH262350   0.543   3.770  13.498  0.6822 -0.0672 -0.1175
13620TIP3    H162351   0.469   3.759  13.557  1.2409 -1.5541  0.3676
13620TIP3    H262352   0.618   3.785  13.556  1.2844 -1.7999 -0.3707
13621TIP3   OH262353   6.229   5.886  12.234  0.1698 -0.4717  0.4688
13621TIP3    H162354   6.180   5.804  12.242  0.3505 -0.6448 -0.1066
13621TIP3    H262355   6.176   5.939  12.174 -0.0270 -0.1064  0.9681
13622TIP3   OH262356   2.054   2.234   1.508 -0.1591  0.1260  0.5140
13622TIP3    H162357   2.047   2.190   1.423  0.1616 -0.0543  0.5792
13622TIP3    H262358   1.978   2.203   1.556  0.4750 -1.0009  0.8432
13623TIP3   OH262359   5.277   2.279  14.692 -0.2454 -0.2515  0.0410
13623TIP3    H162360   5.351   2.268  14.753 -1.2835 -2.5734  1.0242
13623TIP3    H262361   5.211   2.326  14.743 -0.7652 -1.3831  0.4539
13624TIP3   OH262362   0.447   0.866   0.398 -0.3914 -0.3675  0.6586
13624TIP3    H162363   0.417   0.779   0.372 -0.1730 -0.7423  1.6377
13624TIP3    H262364   0.543   0.862   0.387 -0.4299 -0.0552  0.1560
13625TIP3   OH262365   3.475   2.584  13.385 -0.1486  0.2560 -0.0844
13625TIP3    H162366   3.442   2.495  13.391  1.6723 -0.6401 -2.0198
13625TIP3    H262367   3.470   2.618  13.474 -0.5417 -1.8943  0.7713
13626TIP3   OH262368   1.145   3.804  11.482  0.1217  0.1407  0.3114
13626TIP3    H162369   1.231   3.844  11.471 -0.1573  0.5813 -0.3724
13626TIP3    H262370   1.162   3.719  11.522  0.7884  0.6563  1.1652
13627TIP3   OH262371   2.712   0.596   0.650  0.7425  0.2947 -0.2746
13627TIP3    H162372   2.750   0.674   0.690  1.0330 -0.3197  0.6872
13627TIP3    H262373   2.643   0.630   0.593  1.7605  1.3299 -0.9375
13628TIP3   OH262374   2.229   3.802  11.963 -0.2865 -0.2283  0.0729
13628TIP3    H162375   2.185   3.822  11.880 -2.4118 -0.6001  1.0561
13628TIP3    H262376   2.319   3.834  11.950 -0.4326 -0.6180 -2.4797
13629TIP3   OH262377   0.632   0.710  17.076 -0.3478  0.2502 -0.0949
13629TIP3    H162378   0.719   0.706  17.037 -1.1806  1.2319 -2.2312
13629TIP3    H262379   0.647   0.700  17.170  2.0687  0.5851 -0.3846
13630TIP3   OH262380   4.403   3.538  15.033  0.1822 -0.1792 -0.0179
13630TIP3    H162381   4.498   3.534  15.021 -0.0369  1.3319 -3.5328
13630TIP3    H262382   4.391   3.588  15.114  2.4430  2.0686 -0.9402
13631TIP3   OH262383   0.891   0.335  10.987 -0.1377  0.7546  0.0697
13631TIP3    H162384   0.860   0.426  10.986 -1.0401  0.4573  0.6190
13631TIP3    H262385   0.830   0.288  10.931 -0.8545  0.1130  1.3795
13632TIP3   OH262386   6.788   3.273   5.181  0.7306  0.2133  0.7094
13632TIP3    H162387   6.709   3.288   5.129  0.6183  0.0783  0.8384
13632TIP3    H262388   6.801   3.355   5.229  0.9695  0.4211  0.2938
13633TIP3   OH262389   2.402   2.017   4.306 -0.7258 -0.5819 -0.4533
13633TIP3    H162390   2.436   2.100   4.339  0.3001 -0.7715 -1.0100
13633TIP3    H262391   2.344   1.986   4.376 -1.0875  0.5673 -0.2162
13634TIP3   OH262392   6.146   4.488  15.629 -0.1106  0.1587 -0.2471
13634TIP3    H162393   6.081   4.447  15.686  1.1572 -0.1824  0.9958
13634TIP3    H262394   6.095   4.522  15.555 -1.9255  1.2648  1.4014
13635TIP3   OH262395   1.378   3.604  16.239 -0.1509  0.2153 -0.3336
13635TIP3    H162396   1.460   3.602  16.190  0.9633  0.6995  1.4197
13635TIP3    H262397   1.400   3.568  16.325 -2.3180 -1.8469 -0.5111
13636TIP3   OH262398   4.730   6.818  16.105  0.2697 -0.5304  0.1732
13636TIP3    H162399   4.717   6.724  16.115 -1.5761 -0.2026  1.3777
13636TIP3    H262400   4.716   6.854  16.193 -0.6279  1.0082 -0.5501
13637TIP3   OH262401   3.734   3.204  11.191 -0.5598 -0.4904 -0.1014
13637TIP3    H162402   3.795   3.154  11.245  0.9499  1.0119 -0.3256
13637TIP3    H262403   3.683   3.256  11.253 -1.5244 -1.5849  0.0696
13638TIP3   OH262404   4.773   1.479   0.875 -0.1851 -0.0014 -0.2243
13638TIP3    H162405   4.853   1.519   0.907 -0.2557 -0.2911  0.3282
13638TIP3    H262406   4.715   1.553   0.856  0.1463  0.2005 -0.4601
13639TIP3   OH262407   5.259   5.767   5.773 -0.4311  0.1694 -0.0610
13639TIP3    H162408   5.329   5.759   5.707 -0.0539 -0.9688  0.4536
13639TIP3    H262409   5.306   5.776   5.856 -0.8867 -0.3533  0.2585
13640TIP3   OH262410   6.148   5.950   2.390  0.4491 -0.0429  0.2995
13640TIP3    H162411   6.076   5.907   2.436  0.3691 -1.4826 -1.0930
13640TIP3    H262412   6.210   5.974   2.459  0.1143 -1.6727  1.2108
13641TIP3   OH262413   6.762   4.248  16.730  0.5279 -0.2933 -0.4011
13641TIP3    H162414   6.677   4.280  16.760  0.9732  0.1716  0.4366
13641TIP3    H262415   6.792   4.190  16.800  1.2950  0.2718 -0.2418
13642TIP3   OH262416   1.553   5.965  15.616 -0.2867  0.6351 -0.5447
13642TIP3    H162417   1.641   5.959  15.653 -0.4002  1.9289 -0.0234
13642TIP3    H262418   1.528   5.874  15.600  0.0838  0.0510  1.8295
13643TIP3   OH262419   0.711   6.079   4.254  0.0052 -0.3024 -0.5709
13643TIP3    H162420   0.713   6.098   4.347 -0.3511 -1.3681 -0.3359
13643TIP3    H262421   0.618   6.062   4.235 -0.1285  1.1415 -1.3882
13644TIP3   OH262422   3.072   3.630  12.530 -0.2633 -1.0189  0.0757
13644TIP3    H162423   3.106   3.599  12.614 -0.0813 -1.1632 -0.0505
13644TIP3    H262424   3.134   3.698  12.503 -0.1318 -1.2059 -0.1012
13645TIP3   OH262425   2.856   3.356  13.454  1.0400 -0.2772  0.2727
13645TIP3    H162426   2.774   3.404  13.450  2.4129  2.1897 -1.1386
13645TIP3    H262427   2.840   3.276  13.404 -1.0824 -0.9534  1.9289
13646TIP3   OH262428   2.661   3.537  12.326  0.0215 -0.3438  0.2897
13646TIP3    H162429   2.741   3.494  12.355 -0.7375 -1.6531  0.5249
13646TIP3    H262430   2.652   3.613  12.384 -0.0523 -1.4026  1.7146
13647TIP3   OH262431   6.387   0.950  15.324  0.7942  0.4206 -0.2388
13647TIP3    H162432   6.462   0.961  15.381  1.0969 -0.1443 -0.5225
13647TIP3    H262433   6.315   0.995  15.369  0.8615 -0.5755  0.9011
13648TIP3   OH262434   2.883   1.701  12.460  0.1528  0.5845  0.1221
13648TIP3    H162435   2.804   1.649  12.443  1.2969 -1.7804  1.5550
13648TIP3    H262436   2.898   1.748  12.379 -1.3804 -0.7854 -1.0381
13649TIP3   OH262437   4.647   0.128  14.220 -0.3510 -0.0625 -0.8188
13649TIP3    H162438   4.630   0.101  14.310 -0.0692  0.0609 -0.7275
13649TIP3    H262439   4.735   0.097  14.202 -0.3261  0.1008 -0.9815
13650TIP3   OH262440   2.749   2.763  14.704  0.7799 -0.6336 -0.3524
13650TIP3    H162441   2.797   2.838  14.669  1.1807 -0.4243  0.6144
13650TIP3    H262442   2.686   2.740  14.635 -0.7491  1.8515  0.0897
13651TIP3   OH262443   3.125   1.689   3.076  0.2360  0.8180 -0.0774
13651TIP3    H162444   3.138   1.784   3.074  0.2448  0.8477 -2.7539
13651TIP3    H262445   3.132   1.662   2.984 -1.0754 -1.6054  0.4428
13652TIP3   OH262446   3.534   4.979  13.250 -0.2166 -0.1666 -0.1200
13652TIP3    H162447   3.522   4.910  13.185 -2.4931 -1.1004  1.1715
13652TIP3    H262448   3.549   4.932  13.332 -1.4285  0.8250  0.7160
13653TIP3   OH262449   0.569   1.173  11.974 -0.3076 -0.6777  0.2776
13653TIP3    H162450   0.629   1.179  12.049 -0.8029  0.6457  0.5935
13653TIP3    H262451   0.610   1.228  11.906 -0.4192 -0.9731 -0.0294
13654TIP3   OH262452   2.437   4.344  14.556  0.0115  0.4221  0.2676
13654TIP3    H162453   2.346   4.359  14.531  0.0413 -0.0987 -0.1627
13654TIP3    H262454   2.434   4.267  14.613  0.2705 -0.0983 -0.4067
13655TIP3   OH262455   5.102   2.290   4.754 -0.0766  0.1103  0.1184
13655TIP3    H162456   5.165   2.299   4.826  0.1426 -0.8521  0.0604
13655TIP3    H262457   5.019   2.271   4.797  0.1778 -1.1072  0.1230
13656TIP3   OH262458   1.842   5.448  17.125  0.1865 -0.2666  0.4098
13656TIP3    H162459   1.754   5.484  17.128  0.9452  1.7597  0.2241
13656TIP3    H262460   1.848   5.390  17.201 -0.6466  1.2117  1.6429
13657TIP3   OH262461   1.642   2.001   0.488 -0.7522 -0.6349  0.1223
13657TIP3    H162462   1.636   2.093   0.464 -0.1764 -0.9771 -1.5039
13657TIP3    H262463   1.735   1.979   0.476 -1.2053 -1.8867 -1.4961
13658TIP3   OH262464   2.390   6.225  12.417 -0.2136  0.0911 -0.3385
13658TIP3    H162465   2.426   6.141  12.391 -1.0065 -0.7901  1.2540
13658TIP3    H262466   2.379   6.219  12.512 -2.5465  1.0544 -0.4737
13659TIP3   OH262467   5.740   3.828  11.087 -0.4954  0.6615 -0.0601
13659TIP3    H162468   5.723   3.738  11.060  0.4960  0.9955 -2.0022
13659TIP3    H262469   5.654   3.867  11.095 -1.0226 -0.7715  2.2110
13660TIP3   OH262470   2.825   3.616  12.894 -0.0108 -0.1662 -0.4586
13660TIP3    H162471   2.840   3.594  12.986 -1.1363 -1.0404 -0.4568
13660TIP3    H262472   2.900   3.670  12.870 -0.0625  0.7111  1.1717
13661TIP3   OH262473   6.474   0.829  13.028  0.5174  0.2092 -0.3921
13661TIP3    H162474   6.542   0.888  12.996 -0.1617  0.6796 -0.9842
13661TIP3    H262475   6.491   0.821  13.122  0.8309  1.0660 -0.3709
13662TIP3   OH262476   3.624   6.720   3.523  0.9768 -0.1721 -0.2640
13662TIP3    H162477   3.578   6.793   3.566  1.6195 -0.4792  0.9883
13662TIP3    H262478   3.714   6.751   3.514  1.5250 -1.2081  1.3183
13663TIP3   OH262479   0.786   5.976   3.612 -0.3007  0.2694  0.5167
13663TIP3    H162480   0.848   5.968   3.685  0.9183 -1.8550 -0.6479
13663TIP3    H262481   0.706   5.933   3.644 -0.5308  1.2688  1.3322
13664TIP3   OH262482   4.470   4.761   3.775  0.2776 -0.0448  0.3847
13664TIP3    H162483   4.378   4.787   3.779 -0.4384 -2.4293  1.3650
13664TIP3    H262484   4.516   4.823   3.832 -0.5060  1.8093 -0.9155
13665TIP3   OH262485   5.058   4.645  11.350 -0.5770  0.0450 -0.2642
13665TIP3    H162486   5.152   4.647  11.332  0.1457  1.4429  2.9364
13665TIP3    H262487   5.020   4.598  11.276  2.7397 -1.5239 -1.1412
13666TIP3   OH262488   3.651   3.750   6.116  0.2566 -0.0723  0.6779
13666TIP3    H162489   3.592   3.682   6.149  0.1882  1.0653  3.1598
13666TIP3    H262490   3.652   3.817   6.186  2.1843  1.3309 -0.5825
13667TIP3   OH262491   6.446   4.754  12.125  0.1177  0.2211 -0.1819
13667TIP3    H162492   6.375   4.814  12.103 -1.1856 -0.5566  1.6862
13667TIP3    H262493   6.502   4.803  12.186  0.8232  0.5806 -1.0909
13668TIP3   OH262494   4.065   6.664   1.056 -0.3099 -0.4252  0.1664
13668TIP3    H162495   4.067   6.700   1.145 -1.0093  0.0278  0.0091
13668TIP3    H262496   4.088   6.738   1.000  0.3918 -0.7789 -0.0121
13669TIP3   OH262497   4.156   3.694   1.799  0.1438 -0.0867  0.3044
13669TIP3    H162498   4.112   3.774   1.827  2.6002  1.3240  0.3830
13669TIP3    H262499   4.215   3.722   1.729  1.3834 -1.7247  0.6355
13670TIP3   OH262500   3.940   5.251  16.121  0.7086 -0.1727  0.6093
13670TIP3    H162501   3.914   5.168  16.080  0.6150  0.3354 -0.4025
13670TIP3    H262502   3.965   5.307  16.047 -0.9066  1.2799  1.1026
13671TIP3   OH262503   1.363   0.102   1.072 -0.3215 -0.0000 -0.2660
13671TIP3    H162504   1.405   0.173   1.122 -0.1807 -0.1510 -0.1689
13671TIP3    H262505   1.427   0.031   1.074  0.3650  0.5152 -1.9726
13672TIP3   OH262506   6.054   5.405  11.829  0.7009 -0.7474 -0.4082
13672TIP3    H162507   5.972   5.374  11.867 -0.3404  2.7389  0.5860
13672TIP3    H262508   6.028   5.478  11.773  3.0606  0.2357 -0.3338
13673TIP3   OH262509   3.040   6.278   4.384 -0.3832 -0.0252  0.2402
13673TIP3    H162510   3.024   6.245   4.472 -0.5406 -2.1391 -0.5292
13673TIP3    H262511   2.968   6.243   4.332  0.5843 -0.1835 -1.0338
13674TIP3   OH262512   2.608   1.459   3.236  0.2836  0.0704 -0.1376
13674TIP3    H162513   2.651   1.376   3.222 -2.1508 -1.5244  1.0522
13674TIP3    H262514   2.662   1.523   3.190  2.2069 -2.1462 -1.1412
13675TIP3   OH262515   1.744   4.960   0.982 -0.4339 -0.5765  0.4262
13675TIP3    H162516   1.787   4.877   1.002 -0.9423 -0.7003  1.0313
13675TIP3    H262517   1.791   5.025   1.034  0.4644 -0.3462 -0.6323
13676TIP3   OH262518   5.252   1.498   5.081 -0.3834 -0.5323 -0.5406
13676TIP3    H162519   5.279   1.590   5.078 -0.8797 -0.3754 -0.2610
13676TIP3    H262520   5.280   1.467   5.167  0.6546 -0.9249 -0.9996
13677TIP3   OH262521   4.605   5.375   2.257 -0.2690  0.8171  0.6885
13677TIP3    H162522   4.639   5.462   2.277 -0.4337  0.7766  1.1422
13677TIP3    H262523   4.680   5.317   2.267 -0.4729  0.7213  1.7402
13678TIP3   OH262524   0.255   2.642  16.672 -0.3047 -0.8087  0.5888
13678TIP3    H162525   0.206   2.692  16.606  0.3680 -0.5921  0.2418
13678TIP3    H262526   0.346   2.668  16.658  0.1343 -2.4990  0.0558
13679TIP3   OH262527   0.003   5.105   1.919 -0.1862 -0.1111 -0.2365
13679TIP3    H162528   0.090   5.096   1.958 -0.2766  1.2028  0.3283
13679TIP3    H262529   0.013   5.076   1.829  1.5217  2.5207 -0.9923
13680TIP3   OH262530   3.890   1.347  14.739 -0.6234  0.8257 -0.1853
13680TIP3    H162531   3.958   1.300  14.692 -0.9162  0.1428  0.0496
13680TIP3    H262532   3.810   1.297  14.722 -0.4693 -0.5021  2.3989
13681TIP3   OH262533   5.462   6.403   4.954 -0.0229 -0.0077 -0.2577
13681TIP3    H162534   5.428   6.435   4.871  0.7660  1.5805 -0.0107
13681TIP3    H262535   5.499   6.480   4.997  0.0798 -0.8868  1.3363
13682TIP3   OH262536   6.733   6.034  11.681 -0.1229 -0.0070  0.2422
13682TIP3    H162537   6.783   5.952  11.681 -0.8392 -0.4473  1.0078
13682TIP3    H262538   6.691   6.036  11.595  0.3195 -0.1778  0.0189
13683TIP3   OH262539   3.594   3.811  10.717  0.1899 -0.0666  0.1633
13683TIP3    H162540   3.528   3.812  10.647 -0.0646 -0.4750  0.3867
13683TIP3    H262541   3.569   3.735  10.771  1.6673 -1.1064 -0.5442
13684TIP3   OH262542   3.977   3.491  12.501  0.3815 -0.3571  0.7767
13684TIP3    H162543   3.887   3.478  12.531  0.9169  1.4790  3.5806
13684TIP3    H262544   4.024   3.413  12.529 -0.4030 -1.7529 -1.5078
13685TIP3   OH262545   5.303   6.724   1.606 -0.2753 -0.3043 -0.3213
13685TIP3    H162546   5.326   6.663   1.535  0.5308  3.3145 -3.5059
13685TIP3    H262547   5.236   6.781   1.567 -0.9187  0.9657  2.4223
13686TIP3   OH262548   1.388   0.911  12.778 -0.4116  0.2318  0.1236
13686TIP3    H162549   1.348   0.994  12.752 -0.7778 -0.1503 -0.5688
13686TIP3    H262550   1.439   0.932  12.856 -1.7792  0.7961  0.9089
13687TIP3   OH262551   3.836   4.879  13.113 -0.1594  0.5606 -0.1826
13687TIP3    H162552   3.850   4.833  13.030  0.1946  0.0940  0.1328
13687TIP3    H262553   3.754   4.926  13.100 -0.0879  0.5250 -0.8138
13688TIP3   OH262554   4.879   6.282  13.420 -0.5284 -0.0485  0.2047
13688TIP3    H162555   4.940   6.233  13.475 -0.3363 -1.2940 -1.0787
13688TIP3    H262556   4.889   6.373  13.450 -0.4941 -0.6691  2.2584
13689TIP3   OH262557   5.058   2.116   2.939 -0.1045  0.7845 -0.2827
13689TIP3    H162558   5.045   2.205   2.974  1.7108  0.1380  2.3936
13689TIP3    H262559   5.152   2.110   2.923 -0.1847 -0.6557 -0.3531
13690TIP3   OH262560   0.811   1.053   3.124  0.6218 -0.0205 -0.1214
13690TIP3    H162561   0.833   1.136   3.084  0.3982  0.1588  0.1220
13690TIP3    H262562   0.860   1.052   3.207 -0.1812  0.3337  0.3727
13691TIP3   OH262563   3.241   0.753  16.632 -0.1829  0.2528 -0.4208
13691TIP3    H162564   3.169   0.774  16.573 -0.3218  0.7270 -0.0918
13691TIP3    H262565   3.206   0.770  16.720  0.7029  1.6846 -0.3117
13692TIP3   OH262566   5.441   5.393  15.495  0.0834 -0.1448 -0.7135
13692TIP3    H162567   5.392   5.446  15.557 -0.6366 -0.3568 -1.0892
13692TIP3    H262568   5.526   5.378  15.537 -0.6263 -0.8440  0.5011
13693TIP3   OH262569   5.017   1.624  11.892 -0.2616 -0.2286 -0.3523
13693TIP3    H162570   5.087   1.638  11.955  0.1455  1.1536 -1.0731
13693TIP3    H262571   4.957   1.563  11.935  1.4196 -1.5415  0.2387
13694TIP3   OH262572   1.478   2.724   1.034 -0.6537 -0.3243  0.5128
13694TIP3    H162573   1.426   2.725   1.114 -0.8280 -0.4786  0.4030
13694TIP3    H262574   1.456   2.807   0.990 -0.5795 -0.2529  0.6102
13695TIP3   OH262575   6.057   4.808   5.013  0.1377 -0.3090 -0.5840
13695TIP3    H162576   5.989   4.745   4.988 -1.2332  1.1697 -0.6999
13695TIP3    H262577   6.089   4.777   5.098 -0.6813 -1.0140 -0.5254
13696TIP3   OH262578   2.848   5.410   5.282  0.5011 -0.2375  0.3462
13696TIP3    H162579   2.771   5.454   5.245  1.0982 -0.9215 -1.8731
13696TIP3    H262580   2.912   5.409   5.210  2.1964 -0.6430  1.7944
13697TIP3   OH262581   6.787   0.088   2.244  0.0137 -0.7952  0.2326
13697TIP3    H162582   6.811   0.095   2.152  1.9520  0.3496  0.7647
13697TIP3    H262583   6.870   0.071   2.289 -0.7278 -0.3071  1.8562
13698TIP3   OH262584   1.288   2.917   1.720  0.5176 -0.5026  0.2981
13698TIP3    H162585   1.321   2.982   1.782  1.5982 -1.4168  0.7297
13698TIP3    H262586   1.364   2.861   1.703 -0.0187 -0.8209 -1.1390
13699TIP3   OH262587   3.882   3.483  14.363 -0.0011  0.0097 -0.6287
13699TIP3    H162588   3.808   3.483  14.423 -0.3136 -0.4626 -1.0026
13699TIP3    H262589   3.861   3.552  14.299  0.2737  0.4291 -0.2706
13700TIP3   OH262590   2.724   6.076   3.854  0.3983 -0.8019 -0.1695
13700TIP3    H162591   2.660   6.146   3.841  1.0096 -0.2697 -0.3875
13700TIP3    H262592   2.808   6.116   3.830  1.0125 -1.0442  1.4978
13701TIP3   OH262593   5.335   3.118   2.943  0.4359  0.7573 -0.0593
13701TIP3    H162594   5.320   3.189   3.006 -0.5086  0.1659  0.4006
13701TIP3    H262595   5.379   3.050   2.993 -0.6225  0.1486  0.0610
13702TIP3   OH262596   2.973   0.456   0.888 -0.3596  0.3094 -0.4595
13702TIP3    H162597   2.913   0.451   0.814 -1.4517  4.3996 -0.0905
13702TIP3    H262598   2.934   0.521   0.946  2.9590  0.9968  1.2733
13703TIP3   OH262599   3.391   2.753  12.755 -0.2365 -0.0843 -0.3507
13703TIP3    H162600   3.415   2.674  12.707  0.3759 -0.5031  0.6195
13703TIP3    H262601   3.369   2.817  12.687  0.6999 -0.6272 -1.1826
13704TIP3   OH262602   4.777   1.272   4.724 -0.7863  0.2098  0.0864
13704TIP3    H162603   4.808   1.266   4.634 -0.0558  1.4329  0.2308
13704TIP3    H262604   4.700   1.214   4.727 -0.3688 -0.4382 -1.1026
13705TIP3   OH262605   1.284   3.848  15.922 -0.4895 -0.0012 -0.1272
13705TIP3    H162606   1.358   3.819  15.869  0.0149  1.1492 -0.0789
13705TIP3    H262607   1.309   3.825  16.012  0.6100  1.8687  0.1019
13706TIP3   OH262608   2.198   1.048  11.925  0.3692  0.5650 -0.4253
13706TIP3    H162609   2.131   0.981  11.911  1.6013 -0.9663  0.5896
13706TIP3    H262610   2.259   1.036  11.852  0.2603  1.0384 -0.5987
13707TIP3   OH262611   6.436   5.507   6.454  0.3011  0.6258 -0.7821
13707TIP3    H162612   6.376   5.518   6.527 -1.5270 -0.2659 -2.0809
13707TIP3    H262613   6.419   5.582   6.397  0.7954  0.6509 -0.9018
13708TIP3   OH262614   6.162   4.035  16.011 -0.0692 -0.0656 -0.2305
13708TIP3    H162615   6.101   3.962  16.002  0.2878 -0.2246 -1.4323
13708TIP3    H262616   6.106   4.112  16.020 -0.4408 -0.3540 -0.0463
13709TIP3   OH262617   3.099   0.081   0.583 -0.6515  0.4658  0.5699
13709TIP3    H162618   3.035   0.108   0.517 -1.1442 -1.4975  0.1576
13709TIP3    H262619   3.048   0.031   0.647  0.4365 -1.4017  0.0845
13710TIP3   OH262620   6.601   6.501  14.545 -0.1680 -0.0777 -0.7319
13710TIP3    H162621   6.672   6.514  14.482  0.7498  2.5300  0.6672
13710TIP3    H262622   6.537   6.569  14.524 -0.5227 -0.0897  0.2551
13711TIP3   OH262623   3.598   6.199  15.109 -0.3070  0.2609 -0.4696
13711TIP3    H162624   3.671   6.246  15.149  0.7996  0.4233 -2.5622
13711TIP3    H262625   3.615   6.107  15.127 -0.0428  0.3569 -0.2301
13712TIP3   OH262626   3.137   2.528   6.016  0.1248 -0.1082  0.0347
13712TIP3    H162627   3.122   2.598   6.080  1.4959  0.6014 -0.3679
13712TIP3    H262628   3.067   2.539   5.952 -0.8949 -0.4356  1.0477
13713TIP3   OH262629   3.842   3.741   3.107 -0.1259 -0.0328 -0.4704
13713TIP3    H162630   3.860   3.670   3.044  1.2366  0.0891 -0.2431
13713TIP3    H262631   3.778   3.797   3.062 -0.1083 -0.6110 -1.2443
13714TIP3   OH262632   0.977   3.423   6.578  0.1575  0.0869 -0.0417
13714TIP3    H162633   1.018   3.340   6.602  1.2401  0.6354  0.0772
13714TIP3    H262634   0.913   3.400   6.512 -0.0339 -0.9306  0.4842
13715TIP3   OH262635   6.570   6.004   5.513  0.3078 -0.0694  0.0270
13715TIP3    H162636   6.616   5.942   5.570 -1.1327  0.3354  1.7694
13715TIP3    H262637   6.609   6.089   5.533  0.7435 -0.1038 -0.6576
13716TIP3   OH262638   5.416   0.984  10.792  0.0641 -0.5033  0.5720
13716TIP3    H162639   5.369   0.990  10.709 -0.3753  3.0438  0.9322
13716TIP3    H262640   5.397   0.896  10.824 -1.1814 -1.3759 -2.2119
13717TIP3   OH262641   5.861   3.712   1.242 -0.1567 -0.7602 -0.8584
13717TIP3    H162642   5.900   3.786   1.195  0.3777 -0.3337  0.1981
13717TIP3    H262643   5.778   3.745   1.276 -0.1417 -0.7921 -0.7894
13718TIP3   OH262644   1.220   3.624  16.766  0.4101 -0.3739 -0.2939
13718TIP3    H162645   1.264   3.632  16.682  1.0412 -0.7583 -0.0120
13718TIP3    H262646   1.289   3.641  16.831 -0.0444 -0.1684  0.1450
13719TIP3   OH262647   6.737   1.413  13.134 -0.0643 -0.3593 -0.0692
13719TIP3    H162648   6.833   1.413  13.132 -0.0487  0.5688  0.5928
13719TIP3    H262649   6.713   1.330  13.092  0.9919 -0.0189 -1.4393
13720TIP3   OH262650   2.788   1.955  14.886 -0.2368 -0.0515  0.3170
13720TIP3    H162651   2.698   1.931  14.865  0.4395 -0.2218 -2.7842
13720TIP3    H262652   2.783   2.046  14.914 -1.2820  0.1923 -0.6320
13721TIP3   OH262653   1.105   2.060   1.039  0.1546 -0.2798  1.0096
13721TIP3    H162654   1.048   2.094   0.970 -0.4997  1.4518  2.3125
13721TIP3    H262655   1.193   2.062   1.000 -0.1993  0.6403  0.2144
13722TIP3   OH262656   1.317   6.256   3.719  0.4918  0.1124 -0.4389
13722TIP3    H162657   1.240   6.281   3.667  0.0598  1.4730  0.7637
13722TIP3    H262658   1.333   6.332   3.775  0.8809 -1.2918  1.4652
13723TIP3   OH262659   1.355   0.062   2.861 -0.2972  0.2842 -0.3024
13723TIP3    H162660   1.305  -0.013   2.895  1.3670 -0.9289 -0.3906
13723TIP3    H262661   1.444   0.047   2.893 -0.4027  3.7753  2.1056
13724TIP3   OH262662   1.317   6.694  15.200 -0.4155  0.8235 -0.6212
13724TIP3    H162663   1.398   6.745  15.204 -0.1463  0.7213 -3.2984
13724TIP3    H262664   1.254   6.746  15.252  0.9097  1.7251  0.1471
13725TIP3   OH262665   6.203   2.079  15.659  0.2291 -0.1842 -0.1161
13725TIP3    H162666   6.143   2.080  15.734 -0.0694 -0.3308 -0.3523
13725TIP3    H262667   6.289   2.067  15.698  0.0739 -0.2676  0.2061
13726TIP3   OH262668   4.270   5.693  16.219 -0.4054 -0.0935  0.1944
13726TIP3    H162669   4.250   5.786  16.217  0.0928  0.0087 -1.0664
13726TIP3    H262670   4.233   5.662  16.302 -0.3411  1.2641  0.7531
13727TIP3   OH262671   4.547   1.805  17.220  0.0201 -0.5170 -0.2389
13727TIP3    H162672   4.570   1.730  17.275 -1.7824 -1.7891 -1.1033
13727TIP3    H262673   4.562   1.775  17.131  5.0651  2.2303 -0.7109
13728TIP3   OH262674   4.541   4.150  17.186  0.2537 -0.1758  0.8174
13728TIP3    H162675   4.623   4.112  17.218  1.8016  0.0704 -2.4335
13728TIP3    H262676   4.562   4.181  17.097 -2.6645  2.3678  0.8369
13729TIP3   OH262677   2.488   0.111  16.086 -0.1572 -0.3532 -0.1324
13729TIP3    H162678   2.470   0.023  16.052  0.7742 -0.1109 -1.2935
13729TIP3    H262679   2.426   0.168  16.040  3.5476  0.5904 -4.6586
13730TIP3   OH262680   3.719   1.826   3.910  0.0937  0.0304  0.7669
13730TIP3    H162681   3.783   1.895   3.892 -0.8574  0.8946  0.6217
13730TIP3    H262682   3.635   1.863   3.882 -0.3688 -1.3900  0.1571
13731TIP3   OH262683   4.602   3.515   1.323 -0.6783  0.1231  0.2175
13731TIP3    H162684   4.514   3.491   1.294 -0.8975  0.7767  0.3229
13731TIP3    H262685   4.634   3.438   1.369 -0.9542 -0.3410 -0.3645
13732TIP3   OH262686   0.994   3.012  17.257 -0.4663 -0.0003  0.0330
13732TIP3    H162687   1.080   2.977  17.280 -0.7608 -0.3776  0.5981
13732TIP3    H262688   0.980   2.983  17.167  0.9612  2.0091 -0.8836
13733TIP3   OH262689   1.017   2.575  16.123 -0.1783 -0.0348 -0.0900
13733TIP3    H162690   0.981   2.488  16.107 -1.0837 -0.0482  1.7615
13733TIP3    H262691   0.996   2.625  16.044 -1.3037 -0.9863 -0.4141
13734TIP3   OH262692   1.990   2.531  12.662 -0.2647 -0.2701  0.4707
13734TIP3    H162693   2.037   2.453  12.632 -0.3301  0.4251 -1.5147
13734TIP3    H262694   2.059   2.595  12.680 -0.3101 -0.0973  0.0435
13735TIP3   OH262695   4.736   2.085   1.980 -0.1969 -0.1230  0.4111
13735TIP3    H162696   4.828   2.069   2.001 -0.1138  0.3024  0.3750
13735TIP3    H262697   4.725   2.180   1.989 -0.3513 -0.0249 -0.7064
13736TIP3   OH262698   4.858   5.761  10.845  0.3144  0.2603  0.3932
13736TIP3    H162699   4.787   5.697  10.849 -0.5131  1.0167 -1.1584
13736TIP3    H262700   4.936   5.712  10.872 -0.4349 -1.1776  0.0452
13737TIP3   OH262701   0.608   0.834  11.374 -0.0856 -0.1146  0.4583
13737TIP3    H162702   0.703   0.841  11.365 -0.0170 -2.0332 -0.7494
13737TIP3    H262703   0.595   0.771  11.445 -0.4888  1.0892  1.4777
13738TIP3   OH262704   5.777   6.264  13.012 -0.0554 -0.0279  0.6631
13738TIP3    H162705   5.746   6.341  12.964 -4.5007  0.0132  3.0499
13738TIP3    H262706   5.784   6.195  12.945  0.3472  1.5276 -0.9518
13739TIP3   OH262707   2.523   0.543   4.086 -0.6081 -0.5299 -0.1381
13739TIP3    H162708   2.590   0.537   4.153 -0.1312  1.6059 -0.3309
13739TIP3    H262709   2.440   0.533   4.134 -0.4382  3.3677  1.3814
13740TIP3   OH262710   3.050   5.558  14.834 -0.6839  0.2011 -0.0241
13740TIP3    H162711   3.069   5.468  14.857  1.3375 -0.2973 -3.0528
13740TIP3    H262712   2.956   5.559  14.815 -1.3147 -0.5111  2.7073
13741TIP3   OH262713   2.363   0.525  17.156 -0.3778 -0.5457 -0.7400
13741TIP3    H162714   2.328   0.611  17.180  1.9632  0.5852 -1.0655
13741TIP3    H262715   2.377   0.480  17.240 -1.3515 -0.5480 -0.5563
13742TIP3   OH262716   3.159   3.544   5.023 -0.0206 -0.1023 -0.0513
13742TIP3    H162717   3.208   3.494   5.088  1.5033 -0.9340 -1.7453
13742TIP3    H262718   3.073   3.502   5.020  0.5827 -1.3865 -0.0433
13743TIP3   OH262719   5.086   4.015  16.309 -0.6745 -0.0238 -0.5923
13743TIP3    H162720   5.095   3.973  16.224  3.2988 -0.5596 -0.0726
13743TIP3    H262721   5.155   4.081  16.312 -0.7512  0.0657  2.1606
13744TIP3   OH262722   4.534   3.419   4.835  0.4493  0.5280  0.3986
13744TIP3    H162723   4.627   3.441   4.822  0.7539  0.1106  1.7068
13744TIP3    H262724   4.491   3.504   4.844  0.8060  0.7097  0.4277
13745TIP3   OH262725   3.190   0.835  14.040 -0.7688  0.1370 -0.1245
13745TIP3    H162726   3.285   0.839  14.051 -0.8176  0.0686  0.3503
13745TIP3    H262727   3.161   0.778  14.111 -1.1546  0.0794 -0.3309
13746TIP3   OH262728   1.584   6.593   4.626  0.1728 -0.3792  0.8888
13746TIP3    H162729   1.592   6.659   4.695  1.3570 -1.5886  1.9683
13746TIP3    H262730   1.663   6.605   4.572 -0.9146  0.7900 -0.5210
13747TIP3   OH262731   4.793   6.562  15.069  0.1444 -0.0185  0.2000
13747TIP3    H162732   4.758   6.568  14.980 -1.0357  0.9958  0.6856
13747TIP3    H262733   4.885   6.587  15.061 -0.2780  1.4293 -0.5664
13748TIP3   OH262734   2.315   3.651  12.237 -0.0507  0.2112  0.1224
13748TIP3    H162735   2.379   3.588  12.269 -0.8218  0.1606  1.6784
13748TIP3    H262736   2.347   3.677  12.151  1.4294 -0.6655  0.3777
13749TIP3   OH262737   4.169   0.083  16.974 -0.2147  0.0309  0.0026
13749TIP3    H162738   4.140   0.038  16.895  1.4276 -0.1459 -0.5264
13749TIP3    H262739   4.252   0.042  16.997  0.6661  1.8568  0.2718
13750TIP3   OH262740   2.728   4.301  11.669 -0.7044 -0.3420 -0.0732
13750TIP3    H162741   2.702   4.389  11.697  1.1055 -0.2953  1.6707
13750TIP3    H262742   2.788   4.316  11.596  0.1097 -0.0601  0.6355
13751TIP3   OH262743   5.771   3.133  14.277 -0.4300  0.1166 -0.3398
13751TIP3    H162744   5.721   3.076  14.336 -0.0464  0.8552  0.7262
13751TIP3    H262745   5.708   3.159  14.210 -1.5898  1.2166  1.1045
13752TIP3   OH262746   1.859   6.639  16.554 -0.1076 -0.1997 -0.0071
13752TIP3    H162747   1.878   6.733  16.545  2.1798 -0.4908  1.2196
13752TIP3    H262748   1.904   6.613  16.634  0.2808 -2.6104 -0.9420
13753TIP3   OH262749   4.428   1.238  13.564 -0.3014  0.8023  0.1045
13753TIP3    H162750   4.506   1.254  13.509  0.0493 -0.9320  0.0497
13753TIP3    H262751   4.359   1.216  13.501 -0.1098 -0.3763  0.2874
13754TIP3   OH262752   2.100   2.763   5.597  0.6798 -0.5061  0.1638
13754TIP3    H162753   2.049   2.792   5.673  0.3027 -2.6155  0.7807
13754TIP3    H262754   2.191   2.766   5.627  0.5202 -1.5103  0.8136
13755TIP3   OH262755   2.743   2.820  11.317 -0.0597  0.2321  0.4330
13755TIP3    H162756   2.739   2.915  11.329 -1.6255  0.0160  2.2383
13755TIP3    H262757   2.756   2.786  11.406 -0.7048 -1.2566 -0.0232
13756TIP3   OH262758   1.969   4.289   2.701  0.4521  0.5037  0.4994
13756TIP3    H162759   2.031   4.340   2.753  0.8812  0.8707 -0.3531
13756TIP3    H262760   1.935   4.352   2.636 -3.3381  1.3090  2.9346
13757TIP3   OH262761   2.778   5.917  15.847 -0.0625  0.5419 -0.3450
13757TIP3    H162762   2.773   5.830  15.886 -1.0177  0.1347 -1.3415
13757TIP3    H262763   2.866   5.949  15.870 -0.6489  0.4430  2.3265
13758TIP3   OH262764   6.796   0.750   3.174  0.1027 -0.3525  0.5407
13758TIP3    H162765   6.890   0.745   3.156  0.1525 -1.7498  1.0252
13758TIP3    H262766   6.765   0.824   3.121  1.6545  0.8786  1.2788
13759TIP3   OH262767   3.681   1.425  15.084  0.9315 -0.2409  0.6928
13759TIP3    H162768   3.744   1.489  15.118 -0.6321  1.6300  0.2337
13759TIP3    H262769   3.655   1.459  14.998 -0.5883 -1.0152  0.8036
13760TIP3   OH262770   0.773   2.467   2.174 -0.1185  0.5283 -0.0779
13760TIP3    H162771   0.869   2.474   2.170 -0.1860  1.4525 -0.4358
13760TIP3    H262772   0.742   2.546   2.129 -1.0720 -1.0506 -2.4138
13761TIP3   OH262773   5.509   1.247  15.339 -0.2683 -0.4505 -0.2145
13761TIP3    H162774   5.493   1.167  15.390 -1.4200 -1.3456 -1.8804
13761TIP3    H262775   5.422   1.284  15.325  0.0531 -0.0530 -1.2365
13762TIP3   OH262776   4.494   2.646   5.780  0.0199 -0.3145 -0.0416
13762TIP3    H162777   4.408   2.640   5.823  0.1759 -2.8577  0.0366
13762TIP3    H262778   4.474   2.640   5.686 -0.0126  1.2724 -0.1611
13763TIP3   OH262779   6.208   3.397  13.375 -0.3341 -0.1533 -0.0574
13763TIP3    H162780   6.139   3.353  13.326 -0.8403  0.0334  0.4672
13763TIP3    H262781   6.184   3.490  13.372 -0.5458 -0.1711  0.7847
13764TIP3   OH262782   4.350   4.686  13.260  0.2277 -0.2371  0.7802
13764TIP3    H162783   4.341   4.772  13.217  3.5889  0.1570  0.6143
13764TIP3    H262784   4.325   4.623  13.192  0.5923  0.5581 -0.1253
13765TIP3   OH262785   1.905   5.646   0.135  0.1208  0.3491  0.0764
13765TIP3    H162786   1.852   5.567   0.120 -0.7345  1.2399 -1.8927
13765TIP3    H262787   1.886   5.670   0.226 -0.0153 -1.3869  0.5569
13766TIP3   OH262788   4.341   4.681  11.195 -0.4622 -0.0074 -0.2083
13766TIP3    H162789   4.421   4.716  11.155 -0.1316  0.4005  0.7749
13766TIP3    H262790   4.366   4.595  11.227 -0.0489  0.6023  1.1789
13767TIP3   OH262791   5.751   5.625   2.717  0.0600  0.5087  0.0706
13767TIP3    H162792   5.818   5.692   2.707 -1.4465  2.0012 -0.4696
13767TIP3    H262793   5.725   5.604   2.627 -0.6795  0.4527  0.2941
13768TIP3   OH262794   4.462   5.285   0.958  0.0011 -0.6585  0.2393
13768TIP3    H162795   4.519   5.362   0.952 -1.0599  0.0557 -1.5381
13768TIP3    H262796   4.401   5.307   1.029  0.2063 -0.1986  0.2780
13769TIP3   OH262797   4.915   2.879  11.799 -0.0161 -0.1052 -0.4768
13769TIP3    H162798   4.936   2.844  11.885 -0.9396 -0.1475 -0.2495
13769TIP3    H262799   4.841   2.826  11.769  0.5495 -0.3605 -1.4797
13770TIP3   OH262800   1.133   3.259  16.243  0.2354 -0.3463  0.0685
13770TIP3    H162801   1.053   3.287  16.287 -0.0913  1.2866 -1.4473
13770TIP3    H262802   1.189   3.227  16.314 -1.8387 -1.8598  1.1229
13771TIP3   OH262803   6.193   2.895   4.030 -0.9682 -0.2426 -0.3404
13771TIP3    H162804   6.173   2.805   4.055  1.9652 -0.9613 -0.2370
13771TIP3    H262805   6.197   2.943   4.114  1.0160 -0.8858 -0.0141
13772TIP3   OH262806   3.491   1.942  15.533  0.2469  0.0435 -0.5391
13772TIP3    H162807   3.422   1.937  15.599  0.6334 -2.1437 -0.2130
13772TIP3    H262808   3.568   1.973  15.580 -0.0988  0.9176 -0.5393
13773TIP3   OH262809   4.872   4.164  16.499  0.5339 -0.4137 -0.1474
13773TIP3    H162810   4.900   4.183  16.410  0.0776  0.9455 -0.0200
13773TIP3    H262811   4.884   4.069  16.508 -1.0631 -0.8993 -2.2325
13774TIP3   OH262812   1.437   3.976   1.574  0.0981 -0.5097 -0.4259
13774TIP3    H162813   1.521   3.942   1.543  0.5438 -0.6212  0.8527
13774TIP3    H262814   1.455   4.009   1.662 -0.6737  1.6239 -0.9985
13775TIP3   OH262815   1.967   4.708  14.554 -0.6128 -0.1911  0.0780
13775TIP3    H162816   2.060   4.703  14.578 -0.8391  1.0502  1.3446
13775TIP3    H262817   1.939   4.617  14.549  0.3806 -0.5587  0.9147
13776TIP3   OH262818   5.459   5.235  13.582 -0.1771 -0.6313 -0.7277
13776TIP3    H162819   5.457   5.296  13.656 -1.6738 -0.4273 -0.9016
13776TIP3    H262820   5.546   5.196  13.586 -0.3327 -0.8843  1.3460
13777TIP3   OH262821   4.461   3.659   4.964  0.3214 -0.2312 -0.0551
13777TIP3    H162822   4.424   3.721   5.027  1.3026  0.4451 -0.1214
13777TIP3    H262823   4.385   3.619   4.922 -0.3430 -0.2697  1.1375
13778TIP3   OH262824   5.446   5.534   1.324 -0.0272 -0.4340  0.3709
13778TIP3    H162825   5.423   5.510   1.413  0.6007 -2.7090 -0.0076
13778TIP3    H262826   5.446   5.630   1.324 -1.0434 -0.3767  2.5149
13779TIP3   OH262827   4.930   5.879   0.814 -0.3931  0.5537  0.5746
13779TIP3    H162828   4.948   5.970   0.789 -0.2869  0.3419 -0.1674
13779TIP3    H262829   5.016   5.837   0.814 -0.6723 -0.1877 -1.8355
13780TIP3   OH262830   6.285   1.482   0.552  0.0954  0.0138 -0.7304
13780TIP3    H162831   6.240   1.533   0.484  0.6870 -0.4673 -1.5055
13780TIP3    H262832   6.370   1.525   0.562 -0.2610  0.5276  0.2610
13781TIP3   OH262833   5.406   4.201  12.346 -0.1242  0.1176  0.2160
13781TIP3    H162834   5.392   4.119  12.393  0.2892 -0.0089  0.1166
13781TIP3    H262835   5.366   4.267  12.403 -0.4750 -0.1500  0.2890
13782TIP3   OH262836   0.068   4.499  17.199  0.2304 -0.1837 -0.2785
13782TIP3    H162837   0.003   4.497  17.129 -0.2953  0.3255  0.1860
13782TIP3    H262838   0.124   4.423  17.182  1.0615  0.7819 -2.1259
13783TIP3   OH262839   0.207   6.630   4.563 -0.4769 -0.4729  0.2998
13783TIP3    H162840   0.198   6.632   4.659 -1.6490 -0.0451  0.1992
13783TIP3    H262841   0.178   6.717   4.535 -0.5556 -0.7486 -0.4727
13784TIP3   OH262842   2.354   3.106   4.359  0.5315  0.5167  0.2352
13784TIP3    H162843   2.292   3.033   4.354 -0.0388  1.0678 -0.9967
13784TIP3    H262844   2.377   3.125   4.268 -0.9841  3.2532  0.3221
13785TIP3   OH262845   3.785   6.129  15.441  0.7729  0.0221 -0.2438
13785TIP3    H162846   3.778   6.069  15.515 -0.2870  0.1532 -0.2213
13785TIP3    H262847   3.778   6.073  15.363 -3.1402  0.2506 -0.2841
13786TIP3   OH262848   3.684   2.484  12.892 -0.1728 -0.1501  0.1735
13786TIP3    H162849   3.646   2.546  12.953  1.5468  1.3731 -0.1988
13786TIP3    H262850   3.709   2.409  12.946 -2.2137 -0.5411  0.6442
13787TIP3   OH262851   6.791   4.173   4.485 -0.7664  0.3179  0.6202
13787TIP3    H162852   6.845   4.115   4.432 -0.8898  2.0230 -1.5172
13787TIP3    H262853   6.854   4.223   4.537 -0.1939  2.0123 -1.5593
13788TIP3   OH262854   1.411   6.481  13.203 -0.2960 -0.1200 -0.5942
13788TIP3    H162855   1.451   6.428  13.135 -1.2255  1.8401 -2.8119
13788TIP3    H262856   1.482   6.502  13.264  1.0251 -0.3039 -2.0418
13789TIP3   OH262857   4.424   1.549  16.057  0.4911 -0.2589  0.0684
13789TIP3    H162858   4.432   1.502  16.139  1.1213 -0.2262  0.0263
13789TIP3    H262859   4.347   1.605  16.070  0.6133 -0.2172  0.6518
13790TIP3   OH262860   0.464   6.663  13.163  0.1652  0.6592 -0.1979
13790TIP3    H162861   0.477   6.713  13.243  0.5318  0.3526 -0.0590
13790TIP3    H262862   0.375   6.628  13.170 -0.1432  1.4067 -0.3674
13791TIP3   OH262863   0.085   2.050  15.056  0.8677  0.0735  0.2895
13791TIP3    H162864   0.086   2.145  15.043  3.5600  0.0998  0.0324
13791TIP3    H262865   0.163   2.032  15.109  0.9096 -2.0754 -0.3893
13792TIP3   OH262866   1.949   6.207   3.957  0.0383 -0.3504 -0.2283
13792TIP3    H162867   1.918   6.296   3.973  0.6384 -0.3218  0.9062
13792TIP3    H262868   1.995   6.183   4.038  0.9974 -1.2105 -0.9968
13793TIP3   OH262869   4.541   0.183  12.241 -0.0578  0.1161 -0.1260
13793TIP3    H162870   4.619   0.222  12.281 -0.2655 -0.1528  0.5573
13793TIP3    H262871   4.568   0.092  12.222 -0.2641 -0.0281  0.2763
13794TIP3   OH262872   0.437   3.416  15.964  0.0666 -0.6378 -0.0298
13794TIP3    H162873   0.523   3.449  15.938 -0.0525  1.6855  2.1268
13794TIP3    H262874   0.406   3.368  15.887  2.3364  0.3336 -1.6856
13795TIP3   OH262875   5.259   4.116  14.551 -0.5246  0.2746 -0.1457
13795TIP3    H162876   5.267   4.132  14.645 -2.2973  2.5887 -0.2938
13795TIP3    H262877   5.188   4.053  14.542  0.4283 -0.8660  0.0680
13796TIP3   OH262878   3.578   4.221   3.571 -0.7643  0.4805  0.3048
13796TIP3    H162879   3.571   4.131   3.603  0.3460  0.6094  0.9541
13796TIP3    H262880   3.585   4.211   3.476 -0.3492 -0.1460  0.3948
13797TIP3   OH262881   1.647   0.278   2.417 -0.4621 -0.2544  0.0584
13797TIP3    H162882   1.587   0.204   2.420 -1.2706  0.3409 -0.9931
13797TIP3    H262883   1.734   0.239   2.429 -0.9276 -1.3031  0.0663
13798TIP3   OH262884   1.308   4.049  12.501  0.2494 -0.6664  0.0442
13798TIP3    H162885   1.290   3.999  12.421  0.1052  1.5516 -1.4186
13798TIP3    H262886   1.223   4.058  12.544 -0.1098  0.0327 -0.7800
13799TIP3   OH262887   3.104   1.756  15.811 -0.8104  0.2782  0.1997
13799TIP3    H162888   3.017   1.742  15.847 -0.6945  1.2360  0.8847
13799TIP3    H262889   3.152   1.675  15.829 -1.1091  0.3083  1.1670
13800TIP3   OH262890   1.553   0.089  11.919 -0.2912 -0.0377  0.7172
13800TIP3    H162891   1.493   0.120  11.852 -1.6491 -0.2944  1.7571
13800TIP3    H262892   1.640   0.118  11.890 -0.3617 -2.5555 -2.6028
13801TIP3   OH262893   5.298   0.731   0.063  0.5717  0.6668  0.1955
13801TIP3    H162894   5.321   0.798   0.127  2.5889 -0.3878  0.6455
13801TIP3    H262895   5.376   0.677   0.055 -0.6870 -1.1165 -0.8236
13802TIP3   OH262896   5.876   6.143   0.493 -0.3865 -0.3432  0.1925
13802TIP3    H162897   5.862   6.053   0.523 -1.8322 -0.0764  0.3841
13802TIP3    H262898   5.834   6.198   0.560 -0.4576  0.4189 -0.4570
13803TIP3   OH262899   3.351   2.699   5.532  0.6198  0.4346 -0.3055
13803TIP3    H162900   3.422   2.638   5.514  0.8491 -0.1528  2.1441
13803TIP3    H262901   3.394   2.774   5.573 -0.0499  0.5430  0.2236
13804TIP3   OH262902   5.370   5.035  10.887  0.4540  0.5107  0.4618
13804TIP3    H162903   5.459   5.002  10.875 -0.1862 -1.2232  0.2105
13804TIP3    H262904   5.335   5.043  10.799  0.4409  1.4860  0.5440
13805TIP3   OH262905   6.219   2.800  11.793  0.2151 -0.1449 -0.3048
13805TIP3    H162906   6.285   2.835  11.732  0.0220 -2.0310 -1.6899
13805TIP3    H262907   6.168   2.876  11.818  1.7467  1.0675 -0.6876
13806TIP3   OH262908   5.889   3.564   1.713 -0.0325  0.2113  0.6991
13806TIP3    H162909   5.861   3.577   1.803  0.5084  0.3721  0.8498
13806TIP3    H262910   5.946   3.639   1.695 -0.7224  0.5777 -0.0232
13807TIP3   OH262911   6.178   3.859  13.607 -0.1024 -0.5919 -0.2827
13807TIP3    H162912   6.198   3.887  13.696  2.0558  2.0173 -1.4565
13807TIP3    H262913   6.088   3.889  13.592  0.4818  1.5143  0.1367
13808TIP3   OH262914   6.258   6.007   3.686  0.4088  0.5822  0.4945
13808TIP3    H162915   6.208   5.937   3.728 -0.4012  1.0212  0.2808
13808TIP3    H262916   6.214   6.087   3.713 -0.5055  0.8586 -1.6106
13809TIP3   OH262917   4.964   2.713  13.885  0.9290  0.1088  0.0229
13809TIP3    H162918   5.049   2.717  13.928  0.6014  1.3915  0.5984
13809TIP3    H262919   4.900   2.716  13.956  0.3922  0.6848 -0.4702
13810TIP3   OH262920   5.379   0.857   4.891 -0.0674  0.4963 -0.1978
13810TIP3    H162921   5.448   0.921   4.874  0.1576  0.7838  1.5788
13810TIP3    H262922   5.374   0.853   4.987 -4.1615  2.2871 -0.1492
13811TIP3   OH262923   2.082   6.487   5.716 -0.2550  0.2585 -0.0753
13811TIP3    H162924   2.110   6.411   5.766  2.7220  1.2087 -0.0818
13811TIP3    H262925   1.987   6.479   5.710 -0.2983 -2.0111  2.1858
13812TIP3   OH262926   1.928   1.769  12.790  0.4213  0.0121 -0.8508
13812TIP3    H162927   1.949   1.856  12.758  0.2913 -0.1348 -1.3469
13812TIP3    H262928   2.004   1.743  12.842  1.3398 -0.3754 -2.3184
13813TIP3   OH262929   5.674   5.282   6.498 -0.2581  0.2600 -0.3772
13813TIP3    H162930   5.768   5.295   6.485 -0.1949  2.0173  1.3838
13813TIP3    H262931   5.639   5.370   6.515 -1.7537 -0.6292  1.6159
13814TIP3   OH262932   1.194   1.748  17.228  0.2134 -0.1525  0.1097
13814TIP3    H162933   1.194   1.767  17.134  1.3621  1.1532  0.3503
13814TIP3    H262934   1.128   1.806  17.265  0.9430  0.5563  0.3207
13815TIP3   OH262935   3.471   1.978   4.125  0.6466 -0.1484 -0.5230
13815TIP3    H162936   3.475   1.985   4.030  0.9709  1.4678 -0.4037
13815TIP3    H262937   3.387   2.019   4.149  0.5608 -0.5542 -0.1025
13816TIP3   OH262938   1.968   4.635   4.883 -0.2269 -0.5106 -0.0662
13816TIP3    H162939   2.025   4.671   4.951  0.4046  0.5611 -1.1175
13816TIP3    H262940   1.956   4.543   4.907  0.2251 -0.2304  1.3084
13817TIP3   OH262941   1.709   1.684   6.268 -0.1233  0.1247 -0.2187
13817TIP3    H162942   1.766   1.639   6.331  0.8985  1.5615 -0.0697
13817TIP3    H262943   1.621   1.677   6.306  0.5973  1.8513  1.9558
13818TIP3   OH262944   3.657   4.175  16.210 -0.5696  0.0677 -0.4873
13818TIP3    H162945   3.585   4.211  16.261 -0.7088  0.0209 -0.6510
13818TIP3    H262946   3.704   4.118  16.271 -0.0642  0.9012 -0.0859
13819TIP3   OH262947   5.740   3.240  16.090  0.2973  0.1974 -0.3163
13819TIP3    H162948   5.798   3.194  16.151  0.9667 -0.5742 -1.4868
13819TIP3    H262949   5.773   3.216  16.004 -1.2705  0.4231 -1.0033
13820TIP3   OH262950   3.891   3.896  13.943  0.2305 -0.0562  0.3175
13820TIP3    H162951   3.842   3.814  13.955  1.2081 -0.6110  0.6718
13820TIP3    H262952   3.846   3.941  13.871 -0.5300 -0.7487  0.3483
13821TIP3   OH262953   6.750   3.539  12.480 -0.0368  0.0282  0.4345
13821TIP3    H162954   6.736   3.516  12.388 -1.6123  1.5417  0.2408
13821TIP3    H262955   6.839   3.512  12.499 -0.2488 -1.8579 -1.0476
13822TIP3   OH262956   1.864   3.158   5.870 -0.2567  0.0439  0.7667
13822TIP3    H162957   1.873   3.064   5.859 -0.5729  0.1021 -0.0218
13822TIP3    H262958   1.909   3.177   5.952  3.0196 -0.3023 -0.7817
13823TIP3   OH262959   0.418   3.607   0.018  0.4090 -0.2707  0.7765
13823TIP3    H162960   0.421   3.531   0.076  1.4218  0.4168  1.6546
13823TIP3    H262961   0.453   3.575  -0.065  1.1964 -0.6762  1.2579
13824TIP3   OH262962   4.473   4.393   3.530  0.0794 -0.4187 -0.5777
13824TIP3    H162963   4.503   4.310   3.494  1.1630 -0.9054  1.2841
13824TIP3    H262964   4.539   4.415   3.596 -1.0019  1.1482  0.0284
13825TIP3   OH262965   3.451   2.276  13.018 -0.3638  0.0266 -0.3333
13825TIP3    H162966   3.512   2.311  13.084 -0.8161 -0.1194  0.1622
13825TIP3    H262967   3.491   2.194  12.989  1.4676  1.5567 -2.5632
13826TIP3   OH262968   5.802   0.470  15.186 -0.1878  0.2141 -0.0486
13826TIP3    H162969   5.816   0.540  15.250  1.2513 -0.9693  1.0052
13826TIP3    H262970   5.887   0.461  15.142 -0.4481 -0.6770 -0.3861
13827TIP3   OH262971   1.761   3.422   5.790  0.0539 -0.4463 -0.0331
13827TIP3    H162972   1.776   3.327   5.787  1.6217 -0.2619  0.9252
13827TIP3    H262973   1.759   3.448   5.698  1.1776 -1.2032 -0.2997
13828TIP3   OH262974   6.108   3.500  12.578  0.0420 -0.6895 -0.3277
13828TIP3    H162975   6.055   3.549  12.641 -0.3376 -0.7431 -0.5997
13828TIP3    H262976   6.176   3.458  12.631  0.1153 -0.2156 -0.0397
13829TIP3   OH262977   1.042   3.335   0.887  0.4997 -0.2528 -0.2255
13829TIP3    H162978   1.096   3.343   0.966  0.7681  1.4791 -0.5363
13829TIP3    H262979   0.958   3.300   0.919  1.0151 -0.7531  0.6219
13830TIP3   OH262980   2.062   6.396   2.964  0.3989  0.5772 -0.4890
13830TIP3    H162981   2.133   6.337   2.990 -0.2362  0.0122 -0.0014
13830TIP3    H262982   2.047   6.451   3.040 -0.1611  0.2150 -0.3307
13831TIP3   OH262983   4.997   6.429   1.843  0.4820 -0.7280  0.2821
13831TIP3    H162984   5.054   6.414   1.767 -0.4509  0.1455 -0.6374
13831TIP3    H262985   4.960   6.517   1.828  0.8227 -0.2221  2.1204
13832TIP3   OH262986   5.252   2.368   1.830 -0.0052 -0.6512  0.4232
13832TIP3    H162987   5.179   2.368   1.893  3.0863  2.8529  4.6537
13832TIP3    H262988   5.318   2.312   1.870  1.0046 -0.8057 -1.3799
13833TIP3   OH262989   0.801   2.066   3.897  0.0736 -0.0532  0.1331
13833TIP3    H162990   0.888   2.084   3.932 -0.1299 -0.2126  0.7276
13833TIP3    H262991   0.746   2.051   3.974 -0.3669 -0.4677 -0.2533
13834TIP3   OH262992   0.578   3.710   6.171  0.6387  0.6490 -0.6897
13834TIP3    H162993   0.633   3.755   6.234  0.9135 -0.3327 -0.2050
13834TIP3    H262994   0.562   3.624   6.210 -1.1162  0.8462 -0.8934
13835TIP3   OH262995   4.311   5.558   4.869 -0.0937 -0.4649 -0.5629
13835TIP3    H162996   4.231   5.579   4.821 -0.2361 -0.1447 -0.1853
13835TIP3    H262997   4.281   5.510   4.946 -0.1150  1.5369  0.7168
13836TIP3   OH262998   0.380   3.951   3.989  0.3153  0.0433  0.3788
13836TIP3    H162999   0.327   3.876   3.959 -0.7472 -0.0592  2.3316
13836TIP3    H263000   0.378   4.013   3.916 -2.3270 -0.0804  0.2594
13837TIP3   OH263001   1.207   0.713  11.476 -0.2720 -0.0912 -0.2821
13837TIP3    H163002   1.293   0.678  11.453 -0.5087 -0.2845 -0.8851
13837TIP3    H263003   1.184   0.771  11.403  0.4493  1.9542  1.0296
13838TIP3   OH263004   1.201   4.645   5.524  0.1952  0.2589  0.0690
13838TIP3    H163005   1.257   4.688   5.589  1.7143 -1.3046 -0.1090
13838TIP3    H263006   1.120   4.624   5.571  0.0268  1.9121  0.5558
13839TIP3   OH263007   4.936   1.960  15.163 -0.0355  0.3926  0.4370
13839TIP3    H163008   4.860   2.017  15.161  0.8785  1.6628  0.5116
13839TIP3    H263009   4.917   1.896  15.231 -1.6414 -0.2139 -0.5466
13840TIP3   OH263010   6.593   2.564   5.827  0.7386 -0.0644 -0.5650
13840TIP3    H163011   6.678   2.608   5.830  1.0324 -0.6436 -0.3064
13840TIP3    H263012   6.596   2.500   5.898 -1.0399  1.9358  1.4697
13841TIP3   OH263013   4.722   4.535  12.516  0.8151  0.1005  0.5970
13841TIP3    H163014   4.754   4.472  12.451 -1.3729 -0.6356  0.1568
13841TIP3    H263015   4.636   4.561  12.484  0.0575  0.4195  2.7154
13842TIP3   OH263016   5.075   5.238   3.341  0.5519  0.4108 -0.0996
13842TIP3    H163017   4.988   5.253   3.377  1.2446  0.7546  1.5280
13842TIP3    H263018   5.094   5.146   3.360  0.3142  0.1532 -1.0325
13843TIP3   OH263019   3.536   0.628  15.504  0.5584  0.3363  0.3414
13843TIP3    H163020   3.444   0.654  15.517  1.1547  1.7527  2.3430
13843TIP3    H263021   3.585   0.685  15.564  2.3810 -2.9464  2.2793
13844TIP3   OH263022   2.206   4.840   4.448  0.3283 -0.0407  0.0249
13844TIP3    H163023   2.174   4.763   4.401  1.1354 -0.5729  0.3168
13844TIP3    H263024   2.162   4.837   4.533  0.4355 -0.2481  0.0744
13845TIP3   OH263025   2.076   5.596  13.327  0.5091  0.1710 -0.1136
13845TIP3    H163026   2.148   5.537  13.350 -1.9287 -2.8548  0.3753
13845TIP3    H263027   2.029   5.610  13.409 -2.0947 -1.8655 -1.1156
13846TIP3   OH263028   0.123   5.496  16.453  1.4182  0.5877 -0.1806
13846TIP3    H163029   0.066   5.572  16.470  0.9911  0.4418 -0.9315
13846TIP3    H263030   0.169   5.482  16.536 -0.0732  0.3454  0.6462
13847TIP3   OH263031   6.280   5.494  11.014  0.1532 -0.0792  0.4077
13847TIP3    H163032   6.248   5.523  10.928  0.5245 -0.3083  0.1867
13847TIP3    H263033   6.305   5.402  11.000  0.2990 -0.0901  0.7360
13848TIP3   OH263034   1.137   4.133   4.789  0.3866 -0.2698 -0.1281
13848TIP3    H163035   1.088   4.056   4.817 -0.2615  0.7239  1.5726
13848TIP3    H263036   1.229   4.107   4.798  0.1749 -0.8032  0.5352
13849TIP3   OH263037   1.860   6.622  14.510  0.1030  0.0712  0.2623
13849TIP3    H163038   1.880   6.595  14.600 -0.7035  1.9842  1.0682
13849TIP3    H263039   1.770   6.655  14.514  0.2580  0.7331 -1.1157
13850TIP3   OH263040   0.040   6.363  13.831  0.2588 -0.0987 -0.1259
13850TIP3    H163041   0.025   6.275  13.866  1.6639 -0.4842 -0.4126
13850TIP3    H263042   0.100   6.403  13.894  0.0625  0.4618 -0.2916
13851TIP3   OH263043   6.138   2.132   3.292 -0.2714  0.0456  0.4351
13851TIP3    H163044   6.108   2.041   3.283  0.5811 -0.1921 -0.0592
13851TIP3    H263045   6.233   2.126   3.298 -0.1666  0.9465 -0.1109
13852TIP3   OH263046   3.219   0.070   0.106 -0.2508 -0.2872  0.2501
13852TIP3    H163047   3.135   0.043   0.145  0.5010 -3.2829  0.0677
13852TIP3    H263048   3.247  -0.006   0.055  1.9776  1.1156 -0.7702
13853TIP3   OH263049   2.405   2.531  10.529 -0.2562  0.0035 -0.3564
13853TIP3    H163050   2.372   2.580  10.454  0.3654  0.7519 -0.1520
13853TIP3    H263051   2.327   2.486  10.563 -0.7113  0.3317 -0.9353
13854TIP3   OH263052   4.205   3.082  16.120 -0.0112 -0.3955  0.0851
13854TIP3    H163053   4.159   3.076  16.036 -0.7014 -0.2189  0.4475
13854TIP3    H263054   4.224   3.175  16.131  0.8346 -0.5204 -0.2733
13855TIP3   OH263055   4.722   1.949   0.746  1.1544 -0.3869 -0.0566
13855TIP3    H163056   4.704   1.886   0.817  0.1439  1.7054  1.6623
13855TIP3    H263057   4.641   1.952   0.696  1.7086 -1.5087 -1.0638
13856TIP3   OH263058   2.289   4.226  14.283  0.1481  0.0492  0.2585
13856TIP3    H163059   2.233   4.149  14.294 -0.2292  0.4575  1.3522
13856TIP3    H263060   2.231   4.293  14.247  0.5015 -0.2034 -0.7944
13857TIP3   OH263061   0.975   3.896  14.679  0.1525 -0.3714 -0.0962
13857TIP3    H163062   0.958   3.811  14.719 -1.7048  0.8777  1.9935
13857TIP3    H263063   0.894   3.917  14.631  0.6339  0.1755 -0.6968
13858TIP3   OH263064   2.994   5.346  11.962  0.1218  0.0288 -0.6373
13858TIP3    H163065   2.921   5.407  11.951  0.3862  0.3932 -0.3572
13858TIP3    H263066   3.071   5.402  11.972  0.2782 -0.3449  0.2532
13859TIP3   OH263067   5.154   3.344  15.426  0.3668 -0.1684  0.1877
13859TIP3    H163068   5.151   3.431  15.465 -1.2482 -0.4451  0.7337
13859TIP3    H263069   5.218   3.296  15.479  0.7772  0.4739  0.2914
13860TIP3   OH263070   6.384   2.050   0.187 -0.0407  0.0530  0.4156
13860TIP3    H163071   6.290   2.058   0.174  0.1097  0.7108 -0.2864
13860TIP3    H263072   6.417   2.139   0.183  0.6753 -0.2142  0.1848
13861TIP3   OH263073   5.176   6.215  15.910 -0.0437 -0.1617 -0.3774
13861TIP3    H163074   5.252   6.200  15.965 -0.8988  0.0209  0.8906
13861TIP3    H263075   5.102   6.182  15.961 -0.8295 -0.3085 -1.5611
13862TIP3   OH263076   3.571   1.335   0.274 -0.2841  0.4887  0.4948
13862TIP3    H163077   3.520   1.388   0.336 -1.4585  0.1745 -0.1621
13862TIP3    H263078   3.515   1.260   0.256  1.2352 -0.8839  1.2137
13863TIP3   OH263079   6.411   1.217  13.870  0.2711  0.0206 -0.2899
13863TIP3    H163080   6.365   1.133  13.878 -0.7102  0.6380  1.0881
13863TIP3    H263081   6.382   1.253  13.787 -2.4806  0.7419  0.8682
13864TIP3   OH263082   1.494   5.103   0.096 -0.8497  0.2159 -0.6436
13864TIP3    H163083   1.552   5.102   0.020 -1.0570  0.0041 -0.8029
13864TIP3    H263084   1.469   5.011   0.108  1.3987 -0.2018  1.4190
13865TIP3   OH263085   2.512   4.896   6.003  0.2343 -0.4193  0.4437
13865TIP3    H163086   2.564   4.961   5.956 -1.0170 -0.0390 -0.4617
13865TIP3    H263087   2.551   4.894   6.091  1.8878 -0.3163 -0.2411
13866TIP3   OH263088   5.124   4.804   0.187 -0.6064 -0.3024  0.1305
13866TIP3    H163089   5.189   4.759   0.241 -1.7779 -2.6449 -0.2911
13866TIP3    H263090   5.175   4.838   0.113  0.4553 -0.2087  0.8803
13867TIP3   OH263091   1.075   0.267  12.068 -0.4163 -0.5210  0.0204
13867TIP3    H163092   1.111   0.222  12.144 -1.3454  0.6473  1.1845
13867TIP3    H263093   0.987   0.294  12.094 -0.1535  1.3592 -0.8625
13868TIP3   OH263094   3.409   1.990   5.759  0.0954  0.0621 -0.1974
13868TIP3    H163095   3.461   1.910   5.774 -1.5032 -0.6171  2.5183
13868TIP3    H263096   3.319   1.959   5.751 -0.5983  1.5706  1.1753
13869TIP3   OH263097   1.834   1.329   1.915 -0.4378  0.2565  0.0792
13869TIP3    H163098   1.821   1.421   1.939  3.5143  0.8423  0.6273
13869TIP3    H263099   1.884   1.332   1.834  1.0566 -1.3100  0.8623
13870TIP3   OH263100   3.238   5.738  12.760  0.0984  0.3561  0.4021
13870TIP3    H163101   3.260   5.831  12.760 -1.9730  0.9263  2.2052
13870TIP3    H263102   3.217   5.718  12.851 -1.2564 -1.4151 -0.2323
13871TIP3   OH263103   5.607   6.203   2.918  0.1219  0.4927  0.2686
13871TIP3    H163104   5.559   6.195   2.836  1.8504 -1.8943 -0.6148
13871TIP3    H263105   5.655   6.286   2.910 -0.6363  0.8634 -0.5939
13872TIP3   OH263106   4.454   6.645  11.220  0.1955 -0.5390  0.0130
13872TIP3    H163107   4.520   6.587  11.257 -0.8773 -2.0247 -0.3366
13872TIP3    H263108   4.376   6.628  11.272 -0.4206 -0.1816 -0.7833
13873TIP3   OH263109   3.225   1.645   5.948  0.7951  0.4100 -0.6157
13873TIP3    H163110   3.271   1.664   5.867 -0.3770  2.1983 -0.9257
13873TIP3    H263111   3.288   1.667   6.017  1.2360  0.4820 -1.0357
13874TIP3   OH263112   0.587   5.904  14.487  0.0532  0.2902  0.1872
13874TIP3    H163113   0.585   5.927  14.394 -1.6726 -1.2105 -0.2069
13874TIP3    H263114   0.590   5.808  14.488 -0.7931  0.2487  1.6643
13875TIP3   OH263115   4.559   5.985  12.553 -0.1008 -0.2223 -0.3787
13875TIP3    H163116   4.501   6.022  12.486 -0.3219 -0.5033 -0.3465
13875TIP3    H263117   4.537   5.891  12.555  2.0657 -0.8639 -2.1321
13876TIP3   OH263118   6.079   4.910  11.299 -0.6172 -0.1504 -0.4876
13876TIP3    H163119   6.092   4.990  11.351 -2.5649  0.0146 -0.1529
13876TIP3    H263120   6.041   4.848  11.361 -1.2063 -0.5777 -1.2555
13877TIP3   OH263121   1.823   0.824   3.310  0.2788 -0.1508  0.4227
13877TIP3    H163122   1.795   0.812   3.219  0.8977 -0.9060  0.3186
13877TIP3    H263123   1.870   0.907   3.310 -1.7461  1.0471  0.5688
13878TIP3   OH263124   2.704   3.976  10.759  0.4348 -0.3429 -0.1262
13878TIP3    H163125   2.783   3.987  10.811  0.0565  0.0303  0.3776
13878TIP3    H263126   2.732   3.989  10.668  1.0289 -0.6569  0.0066
13879TIP3   OH263127   0.416   5.788  16.016 -0.0319  0.4912 -0.7905
13879TIP3    H163128   0.323   5.810  16.015 -0.2417 -0.2712  0.1175
13879TIP3    H263129   0.433   5.763  16.107  0.6592 -1.0014 -1.3030
13880TIP3   OH263130   0.909   4.194  10.553  0.2186  0.3429 -0.3981
13880TIP3    H163131   0.850   4.191  10.628 -0.0280  1.1686 -0.5518
13880TIP3    H263132   0.991   4.228  10.589  1.8486 -3.9201  0.5840
13881TIP3   OH263133   4.412   4.959   2.142 -0.1926  0.3600 -0.4760
13881TIP3    H163134   4.418   4.874   2.185  0.2079  0.2092 -0.8207
13881TIP3    H263135   4.502   4.978   2.115  0.3565  2.2787  2.2510
13882TIP3   OH263136   0.635   2.328  13.628 -0.1683 -0.0607 -0.4368
13882TIP3    H163137   0.560   2.273  13.608  0.1839 -0.6063 -0.2928
13882TIP3    H263138   0.707   2.290  13.576  0.5294 -0.9078  1.0826
13883TIP3   OH263139   6.263   4.913   1.276  0.0971 -0.2150  0.2714
13883TIP3    H163140   6.204   4.954   1.213 -0.5145 -1.0972  0.2607
13883TIP3    H263141   6.251   4.964   1.356  0.8213  0.8637 -0.2809
13884TIP3   OH263142   3.233   2.625  15.589 -0.0175 -0.5311  0.7228
13884TIP3    H163143   3.276   2.571  15.523 -0.7185  0.3969 -0.5536
13884TIP3    H263144   3.168   2.568  15.629 -0.8017 -0.6699 -0.6554
13885TIP3   OH263145   2.788   5.422   6.648  0.2043 -0.2617 -0.8349
13885TIP3    H163146   2.734   5.348   6.675  0.1486 -0.0635 -0.3946
13885TIP3    H263147   2.864   5.419   6.706  0.0954  0.1592 -0.6679
13886TIP3   OH263148   2.415   3.155   1.749 -0.2237 -0.1107  0.7394
13886TIP3    H163149   2.463   3.227   1.708  0.2079 -0.8510 -0.0876
13886TIP3    H263150   2.391   3.189   1.835 -0.6493  1.2730  0.1139
13887TIP3   OH263151   6.806   3.117  14.646 -0.0984  0.2676 -0.1967
13887TIP3    H163152   6.783   3.198  14.690  2.7783  1.0433  0.0844
13887TIP3    H263153   6.819   3.142  14.554  0.7969  0.1371 -0.1110
13888TIP3   OH263154   2.657   3.140   5.410 -0.6436  0.3372 -0.3466
13888TIP3    H163155   2.675   3.054   5.449  2.2873  1.1325  0.3477
13888TIP3    H263156   2.649   3.122   5.317 -1.5204 -0.8412 -0.0779
13889TIP3   OH263157   1.452   5.543  14.752  0.1414 -0.2862 -0.4802
13889TIP3    H163158   1.430   5.455  14.780  0.7179 -0.3570 -0.2319
13889TIP3    H263159   1.534   5.563  14.797 -0.4944  0.7633  0.2486
13890TIP3   OH263160   5.743   4.224   6.165  0.3447 -0.0454  0.4175
13890TIP3    H163161   5.658   4.261   6.188 -0.3082 -0.5549 -1.0827
13890TIP3    H263162   5.807   4.286   6.201 -0.6259  0.1826  1.8492
13891TIP3   OH263163   5.743   3.574   6.046 -0.0589 -0.0665 -0.0548
13891TIP3    H163164   5.721   3.491   6.005  0.5591 -0.8832  1.2060
13891TIP3    H263165   5.817   3.554   6.104  0.7148  1.5458 -0.4034
13892TIP3   OH263166   4.653   4.324   5.492 -0.0451  0.1509 -0.2358
13892TIP3    H163167   4.737   4.322   5.537 -0.9255  0.7750  1.5037
13892TIP3    H263168   4.676   4.328   5.399  1.8782  2.1695  0.2535
13893TIP3   OH263169   6.658   3.101   2.211 -0.6852  0.4740  0.0641
13893TIP3    H163170   6.612   3.083   2.129  0.1201  0.0110 -0.2978
13893TIP3    H263171   6.729   3.160   2.186  0.3538 -0.7043  0.1930
13894TIP3   OH263172   1.774   6.629   2.952  0.5369 -0.3084 -0.3867
13894TIP3    H163173   1.750   6.582   2.872  0.9993  0.3891 -0.9481
13894TIP3    H263174   1.756   6.567   3.023 -1.4416 -0.3650 -0.8853
13895TIP3   OH263175   1.119   3.552  15.423 -0.1577 -0.5474  0.0819
13895TIP3    H163176   1.180   3.478  15.426  2.0202  0.8334 -3.6428
13895TIP3    H263177   1.060   3.531  15.350 -0.9910  0.3617  0.4737
13896TIP3   OH263178   3.804   2.096   4.468  0.4506 -0.5344 -0.2942
13896TIP3    H163179   3.759   2.029   4.417 -0.1961 -0.9653  0.8343
13896TIP3    H263180   3.735   2.158   4.493  1.2875  1.6980 -2.9636
13897TIP3   OH263181   0.832   1.418   4.290 -0.5872  0.2721 -0.8557
13897TIP3    H163182   0.745   1.456   4.275 -0.0471  1.8695 -0.0994
13897TIP3    H263183   0.857   1.382   4.205 -1.4889  0.8517 -1.3837
13898TIP3   OH263184   3.382   6.159  14.937 -0.0214 -0.2543  0.0505
13898TIP3    H163185   3.318   6.126  15.001  0.8530 -2.7363 -0.2392
13898TIP3    H263186   3.465   6.161  14.986  0.4752 -1.2818 -0.7162
13899TIP3   OH263187   4.521   3.779  14.172  0.1308 -0.5691 -0.0731
13899TIP3    H163188   4.562   3.858  14.208  0.8576 -0.9013 -0.1510
13899TIP3    H263189   4.432   3.780  14.206  0.3777 -0.1262  0.5714
13900TIP3   OH263190   1.907   1.808   2.318 -0.3113 -0.0578 -0.6000
13900TIP3    H163191   1.969   1.789   2.388 -0.7580  0.6015 -0.0173
13900TIP3    H263192   1.955   1.788   2.238  0.0004 -1.4450 -0.1096
13901TIP3   OH263193   3.667   6.494  12.880  0.1806 -0.2104  0.0718
13901TIP3    H163194   3.605   6.431  12.915 -0.3961 -0.7587 -1.8183
13901TIP3    H263195   3.695   6.545  12.956 -1.6586 -0.7305  1.1502
13902TIP3   OH263196   1.692   5.946   2.880  0.4021 -0.3422 -0.0793
13902TIP3    H163197   1.614   5.950   2.935 -0.4876  0.4544 -1.3666
13902TIP3    H263198   1.753   5.891   2.930 -1.1221 -1.3676  0.7276
13903TIP3   OH263199   5.722   4.747   1.052  0.2233  0.2991  0.1049
13903TIP3    H163200   5.761   4.749   1.139 -1.2067 -1.7125  0.8557
13903TIP3    H263201   5.796   4.733   0.992  1.2126  1.6581  0.9547
13904TIP3   OH263202   2.334   5.868   6.073 -0.3743 -0.1813 -0.9028
13904TIP3    H163203   2.351   5.797   6.134  0.2707 -0.2467 -1.1496
13904TIP3    H263204   2.411   5.869   6.016 -0.2880  0.8367 -0.7802
13905TIP3   OH263205   5.803   0.212   3.563  0.3301  0.2866 -0.0826
13905TIP3    H163206   5.814   0.248   3.475  0.3556 -0.6454 -0.4710
13905TIP3    H263207   5.858   0.266   3.619  0.8587  0.4467 -0.7579
13906TIP3   OH263208   5.856   0.381   0.130  0.1172  0.5462  0.4790
13906TIP3    H163209   5.802   0.312   0.169  0.0244  0.7616  0.7302
13906TIP3    H263210   5.868   0.445   0.200 -0.4449  1.1735  0.0146
13907TIP3   OH263211   4.685   3.653  15.935  0.3434  0.5640  0.2001
13907TIP3    H163212   4.685   3.726  15.873  1.8090 -0.5076 -1.1242
13907TIP3    H263213   4.759   3.672  15.993  0.1189  0.6149  0.4724
13908TIP3   OH263214   0.026   3.809  12.474  0.2493 -0.5772  0.1442
13908TIP3    H163215  -0.022   3.728  12.491 -0.8206  0.5031  2.5794
13908TIP3    H263216   0.081   3.821  12.551  1.0692  0.6080 -0.5879
13909TIP3   OH263217   5.927   6.047  17.113 -0.1452 -0.1065 -0.2211
13909TIP3    H163218   5.997   6.024  17.052  0.2918 -0.6455  0.4697
13909TIP3    H263219   5.971   6.061  17.197 -0.9382 -1.4293  0.4661
13910TIP3   OH263220   2.724   0.343  13.056  0.0658  0.0274 -0.6687
13910TIP3    H163221   2.702   0.347  12.963 -0.6221  0.0157 -0.5134
13910TIP3    H263222   2.801   0.398  13.065 -1.4380  2.2836 -0.8067
13911TIP3   OH263223   5.645   5.827   4.491  0.1817 -0.2819  0.4765
13911TIP3    H163224   5.663   5.733   4.491  1.0845 -0.1278  1.2245
13911TIP3    H263225   5.560   5.836   4.449 -0.3464 -1.5214  1.2347
13912TIP3   OH263226   5.190   3.184   1.392 -0.5154 -0.1174 -0.3274
13912TIP3    H163227   5.175   3.096   1.357 -3.0164  1.0852 -2.5977
13912TIP3    H263228   5.268   3.215   1.345  0.1382 -0.9148  0.1922
13913TIP3   OH263229   4.298   2.272  16.470  0.3523 -0.7774 -0.0829
13913TIP3    H163230   4.391   2.260  16.451  0.4962 -1.1082  0.7722
13913TIP3    H263231   4.292   2.363  16.500  0.2971 -0.5784 -0.6813
13914TIP3   OH263232   2.240   5.922  13.383 -0.4716 -0.6268 -0.5291
13914TIP3    H163233   2.232   5.856  13.314  1.6466 -0.7207 -0.7632
13914TIP3    H263234   2.174   5.898  13.448 -2.7814 -0.3138 -2.6345
13915TIP3   OH263235   5.534   6.344   4.160  0.2777 -0.0220 -0.3729
13915TIP3    H163236   5.525   6.269   4.102 -0.1040  0.3063 -0.7467
13915TIP3    H263237   5.618   6.331   4.204  1.1587  0.3508 -1.9051
13916TIP3   OH263238   3.846   5.742  14.585 -0.0401  0.4295  0.0994
13916TIP3    H163239   3.897   5.670  14.623  0.2968  0.7522  0.2683
13916TIP3    H263240   3.775   5.757  14.648 -0.1198  0.2349  0.0566
13917TIP3   OH263241   1.521   4.347  12.885 -0.1540  0.2674  0.5665
13917TIP3    H163242   1.485   4.261  12.867  0.0890  0.4915 -1.1866
13917TIP3    H263243   1.474   4.406  12.826  0.5641  1.1185  0.8154
13918TIP3   OH263244   3.986   3.960  16.009 -0.0186 -0.0051 -0.7320
13918TIP3    H163245   3.999   3.866  15.995 -1.9815 -0.8672  2.3593
13918TIP3    H263246   3.891   3.972  16.001  0.2401  1.8408 -1.5001
13919TIP3   OH263247   3.470   1.034  11.141 -0.0664 -0.3653  0.5516
13919TIP3    H163248   3.385   1.058  11.103  1.0079  0.3213 -1.5151
13919TIP3    H263249   3.519   1.116  11.146  1.4603 -1.1415 -0.8893
13920TIP3   OH263250   3.642   2.809   1.489  0.6033 -0.2757  0.0698
13920TIP3    H163251   3.598   2.824   1.572 -1.2638 -0.8180 -0.7617
13920TIP3    H263252   3.697   2.733   1.504 -0.3956 -0.9229  0.6038
13921TIP3   OH263253   3.328   4.294  17.160  0.0031  0.2233  0.0500
13921TIP3    H163254   3.329   4.384  17.127 -1.5906  0.6827  1.1622
13921TIP3    H263255   3.261   4.294  17.228  1.2979 -1.3406  1.4131
13922TIP3   OH263256   5.261   4.513  12.629  0.3237 -0.0941  0.1442
13922TIP3    H163257   5.218   4.557  12.703 -0.8327 -2.2534  0.8541
13922TIP3    H263258   5.216   4.547  12.552 -0.4876  0.0224  0.6530
13923TIP3   OH263259   2.531   3.615  14.120 -0.0365  0.1367  0.0228
13923TIP3    H163260   2.489   3.644  14.039 -3.8477 -1.8734  1.0247
13923TIP3    H263261   2.532   3.519  14.114  3.2921 -0.0224  0.7946
13924TIP3   OH263262   3.395   2.425   0.877  0.7557  0.0762  0.6957
13924TIP3    H163263   3.354   2.486   0.938 -0.4139 -1.2526  1.3149
13924TIP3    H263264   3.416   2.348   0.930  0.6513 -0.7085 -0.3584
13925TIP3   OH263265   6.133   4.543   0.725 -0.2483  0.3435 -0.3667
13925TIP3    H163266   6.195   4.616   0.725  0.0457  0.0936 -0.1352
13925TIP3    H263267   6.067   4.567   0.790  0.0223  0.2538 -0.0602
13926TIP3   OH263268   1.160   6.204   2.404 -0.5017  0.2354  0.2592
13926TIP3    H163269   1.092   6.137   2.395 -0.7599  0.3911  0.9870
13926TIP3    H263270   1.136   6.252   2.483  0.2654  0.5196  0.3275
13927TIP3   OH263271   5.317   6.772  13.411  0.3798 -0.2289  0.6298
13927TIP3    H163272   5.289   6.709  13.344 -1.2839 -0.9317  1.9122
13927TIP3    H263273   5.286   6.735  13.494  0.5821  1.6110  1.5904
13928TIP3   OH263274   4.986   2.461  13.347 -0.4984 -0.6837 -0.0131
13928TIP3    H163275   4.977   2.555  13.331  1.5466 -0.7202 -1.8585
13928TIP3    H263276   5.052   2.433  13.284  1.2321 -2.7903  2.5409
13929TIP3   OH263277   4.695   0.798  10.602 -0.4025  0.0574 -0.7577
13929TIP3    H163278   4.647   0.733  10.551 -0.4335 -1.5498  1.1877
13929TIP3    H263279   4.630   0.832  10.664  0.2601 -0.0031 -0.0205
13930TIP3   OH263280   0.787   1.852   5.691  0.2231 -0.2369  0.3705
13930TIP3    H163281   0.793   1.877   5.784  1.0533 -1.0242  0.5416
13930TIP3    H263282   0.747   1.928   5.649  2.4257  1.3330  0.9047
13931TIP3   OH263283   3.067   4.217  13.396  0.4427  0.0202 -0.1905
13931TIP3    H163284   3.043   4.307  13.376 -0.1453 -0.3327 -1.1058
13931TIP3    H263285   3.010   4.193  13.469  0.0555  0.1372 -0.4534
13932TIP3   OH263286   1.416   6.609   1.565  0.6401 -0.1881 -0.1368
13932TIP3    H163287   1.348   6.543   1.567 -0.8190  1.2575  0.6332
13932TIP3    H263288   1.488   6.571   1.616  0.3025 -1.6106 -0.6876
13933TIP3   OH263289   4.508   0.618  15.413  0.2646  0.1353  0.0536
13933TIP3    H163290   4.417   0.647  15.414  0.0539 -0.4862 -0.2973
13933TIP3    H263291   4.523   0.585  15.501  0.1822  0.3378  0.1437
13934TIP3   OH263292   0.835   6.614   1.675  0.0732  0.2734 -0.0957
13934TIP3    H163293   0.768   6.606   1.743 -0.7842  1.2313 -0.7871
13934TIP3    H263294   0.917   6.592   1.718 -0.6149 -0.3391  0.9285
13935TIP3   OH263295   1.951   1.859  15.764 -0.2530 -0.7073  0.3127
13935TIP3    H163296   1.907   1.800  15.825 -1.1938 -0.2023  0.1427
13935TIP3    H263297   1.896   1.858  15.685  0.2988 -0.4293 -0.0848
13936TIP3   OH263298   5.251   2.062  10.669  0.3359 -0.1544  0.2819
13936TIP3    H163299   5.284   2.007  10.740  0.2879  0.7999  1.0795
13936TIP3    H263300   5.325   2.119  10.647 -0.5311  1.5961  1.6730
13937TIP3   OH263301   1.515   6.187  14.271  0.0490  0.0831 -0.0488
13937TIP3    H163302   1.607   6.205  14.255  0.3141  0.7104  1.9098
13937TIP3    H263303   1.490   6.248  14.341 -1.7677 -0.2944 -0.3063
13938TIP3   OH263304   2.142   4.130   2.904 -0.4247  0.5518  0.5495
13938TIP3    H163305   2.157   4.224   2.909  0.6906  0.3638  1.1540
13938TIP3    H263306   2.124   4.113   2.811  0.7646  1.1777  0.1835
13939TIP3   OH263307   1.330   2.058   4.518  0.1506  0.0454 -0.1494
13939TIP3    H163308   1.409   2.005   4.508  0.2064  0.1191 -0.0956
13939TIP3    H263309   1.332   2.118   4.443  0.7027  0.7739  0.4295
13940TIP3   OH263310   0.996   6.648   3.718  0.0136 -0.2369 -0.0280
13940TIP3    H163311   1.088   6.634   3.738 -0.0034  1.7082  1.6963
13940TIP3    H263312   0.997   6.708   3.643  0.1578  0.0774  0.2235
13941TIP3   OH263313   2.873   2.441  12.968  0.1760  0.0226 -0.1295
13941TIP3    H163314   2.905   2.452  12.879  2.0916  0.0164  0.5157
13941TIP3    H263315   2.918   2.363  13.001 -0.3388  0.1395  0.9126
13942TIP3   OH263316   6.059   3.959   3.731 -0.8568 -0.2572  0.0402
13942TIP3    H163317   6.042   3.867   3.713  0.3713 -0.7346  1.1749
13942TIP3    H263318   5.995   3.984   3.797  0.7403 -1.1850  2.0180
13943TIP3   OH263319   4.711   4.289   1.692 -0.0397 -0.4614  0.6517
13943TIP3    H163320   4.644   4.357   1.686  0.2377 -0.2709 -0.9186
13943TIP3    H263321   4.786   4.334   1.731  1.6023  1.5424 -3.9865
13944TIP3   OH263322   1.233   6.791  13.106  0.1946  0.4041  0.0598
13944TIP3    H163323   1.251   6.699  13.085 -1.8085 -0.1296  0.5181
13944TIP3    H263324   1.208   6.830  13.022 -0.0290  0.2654  0.0631
13945TIP3   OH263325   5.802   4.845   6.639  0.4821 -0.5323  0.5776
13945TIP3    H163326   5.829   4.900   6.712 -4.4385 -0.8482  3.0268
13945TIP3    H263327   5.816   4.755   6.669  0.0694 -0.6671  0.3786
13946TIP3   OH263328   4.616   5.829  11.728 -0.1764  0.0198 -0.5342
13946TIP3    H163329   4.654   5.764  11.669 -1.1939 -0.7222 -0.4033
13946TIP3    H263330   4.645   5.802  11.815  0.6551  0.6389 -0.6153
13947TIP3   OH263331   4.946   4.076   2.414 -0.4048 -0.2496 -0.0933
13947TIP3    H163332   4.962   4.160   2.457 -0.6444 -0.0784 -0.3339
13947TIP3    H263333   4.983   4.086   2.326 -1.3971 -0.0063 -0.4993
13948TIP3   OH263334   5.855   5.989   2.991 -0.4354 -0.6336 -0.4736
13948TIP3    H163335   5.899   6.074   2.996 -1.6582  0.0702 -1.3406
13948TIP3    H263336   5.918   5.928   3.029  0.0335  0.8079  1.1852
13949TIP3   OH263337   5.461   6.144  13.222 -0.3541 -0.0582  0.5012
13949TIP3    H163338   5.544   6.097  13.218 -1.2032 -1.5284 -1.2700
13949TIP3    H263339   5.395   6.080  13.195 -1.7036  1.8266 -0.9571
13950TIP3   OH263340   5.572   3.389   1.950  0.1136 -0.5643  0.4836
13950TIP3    H163341   5.502   3.406   2.014  0.0763 -0.1832  0.3421
13950TIP3    H263342   5.562   3.458   1.885 -0.0487 -1.1333 -0.1073
13951TIP3   OH263343   1.292   0.209  12.630  0.4617 -0.4486 -0.3930
13951TIP3    H163344   1.321   0.260  12.554 -1.7848 -0.8733 -1.6215
13951TIP3    H263345   1.315   0.264  12.706  0.0054  1.4667 -1.5525
13952TIP3   OH263346   2.742   4.897  14.385 -0.0373 -0.0592 -0.1043
13952TIP3    H163347   2.731   4.870  14.476  0.2480  2.0028  0.5987
13952TIP3    H263348   2.835   4.885  14.367 -0.1552 -0.7930 -0.2569
13953TIP3   OH263349   0.420   2.818  16.031 -0.1241 -0.2520  0.7091
13953TIP3    H163350   0.364   2.823  16.108 -1.0715 -1.4026  0.1299
13953TIP3    H263351   0.414   2.904  15.990 -2.0562 -0.5579  0.2800
13954TIP3   OH263352   4.306   5.022  16.531  0.3937 -0.1646  0.1136
13954TIP3    H163353   4.245   5.038  16.459 -1.0233  0.5752  1.4050
13954TIP3    H263354   4.253   4.982  16.600  1.9041 -1.7209  0.4467
13955TIP3   OH263355   1.164   3.238   1.648  0.5090  0.2665  0.7970
13955TIP3    H163356   1.075   3.253   1.615  0.1429 -0.5550  1.3922
13955TIP3    H263357   1.194   3.161   1.601  0.7259  0.2480  0.9645
13956TIP3   OH263358   6.761   0.956   0.667  0.3102 -0.3994 -0.3326
13956TIP3    H163359   6.787   0.909   0.588  0.2531 -0.1768 -0.4844
13956TIP3    H263360   6.691   0.902   0.705  0.1655 -0.3754 -0.5664
13957TIP3   OH263361   0.261   0.233   0.865 -0.3080  0.0485  0.0304
13957TIP3    H163362   0.236   0.172   0.795  1.3455 -1.3917  0.6215
13957TIP3    H263363   0.179   0.268   0.897 -1.3040 -1.6927 -0.5133
13958TIP3   OH263364   4.522   5.010  11.435  0.5783 -0.1924 -0.3708
13958TIP3    H163365   4.576   4.943  11.394  0.1634 -2.1786  2.0786
13958TIP3    H263366   4.556   5.017  11.524  0.8384  3.2249 -0.6134
13959TIP3   OH263367   6.218   6.412  11.207  0.4309 -0.3482 -0.3796
13959TIP3    H163368   6.184   6.383  11.292 -0.4296  0.9444 -0.2592
13959TIP3    H263369   6.301   6.365  11.197  0.8919  0.0112  1.4962
13960TIP3   OH263370   0.353   3.682   1.084  0.1909  0.1136 -0.0853
13960TIP3    H163371   0.303   3.642   1.156  0.2342 -0.8003 -0.5384
13960TIP3    H263372   0.309   3.649   1.005 -1.0461  2.5791 -0.5315
13961TIP3   OH263373   3.479   6.082  11.646  0.3088  0.0804 -0.0246
13961TIP3    H163374   3.405   6.139  11.669  0.3059 -0.2422  0.7909
13961TIP3    H263375   3.489   6.024  11.721  0.4043 -0.9059 -0.7813
13962TIP3   OH263376   1.037   4.634  10.890 -0.2322  0.8168  0.2330
13962TIP3    H163377   1.036   4.727  10.914 -0.3234  1.2484 -1.3270
13962TIP3    H263378   0.966   4.625  10.827 -1.4630 -0.7490  1.7609
13963TIP3   OH263379   3.409   3.053  12.916 -0.0874 -0.3807  0.4616
13963TIP3    H163380   3.477   3.009  12.864 -1.0920 -1.0589 -0.3182
13963TIP3    H263381   3.331   2.999  12.904 -1.2013  1.2338  0.0238
13964TIP3   OH263382   6.445   0.675  16.214 -0.0384 -0.5330 -0.5208
13964TIP3    H163383   6.433   0.617  16.139  0.8868 -0.6731 -0.5669
13964TIP3    H263384   6.537   0.665  16.238 -0.4344 -0.8678  0.9484
13965TIP3   OH263385   5.414   4.484   2.073 -0.1908 -0.3148 -0.1561
13965TIP3    H163386   5.445   4.486   2.163  0.1082  1.2159 -0.2671
13965TIP3    H263387   5.323   4.514   2.078 -1.1207 -2.8597 -0.0781
13966TIP3   OH263388   2.427   3.678   2.535  0.0324 -0.0014 -0.4900
13966TIP3    H163389   2.486   3.609   2.564  0.5912  0.4488 -0.5323
13966TIP3    H263390   2.370   3.636   2.471 -0.6912 -0.8082  0.6652
13967TIP3   OH263391   5.097   1.623  12.464  0.1401 -0.0217  0.0744
13967TIP3    H163392   5.171   1.671  12.502  0.9902 -0.3596 -1.0783
13967TIP3    H263393   5.019   1.669  12.496  0.6664 -1.2832  3.5414
13968TIP3   OH263394   0.045   6.413  16.837  0.6228 -0.6622  0.4899
13968TIP3    H163395   0.050   6.386  16.929 -2.6265 -1.2253  0.6188
13968TIP3    H263396   0.011   6.335  16.792 -0.5309  0.4776 -0.6705
13969TIP3   OH263397   5.737   4.059   4.139 -0.0847 -0.1934  0.0181
13969TIP3    H163398   5.674   4.001   4.183  0.1589 -0.6718 -0.2614
13969TIP3    H263399   5.822   4.035   4.176 -0.0542  0.4559  0.3977
13970TIP3   OH263400   0.474   6.065   0.576  0.5440  0.3739 -0.9640
13970TIP3    H163401   0.500   6.011   0.650  0.6821  0.9028 -0.6210
13970TIP3    H263402   0.461   6.003   0.504  0.6882 -0.1117 -0.5751
13971TIP3   OH263403   0.063   6.049   4.290  0.4044  0.3627  0.4067
13971TIP3    H163404  -0.001   5.978   4.296  0.0850  0.3619 -1.9192
13971TIP3    H263405   0.120   6.025   4.217  1.5475  1.5444  0.8607
13972TIP3   OH263406   3.250   2.321  15.770 -0.1051  0.0762 -0.7770
13972TIP3    H163407   3.220   2.260  15.702  0.3984  0.3509 -1.2605
13972TIP3    H263408   3.181   2.320  15.835 -0.5304 -0.3173 -1.2211
13973TIP3   OH263409   5.049   6.812  14.900  0.6863  0.5973  0.5970
13973TIP3    H163410   5.107   6.854  14.963  1.1398  1.8810 -0.5952
13973TIP3    H263411   4.981   6.878  14.883  0.5316  0.2555 -0.1689
13974TIP3   OH263412   2.509   4.446   0.817 -0.0388 -0.2772  0.0153
13974TIP3    H163413   2.432   4.389   0.806 -0.8509  0.3227  2.0528
13974TIP3    H263414   2.545   4.422   0.902  1.4891  0.1074 -0.4960
13975TIP3   OH263415   6.227   5.965  11.889  0.1447 -0.1381 -0.1727
13975TIP3    H163416   6.206   5.895  11.826  0.4043 -1.0669  0.7353
13975TIP3    H263417   6.280   5.921  11.955 -1.8139  0.2784  1.8080
13976TIP3   OH263418   0.890   0.383   4.660  0.2130  0.2085  0.6593
13976TIP3    H163419   0.867   0.319   4.592 -2.4905  0.5938  1.1056
13976TIP3    H263420   0.965   0.344   4.705 -0.9553 -2.3937  0.5376
13977TIP3   OH263421   3.071   3.751  12.873  0.1862  0.5644 -0.6141
13977TIP3    H163422   3.165   3.734  12.866  0.0777  0.2674 -1.5645
13977TIP3    H263423   3.065   3.838  12.911  0.8429  0.4885 -0.3197
13978TIP3   OH263424   4.940   1.184  15.375 -0.5984  0.2323 -0.4419
13978TIP3    H163425   4.894   1.144  15.301 -1.2249 -0.4442  0.3013
13978TIP3    H263426   4.971   1.109  15.426  2.0639  0.6096 -1.3224
13979TIP3   OH263427   6.239   2.872   0.970  0.1110  0.2775 -0.0959
13979TIP3    H163428   6.154   2.906   1.000 -0.0505  0.2035 -0.4545
13979TIP3    H263429   6.239   2.891   0.876  0.4234  0.1287 -0.1249
13980TIP3   OH263430   6.768   0.380  16.478 -0.6276 -0.2768  0.0016
13980TIP3    H163431   6.815   0.415  16.553 -1.1623  1.1018 -0.2740
13980TIP3    H263432   6.797   0.433  16.404 -1.3116 -0.5423 -0.4721
13981TIP3   OH263433   4.083   0.163  15.752 -0.7279  0.3670  0.0836
13981TIP3    H163434   4.146   0.186  15.684 -1.2687 -0.3640 -0.6998
13981TIP3    H263435   4.038   0.085  15.717 -0.5848 -0.4071  1.5514
13982TIP3   OH263436   4.885   0.078   5.905 -0.5596  0.6013  0.4352
13982TIP3    H163437   4.965   0.129   5.892  0.2525 -0.3827  1.3857
13982TIP3    H263438   4.914   0.000   5.953 -2.1658  0.4445  1.2101
13983TIP3   OH263439   6.182   0.692  11.093  0.1594 -0.5016 -0.2205
13983TIP3    H163440   6.272   0.713  11.071  0.2199 -0.7175 -0.1873
13983TIP3    H263441   6.160   0.619  11.034 -0.3875  0.3308 -1.0880
13984TIP3   OH263442   5.517   5.628  12.517 -0.0770  0.4231 -0.1439
13984TIP3    H163443   5.541   5.709  12.472 -0.8572  1.7242  1.6479
13984TIP3    H263444   5.424   5.617  12.496  0.1793 -0.3732 -0.8895
13985TIP3   OH263445   3.701   0.104   1.757  0.2331  0.4029  0.2248
13985TIP3    H163446   3.717   0.196   1.779 -1.2978  1.0268 -1.0357
13985TIP3    H263447   3.787   0.068   1.738  0.6974  2.2018 -1.3861
13986TIP3   OH263448   5.969   5.577   4.730 -0.3927  0.6153  0.5137
13986TIP3    H163449   5.900   5.623   4.683  0.4406  0.7979 -0.5763
13986TIP3    H263450   6.023   5.647   4.768  0.2933  0.5384 -0.2879
13987TIP3   OH263451   2.769   3.827  14.613 -0.0946  0.0853  0.1119
13987TIP3    H163452   2.820   3.784  14.682 -2.1169 -4.4304 -0.8425
13987TIP3    H263453   2.834   3.855  14.549  1.4818 -0.7076  1.2905
13988TIP3   OH263454   6.057   1.285   2.056 -0.0863 -0.3077  0.7692
13988TIP3    H163455   6.095   1.340   1.987 -1.2428 -1.0097 -0.4732
13988TIP3    H263456   6.100   1.315   2.136  0.3070  1.4715 -0.0489
13989TIP3   OH263457   4.500   0.533  14.103 -0.0162  0.3678  0.4372
13989TIP3    H163458   4.506   0.622  14.138 -0.5786  0.7031 -0.2873
13989TIP3    H263459   4.501   0.476  14.180  1.4145  0.9277  0.8668
13990TIP3   OH263460   1.686   5.130  14.099  0.1201  0.0644  0.1430
13990TIP3    H163461   1.689   5.051  14.044 -0.2787  0.0081  0.1987
13990TIP3    H263462   1.625   5.188  14.055  1.3583  0.8770 -0.5806
13991TIP3   OH263463   0.722   1.734  15.646  0.4469  0.0183 -0.1390
13991TIP3    H163464   0.683   1.651  15.619  0.2248 -0.8627  2.5679
13991TIP3    H263465   0.763   1.714  15.730  2.6298  2.0732 -0.6123
13992TIP3   OH263466   3.639   5.056  11.163 -0.0397 -0.0014 -0.9516
13992TIP3    H163467   3.617   4.970  11.200  0.7178  0.2793  0.2224
13992TIP3    H263468   3.556   5.090  11.130 -0.2870 -1.3122 -1.7333
13993TIP3   OH263469   2.958   5.754  12.044 -0.5659  0.1127 -0.3806
13993TIP3    H163470   2.910   5.764  12.126 -0.5325 -0.9440 -0.2197
13993TIP3    H263471   2.995   5.841  12.027 -0.1131  0.2123  1.0178
13994TIP3   OH263472   6.663   0.472  15.602  0.1665 -0.4372 -0.0049
13994TIP3    H163473   6.723   0.490  15.675  0.0370 -0.2018  0.0446
13994TIP3    H263474   6.719   0.438  15.533  0.3958  0.0296 -0.0522
13995TIP3   OH263475   2.697   1.882  15.614  0.2444  0.3395  0.5124
13995TIP3    H163476   2.740   1.826  15.678 -1.2564 -0.1669  1.1038
13995TIP3    H263477   2.628   1.927  15.663  1.1806  2.4864 -0.0172
13996TIP3   OH263478   1.819   4.611  11.963 -0.4334  0.2379  0.2025
13996TIP3    H163479   1.732   4.638  11.990 -1.3868 -1.2305 -1.2334
13996TIP3    H263480   1.823   4.631  11.870 -0.9908 -3.6871 -0.8345
13997TIP3   OH263481   5.574   4.860  12.898 -0.0661 -0.8050  0.1654
13997TIP3    H163482   5.505   4.923  12.918  2.2768  1.1195  2.8516
13997TIP3    H263483   5.641   4.911  12.853  1.4874 -1.5047  1.5757
13998TIP3   OH263484   0.471   3.397   1.004  0.1085  0.2236  0.0082
13998TIP3    H163485   0.454   3.368   1.094 -0.2223  0.7241  0.1161
13998TIP3    H263486   0.455   3.491   1.007 -1.4963  0.0198 -0.9298
13999TIP3   OH263487   5.745   1.532   2.902  0.2578 -0.2629 -0.0306
13999TIP3    H163488   5.717   1.623   2.903 -0.6427 -0.5121  1.4017
13999TIP3    H263489   5.718   1.499   2.816  0.0637  0.6593 -0.3322
14000TIP3   OH263490   2.848   5.913  10.316 -0.5997 -0.1601  0.3878
14000TIP3    H163491   2.824   5.995  10.359 -0.4681  0.2313 -0.2643
14000TIP3    H263492   2.913   5.938  10.250 -1.6950 -0.5389 -0.8846
14001TIP3   OH263493   0.462   2.860  13.168 -0.3782 -0.8741  0.0422
14001TIP3    H163494   0.557   2.854  13.174 -0.0648 -2.2209 -3.7933
14001TIP3    H263495   0.430   2.779  13.207  0.2409 -1.6182 -0.9716
14002TIP3   OH263496   2.068   5.796  13.551  0.7895  0.3928  0.4508
14002TIP3    H163497   2.091   5.739  13.625  0.1135 -0.3916  0.0755
14002TIP3    H263498   1.987   5.839  13.579 -0.0058 -0.6409 -0.1950
14003TIP3   OH263499   1.804   3.352   2.649  0.2338 -0.0628  0.3117
14003TIP3    H163500   1.870   3.305   2.599  0.4501 -0.0447  0.5773
14003TIP3    H263501   1.844   3.365   2.735 -0.1720 -0.1843  0.5217
14004TIP3   OH263502   2.497   3.135  15.213 -0.4934 -0.3217  0.3681
14004TIP3    H163503   2.448   3.072  15.265 -0.6154 -1.2469 -0.8085
14004TIP3    H263504   2.580   3.090  15.193  0.6240  0.9852  1.8279
14005TIP3   OH263505   5.422   1.555   1.841  0.5130  0.6030 -0.2016
14005TIP3    H163506   5.343   1.571   1.789 -0.0403 -2.7526 -0.5851
14005TIP3    H263507   5.405   1.473   1.886  2.7796  1.1540  1.8470
14006TIP3   OH263508   5.678   0.809  15.955 -0.2108 -0.3261 -0.0951
14006TIP3    H163509   5.665   0.899  15.986  0.7960 -0.5676  1.1417
14006TIP3    H263510   5.599   0.789  15.905 -0.9863  0.8363  0.6049
14007TIP3   OH263511   4.282   2.304   1.779  0.3131  0.0731  0.2667
14007TIP3    H163512   4.362   2.267   1.816  0.5730 -1.0333 -1.2897
14007TIP3    H263513   4.283   2.277   1.687 -1.1772  1.1906 -0.1231
14008TIP3   OH263514   2.833   0.154  15.251  0.4116 -0.1354  0.5909
14008TIP3    H163515   2.825   0.209  15.173 -0.5647 -2.6560 -1.2308
14008TIP3    H263516   2.922   0.117  15.246 -0.2335 -1.6938 -0.4460
14009TIP3   OH263517   1.456   0.029  11.372  0.5170 -0.0188  0.1640
14009TIP3    H163518   1.541   0.013  11.331 -0.4066 -4.5031 -0.4482
14009TIP3    H263519   1.457  -0.023  11.452 -0.3027  3.1220  2.4159
14010TIP3   OH263520   2.076   0.170  10.924 -0.4399 -0.2602  0.2995
14010TIP3    H163521   1.994   0.212  10.899 -0.1779  0.5457  0.7624
14010TIP3    H263522   2.143   0.219  10.876 -0.1994 -0.6695  0.2162
14011TIP3   OH263523   4.429   6.512   5.690  0.1520  0.2185 -0.0912
14011TIP3    H163524   4.493   6.518   5.761  1.1269 -0.3265 -0.9046
14011TIP3    H263525   4.467   6.450   5.628 -1.0517  0.0750 -0.7208
14012TIP3   OH263526   3.130   3.764  15.965 -0.2990 -0.3757 -0.4415
14012TIP3    H163527   3.098   3.675  15.952  1.7933 -1.2766  0.2338
14012TIP3    H263528   3.217   3.754  16.002 -0.5748  1.9782  1.0984
14013TIP3   OH263529   0.124   1.243  16.201 -0.2726 -0.0751 -0.0085
14013TIP3    H163530   0.200   1.277  16.153 -0.9625  0.6592 -0.6109
14013TIP3    H263531   0.133   1.147  16.195  1.3568 -0.0324  1.1654
14014TIP3   OH263532   6.243   4.768  13.744  0.0920  0.1660  0.5091
14014TIP3    H163533   6.205   4.731  13.824 -0.2112  1.8624  1.1955
14014TIP3    H263534   6.169   4.807  13.698 -0.1385 -2.6779 -1.7919
14015TIP3   OH263535   5.759   5.850  11.181  0.4401  0.0661  0.1277
14015TIP3    H163536   5.786   5.762  11.154  0.0307 -0.0745  0.1733
14015TIP3    H263537   5.765   5.902  11.101  0.4636 -0.0542  0.0504
14016TIP3   OH263538   2.044   0.768  12.030  0.2940  0.3991  0.0951
14016TIP3    H163539   2.044   0.687  11.979  0.4252  0.6514 -0.3081
14016TIP3    H263540   2.077   0.742  12.117 -0.9908 -0.2503  0.4093
14017TIP3   OH263541   5.816   3.354   3.092 -0.1678  0.5588 -0.2939
14017TIP3    H163542   5.836   3.446   3.077  2.8790 -0.0501 -0.5987
14017TIP3    H263543   5.870   3.307   3.027 -2.2655 -1.4385 -0.7261
14018TIP3   OH263544   4.239   1.303  12.656  0.0101  0.2325  0.1435
14018TIP3    H163545   4.147   1.285  12.672  0.1822  1.6802  3.4397
14018TIP3    H263546   4.281   1.216  12.656 -0.9386 -0.2693  1.9106
14019TIP3   OH263547   5.079   4.516   3.175  0.5922  0.2368 -0.2276
14019TIP3    H163548   5.140   4.575   3.220  1.1322  0.4357 -1.1908
14019TIP3    H263549   5.117   4.429   3.188  1.2232  0.3840 -1.0250
14020TIP3   OH263550   0.988   6.704  14.183 -0.1891 -0.1895  0.2595
14020TIP3    H163551   1.071   6.657  14.177 -0.3188 -0.6319  1.6050
14020TIP3    H263552   0.991   6.745  14.269 -0.7452  1.0196 -0.2796
14021TIP3   OH263553   3.970   5.584   1.897  0.2684  0.4104 -0.6160
14021TIP3    H163554   3.891   5.607   1.848  1.8754  1.7413 -2.8087
14021TIP3    H263555   4.009   5.669   1.921  2.3593 -0.0644 -2.0126
14022TIP3   OH263556   5.317   3.696   3.776 -0.1443  0.2267 -0.5692
14022TIP3    H163557   5.247   3.649   3.821  0.1420 -0.2580 -0.6251
14022TIP3    H263558   5.338   3.769   3.835  0.6986 -0.7822  0.4386
14023TIP3   OH263559   2.086   3.979  15.496  0.4154  0.4605 -0.7481
14023TIP3    H163560   2.095   4.051  15.558 -1.9798 -0.4310  0.8060
14023TIP3    H263561   1.992   3.976  15.477  0.8127 -0.6586 -2.7974
14024TIP3   OH263562   0.037   0.886   6.189 -0.4808  0.2733  0.5649
14024TIP3    H163563   0.051   0.876   6.095  3.2735 -0.8783  1.0743
14024TIP3    H263564  -0.048   0.846   6.205 -0.9280 -0.1255 -2.1987
14025TIP3   OH263565   4.019   1.452   4.601  0.5874 -0.1782 -0.9080
14025TIP3    H163566   3.930   1.423   4.620 -0.2080  0.7718 -2.8016
14025TIP3    H263567   4.069   1.433   4.680 -1.2495 -0.9381  0.1255
14026TIP3   OH263568   4.703   4.214  12.369 -0.1168  0.0964  0.3995
14026TIP3    H163569   4.710   4.231  12.463  2.6664  1.2124  0.1012
14026TIP3    H263570   4.777   4.261  12.331  0.6062 -2.6932 -2.0374
14027TIP3   OH263571   3.836   1.676   2.603  0.4553  0.1002  0.7027
14027TIP3    H163572   3.804   1.630   2.680 -1.3353  2.0854  1.2211
14027TIP3    H263573   3.757   1.704   2.557  1.4246 -1.3570 -2.1568
14028TIP3   OH263574   0.965   4.583  16.862 -0.6103 -0.4111  0.4508
14028TIP3    H163575   0.908   4.660  16.855 -0.9391 -0.4836  2.0594
14028TIP3    H263576   1.009   4.593  16.947 -0.3763 -1.8165  0.5104
14029TIP3   OH263577   3.344   5.968  14.709  0.1088 -0.5525  0.4405
14029TIP3    H163578   3.277   5.925  14.761 -0.0781  0.6118  1.1882
14029TIP3    H263579   3.378   6.037  14.765 -0.8611  1.4699 -1.3341
14030TIP3   OH263580   3.466   0.832  14.086 -0.4099  0.7722  0.1510
14030TIP3    H163581   3.465   0.763  14.153  1.7853 -0.3025 -0.8374
14030TIP3    H263582   3.522   0.900  14.122  0.0978  0.5610 -0.2292
14031TIP3   OH263583   3.800   1.494   2.806  0.4535  0.9023 -0.0771
14031TIP3    H163584   3.883   1.535   2.831  1.6892 -0.1596 -2.1986
14031TIP3    H263585   3.796   1.415   2.860  1.1656  0.6278 -0.4085
14032TIP3   OH263586   2.211   4.792   5.037 -0.2401  0.4408 -0.5596
14032TIP3    H163587   2.304   4.814   5.043  0.5037 -1.8741 -2.1107
14032TIP3    H263588   2.206   4.703   5.072 -1.8692  0.4825 -0.6228
14033TIP3   OH263589   2.840   3.688  13.388  0.2658 -0.2860  0.2378
14033TIP3    H163590   2.804   3.768  13.347 -0.1317 -0.5055  0.1494
14033TIP3    H263591   2.842   3.624  13.317 -2.1512 -1.2340  0.9069
14034TIP3   OH263592   1.942   1.503  15.148 -0.3296  0.1930 -0.0213
14034TIP3    H163593   1.904   1.485  15.062  0.0475  1.4077 -0.4713
14034TIP3    H263594   1.910   1.590  15.171  1.0387  0.6585  0.2185
14035TIP3   OH263595   2.418   4.178   2.704 -0.1652 -0.3266 -0.4082
14035TIP3    H163596   2.433   4.206   2.794 -0.1903  0.6183 -0.6804
14035TIP3    H263597   2.429   4.258   2.652  1.6949 -1.1988 -1.4549
14036TIP3   OH263598   1.247   0.364   0.015  0.0989 -0.2114  0.1739
14036TIP3    H163599   1.309   0.432   0.043 -0.9476  0.0777  1.9727
14036TIP3    H263600   1.161   0.399   0.038 -0.5934 -1.4468 -0.4197
14037TIP3   OH263601   6.279   4.940   1.626 -0.4638  0.2360 -0.1180
14037TIP3    H163602   6.204   4.971   1.677  1.5864  1.9761  2.0244
14037TIP3    H263603   6.314   5.018   1.583  2.7519  0.5054  2.6089
14038TIP3   OH263604   4.555   6.018  12.143 -0.2002  0.0506 -0.3757
14038TIP3    H163605   4.645   5.986  12.152  0.1631  1.2543  0.6466
14038TIP3    H263606   4.508   5.978  12.217  0.0937  1.2462  0.4985
14039TIP3   OH263607   6.136   0.211   1.204 -0.3836 -0.1415  0.4130
14039TIP3    H163608   6.133   0.280   1.138  0.1853  0.5688  1.1123
14039TIP3    H263609   6.179   0.138   1.160  1.4136  0.8486  0.4151
14040TIP3   OH263610   4.456   6.106  15.468  0.0986 -0.3008  0.5187
14040TIP3    H163611   4.520   6.150  15.524 -1.4088  1.7062  0.7891
14040TIP3    H263612   4.502   6.092  15.385  1.6324 -1.2395  1.4774
14041TIP3   OH263613   6.207   3.917   2.891 -0.6068  0.1988  0.7462
14041TIP3    H163614   6.271   3.988   2.885  0.4199 -0.5321  2.3243
14041TIP3    H263615   6.231   3.870   2.971 -1.9877 -1.2193  0.3748
14042TIP3   OH263616   5.204   5.061   2.414  0.2521 -0.4787 -0.1319
14042TIP3    H163617   5.174   5.008   2.488  0.6202  0.5730  0.8176
14042TIP3    H263618   5.202   5.151   2.448  0.0187  0.0698 -1.5565
14043TIP3   OH263619   1.064   4.670   4.765  0.5953  0.1993 -0.3973
14043TIP3    H163620   0.979   4.632   4.747  0.6648  0.7324 -2.0418
14043TIP3    H263621   1.048   4.733   4.836 -0.1332 -0.5310  0.1001
14044TIP3   OH263622   4.361   4.648   0.010 -0.0497 -0.0102  0.8731
14044TIP3    H163623   4.322   4.717   0.063  0.1823  0.5258  0.3520
14044TIP3    H263624   4.375   4.688  -0.076  1.4880 -0.2250  0.9891
14045TIP3   OH263625   3.441   6.337  16.992 -0.4963  0.5337  0.2481
14045TIP3    H163626   3.489   6.419  16.985 -1.4959  1.2631  1.4236
14045TIP3    H263627   3.385   6.349  17.069  0.4996 -1.8508  1.4811
14046TIP3   OH263628   6.758   6.673   2.577  0.3164  0.4288  0.6230
14046TIP3    H163629   6.674   6.707   2.547 -0.9574 -1.3689  1.8820
14046TIP3    H263630   6.789   6.618   2.505  0.2851  0.8900  0.2551
14047TIP3   OH263631   1.289   6.515   4.471 -0.3966 -1.0200  0.1887
14047TIP3    H163632   1.198   6.493   4.492 -0.4548 -2.4457 -1.3526
14047TIP3    H263633   1.340   6.443   4.508  0.1018 -0.3585  0.8212
14048TIP3   OH263634   5.577   0.669   5.290 -0.3911  0.4445  0.0944
14048TIP3    H163635   5.639   0.655   5.219 -1.1781 -1.3836 -0.2777
14048TIP3    H263636   5.517   0.736   5.256 -0.1632  0.3214 -0.5662
14049TIP3   OH263637   1.501   2.764  14.759  0.6926 -0.6572 -0.3305
14049TIP3    H163638   1.549   2.692  14.800 -0.8361 -0.9163  1.1633
14049TIP3    H263639   1.434   2.787  14.824  2.1170  3.2650  0.0445
14050TIP3   OH263640   0.465   1.303   5.024 -0.2784 -0.3781 -0.1032
14050TIP3    H163641   0.518   1.375   5.058 -1.0475 -0.6616  1.7896
14050TIP3    H263642   0.379   1.342   5.009 -1.1480 -1.1533  2.3890
14051TIP3   OH263643   3.926   6.783   3.274  0.0125  0.6194 -0.4850
14051TIP3    H163644   3.979   6.742   3.206 -1.3398  0.1964 -1.3305
14051TIP3    H263645   3.927   6.721   3.347 -0.1630  0.1299 -0.8936
14052TIP3   OH263646   4.170   3.700   1.280  0.2744 -0.2282 -0.2123
14052TIP3    H163647   4.130   3.756   1.347  1.6550 -0.1889  0.6299
14052TIP3    H263648   4.146   3.741   1.197 -1.0972 -0.0164  0.2632
14053TIP3   OH263649   0.473   4.680  15.778 -0.2401 -0.6142  0.1388
14053TIP3    H163650   0.381   4.706  15.770 -0.1198 -0.5467 -1.2740
14053TIP3    H263651   0.477   4.593  15.738  0.6202  0.1196 -1.4429
14054TIP3   OH263652   4.282   4.727  16.313 -0.7857  0.6480  0.3810
14054TIP3    H163653   4.198   4.741  16.357 -1.0389  0.7835 -0.1343
14054TIP3    H263654   4.289   4.800  16.251 -1.0681 -0.2460 -0.7480
14055TIP3   OH263655   4.749   2.722   1.494  0.7632 -0.2327 -0.1253
14055TIP3    H163656   4.799   2.686   1.422 -1.4450 -2.9373 -0.4803
14055TIP3    H263657   4.664   2.678   1.489  0.1539  0.1826  3.5134
14056TIP3   OH263658   2.208   3.254  13.383 -0.0354  0.1650  0.0072
14056TIP3    H163659   2.193   3.318  13.313  0.2289 -0.5459 -0.7221
14056TIP3    H263660   2.303   3.249  13.392 -0.0610  0.0336  0.2122
14057TIP3   OH263661   4.724   0.844   0.093  0.0290 -0.3747 -0.2276
14057TIP3    H163662   4.705   0.933   0.064  2.7278  0.3069 -0.1280
14057TIP3    H263663   4.685   0.840   0.181 -0.2574  0.6543 -0.2864
14058TIP3   OH263664   0.673   0.725  11.615 -0.4877  0.1216  0.5607
14058TIP3    H163665   0.704   0.747  11.703  0.4965  0.7418  0.0763
14058TIP3    H263666   0.649   0.632  11.620 -1.3144  0.3753  1.7093
14059TIP3   OH263667   1.989   6.455   1.397 -0.8307 -0.6011  0.0655
14059TIP3    H163668   2.084   6.456   1.388 -0.4721 -1.2302  2.9135
14059TIP3    H263669   1.961   6.381   1.342  0.6438 -2.0517  1.1626
14060TIP3   OH263670   0.156   4.999   0.109 -0.1900 -0.2557 -0.0339
14060TIP3    H163671   0.142   4.935   0.179 -1.2378  0.6567  0.6298
14060TIP3    H263672   0.118   5.080   0.143 -2.2363 -0.1503 -2.2671
14061TIP3   OH263673   1.162   0.533  15.516  0.1405 -0.0211  0.4417
14061TIP3    H163674   1.234   0.499  15.569 -1.4069 -0.6820  2.2162
14061TIP3    H263675   1.119   0.455  15.480  1.5815  0.4042 -2.5406
14062TIP3   OH263676   1.977   4.090   2.073 -0.1680  0.1338 -0.2154
14062TIP3    H163677   1.891   4.126   2.050  0.1689  0.6485 -0.7113
14062TIP3    H263678   2.000   4.035   1.998 -0.0369  0.0565 -0.1167
14063TIP3   OH263679   2.329   5.493   2.788  0.0575  0.4751 -0.1645
14063TIP3    H163680   2.413   5.491   2.741  0.3925  2.4804  0.2848
14063TIP3    H263681   2.285   5.571   2.757 -1.9470 -0.8194 -0.7880
14064TIP3   OH263682   4.434   5.914   0.316  0.3168  0.8038  0.0710
14064TIP3    H163683   4.522   5.950   0.308  1.0850 -0.7384  1.0012
14064TIP3    H263684   4.413   5.880   0.229  0.1122  2.2586 -0.4676
14065TIP3   OH263685   3.346   3.571   6.058 -0.1622 -0.2343  0.3877
14065TIP3    H163686   3.393   3.568   6.141 -1.2963  1.4624  1.1527
14065TIP3    H263687   3.341   3.480   6.030  1.3163 -0.7153  1.5451
14066TIP3   OH263688   2.171   3.735   1.226 -0.2556 -0.7402  0.0196
14066TIP3    H163689   2.127   3.650   1.226 -0.4780 -0.6970  2.2084
14066TIP3    H263690   2.116   3.790   1.282  1.0570  0.1586  0.4867
14067TIP3   OH263691   5.298   2.565   6.279  0.1570  0.3417 -0.3377
14067TIP3    H163692   5.315   2.638   6.338  0.4703 -1.3296  1.7606
14067TIP3    H263693   5.372   2.566   6.218  0.3825  1.4811 -0.0636
14068TIP3   OH263694   0.887   6.629  12.447 -0.4872  0.8336 -0.2979
14068TIP3    H163695   0.954   6.693  12.470  0.5605 -0.4333  0.2464
14068TIP3    H263696   0.849   6.603  12.531 -0.7699  0.5846 -0.5029
14069TIP3   OH263697   4.720   1.872  15.657 -0.6869  0.2969 -0.3913
14069TIP3    H163698   4.756   1.960  15.669  2.6331 -0.7331 -1.6360
14069TIP3    H263699   4.751   1.824  15.734  0.3885 -0.5254 -1.3028
14070TIP3   OH263700   3.487   0.732  11.786  0.0781 -0.1098 -0.0397
14070TIP3    H163701   3.560   0.682  11.822  1.5042  1.4032 -0.6895
14070TIP3    H263702   3.490   0.815  11.834 -0.9863  0.1075 -0.3341
14071TIP3   OH263703   3.576   4.188   6.220 -0.2478  0.0247  0.8209
14071TIP3    H163704   3.637   4.116   6.234  0.8744  1.1457  1.8991
14071TIP3    H263705   3.489   4.148   6.234  0.3578 -1.0466  1.6978
14072TIP3   OH263706   2.801   6.076   2.348 -0.4666  0.3593 -0.0465
14072TIP3    H163707   2.725   6.026   2.319 -0.5451  0.6143 -0.2809
14072TIP3    H263708   2.823   6.037   2.433  0.5763 -1.2685 -1.0103
14073TIP3   OH263709   5.283   5.392  15.018 -0.2377 -0.0703  0.4400
14073TIP3    H163710   5.347   5.408  15.087 -0.3057 -1.9849  1.0150
14073TIP3    H263711   5.336   5.366  14.942 -0.2562 -0.7365  0.6418
14074TIP3   OH263712   3.780   4.308   2.238 -0.0937  0.1020  0.1196
14074TIP3    H163713   3.763   4.218   2.213 -2.6832  0.7639 -0.8297
14074TIP3    H263714   3.825   4.302   2.322 -1.2444 -2.0737  0.6423
14075TIP3   OH263715   1.905   5.980   1.817 -0.6058 -0.2976 -0.0138
14075TIP3    H163716   1.915   5.933   1.900  2.8463  0.1206 -0.0752
14075TIP3    H263717   1.899   6.073   1.842 -0.3470 -0.2290 -0.2043
14076TIP3   OH263718   3.713   4.545  15.929 -1.0465 -0.5955 -0.7406
14076TIP3    H163719   3.780   4.484  15.962  0.5684  2.2836  1.8835
14076TIP3    H263720   3.648   4.548  15.999 -0.7378  1.0835 -0.4866
14077TIP3   OH263721   0.516   2.372  15.524  0.7187 -0.2731  0.3536
14077TIP3    H163722   0.436   2.321  15.511 -1.0835  2.2148  0.8694
14077TIP3    H263723   0.571   2.350  15.449 -1.3739 -0.4738 -1.2017
14078TIP3   OH263724   6.690   6.702  12.280  0.0181 -0.0045  0.3232
14078TIP3    H163725   6.748   6.630  12.256  0.8925  0.9795 -0.6227
14078TIP3    H263726   6.604   6.675  12.248  0.6313  0.0141 -1.4600
14079TIP3   OH263727   6.702   5.949  16.319 -0.0354  0.2217  0.3596
14079TIP3    H163728   6.668   6.027  16.364 -0.3552  0.5572 -0.4392
14079TIP3    H263729   6.626   5.914  16.273  0.2023 -0.3352  0.3920
14080TIP3   OH263730   6.423   1.671   3.556  0.5161  0.1829 -0.2629
14080TIP3    H163731   6.515   1.694   3.542  0.6566  1.2617  1.9864
14080TIP3    H263732   6.410   1.680   3.650 -1.2411 -2.5385 -0.1294
14081TIP3   OH263733   5.977   0.309  11.952  0.5471 -0.1100  0.5830
14081TIP3    H163734   6.022   0.328  11.869 -1.9273  0.7506 -0.6734
14081TIP3    H263735   6.035   0.247  11.997  2.0456 -0.5213 -1.7171
14082TIP3   OH263736   0.024   6.498   3.725  0.2395  0.3930  0.0080
14082TIP3    H163737   0.062   6.585   3.715  1.4193 -0.2576 -1.5648
14082TIP3    H263738   0.044   6.473   3.815  2.2589  0.6829 -0.3232
14083TIP3   OH263739   5.956   2.934  11.865 -0.2500 -0.5868  0.2682
14083TIP3    H163740   5.930   2.865  11.927  0.7194 -1.4192 -0.2187
14083TIP3    H263741   5.972   3.011  11.919 -2.3253 -0.4324  0.7264
14084TIP3   OH263742   3.910   4.604   4.396 -0.4386 -0.1325 -0.4964
14084TIP3    H163743   3.879   4.569   4.479 -0.4790  0.2858 -0.3344
14084TIP3    H263744   4.002   4.623   4.410 -0.4464 -0.0563 -0.5443
14085TIP3   OH263745   4.121   5.769   0.739  0.4732  0.0108 -0.1956
14085TIP3    H163746   4.194   5.708   0.749  0.5226 -0.1055 -1.1722
14085TIP3    H263747   4.115   5.814   0.823  2.8288  1.3205 -0.6397
14086TIP3   OH263748   1.497   3.530  14.712 -0.2600  0.3493 -0.1121
14086TIP3    H163749   1.583   3.518  14.672 -0.9551  0.5956 -1.7518
14086TIP3    H263750   1.459   3.442  14.714 -0.4965  0.4339 -0.6654
14087TIP3   OH263751   5.368   3.639   4.444  0.1701  0.5238 -0.0257
14087TIP3    H163752   5.365   3.552   4.482 -1.2422  1.4413  2.1550
14087TIP3    H263753   5.427   3.630   4.368  1.1842 -1.9693  0.9448
14088TIP3   OH263754   2.504   2.140  13.370 -0.5426 -0.1864  0.0426
14088TIP3    H163755   2.483   2.108  13.458  0.3724  0.5040  0.5243
14088TIP3    H263756   2.597   2.118  13.358 -0.9665 -1.3871 -1.2501
14089TIP3   OH263757   1.892   2.053   1.118 -0.2568  0.0189 -0.0069
14089TIP3    H163758   1.890   2.083   1.027 -0.7212 -0.7358 -0.2561
14089TIP3    H263759   1.800   2.045   1.143 -0.1423 -0.6702  0.2221
14090TIP3   OH263760   1.964   2.297  11.246 -0.5950 -0.1488  0.6982
14090TIP3    H163761   2.013   2.353  11.185  2.0357 -0.5892  2.2416
14090TIP3    H263762   1.905   2.357  11.291  0.7051  1.0436  0.8850
14091TIP3   OH263763   2.128   1.466   5.613 -0.0932 -0.1898 -0.3959
14091TIP3    H163764   2.106   1.487   5.704  0.7690  0.5601 -0.3462
14091TIP3    H263765   2.159   1.375   5.616  1.6451  0.3967  0.3803
14092TIP3   OH263766   5.019   1.816   2.597  0.6328  0.2127 -0.1793
14092TIP3    H163767   5.093   1.850   2.648  0.3445 -0.4356  0.6802
14092TIP3    H263768   5.051   1.734   2.559 -0.3819 -1.3857  2.2162
14093TIP3   OH263769   2.497   4.150  15.439 -0.4610 -0.0940 -0.2748
14093TIP3    H163770   2.576   4.163  15.386 -0.3501  0.5902  0.0572
14093TIP3    H263771   2.481   4.055  15.434  0.6453 -0.3136  0.0229
14094TIP3   OH263772   5.628   5.453  13.444 -0.3354  0.2200  0.1886
14094TIP3    H163773   5.637   5.359  13.432 -0.0526  0.0312  1.6660
14094TIP3    H263774   5.713   5.489  13.422 -0.2685  0.0537  0.1785
14095TIP3   OH263775   5.676   0.260   1.091  0.1383 -0.2405 -0.3087
14095TIP3    H163776   5.739   0.245   1.162  0.8226  1.4293 -0.5082
14095TIP3    H263777   5.603   0.307   1.133 -0.1427 -0.5762 -0.4230
14096TIP3   OH263778   5.165   1.912  12.572  0.2635  0.0795 -0.1590
14096TIP3    H163779   5.157   1.996  12.618 -1.5552  1.1124 -2.1692
14096TIP3    H263780   5.112   1.851  12.624  0.5660  0.4843  0.6429
14097TIP3   OH263781   3.808   3.073   3.289  0.3210 -0.2481 -0.4574
14097TIP3    H163782   3.854   2.998   3.328  1.6343  0.9957  0.4901
14097TIP3    H263783   3.814   3.058   3.195  1.0249 -1.0869 -0.2917
14098TIP3   OH263784   0.637   4.897   5.000  0.6661 -0.0856 -0.2763
14098TIP3    H163785   0.633   4.992   5.012  0.9506  0.0254 -0.9869
14098TIP3    H263786   0.594   4.861   5.078  1.3392  0.5982  0.4369
14099TIP3   OH263787   6.641   6.283   1.229  0.2740 -0.3464  0.4557
14099TIP3    H163788   6.573   6.332   1.275  0.1089  0.5976 -0.7292
14099TIP3    H263789   6.692   6.351   1.183  1.5773 -1.0907  0.7455
14100TIP3   OH263790   1.115   4.017   2.248 -0.1345 -0.0668  0.1927
14100TIP3    H163791   1.152   4.093   2.203 -1.0644  0.3998  0.2000
14100TIP3    H263792   1.107   3.950   2.181  0.0580  0.0633  0.0388
14101TIP3   OH263793   4.221   1.092   3.347  0.1488  0.3914  0.3887
14101TIP3    H163794   4.304   1.111   3.392  0.8045  0.3149 -0.7463
14101TIP3    H263795   4.181   1.178   3.335  0.4328  0.5074  0.2607
14102TIP3   OH263796   6.289   3.251   5.272  0.1839 -0.4010  0.1889
14102TIP3    H163797   6.360   3.272   5.333 -0.4574  0.3775  0.6968
14102TIP3    H263798   6.211   3.285   5.315 -0.2495  0.4858 -1.2368
14103TIP3   OH263799   5.534   1.773  16.815  0.1668  0.0112 -0.2014
14103TIP3    H163800   5.470   1.798  16.881  0.9963  0.2312  0.5378
14103TIP3    H263801   5.504   1.687  16.784  0.0225 -0.3231  0.8200
14104TIP3   OH263802   2.105   6.764  16.991 -0.5316 -0.1526 -0.5540
14104TIP3    H163803   2.038   6.719  17.044  0.7539 -1.8648 -0.2973
14104TIP3    H263804   2.085   6.739  16.901 -0.5339 -0.2541 -0.5255
14105TIP3   OH263805   4.576   4.884  15.503  0.0647 -0.0112  0.0538
14105TIP3    H163806   4.536   4.885  15.416  2.3774  1.3216 -1.0891
14105TIP3    H263807   4.502   4.869  15.563 -1.8405  0.5770 -1.9987
14106TIP3   OH263808   4.968   1.617   1.326 -0.3726  0.1481  0.1149
14106TIP3    H163809   5.057   1.620   1.290  0.1143 -1.5486  1.0326
14106TIP3    H263810   4.911   1.633   1.251  0.6561 -0.9954 -0.9599
14107TIP3   OH263811   5.343   2.575  17.204 -0.2082 -0.2402 -0.3125
14107TIP3    H163812   5.411   2.528  17.252  1.4038  1.7423 -0.5145
14107TIP3    H263813   5.299   2.628  17.270  1.3540  1.7340 -0.7708
14108TIP3   OH263814   0.123   3.886   1.637 -0.3025  0.0453 -0.2483
14108TIP3    H163815   0.134   3.916   1.728 -1.5235 -1.0561  0.2881
14108TIP3    H263816   0.101   3.965   1.588  0.6546  0.7026  0.3424
14109TIP3   OH263817   5.740   6.288  15.219  0.3242 -0.7875  0.0367
14109TIP3    H163818   5.677   6.330  15.277 -0.0730 -1.2615 -0.0405
14109TIP3    H263819   5.688   6.255  15.146  0.2568 -3.1974  1.0486
14110TIP3   OH263820   5.005   1.340   5.154  0.8124 -0.5257 -0.1371
14110TIP3    H163821   5.092   1.360   5.119  0.0392  2.3746 -0.7025
14110TIP3    H263822   4.970   1.425   5.181 -2.0708 -1.5004 -0.4456
14111TIP3   OH263823   2.900   2.882   2.422 -0.1672  0.1533 -0.2817
14111TIP3    H163824   2.891   2.799   2.376  1.1995  0.1768 -0.6231
14111TIP3    H263825   2.837   2.941   2.379  0.1158 -0.2099 -1.2132
14112TIP3   OH263826   4.890   1.067  16.525 -0.0243  0.5600 -0.6002
14112TIP3    H163827   4.816   1.101  16.474 -0.1264 -0.2372 -0.9926
14112TIP3    H263828   4.958   1.133  16.514 -0.5068  1.0572 -0.6518
14113TIP3   OH263829   1.016   6.383  11.200 -0.0151  0.8008  0.4557
14113TIP3    H163830   1.088   6.389  11.137  0.0570  1.3950  0.5907
14113TIP3    H263831   0.951   6.327  11.157  0.9110 -0.5159  0.7118
14114TIP3   OH263832   4.436   0.254   2.399  0.5211  0.1895  0.2229
14114TIP3    H163833   4.521   0.295   2.417 -0.0368  0.5386  2.3826
14114TIP3    H263834   4.456   0.161   2.390  1.3031  0.4393 -0.8235
14115TIP3   OH263835   5.560   3.318  16.733 -0.0061 -0.5211 -0.2215
14115TIP3    H163836   5.576   3.250  16.798  1.5056  0.8819  0.9482
14115TIP3    H263837   5.633   3.379  16.743 -1.6666  1.6739 -0.7104
14116TIP3   OH263838   1.174   3.707   3.974  0.0867  0.2531  0.0499
14116TIP3    H163839   1.120   3.634   4.002  0.1037  0.6329  1.1138
14116TIP3    H263840   1.248   3.708   4.035  0.3349  0.8684 -0.2462
14117TIP3   OH263841   1.967   1.139  16.207 -0.5758 -0.7654  0.0069
14117TIP3    H163842   2.059   1.131  16.182 -0.3555  2.0762 -0.4177
14117TIP3    H263843   1.968   1.136  16.303  0.2210  0.8925  0.0846
14118TIP3   OH263844   5.020   1.811   5.324 -0.4345  0.6007 -0.3531
14118TIP3    H163845   4.990   1.725   5.295  1.3286 -0.2574  0.2331
14118TIP3    H263846   5.074   1.844   5.252  2.2689 -0.6483  0.9446
14119TIP3   OH263847   3.860   2.728  16.515  0.2266 -0.0826  0.0020
14119TIP3    H163848   3.852   2.651  16.571  0.5562  0.6800  1.1462
14119TIP3    H263849   3.771   2.760  16.504  0.2799  0.6050  1.3572
14120TIP3   OH263850   3.562   3.835  11.584  0.2072 -0.0182 -0.5693
14120TIP3    H163851   3.657   3.836  11.571  0.1762 -1.7235 -1.1120
14120TIP3    H263852   3.540   3.927  11.600  2.1360  0.2360  1.1036
14121TIP3   OH263853   6.516   1.846  12.752 -0.9469 -0.0431  0.1943
14121TIP3    H163854   6.425   1.873  12.758 -0.2679  2.0658  2.2597
14121TIP3    H263855   6.525   1.777  12.817 -0.7280  0.8944  1.1780
14122TIP3   OH263856   5.305   6.045   4.170 -0.6265  0.3110  0.0912
14122TIP3    H163857   5.214   6.058   4.144 -0.7297 -0.8457 -0.1844
14122TIP3    H263858   5.356   6.073   4.094 -0.8371 -0.8089 -0.4808
14123TIP3   OH263859   2.803   5.963   5.945  0.1176 -0.3450  0.2462
14123TIP3    H163860   2.812   6.002   5.858  1.1709  0.0338  0.5255
14123TIP3    H263861   2.752   6.026   5.995 -1.1363 -0.8906 -0.2864
14124TIP3   OH263862   0.466   6.262   0.767 -0.1074 -0.6538 -0.4129
14124TIP3    H163863   0.430   6.201   0.702 -3.3853  1.4131 -0.7836
14124TIP3    H263864   0.525   6.209   0.819  0.7930 -3.0188 -3.5057
14125TIP3   OH263865   3.112   5.294   4.457  0.4503  0.8839  0.3836
14125TIP3    H163866   3.092   5.303   4.550 -2.2870  1.4602 -0.1625
14125TIP3    H263867   3.202   5.324   4.448  1.0446  0.0801  2.9261
14126TIP3   OH263868   3.629   2.750  14.383 -0.5952 -0.4147 -0.6757
14126TIP3    H163869   3.577   2.688  14.333 -1.5147 -0.9101  0.8185
14126TIP3    H263870   3.654   2.702  14.462  1.2168  0.1807 -0.8448
14127TIP3   OH263871   5.522   4.724   3.629  0.2077  0.1677 -0.4933
14127TIP3    H163872   5.600   4.690   3.672  0.7003  2.4425  0.5625
14127TIP3    H263873   5.449   4.689   3.681  0.6093 -0.2638 -0.2076
14128TIP3   OH263874   3.912   4.730  10.304  0.2570  0.0797  0.5617
14128TIP3    H163875   4.002   4.698  10.302  0.1254 -0.2697 -0.5041
14128TIP3    H263876   3.915   4.807  10.360  0.8776 -0.8984  1.9528
14129TIP3   OH263877   0.172   4.243  15.293 -0.4817  0.2696 -0.2993
14129TIP3    H163878   0.251   4.190  15.290 -0.2333  0.6700 -1.6335
14129TIP3    H263879   0.181   4.296  15.373  0.9808  0.8602 -0.8149
14130TIP3   OH263880   4.439   3.656  14.495 -0.2508 -0.0959  0.2293
14130TIP3    H163881   4.388   3.696  14.566 -0.7924  0.1845 -0.3112
14130TIP3    H263882   4.524   3.699  14.501  0.0380 -0.7734  1.3231
14131TIP3   OH263883   2.936   2.198   1.294 -0.1147  0.4842  0.4651
14131TIP3    H163884   2.991   2.270   1.264  1.1186  0.1241  1.7047
14131TIP3    H263885   2.852   2.211   1.251  1.0549  0.8265 -1.8691
14132TIP3   OH263886   1.512   5.658   5.408 -0.4173  0.2100  0.2251
14132TIP3    H163887   1.471   5.672   5.493 -0.2009 -0.4855  0.4528
14132TIP3    H263888   1.499   5.740   5.361  1.5432  1.5293  1.7928
14133TIP3   OH263889   4.905   2.880  15.269  0.2160  0.2058  0.2865
14133TIP3    H163890   4.860   2.887  15.185  0.7106 -0.5062 -0.0521
14133TIP3    H263891   4.897   2.967  15.308 -0.9473  0.2462 -0.0071
14134TIP3   OH263892   3.089   4.991  16.636  0.0958 -0.4284  0.1682
14134TIP3    H163893   3.158   5.010  16.700  0.0956 -0.9165  0.3165
14134TIP3    H263894   3.083   4.896  16.635  0.9835 -0.5076 -1.4966
14135TIP3   OH263895   4.173   2.838  16.816 -0.2584 -0.0970 -0.1661
14135TIP3    H163896   4.123   2.761  16.843 -1.5033  0.6618 -0.2510
14135TIP3    H263897   4.138   2.910  16.870  1.2773  0.3228  0.3269
14136TIP3   OH263898   0.395   2.756   2.312  0.2933 -0.1951  0.0637
14136TIP3    H163899   0.422   2.705   2.388  0.2652 -0.3210 -0.0098
14136TIP3    H263900   0.357   2.835   2.349  1.3406  0.2777  0.1560
14137TIP3   OH263901   0.347   2.690  11.464 -0.0525 -0.2259  0.6921
14137TIP3    H163902   0.304   2.613  11.502 -0.3873  0.6869  2.2614
14137TIP3    H263903   0.309   2.697  11.376 -0.4188 -1.5261  0.7223
14138TIP3   OH263904   6.109   1.677   4.678  0.1608 -0.0203 -0.2369
14138TIP3    H163905   6.088   1.771   4.684  0.9346  0.3140 -1.9252
14138TIP3    H263906   6.037   1.633   4.722 -0.8341  1.3302 -0.4361
14139TIP3   OH263907   6.642   0.480   4.237  0.3255 -0.0682 -0.4027
14139TIP3    H163908   6.724   0.445   4.203 -0.2156 -1.7477 -0.0984
14139TIP3    H263909   6.574   0.443   4.181 -0.3683 -0.5284  0.7013
14140TIP3   OH263910   1.056   3.679  16.995  0.4315 -0.0431 -0.4942
14140TIP3    H163911   1.089   3.678  16.906  0.7534  3.0416 -0.5074
14140TIP3    H263912   1.114   3.739  17.042 -1.8355  1.2477  0.8484
14141TIP3   OH263913   6.162   0.866  17.071  0.3658 -0.6755  0.6263
14141TIP3    H163914   6.107   0.944  17.067  1.5622  0.1822 -2.3404
14141TIP3    H263915   6.252   0.900  17.066  0.9073 -2.1947 -1.3380
14142TIP3   OH263916   1.261   5.574  13.184 -1.0527  0.0222 -0.5337
14142TIP3    H163917   1.343   5.616  13.156 -2.0214  1.2539 -1.6396
14142TIP3    H263918   1.263   5.489  13.142  0.4557 -0.7028  0.8813
14143TIP3   OH263919   3.045   5.866  17.121 -0.0558  0.4623  0.2829
14143TIP3    H163920   2.958   5.907  17.124  0.2168  1.0186  2.6373
14143TIP3    H263921   3.036   5.787  17.173  0.0892 -1.2820 -2.1630
14144TIP3   OH263922   6.673   5.634   3.744  0.3428  0.2602 -0.0916
14144TIP3    H163923   6.672   5.582   3.824 -1.0578 -0.3961 -0.4997
14144TIP3    H263924   6.644   5.573   3.676 -0.4384  1.3290 -0.7461
14145TIP3   OH263925   6.809   3.611   4.272  0.1571  0.6403 -0.0514
14145TIP3    H163926   6.880   3.666   4.305 -0.8449  0.8342  1.9071
14145TIP3    H263927   6.853   3.534   4.236  1.3646  0.4071  1.7721
14146TIP3   OH263928   1.606   6.678  14.583 -0.3032  0.4840 -0.2837
14146TIP3    H163929   1.542   6.715  14.522 -1.1955  0.3051  0.5144
14146TIP3    H263930   1.555   6.617  14.637  0.3731  0.9186  0.8845
14147TIP3   OH263931   5.304   1.302  12.935 -0.0365  0.0811 -0.1527
14147TIP3    H163932   5.222   1.343  12.906  0.1443  0.4363 -0.1683
14147TIP3    H263933   5.281   1.261  13.018  0.0339  1.1530  0.4194
14148TIP3   OH263934   0.700   1.901   0.901 -0.2219  0.1739  0.0263
14148TIP3    H163935   0.615   1.879   0.864  0.6403 -0.8318 -1.4603
14148TIP3    H263936   0.681   1.971   0.964 -1.8863  1.4621 -1.7677
14149TIP3   OH263937   5.117   0.700  15.289  0.3383  0.3048  0.1032
14149TIP3    H163938   5.190   0.739  15.240 -0.4228  0.1716 -1.1647
14149TIP3    H263939   5.160   0.654  15.361  1.5834 -0.3280 -0.9820
14150TIP3   OH263940   4.795   3.044  14.082 -0.4028 -0.2642 -0.0963
14150TIP3    H163941   4.830   3.128  14.056  1.1464 -0.7756  0.2240
14150TIP3    H263942   4.709   3.064  14.119  0.5562  1.3839  1.3894
14151TIP3   OH263943   1.029   0.396  14.611  0.4734  0.2158  0.2941
14151TIP3    H163944   0.947   0.446  14.609  1.3080  1.7988 -3.3998
14151TIP3    H263945   1.068   0.417  14.696 -1.4637  2.0494  0.8216
14152TIP3   OH263946   2.012   6.309   0.677  0.0150  0.7723 -0.3971
14152TIP3    H163947   1.990   6.317   0.770  1.0604 -2.4579  0.2787
14152TIP3    H263948   1.929   6.293   0.634 -0.1275 -3.4216  0.9638
14153TIP3   OH263949   1.788   0.312  15.345  0.4188  0.2431  0.1969
14153TIP3    H163950   1.698   0.344  15.351 -0.1175 -1.1137 -0.3842
14153TIP3    H263951   1.823   0.322  15.434 -1.4777 -2.5408  1.4003
14154TIP3   OH263952   6.257   5.274   4.635  0.2776  0.3148  0.4447
14154TIP3    H163953   6.258   5.336   4.563 -1.2421 -0.1252 -0.0027
14154TIP3    H263954   6.207   5.199   4.601  4.2132 -2.3792  0.0020
14155TIP3   OH263955   4.580   6.107  16.386  0.3159 -0.0856 -0.4997
14155TIP3    H163956   4.531   6.071  16.312  0.6033 -0.4849 -0.5037
14155TIP3    H263957   4.532   6.186  16.411  1.2214  1.0783 -2.2655
14156TIP3   OH263958   3.508   4.952  13.756 -0.3551  0.2752  0.6354
14156TIP3    H163959   3.424   4.979  13.794 -0.7658 -0.0102 -0.0438
14156TIP3    H263960   3.507   4.857  13.762 -0.0449  0.2772  0.6973
14157TIP3   OH263961   3.130   2.683  13.339 -0.3271  0.2816 -0.2886
14157TIP3    H163962   3.169   2.762  13.301  0.2291 -0.8248 -2.1158
14157TIP3    H263963   3.206   2.629  13.363 -0.6806 -0.8365 -1.5849
14158TIP3   OH263964   1.560   5.646  14.464 -0.2362 -0.2350 -0.5755
14158TIP3    H163965   1.514   5.630  14.547  0.1592 -0.0882 -0.3214
14158TIP3    H263966   1.609   5.566  14.448  1.0302  0.3418  0.2275
14159TIP3   OH263967   3.053   0.564  13.037 -0.3477 -0.5143  0.3097
14159TIP3    H163968   3.076   0.651  13.005 -0.1336 -0.9435 -0.7444
14159TIP3    H263969   2.975   0.540  12.986  0.1683 -1.3298 -0.1086
14160TIP3   OH263970   3.185   6.477   5.617  0.1403 -0.0927  0.1039
14160TIP3    H163971   3.143   6.477   5.703 -0.4506  0.1897 -0.1781
14160TIP3    H263972   3.264   6.530   5.628 -0.4614  0.7988  0.2284
14161TIP3   OH263973   2.321   5.623  13.911  0.0537  0.1038 -0.1265
14161TIP3    H163974   2.266   5.700  13.925 -0.6244 -0.3251 -0.3845
14161TIP3    H263975   2.403   5.643  13.957 -0.6688  0.3588  1.0856
14162TIP3   OH263976   4.857   0.416  16.387  0.0947  0.4440 -0.4923
14162TIP3    H163977   4.763   0.406  16.379  0.2004 -0.5846 -0.5480
14162TIP3    H263978   4.892   0.327  16.381  0.9338  0.6100  1.2992
14163TIP3   OH263979   0.946   4.834  12.151 -0.7750  0.0036 -0.5485
14163TIP3    H163980   1.042   4.836  12.150 -0.7755  0.7635 -0.0705
14163TIP3    H263981   0.924   4.827  12.244 -1.1847  0.1512 -0.6324
14164TIP3   OH263982   0.403   3.995  14.159  0.2106 -0.1286 -0.2600
14164TIP3    H163983   0.406   4.055  14.084 -0.0580  0.0546 -0.1261
14164TIP3    H263984   0.403   4.053  14.235 -3.2029 -0.0813 -0.1111
14165TIP3   OH263985   4.757   3.303  12.103  0.2933 -0.4731 -0.0910
14165TIP3    H163986   4.752   3.213  12.069 -1.6142 -1.3624  2.2494
14165TIP3    H263987   4.730   3.295  12.194 -0.3290  2.5722  0.0708
14166TIP3   OH263988   6.808   3.508   0.365  0.3715  0.3202  0.1139
14166TIP3    H163989   6.767   3.428   0.329  1.1126  0.5587 -1.3294
14166TIP3    H263990   6.901   3.486   0.371  0.5670  1.0491 -0.2280
14167TIP3   OH263991   3.021   4.770   0.540 -0.4074 -0.0610  0.5936
14167TIP3    H163992   2.950   4.811   0.492 -0.8506 -0.1797  1.1441
14167TIP3    H263993   2.979   4.725   0.613  0.4670  2.5775  2.8779
14168TIP3   OH263994   3.602   5.150  15.580 -0.8804  0.4394  0.0334
14168TIP3    H163995   3.670   5.158  15.646 -0.5834 -3.0994  0.3562
14168TIP3    H263996   3.648   5.149  15.496 -0.5492 -1.1187  0.2046
14169TIP3   OH263997   1.395   5.422  15.374 -0.6410  0.2333 -0.4231
14169TIP3    H163998   1.413   5.508  15.336 -1.0502  0.3471 -0.3679
14169TIP3    H263999   1.459   5.364  15.333  0.9399  0.9028  0.9580
14170TIP3   OH264000   2.152   3.449  13.219  0.8615  0.4026 -0.0858
14170TIP3    H164001   2.095   3.388  13.173 -1.5790  1.9672  0.6611
14170TIP3    H264002   2.131   3.535  13.182  2.1276  1.1472  0.8263
14171TIP3   OH264003   2.685   2.903  13.684 -0.7055 -0.2703  0.1701
14171TIP3    H164004   2.647   2.987  13.712 -0.1368  0.6295 -1.6524
14171TIP3    H264005   2.642   2.883  13.601 -0.2944 -1.4247  0.2129
14172TIP3   OH264006   3.509   2.220   3.163  0.2767 -0.1654  0.0364
14172TIP3    H164007   3.577   2.283   3.190 -0.7334  0.6959  0.6547
14172TIP3    H264008   3.523   2.209   3.069  1.9217 -0.8320  0.3092
14173TIP3   OH264009   1.386   1.919  11.448 -0.7202  0.0181 -0.5150
14173TIP3    H164010   1.463   1.940  11.500 -0.5279 -1.1185 -0.3175
14173TIP3    H264011   1.352   2.004  11.420  1.0494  0.5245 -1.2723
14174TIP3   OH264012   2.169   6.732  12.051  0.0761  0.8841 -0.3619
14174TIP3    H164013   2.087   6.781  12.039  0.2076  0.7832 -1.7970
14174TIP3    H264014   2.152   6.647  12.011 -0.3452 -0.5418  2.5925
14175TIP3   OH264015   4.601   3.345   5.829 -0.5685 -0.3014  0.1762
14175TIP3    H164016   4.673   3.405   5.807 -1.3322  0.4950 -0.2075
14175TIP3    H264017   4.615   3.269   5.772  1.0073 -0.9925  1.3969
14176TIP3   OH264018   5.315   6.592   3.673 -0.0870 -0.6798  0.1462
14176TIP3    H164019   5.362   6.552   3.746 -1.5793  0.6310  1.8965
14176TIP3    H264020   5.329   6.532   3.600  1.2938 -2.1396  1.5353
14177TIP3   OH264021   6.821   3.372  12.787 -0.3554 -0.2897  0.2509
14177TIP3    H164022   6.842   3.295  12.840 -1.9382 -0.9545 -0.0497
14177TIP3    H264023   6.884   3.370  12.715  0.0056 -0.9547  0.5811
14178TIP3   OH264024   5.418   2.639   4.094 -0.4682 -0.1027  0.5972
14178TIP3    H164025   5.384   2.568   4.039 -2.1562  1.7451 -0.8899
14178TIP3    H264026   5.351   2.652   4.161  1.1821 -1.7621  2.7134
14179TIP3   OH264027   1.648   3.940   5.795 -0.4906  0.4917  0.4685
14179TIP3    H164028   1.592   3.971   5.865 -0.3862  2.0276 -0.0804
14179TIP3    H264029   1.736   3.939   5.833 -0.5045  0.8508  0.5184
14180TIP3   OH264030   4.270   4.209   2.934 -0.1255 -0.1152  0.5585
14180TIP3    H164031   4.274   4.115   2.950 -0.5713 -0.5892 -1.7677
14180TIP3    H264032   4.242   4.217   2.843 -4.4092  2.3155  1.8303
14181TIP3   OH264033   0.239   6.352   1.873  0.9673 -0.0039 -0.3922
14181TIP3    H164034   0.222   6.268   1.916  2.1420 -0.0847 -0.0488
14181TIP3    H264035   0.265   6.328   1.783 -1.4150  0.1611 -1.1763
14182TIP3   OH264036   6.552   5.370  16.823 -0.1369  0.0874 -0.6520
14182TIP3    H164037   6.572   5.336  16.736  0.5455  1.0467 -0.8870
14182TIP3    H264038   6.469   5.328  16.847 -0.3879 -0.1027 -1.8035
14183TIP3   OH264039   6.784   5.425  12.730  0.0094 -0.0392  0.6690
14183TIP3    H164040   6.779   5.341  12.684  1.1547 -1.1523  2.4418
14183TIP3    H264041   6.705   5.427  12.784  0.6006 -0.6162  1.5856
14184TIP3   OH264042   5.258   0.587   4.998  0.0247  0.1282  0.4366
14184TIP3    H164043   5.218   0.672   4.982 -0.7901 -0.4912 -0.9848
14184TIP3    H264044   5.306   0.568   4.918  0.7139 -0.4935  0.9813
14185TIP3   OH264045   5.668   3.999   0.444 -0.3994 -0.0174  0.2185
14185TIP3    H164046   5.761   3.975   0.450 -0.6257 -1.1534 -0.4536
14185TIP3    H264047   5.669   4.090   0.414  0.4920  0.0209  0.3194
14186TIP3   OH264048   6.689   3.512   4.724 -0.0894 -0.1716  0.4675
14186TIP3    H164049   6.611   3.557   4.755 -0.1928  0.8568 -1.1439
14186TIP3    H264050   6.754   3.582   4.714  0.3858 -0.6937 -0.1642
14187TIP3   OH264051   5.272   0.648   5.708  0.0844 -0.9761 -0.2880
14187TIP3    H164052   5.291   0.559   5.677 -0.6826 -1.5953  0.9650
14187TIP3    H264053   5.290   0.645   5.802  0.0775  0.2129 -0.2360
14188TIP3   OH264054   6.541   0.532   1.462 -0.2102 -0.3706 -0.5398
14188TIP3    H164055   6.459   0.495   1.430 -0.2259  0.0078 -0.9425
14188TIP3    H264056   6.601   0.526   1.388 -0.3843  0.9330 -0.8113
14189TIP3   OH264057   0.169   0.802  12.291 -0.0119 -0.1727  0.3941
14189TIP3    H164058   0.083   0.824  12.326 -0.1130 -0.1213  0.1181
14189TIP3    H264059   0.163   0.825  12.198 -0.2327 -1.6331  0.0204
14190TIP3   OH264060   0.898   0.641   4.528  0.2116  0.1514  0.2454
14190TIP3    H164061   0.863   0.616   4.443  1.1509  0.9216 -0.3908
14190TIP3    H264062   0.892   0.561   4.581 -1.0669 -0.1332 -0.2950
14191TIP3   OH264063   4.403   0.436  15.824 -0.6397  0.3797 -0.1203
14191TIP3    H164064   4.418   0.527  15.798 -2.1615  1.0101  0.9795
14191TIP3    H264065   4.354   0.398  15.751  0.1890  0.3647 -0.6798
14192TIP3   OH264066   6.082   6.203  11.772  0.5233  0.3447 -0.1455
14192TIP3    H164067   6.081   6.170  11.682  1.1481 -0.4396  0.1182
14192TIP3    H264068   6.130   6.136  11.821  0.1480  0.7365  0.7821
14193TIP3   OH264069   6.694   0.505   1.764  0.4438 -0.2687  0.3190
14193TIP3    H164070   6.656   0.488   1.678  1.1757  1.4240 -0.3791
14193TIP3    H264071   6.625   0.553   1.812  0.6928  0.4218  0.0025
14194TIP3   OH264072   6.693   4.005   3.669  0.8369  0.2818  0.8477
14194TIP3    H164073   6.709   3.964   3.755  2.1968  0.5149  0.7396
14194TIP3    H264074   6.713   4.097   3.683 -0.0879  0.5368  0.5531
14195TIP3   OH264075   3.373   5.057   4.085 -0.4369  0.0873  0.2093
14195TIP3    H164076   3.408   4.972   4.109 -0.2948 -0.2508 -1.1168
14195TIP3    H264077   3.281   5.054   4.110 -0.5690 -0.6766 -0.3401
14196TIP3   OH264078   1.779   5.489   5.351  0.2949  0.2833 -0.0334
14196TIP3    H164079   1.717   5.432   5.396  0.9832  0.1549  0.7817
14196TIP3    H264080   1.795   5.561   5.412  1.8560 -0.3113  0.3243
14197TIP3   OH264081   2.229   6.497  17.123  0.0250  0.2165  0.1911
14197TIP3    H164082   2.185   6.489  17.038 -0.9904 -0.0266  0.7291
14197TIP3    H264083   2.277   6.414  17.132  0.1549  0.2514 -0.1451
14198TIP3   OH264084   2.657   0.618   1.210 -0.3593 -0.5177  0.2425
14198TIP3    H164085   2.722   0.683   1.236  2.1266 -1.5153 -2.8821
14198TIP3    H264086   2.703   0.534   1.215 -0.9694 -1.1764 -2.8645
14199TIP3   OH264087   0.673   4.782   5.269 -0.0134 -0.0579  0.0300
14199TIP3    H164088   0.647   4.778   5.361  1.5306 -1.3930  0.4344
14199TIP3    H264089   0.764   4.812   5.271  0.3383 -0.9965 -0.9948
14200TIP3   OH264090   5.622   4.018  16.109 -0.3191  0.6065 -0.8258
14200TIP3    H164091   5.662   4.038  16.194  0.4398  0.0269 -1.0314
14200TIP3    H264092   5.668   3.939  16.079 -1.8424 -0.2853 -0.9359
14201TIP3   OH264093   4.158   0.989   4.320 -0.1605 -0.3761  0.4066
14201TIP3    H164094   4.077   0.942   4.299  0.6283 -2.2315  1.2789
14201TIP3    H264095   4.204   0.932   4.381  2.8487 -0.5012 -1.7360
14202TIP3   OH264096   1.241   5.463   1.606 -0.2941 -0.1483  0.1446
14202TIP3    H164097   1.179   5.417   1.549  0.7043 -0.4409 -0.7342
14202TIP3    H264098   1.190   5.485   1.684 -1.8377  0.6520 -1.0236
14203TIP3   OH264099   0.805   1.997  10.970  0.2756  0.4314  0.2128
14203TIP3    H164100   0.892   1.960  10.953  0.7430  0.2362  2.7081
14203TIP3    H264101   0.813   2.038  11.056 -1.5988  2.1349 -0.3654
14204TIP3   OH264102   4.390   0.627  12.698  1.2460 -0.5008  0.3192
14204TIP3    H164103   4.369   0.622  12.605 -0.6872  0.2854  0.6710
14204TIP3    H264104   4.450   0.701  12.706  0.2284  0.4025 -0.1413
14205TIP3   OH264105   5.373   1.407   3.730  0.2637 -0.2021  0.1129
14205TIP3    H164106   5.322   1.330   3.753  1.3669 -0.7401  0.8390
14205TIP3    H264107   5.311   1.480   3.736 -1.2399 -1.1617 -2.2337
14206TIP3   OH264108   1.830   5.483  12.728  0.1161 -0.0166  0.2236
14206TIP3    H164109   1.896   5.551  12.713  1.7666 -1.6657 -0.3755
14206TIP3    H264110   1.870   5.425  12.792 -1.1670 -0.5641  0.5526
14207TIP3   OH264111   3.090   1.531   1.828 -0.3540 -0.0394 -0.1997
14207TIP3    H164112   3.134   1.612   1.856 -2.2546  1.0194 -0.1412
14207TIP3    H264113   3.090   1.476   1.906  2.8384 -1.0680 -0.7699
14208TIP3   OH264114   6.762   5.616   5.288  0.0104 -0.1678 -0.0979
14208TIP3    H164115   6.858   5.614   5.286  0.0304  0.0226  0.4620
14208TIP3    H264116   6.740   5.709   5.290 -0.1473 -0.2112  0.8994
14209TIP3   OH264117   0.902   1.067  12.699 -0.1652  0.1998 -0.1281
14209TIP3    H164118   0.961   1.123  12.750  1.1412 -0.2569 -1.0711
14209TIP3    H264119   0.818   1.112  12.700 -0.1460  0.2723  2.2733
14210TIP3   OH264120   4.110   6.582  15.228 -0.2916 -0.1523 -0.1781
14210TIP3    H164121   4.164   6.628  15.293  0.1146 -1.6055  0.5416
14210TIP3    H264122   4.143   6.492  15.229 -1.6576 -0.6809 -0.9271
14211TIP3   OH264123   0.398   5.955  14.749  0.7330  0.5878 -0.1198
14211TIP3    H164124   0.490   5.958  14.722  1.0700 -1.1191  0.6854
14211TIP3    H264125   0.352   5.918  14.673  0.8816  0.4966 -0.1662
14212TIP3   OH264126   0.904   1.763   3.047 -0.0417  0.6208  0.0012
14212TIP3    H164127   0.925   1.788   2.957 -0.5963  1.8403  0.2018
14212TIP3    H264128   0.979   1.794   3.098 -0.4177  1.2866  0.1567
14213TIP3   OH264129   2.562   3.376   5.078 -0.2219  0.1866 -0.4724
14213TIP3    H164130   2.578   3.346   4.988  1.0421  2.0667 -0.9278
14213TIP3    H264131   2.541   3.469   5.069 -0.0323  0.4153  1.1935
14214TIP3   OH264132   2.168   6.123  15.870 -0.4210  0.3081  0.0839
14214TIP3    H164133   2.217   6.188  15.921 -3.5770  2.2146  0.9138
14214TIP3    H264134   2.157   6.049  15.930  1.0675 -0.0437 -0.0240
14215TIP3   OH264135   1.398   2.994  11.602  0.3170  0.3998 -0.7307
14215TIP3    H164136   1.415   2.902  11.583 -2.9621 -0.5105  0.1999
14215TIP3    H264137   1.424   3.005  11.694 -0.6263 -0.0228 -0.4003
14216TIP3   OH264138   2.459   4.226  15.786 -0.0400  0.1943  0.6158
14216TIP3    H164139   2.506   4.246  15.705 -0.2495  0.7392  0.6255
14216TIP3    H264140   2.515   4.162  15.831  1.1215  1.4635  1.0257
14217TIP3   OH264141   0.368   1.350   1.815  0.8525  0.7056  0.7299
14217TIP3    H164142   0.311   1.284   1.776  3.6008 -3.6994  3.3502
14217TIP3    H264143   0.444   1.355   1.756  0.4387  2.0382  0.2745
14218TIP3   OH264144   2.737   5.315   3.421 -0.0981  0.8068 -0.1471
14218TIP3    H164145   2.662   5.282   3.371  0.2157  0.2039 -0.2410
14218TIP3    H264146   2.794   5.354   3.356 -0.0431  0.7013 -0.1632
14219TIP3   OH264147   0.573   6.101  16.696  0.5268  0.1365  0.4549
14219TIP3    H164148   0.486   6.077  16.728  0.2845 -0.1520 -0.3772
14219TIP3    H264149   0.556   6.155  16.619  1.0452 -1.3356 -0.7563
14220TIP3   OH264150   2.014   3.006  13.520  0.5922 -0.2172  0.4931
14220TIP3    H164151   2.071   2.979  13.593  0.7758 -0.4556  0.2641
14220TIP3    H264152   1.929   2.967  13.541  0.8354 -0.9120  0.2081
14221TIP3   OH264153   1.716   2.521  17.196 -0.1046  0.5056 -0.1955
14221TIP3    H164154   1.649   2.590  17.201 -0.0743  0.6072 -1.0930
14221TIP3    H264155   1.769   2.534  17.274 -1.6688 -0.1481  1.0413
14222TIP3   OH264156   1.329   4.581   1.577 -0.6607  0.4566 -0.0538
14222TIP3    H164157   1.263   4.587   1.508 -0.0263  0.6011 -0.6609
14222TIP3    H264158   1.327   4.667   1.620 -0.3475  0.7238 -0.5654
14223TIP3   OH264159   1.699   2.802  10.915  0.0609 -0.1282  0.2462
14223TIP3    H164160   1.774   2.755  10.877  0.3183  0.1634  0.3923
14223TIP3    H264161   1.622   2.754  10.883  0.3452 -1.2801  1.2339
14224TIP3   OH264162   3.240   3.601  14.446  0.6667 -0.4619 -0.0348
14224TIP3    H164163   3.222   3.514  14.409  2.6967 -0.8811 -0.1630
14224TIP3    H264164   3.238   3.587  14.541 -2.1095  0.0960  0.0937
14225TIP3   OH264165   4.067   0.802   5.425  0.0107  0.0589  0.3718
14225TIP3    H164166   4.141   0.754   5.463  1.5413 -0.3752 -2.8138
14225TIP3    H264167   4.094   0.894   5.431  1.7051 -0.1718 -2.1696
14226TIP3   OH264168   1.983   2.640   3.244 -0.4929 -0.0722 -0.0867
14226TIP3    H164169   1.909   2.673   3.193 -1.4721 -1.7770  0.1411
14226TIP3    H264170   1.955   2.651   3.335  0.6314  1.6070  0.0895
14227TIP3   OH264171   3.672   4.804   3.424 -0.3912 -0.0350 -0.3003
14227TIP3    H164172   3.595   4.763   3.464  0.7215  1.0690  3.3588
14227TIP3    H264173   3.744   4.746   3.447  0.1993 -0.0757 -2.0771
14228TIP3   OH264174   0.835   2.496  11.194 -0.0897 -0.2008  0.0323
14228TIP3    H164175   0.841   2.578  11.145 -0.0171  0.2123  0.7236
14228TIP3    H264176   0.859   2.428  11.131  1.5637  0.4566 -0.1025
14229TIP3   OH264177   3.720   4.071   5.735  0.2654 -0.5210  0.1297
14229TIP3    H164178   3.676   4.054   5.818 -0.8954  0.1221 -0.3409
14229TIP3    H264179   3.802   4.021   5.741 -0.8130 -2.2838  0.7592
14230TIP3   OH264180   2.069   2.604   2.216 -0.0667  0.3684 -0.0702
14230TIP3    H164181   1.997   2.547   2.188  0.8976 -1.4616  1.0240
14230TIP3    H264182   2.086   2.579   2.306 -0.6720  3.5736  1.0670
14231TIP3   OH264183   1.785   2.197  13.271 -0.4651  0.0114  0.2466
14231TIP3    H164184   1.703   2.151  13.290 -0.2525 -0.4380  0.0874
14231TIP3    H264185   1.817   2.157  13.190  0.7388 -0.9445  1.1662
14232TIP3   OH264186   4.195   4.900   3.059 -0.0662 -0.2419  0.1703
14232TIP3    H164187   4.177   4.823   3.005  1.4072 -0.1666 -0.4803
14232TIP3    H264188   4.121   4.958   3.043 -1.0830 -1.4150  0.4881
14233TIP3   OH264189   3.366   3.872   0.865  0.6972 -0.0152 -0.2126
14233TIP3    H164190   3.403   3.830   0.787  3.4409 -0.6868  1.2770
14233TIP3    H264191   3.340   3.959   0.836  1.5188 -0.2945 -1.9199
14234TIP3   OH264192   4.095   3.751   0.749  0.2179 -1.0680  0.4702
14234TIP3    H164193   4.147   3.740   0.670 -0.7995 -0.7199 -0.2692
14234TIP3    H264194   4.006   3.761   0.718 -0.3418 -1.9124  1.7314
14235TIP3   OH264195   0.383   5.947  10.513  0.2290  0.1367 -0.7306
14235TIP3    H164196   0.338   6.029  10.532 -1.0339 -0.9060  1.1131
14235TIP3    H264197   0.449   5.970  10.448 -0.8570  2.3636 -1.1259
14236TIP3   OH264198   4.490   3.070   3.286 -0.2810 -0.6031 -0.3591
14236TIP3    H164199   4.404   3.094   3.253  0.5302 -0.0815 -2.2196
14236TIP3    H264200   4.529   3.018   3.216  0.3763 -2.1112  1.0648
14237TIP3   OH264201   3.073   6.002  15.673  0.5976  0.1121 -0.3037
14237TIP3    H164202   3.032   6.083  15.643 -2.0639 -0.1499  2.1605
14237TIP3    H264203   3.139   6.030  15.736 -0.1554  0.4082  0.3687
14238TIP3   OH264204   4.140   3.244  10.529 -0.1297  0.0661  0.4108
14238TIP3    H164205   4.075   3.270  10.464 -0.1555  0.5973  0.6401
14238TIP3    H264206   4.153   3.151  10.514 -0.6523  0.0359  0.1024
14239TIP3   OH264207   2.210   5.695  15.906 -0.1833 -0.0418 -0.3354
14239TIP3    H164208   2.155   5.623  15.937  2.6485 -2.0188  0.4665
14239TIP3    H264209   2.193   5.699  15.812  0.9213 -3.1337 -0.7787
14240TIP3   OH264210   1.525   6.210   3.213 -0.0883 -0.4558 -0.2047
14240TIP3    H164211   1.448   6.214   3.269  0.0882  1.5754 -0.0279
14240TIP3    H264212   1.500   6.258   3.134  0.4985 -1.1403 -0.8286
14241TIP3   OH264213   4.946   6.604  11.412  0.5270 -0.2312  0.0257
14241TIP3    H164214   4.989   6.539  11.465  0.2349  0.2586  0.8807
14241TIP3    H264215   4.897   6.554  11.347  1.0728 -0.8242  0.0687
14242TIP3   OH264216   4.107   1.928  11.627  0.1873 -0.2598  0.0431
14242TIP3    H164217   4.095   1.835  11.606 -0.7596 -0.0376 -0.4581
14242TIP3    H264218   4.058   1.974  11.559 -3.1739  0.5064  2.6957
14243TIP3   OH264219   0.609   6.323  16.999  0.1291 -0.1325  0.2831
14243TIP3    H164220   0.595   6.300  16.907 -0.7607  3.4051 -0.6129
14243TIP3    H264221   0.522   6.341  17.033  0.3901 -1.8516  2.0812
14244TIP3   OH264222   4.388   6.723  12.504 -0.0722 -0.1733 -0.3103
14244TIP3    H164223   4.424   6.741  12.591 -0.6524 -0.3233 -0.0360
14244TIP3    H264224   4.311   6.670  12.521  0.9486 -1.9523 -1.0352
14245TIP3   OH264225   6.785   1.526   1.736 -0.2551 -0.0085 -0.1413
14245TIP3    H164226   6.773   1.584   1.811  1.6783 -0.0832  0.2912
14245TIP3    H264227   6.697   1.501   1.710 -1.1528  2.5727  0.0871
14246TIP3   OH264228   4.508   2.854  17.064  0.0275 -0.3951 -0.2087
14246TIP3    H164229   4.532   2.766  17.093  0.6563  0.2940  1.5195
14246TIP3    H264230   4.413   2.859  17.076  0.3600  0.3396  3.5383
14247TIP3   OH264231   0.331   6.453   6.244 -0.0313  0.0868  0.2785
14247TIP3    H164232   0.406   6.484   6.193  0.3127  0.8618  1.2235
14247TIP3    H264233   0.369   6.399   6.313 -0.4424 -0.4634  0.0810
14248TIP3   OH264234   2.211   3.254  16.782 -0.1389  0.1447 -0.1350
14248TIP3    H164235   2.185   3.163  16.775  0.0282 -0.0743  1.5456
14248TIP3    H264236   2.293   3.252  16.833 -0.6727  1.2791  0.8316
14249TIP3   OH264237   0.215   3.542   2.750 -0.1755  0.4304  0.0825
14249TIP3    H164238   0.122   3.555   2.736 -0.2954 -1.2282 -0.8823
14249TIP3    H264239   0.221   3.464   2.805  0.6360  0.6251  0.2830
14250TIP3   OH264240   2.927   6.819   5.127  0.2801  0.4530 -0.1168
14250TIP3    H164241   2.857   6.845   5.187  1.3637  1.8123  0.6184
14250TIP3    H264242   2.998   6.791   5.185  0.1461 -1.5580 -0.8601
14251TIP3   OH264243   3.340   2.611  16.579  0.5004 -0.0273 -0.5456
14251TIP3    H164244   3.375   2.638  16.494  1.7397 -2.2662 -0.8131
14251TIP3    H264245   3.247   2.635  16.575  0.8963  1.4375 -1.8421
14252TIP3   OH264246   6.176   4.392  15.972  0.1086 -0.3041 -0.1500
14252TIP3    H164247   6.161   4.467  16.030  1.7777 -0.6514  0.7832
14252TIP3    H264248   6.089   4.371  15.938 -1.3487 -1.2069  3.6343
14253TIP3   OH264249   6.170   1.843   3.253  0.5371  0.0989  0.5885
14253TIP3    H164250   6.167   1.764   3.199  0.9388  0.4763 -0.0047
14253TIP3    H264251   6.259   1.877   3.240  0.0941  1.1198  0.1275
14254TIP3   OH264252   5.539   2.392   1.727  0.3639 -0.1071  0.3074
14254TIP3    H164253   5.518   2.480   1.695  1.1674 -0.5811 -1.6450
14254TIP3    H264254   5.531   2.399   1.822  0.6576  2.1401  0.2205
14255TIP3   OH264255   4.593   0.203  14.938  0.3742  0.3873  0.5604
14255TIP3    H164256   4.579   0.110  14.954  0.3749  0.0101 -1.3716
14255TIP3    H264257   4.509   0.244  14.961  0.4013 -0.0547  1.4910
14256TIP3   OH264258   4.408   3.137  10.620  0.9388 -0.5346  0.0754
14256TIP3    H164259   4.482   3.197  10.612  0.4162 -0.0355 -1.5179
14256TIP3    H264260   4.333   3.188  10.588  0.8238 -2.5946 -3.3964
14257TIP3   OH264261   3.431   6.651   5.606 -0.8286  0.2634  0.3558
14257TIP3    H164262   3.501   6.681   5.664 -0.3449  2.4510 -1.2151
14257TIP3    H264263   3.456   6.562   5.582  0.9274  0.6471  0.6000
14258TIP3   OH264264   0.212   3.378   0.273 -0.5699 -0.4625  0.9390
14258TIP3    H164265   0.210   3.284   0.293  1.4599 -0.6061  0.7011
14258TIP3    H264266   0.263   3.384   0.192 -0.8678  0.8404  0.8232
14259TIP3   OH264267   0.611   4.520  15.380  0.0382 -0.7496 -0.1058
14259TIP3    H164268   0.604   4.615  15.375 -0.1710 -0.7872 -0.5556
14259TIP3    H264269   0.556   4.496  15.455  1.3857 -0.3829  1.0619
14260TIP3   OH264270   2.194   3.779   0.251  0.3510  0.1023  0.0904
14260TIP3    H164271   2.195   3.684   0.263 -0.4414  0.2137  1.2186
14260TIP3    H264272   2.103   3.805   0.269  0.0409  0.8511 -2.2416
14261TIP3   OH264273   5.742   4.671   5.488 -0.4175 -0.2323 -0.0755
14261TIP3    H164274   5.706   4.738   5.430  0.6461 -0.5269 -1.1095
14261TIP3    H264275   5.815   4.715   5.533 -2.0776  0.4292  2.1669
14262TIP3   OH264276   4.169   0.905   0.827  0.1229 -0.3239  0.0248
14262TIP3    H164277   4.123   0.976   0.871  1.8889  0.7630  0.1834
14262TIP3    H264278   4.099   0.848   0.794 -1.3158  1.3805  0.0227
14263TIP3   OH264279   2.695   1.525  16.918  0.5200 -0.3300 -0.3596
14263TIP3    H164280   2.677   1.432  16.933 -0.0061  0.1502  2.5693
14263TIP3    H264281   2.609   1.567  16.920  0.7683  0.2715 -1.4687
14264TIP3   OH264282   3.875   0.136   1.101 -0.3861  0.4287  0.4688
14264TIP3    H164283   3.885   0.136   1.196  2.9590  1.2806  0.2698
14264TIP3    H264284   3.840   0.050   1.080  1.4561 -0.8901  2.3521
14265TIP3   OH264285   1.012   6.296  13.283 -0.0850  0.2767 -0.7620
14265TIP3    H164286   0.953   6.249  13.223  1.1396 -1.1710 -0.8887
14265TIP3    H264287   0.959   6.311  13.361 -0.5515 -1.3204 -0.7317
14266TIP3   OH264288   3.953   0.267  13.423  0.2867  0.3256 -0.4888
14266TIP3    H164289   3.914   0.349  13.456 -0.4731 -0.2220  0.0235
14266TIP3    H264290   4.045   0.272  13.449  0.0398  0.6018  0.3605
14267TIP3   OH264291   6.769   6.350  12.757  0.0565  0.1830  0.0321
14267TIP3    H164292   6.848   6.300  12.776  0.2401 -0.3921 -2.0265
14267TIP3    H264293   6.793   6.407  12.685 -0.9057  1.3681  0.6117
14268TIP3   OH264294   0.504   1.264   1.570  0.4035 -0.2259 -0.5641
14268TIP3    H164295   0.437   1.214   1.616  2.0372 -0.6871  1.4920
14268TIP3    H264296   0.479   1.260   1.478 -2.1764 -0.6223  0.0764
14269TIP3   OH264297   2.002   4.382   4.349  0.0713  0.3356  0.3245
14269TIP3    H164298   2.014   4.364   4.443 -0.2053 -2.8989 -0.1383
14269TIP3    H264299   1.910   4.361   4.333  0.2354  0.3923 -0.7488
14270TIP3   OH264300   2.032   5.615   2.034  0.5798 -0.1571  0.2191
14270TIP3    H164301   2.060   5.600   1.943 -0.1913  1.1513 -0.2552
14270TIP3    H264302   2.013   5.527   2.067  1.6125 -0.7295 -0.6208
14271TIP3   OH264303   0.580   2.286  16.121 -0.7167 -0.4101  0.1916
14271TIP3    H164304   0.537   2.337  16.052 -2.3796  0.0768  1.5265
14271TIP3    H264305   0.561   2.334  16.201  1.7330 -0.6080  0.9598
14272TIP3   OH264306   1.206   5.273   2.848 -0.2360  0.1389  0.0618
14272TIP3    H164307   1.127   5.223   2.828 -0.5351  1.1184 -1.4130
14272TIP3    H264308   1.218   5.263   2.942 -1.4401 -1.0014  0.1220
14273TIP3   OH264309   0.363   0.439   5.185  0.3197 -0.2178  0.1763
14273TIP3    H164310   0.281   0.485   5.204  0.8228  0.1873  1.5086
14273TIP3    H264311   0.382   0.461   5.094  0.9884  3.0184  0.9638
14274TIP3   OH264312   6.005   1.929   5.901  0.0186  0.6113 -0.2889
14274TIP3    H164313   6.015   1.950   5.994 -1.8342  1.6801 -0.2798
14274TIP3    H264314   5.945   1.854   5.899  0.3819  0.3225 -0.6164
14275TIP3   OH264315   4.851   3.405  15.595  0.5050  0.1157 -0.3099
14275TIP3    H164316   4.803   3.323  15.587 -0.6209  0.7269 -0.0825
14275TIP3    H264317   4.942   3.379  15.606 -0.0446 -1.1828  1.7430
14276TIP3   OH264318   1.363   3.141  14.127 -0.8040  0.5494  0.5911
14276TIP3    H164319   1.449   3.178  14.109 -0.3662  0.5932  2.5717
14276TIP3    H264320   1.345   3.083  14.053  0.7145  0.9088 -0.0809
14277TIP3   OH264321   5.480   2.431   5.937  0.0840  0.0846 -0.0309
14277TIP3    H164322   5.465   2.398   6.025 -2.5577 -0.1034 -0.4671
14277TIP3    H264323   5.495   2.353   5.884 -1.2314 -0.0617 -0.2150
14278TIP3   OH264324   4.246   5.569   0.381  0.5136  0.1670  0.2739
14278TIP3    H164325   4.171   5.602   0.431  0.7293 -0.0948  0.7737
14278TIP3    H264326   4.317   5.630   0.401  0.6860 -0.1209  0.5343
14279TIP3   OH264327   6.154   4.955   3.043  0.5371  0.0490 -0.4424
14279TIP3    H164328   6.243   4.984   3.023  0.7032 -0.7542 -0.8968
14279TIP3    H264329   6.100   4.991   2.973  0.8018 -1.0219 -1.2233
14280TIP3   OH264330   0.588   6.112  15.671 -0.7769  0.4653 -0.4159
14280TIP3    H164331   0.660   6.081  15.616 -0.7834 -0.4608  0.0922
14280TIP3    H264332   0.509   6.083  15.626 -0.7668 -1.5344  0.7579
14281TIP3   OH264333   5.153   4.226   1.536 -0.3271  0.4414 -0.0319
14281TIP3    H164334   5.118   4.313   1.555 -0.1123  0.8834 -1.5393
14281TIP3    H264335   5.076   4.173   1.514 -0.3621  0.5034 -0.0573
14282TIP3   OH264336   3.027   4.115   6.108  0.0976 -0.2321  0.1323
14282TIP3    H164337   3.082   4.036   6.113  0.5332  0.0279 -0.5206
14282TIP3    H264338   2.952   4.095   6.164  0.5635 -0.8268  0.5568
14283TIP3   OH264339   5.171   6.452   3.054 -0.0544 -0.7010 -0.6136
14283TIP3    H164340   5.239   6.389   3.033 -0.3716 -1.6962  1.1377
14283TIP3    H264341   5.146   6.490   2.970  1.0311 -2.0001 -1.5532
14284TIP3   OH264342   0.940   1.893  13.913  0.3570  0.3799 -0.6047
14284TIP3    H164343   0.992   1.942  13.849 -2.7066  1.1814 -2.7026
14284TIP3    H264344   0.852   1.930  13.905 -0.9945 -2.1422  1.3779
14285TIP3   OH264345   5.496   5.078   6.246  0.1367 -0.1209 -0.0525
14285TIP3    H164346   5.416   5.129   6.262  0.6742  0.4781  0.8122
14285TIP3    H264347   5.510   5.029   6.327 -0.0798 -1.2718 -0.6877
14286TIP3   OH264348   3.333   1.728   3.746 -0.3245  0.2090 -0.2495
14286TIP3    H164349   3.282   1.647   3.748 -2.8484  1.6768 -0.9458
14286TIP3    H264350   3.392   1.717   3.671  0.1205 -1.3426  0.2791
14287TIP3   OH264351   5.385   5.775   2.549 -0.1539  0.5387  0.4855
14287TIP3    H164352   5.415   5.839   2.485 -1.2414 -0.2873 -0.8956
14287TIP3    H264353   5.443   5.699   2.537 -1.0212 -0.0242 -0.3029
14288TIP3   OH264354   4.792   4.992  12.798  0.0669 -0.1846  0.1751
14288TIP3    H164355   4.755   4.907  12.776  0.2743 -0.1231 -0.4242
14288TIP3    H264356   4.887   4.977  12.804  0.2508  0.2584 -1.2304
14289TIP3   OH264357   5.407   2.733  13.354 -0.0280  0.0611 -0.2481
14289TIP3    H164358   5.462   2.728  13.432  0.4114 -2.9216 -0.6294
14289TIP3    H264359   5.466   2.762  13.285  0.1699  0.3342  0.0312
14290TIP3   OH264360   3.965   3.210  11.489 -0.1558 -0.1880 -0.4994
14290TIP3    H164361   3.900   3.228  11.557 -1.1396  0.1978 -1.4972
14290TIP3    H264362   3.957   3.116  11.472  0.7879 -0.4772  0.5851
14291TIP3   OH264363   4.995   1.434   4.773  0.0059 -0.0087 -0.2241
14291TIP3    H164364   5.074   1.382   4.788 -0.1389 -0.2162 -0.1702
14291TIP3    H264365   4.928   1.369   4.750 -0.0678  0.1993 -0.5898
14292TIP3   OH264366   6.114   6.057  15.584  0.0255 -0.5992 -0.4414
14292TIP3    H164367   6.141   5.967  15.601  0.8205 -0.0235  1.7405
14292TIP3    H264368   6.032   6.068  15.632 -0.3015 -0.2929 -1.0632
14293TIP3   OH264369   4.457   0.870  12.847  0.3026 -0.3200  0.2558
14293TIP3    H164370   4.514   0.875  12.770  0.9702 -2.9343  0.4928
14293TIP3    H264371   4.517   0.885  12.921 -0.0443  0.6463  0.3464
14294TIP3   OH264372   2.082   0.163   1.570  0.0274 -0.2990  0.0914
14294TIP3    H164373   1.988   0.176   1.584  0.0312  0.1544 -0.2581
14294TIP3    H264374   2.091   0.069   1.553 -0.3470 -0.3635  0.2416
14295TIP3   OH264375   5.412   2.748   3.800  0.3891  0.8226 -0.2705
14295TIP3    H164376   5.403   2.782   3.889  0.6212 -1.1408  0.5506
14295TIP3    H264377   5.501   2.715   3.796  1.4677  3.6100 -2.3112
14296TIP3   OH264378   0.534   2.329   2.525  0.2609  0.6410 -0.0750
14296TIP3    H164379   0.555   2.418   2.554 -0.3691  1.1526 -1.1671
14296TIP3    H264380   0.609   2.303   2.472  0.6398  0.3385  0.5858
14297TIP3   OH264381   5.604   2.832   3.298 -0.3996  0.3796  0.2422
14297TIP3    H164382   5.526   2.883   3.320 -0.1622  0.4930  0.8545
14297TIP3    H264383   5.646   2.880   3.227 -0.0929  1.1440  0.9191
14298TIP3   OH264384   5.919   5.989  16.753 -0.2047  0.1197  0.0789
14298TIP3    H164385   5.910   6.080  16.783  1.3985  0.6339 -0.9216
14298TIP3    H264386   5.895   5.992  16.661  0.6075 -0.3151 -0.1527
14299TIP3   OH264387   2.583   4.275  16.922  0.3333  0.0297  0.3204
14299TIP3    H164388   2.666   4.239  16.892 -0.1103  1.0989 -2.4911
14299TIP3    H264389   2.527   4.273  16.845 -1.9200  0.3713  1.8528
14300TIP3   OH264390   2.104   4.540  15.769 -0.5326  0.2325 -0.1318
14300TIP3    H164391   2.127   4.518  15.679  0.3757  0.3401  0.0685
14300TIP3    H264392   2.038   4.474  15.793  1.1812 -1.5409  0.0069
14301TIP3   OH264393   5.187   5.120   1.623  0.3352  0.0343 -0.6108
14301TIP3    H164394   5.127   5.062   1.576  0.0430 -0.7208  0.6427
14301TIP3    H264395   5.130   5.171   1.680  0.7950 -0.0366 -0.0786
14302TIP3   OH264396   5.856   4.006   0.136  0.1674  0.3369  0.3556
14302TIP3    H164397   5.887   3.986   0.048  0.1264  0.7303  0.2513
14302TIP3    H264398   5.925   4.060   0.174  0.1872  0.1652  0.5656
14303TIP3   OH264399   5.373   5.899   0.415 -0.0489 -0.2947  0.0517
14303TIP3    H164400   5.446   5.956   0.438 -0.1179 -0.0112 -0.4131
14303TIP3    H264401   5.396   5.814   0.453  1.2263 -0.6071 -1.3005
14304TIP3   OH264402   3.221   0.788  14.938  0.1713  0.1020  0.3070
14304TIP3    H164403   3.218   0.696  14.963 -0.2970  0.1338  0.3854
14304TIP3    H264404   3.201   0.789  14.845 -0.2949  0.1571  0.4034
14305TIP3   OH264405   1.429   3.148  12.378  0.0727  0.1902 -0.0091
14305TIP3    H164406   1.466   3.088  12.312 -0.7883  0.5517 -0.8452
14305TIP3    H264407   1.423   3.232  12.332  0.2753  0.6620  0.8183
14306TIP3   OH264408   4.311   2.042   0.167  0.0225  0.0199  0.4908
14306TIP3    H164409   4.381   2.010   0.111 -1.5242 -1.2779 -0.8083
14306TIP3    H264410   4.246   2.079   0.107 -1.7357 -1.5037  1.3249
14307TIP3   OH264411   1.737   1.126   0.829 -0.4384 -0.0738 -0.1563
14307TIP3    H164412   1.768   1.051   0.779 -0.7821  0.9117 -1.9417
14307TIP3    H264413   1.807   1.190   0.823  0.3873 -0.6223  2.4053
14308TIP3   OH264414   1.479   3.240  16.267  0.1358 -0.4988 -0.2376
14308TIP3    H164415   1.542   3.276  16.330 -0.5843 -0.1333  0.2932
14308TIP3    H264416   1.528   3.234  16.185  2.0697 -3.8179  0.9626
14309TIP3   OH264417   0.509   3.409   1.268  0.0828  0.0979 -0.3480
14309TIP3    H164418   0.578   3.472   1.246  0.0117  0.1841 -0.3237
14309TIP3    H264419   0.528   3.384   1.358  1.1401 -1.2408 -0.9203
14310TIP3   OH264420   0.067   1.211   4.465  0.2197  0.0873 -0.0290
14310TIP3    H164421   0.113   1.231   4.546  1.1502  3.7111 -1.2396
14310TIP3    H264422   0.132   1.168   4.410  0.9596  1.4397 -0.2610
14311TIP3   OH264423   5.816   4.333   6.867 -0.0310  0.3327 -0.4133
14311TIP3    H164424   5.895   4.279   6.876  0.3389  0.9887  0.3048
14311TIP3    H264425   5.747   4.270   6.844  0.7108 -0.2335 -1.1587
14312TIP3   OH264426   3.175   3.728   4.574  0.7122 -0.1905  0.3049
14312TIP3    H164427   3.111   3.799   4.567 -1.4057 -1.9038  1.0435
14312TIP3    H264428   3.126   3.655   4.614  3.1743 -1.5906  0.9880
14313TIP3   OH264429   6.187   0.166  11.296 -0.7369  0.4936  0.2829
14313TIP3    H164430   6.100   0.172  11.257  0.1235 -0.3391 -1.9515
14313TIP3    H264431   6.202   0.072  11.308 -0.5766  0.6791  1.7937
14314TIP3   OH264432   4.546   5.269  16.941  0.0814  0.7163 -0.5143
14314TIP3    H164433   4.541   5.292  17.034 -0.0429  0.5500 -0.4812
14314TIP3    H264434   4.619   5.321  16.908  1.4734 -0.7727  0.1271
14315TIP3   OH264435   2.321   0.837   4.832 -0.6027  0.8264  0.2618
14315TIP3    H164436   2.407   0.860   4.866 -1.2102  1.2246  1.6197
14315TIP3    H264437   2.260   0.871   4.897 -1.6378 -3.0606  1.5868
14316TIP3   OH264438   5.483   5.184  11.499  0.2907  0.3230  0.5086
14316TIP3    H164439   5.439   5.127  11.436  1.9982  0.8480 -1.2693
14316TIP3    H264440   5.556   5.131  11.532  0.0066  0.4045  1.2727
14317TIP3   OH264441   3.716   3.053   6.720  0.7740 -0.2943 -0.2324
14317TIP3    H164442   3.682   3.119   6.780  0.4581 -0.3479 -0.3472
14317TIP3    H264443   3.683   3.080   6.634 -1.9031 -2.1916  0.0700
14318TIP3   OH264444   2.493   1.428  11.036 -0.1685  0.0202 -0.4516
14318TIP3    H164445   2.509   1.376  10.957  0.8138  0.6772 -0.7098
14318TIP3    H264446   2.537   1.511  11.020  0.1009  0.1503  0.8072
14319TIP3   OH264447   1.945   0.358  12.725 -0.3735 -0.0742  0.8687
14319TIP3    H164448   1.908   0.311  12.800  0.6637  0.2079  1.5899
14319TIP3    H264449   1.927   0.302  12.650 -1.0479 -0.5806  1.3888
14320TIP3   OH264450   2.471   5.580  15.925 -0.1907 -0.4928  0.3972
14320TIP3    H164451   2.508   5.591  15.837 -0.4808 -0.9528  0.2208
14320TIP3    H264452   2.384   5.619  15.919 -0.0036 -0.0280  0.6315
14321TIP3   OH264453   3.508   5.471  15.643  0.0958 -0.1012 -0.2624
14321TIP3    H164454   3.492   5.393  15.696  3.2938 -2.5429 -2.4809
14321TIP3    H264455   3.424   5.489  15.601 -0.8082 -2.2264  0.4999
14322TIP3   OH264456   2.822   3.757  12.567  0.1374  0.0370 -0.4256
14322TIP3    H164457   2.906   3.719  12.543  0.3320 -0.9457  1.5970
14322TIP3    H264458   2.765   3.682  12.581 -0.9908  0.6796 -1.3835
14323TIP3   OH264459   4.480   6.349  14.614 -0.3606  0.4671 -0.2208
14323TIP3    H164460   4.531   6.292  14.557  0.1650  0.3915  0.3185
14323TIP3    H264461   4.539   6.420  14.637  0.4110 -0.8694  2.4044
14324TIP3   OH264462   6.682   2.012  13.170 -0.5787  0.1423  0.1144
14324TIP3    H164463   6.722   2.022  13.257 -1.6063  1.4504  0.4524
14324TIP3    H264464   6.734   1.942  13.129  0.6005  0.2253  1.3711
14325TIP3   OH264465   4.402   0.228  15.260 -0.7410  0.1703  0.2442
14325TIP3    H164466   4.462   0.220  15.333  0.5271  0.1289 -0.7658
14325TIP3    H264467   4.352   0.147  15.261  2.0111 -1.7048 -1.2541
14326TIP3   OH264468   5.019   1.080  10.569  0.1827  0.2509  0.0288
14326TIP3    H164469   5.031   1.158  10.624  0.4187 -0.7588  1.4756
14326TIP3    H264470   4.930   1.087  10.536 -0.4339  0.2563  1.6205
14327TIP3   OH264471   5.599   2.718  17.083  0.4223 -0.4536 -0.6856
14327TIP3    H164472   5.659   2.746  17.153  0.8516  0.8038 -1.5134
14327TIP3    H264473   5.529   2.783  17.085  1.4401  0.7948 -2.6676
14328TIP3   OH264474   0.767   5.712  17.143 -0.3031  0.0244  0.5883
14328TIP3    H164475   0.859   5.732  17.160  0.5846 -1.6638 -1.7683
14328TIP3    H264476   0.734   5.788  17.096  0.9867 -0.7979 -1.7965
14329TIP3   OH264477   2.801   0.414   1.341  0.3485 -0.1564 -0.1789
14329TIP3    H164478   2.833   0.328   1.367 -1.1424 -0.7314 -0.1714
14329TIP3    H264479   2.802   0.465   1.422  1.5496 -0.0480 -0.2496
14330TIP3   OH264480   1.889   0.458   2.663  0.2136 -0.0916  0.3040
14330TIP3    H164481   1.831   0.452   2.739  0.7824  0.4043  0.7832
14330TIP3    H264482   1.906   0.367   2.639 -0.8911 -0.2507  0.0456
14331TIP3   OH264483   3.241   6.239  11.694  0.0065  0.1010 -1.1568
14331TIP3    H164484   3.205   6.305  11.754 -1.1093 -0.4900 -1.1416
14331TIP3    H264485   3.246   6.284  11.610  3.7499  1.6776 -0.2802
14332TIP3   OH264486   5.498   5.129   2.132  0.1717 -0.5299  0.4526
14332TIP3    H164487   5.511   5.034   2.133 -1.3163 -0.7605 -0.3877
14332TIP3    H264488   5.528   5.156   2.045 -0.5588 -0.4117  0.2342
14333TIP3   OH264489   4.100   5.667  11.267 -0.1148  0.2964 -1.0022
14333TIP3    H164490   4.022   5.632  11.309  2.2239 -2.2795  1.6297
14333TIP3    H264491   4.098   5.761  11.287 -0.2402 -0.4328  3.3281
14334TIP3   OH264492   0.189   1.554   0.487 -0.8483 -0.1132 -0.3399
14334TIP3    H164493   0.127   1.492   0.448 -1.6205  0.0837  0.5482
14334TIP3    H264494   0.240   1.586   0.413 -0.9037 -1.2878 -0.9117
14335TIP3   OH264495   1.548   5.665  15.845 -0.1069 -0.2116 -0.0764
14335TIP3    H164496   1.485   5.737  15.843  0.7572  0.5664 -2.1837
14335TIP3    H264497   1.521   5.608  15.773 -0.8536 -2.1347  1.6310
14336TIP3   OH264498   1.496   4.376  14.484  0.1233  0.2878 -0.0854
14336TIP3    H164499   1.500   4.472  14.485 -0.7657  0.3487 -0.7876
14336TIP3    H264500   1.520   4.352  14.395  0.6096 -0.1721  0.1625
14337TIP3   OH264501   6.651   3.903   0.628  0.4513  0.4377 -0.2692
14337TIP3    H164502   6.627   3.817   0.594 -0.6664  0.1337  1.1784
14337TIP3    H264503   6.722   3.932   0.571 -0.0163 -0.8674 -1.5918
14338TIP3   OH264504   4.777   6.718  15.425  0.8267  0.1405 -0.2089
14338TIP3    H164505   4.814   6.648  15.371  0.9018 -1.6981  2.0310
14338TIP3    H264506   4.689   6.730  15.392  0.4699 -1.7702 -0.0878
14339TIP3   OH264507   5.614   6.796   4.474 -0.2296 -0.7050 -0.0214
14339TIP3    H164508   5.620   6.773   4.567 -1.0207 -1.4337 -0.1453
14339TIP3    H264509   5.543   6.860   4.470  1.7947  1.7399  0.2880
14340TIP3   OH264510   0.535   3.625   5.511 -0.3416 -0.0552  0.2948
14340TIP3    H164511   0.524   3.618   5.416 -0.1020  0.3782  0.2338
14340TIP3    H264512   0.596   3.554   5.533 -0.0611  0.1101  0.0633
14341TIP3   OH264513   3.734   4.519  11.126  0.0685  0.4922 -0.1759
14341TIP3    H164514   3.772   4.559  11.048  0.4188 -0.5564 -0.5655
14341TIP3    H264515   3.791   4.546  11.198 -0.3556  1.6032 -0.2495
14342TIP3   OH264516   2.769   5.374  11.692  0.1693  0.2579  0.3324
14342TIP3    H164517   2.704   5.444  11.685  0.4593  0.5489  0.5191
14342TIP3    H264518   2.776   5.356  11.785 -1.1915 -1.2579  0.1917
14343TIP3   OH264519   0.069   0.030   1.059  0.4110  0.0943  0.3410
14343TIP3    H164520   0.146  -0.023   1.039 -0.5406 -0.5110 -2.1155
14343TIP3    H264521   0.060   0.089   0.984 -1.2378  0.4422  0.7686
14344TIP3   OH264522   0.801   0.982   4.808  0.5166  0.7824  0.2643
14344TIP3    H164523   0.825   0.926   4.882 -3.0253 -0.7185  0.5101
14344TIP3    H264524   0.874   0.975   4.747  0.9060 -3.0094  0.9389
14345TIP3   OH264525   2.164   0.637  13.287 -0.4603  0.4399  0.1005
14345TIP3    H164526   2.240   0.585  13.312 -0.0933  0.6698 -0.4955
14345TIP3    H264527   2.165   0.712  13.346 -0.2177  0.4383  0.1012
14346TIP3   OH264528   0.864   1.321  12.128  0.2834 -0.6323 -0.0891
14346TIP3    H164529   0.853   1.333  12.222 -1.5174 -0.6169 -0.2650
14346TIP3    H264530   0.936   1.257  12.120  0.0297 -1.1258  1.3089
14347TIP3   OH264531   3.150   0.107  13.598  0.0447  0.6080  0.5590
14347TIP3    H164532   3.056   0.126  13.587 -0.4285 -0.9106  1.6648
14347TIP3    H264533   3.155   0.012  13.604  1.8018  0.5978 -0.4282
14348TIP3   OH264534   5.904   3.889  14.590 -0.2305 -0.4810  0.1621
14348TIP3    H164535   5.937   3.913  14.676  0.3560 -1.5561  0.2473
14348TIP3    H264536   5.949   3.808  14.568 -0.3775 -0.2299 -1.1560
14349TIP3   OH264537   5.167   0.809  11.318 -0.5202  0.6789  0.3172
14349TIP3    H164538   5.251   0.827  11.276 -1.1342  1.2666 -0.6714
14349TIP3    H264539   5.101   0.837  11.255 -1.4913 -0.7842  0.6222
14350TIP3   OH264540   0.848   5.275  12.167  0.0002 -0.4620  0.4496
14350TIP3    H164541   0.765   5.226  12.171 -0.1399 -0.3311 -0.6633
14350TIP3    H264542   0.853   5.319  12.252 -2.7722  2.2340 -0.6099
14351TIP3   OH264543   0.072   5.539   3.197 -0.2976 -0.2947 -0.8223
14351TIP3    H164544   0.056   5.496   3.281  0.3083  1.0187  0.0055
14351TIP3    H264545   0.163   5.569   3.202 -0.0003 -0.8337 -2.2666
14352TIP3   OH264546   5.099   4.082  17.253 -0.2985 -0.7602  0.0915
14352TIP3    H164547   5.060   4.136  17.185  1.7656  0.7191 -0.0027
14352TIP3    H264548   5.054   4.107  17.333 -2.0702 -1.8150 -0.5140
14353TIP3   OH264549   5.157   2.355  12.094 -0.0845 -0.0513  0.3147
14353TIP3    H164550   5.186   2.283  12.148 -0.4149  0.1257  0.7360
14353TIP3    H264551   5.162   2.322  12.004  0.1501 -0.4546  0.4757
14354TIP3   OH264552   4.635   6.521  16.058 -0.1204 -0.2750 -0.0536
14354TIP3    H164553   4.642   6.457  16.129 -2.6374  1.1099  1.5640
14354TIP3    H264554   4.550   6.504  16.018  0.6626 -0.1175 -1.8711
14355TIP3   OH264555   6.563   2.506  14.650 -0.1338 -0.3485  0.3370
14355TIP3    H164556   6.557   2.585  14.703  2.1240  1.0404 -1.3077
14355TIP3    H264557   6.578   2.435  14.713  0.2655  0.8959  1.6819
14356TIP3   OH264558   5.817   1.213   4.533  0.5534  0.3168 -0.4339
14356TIP3    H164559   5.848   1.300   4.506  1.4919 -0.1421 -0.8701
14356TIP3    H264560   5.724   1.213   4.512  0.4743  1.3278 -0.1448
14357TIP3   OH264561   6.404   3.558   4.883  0.7824 -0.0888  0.1187
14357TIP3    H164562   6.383   3.618   4.955  2.1071  0.0261  0.4221
14357TIP3    H264563   6.423   3.615   4.809 -2.4563 -0.1863 -0.9873
14358TIP3   OH264564   4.619   4.034  14.219  0.0660  0.0691 -0.1973
14358TIP3    H164565   4.585   4.082  14.143 -1.8257 -0.8240  0.0246
14358TIP3    H264566   4.712   4.057  14.222 -0.2879  1.9023 -1.4350
14359TIP3   OH264567   1.937   6.536  15.161 -0.5722  0.2850  0.5960
14359TIP3    H164568   2.033   6.526  15.163 -0.5438  0.6252  2.1298
14359TIP3    H264569   1.922   6.608  15.099  0.1334  0.0760  0.1614
14360TIP3   OH264570   6.417   4.812  13.981 -0.5882  0.2705  0.4137
14360TIP3    H164571   6.397   4.782  13.892 -0.4621  1.3352  0.0071
14360TIP3    H264572   6.331   4.824  14.022 -0.6871  1.0755 -0.0198
14361TIP3   OH264573   3.204   1.409  11.758  0.6284  0.7802  0.3555
14361TIP3    H164574   3.277   1.367  11.712  1.8978  1.8697  1.2831
14361TIP3    H264575   3.243   1.443  11.839 -1.1458  0.4896  1.3873
14362TIP3   OH264576   4.363   3.631  12.288  0.0976  0.3058 -0.1807
14362TIP3    H164577   4.419   3.580  12.230  0.9256  0.4119  0.5052
14362TIP3    H264578   4.377   3.592  12.374 -1.5365 -0.2106 -0.1162
14363TIP3   OH264579   5.173   4.314   4.852 -0.0335  0.3961  0.0239
14363TIP3    H164580   5.104   4.312   4.918 -0.0877 -0.1188 -0.0387
14363TIP3    H264581   5.133   4.273   4.775  0.7576 -1.2100  0.4205
14364TIP3   OH264582   0.486   4.377   2.067  0.5981 -0.4395 -0.0903
14364TIP3    H164583   0.582   4.379   2.076  0.6061  0.1197 -0.2530
14364TIP3    H264584   0.468   4.435   1.993  0.1703 -0.9659 -0.4039
14365TIP3   OH264585   2.725   0.125  14.008  0.2882  0.5479 -0.1216
14365TIP3    H164586   2.633   0.103  14.023  0.7992 -1.1194  0.7850
14365TIP3    H264587   2.731   0.139  13.914 -0.8469  0.4557 -0.2209
14366TIP3   OH264588   5.186   5.283  13.108 -0.3707  0.3005 -0.1920
14366TIP3    H164589   5.271   5.239  13.105 -0.6248 -0.1338 -1.7001
14366TIP3    H264590   5.203   5.366  13.152  1.1832  0.9659 -1.9644
14367TIP3   OH264591   5.594   0.961  14.491  0.0336  0.3413  0.2427
14367TIP3    H164592   5.637   0.912  14.421 -0.1981 -0.5250  0.6883
14367TIP3    H264593   5.660   1.024  14.521 -0.1155  1.2564 -1.2424
14368TIP3   OH264594   6.681   5.215   0.472 -0.3562 -0.7181  0.5373
14368TIP3    H164595   6.675   5.129   0.430 -0.5615  0.0714 -1.1012
14368TIP3    H264596   6.592   5.234   0.501 -0.4514 -0.7314  0.2506
14369TIP3   OH264597   0.026   0.864   1.259 -0.3820  0.1019  0.5938
14369TIP3    H164598   0.006   0.812   1.337  1.4451 -2.4415 -0.4988
14369TIP3    H264599   0.045   0.800   1.191  1.0088  2.2157 -1.1571
14370TIP3   OH264600   4.823   3.436  14.165 -0.0037  0.4016 -0.2458
14370TIP3    H164601   4.837   3.422  14.259  1.8049 -0.8252 -0.6492
14370TIP3    H264602   4.728   3.437  14.156 -0.2344 -0.3728  1.4902
14371TIP3   OH264603   5.869   5.430   5.770 -0.1289 -0.2633 -0.8403
14371TIP3    H164604   5.851   5.478   5.850 -0.0455 -1.7296  0.0951
14371TIP3    H264605   5.903   5.496   5.709 -2.3203  1.3188 -0.4706
14372TIP3   OH264606   6.799   5.355  17.012  0.1431  0.0831  0.3383
14372TIP3    H164607   6.716   5.313  16.993 -0.0188  0.3981  0.3485
14372TIP3    H264608   6.797   5.372  17.106  0.4627 -0.4319  0.4417
14373TIP3   OH264609   3.673   1.052   3.663 -0.0281  0.1163  0.0395
14373TIP3    H164610   3.723   1.131   3.643  1.1506 -0.5307  0.3424
14373TIP3    H264611   3.590   1.064   3.616 -0.2579  1.9255  0.8045
14374TIP3   OH264612   3.946   5.479  14.673  0.0772 -0.9604 -0.1177
14374TIP3    H164613   4.017   5.451  14.731 -1.3013 -2.2088  1.0488
14374TIP3    H264614   3.910   5.398  14.637 -1.0463 -0.3983 -0.3104
14375TIP3   OH264615   3.921   0.359   3.747  0.2965 -0.3337 -0.2210
14375TIP3    H164616   3.920   0.453   3.763 -0.6466  0.0148 -2.0237
14375TIP3    H264617   3.872   0.348   3.665  0.8799 -2.3336 -0.3597
14376TIP3   OH264618   0.963   4.565   4.188 -1.0717 -0.3230 -0.0820
14376TIP3    H164619   0.962   4.469   4.183 -0.7654 -0.3513  0.3857
14376TIP3    H264620   0.982   4.584   4.280 -1.9373  0.1883 -0.0006
14377TIP3   OH264621   6.559   2.923   1.723  0.9557  0.3229  0.0121
14377TIP3    H164622   6.515   2.897   1.642 -4.3742  0.3661  2.4992
14377TIP3    H264623   6.554   3.019   1.724  0.2234  0.2912  0.6852
14378TIP3   OH264624   1.262   2.711  15.687  0.1522  0.2465  0.1037
14378TIP3    H164625   1.252   2.799  15.725  1.8240  0.4830  0.0517
14378TIP3    H264626   1.217   2.716  15.603 -0.0375  0.9703  0.2385
14379TIP3   OH264627   2.857   3.192   3.458 -0.4768  0.2004 -0.0134
14379TIP3    H164628   2.818   3.223   3.540 -1.0308  0.2758 -0.3010
14379TIP3    H264629   2.922   3.259   3.437 -1.8720  1.3917 -0.7830
14380TIP3   OH264630   4.783   6.236   2.734 -0.2140 -0.5984  0.3050
14380TIP3    H164631   4.708   6.230   2.675  0.7417 -0.9884 -0.8963
14380TIP3    H264632   4.800   6.146   2.761  0.2991 -0.6146 -0.0549
14381TIP3   OH264633   5.088   5.510  10.285  0.0073  0.2404  0.1706
14381TIP3    H164634   5.027   5.560  10.340 -0.0691  0.8266 -0.4281
14381TIP3    H264635   5.043   5.427  10.268 -1.4704  1.3481 -1.7513
14382TIP3   OH264636   5.947   4.103   5.896 -0.5140 -0.7523  0.2457
14382TIP3    H164637   5.986   4.040   5.957 -0.0735 -0.9043 -0.1957
14382TIP3    H264638   5.859   4.070   5.881 -0.1805 -1.4347 -0.2235
14383TIP3   OH264639   0.055   6.646  14.545 -0.0893  0.1556  0.5102
14383TIP3    H164640   0.021   6.726  14.504 -1.1647  0.0145  1.0968
14383TIP3    H264641   0.099   6.600  14.474 -0.7093  0.5858 -0.1756
14384TIP3   OH264642   5.077   6.379  11.186  0.5390 -0.0008 -0.4836
14384TIP3    H164643   5.060   6.401  11.094  0.8249  0.0758 -0.5198
14384TIP3    H264644   4.990   6.371  11.225  0.2880 -2.4824 -1.3306
14385TIP3   OH264645   3.623   5.970   5.233  0.2777  0.3866  0.3520
14385TIP3    H164646   3.538   6.011   5.247  0.0234  0.0787 -0.2680
14385TIP3    H264647   3.638   5.978   5.139 -0.1364 -1.6182  0.0597
14386TIP3   OH264648   1.843   0.665   3.735 -0.3664  0.3553  1.0503
14386TIP3    H164649   1.779   0.648   3.805 -0.2289  0.0820  1.1102
14386TIP3    H264650   1.837   0.759   3.720 -0.6040  0.3708  1.2315
14387TIP3   OH264651   2.771   3.921  11.084  0.3720 -0.2315  0.5829
14387TIP3    H164652   2.753   3.833  11.118  1.9124 -1.0120 -0.5135
14387TIP3    H264653   2.845   3.909  11.025  0.0052  1.6675 -0.3207
14388TIP3   OH264654   0.212   5.334  15.763 -0.0855  0.3518  0.2957
14388TIP3    H164655   0.207   5.358  15.856 -1.1575  0.2737  0.2800
14388TIP3    H264656   0.236   5.415  15.718  1.4928  0.1555  0.7204
14389TIP3   OH264657   4.942   6.081  14.049 -0.1602  0.3906  0.3177
14389TIP3    H164658   4.920   5.988  14.052  0.9085  0.0416 -1.3057
14389TIP3    H264659   4.871   6.124  14.096 -1.5625 -1.1069 -0.3263
14390TIP3   OH264660   4.177   6.327  12.098  0.7569 -0.4286 -0.3553
14390TIP3    H164661   4.193   6.385  12.172 -1.0149 -0.0110 -0.2651
14390TIP3    H264662   4.234   6.359  12.029  1.0218  0.3780  0.2270
14391TIP3   OH264663   3.807   2.677  11.173 -0.5130 -0.8629  0.5999
14391TIP3    H164664   3.769   2.734  11.240 -1.4616  1.6894 -1.8966
14391TIP3    H264665   3.731   2.636  11.131 -0.1166 -0.5674 -0.4253
14392TIP3   OH264666   5.313   3.207  11.823 -0.0337  0.3425  0.0110
14392TIP3    H164667   5.250   3.253  11.878  1.0937  0.0383  1.6246
14392TIP3    H264668   5.330   3.124  11.869  0.3124 -0.3036 -1.2281
14393TIP3   OH264669   4.434   5.684  11.908 -0.3937 -0.2302  0.9738
14393TIP3    H164670   4.410   5.775  11.928 -0.5273 -0.4684  1.9757
14393TIP3    H264671   4.405   5.671  11.818 -1.3490  0.4001  1.1685
14394TIP3   OH264672   1.512   6.773  12.163  0.2007 -0.2644  0.4230
14394TIP3    H164673   1.432   6.721  12.162  0.3073 -0.4239 -0.4611
14394TIP3    H264674   1.518   6.809  12.075  0.3346  0.9313  0.8991
14395TIP3   OH264675   3.533   3.541   5.667  0.0473 -0.9147  0.1845
14395TIP3    H164676   3.583   3.601   5.722  0.0371 -1.4677  0.8138
14395TIP3    H264677   3.563   3.454   5.693 -1.1513 -1.2549  0.4861
14396TIP3   OH264678   4.513   1.115  11.524 -0.7238  0.0972 -0.3043
14396TIP3    H164679   4.547   1.099  11.435  1.3222 -2.1856  0.7486
14396TIP3    H264680   4.418   1.108  11.515 -0.5552 -0.2497 -2.3032
14397TIP3   OH264681   4.115   1.895   3.380 -0.2698 -0.0206  0.8112
14397TIP3    H164682   4.150   1.815   3.339 -0.0770  0.3865  0.1578
14397TIP3    H264683   4.036   1.866   3.425 -2.3779  0.0248 -2.5337
14398TIP3   OH264684   0.185   2.913  13.068  0.4661 -0.3186 -0.2482
14398TIP3    H164685   0.233   2.898  13.149  0.6481 -1.3917 -0.5476
14398TIP3    H264686   0.132   2.835  13.055  0.0277  0.0685 -0.8880
14399TIP3   OH264687   4.539   0.025  13.502 -0.7138 -1.1411 -0.3486
14399TIP3    H164688   4.488  -0.040  13.550 -1.3341  0.2582  0.9676
14399TIP3    H264689   4.575   0.083  13.570  1.4076 -1.1994 -1.3390
14400TIP3   OH264690   3.561   3.965   1.583  0.3447  0.2837 -0.5966
14400TIP3    H164691   3.633   3.991   1.640  1.2654  0.2408 -1.7066
14400TIP3    H264692   3.512   4.046   1.568 -0.5100  0.1216  1.0139
14401TIP3   OH264693   2.285   3.477   1.886 -0.1531  0.9488 -0.1664
14401TIP3    H164694   2.321   3.392   1.912  0.1420  0.0913 -3.0020
14401TIP3    H264695   2.328   3.540   1.943  0.4964 -0.7047  1.2489
14402TIP3   OH264696   5.788   2.661   2.403 -0.2157  0.2960  0.1091
14402TIP3    H164697   5.852   2.725   2.371 -0.2123  1.1187  1.6741
14402TIP3    H264698   5.839   2.600   2.455 -0.3501 -0.5191 -0.6910
14403TIP3   OH264699   5.718   4.503  16.931 -0.0074  0.1186  0.5232
14403TIP3    H164700   5.746   4.572  16.991 -4.6456  0.0478  3.2461
14403TIP3    H264701   5.699   4.428  16.988 -0.2883 -1.5682 -1.6597
14404TIP3   OH264702   0.924   3.469   2.826 -0.4522 -0.1208 -0.3631
14404TIP3    H164703   0.923   3.487   2.731  0.4375  1.1371 -0.1684
14404TIP3    H264704   0.840   3.501   2.857 -1.6573 -2.4445 -0.9931
14405TIP3   OH264705   2.827   3.600  13.694  0.1821 -0.3382 -0.3243
14405TIP3    H164706   2.868   3.627  13.612  1.4520 -0.0454  0.3788
14405TIP3    H264707   2.736   3.628  13.685  0.5459  0.6449 -1.2063
14406TIP3   OH264708   3.259   6.463  12.931 -0.4542  0.0259 -0.3226
14406TIP3    H164709   3.224   6.535  12.984 -1.7461  0.6459 -1.9278
14406TIP3    H264710   3.238   6.487  12.841  0.6061 -1.5707 -1.0488
14407TIP3   OH264711   5.774   0.277   3.298  0.0428  0.0101 -0.1955
14407TIP3    H164712   5.845   0.318   3.248 -0.0979  0.0611 -0.3559
14407TIP3    H264713   5.695   0.322   3.268 -0.0110  0.2452  0.2928
14408TIP3   OH264714   5.950   2.157   2.541  0.3775  0.3860 -0.2844
14408TIP3    H164715   6.031   2.206   2.526  1.0080 -0.4718  0.1689
14408TIP3    H264716   5.916   2.191   2.624 -0.9847  2.3457 -1.5629
14409TIP3   OH264717   4.246   5.578   1.976 -0.0111  0.8007  0.0096
14409TIP3    H164718   4.323   5.556   2.030 -0.1788  0.5254  0.1373
14409TIP3    H264719   4.263   5.534   1.893  0.5457  1.7345 -0.3862
14410TIP3   OH264720   2.982   1.834   5.930 -0.5879  0.5149 -0.4676
14410TIP3    H164721   2.917   1.903   5.936  1.5023  2.4951  1.5017
14410TIP3    H264722   2.941   1.758   5.972 -1.6383  1.6938  0.6908
14411TIP3   OH264723   6.254   4.512  16.965  0.1510 -0.0663 -0.2769
14411TIP3    H164724   6.235   4.516  16.872  0.3680  1.5668 -0.2876
14411TIP3    H264725   6.168   4.512  17.007  0.0596  0.0509 -0.4618
14412TIP3   OH264726   6.711   4.293  11.675 -0.2253  0.0563  0.0013
14412TIP3    H164727   6.750   4.353  11.739  0.1708  0.2152 -0.3762
14412TIP3    H264728   6.673   4.351  11.609  0.3627 -0.0984 -0.4870
14413TIP3   OH264729   3.819   5.261   3.222  0.0581  0.1560  0.5196
14413TIP3    H164730   3.904   5.305   3.232 -0.4898  1.0168  1.5702
14413TIP3    H264731   3.767   5.321   3.170  0.0826 -0.3825 -0.1401
14414TIP3   OH264732   1.916   3.813   1.726 -0.3411 -0.2864  0.1174
14414TIP3    H164733   1.865   3.865   1.665  0.2397  0.5733  0.3362
14414TIP3    H264734   1.852   3.759   1.771 -1.4047  2.1773  1.8085
14415TIP3   OH264735   0.734   3.416  13.910  0.1969 -0.3456 -0.2506
14415TIP3    H164736   0.788   3.449  13.839 -0.6399  0.0823 -0.7053
14415TIP3    H264737   0.766   3.327  13.926 -0.4648 -0.9416 -2.0632
14416TIP3   OH264738   1.658   4.399  14.902 -0.1472 -0.0112 -0.1267
14416TIP3    H164739   1.697   4.311  14.907 -1.7747 -0.8833 -1.5944
14416TIP3    H264740   1.670   4.425  14.811 -0.8884  0.6766 -0.0369
14417TIP3   OH264741   1.105   3.925   3.834  0.3689  0.1260  0.1444
14417TIP3    H164742   1.011   3.938   3.845 -0.2713 -3.5362  0.2877
14417TIP3    H264743   1.127   3.855   3.895  2.9325 -0.0352 -0.8311
14418TIP3   OH264744   2.589   4.543  12.574  0.3028  0.2164 -0.1168
14418TIP3    H164745   2.523   4.497  12.521  0.8772 -0.5935 -0.1546
14418TIP3    H264746   2.672   4.501  12.550  0.8543  1.2947 -0.1514
14419TIP3   OH264747   5.078   4.554   5.764 -0.0732  0.0832  0.0443
14419TIP3    H164748   5.047   4.534   5.675  0.0941  2.6126 -0.6487
14419TIP3    H264749   5.034   4.635   5.788  2.1194  1.0619  1.0636
14420TIP3   OH264750   4.590   2.417   4.797 -0.3232  0.1599  0.0377
14420TIP3    H164751   4.513   2.463   4.764  0.3225  1.4423  0.2887
14420TIP3    H264752   4.653   2.421   4.725 -0.8166 -1.8183 -0.5798
14421TIP3   OH264753   4.838   0.617  14.235  0.1661 -0.1857  0.6423
14421TIP3    H164754   4.878   0.532  14.218  0.2212  0.1595 -1.1409
14421TIP3    H264755   4.803   0.610  14.323 -2.4388 -3.1035 -0.4706
14422TIP3   OH264756   2.386   5.082  11.602  0.3271 -0.4312  0.0953
14422TIP3    H164757   2.476   5.110  11.587 -0.0738  0.8322  0.0030
14422TIP3    H264758   2.345   5.155  11.648 -1.0138 -0.4122 -1.0538
14423TIP3   OH264759   6.811   6.479   1.888 -0.1060  0.8141 -0.4135
14423TIP3    H164760   6.780   6.443   1.971 -1.3414 -0.3063 -1.3224
14423TIP3    H264761   6.896   6.438   1.875  0.0287  0.8773  0.2189
14424TIP3   OH264762   4.520   0.916   3.929  0.2363 -0.2250  0.1498
14424TIP3    H164763   4.515   0.973   3.852 -0.1437 -1.0757 -0.4713
14424TIP3    H264764   4.442   0.937   3.980 -0.8836 -1.4306 -0.9893
14425TIP3   OH264765   0.915   5.494   5.732 -0.7171 -0.0206 -0.3379
14425TIP3    H164766   0.867   5.442   5.667 -1.2082 -0.5201  0.4049
14425TIP3    H264767   0.846   5.540   5.781 -0.3737  0.0261  0.1010
14426TIP3   OH264768   1.932   3.709   5.540  0.4310  0.0276  0.2953
14426TIP3    H164769   1.900   3.753   5.461  0.1459  2.0364  1.4693
14426TIP3    H264770   1.922   3.616   5.521  1.1481  0.4079 -2.3472
14427TIP3   OH264771   4.616   4.142   3.832 -0.1793  0.3653  0.0475
14427TIP3    H164772   4.708   4.168   3.839 -0.0089  0.0541 -0.9282
14427TIP3    H264773   4.570   4.204   3.888  0.5732  0.8224  0.1771
14428TIP3   OH264774   5.893   0.913   4.073  0.4194 -0.0732 -0.1995
14428TIP3    H164775   5.893   1.008   4.059 -0.8257 -0.0496 -0.0726
14428TIP3    H264776   5.977   0.896   4.116  0.8771  0.8974 -0.6755
14429TIP3   OH264777   4.331   6.050  13.280  0.1584  0.6451 -0.0800
14429TIP3    H164778   4.409   6.004  13.309  0.6446  0.7788 -1.1383
14429TIP3    H264779   4.349   6.073  13.189 -1.5923 -0.3855 -0.7317
14430TIP3   OH264780   6.413   6.377  16.665 -0.5868 -0.2186  0.6608
14430TIP3    H164781   6.498   6.360  16.623 -1.0049  0.3500 -0.4618
14430TIP3    H264782   6.373   6.291  16.674 -0.9319 -0.2844 -1.1217
14431TIP3   OH264783   4.620   0.710   4.544  0.0779 -0.6252  0.1396
14431TIP3    H164784   4.668   0.788   4.571 -0.6782  0.1981 -0.8096
14431TIP3    H264785   4.533   0.721   4.583 -0.3307 -0.4984 -0.7678
14432TIP3   OH264786   6.454   4.629   5.183 -0.5068 -0.8422 -0.0092
14432TIP3    H164787   6.394   4.612   5.256 -0.7106  0.0879  0.0579
14432TIP3    H264788   6.535   4.658   5.225 -0.3207 -1.1929 -0.1271
14433TIP3   OH264789   3.972   4.277  12.247 -0.2786  0.6100  0.1301
14433TIP3    H164790   3.964   4.260  12.154 -2.5730  0.2513  0.3475
14433TIP3    H264791   3.937   4.366  12.259  2.0434  1.5600  0.4024
14434TIP3   OH264792   2.787   4.300   1.299  0.9805  0.4134  0.2212
14434TIP3    H164793   2.762   4.389   1.271 -0.9086  0.1352  0.8673
14434TIP3    H264794   2.748   4.243   1.233  2.2613  0.0461 -0.2338
14435TIP3   OH264795   4.182   3.074   6.452 -0.1017  0.5720 -0.0630
14435TIP3    H164796   4.203   3.017   6.378 -0.4495 -0.7024  0.7893
14435TIP3    H264797   4.241   3.045   6.522 -0.0157  1.5288  0.2769
14436TIP3   OH264798   4.781   2.245   1.741 -0.0983  0.2332  0.4082
14436TIP3    H164799   4.812   2.335   1.728 -0.5220  0.3450  0.1356
14436TIP3    H264800   4.860   2.194   1.757  0.4329  0.2275 -1.8656
14437TIP3   OH264801   5.387   3.313   0.948 -0.0663 -0.7281  0.2099
14437TIP3    H164802   5.454   3.338   0.884 -1.1704  0.1810 -0.6311
14437TIP3    H264803   5.341   3.240   0.906 -1.3334  0.4013 -0.4734
14438TIP3   OH264804   4.604   1.835  15.112  0.5560 -0.0395  0.5817
14438TIP3    H164805   4.609   1.906  15.048  0.7762 -0.9031 -0.3831
14438TIP3    H264806   4.672   1.856  15.176  1.4593 -0.0100 -0.3575
14439TIP3   OH264807   4.263   5.055  11.391 -0.1204 -0.3855  0.6580
14439TIP3    H164808   4.241   5.134  11.439 -0.2468 -0.3765  0.5890
14439TIP3    H264809   4.354   5.037  11.411  0.7646  1.3143 -1.4635
14440TIP3   OH264810   5.062   4.397  12.961 -0.3085  0.0661  0.2732
14440TIP3    H164811   5.105   4.321  12.922 -1.2398 -0.9396  1.1375
14440TIP3    H264812   4.969   4.384  12.944 -0.4111  1.6271 -0.5755
14441TIP3   OH264813   1.866   3.979   5.959  0.2356 -0.5024  0.9798
14441TIP3    H164814   1.878   4.005   6.051 -2.7268  2.5910  0.7092
14441TIP3    H264815   1.940   4.017   5.913  0.2738  0.4082  1.7562
14442TIP3   OH264816   1.335   3.826   3.288  0.0363  0.7991  0.3794
14442TIP3    H164817   1.280   3.857   3.360 -0.2584 -1.5890  1.2662
14442TIP3    H264818   1.409   3.886   3.287 -0.8020  1.9107  1.5284
14443TIP3   OH264819   5.362   6.688  11.879 -0.2856 -0.2860  0.2845
14443TIP3    H164820   5.380   6.754  11.946 -2.5848  0.5627  0.1459
14443TIP3    H264821   5.437   6.692  11.821  0.3725  1.0854  1.1713
14444TIP3   OH264822   4.251   2.564  10.974  0.5466 -0.2794 -0.0447
14444TIP3    H164823   4.229   2.604  10.890 -0.1189  0.3726  0.4245
14444TIP3    H264824   4.250   2.470  10.957  0.7575 -0.1442 -0.8413
14445TIP3   OH264825   0.362   2.788   5.049 -0.0278 -0.0264  0.6853
14445TIP3    H164826   0.323   2.733   5.117  0.1849  0.0502  0.8683
14445TIP3    H264827   0.312   2.766   4.970  0.4178 -0.9087  0.6250
14446TIP3   OH264828   3.323   2.338  15.197 -0.0236  0.0675  0.3182
14446TIP3    H164829   3.242   2.380  15.226  0.0414 -0.0726  0.7095
14446TIP3    H264830   3.329   2.258  15.249 -0.5591 -0.8644 -0.9876
14447TIP3   OH264831   0.203   6.440  12.029  0.1086 -0.3625  0.5250
14447TIP3    H164832   0.248   6.382  11.968  1.3556  1.6352 -0.5578
14447TIP3    H264833   0.115   6.449  11.994  0.2421 -0.7222  0.0967
14448TIP3   OH264834   3.122   3.134  12.750  0.2196  0.1370 -0.0275
14448TIP3    H164835   3.206   3.175  12.731  0.3457 -0.1265 -0.0406
14448TIP3    H264836   3.126   3.048  12.706  0.2131 -0.1578  0.5433
14449TIP3   OH264837   6.157   3.782  16.212  0.2589  0.1351 -0.1730
14449TIP3    H164838   6.243   3.777  16.170  0.3295 -0.1660  0.0052
14449TIP3    H264839   6.096   3.748  16.146  0.4506 -0.9404  0.1885
14450TIP3   OH264840   3.650   2.356  15.952  0.4833  0.1705  0.6254
14450TIP3    H164841   3.725   2.377  16.007 -1.1125 -0.9814  3.4521
14450TIP3    H264842   3.657   2.262  15.936 -0.0808  0.1444  0.5035
14451TIP3   OH264843   1.664   6.528  11.288 -0.1074 -0.0830  0.0840
14451TIP3    H164844   1.645   6.584  11.363 -0.3388 -2.1949  1.6715
14451TIP3    H264845   1.748   6.561  11.255 -1.0112  2.2152 -0.0883
14452TIP3   OH264846   6.064   5.679  12.054 -0.3752 -0.5505 -0.2084
14452TIP3    H164847   6.023   5.747  12.001  1.3610 -0.6039 -1.7410
14452TIP3    H264848   5.992   5.632  12.094 -1.8390 -0.8309 -2.9607
14453TIP3   OH264849   6.685   5.162   4.606  0.2867  0.7517  0.0525
14453TIP3    H164850   6.761   5.221   4.602 -0.1509  1.3319  0.1341
14453TIP3    H264851   6.616   5.215   4.647 -0.6098  0.7433 -1.3825
14454TIP3   OH264852   6.186   2.272   2.502 -0.5160 -0.1434 -0.4942
14454TIP3    H164853   6.230   2.343   2.549  0.4592 -0.2286 -1.2392
14454TIP3    H264854   6.252   2.241   2.440 -2.0425  0.5986 -2.5932
14455TIP3   OH264855   1.503   5.353   0.285 -0.1593  0.0527 -0.0986
14455TIP3    H164856   1.538   5.283   0.230  1.6015  0.0161  0.9918
14455TIP3    H264857   1.443   5.309   0.346 -1.1757 -0.0767 -1.1675
14456TIP3   OH264858   6.201   2.639   0.496 -0.0750  0.0953 -0.1499
14456TIP3    H164859   6.267   2.579   0.531 -1.6011 -0.8122  1.2562
14456TIP3    H264860   6.149   2.665   0.571 -1.5256  0.5617 -1.2692
14457TIP3   OH264861   4.444   0.763   1.923 -0.3992  0.3813  0.6921
14457TIP3    H164862   4.508   0.765   1.852  0.2550  2.1615  1.2683
14457TIP3    H264863   4.450   0.849   1.964 -0.9028 -0.4959  2.7944
14458TIP3   OH264864   0.181   6.739   5.298 -0.2967  0.1446 -0.1500
14458TIP3    H164865   0.263   6.693   5.311 -0.7818 -0.8446 -0.5095
14458TIP3    H264866   0.180   6.805   5.367 -0.7225 -2.0003  2.0285
14459TIP3   OH264867   3.570   3.702  14.743 -0.0546 -0.2133  0.2464
14459TIP3    H164868   3.555   3.767  14.675 -0.7921 -0.1141  0.5048
14459TIP3    H264869   3.643   3.738  14.795  0.0108  0.0638 -0.0343
14460TIP3   OH264870   0.770   3.606  11.313 -0.7655 -0.7238  0.1820
14460TIP3    H164871   0.838   3.673  11.303 -1.2759 -0.2444 -0.1685
14460TIP3    H264872   0.697   3.652  11.354 -0.9958 -1.1574  0.2625
14461TIP3   OH264873   0.940   2.490   2.658 -0.2105 -0.3495 -0.0145
14461TIP3    H164874   0.939   2.568   2.713  0.6500  0.6750 -1.3896
14461TIP3    H264875   0.882   2.512   2.585  3.9292  1.2648 -3.2230
14462TIP3   OH264876   1.276   2.944   5.630  0.4817 -0.3773 -0.0487
14462TIP3    H164877   1.292   2.874   5.693 -0.3725 -0.5616 -0.0170
14462TIP3    H264878   1.186   2.929   5.601  0.8279 -0.2221 -1.2279
14463TIP3   OH264879   0.529   3.097   5.406 -0.1859 -0.3344 -0.1938
14463TIP3    H164880   0.490   3.080   5.321  0.5371 -0.9538 -0.4145
14463TIP3    H264881   0.471   3.053   5.468  0.5693 -1.9747 -0.5892
14464TIP3   OH264882   3.465   3.688  13.660 -0.7848 -0.1887  0.4355
14464TIP3    H164883   3.428   3.610  13.702 -4.8618  2.2483  2.0195
14464TIP3    H264884   3.400   3.712  13.594 -0.2473  2.3798  0.7363
14465TIP3   OH264885   0.698   3.451  16.641 -0.8153  0.0869 -0.0880
14465TIP3    H164886   0.782   3.457  16.687 -1.1828  1.0492  0.4956
14465TIP3    H264887   0.720   3.470  16.549 -0.0072 -2.3055 -0.4605
14466TIP3   OH264888   1.202   3.675   4.920  0.0201 -0.4756 -0.1115
14466TIP3    H164889   1.140   3.614   4.961  0.6985 -1.2078 -0.1345
14466TIP3    H264890   1.182   3.759   4.960  0.6074 -1.1465  1.7212
14467TIP3   OH264891   6.359   4.651   1.864  0.1258 -0.2724 -0.3647
14467TIP3    H164892   6.417   4.575   1.873  1.7534  0.8749 -0.6466
14467TIP3    H264893   6.377   4.703   1.942 -0.0141  0.4269 -0.7951
14468TIP3   OH264894   2.759   4.372   0.438  0.1758  0.1312 -0.0211
14468TIP3    H164895   2.676   4.325   0.450  0.5358 -0.6285 -0.3900
14468TIP3    H264896   2.733   4.461   0.414 -0.5441 -0.2766 -0.8078
14469TIP3   OH264897   4.310   1.044  12.676  0.5176 -0.2079  0.5966
14469TIP3    H164898   4.347   1.004  12.597  0.3077 -0.8162  0.7999
14469TIP3    H264899   4.350   0.995  12.748  1.8861  1.3290  0.9437
14470TIP3   OH264900   4.398   5.097   0.766  0.1165  0.1518 -0.0715
14470TIP3    H164901   4.423   5.169   0.823  0.3701  0.1568 -0.1835
14470TIP3    H264902   4.411   5.019   0.820  1.4139  0.0761 -0.4535
14471TIP3   OH264903   0.777   0.779   1.315  0.2862 -0.2290 -0.8079
14471TIP3    H164904   0.856   0.765   1.264 -0.2200 -1.5823 -1.2763
14471TIP3    H264905   0.803   0.761   1.406  0.2828 -1.8300 -1.0905
14472TIP3   OH264906   2.362   5.922  11.736 -0.3649 -0.2684 -0.1809
14472TIP3    H164907   2.297   5.970  11.786  0.0383  0.6095 -0.4870
14472TIP3    H264908   2.446   5.958  11.765 -0.1052 -0.0723 -1.1541
14473TIP3   OH264909   5.836   0.572   5.903  0.2473  0.1472  0.6412
14473TIP3    H164910   5.923   0.543   5.929  0.5852  1.1475  0.6497
14473TIP3    H264911   5.850   0.657   5.861 -0.7338  0.3651  0.7303
14474TIP3   OH264912   0.090   1.091  15.019 -0.2434 -0.2908 -0.0906
14474TIP3    H164913   0.018   1.106  15.081 -0.0483 -0.2018  0.1141
14474TIP3    H264914   0.088   1.168  14.962  2.1089  1.7120  2.2546
14475TIP3   OH264915   0.554   1.735  11.171 -0.6469  0.0718 -0.3311
14475TIP3    H164916   0.481   1.682  11.140 -0.3210 -0.9377  0.5626
14475TIP3    H264917   0.630   1.677  11.164 -0.5975 -0.3434  2.5945
14476TIP3   OH264918   2.667   6.035   1.901  0.4924 -0.4439 -0.2956
14476TIP3    H164919   2.577   6.005   1.900  0.3410 -0.0469  0.4323
14476TIP3    H264920   2.704   5.996   1.980  0.4284  0.8534  0.4046
14477TIP3   OH264921   3.892   0.327  13.089 -0.8070  0.1763  0.3865
14477TIP3    H164922   3.902   0.240  13.049  0.4257  0.9693 -1.1335
14477TIP3    H264923   3.895   0.310  13.183  0.2873 -1.3543  0.1215
14478TIP3   OH264924   3.008   4.018  13.007  1.0254  0.2589 -0.0732
14478TIP3    H164925   3.003   4.113  13.019  0.3552  0.0811  1.2397
14478TIP3    H264926   3.026   3.984  13.094  1.1945 -0.8341 -0.5178
14479TIP3   OH264927   6.595   5.819  15.874  0.0511 -0.4712  0.4076
14479TIP3    H164928   6.624   5.910  15.876  0.2249 -0.5400  1.7727
14479TIP3    H264929   6.516   5.819  15.819 -1.1585  0.8684  2.0706
14480TIP3   OH264930   1.439   4.082   5.473  0.5126  0.3707 -0.1890
14480TIP3    H164931   1.353   4.043   5.490  0.3276  0.8541  0.0102
14480TIP3    H264932   1.428   4.174   5.495  1.0651  0.4512 -0.2351
14481TIP3   OH264933   3.770   3.564  12.996  0.3982 -0.1400  0.2052
14481TIP3    H164934   3.680   3.552  12.967 -0.0747  2.5183  0.3134
14481TIP3    H264935   3.776   3.517  13.080 -0.4559 -1.4451 -0.4411
14482TIP3   OH264936   1.704   2.772  13.577  0.1175  0.0445 -0.3137
14482TIP3    H164937   1.771   2.750  13.642  1.4555  1.7881 -1.0281
14482TIP3    H264938   1.672   2.858  13.603  0.5567  0.7020 -1.8354
14483TIP3   OH264939   2.343   5.108  13.254  0.1103 -0.2472 -0.2929
14483TIP3    H164940   2.247   5.108  13.258  0.0851 -0.5893 -0.7951
14483TIP3    H264941   2.368   5.017  13.268  0.2413 -0.5582 -2.2184
14484TIP3   OH264942   2.601   1.046  16.663  0.2442 -0.1350 -0.1702
14484TIP3    H164943   2.580   1.139  16.651 -0.7884 -0.3210  0.0852
14484TIP3    H264944   2.573   1.004  16.582 -0.5261 -0.4067  0.2260
14485TIP3   OH264945   0.549   4.182   5.547 -0.0068  0.5565 -0.3097
14485TIP3    H164946   0.523   4.090   5.540  1.2779 -0.0574  1.9095
14485TIP3    H264947   0.616   4.193   5.480 -0.4792  0.0042 -0.8828
14486TIP3   OH264948   1.983   1.641   4.439  1.1130  0.2311  0.8636
14486TIP3    H164949   2.077   1.627   4.430  1.1144  0.0993  1.0826
14486TIP3    H264950   1.961   1.606   4.525  0.9141  0.5232  0.9346
14487TIP3   OH264951   3.004   6.169   6.121 -0.2513 -0.2134  0.9999
14487TIP3    H164952   2.951   6.229   6.069 -1.7352 -1.5295  0.9193
14487TIP3    H264953   3.044   6.110   6.056 -1.7644 -1.5887  1.2428
14488TIP3   OH264954   0.982   2.082  11.786 -0.1095 -0.1044 -0.5632
14488TIP3    H164955   0.927   2.007  11.763  0.0607 -0.6651  0.7622
14488TIP3    H264956   0.940   2.157  11.744 -0.6050 -0.8590 -1.4411
14489TIP3   OH264957   6.705   4.655   1.846 -0.6232  0.0609 -0.1687
14489TIP3    H164958   6.736   4.722   1.906 -0.6406  0.1518 -0.2602
14489TIP3    H264959   6.672   4.585   1.902  1.3101 -0.8090 -0.0206
14490TIP3   OH264960   4.758   0.979  12.083  0.1813 -0.3596 -0.2443
14490TIP3    H164961   4.778   1.066  12.050 -1.2178  0.0013 -0.2156
14490TIP3    H264962   4.708   0.938  12.013 -0.9673 -0.3631  0.5403
14491TIP3   OH264963   4.875   0.553   4.520 -0.0337 -0.0080  0.4933
14491TIP3    H164964   4.786   0.586   4.523 -0.4677 -1.0129 -0.3821
14491TIP3    H264965   4.869   0.463   4.553  0.3528 -0.6222 -1.0230
14492TIP3   OH264966   0.529   6.220   2.052 -0.6228  0.1709 -0.4095
14492TIP3    H164967   0.552   6.159   1.982  1.0555  0.2683  0.0174
14492TIP3    H264968   0.477   6.168   2.114  0.0440 -0.6008 -0.4788
14493TIP3   OH264969   0.331   1.159  13.911 -0.1539 -0.1962 -0.0381
14493TIP3    H164970   0.422   1.179  13.929  0.4259  2.0035 -4.1035
14493TIP3    H264971   0.282   1.207  13.978  1.5870 -0.3523  1.4271
14494TIP3   OH264972   1.807   0.060   1.353  0.5322 -0.3373  0.2028
14494TIP3    H164973   1.890   0.089   1.391  1.7394 -0.6558 -2.0307
14494TIP3    H264974   1.800  -0.032   1.376 -0.6558  0.2918  2.7417
14495TIP3   OH264975   6.817   5.668  16.057 -0.0320 -0.9761 -0.1595
14495TIP3    H164976   6.884   5.666  16.125 -1.3331 -2.2425  1.1841
14495TIP3    H264977   6.813   5.578  16.024 -0.8011 -0.8483 -0.4545
14496TIP3   OH264978   6.246   3.655   1.781 -0.0211  0.0439  0.2706
14496TIP3    H164979   6.262   3.590   1.850 -0.2512 -1.0387 -0.6744
14496TIP3    H264980   6.289   3.734   1.814  2.6415 -1.2736  0.3030
14497TIP3   OH264981   1.956   3.137  15.215 -0.2159 -0.6131  0.1351
14497TIP3    H164982   2.023   3.089  15.263 -0.1652 -1.6913 -0.9709
14497TIP3    H264983   1.998   3.219  15.191  0.0727 -0.4770  1.0645
14498TIP3   OH264984   2.219   2.458   0.501 -0.3566 -0.7629  0.1299
14498TIP3    H164985   2.132   2.436   0.533 -0.1872  0.5324  1.5915
14498TIP3    H264986   2.277   2.392   0.539 -0.7338 -1.9396 -1.2692
14499TIP3   OH264987   1.308   0.262  10.609  0.3576 -0.2456  0.0467
14499TIP3    H164988   1.354   0.194  10.658 -0.4205 -1.8147 -1.3171
14499TIP3    H264989   1.378   0.313  10.567  0.9276 -0.5502  0.6154
14500TIP3   OH264990   4.141   0.443   6.046  0.0882  0.2303 -0.0898
14500TIP3    H164991   4.183   0.399   6.120 -2.0581 -1.5090  0.2000
14500TIP3    H264992   4.079   0.504   6.087 -2.2052 -1.8239 -0.3380
14501TIP3   OH264993   5.745   1.133  11.823 -0.3749  0.2530  0.4351
14501TIP3    H164994   5.687   1.067  11.861 -0.4199 -0.6958 -1.1717
14501TIP3    H264995   5.721   1.214  11.867 -0.1976 -0.7904  2.6220
14502TIP3   OH264996   1.556   6.437   1.381 -0.3825  0.1479 -0.3781
14502TIP3    H164997   1.492   6.451   1.311 -0.1536 -1.8362 -1.0563
14502TIP3    H264998   1.527   6.356   1.423  1.0704 -0.2009 -0.0056
14503TIP3   OH264999   3.115   3.459   5.373 -0.7829  0.2786  0.7688
14503TIP3    H165000   3.195   3.428   5.328 -0.6133  1.8048 -0.0499
14503TIP3    H265001   3.078   3.380   5.412 -0.8764 -1.1510 -1.9860
14504TIP3   OH265002   4.417   1.532   2.073  0.6464  0.2618  0.1406
14504TIP3    H165003   4.491   1.515   2.132 -0.5208 -1.3399  1.2532
14504TIP3    H265004   4.367   1.601   2.117  0.4731 -0.0137  0.3845
14505TIP3   OH265005   3.459   0.417   3.700  0.5611  0.2405 -0.2693
14505TIP3    H165006   3.453   0.497   3.647 -0.2559 -0.8722 -1.9543
14505TIP3    H265007   3.411   0.438   3.780  0.3891  1.4449 -0.6685
14506TIP3   OH265008   1.859   1.529  12.687  0.5276 -0.1586  0.0457
14506TIP3    H165009   1.866   1.620  12.715  2.1742 -0.0812 -0.5023
14506TIP3    H265010   1.773   1.523  12.646  1.3303  1.8638 -2.1871
14507TIP3   OH265011   6.111   1.012   2.124 -0.0408  0.0720 -0.3721
14507TIP3    H165012   6.088   1.101   2.096 -0.5047  0.7740  1.9813
14507TIP3    H265013   6.190   1.023   2.176 -1.0988 -0.5713  1.4603
14508TIP3   OH265014   5.726   5.810  17.231 -0.8651  0.2270  0.2283
14508TIP3    H165015   5.818   5.790  17.212 -0.8264  0.6161 -0.0030
14508TIP3    H265016   5.730   5.875  17.301 -0.8881  1.9588 -1.3081
14509TIP3   OH265017   0.798   1.888  11.729  0.0711  0.7277 -0.4553
14509TIP3    H165018   0.874   1.834  11.708 -0.1897  0.0332  0.3083
14509TIP3    H265019   0.744   1.885  11.651 -0.6907 -1.4505  0.0845
14510TIP3   OH265020   0.517   3.260  17.092  0.5372  0.3573  0.0502
14510TIP3    H165021   0.578   3.251  17.019 -0.0870  2.0970 -0.7332
14510TIP3    H265022   0.521   3.352  17.116 -0.8998  0.2654  0.7537
14511TIP3   OH265023   2.904   2.710   5.381 -0.1776 -0.3289  0.1151
14511TIP3    H165024   2.984   2.659   5.370 -1.7134 -2.8511 -0.0493
14511TIP3    H265025   2.840   2.668   5.323 -1.5258  1.8953 -0.1311
14512TIP3   OH265026   4.343   2.931   2.611  0.1748 -0.9732 -0.2057
14512TIP3    H165027   4.396   2.913   2.533 -1.7729 -1.0495 -1.6010
14512TIP3    H265028   4.397   2.989   2.664  1.8052 -1.3816 -1.3373
14513TIP3   OH265029   1.395   5.986   2.261  0.8376  0.0755 -0.5902
14513TIP3    H165030   1.486   5.976   2.288  1.3646 -0.5662 -2.4185
14513TIP3    H265031   1.350   5.910   2.299  0.7791  0.9667  1.2338
14514TIP3   OH265032   5.846   2.687  14.980  0.2485 -0.3130 -0.4796
14514TIP3    H165033   5.931   2.672  14.937  0.2072  0.2184 -0.7571
14514TIP3    H265034   5.817   2.771  14.945  0.1839  0.1048  0.5459
14515TIP3   OH265035   1.984   1.603   0.178 -0.2523 -0.3156  0.0978
14515TIP3    H165036   2.044   1.666   0.137 -0.8093  1.5725  2.0439
14515TIP3    H265037   2.038   1.555   0.241 -0.7361  1.5485  2.0225
14516TIP3   OH265038   0.653   4.141   3.246  0.4976 -0.2124 -0.6071
14516TIP3    H165039   0.652   4.076   3.177  2.0738 -0.5143 -0.3837
14516TIP3    H265040   0.739   4.130   3.289 -0.0709  0.5540  0.8142
14517TIP3   OH265041   2.380   0.092   5.467 -0.4880  0.0259  0.3116
14517TIP3    H165042   2.454   0.084   5.408 -0.9373  2.9568 -0.8109
14517TIP3    H265043   2.342   0.004   5.471  1.7823 -1.0720 -0.7078
14518TIP3   OH265044   2.332   4.538   3.935  0.5826 -0.1518  0.5573
14518TIP3    H165045   2.294   4.618   3.972  0.5208 -0.8988  2.1822
14518TIP3    H265046   2.274   4.468   3.966  1.5815 -0.9993  0.5409
14519TIP3   OH265047   2.584   5.140   3.665  0.1356  0.6589  0.7601
14519TIP3    H165048   2.590   5.110   3.756 -0.9571  0.6035  0.8292
14519TIP3    H265049   2.667   5.186   3.649  0.0409  1.3130  2.0181
14520TIP3   OH265050   2.827   4.235  12.415  0.3679 -0.7993  0.4004
14520TIP3    H165051   2.835   4.170  12.485 -0.0004 -1.4972 -0.1876
14520TIP3    H265052   2.742   4.216  12.375  0.3189 -0.0324  0.1326
14521TIP3   OH265053   2.225   5.642  15.445 -0.2507  0.4694 -0.7217
14521TIP3    H165054   2.209   5.548  15.456 -1.6887  0.8464  0.8331
14521TIP3    H265055   2.316   5.648  15.418 -0.0211 -1.3622 -0.4577
14522TIP3   OH265056   3.011   4.804  15.211 -0.0144  0.5175  0.1177
14522TIP3    H165057   3.043   4.801  15.301 -0.3911 -2.0117  0.2577
14522TIP3    H265058   3.080   4.848  15.162  1.8206 -1.0815  1.1184
14523TIP3   OH265059   0.219   4.823  12.274 -0.1546 -0.2182 -0.2736
14523TIP3    H165060   0.275   4.889  12.235  0.8662 -0.2417  1.0869
14523TIP3    H265061   0.153   4.873  12.323 -1.0645 -0.2009 -1.4574
14524TIP3   OH265062   2.967   4.802  13.720  0.1063 -0.2693  0.1886
14524TIP3    H165063   2.889   4.857  13.724  0.4264  0.0934  2.0048
14524TIP3    H265064   3.025   4.837  13.787  0.9175 -1.9266  0.4091
14525TIP3   OH265065   4.439   4.262  12.403 -0.1748 -0.3326  0.0990
14525TIP3    H165066   4.507   4.264  12.336  0.0021  0.9520  0.2912
14525TIP3    H265067   4.413   4.170  12.409 -2.2702 -0.1731 -3.8025
14526TIP3   OH265068   6.460   5.589   5.704 -0.6565 -0.0602 -0.2073
14526TIP3    H165069   6.482   5.576   5.612 -1.6039  0.3391 -0.4989
14526TIP3    H265070   6.393   5.657   5.704 -1.1690 -0.5380  0.7185
14527TIP3   OH265071   5.967   0.386  16.796 -0.1124  0.4361  0.1803
14527TIP3    H165072   6.049   0.396  16.748  0.6650 -1.7820  0.9332
14527TIP3    H265073   5.991   0.394  16.888 -0.3629 -1.7752  0.5123
14528TIP3   OH265074   3.026   5.834  11.455  0.4899  0.0024  0.3124
14528TIP3    H165075   2.957   5.770  11.437  1.3116 -0.7097 -0.3634
14528TIP3    H265076   2.988   5.918  11.429 -0.6239 -0.1801  1.2772
14529TIP3   OH265077   3.290   0.952   0.074  0.0381 -0.1688  0.0740
14529TIP3    H165078   3.205   0.929   0.036  0.0709 -1.4131  0.6855
14529TIP3    H265079   3.343   0.873   0.061  0.9901  0.4642  0.0259
14530TIP3   OH265080   4.354   0.088   4.195 -0.1709  0.3680  0.9637
14530TIP3    H165081   4.439   0.058   4.162  0.0705  1.1501  0.8441
14530TIP3    H265082   4.293   0.019   4.171 -0.0622  1.0050 -1.4082
14531TIP3   OH265083   2.274   0.714   4.379 -0.3486 -0.2950 -0.2228
14531TIP3    H165084   2.327   0.636   4.387  1.6357  1.0651  0.6021
14531TIP3    H265085   2.280   0.738   4.286 -0.3978 -0.7297 -0.3387
14532TIP3   OH265086   4.567   5.071  12.309  0.1625 -0.0304 -0.0330
14532TIP3    H165087   4.591   5.159  12.340  0.0573 -0.6651  1.9608
14532TIP3    H265088   4.575   5.077  12.214  1.6140  1.7238  0.1362
14533TIP3   OH265089   2.650   3.983  12.183  0.0176 -0.2214 -0.0393
14533TIP3    H165090   2.556   3.995  12.178  0.0146 -0.1722  0.1125
14533TIP3    H265091   2.666   3.963  12.275  0.1083 -0.6288 -0.1428
14534TIP3   OH265092   6.053   1.834  15.560 -0.3118 -0.2749  0.5205
14534TIP3    H165093   6.133   1.880  15.583 -1.0000  1.7132 -0.7872
14534TIP3    H265094   6.008   1.821  15.644  1.3100 -1.4230  1.2710
14535TIP3   OH265095   1.239   0.307  13.856 -0.0216  0.0339  0.0835
14535TIP3    H165096   1.205   0.229  13.901 -0.3487  1.0765  1.7230
14535TIP3    H265097   1.165   0.338  13.803 -0.7700  0.6842  1.4552
14536TIP3   OH265098   4.845   3.933  16.981 -0.7626  0.2977 -0.8068
14536TIP3    H165099   4.755   3.927  16.948 -0.2279  3.6149 -3.3677
14536TIP3    H265100   4.835   3.956  17.073 -2.5437  0.4570 -0.9992
14537TIP3   OH265101   3.131   5.218  12.528 -0.1639  0.3026 -0.3254
14537TIP3    H165102   3.092   5.283  12.586 -0.1243  1.8429 -1.9393
14537TIP3    H265103   3.205   5.264  12.487  1.2161 -1.4538  0.0767
14538TIP3   OH265104   4.841   2.770  14.599  0.3642 -0.8976  0.2101
14538TIP3    H165105   4.797   2.855  14.589 -1.0809 -1.7339 -0.8978
14538TIP3    H265106   4.771   2.705  14.588  1.6128 -2.2621 -0.0039
14539TIP3   OH265107   4.467   3.331  14.357 -0.1836 -0.2427 -0.1119
14539TIP3    H165108   4.453   3.332  14.262  0.1325 -0.5450 -0.1614
14539TIP3    H265109   4.449   3.421  14.384  1.5308  0.3129 -0.7185
14540TIP3   OH265110   2.524   2.815  12.879 -0.1066 -0.4310  0.1620
14540TIP3    H165111   2.537   2.726  12.911 -0.0294 -0.1567  0.8979
14540TIP3    H265112   2.430   2.819  12.858 -0.7363  0.1335  2.7449
14541TIP3   OH265113   1.065   4.341   4.971 -0.5255 -0.0289 -0.3629
14541TIP3    H165114   1.044   4.261   4.924 -0.4993 -0.4131  0.2683
14541TIP3    H265115   1.006   4.407   4.934  0.9433  0.2264 -2.4452
14542TIP3   OH265116   5.353   0.566   4.340  0.0469  0.1366  0.4423
14542TIP3    H165117   5.270   0.555   4.386  0.3534  1.0965  1.2520
14542TIP3    H265118   5.420   0.560   4.408  0.4990  1.7448  0.1978
14543TIP3   OH265119   3.996   5.305   3.843 -0.5685 -0.6380  0.1872
14543TIP3    H165120   3.907   5.325   3.873 -0.4190  0.4684 -0.0254
14543TIP3    H265121   3.997   5.211   3.830 -1.2769 -0.8517  1.5591
14544TIP3   OH265122   6.177   5.028  10.827  0.2222 -0.2692  0.8030
14544TIP3    H165123   6.122   4.952  10.812 -0.2596  0.2275  0.0173
14544TIP3    H265124   6.255   5.013  10.773  0.2213 -0.2952  0.8086
14545TIP3   OH265125   5.822   3.475  16.799  0.1622  0.6261  0.1188
14545TIP3    H165126   5.818   3.551  16.741 -0.1478 -0.9805 -2.0858
14545TIP3    H265127   5.915   3.462  16.816  0.4522 -0.1813 -1.8983
14546TIP3   OH265128   2.596   4.454   4.411  0.2955 -0.1667 -0.0845
14546TIP3    H165129   2.597   4.381   4.350  1.4630 -0.3366  0.1146
14546TIP3    H265130   2.568   4.529   4.358 -0.3456 -0.6249 -0.4166
14547TIP3   OH265131   2.220   5.121  10.782 -0.8333 -0.5450  0.4410
14547TIP3    H165132   2.175   5.203  10.803 -2.9348 -1.9732  1.9961
14547TIP3    H265133   2.309   5.134  10.815 -0.6774  1.5565 -0.6265
14548TIP3   OH265134   4.762   4.557  15.325  0.1671 -0.3307 -0.3650
14548TIP3    H165135   4.831   4.523  15.383  2.3906  2.8155 -0.9111
14548TIP3    H265136   4.781   4.650  15.317 -2.8989  0.2671 -2.4099
14549TIP3   OH265137   2.617   3.823   0.991  0.0076 -0.2438 -0.2980
14549TIP3    H165138   2.542   3.774   1.025  0.3989 -0.7481 -0.1442
14549TIP3    H265139   2.694   3.776   1.023  0.3951  0.2290 -0.5046
14550TIP3   OH265140   1.411   3.022  12.854  0.1883 -0.3283  0.6825
14550TIP3    H165141   1.361   3.069  12.786  0.3491 -2.6618 -1.1540
14550TIP3    H265142   1.487   2.987  12.808  0.8689 -1.1203  2.3376
14551TIP3   OH265143   4.612   3.043  15.919 -0.5285 -0.4832  0.1063
14551TIP3    H165144   4.643   3.002  15.838  0.9237  2.6972 -1.1242
14551TIP3    H265145   4.691   3.052  15.973 -0.8006  0.5359  0.3548
14552TIP3   OH265146   4.821   4.849  15.323  0.1716  0.0399 -0.0946
14552TIP3    H165147   4.758   4.852  15.395 -0.2562 -0.2263 -0.4480
14552TIP3    H265148   4.882   4.920  15.341 -0.6610  0.7759 -0.1318
14553TIP3   OH265149   5.408   6.760   0.041  0.4255  0.8217  0.0327
14553TIP3    H165150   5.496   6.797   0.032  0.3137  1.0824 -0.0093
14553TIP3    H265151   5.372   6.763  -0.048  0.6961 -0.1093 -0.1179
14554TIP3   OH265152   4.407   3.016   5.338 -0.3245 -0.7700 -0.1931
14554TIP3    H165153   4.498   3.015   5.309 -0.4997  0.3131 -0.8314
14554TIP3    H265154   4.398   3.097   5.388 -0.5611 -1.6148  1.1724
14555TIP3   OH265155   3.088   5.888  12.434  0.6555  0.0583  0.1742
14555TIP3    H165156   3.066   5.974  12.469  0.1978 -0.2686  0.7065
14555TIP3    H265157   3.145   5.906  12.359  0.5231  0.8220  0.2531
14556TIP3   OH265158   1.873   4.352   6.064 -0.5495 -0.4725  0.1442
14556TIP3    H165159   1.919   4.436   6.064 -0.5126 -0.4574 -1.3103
14556TIP3    H265160   1.833   4.346   6.151 -1.3469  1.5057 -0.0222
14557TIP3   OH265161   3.463   1.584   0.362 -0.3661 -0.4467 -0.2902
14557TIP3    H165162   3.475   1.643   0.437 -1.2950 -1.8156  1.0001
14557TIP3    H265163   3.433   1.641   0.292 -0.6278  0.7181  0.7291
14558TIP3   OH265164   3.568   5.169  12.457 -0.5211 -0.0432  0.2984
14558TIP3    H165165   3.599   5.107  12.391 -0.2329  2.6615 -2.3690
14558TIP3    H265166   3.649   5.206  12.493 -0.6318  0.8177 -0.3006
14559TIP3   OH265167   1.801   3.708   3.609  0.2453  0.1014 -0.2192
14559TIP3    H165168   1.776   3.775   3.672 -0.1812  0.0466 -0.3257
14559TIP3    H265169   1.829   3.757   3.532  0.7774  0.1680  0.0119
14560TIP3   OH265170   0.554   6.053  16.249 -0.5051  0.0085 -0.7550
14560TIP3    H165171   0.588   6.006  16.325 -0.6586  1.1161  0.0259
14560TIP3    H265172   0.581   6.001  16.174  0.8694 -0.3808 -0.0190
14561TIP3   OH265173   5.010   2.588  14.277  0.4478 -0.1053 -0.4158
14561TIP3    H165174   5.016   2.681  14.258  3.4897 -0.4728 -1.8895
14561TIP3    H265175   5.062   2.576  14.356 -1.7201 -0.3610  1.0738
14562TIP3   OH265176   4.228   6.537  16.622  0.3133  0.5709  0.3760
14562TIP3    H165177   4.298   6.597  16.645  1.6737  0.0545 -2.0403
14562TIP3    H265178   4.215   6.550  16.528 -1.9351 -0.2975  0.4980
14563TIP3   OH265179   4.113   6.740   5.190  0.1937 -0.4222 -0.2609
14563TIP3    H165180   4.021   6.715   5.184  0.1894 -0.5677  0.3923
14563TIP3    H265181   4.127   6.797   5.114 -0.7357  0.5333  0.2539
14564TIP3   OH265182   2.952   0.970  11.976 -0.0654 -0.3622 -0.6508
14564TIP3    H165183   3.033   0.950  11.930 -0.4495 -0.7637 -1.1758
14564TIP3    H265184   2.960   0.926  12.060  1.6292  2.2405  0.7055
14565TIP3   OH265185   4.152   2.971  10.555  0.7502 -0.3072 -0.6216
14565TIP3    H165186   4.236   2.948  10.595  0.7154 -0.9407 -0.9066
14565TIP3    H265187   4.108   2.887  10.541 -0.7065  0.0884  1.1474
14566TIP3   OH265188   5.916   6.270   4.975  0.5424  0.3143  0.0427
14566TIP3    H165189   5.885   6.198   5.031 -2.1741  1.8002  0.6335
14566TIP3    H265190   5.996   6.236   4.935  0.3056 -2.3871  1.5916
14567TIP3   OH265191   6.264   5.568   0.584 -0.1650 -0.1354  0.1774
14567TIP3    H165192   6.310   5.578   0.501 -0.6054  0.0890 -0.0419
14567TIP3    H265193   6.247   5.474   0.591 -0.1964 -0.1455 -0.0269
14568TIP3   OH265194   4.168   0.783  13.196  0.2944 -0.2732  0.0320
14568TIP3    H165195   4.233   0.850  13.179  0.3993 -0.7238 -1.4315
14568TIP3    H265196   4.184   0.716  13.130 -1.9040 -0.1987 -0.6499
14569TIP3   OH265197   2.624   1.263  14.406 -0.4432  0.2452  0.4136
14569TIP3    H165198   2.678   1.287  14.331  0.6173 -2.4330  0.1896
14569TIP3    H265199   2.670   1.296  14.482 -0.5299  1.3247  0.0055
14570TIP3   OH265200   6.682   2.980  13.877 -0.0664 -0.2171  0.5472
14570TIP3    H165201   6.774   2.957  13.863  0.2032  0.7227  0.7440
14570TIP3    H265202   6.644   2.902  13.918  0.9419 -0.1463  1.6666
14571TIP3   OH265203   3.604   4.272   3.111  0.4142 -0.3454  0.0455
14571TIP3    H165204   3.651   4.350   3.083  0.4299 -0.8145 -1.3206
14571TIP3    H265205   3.524   4.272   3.058  0.0282 -0.8319  0.6078
14572TIP3   OH265206   1.021   1.123  11.452 -0.1097  0.1892  0.2496
14572TIP3    H165207   1.117   1.131  11.459 -0.1183  2.4336 -1.2414
14572TIP3    H265208   0.989   1.147  11.539  0.6385 -0.6774  0.7989
14573TIP3   OH265209   4.483   6.694  14.068 -0.2237 -0.2656 -0.2435
14573TIP3    H165210   4.445   6.696  14.156 -0.9145 -0.6332 -0.5173
14573TIP3    H265211   4.407   6.686  14.010  0.1302  1.2392 -0.9577
14574TIP3   OH265212   0.228   3.799   4.927  0.1193  0.0380 -0.9238
14574TIP3    H165213   0.278   3.717   4.933  0.4844  0.1215 -2.4614
14574TIP3    H265214   0.262   3.852   4.999  1.3578 -0.3954 -1.1613
14575TIP3   OH265215   0.074   2.955  13.495 -0.7950  0.0023  0.4581
14575TIP3    H165216   0.057   2.936  13.588  2.1591  0.0269  1.0938
14575TIP3    H265217   0.133   2.885  13.467 -0.1557  1.0230 -0.8462
14576TIP3   OH265218   6.453   2.833  12.126  0.1830 -0.2556  0.1869
14576TIP3    H165219   6.390   2.895  12.090  0.3733 -0.6286 -0.8217
14576TIP3    H265220   6.503   2.803  12.050 -0.2786 -2.0722  0.5578
14577TIP3   OH265221   3.153   6.034  10.206  0.3400  1.0415  0.1822
14577TIP3    H165222   3.110   6.078  10.132 -1.7675 -0.5749  0.3748
14577TIP3    H265223   3.197   6.105  10.253  0.4196  2.3436 -1.7178
14578TIP3   OH265224   3.581   5.073   3.908  0.1010  0.1069  0.2737
14578TIP3    H165225   3.500   5.098   3.952 -0.6534  0.5710 -1.3164
14578TIP3    H265226   3.634   5.033   3.977 -0.3857  2.1561  1.9739
14579TIP3   OH265227   2.494   1.435   3.924 -0.3718 -0.1065  0.3247
14579TIP3    H165228   2.503   1.426   4.019 -1.2592 -1.0267  0.3409
14579TIP3    H265229   2.474   1.527   3.910 -0.3512  0.0123  1.0388
14580TIP3   OH265230   6.686   3.485   1.008  0.1148 -0.1741 -0.0393
14580TIP3    H165231   6.669   3.548   0.938 -1.6953 -1.5363 -0.9166
14580TIP3    H265232   6.773   3.449   0.987 -0.2407 -0.2942 -1.4122
14581TIP3   OH265233   1.814   4.390  16.742 -0.2014 -0.2343 -0.1945
14581TIP3    H165234   1.908   4.378  16.726  0.2491  2.3284  0.1859
14581TIP3    H265235   1.772   4.325  16.686  1.7392 -0.1374 -1.8779
14582TIP3   OH265236   3.301   2.291  16.493 -0.5185  0.1281  0.3760
14582TIP3    H165237   3.237   2.230  16.457 -0.8878  0.8964 -0.2915
14582TIP3    H265238   3.274   2.376  16.460  0.7005  0.5031  0.2990
14583TIP3   OH265239   4.568   6.447   4.711  0.3959 -0.2941  0.0454
14583TIP3    H165240   4.556   6.353   4.709  0.7632 -0.3374 -1.8797
14583TIP3    H265241   4.622   6.463   4.789 -1.6116 -1.3604  1.7442
14584TIP3   OH265242   6.198   1.371   3.356  0.5404 -0.1231  0.3168
14584TIP3    H165243   6.260   1.299   3.367 -3.3308 -3.7970  0.7922
14584TIP3    H265244   6.179   1.401   3.445  0.1411 -0.4372  0.3388
14585TIP3   OH265245   3.750   1.397  16.315  0.2851  0.1151  0.0631
14585TIP3    H165246   3.661   1.363  16.301  0.3304  0.7632 -2.0849
14585TIP3    H265247   3.777   1.430  16.230  2.9345 -0.7680  0.4675
14586TIP3   OH265248   5.864   1.770  15.805  0.0705 -0.2355  0.4271
14586TIP3    H165249   5.940   1.712  15.811 -0.4500 -0.9930  0.0010
14586TIP3    H265250   5.807   1.726  15.742 -1.4681 -0.5700  1.9665
14587TIP3   OH265251   2.976   1.741   2.624  0.6500 -0.4906 -0.6432
14587TIP3    H165252   2.982   1.742   2.529  2.1041  2.0248 -0.6244
14587TIP3    H265253   2.909   1.806   2.645  0.0271 -1.3438  0.0524
14588TIP3   OH265254   0.493   0.172  14.428 -0.4518 -0.2679  0.1315
14588TIP3    H165255   0.491   0.221  14.346  1.6320 -2.1820 -1.1811
14588TIP3    H265256   0.401   0.160  14.451 -1.0570  1.9730 -0.8303
14589TIP3   OH265257   5.887   2.960  11.487  0.1984  0.3851 -0.4693
14589TIP3    H165258   5.902   3.008  11.568  3.5474 -0.7110 -0.2797
14589TIP3    H265259   5.842   3.023  11.430 -1.4349  1.4724  1.8581
14590TIP3   OH265260   2.448   1.720   5.624  0.1391 -0.1196 -0.7507
14590TIP3    H165261   2.406   1.806   5.627  0.5399  0.0601  0.5378
14590TIP3    H265262   2.420   1.677   5.705  1.2883 -0.5378 -0.5606
14591TIP3   OH265263   4.913   3.785  14.372  0.1296  0.2824  0.1765
14591TIP3    H165264   4.825   3.816  14.395  0.2279  0.8339 -0.1507
14591TIP3    H265265   4.900   3.737  14.290  0.3833  2.0339 -0.9620
14592TIP3   OH265266   6.438   1.519  16.696  0.5650 -0.1845 -0.2280
14592TIP3    H165267   6.488   1.451  16.650  1.0735 -0.0391  0.0981
14592TIP3    H265268   6.489   1.536  16.776 -0.4526 -0.6480  0.5394
14593TIP3   OH265269   1.420   4.974   4.993 -0.2097 -0.4215 -1.0068
14593TIP3    H165270   1.512   5.000   5.000 -0.1858 -0.6269 -0.5441
14593TIP3    H265271   1.407   4.911   5.064 -0.8423 -0.0078 -0.7536
14594TIP3   OH265272   2.395   0.486  13.416  0.4219  0.0029  0.0263
14594TIP3    H165273   2.418   0.465  13.507 -0.4324  2.3103  0.8478
14594TIP3    H265274   2.450   0.428  13.364  0.3078 -2.0304  1.9902
14595TIP3   OH265275   2.947   1.741   2.339 -0.2146 -0.0631  0.2598
14595TIP3    H165276   2.945   1.649   2.311  0.3590 -0.3867  1.2243
14595TIP3    H265277   3.009   1.783   2.279  1.7002 -0.9419  1.5266
14596TIP3   OH265278   5.510   3.849  13.396  0.3040  0.3890  0.2385
14596TIP3    H165279   5.480   3.764  13.428  1.4952 -0.4587 -0.8165
14596TIP3    H265280   5.593   3.831  13.352  2.1807  2.5358  2.5587
14597TIP3   OH265281   6.137   4.266   5.148  1.0023 -0.2314  0.4968
14597TIP3    H165282   6.159   4.326   5.219  2.8716  0.9812 -1.0203
14597TIP3    H265283   6.053   4.227   5.174  0.3108  2.1436  2.1011
14598TIP3   OH265284   6.447   6.491  17.144  0.1008 -0.2377 -0.3579
14598TIP3    H165285   6.437   6.447  17.228 -1.7451  1.4196  0.3470
14598TIP3    H265286   6.396   6.437  17.082 -2.8074  1.1642  0.6467
14599TIP3   OH265287   2.188   6.486  15.097  0.1487  0.2002 -0.5994
14599TIP3    H165288   2.218   6.476  15.187 -0.0912  2.1394 -0.2636
14599TIP3    H265289   2.267   6.508  15.047  0.1068  0.1999 -0.6667
14600TIP3   OH265290   1.925   4.154  14.404  0.0019  0.2545 -0.1908
14600TIP3    H165291   1.855   4.089  14.401  1.7199 -1.8237  1.2788
14600TIP3    H265292   1.985   4.128  14.334 -0.2629  1.5377 -0.9246
14601TIP3   OH265293   1.364   4.159  10.995  0.5716  0.2440  0.3056
14601TIP3    H165294   1.336   4.095  11.061  0.3153 -0.1490 -0.1731
14601TIP3    H265295   1.458   4.169  11.009  0.9608 -1.5279 -0.6800
14602TIP3   OH265296   0.423   2.950   2.608  0.4614 -0.0504 -0.7820
14602TIP3    H165297   0.409   2.855   2.613  3.3458 -0.5377  0.9740
14602TIP3    H265298   0.517   2.961   2.628  0.1403  3.1996 -0.5208
14603TIP3   OH265299   6.293   2.786   5.114  0.5371 -0.0830 -0.0668
14603TIP3    H165300   6.359   2.827   5.059  0.8169  1.0096  1.0413
14603TIP3    H265301   6.285   2.843   5.190  0.8043 -1.9707  1.4817
14604TIP3   OH265302   4.140   3.196   4.479 -0.0569 -0.0090  0.2962
14604TIP3    H165303   4.180   3.200   4.566 -0.8195  2.4318  0.6038
14604TIP3    H265304   4.047   3.212   4.494  0.1453  3.2333 -1.1245
14605TIP3   OH265305   4.847   4.109  10.840 -0.7627 -0.3634  0.1730
14605TIP3    H165306   4.834   4.118  10.745 -0.8110 -1.1994  0.0950
14605TIP3    H265307   4.936   4.141  10.854 -1.4459  1.7033  0.1571
14606TIP3   OH265308   4.419   2.869  10.623  0.1594 -0.1429  0.0273
14606TIP3    H165309   4.506   2.831  10.618  0.7542  1.2876 -0.9712
14606TIP3    H265310   4.434   2.963  10.632 -1.2727  0.1017  0.0774
14607TIP3   OH265311   2.525   1.240   0.464  0.4964 -0.0465  0.0420
14607TIP3    H165312   2.608   1.284   0.481  0.0137  0.6086  0.7863
14607TIP3    H265313   2.547   1.171   0.401  2.1626 -1.8164  2.4108
14608TIP3   OH265314   3.734   6.033  14.198  0.0716 -0.4166  0.3579
14608TIP3    H165315   3.818   6.072  14.222 -0.5249  0.9478  0.2836
14608TIP3    H265316   3.756   5.942  14.175  1.6879  0.1688 -0.6172
14609TIP3   OH265317   2.831   5.144  12.052 -0.0611 -0.0159  0.3387
14609TIP3    H165318   2.857   5.134  12.143 -0.6320  3.2342  0.9792
14609TIP3    H265319   2.896   5.205  12.015 -1.6686  1.2867 -0.4559
14610TIP3   OH265320   3.504   1.215  13.983 -0.0877 -0.3133 -0.2388
14610TIP3    H165321   3.424   1.184  13.941 -0.3668 -0.1167  0.1388
14610TIP3    H265322   3.482   1.303  14.014  0.2902 -0.2404 -0.1699
14611TIP3   OH265323   3.759   1.619   0.316 -0.0064  0.0818 -0.8217
14611TIP3    H165324   3.802   1.657   0.240 -1.4801  0.4899 -1.4807
14611TIP3    H265325   3.669   1.603   0.288 -0.9260  1.3729  1.1733
14612TIP3   OH265326   5.792   2.361   3.028  0.0979  0.3136  0.6654
14612TIP3    H165327   5.748   2.286   2.988  1.2374  0.0970 -0.2196
14612TIP3    H265328   5.869   2.323   3.071  0.7462  0.9904  0.1082
14613TIP3   OH265329   4.998   3.455  15.184 -0.4377 -0.3800 -0.1424
14613TIP3    H165330   5.001   3.510  15.262  0.2167 -0.5886 -0.0135
14613TIP3    H265331   4.989   3.517  15.111 -0.6502 -0.1632  0.0660
14614TIP3   OH265332   3.803   2.174   4.978 -0.7764 -0.0093  0.2118
14614TIP3    H165333   3.816   2.097   4.922  2.2535  0.9340 -0.5654
14614TIP3    H265334   3.742   2.230   4.928 -0.4892 -0.5077 -0.7157
14615TIP3   OH265335   5.063   5.819  15.097  0.3082 -0.2805  0.6047
14615TIP3    H165336   5.157   5.835  15.105  0.4942 -1.1494  0.2016
14615TIP3    H265337   5.024   5.907  15.102  1.2680  0.2854 -0.9730
14616TIP3   OH265338   6.327   5.041  14.349  0.1405 -0.2260 -0.5915
14616TIP3    H165339   6.292   4.978  14.285  2.2962 -0.7575 -1.3422
14616TIP3    H265340   6.250   5.073  14.395 -1.2013 -2.2247 -1.2815
14617TIP3   OH265341   4.102   0.519  14.305 -0.5164 -0.1125 -0.2924
14617TIP3    H165342   4.053   0.590  14.347 -1.8686 -0.2538 -1.5374
14617TIP3    H265343   4.083   0.529  14.212  0.4473 -1.2449 -0.6342
14618TIP3   OH265344   0.420   6.304   5.990 -0.5309  0.1212  0.1008
14618TIP3    H165345   0.471   6.298   6.072 -0.1365  0.8443 -0.0852
14618TIP3    H265346   0.476   6.355   5.931 -0.6664 -0.6736 -0.7365
14619TIP3   OH265347   3.063   2.866   0.317  0.0041  0.2476 -0.0702
14619TIP3    H165348   3.130   2.930   0.340 -0.5228  0.0360  2.2087
14619TIP3    H265349   3.086   2.839   0.228  1.2924  2.2292 -0.3909
14620TIP3   OH265350   3.639   0.476   4.321 -0.2395 -0.8729  0.6171
14620TIP3    H165351   3.707   0.428   4.367  2.4355  1.2843 -0.7760
14620TIP3    H265352   3.623   0.554   4.375 -2.2663 -1.7048  1.3120
14621TIP3   OH265353   5.063   2.332  11.416  0.0442 -0.0778  0.6171
14621TIP3    H165354   4.989   2.277  11.440  0.3540 -0.4785  0.6772
14621TIP3    H265355   5.118   2.276  11.360  0.0176  0.3984  0.1064
14622TIP3   OH265356   6.662   2.492   5.430  0.1135  0.2960 -0.3874
14622TIP3    H165357   6.585   2.441   5.456  0.2759 -0.9512 -2.2011
14622TIP3    H265358   6.720   2.489   5.506 -0.5870 -0.8192  0.1218
14623TIP3   OH265359   2.429   0.519   5.388 -0.3363  0.3481  0.4890
14623TIP3    H165360   2.415   0.512   5.482 -0.9851  0.6158  0.4207
14623TIP3    H265361   2.453   0.611   5.374 -2.0020  0.7770  0.2010
14624TIP3   OH265362   4.413   5.081  17.147  0.1477 -0.3747 -0.0633
14624TIP3    H165363   4.466   5.002  17.153 -0.2513 -0.6117  0.4024
14624TIP3    H265364   4.466   5.149  17.189 -0.3976 -0.8685  1.4730
14625TIP3   OH265365   2.377   0.002  16.994 -0.5897  0.5341 -0.0822
14625TIP3    H165366   2.282   0.000  17.004 -0.5575  0.5323  0.2219
14625TIP3    H265367   2.397  -0.075  16.941 -0.7069  0.2533  0.2788
14626TIP3   OH265368   1.920   2.979  16.885 -0.6721 -0.2705  0.5911
14626TIP3    H165369   1.863   3.055  16.895 -0.9843 -0.6612  1.9509
14626TIP3    H265370   1.878   2.927  16.816 -1.6767 -0.2909  1.2021
14627TIP3   OH265371   2.425   0.788  14.348 -0.5119 -0.1929 -0.2085
14627TIP3    H165372   2.364   0.858  14.325 -0.1442  0.5024  0.8189
14627TIP3    H265373   2.511   0.832  14.353 -0.3645 -0.5810  0.9794
14628TIP3   OH265374   5.322   5.445   1.560  0.3628 -0.5561 -0.1972
14628TIP3    H165375   5.360   5.373   1.611  2.2502  0.3673 -0.2177
14628TIP3    H265376   5.254   5.480   1.617 -0.0529 -1.8426  0.1412
14629TIP3   OH265377   3.504   4.690   5.156  0.4191 -0.2135 -0.0033
14629TIP3    H165378   3.583   4.672   5.207 -0.8547 -1.8728  1.5040
14629TIP3    H265379   3.447   4.738   5.216 -0.7813 -1.4698 -0.0835
14630TIP3   OH265380   4.621   0.160   4.662  0.7793  0.2071 -0.2029
14630TIP3    H165381   4.582   0.133   4.579 -3.0587 -0.4709  1.5789
14630TIP3    H265382   4.651   0.078   4.702  0.5938  0.2220 -0.0300
14631TIP3   OH265383   2.218   6.781   3.111 -0.1948 -0.8102 -0.2229
14631TIP3    H165384   2.288   6.768   3.175 -1.0171  0.6095  1.0220
14631TIP3    H265385   2.256   6.838   3.044 -0.2048  0.1309  0.5585
14632TIP3   OH265386   0.253   5.723   1.511 -0.4564  0.3631  0.0902
14632TIP3    H165387   0.173   5.670   1.510  0.1099 -0.5838 -2.2853
14632TIP3    H265388   0.259   5.760   1.423  2.3738 -0.7048 -0.2881
14633TIP3   OH265389   0.827   0.548  12.377  1.0309 -0.0058 -0.6019
14633TIP3    H165390   0.881   0.534  12.455  0.7109 -0.2059 -0.4123
14633TIP3    H265391   0.758   0.481  12.383  0.8172  0.1843 -0.8884
14634TIP3   OH265392   0.411   0.388  16.819 -0.1473  0.3567  0.3461
14634TIP3    H165393   0.416   0.470  16.867 -1.0201 -0.6035  2.2009
14634TIP3    H265394   0.355   0.332  16.874 -0.9162 -0.9322 -1.6556
14635TIP3   OH265395   2.693   5.894  16.262 -0.1404 -0.2741 -0.0673
14635TIP3    H165396   2.775   5.883  16.311  0.6277  0.6895 -1.1085
14635TIP3    H265397   2.676   5.807  16.225  0.4018 -0.4791  0.1519
14636TIP3   OH265398   5.863   0.395   0.467 -0.1367 -0.6282  0.3453
14636TIP3    H165399   5.829   0.481   0.441  0.8471 -0.4813 -0.5158
14636TIP3    H265400   5.958   0.403   0.458  0.0191 -1.5676  1.0285
14637TIP3   OH265401   2.175   0.930   5.925  0.4384 -0.1696  0.5137
14637TIP3    H165402   2.122   0.911   5.847  1.9837 -2.6335 -0.0149
14637TIP3    H265403   2.129   0.887   5.996  2.2520 -3.5332 -0.1654
14638TIP3   OH265404   1.181   2.829  16.455  0.1970 -0.3698 -0.2694
14638TIP3    H165405   1.126   2.901  16.423  1.1586  0.6520  0.2891
14638TIP3    H265406   1.195   2.850  16.548  2.1032 -0.1890 -0.5621
14639TIP3   OH265407   3.186   3.594   2.613  0.6653  0.0743 -0.0185
14639TIP3    H165408   3.275   3.625   2.597  1.4179 -1.3597  1.1762
14639TIP3    H265409   3.155   3.648   2.686 -0.7383  2.8063 -2.3921
14640TIP3   OH265410   1.885   4.373  14.163 -0.3119  0.0235 -0.1489
14640TIP3    H165411   1.963   4.354  14.215 -1.4965 -1.2972  1.2487
14640TIP3    H265412   1.910   4.348  14.073 -0.1075 -3.6990  0.7591
14641TIP3   OH265413   1.940   2.016   0.506  0.0693  0.4100  0.7097
14641TIP3    H165414   2.003   1.971   0.563  1.8688  1.3656 -0.4657
14641TIP3    H265415   1.950   2.108   0.527 -0.6060  0.6148  0.1617
14642TIP3   OH265416   0.716   5.439  12.862  0.9158  0.7860  0.2091
14642TIP3    H165417   0.659   5.489  12.804 -2.7264 -2.3407  0.6859
14642TIP3    H265418   0.688   5.463  12.950  0.7050 -0.3333  0.4681
14643TIP3   OH265419   4.592   4.215   2.628  0.8124  0.1960 -0.3441
14643TIP3    H165420   4.551   4.140   2.671  0.5197  1.4001  1.5296
14643TIP3    H265421   4.523   4.252   2.573 -0.0054  0.9422  1.1510
14644TIP3   OH265422   4.820   4.840  13.857 -0.3971  0.1152 -0.2156
14644TIP3    H165423   4.759   4.900  13.815  0.0663  0.9963  0.3388
14644TIP3    H265424   4.897   4.841  13.801  0.0047  0.8529  0.3320
14645TIP3   OH265425   2.454   1.571  14.528  0.6617 -0.0495 -0.5061
14645TIP3    H165426   2.459   1.526  14.612 -0.0243  1.1591  0.2117
14645TIP3    H265427   2.369   1.547  14.493  0.4181  0.4326 -0.2580
14646TIP3   OH265428   4.923   0.678   4.279 -0.3234  0.4337  0.1390
14646TIP3    H165429   4.839   0.722   4.276 -0.7633 -0.4491 -1.4977
14646TIP3    H265430   4.916   0.617   4.352 -0.0711  2.2552  1.7636
14647TIP3   OH265431   4.332   3.971  15.280 -0.2734  0.1407  0.0627
14647TIP3    H165432   4.281   4.010  15.351  2.0793  0.0267  1.9262
14647TIP3    H265433   4.373   4.046  15.237  0.3295  0.0545  0.4800
14648TIP3   OH265434   0.519   4.091   4.452  0.3031 -0.0134  0.8881
14648TIP3    H165435   0.512   4.006   4.496 -0.8841 -1.2773 -1.5404
14648TIP3    H265436   0.469   4.080   4.371  0.2387  2.9853  0.4149
14649TIP3   OH265437   0.060   5.140  16.686  0.2601  0.1174  0.5354
14649TIP3    H165438  -0.033   5.159  16.676  0.1378 -0.8232 -0.2496
14649TIP3    H265439   0.065   5.046  16.699  1.1406  0.0584 -0.1187
14650TIP3   OH265440   4.526   6.791   1.298 -0.3951  0.5981 -0.8428
14650TIP3    H165441   4.459   6.854   1.322 -0.1692  0.0701  1.3857
14650TIP3    H265442   4.532   6.797   1.203 -0.8961  3.3676 -0.7697
14651TIP3   OH265443   4.954   4.488   0.208 -0.0248 -0.2046 -0.1431
14651TIP3    H165444   4.944   4.444   0.123 -1.0671  0.2803 -0.2764
14651TIP3    H265445   5.007   4.427   0.259 -0.2365 -0.9706 -0.8054
14652TIP3   OH265446   0.696   4.004   3.020 -0.5521  0.0132 -0.5875
14652TIP3    H165447   0.780   4.006   2.974  0.4633 -0.7065  1.1200
14652TIP3    H265448   0.660   3.917   3.002  1.4056 -1.6195  2.3986
14653TIP3   OH265449   3.120   0.776   3.454 -0.0373  0.4294  0.1742
14653TIP3    H165450   3.094   0.817   3.372  1.2632 -0.3775 -0.6792
14653TIP3    H265451   3.070   0.822   3.521 -2.0228  0.3302 -1.1611
14654TIP3   OH265452   5.584   1.485   6.763 -0.2036  0.0791 -0.0859
14654TIP3    H165453   5.547   1.567   6.730 -1.1740 -0.6073 -0.7627
14654TIP3    H265454   5.676   1.504   6.776 -0.8383  2.0556  2.2712
14655TIP3   OH265455   4.203   3.756  13.914 -0.0908 -0.5449  0.3457
14655TIP3    H165456   4.172   3.716  13.995  0.2401  1.3488  1.4542
14655TIP3    H265457   4.243   3.838  13.941 -1.8836  1.2268 -1.9289
14656TIP3   OH265458   4.441   5.564   3.365 -0.0488 -0.4143  0.2650
14656TIP3    H165459   4.412   5.502   3.432 -1.6669 -1.1249 -1.0304
14656TIP3    H265460   4.471   5.509   3.293  1.2757  0.3456  0.2081
14657TIP3   OH265461   5.120   5.458   4.032  0.0726  0.0765 -0.1224
14657TIP3    H165462   5.076   5.540   4.054  0.8239  0.9653 -1.8057
14657TIP3    H265463   5.107   5.403   4.110 -0.6208  1.6934  0.9643
14658TIP3   OH265464   5.849   3.883  13.292  0.8583 -0.0747 -0.1739
14658TIP3    H165465   5.925   3.942  13.293  0.7916  0.0173  1.5529
14658TIP3    H265466   5.876   3.807  13.343 -0.3941  0.2367  1.0142
14659TIP3   OH265467   6.688   3.450   2.713  0.6357  0.0315  0.3060
14659TIP3    H165468   6.714   3.454   2.621 -0.9523  0.3034 -0.1643
14659TIP3    H265469   6.682   3.541   2.740  0.1336 -0.0130  0.3660
14660TIP3   OH265470   1.645   5.175   5.364  0.2827  0.7881  0.6940
14660TIP3    H165471   1.587   5.103   5.389 -0.1024  1.6156  2.3614
14660TIP3    H265472   1.724   5.161   5.416  0.8694  0.6769 -0.2106
14661TIP3   OH265473   6.236   3.313  12.178 -0.4593  0.4667  0.2514
14661TIP3    H165474   6.330   3.331  12.172 -0.1906 -0.2226  1.9675
14661TIP3    H265475   6.194   3.398  12.164  0.2704  0.4757 -2.5269
14662TIP3   OH265476   2.084   5.012  14.712  0.0158  0.1894  0.6323
14662TIP3    H165477   2.127   5.080  14.660  0.3721 -1.0359 -0.7271
14662TIP3    H265478   2.140   4.935  14.703 -0.1284 -0.1743  2.5470
14663TIP3   OH265479   0.570   0.716   3.679  0.7179  0.2556 -0.1106
14663TIP3    H165480   0.658   0.695   3.710  0.6764  2.4722  1.8029
14663TIP3    H265481   0.513   0.702   3.755 -0.3578  0.1662 -0.9091
14664TIP3   OH265482   2.386   0.584  14.523 -0.2375 -0.0402  0.5322
14664TIP3    H165483   2.365   0.611  14.612 -0.9874 -1.0764  0.6925
14664TIP3    H265484   2.435   0.657  14.486  0.0128  0.4314  1.7663
14665TIP3   OH265485   1.871   4.226   5.790  0.5071 -0.6367 -0.3816
14665TIP3    H165486   1.951   4.176   5.776  0.4883 -1.1171  1.0397
14665TIP3    H265487   1.866   4.237   5.885 -1.8626 -1.8930 -0.2821
14666TIP3   OH265488   2.269   1.909   4.537  0.2968 -0.3919  0.2779
14666TIP3    H165489   2.178   1.937   4.541  0.6328  0.9480 -0.6910
14666TIP3    H265490   2.265   1.819   4.504 -0.6011  0.6553 -2.7730
14667TIP3   OH265491   3.537   5.801   1.884  0.0605  0.0839 -0.3468
14667TIP3    H165492   3.500   5.726   1.836  1.5209 -1.2851  0.5414
14667TIP3    H265493   3.489   5.877   1.851 -1.4496 -1.2253 -1.3364
14668TIP3   OH265494   3.890   6.250   5.857  0.3730  1.1662  0.2792
14668TIP3    H165495   3.796   6.233   5.847  0.6265  0.0129 -0.2863
14668TIP3    H265496   3.925   6.246   5.768  1.0052  1.3171  0.5138
14669TIP3   OH265497   1.874   3.514  14.090  0.1286 -0.4117  0.0636
14669TIP3    H165498   1.810   3.500  14.160 -0.3863  3.2803  0.4997
14669TIP3    H265499   1.822   3.538  14.014  0.8733 -1.0790 -0.6767
14670TIP3   OH265500   3.830   0.810   3.638 -0.0846 -1.2527  0.4239
14670TIP3    H165501   3.777   0.885   3.662  0.0232 -1.1615  0.3802
14670TIP3    H265502   3.801   0.787   3.550  0.6729 -0.5442 -0.0284
14671TIP3   OH265503   5.750   5.182   5.272  0.0176  0.1101 -0.4950
14671TIP3    H165504   5.794   5.263   5.300  0.8303 -0.5458  0.1612
14671TIP3    H265505   5.687   5.211   5.206 -1.3202  1.6193  1.3289
14672TIP3   OH265506   2.831   6.043  14.204 -0.6158 -0.0959  0.4385
14672TIP3    H165507   2.864   5.954  14.212 -0.9518 -0.3256 -0.6097
14672TIP3    H265508   2.897   6.097  14.248 -0.8764 -0.9320  1.9041
14673TIP3   OH265509   5.783   2.213  14.108  0.1554  0.1239  0.4426
14673TIP3    H165510   5.861   2.198  14.055 -0.0043  3.6731 -1.1365
14673TIP3    H265511   5.787   2.148  14.177  2.9736 -1.6468 -1.2102
14674TIP3   OH265512   4.992   2.038   4.401  0.8883  0.0407  0.4988
14674TIP3    H165513   4.900   2.012   4.396  0.2383  1.3622  3.5224
14674TIP3    H265514   4.997   2.118   4.348 -0.5860  1.8078  2.8123
14675TIP3   OH265515   4.994   3.053   1.716 -0.3229  0.5715  0.5867
14675TIP3    H165516   5.080   3.023   1.688  0.0817  1.1804  1.1451
14675TIP3    H265517   4.935   3.027   1.645 -0.0039 -1.4370  1.0115
14676TIP3   OH265518   6.621   2.978  13.398 -0.1789 -0.5413 -0.0041
14676TIP3    H165519   6.610   2.961  13.305 -0.8681 -0.7668  0.1111
14676TIP3    H265520   6.716   2.984  13.411 -0.1049  2.0252 -1.1503
14677TIP3   OH265521   0.330   0.602  11.377  0.8419 -0.2770 -0.3055
14677TIP3    H165522   0.318   0.522  11.428  0.6078 -0.9751 -1.4125
14677TIP3    H265523   0.310   0.673  11.438 -0.9600 -1.1306  0.1747
14678TIP3   OH265524   5.415   0.382  14.773 -0.2313 -0.1738 -0.1151
14678TIP3    H165525   5.445   0.418  14.690  2.0018 -0.2972  0.5552
14678TIP3    H265526   5.351   0.316  14.749 -1.3083  1.3144 -1.5861
14679TIP3   OH265527   1.377   2.376   3.678 -0.1484  0.5021  0.5226
14679TIP3    H165528   1.305   2.384   3.741 -1.5339  1.1488 -1.0903
14679TIP3    H265529   1.410   2.465   3.668  1.0116  0.1844  1.3718
14680TIP3   OH265530   2.269   3.463   0.204 -0.3905  0.1057  0.7313
14680TIP3    H165531   2.343   3.495   0.152 -0.4823  1.0631  1.1537
14680TIP3    H265532   2.225   3.400   0.148 -2.4630  3.4883 -1.8398
14681TIP3   OH265533   6.361   2.630  11.395  0.0829 -0.3342  0.6925
14681TIP3    H165534   6.368   2.664  11.484 -0.9447  0.7789  0.3707
14681TIP3    H265535   6.442   2.581  11.382  0.8142  0.5265  1.8086
14682TIP3   OH265536   0.049   5.649  12.213  0.1355 -0.3597 -0.3825
14682TIP3    H165537   0.034   5.564  12.256  0.7816 -0.3553 -0.1334
14682TIP3    H265538   0.120   5.632  12.151  1.2792  0.3097  0.6967
14683TIP3   OH265539   4.696   1.790   1.631  0.3477  0.3131  0.3281
14683TIP3    H165540   4.670   1.743   1.710 -1.2576  0.2684 -0.1835
14683TIP3    H265541   4.790   1.801   1.640  0.3062 -0.2788  1.9233
14684TIP3   OH265542   5.167   1.586  13.116 -0.1755  0.0791 -0.1617
14684TIP3    H165543   5.231   1.583  13.045 -0.9474  1.3702 -0.9645
14684TIP3    H265544   5.093   1.635  13.079 -0.6500  0.6692  1.5007
14685TIP3   OH265545   2.087   0.176   2.804  0.3504  0.0544  0.3189
14685TIP3    H165546   2.080   0.110   2.872  0.4913 -0.9807 -0.6469
14685TIP3    H265547   2.024   0.149   2.737 -0.3107  1.4435  0.3334
14686TIP3   OH265548   5.946   3.165   5.122 -0.7504  0.0417 -0.3943
14686TIP3    H165549   6.033   3.174   5.083 -0.7996 -0.0882 -0.5350
14686TIP3    H265550   5.962   3.118   5.204 -0.9003 -1.7605 -1.3395
14687TIP3   OH265551   6.048   4.123  12.353 -0.2940 -0.8540  0.2833
14687TIP3    H165552   6.095   4.045  12.322  0.6109 -0.4540  0.6015
14687TIP3    H265553   5.957   4.108  12.329 -0.2931 -2.4297  1.1287
14688TIP3   OH265554   0.607   0.550   3.127 -0.3674 -0.3879  0.5486
14688TIP3    H165555   0.637   0.563   3.217 -1.4540 -0.6126  0.9477
14688TIP3    H265556   0.651   0.470   3.098 -0.4849 -0.6430  1.0795
14689TIP3   OH265557   0.156   1.921  15.952 -0.1873 -0.2885  0.5669
14689TIP3    H165558   0.219   1.980  15.993 -0.7246  0.3425  0.5044
14689TIP3    H265559   0.104   1.887  16.025  0.7533 -1.4720  0.7131
14690TIP3   OH265560   2.442   4.529  16.523 -0.4105 -0.3407  0.1287
14690TIP3    H165561   2.482   4.595  16.580 -0.7219  0.5564 -0.6545
14690TIP3    H265562   2.364   4.500  16.571  0.0860 -0.6299  0.7709
14691TIP3   OH265563   0.945   2.216  14.162  0.2729  0.5691 -0.0074
14691TIP3    H165564   0.867   2.161  14.161  0.5512  0.1498  0.6666
14691TIP3    H265565   0.911   2.305  14.153 -0.1941  0.3159 -0.8957
14692TIP3   OH265566   6.805   6.136  13.654  0.1214  0.0687 -0.2693
14692TIP3    H165567   6.729   6.175  13.698 -1.1768 -2.6483  0.0815
14692TIP3    H265568   6.806   6.176  13.567 -0.4945  1.5689  0.3758
14693TIP3   OH265569   1.435   5.519  15.630  0.5345  0.5051 -0.0039
14693TIP3    H165570   1.426   5.603  15.584  2.0066  0.9445  0.4494
14693TIP3    H265571   1.473   5.460  15.565  3.7371  1.4415  0.8484
14694TIP3   OH265572   4.384   5.311   4.012  0.3596 -0.6013  0.6153
14694TIP3    H165573   4.457   5.266   3.970  0.2544 -1.0576  0.9000
14694TIP3    H265574   4.425   5.371   4.074  0.4948 -1.1106  1.0289
14695TIP3   OH265575   0.108   2.337   4.307 -0.2342 -0.0020  0.0850
14695TIP3    H165576   0.168   2.402   4.270  0.0938  0.4450  1.3303
14695TIP3    H265577   0.115   2.350   4.402 -0.9038 -1.2094  0.3177
14696TIP3   OH265578   0.477   3.886   5.248 -1.1040  0.0475 -0.4892
14696TIP3    H165579   0.556   3.937   5.265 -1.2586  0.4634 -0.9476
14696TIP3    H265580   0.420   3.904   5.323 -1.2362  0.7304 -0.7414
14697TIP3   OH265581   6.396   1.872   5.206 -0.4155  0.2704  0.4062
14697TIP3    H165582   6.345   1.899   5.281  0.9730  0.8879  1.1683
14697TIP3    H265583   6.454   1.946   5.188 -0.4850 -0.0014 -1.0587
14698TIP3   OH265584   6.159   5.649   0.834 -0.1033 -0.0499  0.0177
14698TIP3    H165585   6.190   5.592   0.904  0.1703 -1.2304 -1.0423
14698TIP3    H265586   6.232   5.655   0.773  0.5006  2.8128  0.8743
14699TIP3   OH265587   6.374   5.662  12.698 -0.6090  0.2269  0.0825
14699TIP3    H165588   6.302   5.599  12.706  0.0880 -0.6870 -0.7119
14699TIP3    H265589   6.421   5.636  12.620 -2.0363  3.5204 -2.1266
14700TIP3   OH265590   0.413   1.467   3.466 -0.1573 -0.3316 -0.2524
14700TIP3    H165591   0.460   1.538   3.510  1.1697  1.0266 -3.5464
14700TIP3    H265592   0.458   1.387   3.494  1.8165  0.6248 -0.5579
14701TIP3   OH265593   1.461   4.827   4.751 -0.5963 -0.1431 -0.1345
14701TIP3    H165594   1.469   4.922   4.743 -1.9245 -0.0457 -0.7100
14701TIP3    H265595   1.467   4.809   4.845 -0.2339  0.4936 -0.0345
14702TIP3   OH265596   4.231   2.011   2.812 -0.1855  0.1928  0.3493
14702TIP3    H165597   4.158   2.039   2.758 -0.8709 -1.1875  0.5072
14702TIP3    H265598   4.193   1.998   2.899  0.1234 -0.9782  0.3280
14703TIP3   OH265599   4.548   6.132  11.790 -0.5547 -0.0743 -0.5793
14703TIP3    H165600   4.614   6.200  11.786 -0.4900 -0.1769 -1.4424
14703TIP3    H265601   4.592   6.053  11.758 -0.1134 -0.9718  2.0088
14704TIP3   OH265602   1.357   6.289   4.062  0.6465 -0.6388 -0.0476
14704TIP3    H165603   1.394   6.311   3.977  0.2172 -2.7758 -0.8524
14704TIP3    H265604   1.416   6.329   4.125  1.0043  0.9539 -1.3319
14705TIP3   OH265605   0.914   2.523   0.648  0.2909  0.1351  0.0266
14705TIP3    H165606   0.909   2.618   0.641  0.4966  0.3414  2.2444
14705TIP3    H265607   1.006   2.502   0.633  0.6164  0.4984  1.4000
14706TIP3   OH265608   3.525   2.878  13.944 -0.2523 -0.0593 -0.1696
14706TIP3    H165609   3.585   2.854  14.015  1.3719  1.3568 -0.9896
14706TIP3    H265610   3.438   2.859  13.979  0.5834 -0.8767  1.5982
14707TIP3   OH265611   1.030   0.211  10.718 -0.3946 -0.1743 -0.2240
14707TIP3    H165612   1.063   0.122  10.708  0.0691 -0.0730  0.3644
14707TIP3    H265613   0.936   0.205  10.696 -0.3114 -0.7480 -0.4317
14708TIP3   OH265614   0.189   6.302  15.562 -0.4548  0.2393  0.2817
14708TIP3    H165615   0.261   6.337  15.615 -0.5502 -0.0054  0.5727
14708TIP3    H265616   0.183   6.210  15.587 -1.1845  0.3719  0.6140
14709TIP3   OH265617   2.961   1.527  16.360 -0.5564  0.3240  0.1241
14709TIP3    H165618   3.018   1.450  16.363 -0.2324  0.5529 -0.1098
14709TIP3    H265619   2.936   1.542  16.451 -2.4496 -1.4017 -0.0436
14710TIP3   OH265620   0.127   6.720  13.881  0.4497  0.6849 -0.0898
14710TIP3    H165621   0.223   6.721  13.887  0.5458  0.0303 -1.1404
14710TIP3    H265622   0.100   6.646  13.934  0.8202 -1.2469 -2.3975
14711TIP3   OH265623   4.933   4.794   5.955 -0.6075 -0.0895  0.3207
14711TIP3    H165624   4.866   4.843   6.003  0.9900  1.1666  1.3588
14711TIP3    H265625   4.944   4.714   6.006 -0.9903 -0.1023  0.3906
14712TIP3   OH265626   3.765   4.094  14.985  0.1183 -0.3689  0.4949
14712TIP3    H165627   3.825   4.019  14.986 -0.4575 -0.8258  1.9215
14712TIP3    H265628   3.699   4.070  14.920 -0.2524 -1.2654  1.1806
14713TIP3   OH265629   4.706   1.914  11.287 -0.2265  0.1821 -0.0895
14713TIP3    H165630   4.792   1.947  11.262 -0.2622 -0.0515 -0.5350
14713TIP3    H265631   4.708   1.910  11.382  0.0437  0.7453 -0.0718
14714TIP3   OH265632   5.257   5.095  11.701  0.3078  0.1449 -0.1235
14714TIP3    H165633   5.219   5.059  11.621  1.8072 -3.1980  0.4589
14714TIP3    H265634   5.352   5.088  11.688  0.6153  1.2788  1.2522
14715TIP3   OH265635   3.423   1.884  11.638 -0.1926 -0.1788 -0.1150
14715TIP3    H165636   3.376   1.954  11.593  1.2731 -0.0882 -1.5835
14715TIP3    H265637   3.504   1.925  11.668  0.5951 -1.1644 -0.8230
14716TIP3   OH265638   5.063   3.470   4.239 -0.0314 -0.1763  0.3779
14716TIP3    H165639   4.968   3.462   4.229  0.0264  1.1768 -1.8030
14716TIP3    H265640   5.094   3.380   4.249 -1.2185 -1.0066 -2.5486
14717TIP3   OH265641   3.035   6.261   2.684  0.1162  0.0659  0.4617
14717TIP3    H165642   3.075   6.180   2.652  2.3655  1.1111  0.3937
14717TIP3    H265643   3.012   6.310   2.605 -0.5275 -0.1700  0.4991
14718TIP3   OH265644   5.377   1.577  16.654 -0.3627 -0.1175  1.0206
14718TIP3    H165645   5.459   1.548  16.614 -1.2269 -1.0078 -0.1892
14718TIP3    H265646   5.362   1.664  16.619 -0.2173 -0.1752  0.8118
14719TIP3   OH265647   2.047   1.522   0.664  0.8177 -0.2838 -0.3652
14719TIP3    H165648   2.124   1.469   0.644 -1.2967 -2.9740 -2.0855
14719TIP3    H265649   1.994   1.467   0.722  0.2212  1.5787  0.9547
14720TIP3   OH265650   1.724   5.370  16.193 -0.8679  0.0330  0.0512
14720TIP3    H165651   1.736   5.341  16.283 -0.7911 -0.4186 -0.1050
14720TIP3    H265652   1.664   5.306  16.154  1.1287 -1.3174 -0.9675
14721TIP3   OH265653   4.137   6.445   0.587 -0.6792 -0.6475 -0.3986
14721TIP3    H165654   4.214   6.460   0.642 -0.0231 -1.2827 -1.1150
14721TIP3    H265655   4.141   6.513   0.520 -2.9296  1.8329  1.7589
14722TIP3   OH265656   4.328   1.800   3.735  0.1969 -1.2432  0.3584
14722TIP3    H165657   4.320   1.709   3.708  0.9102 -0.4742 -2.8193
14722TIP3    H265658   4.409   1.804   3.784  1.2048 -2.0294 -1.1669
14723TIP3   OH265659   5.684   5.622  16.462  0.0243  0.6883 -0.2864
14723TIP3    H165660   5.688   5.539  16.415  0.5254  0.7537 -0.3564
14723TIP3    H265661   5.602   5.617  16.512  1.2069 -0.8573  1.6154
14724TIP3   OH265662   1.460   2.617  12.579 -0.5507  0.1711  0.4706
14724TIP3    H165663   1.387   2.679  12.581 -1.0856 -0.3397 -1.2187
14724TIP3    H265664   1.534   2.668  12.544 -0.6352  0.2024  0.3360
14725TIP3   OH265665   5.588   6.118  14.513  0.4298 -0.0182  0.0956
14725TIP3    H165666   5.551   6.189  14.461  1.4597 -0.0054 -0.6547
14725TIP3    H265667   5.536   6.041  14.490 -0.0375  0.2796  0.1463
14726TIP3   OH265668   5.224   3.742  12.079  0.2206  0.2133  0.0221
14726TIP3    H165669   5.307   3.789  12.071  0.9027 -0.7521  1.1108
14726TIP3    H265670   5.238   3.660  12.032 -0.2643  0.2264 -0.1491
14727TIP3   OH265671   2.381   2.373   2.478 -0.0702  0.3384 -0.3358
14727TIP3    H165672   2.339   2.457   2.463 -0.4249  0.0850 -0.7731
14727TIP3    H265673   2.467   2.381   2.435 -0.0253  0.5421 -0.2086
14728TIP3   OH265674   2.518   4.735   1.422  0.1663 -0.2432 -0.2540
14728TIP3    H165675   2.426   4.764   1.416  0.9787  2.2888 -2.7127
14728TIP3    H265676   2.569   4.813   1.401  2.9095 -1.7598  0.3003
14729TIP3   OH265677   4.757   2.774  15.035  0.2394 -0.2669  0.4885
14729TIP3    H165678   4.686   2.734  14.984 -0.2134 -1.4315  1.9865
14729TIP3    H265679   4.828   2.785  14.971 -0.7966 -0.3593 -0.7233
14730TIP3   OH265680   5.539   3.059   5.665  0.3500  0.3385  0.1300
14730TIP3    H165681   5.462   3.032   5.614  1.1564 -0.0782 -0.9157
14730TIP3    H265682   5.503   3.094   5.746 -0.9578  0.4365 -0.4627
14731TIP3   OH265683   3.483   4.217   0.550 -0.3412 -0.3834  0.0553
14731TIP3    H165684   3.434   4.279   0.496  1.4201  0.7398 -0.3370
14731TIP3    H265685   3.484   4.256   0.637 -0.5079 -0.6051  0.1556
14732TIP3   OH265686   5.446   5.797   1.370 -0.0762  0.8151  0.4465
14732TIP3    H165687   5.368   5.852   1.372  0.5062  1.6910 -0.0964
14732TIP3    H265688   5.486   5.808   1.456 -0.5945  0.2871  0.7596
14733TIP3   OH265689   0.813   2.085  14.753 -0.2516 -0.3571 -0.0621
14733TIP3    H165690   0.844   2.158  14.700  0.0972 -0.6353 -0.2466
14733TIP3    H265691   0.760   2.032  14.694 -0.0844 -0.5233 -0.0660
14734TIP3   OH265692   1.962   4.173  11.889  0.0547  0.0740 -0.7650
14734TIP3    H165693   1.946   4.085  11.923  1.1547  0.0743 -0.2208
14734TIP3    H265694   1.933   4.232  11.959 -2.2136  0.2459 -1.7350
14735TIP3   OH265695   5.966   2.286  12.184  0.4164 -0.0340 -0.3032
14735TIP3    H165696   6.044   2.246  12.223  0.5055  1.3760  1.0466
14735TIP3    H265697   5.987   2.292  12.090  1.2365 -1.1732 -0.2139
14736TIP3   OH265698   0.211   2.218   3.731 -0.0205  0.0695 -0.4308
14736TIP3    H165699   0.222   2.146   3.669 -0.8324  0.1822 -0.7308
14736TIP3    H265700   0.252   2.188   3.811  0.9620 -0.1247 -0.9932
14737TIP3   OH265701   5.575   2.023   0.878  0.2240 -0.1280  0.5106
14737TIP3    H165702   5.668   2.006   0.892  0.5146  1.4718  0.7564
14737TIP3    H265703   5.555   2.096   0.937 -1.3358 -0.8459  0.8991
14738TIP3   OH265704   6.633   6.081  12.867 -0.2969 -0.1991  0.4024
14738TIP3    H165705   6.583   6.015  12.821  1.6678  0.9772 -3.9568
14738TIP3    H265706   6.717   6.038  12.887 -0.1263  0.0872  0.3138
14739TIP3   OH265707   4.735   4.761  16.884  0.1402  0.5474 -1.0315
14739TIP3    H165708   4.732   4.849  16.922 -0.0478 -0.3803  1.2211
14739TIP3    H265709   4.672   4.765  16.812 -3.6277  1.0172  1.9646
14740TIP3   OH265710   3.863   0.046  13.026  0.2043 -0.0169  0.8815
14740TIP3    H165711   3.873  -0.046  13.050  1.9520  0.2395  1.2849
14740TIP3    H265712   3.834   0.044  12.934  0.7242 -0.9591  0.7267
14741TIP3   OH265713   2.939   0.264  16.061 -0.3022  0.5417  0.2563
14741TIP3    H165714   2.941   0.195  15.995  0.4438 -0.8628  1.6733
14741TIP3    H265715   2.986   0.337  16.021 -1.8624  0.5862 -1.6025
14742TIP3   OH265716   3.439   2.096   4.681  0.4240  0.0491 -0.0724
14742TIP3    H165717   3.414   2.134   4.597 -3.2273 -1.7306 -0.0146
14742TIP3    H265718   3.483   2.014   4.658  2.2012  0.9903 -0.1743
14743TIP3   OH265719   6.249   2.963  13.435 -0.1424  0.0964 -0.1949
14743TIP3    H165720   6.249   2.950  13.341 -0.4161 -0.5826 -0.1042
14743TIP3    H265721   6.332   3.008  13.453  0.1840 -0.2982 -0.6861
14744TIP3   OH265722   3.287   3.444  12.352  0.0969 -0.6347 -0.2223
14744TIP3    H165723   3.233   3.505  12.402  1.3136 -0.1150  0.5066
14744TIP3    H265724   3.334   3.499  12.290  0.8380 -0.8740  0.1134
14745TIP3   OH265725   0.281   2.378  14.110 -0.3857  0.3238  0.3720
14745TIP3    H165726   0.372   2.374  14.081 -0.2372 -0.4121  0.9077
14745TIP3    H265727   0.277   2.457  14.165 -0.3221  0.9090 -0.4455
14746TIP3   OH265728   4.783   2.619   5.818  0.1953  0.1195  0.1767
14746TIP3    H165729   4.690   2.620   5.842  0.0806  1.0956 -0.2378
14746TIP3    H265730   4.783   2.617   5.723  0.6241 -1.0726  0.1892
14747TIP3   OH265731   1.572   0.457   0.313 -0.2053 -0.5483  0.4948
14747TIP3    H165732   1.639   0.521   0.289  0.2495 -1.2404 -0.1177
14747TIP3    H265733   1.507   0.463   0.244  0.6633 -1.9059 -0.4965
14748TIP3   OH265734   0.975   3.534   2.329 -0.2936  0.4401 -0.2352
14748TIP3    H165735   0.912   3.591   2.285 -0.4327 -1.0472 -2.0472
14748TIP3    H265736   0.967   3.450   2.285  1.8738 -0.2367  0.5365
14749TIP3   OH265737   1.118   1.504   0.609 -0.0737 -0.5764  0.7141
14749TIP3    H165738   1.090   1.429   0.661 -1.1008 -0.2488  0.6380
14749TIP3    H265739   1.162   1.562   0.671  0.6118 -1.1642  0.7976
14750TIP3   OH265740   3.096   6.569   4.634  0.1812  0.7218 -0.2717
14750TIP3    H165741   3.154   6.563   4.710  0.3558 -1.0724 -0.5131
14750TIP3    H265742   3.144   6.624   4.571  0.9550  0.4968  0.1103
14751TIP3   OH265743   0.377   5.584   5.828  0.1843 -0.3601  0.6337
14751TIP3    H165744   0.310   5.521   5.804  1.4945 -1.2975 -0.8128
14751TIP3    H265745   0.336   5.640   5.894 -1.3222 -2.1435  1.2935
14752TIP3   OH265746   4.195   0.800  15.621 -0.1356  0.2646 -0.3461
14752TIP3    H165747   4.271   0.841  15.580  0.5033  1.3606  1.7759
14752TIP3    H265748   4.217   0.795  15.714 -2.3160 -0.1833  0.2197
14753TIP3   OH265749   2.270   5.963  14.181  0.3816  0.3361 -0.0801
14753TIP3    H165750   2.332   5.897  14.211  0.6534  0.9980  0.8868
14753TIP3    H265751   2.298   5.984  14.092  0.8570 -0.1757 -0.0571
14754TIP3   OH265752   4.342   5.924  13.917  0.1172  0.0882 -0.0798
14754TIP3    H165753   4.415   5.874  13.954 -0.2189 -0.7346 -0.5115
14754TIP3    H265754   4.306   5.972  13.992  0.3914 -0.3747  0.3587
14755TIP3   OH265755   1.834   2.834   6.629  0.1593 -0.4705 -0.3380
14755TIP3    H165756   1.770   2.905   6.623  1.7672  1.1988  0.8523
14755TIP3    H265757   1.901   2.858   6.564  1.6585  0.2148  1.3832
14756TIP3   OH265758   1.982   5.281   3.729  0.5751  0.2606  0.2536
14756TIP3    H165759   1.994   5.279   3.634  0.2385  1.0084  0.1852
14756TIP3    H265760   1.969   5.190   3.754  0.4550  0.0801 -0.4504
14757TIP3   OH265761   4.644   6.512   3.375  0.6294 -0.0401  0.2435
14757TIP3    H165762   4.709   6.485   3.311  0.2087  1.5707 -0.9308
14757TIP3    H265763   4.666   6.463   3.454  3.2383  0.4033 -0.1299
14758TIP3   OH265764   0.592   2.654  12.169  0.1986  0.1370  0.4784
14758TIP3    H165765   0.499   2.675  12.173  0.1302 -0.1717  0.5538
14758TIP3    H265766   0.628   2.713  12.102  0.0192  0.5041  0.7088
14759TIP3   OH265767   3.639   4.667   1.529 -0.0318 -0.4514 -0.2976
14759TIP3    H165768   3.622   4.617   1.449 -1.1984 -0.6342  0.0398
14759TIP3    H265769   3.552   4.689   1.561  0.3994 -1.0445  1.3437
14760TIP3   OH265770   2.897   0.208   0.436  0.4799 -0.2882  0.0487
14760TIP3    H165771   2.902   0.303   0.441  1.4288 -0.2597 -1.0128
14760TIP3    H265772   2.882   0.189   0.343  1.0310 -1.1827  0.1253
14761TIP3   OH265773   5.201   6.056  15.268 -0.2023  0.2691 -0.1663
14761TIP3    H165774   5.258   6.010  15.206 -2.3266 -0.9470 -1.3527
14761TIP3    H265775   5.250   6.056  15.350  0.4459 -3.2654 -0.3722
14762TIP3   OH265776   4.986   3.690  11.067  0.5871  0.6026 -0.0916
14762TIP3    H165777   4.972   3.785  11.072  0.4660  0.6351 -0.8436
14762TIP3    H265778   4.952   3.666  10.981  0.3261 -0.1788  0.2237
14763TIP3   OH265779   2.085   4.048  13.943  0.5385  0.0068 -0.1153
14763TIP3    H165780   2.176   4.022  13.932  0.8069  1.5615 -2.2294
14763TIP3    H265781   2.035   3.968  13.929  1.4492 -0.1522 -3.4234
14764TIP3   OH265782   0.521   4.455   0.876  0.1350 -0.3922  0.7852
14764TIP3    H165783   0.567   4.391   0.822  0.9834  0.1447  0.8415
14764TIP3    H265784   0.525   4.536   0.825 -1.0895 -0.4221  0.6305
14765TIP3   OH265785   4.041   3.334   4.140 -0.3624 -0.0751 -0.1095
14765TIP3    H165786   4.117   3.313   4.085  0.3104 -0.6011  0.9702
14765TIP3    H265787   4.001   3.249   4.159 -1.3449  0.2170 -0.8260
14766TIP3   OH265788   3.062   5.693   5.944  0.2286  0.6049 -0.2562
14766TIP3    H165789   3.076   5.611   5.991 -1.7075  1.9096  2.9831
14766TIP3    H265790   2.968   5.694   5.925  0.2984  1.8699 -0.6652
14767TIP3   OH265791   0.441   1.740  12.121 -0.2883  0.4295 -0.3856
14767TIP3    H165792   0.455   1.672  12.187 -1.5030  1.6076  1.1786
14767TIP3    H265793   0.529   1.770  12.098  0.2262 -1.0535 -0.4872
14768TIP3   OH265794   5.769   0.985   1.055 -0.0161  0.4678  0.3537
14768TIP3    H165795   5.681   0.976   1.019  0.3343 -2.4200 -0.0296
14768TIP3    H265796   5.758   0.973   1.149  0.0630 -1.2752  0.1701
14769TIP3   OH265797   6.516   6.376   5.418  0.2727 -0.3420 -0.8833
14769TIP3    H165798   6.497   6.404   5.507  0.3458 -1.5486 -0.4725
14769TIP3    H265799   6.479   6.445   5.363 -2.8085 -1.1714 -0.0493
14770TIP3   OH265800   5.361   0.762  15.158 -0.7631  0.2916  0.3847
14770TIP3    H165801   5.432   0.773  15.094 -2.1855  1.3519 -1.1328
14770TIP3    H265802   5.327   0.674  15.142 -0.9818  0.4781 -0.2379
14771TIP3   OH265803   1.316   4.936  17.164 -0.2853  0.0892  0.0348
14771TIP3    H165804   1.375   4.973  17.099 -0.0715  0.5071  0.4553
14771TIP3    H265805   1.230   4.936  17.122 -0.7306  3.0198  0.6666
14772TIP3   OH265806   0.970   4.301  14.079  0.3468 -0.0565  0.1261
14772TIP3    H165807   0.960   4.264  13.991  0.7511 -1.0727  0.4931
14772TIP3    H265808   0.916   4.379  14.079  2.6632  1.7221 -2.0271
14773TIP3   OH265809   0.281   3.677   4.006 -0.3295 -0.0081 -0.2784
14773TIP3    H165810   0.264   3.623   3.929 -1.4081 -1.1229  0.6977
14773TIP3    H265811   0.320   3.616   4.069  2.4656  1.3218 -0.5886
14774TIP3   OH265812   5.949   3.986   4.298  0.2340 -0.2419  0.4190
14774TIP3    H165813   5.967   3.893   4.304  0.1260 -0.2070  1.3970
14774TIP3    H265814   6.023   4.028   4.341 -0.5107  0.0366  1.4792
14775TIP3   OH265815   4.844   4.173  11.380 -0.0858 -0.2413  0.3091
14775TIP3    H165816   4.935   4.152  11.361  0.1711 -0.1650  1.3938
14775TIP3    H265817   4.848   4.254  11.430 -0.7443 -0.2426  0.3720
14776TIP3   OH265818   5.223   2.222  15.817 -0.0443 -0.3846  0.2977
14776TIP3    H165819   5.166   2.272  15.759 -0.0204  0.4132  0.9346
14776TIP3    H265820   5.284   2.176  15.759 -0.3384  0.0027 -0.3203
14777TIP3   OH265821   5.180   4.863  11.154 -0.2248  0.6978  0.1861
14777TIP3    H165822   5.153   4.926  11.087  2.1791  2.2749  0.5916
14777TIP3    H265823   5.151   4.778  11.119 -1.2398  1.7180 -1.6372
14778TIP3   OH265824   1.011   1.723   4.749  0.1686 -0.0093 -0.2757
14778TIP3    H165825   0.933   1.735   4.805 -0.0415 -1.1208 -0.2997
14778TIP3    H265826   1.019   1.805   4.701 -0.6624  0.3300  0.1415
14779TIP3   OH265827   6.009   2.149   5.091  0.2033 -0.1523 -0.2660
14779TIP3    H165828   6.096   2.179   5.119 -0.1561  0.9203 -0.2614
14779TIP3    H265829   6.024   2.061   5.056  1.0185 -0.6644  1.2922
14780TIP3   OH265830   1.710   0.088   5.446 -0.0358 -0.1745  0.0761
14780TIP3    H165831   1.775   0.105   5.378  1.8385  1.1666  2.0621
14780TIP3    H265832   1.757   0.100   5.528 -2.2220 -1.6090  1.6600
14781TIP3   OH265833   6.434   6.562   0.295  0.5602  0.5682  0.0538
14781TIP3    H165834   6.487   6.591   0.221  2.0119  0.5043  1.0370
14781TIP3    H265835   6.371   6.500   0.256  2.3013 -0.6879 -0.9282
14782TIP3   OH265836   0.676   3.301  11.783 -0.1806 -0.3613  0.5652
14782TIP3    H165837   0.650   3.240  11.714 -0.3341  0.4016 -0.0565
14782TIP3    H265838   0.593   3.324  11.826 -0.2368  0.1377  0.1915
14783TIP3   OH265839   2.416   1.807  13.778 -0.1636  0.4940 -0.2239
14783TIP3    H165840   2.443   1.835  13.866  1.3172  2.1778 -1.1353
14783TIP3    H265841   2.418   1.887  13.726 -2.1668 -0.2501 -1.5715
14784TIP3   OH265842   6.582   0.717  17.074 -0.0278  0.1667 -0.1635
14784TIP3    H165843   6.603   0.707  17.167  0.3405  0.0605 -0.2548
14784TIP3    H265844   6.649   0.777  17.041  0.6295 -0.8015 -0.6311
14785TIP3   OH265845   5.867   5.215   3.749 -0.2044  0.5138  0.2509
14785TIP3    H165846   5.885   5.155   3.676  2.1037  0.2315  0.9583
14785TIP3    H265847   5.916   5.294   3.726  0.0081  0.6562  1.1619
14786TIP3   OH265848   2.752   0.597   2.473 -0.1983 -0.4129  0.0818
14786TIP3    H165849   2.842   0.620   2.450 -0.1191 -1.1891 -0.4305
14786TIP3    H265850   2.754   0.584   2.568  0.6199 -2.0341 -0.1260
14787TIP3   OH265851   6.248   3.840  13.893 -0.0786  0.5346 -0.1427
14787TIP3    H165852   6.244   3.785  13.971  0.3939 -0.8516 -1.0561
14787TIP3    H265853   6.225   3.928  13.924 -0.3240 -0.0633  1.4586
14788TIP3   OH265854   2.602   2.754   0.537 -0.0715 -0.9139 -0.1287
14788TIP3    H165855   2.695   2.764   0.515 -0.0355 -0.0089  0.3800
14788TIP3    H265856   2.556   2.765   0.454  0.2139 -0.1923 -0.1952
14789TIP3   OH265857   0.676   5.017   0.232  0.2388 -0.1630 -0.3431
14789TIP3    H165858   0.659   5.026   0.326 -0.3121  1.9758 -0.5964
14789TIP3    H265859   0.596   5.049   0.190 -0.1294 -2.5312 -1.5859
14790TIP3   OH265860   3.283   0.928  13.239  0.0714 -0.0109  0.4282
14790TIP3    H165861   3.200   0.937  13.193 -0.4416 -1.5827  0.9824
14790TIP3    H265862   3.329   1.010  13.221  0.0468 -0.5882 -3.1339
14791TIP3   OH265863   3.746   4.971  12.786  0.1552  0.6295 -0.1815
14791TIP3    H165864   3.702   5.036  12.842  0.1100  0.5941 -0.1758
14791TIP3    H265865   3.774   5.021  12.709 -0.1176  0.6023 -0.2997
14792TIP3   OH265866   2.107   0.591  12.980 -0.4327  0.5967 -0.2284
14792TIP3    H165867   2.123   0.662  12.917  0.0262  0.9193  0.2391
14792TIP3    H265868   2.160   0.615  13.057 -0.7895  0.0831  0.1842
14793TIP3   OH265869   6.747   2.913  15.347  0.3648  0.2187 -0.8675
14793TIP3    H165870   6.711   2.998  15.321  1.6515  0.2616 -2.7181
14793TIP3    H265871   6.708   2.851  15.285 -0.4115 -0.5650  0.3465
14794TIP3   OH265872   3.524   5.669  11.148 -0.4371  0.6406  0.7611
14794TIP3    H165873   3.559   5.662  11.059 -2.0682 -0.9202  0.1745
14794TIP3    H265874   3.585   5.727  11.193 -0.2649  2.5835 -1.7279
14795TIP3   OH265875   0.400   4.871   4.172 -0.0949 -0.5162 -0.4753
14795TIP3    H165876   0.326   4.832   4.218  0.4661 -0.1582  0.7845
14795TIP3    H265877   0.398   4.832   4.085 -0.6986 -1.8644  0.1170
14796TIP3   OH265878   5.729   0.961  16.281  0.8451  0.2573 -0.2389
14796TIP3    H165879   5.661   0.999  16.226  1.1702  0.1567 -0.7106
14796TIP3    H265880   5.699   0.872  16.300  0.2330  0.6277  0.6102
14797TIP3   OH265881   4.172   6.386   3.138  0.0728  0.2243 -0.3133
14797TIP3    H165882   4.222   6.355   3.213 -0.2796  0.0933 -0.1275
14797TIP3    H265883   4.203   6.333   3.065 -1.9035 -2.0677  0.3447
14798TIP3   OH265884   0.727   1.478   3.934 -0.1289  0.6660 -0.6590
14798TIP3    H165885   0.798   1.531   3.971 -0.3400 -0.0251  0.7965
14798TIP3    H265886   0.661   1.543   3.909  0.7278  1.2715 -1.4465
14799TIP3   OH265887   6.149   2.693  12.056  0.6999  0.2815 -0.7962
14799TIP3    H165888   6.189   2.776  12.080  0.3174  0.2065  0.1399
14799TIP3    H265889   6.145   2.696  11.960 -0.1951  1.7758 -0.7509
14800TIP3   OH265890   5.656   2.826   5.642  0.3012 -0.4360 -0.3495
14800TIP3    H165891   5.575   2.775   5.643  0.6777 -1.0562 -0.9111
14800TIP3    H265892   5.627   2.917   5.634 -0.3307 -0.6755 -0.8956
14801TIP3   OH265893   1.328   1.643   1.205 -0.0292  0.2477 -0.3685
14801TIP3    H165894   1.339   1.611   1.115  0.3120  2.6812 -1.2631
14801TIP3    H265895   1.300   1.734   1.195  0.3949  0.7034  2.0064
14802TIP3   OH265896   1.106   4.747   0.822  0.1153 -0.0982 -0.0446
14802TIP3    H165897   1.077   4.657   0.815 -0.6407  0.0878  0.6414
14802TIP3    H265898   1.087   4.773   0.912  0.7430  0.6048 -0.0959
14803TIP3   OH265899   5.683   4.055   1.476  0.2276 -0.1365 -0.6779
14803TIP3    H165900   5.742   4.129   1.462  2.5216 -1.6255  0.4302
14803TIP3    H265901   5.607   4.093   1.518  0.7797  1.7630 -1.2971
14804TIP3   OH265902   2.411   3.661  12.619  0.2012 -0.1594  0.0874
14804TIP3    H165903   2.362   3.581  12.603  0.0305  0.0892 -0.6981
14804TIP3    H265904   2.503   3.635  12.615  0.1569 -0.6448  1.6541
14805TIP3   OH265905   0.255   0.487   4.681 -0.4470 -0.3527 -0.5216
14805TIP3    H165906   0.304   0.507   4.602  0.6400 -2.4510 -0.4652
14805TIP3    H265907   0.226   0.397   4.669 -1.1882 -0.3526  1.0044
14806TIP3   OH265908   6.300   0.410   1.841 -0.4322 -0.0255  0.2356
14806TIP3    H165909   6.227   0.361   1.880 -1.4236  2.4306  1.7098
14806TIP3    H265910   6.259   0.471   1.780  0.3697  1.2265  0.9010
14807TIP3   OH265911   5.860   6.160  14.856 -0.1102  0.1368 -0.0397
14807TIP3    H165912   5.935   6.175  14.798 -0.1323  0.0489 -0.0917
14807TIP3    H265913   5.812   6.243  14.855  0.5263  0.5226  0.7843
14808TIP3   OH265914   3.767   4.365   1.185 -0.2501  0.3737  0.4075
14808TIP3    H165915   3.845   4.311   1.199 -0.4550 -0.0335  0.0234
14808TIP3    H265916   3.794   4.431   1.121 -0.2598  0.1443  0.1666
14809TIP3   OH265917   4.030   2.492   2.764  0.8685 -0.0560  0.0669
14809TIP3    H165918   3.997   2.530   2.683 -1.2959 -2.9085 -0.5475
14809TIP3    H265919   4.020   2.562   2.829 -1.9622  0.8118 -1.1475
14810TIP3   OH265920   2.045   3.658  13.088 -0.4985 -0.2688  0.3831
14810TIP3    H165921   1.960   3.696  13.066 -1.0822 -0.7701  1.6689
14810TIP3    H265922   2.108   3.707  13.035 -1.4102  1.2772  0.6973
14811TIP3   OH265923   0.885   4.648  14.192  0.3810  0.0820 -0.4751
14811TIP3    H165924   0.881   4.689  14.106 -0.2737  0.9165 -0.0655
14811TIP3    H265925   0.851   4.560  14.179 -1.0076  0.6482 -0.8263
14812TIP3   OH265926   3.561   5.646   0.605 -0.2709 -0.1075  0.2834
14812TIP3    H165927   3.486   5.706   0.604  0.4272  0.8164 -1.4195
14812TIP3    H265928   3.531   5.571   0.656 -1.7229  1.0008  1.1415
14813TIP3   OH265929   1.563   2.126   1.138  0.1045  0.0586  0.0016
14813TIP3    H165930   1.621   2.202   1.132 -1.1998  1.0532 -0.4683
14813TIP3    H265931   1.480   2.156   1.100 -0.8090 -1.2361  0.8983
14814TIP3   OH265932   3.298   2.311  14.727 -0.0041  0.6961  0.0474
14814TIP3    H165933   3.256   2.365  14.795 -0.3559  1.0376 -0.4359
14814TIP3    H265934   3.225   2.270  14.681  0.2346  0.5022 -0.1586
14815TIP3   OH265935   1.861   0.103   0.715 -0.4430 -0.3525 -0.0932
14815TIP3    H165936   1.831   0.192   0.731  1.1069 -0.0061  1.0531
14815TIP3    H265937   1.809   0.049   0.774  0.1562  0.0779  0.8535
14816TIP3   OH265938   2.211   1.675   0.427 -0.0268  0.4073  0.0009
14816TIP3    H165939   2.216   1.584   0.457  1.0497  0.1455 -0.8717
14816TIP3    H265940   2.119   1.688   0.405 -0.0402 -0.7995 -0.7830
14817TIP3   OH265941   0.907   2.739   2.803  0.3442  0.5886 -0.7179
14817TIP3    H165942   0.901   2.740   2.898  0.4493 -0.3179 -0.7008
14817TIP3    H265943   0.992   2.780   2.784  2.9411 -3.9109 -0.1566
14818TIP3   OH265944   0.333   5.322  14.010 -0.5794 -0.3592 -0.7145
14818TIP3    H165945   0.267   5.284  14.068 -0.5466 -2.1592 -1.7718
14818TIP3    H265946   0.364   5.248  13.958  1.8710  0.5369 -0.6552
14819TIP3   OH265947   5.093   3.357  11.913  0.0433 -0.0396  0.4140
14819TIP3    H165948   5.130   3.440  11.882 -2.3938  1.2253  0.6784
14819TIP3    H265949   5.005   3.354  11.876 -0.4233 -1.8747  1.5236
14820TIP3   OH265950   1.847   1.572  13.273 -0.1559  0.0327 -0.0692
14820TIP3    H165951   1.800   1.598  13.195 -0.4959  0.4549  0.2717
14820TIP3    H265952   1.885   1.487  13.251  1.2770  0.9496 -1.3233
14821TIP3   OH265953   1.131   0.615  11.149 -0.3808 -0.3174 -0.4987
14821TIP3    H165954   1.208   0.598  11.205 -0.8000 -0.1249  0.1520
14821TIP3    H265955   1.090   0.692  11.189 -0.4880  0.0455 -1.2970
14822TIP3   OH265956   5.434   4.950   1.772  0.3569  0.2975  0.0130
14822TIP3    H165957   5.508   5.002   1.803  0.6688 -0.0793 -0.0912
14822TIP3    H265958   5.371   5.014   1.740  1.1954  0.5685 -1.1344
14823TIP3   OH265959   5.953   1.105  11.016 -0.1029  0.2297  0.0267
14823TIP3    H165960   5.974   1.110  10.923 -1.3032 -0.3443 -0.2883
14823TIP3    H265961   5.866   1.144  11.024 -0.1142  0.0606  0.8805
14824TIP3   OH265962   1.825   5.036   5.730 -0.2506 -0.2522 -0.0037
14824TIP3    H165963   1.863   5.063   5.646  0.0330  0.2945  0.2883
14824TIP3    H265964   1.753   5.097   5.745 -1.1834 -1.2119 -0.4951
14825TIP3   OH265965   6.232   6.479   3.819  0.4129 -1.0894  0.0502
14825TIP3    H165966   6.203   6.549   3.877 -1.8124 -1.2793 -0.7559
14825TIP3    H265967   6.287   6.522   3.754 -1.2455  0.0456 -0.6721
14826TIP3   OH265968   3.985   2.503   2.022 -0.6675  0.0209 -0.7574
14826TIP3    H165969   4.062   2.486   2.077 -2.3242 -0.8487  1.4917
14826TIP3    H265970   3.972   2.598   2.027 -0.3241  0.0476 -0.3163
14827TIP3   OH265971   6.560   4.313  13.599 -0.0611  0.3621 -0.0153
14827TIP3    H165972   6.501   4.241  13.576 -0.4294 -0.2352  2.4855
14827TIP3    H265973   6.530   4.387  13.546 -1.3393 -0.6280 -0.7263
14828TIP3   OH265974   2.208   1.657   6.437  0.4584  0.0793  0.3611
14828TIP3    H165975   2.271   1.722   6.468  0.3385  0.5779 -0.4152
14828TIP3    H265976   2.251   1.573   6.449  1.3553  0.4287 -0.3521
14829TIP3   OH265977   5.833   4.187   4.834  0.7361  0.1076 -0.7253
14829TIP3    H165978   5.815   4.136   4.754  1.3539 -0.1894 -0.6804
14829TIP3    H265979   5.891   4.131   4.885 -1.1310 -0.5129  0.8036
14830TIP3   OH265980   4.016   3.953   5.154  0.9246  0.1621  0.1268
14830TIP3    H165981   3.981   3.967   5.066  2.0205  0.7388 -0.2427
14830TIP3    H265982   4.074   3.878   5.145  0.7180 -0.0423  0.4601
14831TIP3   OH265983   0.429   1.439  14.669  0.5661 -0.4734  0.3027
14831TIP3    H165984   0.486   1.413  14.596 -0.4541 -0.1312 -0.6307
14831TIP3    H265985   0.441   1.534  14.675 -0.5335 -0.2772 -0.4506
14832TIP3   OH265986   5.662   3.812  13.835 -0.0325  0.0778  0.4446
14832TIP3    H165987   5.670   3.905  13.855  1.5504  0.1410 -0.3230
14832TIP3    H265988   5.570   3.800  13.814 -0.0055  1.7990 -0.9353
14833TIP3   OH265989   5.138   2.831   2.570  0.8472 -0.6244  0.2847
14833TIP3    H165990   5.051   2.793   2.577  0.0752  0.9610 -0.0332
14833TIP3    H265991   5.175   2.793   2.490 -0.3312  0.0761 -0.6341
14834TIP3   OH265992   5.179   3.711   1.335 -0.1758  0.5295  0.4488
14834TIP3    H165993   5.128   3.635   1.363 -1.4979  0.8311 -0.9500
14834TIP3    H265994   5.171   3.774   1.406  1.8083 -0.9493  2.1064
14835TIP3   OH265995   5.065   2.126   0.412  0.2033  0.2798 -0.1626
14835TIP3    H165996   5.127   2.075   0.464  1.3590  1.6126 -0.1807
14835TIP3    H265997   5.066   2.085   0.326 -0.0771 -0.6109  0.2446
14836TIP3   OH265998   3.397   1.211   0.618 -0.3555 -0.0233  0.2836
14836TIP3    H165999   3.343   1.275   0.572 -0.9255 -0.7652 -0.1072
14836TIP3    H266000   3.369   1.126   0.583  1.0034 -0.4384  0.1389
14837TIP3   OH266001   2.658   0.957  14.350 -0.5541 -0.2284  0.0310
14837TIP3    H166002   2.597   1.030  14.358 -1.1842 -0.8374  0.9836
14837TIP3    H266003   2.690   0.942  14.439  1.4057  0.3958 -0.5030
14838TIP3   OH266004   1.326   4.585  14.175  0.3903 -0.7848 -0.4174
14838TIP3    H166005   1.336   4.552  14.086 -0.9177  0.3212 -1.0090
14838TIP3    H266006   1.253   4.534  14.212 -1.1776  0.8746 -1.0995
14839TIP3   OH266007   3.784   3.412  13.216 -0.2048  0.0121 -0.5922
14839TIP3    H166008   3.731   3.420  13.294 -1.1624  0.7696 -1.2956
14839TIP3    H266009   3.867   3.374  13.246 -0.4416  0.5731  0.8179
14840TIP3   OH266010   1.320   1.662   5.456  0.6760  0.1994  0.5294
14840TIP3    H166011   1.283   1.609   5.526  0.0692 -0.4538 -0.2697
14840TIP3    H266012   1.397   1.614   5.427 -0.4377 -0.8428 -0.8878
14841TIP3   OH266013   2.323   5.625   2.085  0.1612  0.0028 -0.4354
14841TIP3    H166014   2.267   5.698   2.111  0.5827  0.4233 -0.6987
14841TIP3    H266015   2.268   5.547   2.098 -0.6643  0.4421 -1.1771
14842TIP3   OH266016   1.657   4.069  16.920 -0.6542  0.5847 -0.0688
14842TIP3    H166017   1.592   4.112  16.865 -0.3369 -0.2439 -1.1127
14842TIP3    H266018   1.740   4.085  16.876 -0.6397 -2.0106 -1.1290
14843TIP3   OH266019   1.671   1.586   4.592 -0.2553  0.1680  0.8992
14843TIP3    H166020   1.750   1.580   4.647  2.1543 -2.1943 -2.3933
14843TIP3    H266021   1.673   1.675   4.557  0.9601  0.1490  0.8816
14844TIP3   OH266022   3.428   2.011   0.775 -0.3750 -0.3491  0.4355
14844TIP3    H166023   3.449   1.922   0.806 -2.5211 -0.6932  1.0523
14844TIP3    H266024   3.351   2.036   0.826  1.7444  3.0273  2.3744
14845TIP3   OH266025   0.130   4.678  11.849 -0.0169  0.1596 -0.1097
14845TIP3    H166026   0.101   4.765  11.876  1.9546 -0.0167  2.9714
14845TIP3    H266027   0.141   4.629  11.930  4.3726 -1.1707 -1.2193
14846TIP3   OH266028   4.606   1.526  15.716  0.6432  0.0548  0.1047
14846TIP3    H166029   4.614   1.509  15.622  0.9124  1.1838 -0.0900
14846TIP3    H266030   4.525   1.576  15.725 -0.2863 -1.4823  0.7004
14847TIP3   OH266031   0.428   3.797  13.263 -0.7123  0.5260  0.1991
14847TIP3    H166032   0.481   3.810  13.342 -0.6639 -0.9155  0.4189
14847TIP3    H266033   0.483   3.743  13.206 -1.4155  0.1516 -0.1287
14848TIP3   OH266034   5.191   2.389  13.786  0.0739 -0.1564  0.0150
14848TIP3    H166035   5.122   2.416  13.727  0.5109  1.9035  0.3929
14848TIP3    H266036   5.152   2.395  13.873  1.0480  2.3787  0.3541
14849TIP3   OH266037   3.845   5.756  13.723  0.2163 -0.0865 -0.6056
14849TIP3    H166038   3.884   5.670  13.736  1.7689  0.4179 -1.6539
14849TIP3    H266039   3.875   5.809  13.797 -2.5729 -0.9484  1.3227
14850TIP3   OH266040   2.715   2.036  16.059  0.3513 -0.3687 -0.0333
14850TIP3    H166041   2.669   2.027  15.976  1.6793  0.8455 -0.9533
14850TIP3    H266042   2.649   2.069  16.120 -0.3573 -0.1453 -0.9002
14851TIP3   OH266043   5.742   1.948  13.965 -0.2960  0.3837  0.4442
14851TIP3    H166044   5.666   1.952  14.022 -1.1877  1.3249 -0.7423
14851TIP3    H266045   5.753   1.855  13.945 -1.2724  0.2551  0.4766
14852TIP3   OH266046   0.350   0.046  16.819 -0.7475  0.0013  0.4240
14852TIP3    H166047   0.304   0.129  16.810  0.7290  0.9935  1.6108
14852TIP3    H266048   0.399   0.054  16.901  1.3605 -1.0779 -0.6516
14853TIP3   OH266049   1.753   4.602   6.331  0.3840 -0.8984 -0.4743
14853TIP3    H166050   1.761   4.605   6.236 -1.1434 -0.6622 -0.6134
14853TIP3    H266051   1.773   4.511   6.354 -1.2527 -1.5054 -1.2636
14854TIP3   OH266052   2.731   3.897  17.149  0.1476  0.0454 -0.3205
14854TIP3    H166053   2.743   3.845  17.229  2.5992 -0.5947 -1.0310
14854TIP3    H266054   2.734   3.834  17.078  0.1754  0.8388 -1.0443
14855TIP3   OH266055   0.726   5.135  15.327  0.6427 -0.5009 -0.2917
14855TIP3    H166056   0.795   5.162  15.388 -0.7146  0.7597  0.7445
14855TIP3    H266057   0.690   5.055  15.366  1.1139 -0.8433 -0.5405
14856TIP3   OH266058   6.301   1.003   0.583 -0.3049 -0.0474  0.4769
14856TIP3    H166059   6.390   1.020   0.551  0.7836 -0.2822  3.1165
14856TIP3    H266060   6.276   0.921   0.540  0.5358  0.2644 -0.6695
14857TIP3   OH266061   0.483   0.306   4.529 -0.4853 -0.0671  0.0642
14857TIP3    H166062   0.548   0.324   4.597  0.7551  1.8997 -1.5170
14857TIP3    H266063   0.488   0.212   4.516  1.4162 -0.1014  0.6590
14858TIP3   OH266064   5.265   3.952   2.140  0.0510 -0.1260 -0.0648
14858TIP3    H166065   5.179   3.969   2.100  0.5583  0.2782 -1.0091
14858TIP3    H266066   5.316   4.031   2.121  0.3166  0.0731  1.3936
14859TIP3   OH266067   3.218   5.434   0.180 -0.1018  0.1236 -0.1206
14859TIP3    H166068   3.286   5.432   0.113 -0.4626  0.4477 -0.4957
14859TIP3    H266069   3.267   5.443   0.262  0.4708 -2.4383 -0.1053
14860TIP3   OH266070   4.105   1.773   4.050  0.0253 -0.4202  0.0212
14860TIP3    H166071   4.055   1.833   4.106 -2.3706 -1.7544 -0.5712
14860TIP3    H266072   4.086   1.801   3.961 -0.0715 -1.2413 -0.2265
14861TIP3   OH266073   3.955   1.138  11.678  0.3045 -0.8526  0.2948
14861TIP3    H166074   3.962   1.200  11.605 -0.0555 -2.5894 -1.2856
14861TIP3    H266075   4.045   1.108  11.691  0.0220 -2.7379 -1.5165
14862TIP3   OH266076   2.042   1.382   2.552  0.1493  0.3820  0.0028
14862TIP3    H166077   2.012   1.340   2.632  1.9604 -0.2952  0.3790
14862TIP3    H266078   2.121   1.429   2.578  0.1390  1.0897 -1.1652
14863TIP3   OH266079   2.590   3.106   5.149 -0.2071  0.3099 -0.6101
14863TIP3    H166080   2.655   3.101   5.078  0.6319  1.5664  0.0238
14863TIP3    H266081   2.549   3.192   5.137  0.2330  0.7208  0.6313
14864TIP3   OH266082   3.708   0.336   2.766  0.2652 -0.1406 -0.0089
14864TIP3    H166083   3.715   0.268   2.832 -0.8831 -0.1870  0.0963
14864TIP3    H266084   3.738   0.416   2.810  0.6833 -0.3989  0.1754
14865TIP3   OH266085   1.813   0.487   1.960  0.2471 -0.0709  0.7804
14865TIP3    H166086   1.761   0.524   2.031  0.7352 -0.1780  1.1915
14865TIP3    H266087   1.773   0.524   1.880 -1.2159 -1.0747  1.0042
14866TIP3   OH266088   2.132   2.930   4.344 -0.0684 -0.2147  0.3619
14866TIP3    H166089   2.074   2.940   4.419  0.5471  0.8250  0.7105
14866TIP3    H266090   2.115   2.841   4.312 -0.4750 -0.5980  1.6063
14867TIP3   OH266091   0.516   3.808  16.854  0.2387  0.3561 -0.5824
14867TIP3    H166092   0.438   3.862  16.847 -0.5945 -0.6933  0.2850
14867TIP3    H266093   0.576   3.859  16.909 -1.3232 -0.4123  1.9813
14868TIP3   OH266094   2.244   5.756  13.154  0.1043  0.2301 -0.1860
14868TIP3    H166095   2.167   5.713  13.192  1.2903 -0.8258  1.0897
14868TIP3    H266096   2.240   5.734  13.061 -1.3824  0.6115 -0.2467
14869TIP3   OH266097   0.255   2.992   2.392 -0.0102  0.2630  0.2796
14869TIP3    H166098   0.222   3.081   2.379  0.3818  0.4285  0.4176
14869TIP3    H266099   0.304   2.996   2.474  0.6346  0.0959 -0.0926
14870TIP3   OH266100   3.822   6.260  16.931 -0.1642 -0.4208 -0.4815
14870TIP3    H166101   3.805   6.167  16.949 -1.7269 -0.0821 -0.0373
14870TIP3    H266102   3.793   6.305  17.010 -0.5315  0.5427 -1.1572
14871TIP3   OH266103   1.032   0.321   1.592 -0.3054  0.4404  0.0474
14871TIP3    H166104   0.959   0.368   1.634 -0.1049  0.7992  0.0009
14871TIP3    H266105   1.023   0.231   1.623 -1.0393  0.3776 -0.3168
14872TIP3   OH266106   3.601   0.439   5.174 -0.0325  0.1859  0.4461
14872TIP3    H166107   3.635   0.384   5.103  1.4675  1.5497  0.0243
14872TIP3    H266108   3.595   0.381   5.249 -1.4515 -1.2483 -0.7170
14873TIP3   OH266109   4.685   6.367  15.596  0.0026 -0.4419  0.5806
14873TIP3    H166110   4.603   6.368  15.645  0.8692  0.1621  2.0430
14873TIP3    H266111   4.746   6.419  15.648  1.4795 -1.3119 -0.2101
14874TIP3   OH266112   5.370   0.088   0.345  0.0873  0.3866  0.2675
14874TIP3    H166113   5.297   0.114   0.401 -1.2697 -1.2053 -0.6918
14874TIP3    H266114   5.405   0.009   0.387 -0.4917 -0.4136 -0.7469
14875TIP3   OH266115   0.051   2.441  11.325 -0.4008 -0.0614  0.2011
14875TIP3    H166116  -0.038   2.462  11.354 -0.8344 -0.6222 -0.6726
14875TIP3    H266117   0.039   2.403  11.238  0.7006 -0.1366  0.0733
14876TIP3   OH266118   2.780   0.677   4.808 -1.0287 -0.1072 -0.2566
14876TIP3    H166119   2.865   0.653   4.846 -0.6750  2.7521  1.0376
14876TIP3    H266120   2.716   0.638   4.867 -0.5352  0.6223  0.7931
14877TIP3   OH266121   2.451   1.664   1.854 -0.1716 -0.6259  0.1100
14877TIP3    H166122   2.462   1.599   1.923 -0.0710 -0.3662  0.3422
14877TIP3    H266123   2.516   1.640   1.788  0.3428 -0.3553  0.5094
14878TIP3   OH266124   3.221   6.486   6.503 -0.2199  0.2018  0.7477
14878TIP3    H166125   3.300   6.449   6.542  1.6306  0.5811 -2.2943
14878TIP3    H266126   3.163   6.410   6.490  1.4901 -0.9194 -0.8913
14879TIP3   OH266127   4.588   0.672   5.816 -1.1681  0.3689 -0.0092
14879TIP3    H166128   4.534   0.749   5.833 -0.8141  0.4600  0.6992
14879TIP3    H266129   4.678   0.701   5.828 -1.0397 -0.1941  0.4236
14880TIP3   OH266130   4.658   5.874   4.998 -0.0359 -0.4540  0.0690
14880TIP3    H166131   4.617   5.942   5.052 -1.3808 -1.5490  0.4741
14880TIP3    H266132   4.608   5.874   4.917  0.9933  0.1117 -0.5901
14881TIP3   OH266133   0.117   4.716  10.919  0.0751 -1.0616 -0.0769
14881TIP3    H166134   0.156   4.787  10.866  0.2420 -1.1071 -0.0163
14881TIP3    H266135   0.158   4.637  10.886  0.8044 -1.0108  0.6809
14882TIP3   OH266136   5.535   4.360   3.628 -0.3068 -0.3178  0.3355
14882TIP3    H166137   5.550   4.454   3.640  0.7280 -0.4991  0.5625
14882TIP3    H266138   5.584   4.319   3.698 -1.2983 -1.0147  0.6399
14883TIP3   OH266139   6.092   0.984   3.313 -0.0991  0.2521 -0.1313
14883TIP3    H166140   6.093   1.002   3.407  1.0504  0.6554 -0.2071
14883TIP3    H266141   6.014   1.029   3.281  0.6961  1.9854  0.2861
14884TIP3   OH266142   5.355   3.290   2.541  0.4177  0.0221  0.0934
14884TIP3    H166143   5.293   3.220   2.560 -1.9735  1.9182 -0.2417
14884TIP3    H266144   5.390   3.315   2.627 -0.4310 -0.0817  0.4789
14885TIP3   OH266145   6.600   2.118   3.175 -0.2044  0.1678  0.3796
14885TIP3    H166146   6.676   2.079   3.218  1.5794  1.2213 -1.6239
14885TIP3    H266147   6.607   2.211   3.195 -0.8628  0.2993  0.0013
14886TIP3   OH266148   1.622   4.766   3.431 -0.7682 -0.0874  0.3149
14886TIP3    H166149   1.717   4.779   3.432 -0.9474  1.3342  0.6209
14886TIP3    H266150   1.588   4.827   3.497 -1.9207 -0.3332 -0.0234
14887TIP3   OH266151   4.254   0.561   5.254 -0.2045 -0.0008 -0.1245
14887TIP3    H166152   4.293   0.606   5.329 -3.0629  0.5917  1.1409
14887TIP3    H266153   4.229   0.631   5.194 -2.1642 -0.0284  0.5896
14888TIP3   OH266154   0.610   3.023  12.604  0.0513  0.3396  0.0317
14888TIP3    H166155   0.628   2.975  12.524  1.2659  1.4560 -0.3859
14888TIP3    H266156   0.565   2.959  12.660 -1.9744 -0.1113 -1.9574
14889TIP3   OH266157   3.414   0.228  16.487 -0.1191  0.0738 -0.1892
14889TIP3    H166158   3.407   0.241  16.581  0.0527 -0.6380 -0.0725
14889TIP3    H266159   3.505   0.250  16.466 -0.0740 -0.0673 -0.1404
14890TIP3   OH266160   4.217   3.610   5.868  0.2552  0.0798 -0.1994
14890TIP3    H166161   4.265   3.564   5.800 -0.6783 -0.6388 -0.3859
14890TIP3    H266162   4.183   3.541   5.925  1.6333  0.6725  1.4580
14891TIP3   OH266163   2.660   3.563   1.755  0.1518 -0.0965 -0.0351
14891TIP3    H166164   2.670   3.638   1.813  0.1691 -0.5423  0.5506
14891TIP3    H266165   2.632   3.492   1.813  1.5763 -0.9292 -0.3336
14892TIP3   OH266166   4.697   1.657   5.350  0.0023  0.4721  0.1778
14892TIP3    H166167   4.678   1.572   5.390  1.1363 -0.2022 -0.6644
14892TIP3    H266168   4.717   1.714   5.424 -0.8454  0.0395  0.7598
14893TIP3   OH266169   3.482   4.589  16.751 -0.0311  0.1479  0.2396
14893TIP3    H166170   3.557   4.627  16.796 -0.4059 -0.3346  1.3049
14893TIP3    H266171   3.453   4.658  16.691  0.4971  0.8002  0.7172
14894TIP3   OH266172   0.895   1.823  11.272 -0.0003  0.1857  0.0040
14894TIP3    H166173   0.990   1.830  11.263 -0.1040  1.9220 -0.1455
14894TIP3    H266174   0.867   1.774  11.195  0.7549 -0.1375 -0.0726
14895TIP3   OH266175   5.557   3.988   0.967  0.1564 -0.3603  0.0945
14895TIP3    H166176   5.463   3.978   0.980  0.0708  0.2517 -0.0346
14895TIP3    H266177   5.584   4.051   1.033  0.7350 -1.5821  1.0822
14896TIP3   OH266178   5.665   3.923   3.056  0.2279 -0.1025 -0.0544
14896TIP3    H166179   5.682   3.907   3.149 -0.2216  1.5885  0.3541
14896TIP3    H266180   5.745   3.893   3.012  0.5064 -0.7897  0.8714
14897TIP3   OH266181   1.805   6.455   5.717 -0.0391  0.2210  0.0266
14897TIP3    H166182   1.798   6.550   5.717  0.9309  0.3112 -0.6001
14897TIP3    H266183   1.830   6.433   5.627 -0.6036 -0.6559  0.0695
14898TIP3   OH266184   6.211   5.689  14.837 -0.5129 -0.5108 -0.0633
14898TIP3    H166185   6.274   5.756  14.862 -0.8235 -0.4509  0.5845
14898TIP3    H266186   6.261   5.627  14.785  0.6904 -1.7575  2.4087
14899TIP3   OH266187   1.550   2.679   2.911  0.1157  0.5253 -0.3899
14899TIP3    H166188   1.460   2.710   2.922  0.5611  1.6400  0.3780
14899TIP3    H266189   1.583   2.728   2.835  0.0837  0.1288 -0.6615
14900TIP3   OH266190   6.215   0.991   6.031 -0.7634 -0.2063  0.4257
14900TIP3    H166191   6.147   0.925   6.044  1.0435 -2.2412  0.0053
14900TIP3    H266192   6.297   0.948   6.056  1.1321  0.2593 -3.9496
14901TIP3   OH266193   2.877   6.552  14.695  0.3416 -0.0031 -0.4589
14901TIP3    H166194   2.883   6.513  14.608 -0.4763  1.7331 -1.3449
14901TIP3    H266195   2.783   6.550  14.716  0.4214  0.4582 -0.0356
14902TIP3   OH266196   0.380   3.037   5.187  0.1218  0.0338 -0.6659
14902TIP3    H166197   0.379   2.943   5.168 -0.9420 -0.4540  1.5176
14902TIP3    H266198   0.287   3.062   5.187  0.4071  1.1731 -1.5265
14903TIP3   OH266199   4.110   4.162   5.998 -0.4011  0.1151  0.0005
14903TIP3    H166200   4.089   4.166   5.904 -0.1620  3.7618 -0.0318
14903TIP3    H266201   4.205   4.168   6.002 -0.2697 -1.7768  0.4991
14904TIP3   OH266202   3.069   4.865  11.146  0.7852  0.5868 -0.0074
14904TIP3    H166203   3.059   4.936  11.083  1.3772  1.5787  0.9736
14904TIP3    H266204   3.137   4.809  11.109  1.7418  1.6248  0.1440
14905TIP3   OH266205   6.784   1.911   3.301  0.6069  0.2089  0.1558
14905TIP3    H166206   6.726   1.836   3.317  0.4777  0.5214  1.1930
14905TIP3    H266207   6.868   1.871   3.277  1.0440 -0.3396  2.3604
14906TIP3   OH266208   3.074   3.909  15.570  0.1008  0.2613 -0.4468
14906TIP3    H166209   3.014   3.954  15.630  0.8121 -0.2753  0.7091
14906TIP3    H266210   3.145   3.878  15.626  0.3948 -0.9737 -1.4601
14907TIP3   OH266211   0.046   2.912  10.915 -0.3397  0.1856  0.1111
14907TIP3    H166212   0.011   2.998  10.939  0.0799  0.6925 -0.9940
14907TIP3    H266213   0.083   2.926  10.827 -0.9016 -1.3056 -0.3784
14908TIP3   OH266214   2.667   6.493   1.397 -0.0311  0.0884  0.1451
14908TIP3    H166215   2.598   6.446   1.350 -0.2104  0.0194  0.4741
14908TIP3    H266216   2.629   6.511   1.483 -0.3270  1.6726 -0.2785
14909TIP3   OH266217   4.162   5.487  12.830  0.1648 -0.8600  0.5107
14909TIP3    H166218   4.082   5.452  12.790  0.0609  1.0440 -1.1310
14909TIP3    H266219   4.138   5.576  12.856  1.5786 -0.4622  0.5435
14910TIP3   OH266220   6.339   0.431   3.370 -0.1680  0.4664 -0.1059
14910TIP3    H166221   6.246   0.415   3.385 -0.0124 -0.5963 -0.1517
14910TIP3    H266222   6.350   0.424   3.275  0.1011 -0.3966 -0.0276
14911TIP3   OH266223   1.717   5.568   4.050 -0.3131  0.1829  0.0506
14911TIP3    H166224   1.664   5.500   4.009 -1.3183  0.6087  0.6093
14911TIP3    H266225   1.711   5.549   4.144  1.0310 -0.1113  0.0988
14912TIP3   OH266226   5.943   2.172   1.494  0.0286 -0.0740 -0.6238
14912TIP3    H166227   5.957   2.141   1.583  0.1105  0.1865 -0.5453
14912TIP3    H266228   5.867   2.231   1.500  0.3303  0.3219 -0.6366
14913TIP3   OH266229   1.256   1.786   0.724  0.2367  0.2133  0.7500
14913TIP3    H166230   1.314   1.820   0.656 -0.3329  0.4663  0.3807
14913TIP3    H266231   1.204   1.861   0.752 -0.4322 -0.1548  0.5371
14914TIP3   OH266232   6.503   4.960   0.537 -0.3570 -0.1973 -0.2550
14914TIP3    H166233   6.524   4.952   0.630 -1.4486 -0.5928 -0.0182
14914TIP3    H266234   6.462   5.046   0.529 -1.5632 -0.7186 -0.0657
14915TIP3   OH266235   2.143   4.749   2.299 -0.0555  0.3497  0.0510
14915TIP3    H166236   2.193   4.668   2.288  1.4019  1.4477 -1.8552
14915TIP3    H266237   2.100   4.738   2.385  2.0992 -1.3594  1.0153
14916TIP3   OH266238   3.708   1.974  12.176  0.5892  0.6177 -0.1926
14916TIP3    H166239   3.714   2.066  12.202  1.6749  0.3558  0.5266
14916TIP3    H266240   3.681   1.929  12.255  1.2135  0.1676 -0.2308
14917TIP3   OH266241   2.157   6.360   1.728 -0.5249 -0.3066 -0.4130
14917TIP3    H166242   2.161   6.304   1.651  0.3469 -0.7859 -0.0287
14917TIP3    H266243   2.106   6.436   1.700  2.0774  0.8722 -2.3181
14918TIP3   OH266244   2.993   4.299   5.077  0.3306  0.2594  0.1180
14918TIP3    H166245   2.939   4.247   5.019  2.2992  1.9315 -3.5200
14918TIP3    H266246   2.936   4.370   5.106 -0.7136 -0.6734  0.4362
14919TIP3   OH266247   2.877   1.529   2.126 -0.1791 -0.0525 -0.3394
14919TIP3    H166248   2.943   1.470   2.090  0.7148 -0.2216  1.4525
14919TIP3    H266249   2.823   1.473   2.181  0.2509  0.6500  0.8359
14920TIP3   OH266250   3.080   0.824   0.599 -0.2996  0.0028 -0.2897
14920TIP3    H166251   3.101   0.735   0.627 -2.0166 -0.1011  0.8315
14920TIP3    H266252   2.985   0.826   0.595 -0.2487  1.2284 -2.3089
14921TIP3   OH266253   6.486   2.895   3.962  0.4025 -0.4090 -0.1429
14921TIP3    H166254   6.391   2.901   3.972  0.2132 -0.3960 -1.6774
14921TIP3    H266255   6.501   2.811   3.918  1.2630 -1.1862  1.5259
14922TIP3   OH266256   6.053   6.330   6.657 -0.1409  0.0018  0.0025
14922TIP3    H166257   6.082   6.242   6.635  2.5068  0.4526  1.2765
14922TIP3    H266258   6.100   6.387   6.595 -0.2580  0.6196  0.4709
14923TIP3   OH266259   5.199   6.427   1.626 -0.5043 -0.2450 -0.1255
14923TIP3    H166260   5.155   6.511   1.611  1.6655  0.8276 -0.9551
14923TIP3    H266261   5.215   6.393   1.538  1.0284 -0.1776  0.1047
14924TIP3   OH266262   6.228   0.162  15.803  0.1835 -0.1748 -0.4676
14924TIP3    H166263   6.140   0.128  15.811  0.3232 -0.4733 -0.1815
14924TIP3    H266264   6.250   0.151  15.710  0.2343 -0.8800 -0.3738
14925TIP3   OH266265   2.289   2.263   0.850 -0.3189 -0.3790  0.0351
14925TIP3    H166266   2.288   2.356   0.873  1.3330 -0.7197  1.7116
14925TIP3    H266267   2.318   2.260   0.759  0.2702  0.7249  0.1772
14926TIP3   OH266268   5.111   2.265   5.450  0.4371  0.0868  0.1634
14926TIP3    H166269   5.035   2.249   5.394 -1.1421  0.3306  2.1400
14926TIP3    H266270   5.111   2.359   5.464 -0.7822 -0.2121  2.6071
14927TIP3   OH266271   4.020   4.803  10.814  0.0382 -0.3060 -0.2479
14927TIP3    H166272   4.010   4.870  10.881 -0.2031  1.3750 -1.8668
14927TIP3    H266273   4.110   4.772  10.824  0.1445  0.2257  0.5712
14928TIP3   OH266274   2.519   3.387   3.809 -0.2293  0.7809  0.4104
14928TIP3    H166275   2.556   3.446   3.743  1.4655 -1.0974 -0.4290
14928TIP3    H266276   2.527   3.435   3.891  2.5240  1.1885 -0.0091
14929TIP3   OH266277   2.359   4.526  11.242  0.8295 -0.5482 -0.2456
14929TIP3    H166278   2.344   4.452  11.183 -1.3506 -0.9066  0.6503
14929TIP3    H266279   2.401   4.488  11.319  2.0950 -0.3752 -0.8315
14930TIP3   OH266280   4.097   3.425   6.055 -0.1171 -0.0966 -0.4714
14930TIP3    H166281   4.041   3.444   6.130 -0.9843  0.4798 -1.2502
14930TIP3    H266282   4.183   3.406   6.094 -0.7211 -0.5061  0.7014
14931TIP3   OH266283   1.768   1.744  14.376  0.5632 -0.5607  0.0285
14931TIP3    H166284   1.752   1.779  14.289 -1.2753  1.6034  1.1201
14931TIP3    H266285   1.851   1.784  14.403  1.2662 -1.4336 -0.7613
14932TIP3   OH266286   3.323   0.207   2.711  0.5440 -0.2978 -0.6258
14932TIP3    H166287   3.275   0.150   2.772 -0.7092  0.5906 -0.7335
14932TIP3    H266288   3.325   0.157   2.629 -3.8069  1.0989 -1.8599
14933TIP3   OH266289   6.173   3.448  11.483 -0.1573  0.4387  0.0772
14933TIP3    H166290   6.078   3.438  11.486  0.0371 -2.4844 -0.4267
14933TIP3    H266291   6.193   3.466  11.391 -0.1131 -1.0418 -0.2172
14934TIP3   OH266292   0.293   4.309   5.511 -0.4492  0.5483 -0.3953
14934TIP3    H166293   0.309   4.401   5.533 -0.5594  1.0046 -2.0899
14934TIP3    H266294   0.378   4.267   5.525 -0.4761  0.8296  0.6977
14935TIP3   OH266295   6.279   5.981   1.690  0.4915  0.2604  0.1422
14935TIP3    H166296   6.251   5.973   1.598  0.1709 -0.7370  0.3075
14935TIP3    H266297   6.237   6.061   1.721  0.4498  0.5048 -0.5322
14936TIP3   OH266298   0.123   3.072   2.901  0.0980 -0.4662  0.0042
14936TIP3    H166299   0.072   3.085   2.821 -0.7401  0.2649  0.6327
14936TIP3    H266300   0.156   2.983   2.895  0.4782 -0.2548 -1.3944
14937TIP3   OH266301   1.520   1.520  14.958 -0.2033 -0.2770  0.2246
14937TIP3    H166302   1.551   1.599  15.001 -0.4872  0.7780 -1.4217
14937TIP3    H266303   1.598   1.484  14.916 -0.4597  0.2868 -0.7531
14938TIP3   OH266304   6.690   0.088   4.768 -0.0796 -0.3150 -0.2973
14938TIP3    H166305   6.672  -0.005   4.782  1.1051 -0.1881  3.0576
14938TIP3    H266306   6.782   0.091   4.741 -0.2537 -0.1336 -0.8763
14939TIP3   OH266307   0.780   6.425   5.007 -0.3805 -0.1544  0.2578
14939TIP3    H166308   0.756   6.400   5.096  2.1081 -1.2131  0.7228
14939TIP3    H266309   0.875   6.416   5.004 -0.5233 -3.2193 -3.3705
14940TIP3   OH266310   0.621   1.989  16.672 -0.0348  0.0835 -0.1705
14940TIP3    H166311   0.712   2.016  16.661 -0.0325 -0.1442 -0.7180
14940TIP3    H266312   0.627   1.901  16.711  0.0095 -0.4577 -1.3481
14941TIP3   OH266313   2.541   2.645  11.456 -0.0191  0.2641 -0.0881
14941TIP3    H166314   2.454   2.608  11.471  1.0947 -3.3287 -1.4145
14941TIP3    H266315   2.547   2.656  11.361  0.9305  0.6084 -0.0020
14942TIP3   OH266316   6.357   3.388  12.678 -1.0539 -0.1633 -0.2265
14942TIP3    H166317   6.391   3.329  12.611 -1.2228  0.0288 -0.4798
14942TIP3    H266318   6.435   3.421  12.722 -0.9725 -2.5693  1.6719
14943TIP3   OH266319   0.671   4.845  15.029  0.6045 -0.0324  0.4449
14943TIP3    H166320   0.660   4.914  14.962 -4.3819 -1.0956 -0.2763
14943TIP3    H266321   0.700   4.769  14.980 -2.4565 -0.6417 -0.6834
14944TIP3   OH266322   2.428   2.919  15.819  0.1372 -0.7928  0.6027
14944TIP3    H166323   2.391   2.852  15.762 -1.4243 -1.7340  2.6165
14944TIP3    H266324   2.495   2.874  15.869  2.2573  0.2801 -1.1146
14945TIP3   OH266325   6.344   3.690   5.164  0.0177  0.3877 -0.2759
14945TIP3    H166326   6.264   3.704   5.215 -0.9680 -1.2465 -1.2644
14945TIP3    H266327   6.408   3.657   5.226 -0.9060 -0.7745  0.0947
14946TIP3   OH266328   0.793   3.048   0.346 -0.5143  0.2912 -0.4812
14946TIP3    H166329   0.744   3.058   0.264 -0.6890  0.7273 -0.3248
14946TIP3    H266330   0.847   3.127   0.351  2.0920 -1.2497 -1.8930
14947TIP3   OH266331   6.446   0.232   1.651  0.1043 -0.2967 -0.7579
14947TIP3    H166332   6.414   0.263   1.736  1.0672  1.5041 -1.0296
14947TIP3    H266333   6.534   0.198   1.669  1.2725  2.1893 -1.3466
14948TIP3   OH266334   3.989   5.816   1.346 -0.2807 -0.5269 -0.2348
14948TIP3    H166335   4.051   5.749   1.375  0.9820  1.1567  1.1410
14948TIP3    H266336   3.950   5.849   1.426  0.1037  1.2816 -0.7477
14949TIP3   OH266337   1.075   6.095  15.067  0.0557 -0.3519 -0.2311
14949TIP3    H166338   1.016   6.076  14.994 -0.9947 -0.2412  0.5663
14949TIP3    H266339   1.075   6.015  15.119 -0.4551  0.0938  0.4781
14950TIP3   OH266340   6.217   4.560  13.326  0.0233 -0.0567 -0.3212
14950TIP3    H166341   6.181   4.647  13.308  0.2480 -0.0922 -0.9686
14950TIP3    H266342   6.279   4.545  13.255  1.8859  0.3120  1.1530
14951TIP3   OH266343   3.133   6.199   3.468 -0.3551  0.2126 -0.6889
14951TIP3    H166344   3.173   6.150   3.396 -1.5133 -1.0808 -0.4930
14951TIP3    H266345   3.039   6.182   3.460 -0.4950 -0.2326  1.2929
14952TIP3   OH266346   3.049   1.726  13.515 -0.3487 -0.1085 -0.1787
14952TIP3    H166347   3.044   1.763  13.603  1.1800 -0.5767  0.1244
14952TIP3    H266348   3.138   1.690  13.508 -0.8282 -1.1347 -1.4930
14953TIP3   OH266349   1.042   5.877  12.304  0.3872  0.3391  0.4559
14953TIP3    H166350   1.013   5.911  12.388  0.1538  1.9800 -0.2622
14953TIP3    H266351   1.127   5.837  12.323 -0.8946 -1.9079  1.9927
14954TIP3   OH266352   3.900   4.915   4.614  0.8423  0.3785  0.4786
14954TIP3    H166353   3.904   4.991   4.672  0.2872 -0.3100  1.4605
14954TIP3    H266354   3.979   4.865   4.634 -0.1114 -0.6572  1.8259
14955TIP3   OH266355   3.892   4.633  16.195 -0.4218 -0.0192  0.1893
14955TIP3    H166356   3.883   4.540  16.173  2.2171 -0.7331  1.7115
14955TIP3    H266357   3.902   4.634  16.290 -0.7457  1.8929  0.2376
14956TIP3   OH266358   5.980   4.349  12.481 -0.4980  0.0987  0.1877
14956TIP3    H166359   5.940   4.392  12.406  2.4189  1.2611 -0.8323
14956TIP3    H266360   6.017   4.268  12.445  1.1885  0.8133  0.2273
14957TIP3   OH266361   4.764   1.340   3.093  0.5451 -0.3892  0.2550
14957TIP3    H166362   4.773   1.423   3.046  0.7887  0.3197  1.5061
14957TIP3    H266363   4.790   1.274   3.030 -1.7982  0.2534 -1.5456
14958TIP3   OH266364   6.042   2.554  13.537  0.0500 -0.2070  0.1982
14958TIP3    H166365   5.992   2.585  13.612 -1.0918  0.3381 -0.7452
14958TIP3    H266366   6.044   2.459  13.547  0.5850 -0.0813  1.3142
14959TIP3   OH266367   2.940   0.599  16.514 -0.0079 -0.2437 -0.1558
14959TIP3    H166368   3.005   0.560  16.573  0.4131 -0.2218 -0.5959
14959TIP3    H266369   2.856   0.571  16.549  0.2058  0.3700  0.8809
14960TIP3   OH266370   0.921   3.149   5.602 -0.3647  0.1714 -0.3191
14960TIP3    H166371   0.987   3.081   5.594 -0.4385  0.0757 -0.1097
14960TIP3    H266372   0.848   3.107   5.648 -0.1037  0.6112  0.5160
14961TIP3   OH266373   5.485   0.153   3.142 -0.1521  0.4368  0.0109
14961TIP3    H166374   5.514   0.150   3.051  0.6516  0.1086  0.2698
14961TIP3    H266375   5.390   0.144   3.138 -0.0938  0.1447 -0.7757
14962TIP3   OH266376   6.401   0.387   6.173 -0.7596 -0.0075  0.0150
14962TIP3    H166377   6.364   0.476   6.173 -1.3201 -0.2234 -1.2311
14962TIP3    H266378   6.357   0.343   6.101  1.6835 -0.4110 -1.3113
14963TIP3   OH266379   1.087   0.511   1.131 -0.1250  0.2743 -0.0324
14963TIP3    H166380   1.116   0.467   1.211 -0.3689  0.1673 -0.0018
14963TIP3    H266381   1.068   0.601   1.158 -1.1449 -0.0023  0.2460
14964TIP3   OH266382   4.437   3.119   2.814 -0.7880  0.0726 -0.1565
14964TIP3    H166383   4.408   3.209   2.804 -0.5096  0.4060  1.6493
14964TIP3    H266384   4.530   3.126   2.839 -0.5299 -0.7501 -0.8403
14965TIP3   OH266385   3.791   3.496   5.327 -0.1216 -0.0717  0.1912
14965TIP3    H166386   3.807   3.586   5.355  0.2084  0.2777 -1.0359
14965TIP3    H266387   3.696   3.486   5.331 -0.2085  0.5274 -0.2010
14966TIP3   OH266388   4.816   2.632   0.771  0.2050 -0.6171  0.0136
14966TIP3    H166389   4.723   2.612   0.761 -0.1015  0.8515 -0.2855
14966TIP3    H266390   4.853   2.619   0.683 -0.3523  1.7226 -0.6406
14967TIP3   OH266391   6.428   2.412   0.571 -0.4444  0.4297  0.4202
14967TIP3    H166392   6.381   2.332   0.547 -1.3088  1.1592 -0.4150
14967TIP3    H266393   6.442   2.405   0.665  0.4541 -1.1885  0.2073
14968TIP3   OH266394   4.579   6.812   4.082  0.1860  0.6656 -0.1417
14968TIP3    H166395   4.642   6.848   4.020  1.8296 -0.7811  0.6323
14968TIP3    H266396   4.523   6.756   4.029  1.9434 -1.0270 -0.2991
14969TIP3   OH266397   0.803   2.296  11.750 -0.0831  0.0177 -0.7145
14969TIP3    H166398   0.760   2.344  11.820  0.0256 -0.8531 -0.0405
14969TIP3    H266399   0.733   2.247  11.707  0.0714 -0.5900 -0.2784
14970TIP3   OH266400   5.869   1.401   5.174  0.9617  0.3365  0.0810
14970TIP3    H166401   5.866   1.403   5.269 -1.1376  0.2611  0.0562
14970TIP3    H266402   5.824   1.481   5.147  0.4050 -0.2772 -0.8487
14971TIP3   OH266403   3.297   2.974   3.108 -0.2803  0.3690 -0.2077
14971TIP3    H166404   3.346   3.055   3.091 -1.8275  0.9696 -2.1902
14971TIP3    H266405   3.206   2.998   3.093 -0.7205 -1.8880 -1.5472
14972TIP3   OH266406   5.436   6.473  15.198  0.2346 -0.1452 -0.2433
14972TIP3    H166407   5.465   6.535  15.131  0.4627 -0.8390 -0.7888
14972TIP3    H266408   5.500   6.484  15.269 -1.3959  2.4069  1.0049
14973TIP3   OH266409   2.576   3.497  16.743  0.3275  0.2054 -0.0620
14973TIP3    H166410   2.533   3.424  16.699  0.5612  0.1869 -0.2618
14973TIP3    H266411   2.669   3.487  16.722  0.4626  0.1015  0.5771
14974TIP3   OH266412   5.108   4.930   1.860 -0.0284 -0.0947 -0.2147
14974TIP3    H166413   5.036   4.909   1.800  0.4646 -0.2568 -0.7733
14974TIP3    H266414   5.144   5.012   1.827 -0.9499  0.8287  1.0192
14975TIP3   OH266415   0.985   1.307   4.498  0.2453  0.2515  0.3091
14975TIP3    H166416   0.977   1.357   4.579 -0.6183  1.4089 -0.4438
14975TIP3    H266417   0.913   1.339   4.443 -0.1642 -1.6442 -0.3257
14976TIP3   OH266418   6.058   1.551  11.175  0.1024  0.1586 -0.3312
14976TIP3    H166419   6.044   1.556  11.081  2.0354  0.5830 -0.6307
14976TIP3    H266420   6.105   1.631  11.197  1.3618 -0.8145  0.6688
14977TIP3   OH266421   4.232   1.317  11.425  0.2264 -0.5144 -0.1244
14977TIP3    H166422   4.141   1.334  11.402  0.1373 -0.4194  0.2834
14977TIP3    H266423   4.283   1.369  11.362 -0.0262  0.4724  0.4615
14978TIP3   OH266424   4.105   2.973   2.762 -0.1988 -0.3249 -0.0037
14978TIP3    H166425   4.073   2.892   2.802 -1.0594 -1.1766 -2.2069
14978TIP3    H266426   4.196   2.955   2.742  0.4141  0.3284  1.9801
14979TIP3   OH266427   4.513   4.195  14.008 -0.1338  0.1167 -0.4273
14979TIP3    H166428   4.518   4.160  13.919 -0.0761 -0.5332 -0.1693
14979TIP3    H266429   4.420   4.212  14.023  0.0831  2.8277 -1.6032
14980TIP3   OH266430   3.282   3.685   0.525  0.7353  0.2954  0.4072
14980TIP3    H166431   3.297   3.769   0.568  0.0525  0.0894  1.0483
14980TIP3    H266432   3.332   3.692   0.443  2.2576  0.5893  1.3287
14981TIP3   OH266433   5.182   3.919   1.804  0.1971  0.1842 -0.0202
14981TIP3    H166434   5.181   4.012   1.826  1.6584 -0.0367  1.1849
14981TIP3    H266435   5.275   3.895   1.808  0.0093 -0.9949 -1.8475
14982TIP3   OH266436   2.386   3.569  11.778 -0.5348  0.1395 -0.5899
14982TIP3    H166437   2.410   3.486  11.735 -2.1214  0.1333 -1.5420
14982TIP3    H266438   2.454   3.582  11.844  0.6959 -1.0587 -1.5539
14983TIP3   OH266439   6.415   1.888  13.643 -0.0854 -0.4269 -0.2806
14983TIP3    H166440   6.463   1.943  13.705  2.2571 -0.4083 -1.9995
14983TIP3    H266441   6.379   1.817  13.697 -0.0332  0.7792  1.4094
14984TIP3   OH266442   0.603   6.261  15.402  0.5607 -0.2445  0.1019
14984TIP3    H166443   0.626   6.169  15.417  0.1307 -0.6901 -1.6902
14984TIP3    H266444   0.620   6.274  15.308 -0.2516  1.2564  0.1402
14985TIP3   OH266445   6.040   4.211  13.482 -0.3165  0.0945  0.1189
14985TIP3    H166446   6.048   4.177  13.393 -1.4058  1.6934 -0.6172
14985TIP3    H266447   6.099   4.286  13.485  0.2115 -0.3363  0.9701
14986TIP3   OH266448   2.256   3.600  17.016  0.0713  0.3845 -0.0251
14986TIP3    H166449   2.206   3.593  16.934 -0.5834  0.5965  0.3507
14986TIP3    H266450   2.217   3.534  17.074  2.7224 -2.2487 -0.9460
14987TIP3   OH266451   2.777   5.619  14.728 -0.2009 -0.5627  0.2785
14987TIP3    H166452   2.719   5.575  14.667 -0.5110  1.7546 -1.2362
14987TIP3    H266453   2.724   5.633  14.806 -1.5451  0.9033 -0.8255
14988TIP3   OH266454   1.718   3.494  12.344  0.1036 -0.0415 -0.1998
14988TIP3    H166455   1.793   3.553  12.355  0.4239 -0.3328 -0.7785
14988TIP3    H266456   1.723   3.435  12.420  0.6625 -0.2712 -0.4087
14989TIP3   OH266457   6.461   3.015  15.293  0.0009 -0.0444 -0.6243
14989TIP3    H166458   6.390   3.071  15.324 -1.9381 -0.7562 -3.3808
14989TIP3    H266459   6.506   3.067  15.227 -0.5096 -0.9356 -1.7120
14990TIP3   OH266460   5.379   2.521   5.151 -0.3655  0.5780 -0.1568
14990TIP3    H166461   5.289   2.555   5.156 -0.2381  1.0103 -0.7336
14990TIP3    H266462   5.413   2.532   5.240  0.1018  3.1850 -0.5873
14991TIP3   OH266463   6.564   5.195   3.178 -0.2549  0.0638 -0.1704
14991TIP3    H166464   6.631   5.236   3.124  0.2287  0.4457  0.6908
14991TIP3    H266465   6.491   5.256   3.176 -0.2391  0.0763 -0.3899
14992TIP3   OH266466   6.678   6.348   2.103  0.0112  0.6145 -0.1233
14992TIP3    H166467   6.629   6.266   2.106  0.6327  0.2573  0.3723
14992TIP3    H266468   6.684   6.376   2.194  2.0554 -0.1421  0.0195
14993TIP3   OH266469   0.739   3.017  14.193  0.7934 -0.4258  0.0366
14993TIP3    H166470   0.748   3.007  14.099  0.9650  1.0580 -0.1296
14993TIP3    H266471   0.661   3.071  14.205  0.1731 -1.4492  0.8083
14994TIP3   OH266472   2.460   0.322   4.371  0.7480  0.5727 -0.2055
14994TIP3    H166473   2.440   0.341   4.463  0.6707 -1.0233  0.1367
14994TIP3    H266474   2.539   0.373   4.353  0.3946  1.4158  0.5370
14995TIP3   OH266475   6.398   3.684  11.988 -0.4485 -0.0883  0.2655
14995TIP3    H166476   6.451   3.679  11.908  0.4622 -0.5507  0.8702
14995TIP3    H266477   6.311   3.707  11.958 -0.3441 -1.1614 -0.9624
14996TIP3   OH266478   5.331   3.482  12.097 -0.5048  0.3410 -0.0118
14996TIP3    H166479   5.277   3.436  12.032 -1.7846  3.0577 -1.0454
14996TIP3    H266480   5.394   3.417  12.127 -0.3402 -1.2865 -3.4341
14997TIP3   OH266481   5.642   6.516  14.638 -0.4378  0.1082 -0.2858
14997TIP3    H166482   5.587   6.486  14.711  0.4825 -1.9571 -0.3668
14997TIP3    H266483   5.723   6.544  14.680 -1.4280  3.1049 -0.1722
14998TIP3   OH266484   1.086   0.136   4.679 -0.0754  0.0722  0.3269
14998TIP3    H166485   1.179   0.122   4.660  0.2069 -0.3099  1.8828
14998TIP3    H266486   1.042   0.115   4.597  0.9607 -2.9185  0.4116
14999TIP3   OH266487   1.689   5.473  15.227  0.6090 -0.1975  0.7351
14999TIP3    H166488   1.727   5.560  15.214  1.1717 -0.5207  0.1323
14999TIP3    H266489   1.739   5.435  15.299  0.8356 -0.2757  0.5408
15000TIP3   OH266490   0.668   3.733  15.859  0.0661  0.1876  0.0068
15000TIP3    H166491   0.590   3.752  15.911 -0.4779 -1.2342 -0.2445
15000TIP3    H266492   0.737   3.719  15.924  0.1244  1.3939  0.2311
15001TIP3   OH266493   5.207   2.823   6.081  0.1099  0.5072 -0.3339
15001TIP3    H166494   5.252   2.861   6.157 -1.1870  2.9570 -0.6799
15001TIP3    H266495   5.264   2.843   6.007  0.9828 -1.1738 -0.1635
15002TIP3   OH266496   6.711   0.324  14.826 -0.1414 -0.7921  0.1066
15002TIP3    H166497   6.790   0.369  14.797 -0.2559 -0.7455 -0.1371
15002TIP3    H266498   6.735   0.232  14.830  0.1455 -0.6954  0.7740
15003TIP3   OH266499   1.865   1.843   4.317  0.3807  0.5975  0.0646
15003TIP3    H166500   1.777   1.856   4.353  0.8321  0.6095  1.2288
15003TIP3    H266501   1.901   1.771   4.369  1.3891  1.2004  0.2290
15004TIP3   OH266502   5.313   3.441  17.101 -0.6118  0.0744 -0.4180
15004TIP3    H166503   5.391   3.489  17.072 -1.7840  1.5731 -1.2850
15004TIP3    H266504   5.343   3.385  17.172  0.9852  1.6637  0.2215
15005TIP3   OH266505   4.287   3.470  15.746  0.2432  0.1312  0.2930
15005TIP3    H166506   4.326   3.390  15.781 -0.7385 -0.5240 -0.0795
15005TIP3    H266507   4.287   3.457  15.651 -1.2221 -0.0695  0.2987
15006TIP3   OH266508   4.105   1.927  14.558  0.3529  0.1326  0.3573
15006TIP3    H166509   4.095   2.018  14.532  0.4748 -0.2898 -1.2977
15006TIP3    H266510   4.026   1.908  14.610  0.1937  1.0911  0.4748
15007TIP3   OH266511   2.699   1.056   3.492 -0.3609 -0.4750  0.3814
15007TIP3    H166512   2.784   1.061   3.536 -0.2382 -0.3464  0.1350
15007TIP3    H266513   2.691   0.965   3.464  0.5080 -0.1292 -1.1573
15008TIP3   OH266514   5.546   0.070  13.457 -0.2017  0.0567  0.0158
15008TIP3    H166515   5.473   0.017  13.423 -0.2576  0.0387  0.1638
15008TIP3    H266516   5.532   0.157  13.420 -0.8196  0.2939  0.7847
15009TIP3   OH266517   6.374   6.628   4.457  0.6326 -0.0216 -0.6381
15009TIP3    H166518   6.372   6.581   4.374 -0.4916  0.6178 -0.9957
15009TIP3    H266519   6.290   6.673   4.461  0.1532 -0.9843  1.4137
15010TIP3   OH266520   0.602   4.752   5.560 -0.7214 -0.3009  0.4642
15010TIP3    H166521   0.542   4.794   5.621 -2.0879 -1.2007 -0.2020
15010TIP3    H266522   0.624   4.669   5.600 -0.2194 -0.1422  0.5247
15011TIP3   OH266523   4.742   5.753   0.672  0.5010  0.4387 -0.0366
15011TIP3    H166524   4.805   5.783   0.738 -0.7506 -0.0356  1.4332
15011TIP3    H266525   4.760   5.660   0.663 -0.8029  0.0296  1.3573
15012TIP3   OH266526   3.795   0.488   0.511  0.1752  0.2035  0.1487
15012TIP3    H166527   3.710   0.446   0.524  1.2428 -1.6264  1.8620
15012TIP3    H266528   3.795   0.562   0.572 -0.9652  1.6016 -1.4591
15013TIP3   OH266529   2.208   0.650   1.017  0.2565  0.1400 -0.0476
15013TIP3    H166530   2.234   0.694   0.936  1.3407  1.3978  0.9267
15013TIP3    H266531   2.273   0.680   1.081  0.1096 -1.7305  1.0247
15014TIP3   OH266532   1.087   4.032  15.548 -0.4214 -0.4612  0.1117
15014TIP3    H166533   1.054   3.942  15.544  0.0544 -0.6119 -0.4892
15014TIP3    H266534   1.142   4.034  15.626  1.4055 -1.3381 -1.0727
15015TIP3   OH266535   5.419   1.036   2.096 -0.1819  0.1735 -0.1863
15015TIP3    H166536   5.450   1.046   2.006  1.0848 -0.1118  0.2113
15015TIP3    H266537   5.497   1.019   2.147 -1.1530 -3.0521  0.5012
15016TIP3   OH266538   1.259   0.697  11.778 -0.1700  0.4588  0.5797
15016TIP3    H166539   1.271   0.697  11.683 -1.1653  1.5565  0.4432
15016TIP3    H266540   1.324   0.634  11.810 -1.4057 -1.7674 -1.0076
15017TIP3   OH266541   2.551   6.729   5.772  0.0454 -0.2689 -1.0421
15017TIP3    H166542   2.531   6.744   5.865  0.6518 -0.7041 -0.8371
15017TIP3    H266543   2.466   6.711   5.733 -0.4156  1.3340 -0.8568
15018TIP3   OH266544   0.496   3.639  16.652 -0.7915  0.6637 -0.4747
15018TIP3    H166545   0.535   3.717  16.692 -1.9169  1.3984 -0.7336
15018TIP3    H266546   0.544   3.566  16.690 -0.9798  1.3880  1.2750
15019TIP3   OH266547   2.572   2.835  17.080  0.1405 -0.0984  0.1208
15019TIP3    H166548   2.604   2.778  17.150  1.1158  0.5224  0.1946
15019TIP3    H266549   2.477   2.824  17.083  0.2670 -1.2903  0.4912
15020TIP3   OH266550   0.409   5.312  13.468  0.2932  0.2256 -0.2635
15020TIP3    H166551   0.401   5.393  13.417 -0.3970  0.2403 -0.1347
15020TIP3    H266552   0.503   5.294  13.469  0.4232  0.8599 -0.5548
15021TIP3   OH266553   5.394   1.428   6.457 -0.0924  0.1189  0.1517
15021TIP3    H166554   5.479   1.384   6.461 -0.8739 -1.3824  1.4768
15021TIP3    H266555   5.400   1.498   6.521  0.8577  1.4756 -1.3380
15022TIP3   OH266556   2.585   2.304   4.255 -0.0921  0.1004 -0.1961
15022TIP3    H166557   2.587   2.397   4.277  0.0020 -0.1228  0.7905
15022TIP3    H266558   2.569   2.260   4.339  1.5729 -0.8643 -0.3321
15023TIP3   OH266559   3.242   2.526   3.353  1.0283  0.3763 -0.8382
15023TIP3    H166560   3.182   2.514   3.279 -0.5077 -1.0301  0.5526
15023TIP3    H266561   3.205   2.600   3.402  1.2795  0.4402 -0.7412
15024TIP3   OH266562   5.822   5.657   1.747 -0.0228 -1.1225  0.0646
15024TIP3    H166563   5.808   5.719   1.818 -0.2324 -1.4056  0.2741
15024TIP3    H266564   5.913   5.669   1.722 -0.9320  1.9572 -2.4424
15025TIP3   OH266565   1.206   0.760   3.119 -0.1218  0.3136  0.4569
15025TIP3    H166566   1.299   0.771   3.142  0.7154 -0.7523 -2.0078
15025TIP3    H266567   1.187   0.834   3.062  0.1545 -0.9810 -1.4199
15026TIP3   OH266568   4.690   2.616  12.114 -0.1384  0.2692 -0.0169
15026TIP3    H166569   4.687   2.521  12.103  1.2277  0.2244 -0.1261
15026TIP3    H266570   4.598   2.642  12.126 -0.3821 -1.3205  2.1762
15027TIP3   OH266571   3.324   4.581  14.346 -0.3212  0.2269 -0.1086
15027TIP3    H166572   3.392   4.577  14.413 -0.6947  1.2592  0.3489
15027TIP3    H266573   3.335   4.500  14.296 -0.9239 -1.2677  2.0557
15028TIP3   OH266574   5.759   1.106   2.989  0.3844 -0.6285 -0.5599
15028TIP3    H166575   5.753   1.168   3.061  0.3624 -1.2330 -0.0299
15028TIP3    H266576   5.805   1.030   3.025  0.2550 -0.9972 -1.1393
15029TIP3   OH266577   4.167   2.802  15.511 -0.0617 -0.3132  0.3508
15029TIP3    H166578   4.108   2.857  15.562  1.4389  0.6786  1.1129
15029TIP3    H266579   4.165   2.717  15.555 -1.7415 -0.6432 -0.3175
15030TIP3   OH266580   5.298   0.296   1.760  0.3871  0.5738  1.0592
15030TIP3    H166581   5.295   0.342   1.844  0.0960 -1.1041  2.0206
15030TIP3    H266582   5.332   0.209   1.782 -0.7838 -0.2977 -0.3713
15031TIP3   OH266583   1.897   3.147   4.894 -0.4208 -0.2921  0.0603
15031TIP3    H166584   1.856   3.061   4.889 -0.2325 -0.2955 -2.2803
15031TIP3    H266585   1.900   3.178   4.804  1.8982  1.0472  0.5214
15032TIP3   OH266586   2.873   1.777  16.392 -0.6351 -0.0482 -0.1153
15032TIP3    H166587   2.868   1.684  16.372 -0.3631  0.0119 -0.4764
15032TIP3    H266588   2.784   1.801  16.418 -0.1406 -1.0746  3.0602
15033TIP3   OH266589   2.090   6.288  15.293  0.5440 -0.3161 -0.1385
15033TIP3    H166590   2.017   6.274  15.353 -1.6075 -2.8028 -3.0024
15033TIP3    H266591   2.169   6.278  15.347 -1.2062 -0.6156  2.5224
15034TIP3   OH266592   5.667   6.606  13.867  0.8283 -0.4494  0.3304
15034TIP3    H166593   5.716   6.633  13.944 -1.6744 -1.2446  2.3625
15034TIP3    H266594   5.606   6.679  13.851  1.7490 -0.0054 -1.3551
15035TIP3   OH266595   2.274   5.705   5.409 -0.0375  0.1818  0.0270
15035TIP3    H166596   2.263   5.690   5.315  0.6693  0.1278 -0.0525
15035TIP3    H266597   2.200   5.660   5.449  0.9847 -1.9662 -0.3464
15036TIP3   OH266598   5.062   3.844  14.010 -0.7090  0.1870 -0.1788
15036TIP3    H166599   4.995   3.807  14.066 -0.6010  0.0963 -0.1084
15036TIP3    H266600   5.021   3.922  13.971 -0.6824  0.4286  0.2676
15037TIP3   OH266601   1.463   4.107   5.970  0.5371 -0.5966  0.0293
15037TIP3    H166602   1.383   4.092   6.021  1.1124 -0.1576  1.0967
15037TIP3    H266603   1.455   4.197   5.941  0.6406 -0.5524  0.1380
15038TIP3   OH266604   1.473   5.570   4.789  0.0394  0.4410  0.3083
15038TIP3    H166605   1.497   5.663   4.780 -0.7338  0.6409  0.2038
15038TIP3    H266606   1.546   5.531   4.837  0.2520  1.1603  0.5883
15039TIP3   OH266607   1.141   2.655  13.739 -0.3517  0.2418  0.4105
15039TIP3    H166608   1.232   2.626  13.741  0.2244  1.8505 -0.6513
15039TIP3    H266609   1.090   2.574  13.730  1.2138 -0.5266 -3.8158
15040TIP3   OH266610   1.395   0.461  15.632  0.0091  0.1818 -0.0376
15040TIP3    H166611   1.406   0.494  15.722 -1.6644  0.6965  0.0046
15040TIP3    H266612   1.476   0.486  15.588  0.7421  0.1779  1.2406
15041TIP3   OH266613   3.863   6.515   2.464 -0.4580 -0.4826 -0.1551
15041TIP3    H166614   3.803   6.550   2.529 -2.7244 -2.0797 -1.2614
15041TIP3    H266615   3.862   6.578   2.392  1.2215  0.7471  0.8429
15042TIP3   OH266616   0.679   6.731  15.150  0.1021 -0.7590  0.4345
15042TIP3    H166617   0.678   6.706  15.058 -0.2540 -2.6338  0.8881
15042TIP3    H266618   0.606   6.681  15.188 -0.2730  0.6014  1.5961
15043TIP3   OH266619   6.672   0.968   4.198  0.4479 -0.3199 -0.1641
15043TIP3    H166620   6.641   0.885   4.161 -0.1728  0.1190 -0.6604
15043TIP3    H266621   6.743   0.943   4.257 -1.7052 -1.5750  2.1524
15044TIP3   OH266622   3.165   5.667   0.827 -0.1226 -0.1122  0.0100
15044TIP3    H166623   3.204   5.678   0.740 -1.7875  0.5392 -0.7073
15044TIP3    H266624   3.189   5.578   0.852  1.0638 -0.0378 -0.7493
15045TIP3   OH266625   2.245   5.016   0.269  0.1549 -0.2701 -0.2326
15045TIP3    H166626   2.271   5.034   0.359 -1.1711  1.3661 -0.1289
15045TIP3    H266627   2.292   5.080   0.216 -1.7270  1.1963 -0.2670
15046TIP3   OH266628   0.871   1.904   1.646 -0.1537  0.1234 -0.0495
15046TIP3    H166629   0.882   1.860   1.731 -0.1236  1.9463  0.9297
15046TIP3    H266630   0.911   1.843   1.583 -1.9828 -2.2368  0.8963
15047TIP3   OH266631   2.160   1.378  16.392  0.1069  0.4184  0.6723
15047TIP3    H166632   2.177   1.430  16.471  0.1281  1.1321  0.2040
15047TIP3    H266633   2.247   1.357  16.359  0.1562  2.3407 -0.5897
15048TIP3   OH266634   2.991   1.267  15.897  0.8444  0.2348  0.4057
15048TIP3    H166635   3.034   1.336  15.847 -1.8521  2.3957  0.7976
15048TIP3    H266636   2.962   1.310  15.977  0.0329 -1.6602  1.2026
15049TIP3   OH266637   0.788   6.772  11.446 -0.1460  0.0498 -0.0013
15049TIP3    H166638   0.832   6.789  11.529 -1.4892  2.0076  0.3837
15049TIP3    H266639   0.833   6.830  11.383  1.4870 -2.0903 -0.9393
15050TIP3   OH266640   2.316   5.423  17.104  0.2048  0.0682 -0.2431
15050TIP3    H166641   2.232   5.467  17.103 -0.3246 -0.9219 -0.4541
15050TIP3    H266642   2.354   5.439  17.018 -1.3354 -2.3809 -1.4620
15051TIP3   OH266643   1.844   1.350   3.366  0.0087  1.3212 -0.2931
15051TIP3    H166644   1.766   1.403   3.354 -0.5567  0.1518 -2.0734
15051TIP3    H266645   1.897   1.366   3.289  0.0871 -0.2242 -0.6056
15052TIP3   OH266646   3.780   5.760   2.018 -0.2735  0.4950 -0.0865
15052TIP3    H166647   3.697   5.792   1.983  0.1979  2.6637  0.6244
15052TIP3    H266648   3.756   5.715   2.099 -1.2528 -3.6571 -2.4268
15053TIP3   OH266649   0.211   5.487  11.482 -0.4776  0.5179  0.4628
15053TIP3    H166650   0.219   5.558  11.419 -2.9831  0.9615  0.5397
15053TIP3    H266651   0.133   5.439  11.455  0.4287 -1.4576  1.1716
15054TIP3   OH266652   1.227   6.601   3.279 -0.5425 -0.3838 -0.0823
15054TIP3    H166653   1.313   6.617   3.240 -0.3051 -2.0549 -0.3241
15054TIP3    H266654   1.240   6.616   3.373 -0.1342 -0.0968 -0.1810
15055TIP3   OH266655   2.786   2.354   3.528 -0.3980 -0.0349  0.2199
15055TIP3    H166656   2.866   2.314   3.493  0.5606  1.3384  0.7514
15055TIP3    H266657   2.776   2.315   3.615  0.5499  0.8691  0.7503
15056TIP3   OH266658   1.351   4.714   1.107 -0.0515 -0.4892 -0.5879
15056TIP3    H166659   1.321   4.623   1.098 -0.9763 -0.0502 -2.6768
15056TIP3    H266660   1.382   4.737   1.019  0.5680  1.0874  0.0134
15057TIP3   OH266661   6.577   6.178   3.846  0.0461  1.0203 -0.0943
15057TIP3    H166662   6.501   6.182   3.904  0.4567  0.9529  0.4508
15057TIP3    H266663   6.579   6.264   3.805  0.9297  1.7955  1.5056
15058TIP3   OH266664   1.027   4.523   3.188  0.8309 -0.3677  0.0712
15058TIP3    H166665   0.951   4.507   3.243  0.6604 -1.4504 -0.4374
15058TIP3    H266666   1.019   4.614   3.160 -1.7957 -1.1924 -2.2190
15059TIP3   OH266667   1.416   3.619   0.014 -0.0567 -0.2211 -0.5454
15059TIP3    H166668   1.492   3.566   0.037 -1.0897 -1.0948  1.0782
15059TIP3    H266669   1.440   3.708   0.040  0.2378 -0.5774  0.4793
15060TIP3   OH266670   4.994   0.128  12.762  0.1074  0.1339  0.1938
15060TIP3    H166671   4.966   0.218  12.780  0.2864 -0.2682  3.0269
15060TIP3    H266672   4.923   0.091  12.709 -0.4654  1.6282 -0.1404
15061TIP3   OH266673   2.489   1.137  11.423 -0.5472  0.3064  0.2253
15061TIP3    H166674   2.431   1.195  11.472 -0.5242 -1.3759  2.4360
15061TIP3    H266675   2.531   1.083  11.491  0.3563 -1.4276 -1.6058
15062TIP3   OH266676   6.232   6.737   2.448 -0.4930  0.2407  0.1883
15062TIP3    H166677   6.175   6.670   2.486 -0.3735 -0.5305 -0.9361
15062TIP3    H266678   6.177   6.815   2.442 -0.2894  0.6184  2.5977
15063TIP3   OH266679   1.469   1.021  14.422 -0.2822 -0.4680  0.0565
15063TIP3    H166680   1.481   0.967  14.344  0.6992 -0.4138  0.1488
15063TIP3    H266681   1.434   1.104  14.389  0.5151 -0.2979 -0.3842
15064TIP3   OH266682   5.223   4.289   5.933  0.1213 -0.1821  0.3034
15064TIP3    H166683   5.259   4.319   6.016 -1.6621 -0.7670  1.3413
15064TIP3    H266684   5.162   4.358   5.907 -1.4239 -1.2406  0.9596
15065TIP3   OH266685   4.546   1.041   0.216 -0.2385 -0.3678  0.1112
15065TIP3    H166686   4.521   1.049   0.308 -1.7523 -1.0599 -0.1974
15065TIP3    H266687   4.480   1.093   0.169 -0.2915 -1.1170 -0.6674
15066TIP3   OH266688   4.264   2.042  12.076 -0.7078 -0.1910 -0.0736
15066TIP3    H166689   4.309   2.127  12.073  0.3615 -0.7698 -1.5604
15066TIP3    H266690   4.199   2.047  12.006 -1.4172 -0.1980  0.5763
15067TIP3   OH266691   1.515   1.477   2.714  0.0338  0.0670 -0.4493
15067TIP3    H166692   1.466   1.444   2.639 -1.2727 -0.1794  0.4948
15067TIP3    H266693   1.517   1.405   2.776 -0.3452  0.8018  0.4398
15068TIP3   OH266694   4.042   4.575   2.849 -1.0134 -0.3514  0.6108
15068TIP3    H166695   3.991   4.499   2.877 -0.0134 -1.1452  0.3103
15068TIP3    H266696   3.988   4.615   2.780  0.0904 -3.0294 -2.0696
15069TIP3   OH266697   0.533   2.208  10.469 -0.1504 -0.4305  0.3351
15069TIP3    H166698   0.582   2.215  10.386 -0.7065 -1.7367 -0.1214
15069TIP3    H266699   0.497   2.296  10.482  1.4904  0.3123  0.1787
15070TIP3   OH266700   1.239   2.708  14.486 -0.4487  0.6549  0.0113
15070TIP3    H166701   1.304   2.640  14.466 -2.0503 -0.9133 -0.1117
15070TIP3    H266702   1.265   2.783  14.431  0.8996 -0.1381 -0.4688
15071TIP3   OH266703   1.544   2.342   0.107 -0.0982 -0.1386  0.2650
15071TIP3    H166704   1.507   2.410   0.164 -0.2634 -0.0452  0.0503
15071TIP3    H266705   1.593   2.391   0.041 -1.1571 -0.1463 -0.5714
15072TIP3   OH266706   1.419   1.792   5.916 -0.4984 -0.3665 -0.5585
15072TIP3    H166707   1.459   1.873   5.947  0.8692 -0.7086 -1.3026
15072TIP3    H266708   1.352   1.820   5.854  0.7834  0.2367 -1.7548
15073TIP3   OH266709   6.812   6.429   4.670 -0.1306 -0.9022 -0.6901
15073TIP3    H166710   6.870   6.488   4.716 -0.5760 -0.6182 -0.4820
15073TIP3    H266711   6.868   6.383   4.608 -0.0137  0.8990 -2.0199
15074TIP3   OH266712   2.182   3.683   4.971 -0.2751 -0.4224  0.2171
15074TIP3    H166713   2.133   3.614   4.927 -0.2092  0.8339 -2.0079
15074TIP3    H266714   2.126   3.760   4.964  1.1071  0.5566 -0.5354
15075TIP3   OH266715   6.365   4.866   4.525 -0.2652 -0.2573  0.1406
15075TIP3    H166716   6.366   4.776   4.493  0.2974  0.0471 -0.7472
15075TIP3    H266717   6.390   4.859   4.618  0.3342 -0.9712 -0.0637
15076TIP3   OH266718   1.986   2.279   5.411 -0.8106 -0.6237  0.1106
15076TIP3    H166719   1.932   2.223   5.467 -0.1317 -0.9271  0.4619
15076TIP3    H266720   2.009   2.354   5.466  0.6871 -1.3975  0.5848
15077TIP3   OH266721   1.587   5.063  15.223  0.5367  0.2676  0.3306
15077TIP3    H166722   1.649   5.019  15.281  0.6301  1.2582  1.0127
15077TIP3    H266723   1.558   4.995  15.163  2.5145 -0.1475 -0.2234
15078TIP3   OH266724   6.076   3.554   1.328 -0.3849  0.2390 -0.0319
15078TIP3    H166725   5.998   3.606   1.311 -0.2578 -0.0469 -1.6621
15078TIP3    H266726   6.138   3.580   1.260  1.0786  0.6760  1.4074
15079TIP3   OH266727   0.381   0.798  12.449 -0.5012 -0.2346  0.3068
15079TIP3    H166728   0.439   0.863  12.408 -1.2250  0.0172 -0.3274
15079TIP3    H266729   0.303   0.797  12.394 -1.2826 -0.2755  1.3898
15080TIP3   OH266730   3.903   6.043  16.190  0.2356  0.1341 -0.6365
15080TIP3    H166731   3.937   6.133  16.180 -0.3346  0.4094 -0.1174
15080TIP3    H266732   3.813   6.054  16.219 -0.5384 -0.5814 -2.5737
15081TIP3   OH266733   2.145   1.311  12.117 -0.9064  0.2174  0.0055
15081TIP3    H166734   2.130   1.222  12.085 -1.2956 -0.1501  1.1895
15081TIP3    H266735   2.097   1.316  12.199  1.5910  0.4966  1.5584
15082TIP3   OH266736   5.952   0.848   0.532  1.7574 -0.3321 -0.1675
15082TIP3    H166737   6.039   0.887   0.544  2.0064 -1.5976  2.9039
15082TIP3    H266738   5.937   0.796   0.610 -1.6107 -0.5696 -0.7936
15083TIP3   OH266739   4.608   0.984  13.059 -0.0368 -0.4100  0.1832
15083TIP3    H166740   4.590   0.962  13.151 -0.5970  0.3968  0.2773
15083TIP3    H266741   4.703   0.996  13.056  0.5787 -4.1305 -0.1837
15084TIP3   OH266742   4.251   0.779   5.087  0.2886 -0.4720  0.4911
15084TIP3    H166743   4.222   0.734   5.008 -0.9871  0.2714  0.5110
15084TIP3    H266744   4.223   0.870   5.075  1.3708 -0.0248  1.1691
15085TIP3   OH266745   1.205   0.729   2.416 -0.8098  0.0420  0.5369
15085TIP3    H166746   1.195   0.641   2.450 -0.3152 -0.4056 -0.4467
15085TIP3    H266747   1.299   0.739   2.402 -1.0861 -0.3812 -2.1346
15086TIP3   OH266748   3.381   6.449   1.126  0.1496 -0.3244  1.0445
15086TIP3    H166749   3.468   6.459   1.087  0.2473  1.0492  1.5703
15086TIP3    H266750   3.362   6.355   1.118  0.3767 -0.2173 -1.8020
15087TIP3   OH266751   3.252   5.400   1.623 -0.5439  0.2641  0.0038
15087TIP3    H166752   3.191   5.404   1.697 -0.8605  1.8658 -0.2873
15087TIP3    H266753   3.233   5.480   1.572  2.1322  1.1274  0.1776
15088TIP3   OH266754   0.137   1.255  11.746 -0.3205  0.4372 -0.2117
15088TIP3    H166755   0.065   1.226  11.689 -0.3975 -0.1151  0.1623
15088TIP3    H266756   0.113   1.222  11.833 -0.3417  1.5005  0.2062
15089TIP3   OH266757   6.635   3.073   4.121  0.2641  0.0952  0.0779
15089TIP3    H166758   6.701   3.019   4.077 -0.7253 -0.4492 -0.7938
15089TIP3    H266759   6.551   3.038   4.090 -0.4481  0.4733  1.5076
15090TIP3   OH266760   2.423   0.195  12.103 -0.0068  0.0071  0.5012
15090TIP3    H166761   2.427   0.290  12.093  1.8094 -0.1656 -0.9826
15090TIP3    H266762   2.352   0.180  12.166 -0.6600  2.2993  0.3960
15091TIP3   OH266763   5.444   2.389  12.261 -0.6097  0.4319  0.5130
15091TIP3    H166764   5.526   2.428  12.232 -1.8271  1.8640 -1.2114
15091TIP3    H266765   5.416   2.444  12.334 -0.1456  0.0494  0.9862
15092TIP3   OH266766   2.848   6.610  14.262 -0.4608 -0.1661  0.2398
15092TIP3    H166767   2.830   6.579  14.173 -2.1053 -1.0036  0.8165
15092TIP3    H266768   2.943   6.604  14.270 -0.4849 -3.3270 -0.3700
15093TIP3   OH266769   4.664   6.298  12.117 -0.3513  0.1452  0.3322
15093TIP3    H166770   4.626   6.217  12.083 -1.2878  0.2923  0.9902
15093TIP3    H266771   4.735   6.269  12.174 -0.3275 -0.1890  0.1324
15094TIP3   OH266772   6.241   0.199   2.858  0.2931  0.2135 -0.8452
15094TIP3    H166773   6.239   0.234   2.769 -1.7431 -0.9862 -1.3259
15094TIP3    H266774   6.149   0.187   2.882  0.8240 -0.8059  0.8911
15095TIP3   OH266775   2.177   0.440  14.996 -0.3473  0.1947  0.3607
15095TIP3    H166776   2.240   0.368  15.006  0.0433  0.4654 -0.1161
15095TIP3    H266777   2.144   0.455  15.084  0.3958  0.1725  0.6439
15096TIP3   OH266778   5.801   2.645  16.221  0.0469 -0.3357 -0.6454
15096TIP3    H166779   5.782   2.595  16.141  0.7244 -1.1882 -0.2829
15096TIP3    H266780   5.788   2.582  16.292  0.9196 -0.0017 -0.1852
15097TIP3   OH266781   2.929   3.460   3.910  0.8971  0.2438 -0.0136
15097TIP3    H166782   2.981   3.471   3.990  0.4088  1.4555  0.1593
15097TIP3    H266783   2.840   3.484   3.936  0.4722 -0.6052 -0.6149
15098TIP3   OH266784   5.316   4.194  16.329  0.8093 -0.2112  0.5745
15098TIP3    H166785   5.298   4.241  16.410  1.2199 -2.8436  2.3320
15098TIP3    H266786   5.409   4.172  16.334  1.5263  1.7974 -1.9552
15099TIP3   OH266787   3.353   6.153   1.123 -0.1627  0.3874  0.3376
15099TIP3    H166788   3.325   6.072   1.080 -2.0537  0.7589  0.7988
15099TIP3    H266789   3.339   6.137   1.217 -0.2514  1.1392  0.4604
15100TIP3   OH266790   1.437   1.827  15.235  0.0146 -0.1647 -0.4148
15100TIP3    H166791   1.490   1.841  15.313  0.5621 -0.9285 -0.6372
15100TIP3    H266792   1.485   1.762  15.184 -0.3673  0.2678 -1.3606
15101TIP3   OH266793   4.539   6.061   3.923  0.1973  0.3832 -0.2482
15101TIP3    H166794   4.591   6.040   3.846  0.7410 -0.4691  0.3330
15101TIP3    H266795   4.566   5.997   3.989 -1.1802  0.2770  0.2519
15102TIP3   OH266796   6.436   1.720  15.402  0.1255  0.0679  0.1343
15102TIP3    H166797   6.530   1.720  15.421 -0.1959 -2.5741  2.3275
15102TIP3    H266798   6.395   1.742  15.486 -1.2138 -1.1613 -0.1666
15103TIP3   OH266799   0.463   4.021  13.109 -0.5862  0.1148  0.3073
15103TIP3    H166800   0.540   4.073  13.130 -1.9424  1.5611  2.0741
15103TIP3    H266801   0.466   3.948  13.172 -0.8064  0.3318  0.5699
15104TIP3   OH266802   5.085   0.069   3.649  0.7650  0.2074  0.1016
15104TIP3    H166803   5.134   0.094   3.571 -0.7907  0.7434 -0.7307
15104TIP3    H266804   5.136   0.106   3.722  1.2409  1.3198 -0.7723
15105TIP3   OH266805   4.187   1.345  11.865 -0.0554  0.6680  0.6017
15105TIP3    H166806   4.205   1.344  11.959  0.0404  0.1302  0.5795
15105TIP3    H266807   4.116   1.409  11.855 -2.6615 -1.8567  1.5388
15106TIP3   OH266808   0.752   5.722   1.081  0.3871  0.2238 -0.1726
15106TIP3    H166809   0.838   5.704   1.043  0.6281  0.7398  0.1245
15106TIP3    H266810   0.770   5.779   1.155 -0.1966  0.1714  0.0114
15107TIP3   OH266811   1.993   2.322  12.971 -0.0268  0.8439  0.1462
15107TIP3    H166812   1.916   2.351  12.922  0.3228  0.2480 -0.7912
15107TIP3    H266813   1.969   2.235  13.004  0.6764  0.1076 -1.2182
15108TIP3   OH266814   5.227   5.915  13.133 -0.3074 -0.4085  0.2606
15108TIP3    H166815   5.177   5.950  13.058 -0.3262  1.5015  1.0868
15108TIP3    H266816   5.182   5.834  13.156 -2.6336  0.8350  0.4761
15109TIP3   OH266817   1.986   1.061  13.684 -0.1559  0.1416  0.6955
15109TIP3    H166818   1.932   1.026  13.613  1.1051 -1.6155  0.5307
15109TIP3    H266819   1.972   1.000  13.756  0.5055  0.4868  1.1227
15110TIP3   OH266820   4.353   5.351   5.569  0.2067  0.1462  0.6693
15110TIP3    H166821   4.325   5.440   5.588 -0.3562 -0.1557  1.2898
15110TIP3    H266822   4.374   5.351   5.475  0.3867  0.9673  0.7046
15111TIP3   OH266823   1.587   5.867   4.808  0.8726  0.2498 -0.0801
15111TIP3    H166824   1.578   5.902   4.719  2.9061 -0.1636 -0.5091
15111TIP3    H266825   1.497   5.860   4.840  0.2015  3.2151 -0.9747
15112TIP3   OH266826   3.717   2.066  16.991 -0.3247 -0.5682  0.5250
15112TIP3    H166827   3.673   2.019  17.061 -2.4214  1.8182  0.9652
15112TIP3    H266828   3.668   2.148  16.982  3.1215  1.6914 -0.0037
15113TIP3   OH266829   5.241   2.065   5.592  0.5985  0.2651 -0.4482
15113TIP3    H166830   5.213   2.136   5.535 -1.8759 -1.0009 -0.9636
15113TIP3    H266831   5.214   2.092   5.680 -1.1956 -0.3278 -0.7601
15114TIP3   OH266832   1.894   0.069  16.810  0.2263  0.1140 -0.1123
15114TIP3    H166833   1.879   0.163  16.794 -0.3333  0.0186 -0.1665
15114TIP3    H266834   1.817   0.040  16.858  0.0153 -0.4927 -0.7900
15115TIP3   OH266835   1.082   4.850  14.262  0.0288 -0.1034 -0.1589
15115TIP3    H166836   1.118   4.789  14.327 -0.8060 -0.0189  0.4038
15115TIP3    H266837   1.031   4.795  14.203 -1.2559  0.1108  0.7265
15116TIP3   OH266838   1.777   1.501   6.656  0.3584  0.2755 -0.2654
15116TIP3    H166839   1.768   1.408   6.678 -0.4176  0.4573  0.2381
15116TIP3    H266840   1.851   1.531   6.709  1.0373 -0.1995 -0.9283
15117TIP3   OH266841   4.073   5.082   3.611 -0.6677  0.0529 -0.7547
15117TIP3    H166842   3.984   5.078   3.643 -0.4278 -0.1320 -0.0993
15117TIP3    H266843   4.071   5.035   3.527 -0.6368 -2.4729  0.5563
15118TIP3   OH266844   5.141   4.780   1.236  0.8483 -0.0630 -0.0799
15118TIP3    H166845   5.183   4.705   1.277  0.6158 -0.8797 -1.2829
15118TIP3    H266846   5.075   4.808   1.298 -0.2574 -1.9553 -0.3350
15119TIP3   OH266847   5.274   1.501   0.560  0.3410 -0.0363  0.3374
15119TIP3    H166848   5.343   1.479   0.623 -0.5517 -0.3180  1.2341
15119TIP3    H266849   5.291   1.445   0.485  0.6063 -0.7030  0.8877
15120TIP3   OH266850   2.310   0.189   4.160  0.2692  0.3677  0.8491
15120TIP3    H166851   2.220   0.222   4.152  0.2286  0.3519  1.1923
15120TIP3    H266852   2.350   0.246   4.226  0.4593  0.2660  0.8209
15121TIP3   OH266853   0.893   0.851  12.976 -0.0621  0.7755 -0.4570
15121TIP3    H166854   0.864   0.867  13.066  1.1891 -1.8464  0.5032
15121TIP3    H266855   0.867   0.761  12.958  1.0803  0.7440 -2.1778
15122TIP3   OH266856   0.796   5.641   3.136 -0.2157  0.0205 -0.0342
15122TIP3    H166857   0.738   5.718   3.138  0.6713  0.7077 -0.3266
15122TIP3    H266858   0.837   5.640   3.222 -0.1875 -0.0923 -0.0494
15123TIP3   OH266859   0.549   4.109   0.508  0.0756  0.0954  0.4291
15123TIP3    H166860   0.512   4.075   0.589 -0.1318  1.9336  1.1655
15123TIP3    H266861   0.588   4.193   0.533  0.9250  0.2286 -1.1806
15124TIP3   OH266862   6.081   0.346   3.428  0.5911  0.1562  0.6902
15124TIP3    H166863   6.105   0.334   3.520  0.4519 -0.0618  0.6970
15124TIP3    H266864   6.087   0.259   3.389 -2.4151 -0.4070  1.2190
15125TIP3   OH266865   3.511   5.128   2.870 -0.1329  0.4127  0.3133
15125TIP3    H166866   3.445   5.173   2.818 -0.4996 -0.5315 -0.0556
15125TIP3    H266867   3.461   5.073   2.931  0.3068  0.2543  0.5395
15126TIP3   OH266868   5.078   3.004   5.685  0.5387 -0.3631  0.0731
15126TIP3    H166869   5.027   3.035   5.611 -0.1485  0.8214  1.0057
15126TIP3    H266870   5.015   2.956   5.739  0.9414 -0.8820  0.0914
15127TIP3   OH266871   0.614   5.077  12.702  0.7864  0.1036 -0.5421
15127TIP3    H166872   0.570   5.091  12.619  0.1897 -0.0789 -0.2582
15127TIP3    H266873   0.677   5.149  12.708 -0.4666  1.2166 -0.2764
15128TIP3   OH266874   2.060   0.434   1.448 -0.2630  0.1832 -0.3809
15128TIP3    H166875   2.150   0.465   1.452 -1.0751  2.6250  0.5786
15128TIP3    H266876   2.066   0.346   1.409  2.4591  0.4151 -0.6215
15129TIP3   OH266877   5.327   3.815   2.372 -0.5417 -0.7257  0.1016
15129TIP3    H166878   5.297   3.859   2.293  0.5087  0.7054  0.4470
15129TIP3    H266879   5.298   3.724   2.362 -0.3393 -0.6212 -1.9748
15130TIP3   OH266880   5.116   6.704  13.087  0.1042 -0.9136  0.4160
15130TIP3    H166881   5.175   6.746  13.026 -1.1223 -1.2350 -1.0661
15130TIP3    H266882   5.094   6.620  13.046 -1.3448 -0.8162  0.9185
15131TIP3   OH266883   5.218   5.854  14.777 -0.5937 -0.4390  0.1282
15131TIP3    H166884   5.184   5.828  14.863 -0.9485 -1.2434 -0.2363
15131TIP3    H266885   5.229   5.771  14.730 -0.0534 -0.0327 -0.4731
15132TIP3   OH266886   5.446   5.388   5.397 -0.8182 -0.0524 -0.3600
15132TIP3    H166887   5.373   5.380   5.335 -0.8811 -1.2063 -0.1642
15132TIP3    H266888   5.450   5.302   5.440  0.4363  0.1131 -0.1152
15133TIP3   OH266889   1.206   4.858   0.556  0.0826 -0.0441 -0.7060
15133TIP3    H166890   1.157   4.830   0.633 -0.1461 -0.0798 -0.8649
15133TIP3    H266891   1.183   4.795   0.489 -0.1666  0.3209 -0.9683
15134TIP3   OH266892   6.361   5.653  11.347  0.4769  0.7188 -0.3585
15134TIP3    H166893   6.379   5.696  11.264  1.0922 -0.6651 -0.9695
15134TIP3    H266894   6.431   5.682  11.405 -0.2534  2.1157 -0.1173
15135TIP3   OH266895   2.424   4.670   2.624  0.5523  0.4516  0.5565
15135TIP3    H166896   2.439   4.731   2.696 -1.2925  0.8429  0.6654
15135TIP3    H266897   2.339   4.697   2.588 -0.0107 -1.6495  0.1987
15136TIP3   OH266898   5.385   2.093   6.138  0.3293 -0.2784 -0.4915
15136TIP3    H166899   5.309   2.048   6.102 -1.4039  3.1510 -1.5318
15136TIP3    H266900   5.354   2.182   6.157  3.7254  0.8611  0.4362
15137TIP3   OH266901   4.190   4.285  13.417 -0.1764  0.7115 -0.4977
15137TIP3    H166902   4.112   4.317  13.373  0.5848  1.7227 -1.1513
15137TIP3    H266903   4.246   4.253  13.347 -0.8484 -2.0897  0.1007
15138TIP3   OH266904   2.528   2.305   3.738 -0.1162 -0.0174  0.3291
15138TIP3    H166905   2.545   2.211   3.744 -1.4978 -0.4540 -1.6409
15138TIP3    H266906   2.560   2.340   3.821  1.3013 -2.0691  0.7353
15139TIP3   OH266907   5.111   5.350   3.794 -0.1696  0.0977 -0.3864
15139TIP3    H166908   5.127   5.383   3.883 -0.8220 -0.7313  0.0573
15139TIP3    H266909   5.166   5.404   3.738  0.9325  0.0427  0.6153
15140TIP3   OH266910   6.224   4.797  14.189 -0.1279 -0.0952 -0.3233
15140TIP3    H166911   6.180   4.715  14.164 -0.7005  0.2969 -0.6257
15140TIP3    H266912   6.260   4.779  14.276 -1.1202 -0.3475  0.0511
15141TIP3   OH266913   6.194   3.425   1.558 -0.1921  0.1386  0.3165
15141TIP3    H166914   6.233   3.491   1.616 -0.6544  0.1300  0.6389
15141TIP3    H266915   6.150   3.476   1.490 -2.2535  0.2462  1.6447
15142TIP3   OH266916   6.240   2.917   6.627  0.2621  0.2693 -0.2555
15142TIP3    H166917   6.293   2.849   6.669 -1.3593 -0.1946  1.1252
15142TIP3    H266918   6.154   2.910   6.669 -0.1935  2.6026 -0.6742
15143TIP3   OH266919   3.050   4.486  16.498 -0.1868 -0.3170  0.0729
15143TIP3    H166920   3.040   4.444  16.413  0.6017  0.8383 -0.6110
15143TIP3    H266921   2.982   4.446  16.553 -0.8812 -0.8778 -1.1652
15144TIP3   OH266922   5.217   2.149  11.283  0.0411  0.1167  0.0594
15144TIP3    H166923   5.291   2.153  11.344  1.3017 -0.1912 -1.3853
15144TIP3    H266924   5.257   2.127  11.199 -1.8733 -1.4647 -0.5009
15145TIP3   OH266925   2.318   5.989  14.462  0.2076  0.3951  0.0648
15145TIP3    H166926   2.263   5.991  14.384 -0.9076 -0.9281  0.7594
15145TIP3    H266927   2.256   5.999  14.535  0.9322 -0.5613  0.8432
15146TIP3   OH266928   6.277   4.669  11.565  0.3696 -0.1753  0.0393
15146TIP3    H166929   6.309   4.686  11.654  0.3435 -1.6770  0.3761
15146TIP3    H266930   6.247   4.578  11.568 -1.6162  0.4063 -0.9590
15147TIP3   OH266931   2.346   5.345  15.281  0.6110 -0.2911 -0.0335
15147TIP3    H166932   2.280   5.359  15.350  0.8065 -1.1625  0.3340
15147TIP3    H266933   2.430   5.363  15.324  0.7515 -1.0762  0.0337
15148TIP3   OH266934   1.542   1.294  13.086  0.2198  1.0677 -0.2185
15148TIP3    H166935   1.541   1.389  13.101 -0.7716  0.7430  2.3974
15148TIP3    H266936   1.550   1.256  13.174 -1.0776 -1.2821 -1.0250
15149TIP3   OH266937   1.599   1.421  16.135 -0.1113 -0.1786 -0.6693
15149TIP3    H166938   1.641   1.385  16.214  0.3752 -0.2163 -0.9407
15149TIP3    H266939   1.548   1.349  16.100 -1.0767  0.0978  0.1156
15150TIP3   OH266940   2.169   2.087  14.910 -0.3063 -0.2289  0.4459
15150TIP3    H166941   2.236   2.110  14.974  0.2633 -2.0846  0.5839
15150TIP3    H266942   2.188   2.142  14.834 -1.6987  2.8898  2.1651
15151TIP3   OH266943   2.597   0.824  15.134  0.4366 -0.1966  0.0576
15151TIP3    H166944   2.676   0.826  15.081  1.8107  2.2016  1.9705
15151TIP3    H266945   2.628   0.810  15.223 -1.4687 -0.8857  0.6725
15152TIP3   OH266946   4.674   2.146  13.270  0.0735  0.3177 -0.6866
15152TIP3    H166947   4.651   2.236  13.250 -0.9400  0.0715 -0.7274
15152TIP3    H266948   4.742   2.152  13.337 -0.0014  1.1058 -0.6754
15153TIP3   OH266949   2.358   6.752  15.595 -0.1372  0.6762 -0.0589
15153TIP3    H166950   2.291   6.705  15.645 -1.1295  1.0162 -1.0357
15153TIP3    H266951   2.308   6.805  15.532  1.0739  0.3839 -1.2945
15154TIP3   OH266952   3.690   4.520  13.994  0.1038 -0.4713  0.0093
15154TIP3    H166953   3.698   4.428  14.017  0.4012 -0.0141  1.9062
15154TIP3    H266954   3.779   4.555  14.001 -0.2645  0.3113  1.0850
15155TIP3   OH266955   5.642   3.867   4.817 -0.1762  0.5289 -0.4156
15155TIP3    H166956   5.656   3.802   4.887 -1.5441 -1.9969 -2.3433
15155TIP3    H266957   5.580   3.929   4.854 -2.2039 -1.7023  0.1464
15156TIP3   OH266958   6.099   0.073   4.975  0.9246  0.3097  0.0642
15156TIP3    H166959   6.006   0.056   4.960  0.5079  0.1506  2.4123
15156TIP3    H266960   6.103   0.161   5.012  1.5816 -0.0351  0.8660
15157TIP3   OH266961   6.724   0.913   2.959 -0.6617  0.2545  0.0682
15157TIP3    H166962   6.723   0.923   2.863 -0.3814  3.4475  0.3087
15157TIP3    H266963   6.634   0.888   2.981 -0.2136 -2.9228 -1.1059
15158TIP3   OH266964   1.206   1.393   3.630 -0.3866 -0.3430  0.4167
15158TIP3    H166965   1.247   1.461   3.684  0.3156 -0.0428 -0.4659
15158TIP3    H266966   1.270   1.321   3.631  0.9009  0.6560 -2.1125
15159TIP3   OH266967   2.018   6.600   0.605 -0.1643 -0.4083  0.1199
15159TIP3    H166968   2.085   6.532   0.605 -1.0440 -1.4219 -2.8864
15159TIP3    H266969   1.946   6.564   0.656 -0.3272 -1.4530 -0.8177
15160TIP3   OH266970   0.240   0.136   3.230 -0.1553  0.0123  0.0733
15160TIP3    H166971   0.328   0.174   3.221  0.3610 -0.8464  1.2230
15160TIP3    H266972   0.182   0.199   3.187  0.9986  0.6805 -0.5556
15161TIP3   OH266973   0.810   3.733  15.297  0.1030 -0.4003  0.0094
15161TIP3    H166974   0.819   3.761  15.388  2.6430 -2.1440  0.3919
15161TIP3    H266975   0.721   3.758  15.274  0.1418  2.2550  2.1745
15162TIP3   OH266976   2.975   6.660  12.594 -0.0060  0.0117  0.0494
15162TIP3    H166977   2.883   6.634  12.600  0.4151 -1.2941  2.1198
15162TIP3    H266978   2.987   6.721  12.668  0.7767  0.2388 -0.2583
15163TIP3   OH266979   3.736   2.234  15.491 -0.2495 -0.1298 -0.1215
15163TIP3    H166980   3.724   2.293  15.416 -1.0963  0.8194  0.7279
15163TIP3    H266981   3.790   2.284  15.552  0.8090 -1.0704 -0.2559
15164TIP3   OH266982   5.997   3.926  11.196 -0.5596 -0.4810  0.0890
15164TIP3    H166983   5.921   3.926  11.137 -0.4724 -0.1882 -0.0236
15164TIP3    H266984   6.044   4.007  11.175 -0.2673 -0.6151  0.2259
15165TIP3   OH266985   3.846   6.717  16.386  0.0812 -0.0956 -0.4024
15165TIP3    H166986   3.927   6.748  16.426 -0.7400  0.7701  0.6433
15165TIP3    H266987   3.873   6.685  16.300  1.4275  0.8388 -0.3687
15166TIP3   OH266988   0.749   6.220   6.397  0.4835 -0.1326  0.4638
15166TIP3    H166989   0.786   6.132   6.393 -1.8649 -1.1669 -0.8486
15166TIP3    H266990   0.669   6.210   6.450 -0.0257  1.1175 -0.0310
15167TIP3   OH266991   1.893   0.078  16.467 -0.1560  0.0999  0.5746
15167TIP3    H166992   1.827   0.064  16.399 -0.4509 -0.5596  0.9850
15167TIP3    H266993   1.977   0.059  16.423 -0.3481 -0.3871  0.4019
15168TIP3   OH266994   5.629   5.530  12.951 -0.4963 -0.4933 -0.1832
15168TIP3    H166995   5.722   5.540  12.927 -0.3436 -0.2258  0.5103
15168TIP3    H266996   5.586   5.509  12.868 -0.0303  0.7789 -0.7899
15169TIP3   OH266997   4.034   0.264  12.707  0.1850  0.5967  0.2094
15169TIP3    H166998   4.122   0.287  12.736 -0.1701  1.8969  0.2924
15169TIP3    H266999   3.986   0.347  12.706 -1.2312 -0.1707  0.8090
15170TIP3   OH267000   3.638   4.543   2.197  0.2898 -0.0051  0.0437
15170TIP3    H167001   3.681   4.465   2.230 -1.2391 -0.7527  0.3459
15170TIP3    H267002   3.710   4.604   2.178  1.4351 -1.0830  0.7878
15171TIP3   OH267003   0.664   2.625   2.739 -0.1567 -0.1627  0.3418
15171TIP3    H167004   0.758   2.647   2.741  0.0178 -0.9313  1.4407
15171TIP3    H267005   0.661   2.532   2.760 -1.1810 -0.1331  0.3495
15172TIP3   OH267006   4.002   0.223   3.324  0.0408  0.0171 -0.0410
15172TIP3    H167007   3.990   0.134   3.291  0.3568 -0.7831  1.8350
15172TIP3    H267008   3.953   0.278   3.264  1.1515 -1.2190 -2.1931
15173TIP3   OH267009   4.723   6.529   4.933 -0.4099  0.1479  0.4950
15173TIP3    H167010   4.764   6.443   4.945  1.4152  0.9204  0.2369
15173TIP3    H267011   4.783   6.575   4.874 -0.2439  2.3049  2.2476
15174TIP3   OH267012   0.358   2.099   5.624  0.1429  0.2050 -0.5738
15174TIP3    H167013   0.430   2.088   5.686  0.9278  2.5867 -0.9820
15174TIP3    H267014   0.398   2.087   5.538 -0.0768  0.8049 -0.7663
15175TIP3   OH267015   4.411   2.506   4.173  0.6618  0.0664  0.1442
15175TIP3    H167016   4.337   2.481   4.228 -0.4279 -0.6733 -1.6010
15175TIP3    H267017   4.371   2.553   4.100  1.9370 -0.1413 -0.7055
15176TIP3   OH267018   5.758   2.825  13.707 -0.1028 -0.2488  0.1498
15176TIP3    H167019   5.799   2.745  13.740 -0.6666 -0.3698  0.5852
15176TIP3    H267020   5.828   2.890  13.706  0.6763 -1.0620 -1.4080
15177TIP3   OH267021   2.605   2.332  16.800  0.0838 -0.3864 -0.0566
15177TIP3    H167022   2.519   2.373  16.811  0.7094  0.4397  2.4217
15177TIP3    H267023   2.622   2.336  16.705 -1.2508  2.3355 -0.2871
15178TIP3   OH267024   6.172   4.249   5.750  0.8499  0.4913 -0.0567
15178TIP3    H167025   6.097   4.240   5.809  0.7095 -1.9827 -0.4824
15178TIP3    H267026   6.160   4.334   5.709 -1.5670  0.3389  0.1691
15179TIP3   OH267027   0.923   3.948  13.906  0.5128  0.6349  0.2498
15179TIP3    H167028   0.997   3.915  13.854 -0.2661 -1.1691  0.2128
15179TIP3    H267029   0.888   3.871  13.950 -0.9979  1.5418  0.7273
15180TIP3   OH267030   5.294   1.647   3.162  0.0929 -0.1264 -0.0801
15180TIP3    H167031   5.243   1.707   3.217 -1.2023 -0.2999 -1.0375
15180TIP3    H267032   5.375   1.694   3.144 -0.2995  0.7470  0.3581
15181TIP3   OH267033   0.040   4.415   6.282 -0.3645 -0.5301 -0.3883
15181TIP3    H167034   0.071   4.478   6.347  2.3026 -1.1090 -0.9904
15181TIP3    H267035   0.031   4.465   6.202 -2.0046 -0.1827 -0.0365
15182TIP3   OH267036   4.252   1.942  17.054 -0.2583  0.5905 -0.1178
15182TIP3    H167037   4.213   2.030  17.061 -0.1222  0.8391 -1.9086
15182TIP3    H267038   4.345   1.958  17.039  0.0917  0.0663  1.3485
15183TIP3   OH267039   6.764   0.021  14.841  0.8927  0.0950  0.2315
15183TIP3    H167040   6.847  -0.021  14.821  0.0176 -0.7101 -2.0116
15183TIP3    H267041   6.743  -0.008  14.930  2.4894 -0.4891  0.4479
15184TIP3   OH267042   2.275   5.691  14.367 -0.3960 -0.2420  0.6306
15184TIP3    H167043   2.290   5.628  14.296  0.3425 -1.1349  1.5628
15184TIP3    H267044   2.362   5.726  14.386  0.0085 -2.3634  3.2356
15185TIP3   OH267045   6.271   5.947  15.154  0.1937  0.1308 -0.1959
15185TIP3    H167046   6.269   5.963  15.059 -2.5679  0.6807 -0.1178
15185TIP3    H267047   6.326   5.869  15.163 -0.0942 -0.3955 -2.3336
15186TIP3   OH267048   5.825   3.635  11.397 -0.1688  0.7227  0.5297
15186TIP3    H167049   5.874   3.671  11.471  2.2685  0.0621 -0.6588
15186TIP3    H267050   5.833   3.540  11.407  2.0859  0.6040 -1.6692
15187TIP3   OH267051   0.206   1.202   0.564  0.4004 -0.3219  0.3226
15187TIP3    H167052   0.115   1.232   0.565  1.2038  2.5467 -1.1337
15187TIP3    H267053   0.223   1.181   0.472  1.5358  0.4762  0.3236
15188TIP3   OH267054   2.602   4.958  16.583 -0.5268 -0.2774 -0.1605
15188TIP3    H167055   2.677   5.016  16.573 -1.4508  1.2811  1.4383
15188TIP3    H267056   2.528   5.016  16.599 -1.8669 -1.8262 -0.4237
15189TIP3   OH267057   5.371   5.056   0.805 -0.0729 -0.4687  0.1366
15189TIP3    H167058   5.331   5.069   0.891 -0.9775 -0.4250 -0.2855
15189TIP3    H267059   5.304   5.011   0.754  0.6528 -0.9693 -0.3952
15190TIP3   OH267060   6.693   3.919  16.653  0.2399 -0.4330 -0.2420
15190TIP3    H167061   6.685   3.969  16.572  0.5293 -0.2349 -0.1518
15190TIP3    H267062   6.728   3.834  16.624 -2.2423 -1.3823 -0.6602
15191TIP3   OH267063   5.031   5.072   4.730 -0.5150  0.1239  0.5738
15191TIP3    H167064   4.986   5.148   4.767 -0.4090  0.5061 -0.0743
15191TIP3    H267065   5.105   5.057   4.788 -0.6185  0.4238  0.7880
15192TIP3   OH267066   6.159   2.208  15.367 -0.3616  0.0554 -0.3928
15192TIP3    H167067   6.243   2.185  15.328  0.1802  1.0961  0.1228
15192TIP3    H267068   6.162   2.170  15.455 -1.5201 -2.1546 -1.2270
15193TIP3   OH267069   2.746   0.501  11.212  0.4920  0.2437 -0.4146
15193TIP3    H167070   2.832   0.459  11.215  0.0879 -0.7444 -1.7701
15193TIP3    H267071   2.740   0.537  11.124 -0.9527 -0.7648 -0.7573
15194TIP3   OH267072   5.923   4.516   3.689 -0.3577  0.4280  0.3174
15194TIP3    H167073   6.004   4.471   3.712 -1.8787 -1.4475  2.5010
15194TIP3    H267074   5.914   4.502   3.594  1.5833  0.2610  0.1202
15195TIP3   OH267075   2.307   1.493   2.633  0.0566  0.0391 -0.5103
15195TIP3    H167076   2.321   1.475   2.726  0.5875 -0.9699 -0.7740
15195TIP3    H267077   2.367   1.435   2.588 -1.7435 -1.0977 -1.5595
15196TIP3   OH267078   5.071   6.661   2.220 -0.1966  0.2703 -0.5587
15196TIP3    H167079   5.088   6.746   2.179 -0.0722  0.5355  0.0386
15196TIP3    H267080   4.987   6.634   2.183  0.5974 -0.1763 -2.0973
15197TIP3   OH267081   3.206   2.405  16.233 -0.7958 -0.4414  0.1086
15197TIP3    H167082   3.276   2.379  16.172 -0.9120 -0.6939  0.0836
15197TIP3    H267083   3.130   2.420  16.177 -0.3108  1.5771 -0.0868
15198TIP3   OH267084   2.962   4.127  17.151 -0.2367 -0.2268  0.5017
15198TIP3    H167085   2.869   4.121  17.176 -0.4273 -1.2791 -0.3686
15198TIP3    H267086   2.974   4.218  17.124 -0.0412  0.9836  4.1326
15199TIP3   OH267087   0.566   3.203   2.387 -0.0381  0.7273 -0.1364
15199TIP3    H167088   0.623   3.197   2.464 -0.5645 -0.3694  0.1885
15199TIP3    H267089   0.577   3.119   2.343 -2.9520 -0.3972  1.0673
15200TIP3   OH267090   2.842   3.671   2.628  0.0867  0.3738 -0.0147
15200TIP3    H167091   2.865   3.624   2.708 -1.0875  1.2323  0.8839
15200TIP3    H267092   2.778   3.737   2.657 -0.3115  0.7595 -1.6533
15201TIP3   OH267093   1.174   3.509   4.273  0.5191 -0.4870 -0.2988
15201TIP3    H167094   1.099   3.564   4.249  0.1685 -0.6704  0.3247
15201TIP3    H267095   1.158   3.426   4.229 -0.9963 -1.4013  1.7766
15202TIP3   OH267096   3.370   5.447  12.960 -0.1194  0.3684 -0.3248
15202TIP3    H167097   3.414   5.532  12.951 -1.8895  1.3379 -0.4766
15202TIP3    H267098   3.373   5.409  12.872 -0.3438  0.8287 -0.5342
15203TIP3   OH267099   4.391   4.695   4.089 -0.5659 -0.3583 -0.2651
15203TIP3    H167100   4.432   4.773   4.052 -0.4770 -0.5546 -0.5830
15203TIP3    H267101   4.463   4.644   4.125 -0.6833 -0.0347  0.4283
15204TIP3   OH267102   1.554   5.994  12.339  0.3446  1.0695 -0.8190
15204TIP3    H167103   1.499   6.016  12.414 -2.5765  1.7878 -2.9662
15204TIP3    H267104   1.609   6.072  12.326 -0.9010  1.9800 -0.8353
15205TIP3   OH267105   1.330   0.791   1.852 -0.1580  0.2806 -0.5817
15205TIP3    H167106   1.382   0.743   1.916 -3.1961 -0.6077  1.4651
15205TIP3    H267107   1.254   0.822   1.901 -1.8831  1.0003 -3.4244
15206TIP3   OH267108   2.708   2.895   5.525  0.4418  0.3187  0.3091
15206TIP3    H167109   2.761   2.914   5.602  0.3964 -1.3347  0.7923
15206TIP3    H267110   2.756   2.826   5.479 -0.9522 -0.7933  0.4419
15207TIP3   OH267111   3.750   1.961   6.376  0.1945  0.0517 -0.1622
15207TIP3    H167112   3.741   2.056   6.384 -2.1898  0.0466 -1.7694
15207TIP3    H267113   3.839   1.948   6.343  1.2700  1.5194  1.8759
15208TIP3   OH267114   3.542   2.092   2.380 -0.0432  0.0929  0.1418
15208TIP3    H167115   3.479   2.035   2.337 -0.0972  1.4083 -1.6528
15208TIP3    H267116   3.580   2.144   2.309  1.9795  0.4005  1.3501
15209TIP3   OH267117   6.717   2.388  11.024  0.1180 -0.0934  0.1981
15209TIP3    H167118   6.662   2.332  10.971  0.9997  0.0876 -0.9389
15209TIP3    H267119   6.765   2.442  10.961  1.1891  0.1308  1.1705
15210TIP3   OH267120   5.252   5.890  12.744 -0.4628 -0.2680 -0.1217
15210TIP3    H167121   5.338   5.880  12.784 -1.3938  1.4115  2.5618
15210TIP3    H267122   5.262   5.963  12.683  0.1566 -0.5409 -0.3490
15211TIP3   OH267123   5.645   3.965   6.153  0.6276  0.4442 -0.0482
15211TIP3    H167124   5.630   3.951   6.247 -1.2833 -1.7502 -0.6210
15211TIP3    H267125   5.649   4.061   6.145  0.4690  0.7153  2.2028
15212TIP3   OH267126   2.883   4.260   0.209 -0.0984 -0.3972  0.2344
15212TIP3    H167127   2.819   4.195   0.179 -1.5935  0.5285  1.2670
15212TIP3    H267128   2.856   4.280   0.299  0.5091  1.3885  0.0584
15213TIP3   OH267129   1.879   1.026  14.762 -0.9029 -0.0753 -0.2719
15213TIP3    H167130   1.911   0.990  14.679  1.1727  2.0165 -0.5039
15213TIP3    H267131   1.794   1.065  14.740  0.3954  2.0210 -1.9561
15214TIP3   OH267132   0.499   0.647   4.662  0.1425 -0.0345  0.3651
15214TIP3    H167133   0.559   0.591   4.711 -0.0530  0.0125  0.6632
15214TIP3    H267134   0.553   0.720   4.632 -0.1351  1.0661  2.3357
15215TIP3   OH267135   4.151   6.618  16.882  0.2906  0.5479  0.7469
15215TIP3    H167136   4.197   6.563  16.817 -0.7389 -0.0795  0.5197
15215TIP3    H267137   4.196   6.599  16.964  1.5369  1.2575  0.2595
15216TIP3   OH267138   5.597   3.321  15.740  0.5615  0.5248 -0.3821
15216TIP3    H167139   5.540   3.350  15.811  1.0431  0.3763  0.0758
15216TIP3    H267140   5.656   3.257  15.781  2.0793  1.8059 -0.4598
15217TIP3   OH267141   3.505   2.225   5.920 -0.4773  0.0172  0.4361
15217TIP3    H167142   3.458   2.155   5.874 -1.6864 -0.1886  1.8686
15217TIP3    H267143   3.436   2.270   5.970  0.5994  0.9209  1.1456
15218TIP3   OH267144   6.504   3.786  10.926  0.0562 -0.1939  0.2493
15218TIP3    H167145   6.488   3.813  10.835 -1.2703  3.0768  1.3348
15218TIP3    H267146   6.420   3.749  10.954  0.0759 -0.0186  0.5336
15219TIP3   OH267147   6.532   2.377   3.276  0.2019 -0.3474 -0.1356
15219TIP3    H167148   6.475   2.454   3.278 -0.1013 -0.5838  1.5133
15219TIP3    H267149   6.541   2.351   3.368  2.6016 -0.6016 -0.3843
15220TIP3   OH267150   2.185   2.213  16.223  0.0848  0.0043 -0.8538
15220TIP3    H167151   2.098   2.249  16.238  0.3208  0.6937 -1.0549
15220TIP3    H267152   2.178   2.167  16.139 -0.6673 -1.9557  0.2355
15221TIP3   OH267153   4.713   4.866  16.559  0.0546 -0.5355 -0.6324
15221TIP3    H167154   4.644   4.816  16.515  1.2416 -1.8261 -1.0927
15221TIP3    H267155   4.674   4.892  16.642 -0.8562 -1.6029 -0.7023
15222TIP3   OH267156   2.383   3.989  13.920  0.3926 -0.8103 -0.2228
15222TIP3    H167157   2.375   3.894  13.928  1.2694 -1.0296 -1.6813
15222TIP3    H267158   2.477   4.005  13.918  0.2627  0.1761  0.7046
15223TIP3   OH267159   1.174   1.030   3.579 -0.3354 -0.8684 -0.3784
15223TIP3    H167160   1.220   0.958   3.622  0.1534  0.2906  1.1709
15223TIP3    H267161   1.225   1.108   3.602 -2.0532  0.2437 -0.0804
15224TIP3   OH267162   6.525   5.200   1.187 -0.0900  0.0015  0.3068
15224TIP3    H167163   6.521   5.210   1.282 -0.2968  1.3078  0.1771
15224TIP3    H267164   6.572   5.117   1.173  0.1286 -0.0914  1.5311
15225TIP3   OH267165   3.084   0.394   1.268  0.6597  0.3014  0.5869
15225TIP3    H167166   2.996   0.430   1.260  0.8839  1.1195  1.5229
15225TIP3    H267167   3.139   0.453   1.218  0.5627 -0.7750 -0.8422
15226TIP3   OH267168   4.562   3.075  14.236  0.3087  0.1397  0.1829
15226TIP3    H167169   4.474   3.091  14.202  0.1264 -2.8854 -1.0749
15226TIP3    H267170   4.575   3.142  14.303 -2.9740  0.6641  0.4345
15227TIP3   OH267171   5.008   2.071  15.500  0.3574 -0.0830 -0.0374
15227TIP3    H167172   5.035   2.021  15.578  0.1931  0.3997  0.3305
15227TIP3    H267173   4.916   2.050  15.489  0.4538 -0.3918 -0.2892
15228TIP3   OH267174   3.166   3.100   1.135 -0.0150  0.1368  0.5786
15228TIP3    H167175   3.109   3.113   1.059  0.3835 -0.7920  0.1096
15228TIP3    H267176   3.244   3.057   1.100 -0.0258 -0.7481  1.5870
15229TIP3   OH267177   5.193   4.693  14.665  0.2878 -0.2049  0.2814
15229TIP3    H167178   5.199   4.667  14.757  1.7414  0.0434  0.2695
15229TIP3    H267179   5.281   4.721  14.642 -0.0873 -0.1609 -1.1684
15230TIP3   OH267180   0.984   1.870   0.063 -0.0086 -0.0029 -0.3146
15230TIP3    H167181   0.916   1.927   0.027  0.0159  1.4538  1.7539
15230TIP3    H267182   0.996   1.901   0.153  2.2476 -1.2648 -0.1018
15231TIP3   OH267183   6.191   2.874   1.659 -0.2325  0.5071  0.1984
15231TIP3    H167184   6.273   2.884   1.612 -0.3797 -0.8836 -0.3895
15231TIP3    H267185   6.127   2.922   1.607 -0.2396 -0.3556 -0.6008
15232TIP3   OH267186   1.783   4.940  15.791 -0.2231 -0.1661  0.7073
15232TIP3    H167187   1.765   4.848  15.773 -0.9894  0.1080  0.0102
15232TIP3    H267188   1.723   4.988  15.734  0.2000  0.7680  1.0237
15233TIP3   OH267189   2.482   3.790   0.480 -0.0028 -0.8937 -0.1355
15233TIP3    H167190   2.521   3.784   0.567  1.2528 -0.9965 -0.6948
15233TIP3    H267191   2.390   3.767   0.494 -0.0479  0.0067  1.3135
15234TIP3   OH267192   2.585   4.126   5.251  0.0803 -0.4096  0.2621
15234TIP3    H167193   2.516   4.069   5.284  0.1458 -1.5298 -1.4259
15234TIP3    H267194   2.550   4.161   5.169  0.3771  1.3612  0.8444
15235TIP3   OH267195   3.348   6.064   3.897  0.4307 -0.0169 -0.5973
15235TIP3    H167196   3.337   6.149   3.854 -2.0070  0.3927  0.6480
15235TIP3    H267197   3.437   6.067   3.932  1.0173  1.2953 -2.0341
15236TIP3   OH267198   4.391   4.740   5.504  0.1064 -0.9572  0.0744
15236TIP3    H167199   4.398   4.692   5.422  0.2869 -0.1102 -0.4141
15236TIP3    H267200   4.299   4.768   5.508  0.2529 -0.4272 -0.1732
15237TIP3   OH267201   1.183   1.506   4.665 -1.1934 -0.3966  0.0444
15237TIP3    H167202   1.180   1.522   4.570 -0.7277 -1.8969 -0.2542
15237TIP3    H267203   1.110   1.558   4.700 -0.4414  1.4136 -0.9084
15238TIP3   OH267204   5.215   2.171  14.243 -0.4224  0.0316  0.3272
15238TIP3    H167205   5.158   2.102  14.277 -0.4803 -0.3164 -0.4576
15238TIP3    H267206   5.278   2.126  14.187  1.7848  0.1713  2.5138
15239TIP3   OH267207   3.461   5.194  16.364  0.0098  0.4545 -0.1575
15239TIP3    H167208   3.414   5.276  16.350 -0.4068  0.6682  2.1018
15239TIP3    H267209   3.392   5.132  16.389  0.2208 -0.8330 -2.4596
15240TIP3   OH267210   4.662   5.222  10.409  0.1984 -0.5893 -0.6000
15240TIP3    H167211   4.702   5.136  10.417  1.0364 -0.0694  1.9025
15240TIP3    H267212   4.568   5.207  10.422 -0.3832 -1.5914 -4.7272
15241TIP3   OH267213   5.893   2.761  15.526 -0.2202  0.3305  0.2505
15241TIP3    H167214   5.889   2.684  15.469 -2.5713  0.9847 -0.5851
15241TIP3    H267215   5.980   2.758  15.564 -0.2448 -2.7781  0.3080
15242TIP3   OH267216   6.479   0.530  11.522  0.3213  0.6854  0.3010
15242TIP3    H167217   6.443   0.442  11.516  1.7560 -0.1017  2.0948
15242TIP3    H267218   6.492   0.558  11.431  0.9104 -1.4341 -0.3220
15243TIP3   OH267219   2.513   1.894   5.327  0.6267  0.0661 -0.1028
15243TIP3    H167220   2.537   1.935   5.244  0.2050 -2.0350 -1.3253
15243TIP3    H267221   2.495   1.967   5.386  2.4202  1.6368 -1.3861
15244TIP3   OH267222   4.919   1.143  11.501  1.0872  0.3577 -0.4178
15244TIP3    H167223   5.005   1.177  11.525  0.9026  1.5560 -1.3496
15244TIP3    H267224   4.923   1.130  11.407  0.9591 -1.7875 -0.1831
15245TIP3   OH267225   6.800   6.211   0.122 -0.2664 -0.2845 -0.2383
15245TIP3    H167226   6.714   6.185   0.090 -0.4028  0.8015 -0.7817
15245TIP3    H267227   6.862   6.158   0.071 -0.6103 -2.8334  1.7597
15246TIP3   OH267228   5.406   1.749  13.531 -0.0792  0.2063  0.5718
15246TIP3    H167229   5.469   1.761  13.460 -0.3690 -1.4843 -0.0208
15246TIP3    H267230   5.455   1.765  13.611  0.9233 -0.3739  0.0861
15247TIP3   OH267231   3.936   4.366   2.447  0.1788  0.0038 -0.5101
15247TIP3    H167232   4.010   4.370   2.507  0.7364 -0.2057 -1.1826
15247TIP3    H267233   3.927   4.455   2.414 -0.2088  0.1477 -0.0237
15248TIP3   OH267234   2.757   4.214   4.170 -0.3133 -0.7062  0.4877
15248TIP3    H167235   2.816   4.284   4.199  0.8034 -0.7125 -1.5676
15248TIP3    H267236   2.673   4.258   4.156  0.1249  0.0390  0.1148
15249TIP3   OH267237   6.010   1.055  14.295 -0.4501 -0.4613  0.0359
15249TIP3    H167238   5.958   1.122  14.249 -0.2761 -0.5300 -0.2641
15249TIP3    H267239   5.951   0.980  14.301  0.4051 -1.4529 -2.5777
15250TIP3   OH267240   1.209   4.298  11.571  0.1095  0.4234 -1.0066
15250TIP3    H167241   1.153   4.364  11.531  0.0635  0.3650 -1.0383
15250TIP3    H267242   1.151   4.224  11.587 -0.1024  0.7955  0.0604
15251TIP3   OH267243   4.423   0.551  15.005  0.5848  0.0728 -0.2465
15251TIP3    H167244   4.412   0.459  14.980  0.5454  0.1284 -0.4363
15251TIP3    H267245   4.387   0.600  14.931  0.7305  0.2415 -0.2057
15252TIP3   OH267246   0.737   2.950  16.174  0.0826  0.0038 -0.0295
15252TIP3    H167247   0.768   2.935  16.085 -1.2441  0.5287 -0.6069
15252TIP3    H267248   0.642   2.947  16.167 -0.0318 -0.8225  1.5440
15253TIP3   OH267249   3.750   1.432   1.988 -0.1372  0.3097  0.0226
15253TIP3    H167250   3.817   1.408   2.053 -1.8161 -0.2670  1.6099
15253TIP3    H267251   3.790   1.408   1.904  0.5084 -2.9902  1.0981
15254TIP3   OH267252   2.570   5.706   6.326  0.3585 -0.0943 -0.2036
15254TIP3    H167253   2.647   5.762   6.320  2.2219 -2.2310  1.7772
15254TIP3    H267254   2.604   5.621   6.354 -2.5278 -1.7090 -1.1321
15255TIP3   OH267255   6.125   2.516  16.724  0.4938 -0.4708  0.2396
15255TIP3    H167256   6.154   2.594  16.678  0.0449 -0.3102  0.2241
15255TIP3    H267257   6.075   2.549  16.798  0.1385 -0.7417  0.1251
15256TIP3   OH267258   1.390   0.552   5.223  0.1415  0.1823 -0.3649
15256TIP3    H167259   1.402   0.554   5.128  0.7018 -0.8623 -0.3268
15256TIP3    H267260   1.449   0.484   5.254  0.1473  0.6696  0.7722
15257TIP3   OH267261   1.076   6.554  16.968 -0.2245 -0.6073 -0.5928
15257TIP3    H167262   1.031   6.609  16.904 -0.0868  0.3156  0.0836
15257TIP3    H267263   1.102   6.615  17.037  1.1489 -1.2897 -0.4767
15258TIP3   OH267264   1.047   1.934  12.515  0.0411 -0.6026 -0.3082
15258TIP3    H167265   1.093   1.923  12.432  0.2242  0.1447 -0.3068
15258TIP3    H267266   0.993   2.012  12.502  0.5602 -0.0997  0.4921
15259TIP3   OH267267   2.079   1.837  13.060 -0.6958  0.0386  0.1420
15259TIP3    H167268   2.141   1.770  13.030 -0.2269  1.2407 -1.7206
15259TIP3    H267269   2.110   1.860  13.148  1.5760  0.6292 -0.7341
15260TIP3   OH267270   0.785   2.004  12.713 -0.2000 -0.5493  0.7769
15260TIP3    H167271   0.790   1.982  12.620 -1.7156 -1.6652  0.9325
15260TIP3    H267272   0.758   2.096  12.714  0.7418 -0.2480  0.1334
15261TIP3   OH267273   2.676   0.534  13.303 -0.1637 -0.3829  0.3387
15261TIP3    H167274   2.619   0.468  13.262  1.6205 -1.6906 -0.1538
15261TIP3    H267275   2.687   0.601  13.235 -1.4198  0.1098  0.5935
15262TIP3   OH267276   1.609   4.199   1.707  0.1376  0.3554  0.0954
15262TIP3    H167277   1.593   4.287   1.674  0.1812  0.4627  0.3598
15262TIP3    H267278   1.536   4.182   1.767  1.0156  0.8618  1.3361
15263TIP3   OH267279   4.162   1.877  15.857  0.1911  0.1614 -0.3472
15263TIP3    H167280   4.180   1.811  15.923 -1.0112  0.6348  0.4766
15263TIP3    H267281   4.202   1.957  15.892  3.1813 -0.3908 -2.1265
15264TIP3   OH267282   6.036   5.665   2.437  0.3834 -0.1426 -0.2901
15264TIP3    H167283   6.128   5.659   2.412  0.3729  0.3857 -0.4837
15264TIP3    H267284   6.014   5.579   2.471  0.9109 -0.3155 -0.3789
15265TIP3   OH267285   0.582   2.438   1.059 -0.0944  0.1566 -0.3111
15265TIP3    H167286   0.670   2.407   1.035 -0.5042 -0.9140 -0.5103
15265TIP3    H267287   0.594   2.530   1.083  1.0076  0.1362 -0.7375
15266TIP3   OH267288   4.877   6.810  14.110 -0.0733  0.0135  0.4742
15266TIP3    H167289   4.801   6.782  14.059  0.7945 -0.0356 -0.8148
15266TIP3    H267290   4.935   6.851  14.047  0.4444  1.1639  1.6583
15267TIP3   OH267291   2.397   2.300  15.332 -0.3522 -0.2177 -0.1074
15267TIP3    H167292   2.432   2.381  15.295  0.0224  0.1084  0.9269
15267TIP3    H267293   2.303   2.315  15.337 -0.3696 -0.1362 -0.6020
15268TIP3   OH267294   4.572   3.558   2.116 -0.1538  0.7953 -0.5536
15268TIP3    H167295   4.614   3.573   2.200 -0.4659 -0.4966 -0.1338
15268TIP3    H267296   4.595   3.467   2.094 -2.6786 -0.0007 -0.2964
15269TIP3   OH267297   0.759   1.494  10.518  0.3615 -0.8171  0.5892
15269TIP3    H167298   0.741   1.455  10.603  0.2031 -1.3850  0.3008
15269TIP3    H267299   0.738   1.425  10.455  0.5416 -0.4266  0.0940
15270TIP3   OH267300   3.818   1.478  15.756 -0.8831  0.4359 -0.0051
15270TIP3    H167301   3.844   1.409  15.695 -0.4825 -0.2633  0.9352
15270TIP3    H267302   3.724   1.489  15.742 -1.0508 -0.6722  0.1978
15271TIP3   OH267303   4.784   0.230   2.407 -0.3501  0.1238 -0.5379
15271TIP3    H167304   4.768   0.278   2.326  0.4404  1.5369  0.0979
15271TIP3    H267305   4.753   0.289   2.476 -0.4130 -0.7812  0.2238
15272TIP3   OH267306   6.361   6.218  12.046  0.2158  0.1168  0.1707
15272TIP3    H167307   6.434   6.214  11.984 -0.5986 -1.2026 -0.7411
15272TIP3    H267308   6.283   6.211  11.992 -0.5739  0.8423  1.1993
15273TIP3   OH267309   0.785   0.875   5.920  0.0631 -0.1042  0.2322
15273TIP3    H167310   0.777   0.938   5.848  0.5463 -0.0598  0.2137
15273TIP3    H267311   0.807   0.792   5.877  0.6968 -0.0013  0.3520
15274TIP3   OH267312   3.144   2.930   5.558  0.1627  0.3292 -0.3090
15274TIP3    H167313   3.231   2.968   5.542  0.2591 -0.0620 -0.7536
15274TIP3    H267314   3.160   2.835   5.562 -0.1313  0.3052  0.3925
15275TIP3   OH267315   5.690   0.806   4.238  0.6533  0.5676 -0.3492
15275TIP3    H167316   5.617   0.832   4.181  0.0407  0.1269  0.2149
15275TIP3    H267317   5.764   0.860   4.209 -0.5183  2.8498  0.7242
15276TIP3   OH267318   0.272   5.214  15.239 -0.3103 -0.2015 -0.3686
15276TIP3    H167319   0.291   5.193  15.330 -1.5340 -1.0070 -0.2711
15276TIP3    H267320   0.344   5.175  15.189 -0.2573 -0.7995  0.1708
15277TIP3   OH267321   6.173   4.759   5.405  0.2410  0.1745  0.0746
15277TIP3    H167322   6.227   4.793   5.476 -0.3887  1.3098  0.0353
15277TIP3    H267323   6.094   4.813   5.408  0.0812  0.0344 -1.2982
15278TIP3   OH267324   1.927   4.973  11.830  0.3200  0.1979 -0.3777
15278TIP3    H167325   1.888   5.046  11.783 -0.5499  0.0117  0.0238
15278TIP3    H267326   1.891   4.895  11.788  0.2425  0.0222  0.0029
15279TIP3   OH267327   0.905   0.864   5.025 -0.4577 -0.2038  0.3562
15279TIP3    H167328   0.931   0.932   5.087 -0.8564 -1.4140  1.9050
15279TIP3    H267329   0.960   0.789   5.048 -1.4721 -1.0564  0.0628
15280TIP3   OH267330   4.053   2.015  11.904  0.5798  0.3444  0.6156
15280TIP3    H167331   3.999   1.941  11.932  1.3143  0.1102  1.4620
15280TIP3    H267332   4.064   2.002  11.809  0.0763 -0.2103  0.6296
15281TIP3   OH267333   3.267   4.442  15.866  0.4892  0.2101 -0.2478
15281TIP3    H167334   3.209   4.460  15.791 -0.3433 -0.1109  0.3020
15281TIP3    H267335   3.258   4.347  15.880  0.5362  0.2942  0.3472
15282TIP3   OH267336   0.134   2.657  12.571  0.0145 -0.1945 -0.0639
15282TIP3    H167337   0.112   2.728  12.511 -0.5483 -0.0473  0.3156
15282TIP3    H267338   0.051   2.614  12.590  0.6198 -2.8559 -2.6033
15283TIP3   OH267339   6.126   5.277   5.343 -0.8719  0.2611  0.3277
15283TIP3    H167340   6.217   5.270   5.316 -1.0560 -0.0605 -0.2314
15283TIP3    H267341   6.089   5.190   5.328 -1.5763  0.6977 -0.6330
15284TIP3   OH267342   6.438   3.242  14.574  0.1387  0.0180 -0.1356
15284TIP3    H167343   6.390   3.159  14.567 -0.8484  0.5799 -0.2330
15284TIP3    H267344   6.472   3.258  14.487  0.7557 -0.5182 -0.0058
15285TIP3   OH267345   1.007   5.823   0.522 -0.5977  0.0230  0.2604
15285TIP3    H167346   1.072   5.823   0.453 -1.6092 -0.9546 -0.7437
15285TIP3    H267347   0.954   5.901   0.506 -0.1211  0.4354  0.6571
15286TIP3   OH267348   5.589   6.245  16.121  0.5495  0.6606  0.3031
15286TIP3    H167349   5.668   6.244  16.175  0.4485 -0.8113  0.4787
15286TIP3    H267350   5.617   6.287  16.039  1.2682  0.9708  0.6902
15287TIP3   OH267351   2.490   1.012  16.935  0.0679 -0.1250  0.2460
15287TIP3    H167352   2.543   1.085  16.904 -0.8713 -0.0530 -1.3183
15287TIP3    H267353   2.431   0.992  16.862 -0.1260 -2.0435  0.8618
15288TIP3   OH267354   2.964   5.693   2.503  0.0383  0.0995 -0.3778
15288TIP3    H167355   3.016   5.766   2.468  2.1877 -2.0109 -1.9382
15288TIP3    H267356   2.882   5.697   2.455  0.1888  1.3702 -0.5699
15289TIP3   OH267357   0.670   4.239   0.197  0.5320  0.1159  0.1647
15289TIP3    H167358   0.591   4.222   0.248 -0.4963  0.7352 -1.1511
15289TIP3    H267359   0.701   4.324   0.228 -0.3885  0.7382 -0.5722
15290TIP3   OH267360   3.623   5.949  15.191  0.3334 -0.3158 -0.0627
15290TIP3    H167361   3.649   5.893  15.117 -1.1517  1.3712 -1.9931
15290TIP3    H267362   3.538   5.913  15.218 -0.0019  0.1720 -0.4433
15291TIP3   OH267363   5.789   5.771  16.830  0.2922  0.4260  0.0012
15291TIP3    H167364   5.828   5.858  16.817 -0.5498  1.4758  3.4330
15291TIP3    H267365   5.695   5.789  16.839  0.0668 -0.9007  0.4598
15292TIP3   OH267366   2.980   4.738  11.775 -0.0664  0.0008 -0.3767
15292TIP3    H167367   2.984   4.725  11.680 -1.2792  0.2028 -0.4723
15292TIP3    H267368   3.027   4.820  11.790  0.5037 -0.2528 -0.7454
15293TIP3   OH267369   3.872   2.675   6.303  0.1532 -0.4368 -0.4731
15293TIP3    H167370   3.824   2.726   6.368  0.3830 -0.9819  0.1375
15293TIP3    H267371   3.954   2.723   6.290  0.7630 -1.0847  0.7675
15294TIP3   OH267372   2.000   0.098   3.836 -0.1710 -0.2281  0.1942
15294TIP3    H167373   2.066   0.100   3.766  0.9512 -0.1283  1.2176
15294TIP3    H267374   1.948   0.177   3.822  0.7216  0.3628  0.0854
15295TIP3   OH267375   5.693   5.496   3.000  0.2930  0.0952  0.0149
15295TIP3    H167376   5.735   5.496   2.914  1.5644 -0.8878  0.6139
15295TIP3    H267377   5.762   5.470   3.061 -0.9773 -0.7921  1.1356
15296TIP3   OH267378   2.403   5.602  15.086  0.1173 -0.4895  0.6680
15296TIP3    H167379   2.334   5.666  15.107 -0.2844 -0.0214 -1.8491
15296TIP3    H267380   2.425   5.564  15.171 -2.9463 -0.3644  1.6685
15297TIP3   OH267381   0.441   0.879  13.891 -0.1749  0.6927  0.6274
15297TIP3    H167382   0.361   0.839  13.925  0.1057  0.1003  0.6147
15297TIP3    H267383   0.420   0.972  13.884 -1.3389  0.3559 -0.7475
15298TIP3   OH267384   1.408   6.550  16.860  0.1098  0.0007 -0.6829
15298TIP3    H167385   1.349   6.600  16.803  1.3288  2.3334  0.0039
15298TIP3    H267386   1.410   6.599  16.942  0.5755 -1.7739  0.4192
15299TIP3   OH267387   1.129   5.906   0.268 -0.3141 -0.2368 -0.2064
15299TIP3    H167388   1.215   5.879   0.300 -0.6254 -1.2155 -0.1899
15299TIP3    H267389   1.086   5.825   0.240 -0.6877  0.3906 -1.5606
15300TIP3   OH267390   6.677   2.980  11.616 -0.8070 -0.5247  0.4767
15300TIP3    H167391   6.699   2.968  11.523  2.9693  1.5308  0.8980
15300TIP3    H267392   6.591   3.021  11.615 -0.9670 -0.7347 -2.0713
15301TIP3   OH267393   3.235   1.456  14.671 -0.0552  0.2288 -0.2631
15301TIP3    H167394   3.228   1.551  14.668  0.0362  0.2916  1.0855
15301TIP3    H267395   3.185   1.430  14.748  0.3877 -0.7602 -0.2873
15302TIP3   OH267396   3.143   1.215   2.833  0.0741  0.2359 -0.0350
15302TIP3    H167397   3.223   1.251   2.872 -0.6957 -1.2403  3.2146
15302TIP3    H267398   3.143   1.123   2.858 -1.6625 -0.2992 -1.7509
15303TIP3   OH267399   3.360   2.581  17.017  0.0847 -0.3464 -0.0482
15303TIP3    H167400   3.443   2.553  16.978  0.5794  2.9471 -1.7390
15303TIP3    H267401   3.385   2.628  17.096 -0.5051 -2.1161  1.2467
15304TIP3   OH267402   2.134   1.305   4.941 -0.5185  0.2567 -0.4563
15304TIP3    H167403   2.043   1.325   4.962 -0.6318  0.9830 -1.5484
15304TIP3    H267404   2.184   1.349   5.010 -1.0217 -2.1504  1.5766
15305TIP3   OH267405   4.814   1.537   2.520  0.1337  0.3494 -0.6201
15305TIP3    H167406   4.903   1.502   2.514 -0.1692 -0.3226 -1.2890
15305TIP3    H267407   4.805   1.563   2.612 -0.1259 -2.7006  0.3189
15306TIP3   OH267408   4.841   3.671  11.813  0.6508  0.1233  0.1107
15306TIP3    H167409   4.863   3.693  11.903  1.4778 -0.0956 -0.0282
15306TIP3    H267410   4.839   3.576  11.811 -0.2320  0.1369  0.0913
15307TIP3   OH267411   2.904   4.990   2.757 -0.4693 -0.5918  0.2619
15307TIP3    H167412   2.982   4.936   2.771 -0.5082 -0.7470 -0.0954
15307TIP3    H267413   2.934   5.060   2.699 -1.0362 -1.7683 -1.5434
15308TIP3   OH267414   1.716   0.446  14.027  0.2411  0.5946  0.0778
15308TIP3    H167415   1.672   0.362  14.040 -0.2677  0.7174 -0.8214
15308TIP3    H267416   1.701   0.468  13.936  1.3556  1.1158 -0.0013
15309TIP3   OH267417   0.881   6.804  11.704  0.3278 -0.0472 -0.3934
15309TIP3    H167418   0.872   6.749  11.782  2.2023 -0.3613 -0.3530
15309TIP3    H267419   0.920   6.886  11.737  0.7282 -0.0193 -0.9275
15310TIP3   OH267420   2.649   1.446  13.511  0.0707  0.0575  0.2066
15310TIP3    H167421   2.666   1.526  13.561 -1.8652  0.2603  0.5970
15310TIP3    H267422   2.680   1.375  13.568  1.8565  0.4715 -0.1682
15311TIP3   OH267423   2.550   4.937  16.194 -0.3106 -0.1426  0.2469
15311TIP3    H167424   2.555   4.868  16.260  0.4218 -0.9046 -0.5903
15311TIP3    H267425   2.607   4.908  16.124  0.5991  1.6612  0.1885
15312TIP3   OH267426   1.710   1.569   0.184 -0.0870 -0.7435 -0.2154
15312TIP3    H167427   1.801   1.574   0.212 -0.3520  0.4573  0.5336
15312TIP3    H267428   1.696   1.650   0.134 -0.4672 -1.4177 -1.2307
15313TIP3   OH267429   2.330   5.712   2.580  0.1993 -0.1756  0.5707
15313TIP3    H167430   2.302   5.803   2.583 -1.1775 -0.5615  0.3487
15313TIP3    H267431   2.409   5.709   2.633 -0.0221  1.0468  1.0035
15314TIP3   OH267432   5.199   4.718  12.884 -0.3209  0.6340  0.5432
15314TIP3    H167433   5.232   4.791  12.936 -0.6894  0.5360  0.9203
15314TIP3    H267434   5.160   4.659  12.948 -1.4027  0.8356  0.0958
15315TIP3   OH267435   2.028   3.071   4.148  0.7864  0.3359 -0.1275
15315TIP3    H167436   2.033   3.149   4.202  1.1444  0.8396 -0.8792
15315TIP3    H267437   2.067   3.002   4.202 -0.1055  0.5172  0.7876
15316TIP3   OH267438   3.667   1.194   2.764 -0.2668 -0.5529  0.0976
15316TIP3    H167439   3.632   1.191   2.675  1.0070 -0.0625 -0.4503
15316TIP3    H267440   3.716   1.113   2.774  0.2913 -0.2316  0.0325
15317TIP3   OH267441   6.114   1.353  13.813  0.4525  0.5724  0.4588
15317TIP3    H167442   6.175   1.344  13.739 -0.3777  1.9307 -0.4370
15317TIP3    H267443   6.148   1.429  13.862 -0.7651  1.6603 -0.3325
15318TIP3   OH267444   5.161   5.878   2.936  0.2174 -0.8495  0.1222
15318TIP3    H167445   5.144   5.808   2.872  0.6430 -0.6990 -0.1613
15318TIP3    H267446   5.099   5.947   2.913 -0.8689 -1.5084  1.0069
15319TIP3   OH267447   2.249   5.697   1.523  0.8135  0.5596 -0.2357
15319TIP3    H167448   2.270   5.702   1.430  0.5079  2.1787 -0.2410
15319TIP3    H267449   2.173   5.754   1.533  0.0264 -0.6300  0.7899
15320TIP3   OH267450   5.995   4.951  14.255  0.0824  0.6617  0.4371
15320TIP3    H167451   5.915   4.903  14.233  0.1264  1.4635 -1.7777
15320TIP3    H267452   6.066   4.895  14.223  0.4346 -0.0184  2.3344
15321TIP3   OH267453   4.592   5.981  15.688 -0.1612  0.3403 -0.1048
15321TIP3    H167454   4.670   6.020  15.727 -0.3840 -0.9264  1.7731
15321TIP3    H267455   4.614   5.968  15.596  1.1121  1.7511 -0.0243
15322TIP3   OH267456   2.259   6.720   1.203 -0.2441  0.0648  0.1931
15322TIP3    H167457   2.253   6.656   1.274  0.8389  1.1539  1.3402
15322TIP3    H267458   2.252   6.805   1.248  0.8558  0.7937 -0.9507
15323TIP3   OH267459   2.548   5.097   0.504  0.7097  0.5057  0.2144
15323TIP3    H167460   2.489   5.025   0.526  0.2994  0.5374 -0.7337
15323TIP3    H267461   2.559   5.145   0.587 -0.3706  0.3375  0.4690
15324TIP3   OH267462   0.742   4.813   0.561 -0.2555 -0.3339 -0.2666
15324TIP3    H167463   0.692   4.893   0.546 -0.0249  0.2280  1.6523
15324TIP3    H267464   0.807   4.837   0.627 -0.7501 -2.2972  1.0438
15325TIP3   OH267465   4.090   3.135   5.544 -0.1795  0.4348 -0.5190
15325TIP3    H167466   4.043   3.119   5.462 -1.2056 -2.9521  0.5570
15325TIP3    H267467   4.122   3.049   5.570  3.0080  1.9236  1.0300
15326TIP3   OH267468   1.849   0.947   3.654  0.0691  0.0680  0.3857
15326TIP3    H167469   1.939   0.968   3.681  0.6529 -2.0151  0.2676
15326TIP3    H267470   1.810   1.032   3.633  2.0159  1.0344  0.4064
15327TIP3   OH267471   1.113   1.223  14.484 -0.2081  0.3169  0.4591
15327TIP3    H167472   1.124   1.295  14.546  0.6357  0.3002  0.3452
15327TIP3    H267473   1.175   1.156  14.513 -0.2977  0.0293  0.0047
15328TIP3   OH267474   6.726   6.656   4.129 -0.2118  0.5382  0.2094
15328TIP3    H167475   6.759   6.712   4.059 -0.1489  0.9703  0.5811
15328TIP3    H267476   6.798   6.651   4.192 -1.2956  2.6527  1.7245
15329TIP3   OH267477   2.019   1.379   1.385  0.3605 -0.3197  0.2335
15329TIP3    H167478   2.013   1.470   1.414  0.0754 -0.2892  0.0789
15329TIP3    H267479   1.934   1.359   1.347  0.9651 -0.0891 -1.3350
15330TIP3   OH267480   3.706   4.741   4.263 -0.3155 -0.0858 -0.3103
15330TIP3    H167481   3.778   4.688   4.298  0.0073  0.2452 -0.4684
15330TIP3    H267482   3.635   4.678   4.248 -0.2109 -0.3411  0.2537
15331TIP3   OH267483   2.441   3.194  15.739 -0.0521 -0.0369 -0.4182
15331TIP3    H167484   2.488   3.212  15.657 -0.0304 -1.4096 -0.7476
15331TIP3    H267485   2.491   3.123  15.779 -1.1962 -0.7654 -0.2251
15332TIP3   OH267486   1.067   0.751   1.268  0.5695  0.4057  0.0977
15332TIP3    H167487   1.088   0.744   1.361 -1.5693  2.3429  0.8287
15332TIP3    H267488   1.135   0.809   1.233  2.2138 -1.4327  0.0463
15333TIP3   OH267489   0.971   0.138   5.977  0.4942 -0.0847 -0.2303
15333TIP3    H167490   0.997   0.198   6.048  0.0791  0.7285 -0.7531
15333TIP3    H267491   0.925   0.066   6.022 -2.7100  1.9836  0.1694
15334TIP3   OH267492   2.616   2.181  12.330 -0.0458  0.3631  0.3606
15334TIP3    H167493   2.616   2.239  12.253 -0.4611  1.5643  1.2367
15334TIP3    H267494   2.703   2.142  12.330 -0.1835 -0.0209 -0.9759
15335TIP3   OH267495   4.897   2.123   0.624 -0.0015  0.4344  0.5834
15335TIP3    H167496   4.924   2.100   0.535  0.6879  1.6212  0.4685
15335TIP3    H267497   4.870   2.040   0.663  0.5156 -0.2369 -0.4457
15336TIP3   OH267498   1.508   5.522  16.345  0.1352 -0.2937 -0.5617
15336TIP3    H167499   1.497   5.614  16.318 -1.8438 -0.3913 -0.2823
15336TIP3    H267500   1.569   5.485  16.281 -0.7375  0.6810 -2.0208
15337TIP3   OH267501   4.187   4.644   6.200  0.0880  0.8857  0.2255
15337TIP3    H167502   4.121   4.708   6.174  0.8114  1.8360  0.7078
15337TIP3    H267503   4.258   4.695   6.238  0.6106 -0.2094  0.7807
15338TIP3   OH267504   0.766   2.064  15.979 -0.3550 -0.2588 -0.3939
15338TIP3    H167505   0.719   2.130  16.031 -0.2923 -0.1628 -0.4589
15338TIP3    H267506   0.752   2.090  15.888 -0.6156 -0.5300 -0.4335
15339TIP3   OH267507   5.075   6.214  12.983 -0.9395 -0.0400 -0.5198
15339TIP3    H167508   4.999   6.213  13.041 -1.2707  1.8092 -0.8567
15339TIP3    H267509   5.039   6.196  12.896 -0.6555 -1.3649 -0.3725
15340TIP3   OH267510   6.331   4.206   2.609 -0.0717  0.5327 -0.0890
15340TIP3    H167511   6.248   4.252   2.602  0.8230  2.3563  0.6103
15340TIP3    H267512   6.397   4.271   2.583  1.2503 -0.3676  0.8591
15341TIP3   OH267513   3.497   5.917  16.621 -0.1597 -0.4830 -0.4452
15341TIP3    H167514   3.563   5.986  16.630 -0.1120 -0.5815 -0.0000
15341TIP3    H267515   3.540   5.849  16.570  0.6155 -1.1834  1.0732
15342TIP3   OH267516   2.255   0.361   2.116  0.1042 -0.0365 -0.0276
15342TIP3    H167517   2.193   0.301   2.074 -0.6013  1.1827 -0.7754
15342TIP3    H267518   2.280   0.423   2.048  0.6112  0.6871  0.7893
15343TIP3   OH267519   6.275   3.123  11.849 -0.1724 -0.1363  0.4437
15343TIP3    H167520   6.200   3.177  11.823 -0.4225 -1.0166 -0.7352
15343TIP3    H267521   6.334   3.127  11.773 -0.1716 -1.4663  0.3678
15344TIP3   OH267522   4.969   5.046  16.184 -0.2351 -0.0685 -0.2636
15344TIP3    H167523   5.016   5.069  16.265 -1.1232 -0.6284  0.4369
15344TIP3    H267524   4.885   5.013  16.215 -0.0177 -1.7479 -1.3283
15345TIP3   OH267525   5.624   4.769   4.672 -0.2101 -0.0525  0.3110
15345TIP3    H167526   5.659   4.713   4.603 -0.4509 -1.2201  1.1031
15345TIP3    H267527   5.591   4.846   4.626  0.2638 -0.4883 -0.7953
15346TIP3   OH267528   2.943   3.948  15.803 -0.3106 -0.5786  0.2853
15346TIP3    H167529   2.993   3.892  15.862 -0.1769 -1.6900 -0.8343
15346TIP3    H267530   2.954   4.036  15.838 -0.4952 -1.2298  2.0826
15347TIP3   OH267531   0.457   1.008  11.679 -0.0539 -0.3538  0.3374
15347TIP3    H167532   0.422   0.992  11.766 -0.6889  1.2414  0.4107
15347TIP3    H267533   0.484   1.100  11.680  1.5648 -0.7685 -0.6187
15348TIP3   OH267534   5.192   4.719   3.591 -0.1693  0.2507 -0.7752
15348TIP3    H167535   5.263   4.776   3.561  0.5626 -1.8456 -3.4652
15348TIP3    H267536   5.212   4.703   3.683  1.5061  1.5687 -0.8450
15349TIP3   OH267537   2.158   3.192  12.532  0.0647  0.5157  0.6179
15349TIP3    H167538   2.229   3.228  12.586 -0.4202  2.4988  0.0101
15349TIP3    H267539   2.186   3.210  12.442 -0.7036  0.3254  0.3386
15350TIP3   OH267540   5.542   0.373  16.640  0.1216  0.0768  0.6606
15350TIP3    H167541   5.577   0.292  16.602  0.8836  1.3116 -1.4456
15350TIP3    H267542   5.477   0.344  16.704  2.5129 -2.2651  2.2330
15351TIP3   OH267543   3.701   6.811  15.421 -0.0241 -0.2200  0.1340
15351TIP3    H167544   3.612   6.774  15.419 -0.2528  0.3129  0.4500
15351TIP3    H267545   3.756   6.739  15.389 -0.7433 -0.0479 -1.6451
15352TIP3   OH267546   4.507   3.618  11.897  0.3946 -0.2901 -0.2154
15352TIP3    H167547   4.535   3.563  11.970 -0.1196 -1.3136 -0.7694
15352TIP3    H267548   4.412   3.626  11.909  0.5370  1.0562  0.2321
15353TIP3   OH267549   3.965   5.198  10.570  0.3574  0.1797  0.4184
15353TIP3    H167550   4.002   5.284  10.590 -0.8339  0.7105  0.4048
15353TIP3    H267551   4.011   5.138  10.629  2.4415  0.5267 -0.7652
15354TIP3   OH267552   5.913   3.056  17.203  0.3332 -0.3616 -0.7001
15354TIP3    H167553   5.896   3.002  17.126  0.1312  0.0077 -0.9204
15354TIP3    H267554   5.826   3.085  17.231  0.3232 -1.2289  0.2113
15355TIP3   OH267555   0.793   0.123   5.382  0.4506  0.8666 -0.3514
15355TIP3    H167556   0.814   0.056   5.318 -0.9293 -0.5433  0.5939
15355TIP3    H267557   0.847   0.101   5.458  0.7619  1.4690 -0.3898
15356TIP3   OH267558   3.665   6.370  14.218  0.1777  0.5641 -0.1650
15356TIP3    H167559   3.588   6.384  14.274  1.2952  2.7162  0.9640
15356TIP3    H267560   3.628   6.342  14.134 -1.7915  0.7009  0.5914
15357TIP3   OH267561   6.664   0.376   3.073 -0.0829  0.6244  0.0746
15357TIP3    H167562   6.754   0.344   3.069  0.4557  2.1928 -1.9761
15357TIP3    H267563   6.614   0.314   3.021 -0.1975 -0.1653  1.0933
15358TIP3   OH267564   3.943   1.052  10.635 -0.0918 -0.4202  0.0626
15358TIP3    H167565   3.921   1.013  10.720 -1.0107 -0.0103  0.0258
15358TIP3    H267566   3.995   1.129  10.656  0.1360 -0.6153  0.2221
15359TIP3   OH267567   3.548   3.028  12.014 -0.4005 -0.5985  0.3556
15359TIP3    H167568   3.522   3.106  11.965 -0.8633 -0.6452  0.5233
15359TIP3    H267569   3.476   2.966  12.002 -0.1083 -0.9462  0.3523
15360TIP3   OH267570   4.661   1.517   2.225 -0.0964 -0.0461 -0.8400
15360TIP3    H167571   4.690   1.454   2.290 -1.7159  0.3422  0.3247
15360TIP3    H267572   4.627   1.590   2.276  1.4838  1.6988 -2.1611
15361TIP3   OH267573   2.762   5.435   4.838  0.3779 -0.9266  0.2052
15361TIP3    H167574   2.774   5.526   4.809  4.0250 -1.7131 -1.2910
15361TIP3    H267575   2.687   5.404   4.788 -0.3618  0.9516  0.0444
15362TIP3   OH267576   5.406   2.940   7.250 -0.2641  0.6154  0.0893
15362TIP3    H167577   5.463   3.008   7.215  1.8902 -1.3991 -0.5321
15362TIP3    H267578   5.318   2.965   7.221  0.4691  2.9975 -0.2470
15363TIP3   OH267579   5.715   4.082  15.020 -0.1416 -0.3975 -0.0026
15363TIP3    H167580   5.667   4.040  14.949  0.4348 -2.1839  0.6256
15363TIP3    H267581   5.649   4.133  15.067 -0.5655  0.6531 -1.6584
15364TIP3   OH267582   3.462   0.121   2.455  0.1451  0.2127 -0.1747
15364TIP3    H167583   3.457   0.217   2.445 -0.2087  0.1178 -1.0379
15364TIP3    H267584   3.384   0.089   2.409 -0.2019 -0.4494  0.8503
15365TIP3   OH267585   0.986   3.729   5.675 -0.0426 -0.5259  0.4321
15365TIP3    H167586   0.967   3.651   5.728  1.0721 -0.5588  0.7997
15365TIP3    H267587   1.028   3.790   5.735  1.4333 -0.6351 -0.4286
15366TIP3   OH267588   1.312   4.119  16.286 -0.0284 -0.4560  0.1624
15366TIP3    H167589   1.403   4.101  16.311 -0.4771 -3.1511  0.1657
15366TIP3    H267590   1.288   4.046  16.229 -1.9518  0.6553 -0.5485
15367TIP3   OH267591   2.290   3.554   4.066 -0.1893 -0.7140  0.1570
15367TIP3    H167592   2.218   3.528   4.008  1.0518  0.1417 -1.8732
15367TIP3    H267593   2.286   3.649   4.069  0.8156 -0.6606  0.0787
15368TIP3   OH267594   5.108   3.940  16.988  0.5799  0.2738 -0.1386
15368TIP3    H167595   5.128   3.847  17.001 -0.3277  0.0230 -0.4504
15368TIP3    H267596   5.014   3.947  17.005  0.5104  1.0090 -0.7705
15369TIP3   OH267597   4.716   5.047  13.067 -0.3250  0.5193 -0.1919
15369TIP3    H167598   4.800   5.087  13.091  0.5789 -1.0456 -0.6089
15369TIP3    H267599   4.726   5.023  12.975 -1.0509 -0.1243 -0.1138
15370TIP3   OH267600   1.741   5.686   2.031 -0.5794 -0.8501 -0.3419
15370TIP3    H167601   1.827   5.728   2.030 -0.6944 -0.4733  1.4607
15370TIP3    H267602   1.730   5.656   2.121 -3.0202  0.5872 -0.0590
15371TIP3   OH267603   1.222   3.521   2.575  0.0526  0.0243 -0.3684
15371TIP3    H167604   1.283   3.532   2.648  0.4644 -0.5630 -0.6165
15371TIP3    H267605   1.158   3.591   2.587  1.4093  1.3938 -0.7432
15372TIP3   OH267606   0.150   3.487   3.725  0.7901  0.2131  0.1831
15372TIP3    H167607   0.100   3.417   3.682  1.7378 -0.1695 -0.3093
15372TIP3    H267608   0.124   3.566   3.678  2.4689 -0.3028 -1.7757
15373TIP3   OH267609   3.497   0.730  16.604  0.2119  0.4715 -0.2873
15373TIP3    H167610   3.408   0.745  16.637  0.2026  1.5848 -0.7777
15373TIP3    H267611   3.484   0.709  16.512  0.4495  0.3690 -0.2972
15374TIP3   OH267612   3.669   6.409  12.554 -0.3901 -0.0981 -0.6286
15374TIP3    H167613   3.747   6.461  12.576  0.9006 -1.9682 -0.4612
15374TIP3    H267614   3.601   6.473  12.537  1.1721  1.6367 -0.7087
15375TIP3   OH267615   3.081   1.346   2.030 -0.1014  0.1768 -0.4054
15375TIP3    H167616   3.166   1.334   1.988  0.9337  0.3501  1.5064
15375TIP3    H267617   3.066   1.265   2.078 -0.4254  0.6048  0.2355
15376TIP3   OH267618   0.705   6.354  13.931  0.4033  0.3604 -0.1857
15376TIP3    H167619   0.679   6.427  13.987 -0.2227  0.0601 -0.0775
15376TIP3    H267620   0.796   6.336  13.956 -0.1727 -0.4514  1.5000
15377TIP3   OH267621   4.039   3.715   0.395  0.0437 -0.0273 -0.0544
15377TIP3    H167622   4.110   3.778   0.405  0.9617 -0.8358 -1.2042
15377TIP3    H267623   3.983   3.752   0.327  0.5073 -0.3696 -0.6303
15378TIP3   OH267624   0.403   5.072  12.888  0.3327 -0.7621 -0.1332
15378TIP3    H167625   0.463   5.064  12.813 -0.3391  1.6663 -1.0389
15378TIP3    H267626   0.455   5.116  12.955  0.2407 -0.7577 -0.0644
15379TIP3   OH267627   3.030   1.883  12.289  0.5511 -0.1557  0.3671
15379TIP3    H167628   3.101   1.829  12.255 -0.2382 -1.5674  0.8950
15379TIP3    H267629   3.068   1.927  12.365  1.0011 -0.5130  0.3506
15380TIP3   OH267630   3.504   2.703  12.163 -0.2255 -0.3143  0.8932
15380TIP3    H167631   3.418   2.734  12.191 -1.0121 -2.9456  1.6539
15380TIP3    H267632   3.510   2.728  12.071 -2.4396 -1.2788  0.4135
15381TIP3   OH267633   2.012   4.637   2.559  0.8622  0.0932  0.1270
15381TIP3    H167634   1.939   4.584   2.592  0.9108 -0.1204 -0.1026
15381TIP3    H267635   2.089   4.601   2.604  1.0742 -0.8900 -0.9764
15382TIP3   OH267636   4.306   0.949  14.963  0.1859 -0.3270  0.0866
15382TIP3    H167637   4.323   0.914  15.050  0.0508 -0.8963 -0.1086
15382TIP3    H267638   4.320   1.043  14.971 -2.8142  0.1268  1.5292
15383TIP3   OH267639   5.774   1.070  13.324 -0.7683  0.1579  0.3778
15383TIP3    H167640   5.734   1.016  13.256 -0.7187  0.4312  0.1270
15383TIP3    H267641   5.754   1.160  13.297 -0.2559  0.2858  0.4189
15384TIP3   OH267642   0.494   3.975   0.739  0.1209  0.0840  0.0588
15384TIP3    H167643   0.565   3.939   0.792  0.4820  0.5457 -0.0961
15384TIP3    H267644   0.415   3.955   0.789  0.0914 -2.5338 -0.9024
15385TIP3   OH267645   1.357   4.595  15.131 -0.3795 -0.2278 -0.1320
15385TIP3    H167646   1.328   4.583  15.041 -2.7666 -0.8363  0.6218
15385TIP3    H267647   1.359   4.689  15.144 -1.7857 -0.1313 -0.3790
15386TIP3   OH267648   4.454   1.249   3.516 -0.1598  0.2230 -0.2052
15386TIP3    H167649   4.505   1.234   3.437 -0.7204 -0.8785 -0.3839
15386TIP3    H267650   4.402   1.327   3.497  1.1973  1.1730 -0.1317
15387TIP3   OH267651   4.332   6.040  12.411 -0.0814  0.6764 -0.0375
15387TIP3    H167652   4.352   5.955  12.371 -1.1715  1.1877 -1.8006
15387TIP3    H267653   4.236   6.043  12.412 -0.0510  1.6980  0.4122
15388TIP3   OH267654   6.191   3.156   4.561  0.1251  0.4442  0.2382
15388TIP3    H167655   6.282   3.184   4.567  0.3314  0.6898 -2.5787
15388TIP3    H267656   6.141   3.234   4.583  0.5822  0.4995  1.1255
15389TIP3   OH267657   1.517   6.102  13.475 -0.5555 -0.2779 -0.0792
15389TIP3    H167658   1.463   6.023  13.468 -0.5390 -0.3010  0.0417
15389TIP3    H267659   1.457   6.168  13.510 -1.5681  0.7715 -3.4134
15390TIP3   OH267660   4.449   0.943  12.427 -0.2896 -0.0975  0.1493
15390TIP3    H167661   4.511   0.885  12.471 -0.3637 -1.3759 -1.3158
15390TIP3    H267662   4.500   1.021  12.405  1.0265 -1.3386 -1.5042
15391TIP3   OH267663   2.127   2.650   2.711  0.2237 -0.4600 -0.5198
15391TIP3    H167664   2.153   2.740   2.731 -0.3579 -0.4962  0.5328
15391TIP3    H267665   2.044   2.660   2.664  1.9553 -0.3446 -3.8421
15392TIP3   OH267666   0.483   5.360   1.153  0.3560  0.3793  0.1408
15392TIP3    H167667   0.537   5.379   1.076 -1.5351  0.2525 -1.2667
15392TIP3    H267668   0.452   5.446   1.182  0.3838  0.3550  0.2423
15393TIP3   OH267669   0.097   2.862  11.565  0.0211 -0.2042  0.1753
15393TIP3    H167670   0.091   2.930  11.498  1.0751 -0.3120 -0.0375
15393TIP3    H267671   0.014   2.868  11.612  0.1675  1.3476  0.2885
15394TIP3   OH267672   3.444   4.306  14.068 -0.6712 -0.7021 -0.4735
15394TIP3    H167673   3.522   4.251  14.062 -0.1974 -0.3412  1.6477
15394TIP3    H267674   3.383   4.255  14.122 -0.1723  0.8592  1.6524
15395TIP3   OH267675   3.924   4.471  16.806 -0.2193  0.2868 -0.2227
15395TIP3    H167676   3.856   4.415  16.768  1.0515  0.5094 -3.1375
15395TIP3    H267677   4.005   4.422  16.793  0.3740  0.4484  2.3073
15396TIP3   OH267678   5.261   2.491   3.642 -0.2195  0.1715 -0.0031
15396TIP3    H167679   5.191   2.536   3.596 -0.4421  0.5413  0.6857
15396TIP3    H267680   5.257   2.401   3.611  0.6947  0.7370 -1.9682
15397TIP3   OH267681   5.780   5.011   1.605  0.2253 -0.2819  0.2828
15397TIP3    H167682   5.860   4.958   1.599  1.1204  1.1749 -2.1047
15397TIP3    H267683   5.729   4.986   1.527 -0.9022 -0.0140  0.9143
15398TIP3   OH267684   3.237   6.491  10.770  0.0494  0.2690 -0.0887
15398TIP3    H167685   3.280   6.471  10.687 -1.1130 -0.6638 -0.4875
15398TIP3    H267686   3.300   6.464  10.837  0.4929 -0.1350 -0.6600
15399TIP3   OH267687   5.223   0.812  15.861 -0.2606 -1.3853  0.4736
15399TIP3    H167688   5.154   0.877  15.848  0.4236 -0.8726 -0.7295
15399TIP3    H267689   5.243   0.816  15.955 -1.0634 -0.7319  0.6240
15400TIP3   OH267690   1.762   5.364   2.514  0.7744 -0.6592  0.2986
15400TIP3    H167691   1.727   5.291   2.462 -0.9622  0.8733 -0.7823
15400TIP3    H267692   1.856   5.361   2.498  0.5148 -1.5013 -1.2636
15401TIP3   OH267693   6.221   0.868  12.322 -0.0770  0.4379  0.5088
15401TIP3    H167694   6.141   0.823  12.351 -0.3729 -0.6636 -1.7696
15401TIP3    H267695   6.190   0.931  12.256  0.9194 -0.1110 -0.5110
15402TIP3   OH267696   6.512   4.946  11.693 -0.0974  0.1800 -0.1790
15402TIP3    H167697   6.556   4.968  11.775 -0.4069 -3.5527  1.1732
15402TIP3    H267698   6.437   5.006  11.689 -1.0108 -0.5441  3.1637
15403TIP3   OH267699   3.027   5.693   0.425  0.5186 -0.2793 -0.4630
15403TIP3    H167700   3.092   5.635   0.464  1.5702 -0.6195 -2.5656
15403TIP3    H267701   3.065   5.781   0.432 -0.0652 -0.0954  0.7134
15404TIP3   OH267702   2.914   2.645   3.185 -0.1821  0.2782 -0.2396
15404TIP3    H167703   2.950   2.705   3.120  3.0865  1.2228  2.1413
15404TIP3    H267704   2.964   2.565   3.174  0.9138  0.6764  1.4119
15405TIP3   OH267705   3.552   3.437  14.073 -0.0600  0.0904 -0.3163
15405TIP3    H167706   3.563   3.342  14.083 -0.4391  0.1614  0.9813
15405TIP3    H267707   3.547   3.470  14.162 -1.2210  1.1796 -0.7507
15406TIP3   OH267708   6.761   3.297  13.343 -0.5438 -0.0776  0.0663
15406TIP3    H167709   6.855   3.277  13.336 -0.4836  0.1957  0.0929
15406TIP3    H267710   6.721   3.251  13.269 -0.3776 -0.1289  0.0089
15407TIP3   OH267711   6.027   2.465   1.769  0.4768  0.2527  0.1538
15407TIP3    H167712   6.037   2.469   1.674  0.1961  1.2328  0.1619
15407TIP3    H267713   6.097   2.521   1.803 -0.1153  0.8027  0.4840
15408TIP3   OH267714   4.677   1.486  15.986 -0.2132  0.3459  0.3215
15408TIP3    H167715   4.648   1.494  15.895  0.7429 -0.8702 -0.1206
15408TIP3    H267716   4.598   1.504  16.038 -0.9296  0.4268 -0.7598
15409TIP3   OH267717   2.307   2.666  15.302 -0.0314  0.2955 -0.4038
15409TIP3    H167718   2.214   2.675  15.281 -0.5053  2.4013  2.0362
15409TIP3    H267719   2.308   2.640  15.394  1.8248 -0.6583 -0.6397
15410TIP3   OH267720   3.702   5.307  10.711 -0.7452 -0.0721 -0.1835
15410TIP3    H167721   3.779   5.316  10.654 -0.0312 -0.9647  0.5933
15410TIP3    H267722   3.739   5.303  10.799 -1.7039 -0.2943  0.2137
15411TIP3   OH267723   1.304   2.644   3.957  0.1165  0.4630 -0.1278
15411TIP3    H167724   1.394   2.619   3.979 -0.1569  1.5758  2.6700
15411TIP3    H267725   1.287   2.722   4.011 -1.4808  2.2708 -3.0040
15412TIP3   OH267726   1.522   5.214  11.909  0.2852 -0.0251  0.6856
15412TIP3    H167727   1.562   5.227  11.995  2.3977  0.8698 -0.3612
15412TIP3    H267728   1.539   5.122  11.889 -2.7351 -1.0838  2.3393
15413TIP3   OH267729   0.863   6.782  13.037  0.5752  0.5318 -0.6106
15413TIP3    H167730   0.933   6.730  12.997  1.0987  0.9943 -0.3024
15413TIP3    H267731   0.860   6.862  12.985 -0.2678  0.1813 -1.1183
15414TIP3   OH267732   0.890   1.063   4.293  0.1582 -0.4045 -0.1213
15414TIP3    H167733   0.816   1.121   4.278  0.7703 -0.0024 -1.7297
15414TIP3    H267734   0.877   0.990   4.232  1.2694 -0.1447 -0.6921
15415TIP3   OH267735   3.888   3.094   5.710  0.0178 -0.2984  0.4872
15415TIP3    H167736   3.965   3.125   5.663 -1.0692  1.4722 -0.2254
15415TIP3    H267737   3.883   3.000   5.690  1.3464 -0.2110 -0.3495
15416TIP3   OH267738   4.790   2.328   4.567 -0.6461  0.1846  0.4019
15416TIP3    H167739   4.850   2.319   4.641 -2.0615 -2.2363  1.3768
15416TIP3    H267740   4.798   2.246   4.518 -0.2905  1.4350 -1.7840
15417TIP3   OH267741   0.367   0.003   4.844 -0.0850  0.0136  0.3109
15417TIP3    H167742   0.442   0.051   4.878  0.5851 -1.2939  0.7533
15417TIP3    H267743   0.294   0.065   4.849  0.9407  1.3114 -0.1271
15418TIP3   OH267744   3.759   5.379   1.748  0.2080 -0.5530 -0.7067
15418TIP3    H167745   3.805   5.341   1.823 -0.5002 -0.9030 -0.4391
15418TIP3    H267746   3.730   5.304   1.697  0.3901 -0.3231 -1.1592
15419TIP3   OH267747   4.218   5.685   5.385 -0.0164 -1.1264 -0.2974
15419TIP3    H167748   4.288   5.661   5.325 -0.3231 -0.4366 -0.9346
15419TIP3    H267749   4.179   5.763   5.347  1.7704  1.2622  2.3881
15420TIP3   OH267750   2.683   0.318  16.002  0.2177  0.0847 -0.4218
15420TIP3    H167751   2.766   0.286  16.037  0.7597  0.1852 -1.5503
15420TIP3    H267752   2.625   0.324  16.078  0.5667 -2.0232  0.0741
15421TIP3   OH267753   4.208   2.831   5.647 -0.4665 -0.2882  0.3219
15421TIP3    H167754   4.211   2.784   5.730  0.2875 -2.3403 -0.7833
15421TIP3    H267755   4.191   2.763   5.582  0.1723  1.0685 -1.3386
15422TIP3   OH267756   4.783   4.531  14.916 -0.5086  0.2486 -0.4405
15422TIP3    H167757   4.759   4.441  14.938 -2.6514  0.1016 -2.9300
15422TIP3    H267758   4.800   4.573  15.001 -1.4081 -1.9709  0.9114
15423TIP3   OH267759   1.138   1.644  14.370  0.0308  0.0623 -0.3512
15423TIP3    H167760   1.189   1.716  14.408 -0.8302  1.3062 -1.4309
15423TIP3    H267761   1.051   1.682  14.356 -0.2580 -0.9837 -1.5934
15424TIP3   OH267762   6.175   2.063  14.420 -0.8245 -0.4690 -0.1629
15424TIP3    H167763   6.125   2.067  14.501  2.0382  0.9053  1.6881
15424TIP3    H267764   6.240   1.995  14.434  0.7029  0.8253 -0.6226
15425TIP3   OH267765   6.001   5.156  12.257  0.1273 -0.5042  0.2115
15425TIP3    H167766   6.016   5.246  12.227  1.1213 -0.3680  1.0711
15425TIP3    H267767   6.084   5.129  12.295 -0.3266 -1.6060  0.4661
15426TIP3   OH267768   4.967   6.008  17.023  0.1446 -0.1919 -0.1918
15426TIP3    H167769   4.942   5.978  16.936  0.4673 -1.0136 -0.0174
15426TIP3    H267770   5.031   5.943  17.053 -1.8489 -1.4079  1.6696
15427TIP3   OH267771   4.196   6.174   2.069  0.1247 -0.2134 -0.1924
15427TIP3    H167772   4.135   6.203   2.002 -0.9305 -0.2848  0.7089
15427TIP3    H267773   4.170   6.223   2.148  2.4521  1.2599 -0.2151
15428TIP3   OH267774   1.667   4.057   3.994  0.6408  0.0956  0.0467
15428TIP3    H167775   1.738   4.115   4.021  0.7963 -0.5280  1.0221
15428TIP3    H267776   1.591   4.114   3.986  0.8742  0.4974  0.6338
15429TIP3   OH267777   5.225   4.714  15.971  0.3700  0.4258 -0.4775
15429TIP3    H167778   5.199   4.739  16.060  2.6201 -1.2353  0.7372
15429TIP3    H267779   5.166   4.764  15.914 -2.5512  0.0065  1.9343
15430TIP3   OH267780   4.051   1.718  12.544 -0.5611  0.3640  0.1945
15430TIP3    H167781   3.987   1.789  12.557 -1.0115 -0.1673  0.9103
15430TIP3    H267782   4.134   1.764  12.528 -0.2107  1.1384  3.5504
15431TIP3   OH267783   0.489   5.631   2.994  0.1078  0.2966  0.0639
15431TIP3    H167784   0.541   5.705   3.026  0.4028  0.7564 -1.3766
15431TIP3    H267785   0.458   5.587   3.073 -0.0093  1.9135  0.9719
15432TIP3   OH267786   1.675   6.483  15.684  0.1543 -0.2827  0.5338
15432TIP3    H167787   1.655   6.403  15.733 -2.8420 -1.0814 -1.7193
15432TIP3    H267788   1.768   6.475  15.663  0.0062 -3.1240  0.5324
15433TIP3   OH267789   2.821   0.084  13.114  0.1443 -0.0790  0.3355
15433TIP3    H167790   2.797   0.171  13.146  1.8176  0.6943 -0.4177
15433TIP3    H267791   2.747   0.057  13.061  0.4745  1.8401 -1.1914
15434TIP3   OH267792   0.878   1.798  16.985 -0.1595  0.2683 -0.7042
15434TIP3    H167793   0.884   1.813  17.080  1.3843  1.5972 -0.9685
15434TIP3    H267794   0.941   1.858  16.947 -1.4947  0.5270 -2.6857
15435TIP3   OH267795   1.631   1.442  15.254  0.8951  0.0705  0.3366
15435TIP3    H167796   1.539   1.423  15.233  1.0749 -1.5267  0.8512
15435TIP3    H267797   1.680   1.417  15.176  0.9698  0.2226  0.3341
15436TIP3   OH267798   4.396   3.087   0.857 -0.1944 -0.0302  0.4258
15436TIP3    H167799   4.306   3.120   0.862 -0.0046  0.3375  3.4666
15436TIP3    H267800   4.444   3.156   0.811 -1.6728 -1.0220 -2.8832
15437TIP3   OH267801   0.261   0.686  14.025 -0.4887  0.4125  0.1514
15437TIP3    H167802   0.279   0.595  14.000 -1.8150  0.1285  0.1220
15437TIP3    H267803   0.193   0.679  14.092 -0.3225  1.3684  0.4256
15438TIP3   OH267804   6.679   2.658   5.200 -0.2492  0.5105 -0.3473
15438TIP3    H167805   6.642   2.610   5.127 -0.8605  0.8264 -0.2552
15438TIP3    H267806   6.658   2.606   5.277 -0.4572  0.6618 -0.3006
15439TIP3   OH267807   0.862   1.467  11.199  0.3250 -0.4632 -0.0272
15439TIP3    H167808   0.841   1.534  11.134  1.9042 -1.5502 -1.7673
15439TIP3    H267809   0.935   1.504  11.248 -0.5421  0.1493  0.8463
15440TIP3   OH267810   4.063   5.454   1.626 -0.0630  0.0802  0.0269
15440TIP3    H167811   4.112   5.408   1.694  0.6867  2.0404  0.8872
15440TIP3    H267812   3.973   5.456   1.657  0.1755  0.4708  0.6997
15441TIP3   OH267813   2.476   0.016   1.631 -0.4160  0.1820  0.7502
15441TIP3    H167814   2.464   0.088   1.570 -2.3199  0.1015  0.9934
15441TIP3    H267815   2.427   0.041   1.709 -0.0602 -0.8228  1.3252
15442TIP3   OH267816   6.581   2.595   4.304  0.2280  0.4563 -0.8506
15442TIP3    H167817   6.553   2.519   4.252  4.0105 -1.8801  0.0896
15442TIP3    H267818   6.662   2.624   4.261  2.3134 -0.2089  2.3346
15443TIP3   OH267819   5.466   3.110   5.938  0.3207 -0.1369  0.0857
15443TIP3    H167820   5.540   3.146   5.987 -0.2449  0.1611  0.7467
15443TIP3    H267821   5.451   3.024   5.977  2.0520 -1.4278 -1.8909
15444TIP3   OH267822   1.182   2.941   3.151  0.0993  0.5316  0.2135
15444TIP3    H167823   1.247   2.917   3.216  0.6036 -1.1955 -0.8586
15444TIP3    H267824   1.100   2.903   3.183  0.2307  0.1637  0.1129
15445TIP3   OH267825   5.234   4.316  16.563 -0.3014 -0.1813 -0.1193
15445TIP3    H167826   5.162   4.256  16.582  0.1495 -0.6217  0.2567
15445TIP3    H267827   5.259   4.351  16.649  2.1449 -2.6389  0.3548
15446TIP3   OH267828   6.378   2.066   5.573 -0.0654 -0.0327 -0.2061
15446TIP3    H167829   6.329   2.149   5.573 -0.5856 -0.3217 -1.7242
15446TIP3    H267830   6.380   2.041   5.665 -1.7306  0.6079  0.0475
15447TIP3   OH267831   3.636   0.551  11.948  0.1597  0.3668 -0.0888
15447TIP3    H167832   3.726   0.572  11.924  0.9118 -3.3060 -1.1851
15447TIP3    H267833   3.634   0.558  12.044  1.4549  1.0655 -0.0967
15448TIP3   OH267834   0.634   2.287   0.465 -0.9164 -0.3389  0.2119
15448TIP3    H167835   0.587   2.252   0.389  0.3388 -1.3683 -0.1195
15448TIP3    H267836   0.722   2.305   0.433 -0.5622 -0.1213  1.2652
15449TIP3   OH267837   5.881   4.582  17.187 -0.1919  0.2491 -0.3994
15449TIP3    H167838   5.944   4.654  17.191 -2.1379  2.2155 -2.1783
15449TIP3    H267839   5.836   4.584  17.271 -0.9639  1.9302 -0.8097
15450TIP3   OH267840   5.939   6.302  16.746  0.2576 -0.9390  0.5499
15450TIP3    H167841   5.933   6.293  16.841  0.4462  0.5101  0.7072
15450TIP3    H267842   5.982   6.386  16.731 -1.8219 -0.0354 -0.8247
15451TIP3   OH267843   0.516   0.201   0.734 -0.3387  0.6913 -0.1174
15451TIP3    H167844   0.421   0.209   0.747 -0.0449  2.6492  1.1082
15451TIP3    H267845   0.553   0.205   0.822  1.0032  2.1677 -0.6948
15452TIP3   OH267846   1.980   4.857   0.674 -0.6992  0.4932 -0.0950
15452TIP3    H167847   2.068   4.825   0.695 -1.0952 -0.9824 -0.5259
15452TIP3    H267848   1.956   4.913   0.748  0.0159 -0.3293  0.7810
15453TIP3   OH267849   0.886   1.702   4.467  0.1738 -0.2262 -0.5658
15453TIP3    H167850   0.821   1.767   4.440  0.5988 -0.5285 -2.3940
15453TIP3    H267851   0.944   1.692   4.392  0.7650 -1.9189  0.0646
15454TIP3   OH267852   1.648   0.755   0.335  0.2973 -0.6860  0.4404
15454TIP3    H167853   1.672   0.700   0.410 -1.1554 -1.0164  0.7057
15454TIP3    H267854   1.606   0.831   0.374  1.5125  0.2199  0.0312
15455TIP3   OH267855   2.198   3.990  16.407 -0.3872  0.0063 -0.1419
15455TIP3    H167856   2.171   3.911  16.455  0.8931  0.1120  0.7936
15455TIP3    H267857   2.182   4.062  16.468 -2.0068  0.5749 -1.1632
15456TIP3   OH267858   4.665   5.964   3.688  0.5168  0.0723 -0.2862
15456TIP3    H167859   4.739   5.903   3.694  1.0737  0.6599 -1.0439
15456TIP3    H267860   4.591   5.909   3.660  1.3153 -0.0732 -2.2572
15457TIP3   OH267861   5.165   0.483  13.446  0.2022 -0.4654  0.2620
15457TIP3    H167862   5.254   0.482  13.482  0.6468  0.4589 -0.7639
15457TIP3    H267863   5.138   0.392  13.446  0.7363 -0.6427  1.5781
15458TIP3   OH267864   3.931   5.665  13.397 -0.2996  0.0714  0.1480
15458TIP3    H167865   3.954   5.704  13.313 -0.8905  3.5699  1.4277
15458TIP3    H267866   4.013   5.663  13.446 -0.1137 -1.2023 -0.1721
15459TIP3   OH267867   4.678   3.840  11.219 -0.4699 -0.2677  0.1447
15459TIP3    H167868   4.763   3.878  11.197 -2.0285  2.1016 -2.3293
15459TIP3    H267869   4.641   3.811  11.135 -2.2019 -1.0656  1.1149
15460TIP3   OH267870   6.717   3.700  15.187 -0.2640 -0.8777  0.3383
15460TIP3    H167871   6.765   3.619  15.167 -1.1378 -1.5460  0.9008
15460TIP3    H267872   6.786   3.766  15.195  0.4206 -1.3923 -0.8728
15461TIP3   OH267873   4.345   5.024   3.623 -0.2258 -0.2766 -0.3039
15461TIP3    H167874   4.326   4.961   3.552 -1.9189  0.0522 -0.1928
15461TIP3    H267875   4.269   5.082   3.624  1.2842  1.8279 -0.4001
15462TIP3   OH267876   4.182   4.720   5.932  0.2533 -0.8159 -0.2137
15462TIP3    H167877   4.260   4.760   5.894  0.4882 -0.3092  0.7923
15462TIP3    H267878   4.135   4.793   5.973  1.0356 -1.6020  2.2592
15463TIP3   OH267879   4.922   4.332   1.238 -0.7391 -0.5449 -0.2378
15463TIP3    H167880   4.973   4.361   1.163 -1.6701 -1.0337 -1.0822
15463TIP3    H267881   4.961   4.378   1.313  0.7295 -0.6838 -0.8857
15464TIP3   OH267882   0.479   0.432   5.439 -0.1937 -0.5973 -0.0554
15464TIP3    H167883   0.421   0.410   5.366 -0.2635  0.8253 -0.4551
15464TIP3    H267884   0.455   0.370   5.508 -2.9726  0.5897  0.1972
15465TIP3   OH267885   0.776   3.387  11.496  0.2380 -0.2366  0.1968
15465TIP3    H167886   0.681   3.375  11.489 -0.2180  2.2043  1.2597
15465TIP3    H267887   0.797   3.452  11.429  0.8292  0.5723  1.1333
15466TIP3   OH267888   3.455   3.900  16.697 -0.3951 -0.0130 -0.2045
15466TIP3    H167889   3.442   3.894  16.791 -2.4193  0.3078 -0.4197
15466TIP3    H267890   3.540   3.859  16.682 -0.4467 -0.9109  1.6501
15467TIP3   OH267891   1.933   2.713   1.831  0.2537  0.3714  0.2653
15467TIP3    H167892   2.004   2.696   1.893  1.4108 -1.6228 -1.4676
15467TIP3    H267893   1.977   2.718   1.746 -1.6839 -1.0120 -0.8862
15468TIP3   OH267894   4.837   4.249   2.935  0.3093  0.3721  0.4781
15468TIP3    H167895   4.912   4.216   2.984  1.5846  2.1714 -0.1937
15468TIP3    H267896   4.865   4.333   2.899 -2.2879  1.5349  0.8879
15469TIP3   OH267897   4.200   1.704   0.129 -0.3938 -0.5086  0.3031
15469TIP3    H167898   4.244   1.621   0.144 -0.4205 -0.5089  0.3809
15469TIP3    H267899   4.235   1.763   0.197 -0.8189 -0.6255  0.6287
15470TIP3   OH267900   3.792   3.185  15.746  0.4454  0.1180 -0.1886
15470TIP3    H167901   3.780   3.263  15.801 -0.9849 -0.2392  0.0533
15470TIP3    H267902   3.789   3.218  15.656 -0.7107  0.3146 -0.1043
15471TIP3   OH267903   1.676   6.773  12.388 -0.0583 -0.3051  0.1147
15471TIP3    H167904   1.647   6.695  12.434  1.6152 -0.6854  0.6059
15471TIP3    H267905   1.638   6.766  12.301 -3.9343  0.8032  1.5081
15472TIP3   OH267906   2.118   1.713   2.491  0.6149 -0.2357 -0.0320
15472TIP3    H167907   2.166   1.631   2.485  0.0745 -0.4993 -1.0527
15472TIP3    H267908   2.186   1.781   2.483  0.9133 -0.5963 -0.6388
15473TIP3   OH267909   2.831   0.860  14.977 -0.6493 -0.0336 -0.1501
15473TIP3    H167910   2.915   0.887  15.014 -0.0318  0.3437 -1.7519
15473TIP3    H267911   2.848   0.772  14.942 -1.4689 -0.7622  1.1830
15474TIP3   OH267912   0.038   6.185  14.147  0.2868 -0.2331  0.3804
15474TIP3    H167913  -0.004   6.110  14.189 -1.2122 -1.0501 -2.3084
15474TIP3    H267914   0.097   6.147  14.082  1.0861  0.9541  0.3696
15475TIP3   OH267915   3.778   0.395  14.442  0.1118  0.3270  0.3137
15475TIP3    H167916   3.826   0.338  14.503  0.4502  1.4048  1.0773
15475TIP3    H267917   3.694   0.350  14.428  0.3309 -0.3058  0.9714
15476TIP3   OH267918   5.732   2.353   1.519  0.0527  0.0211  0.4688
15476TIP3    H167919   5.729   2.427   1.579  1.2979  1.0860 -0.7117
15476TIP3    H267920   5.649   2.307   1.534  0.6387 -0.2563  3.5223
15477TIP3   OH267921   2.990   5.235   5.434  0.8583 -0.0735  0.1197
15477TIP3    H167922   2.915   5.227   5.492  1.2658 -0.8587  0.5562
15477TIP3    H267923   2.963   5.299   5.368 -0.1715 -0.3167  0.2905
15478TIP3   OH267924   1.191   5.579  17.141  0.1678 -0.0202 -0.5891
15478TIP3    H167925   1.243   5.536  17.209  0.1291  2.5844  1.2625
15478TIP3    H267926   1.102   5.579  17.177 -0.8856 -2.6670 -2.8333
15479TIP3   OH267927   5.260   3.259  13.921 -0.0270 -0.7654  0.1536
15479TIP3    H167928   5.175   3.216  13.933 -1.0408  0.2970 -2.4895
15479TIP3    H267929   5.313   3.194  13.873 -0.4157 -0.3542 -0.8637
15480TIP3   OH267930   0.675   2.413  12.276  0.3506  0.5043  0.8285
15480TIP3    H167931   0.767   2.439  12.285  0.2657  1.2405 -0.2464
15480TIP3    H267932   0.630   2.493  12.252 -0.1379 -0.3265 -1.2754
15481TIP3   OH267933   2.235   1.781  17.035 -0.3561 -0.3455  0.0197
15481TIP3    H167934   2.140   1.781  17.043 -0.2182 -0.3703  2.2680
15481TIP3    H267935   2.261   1.871  17.056  0.1608 -0.5396  0.2275
15482TIP3   OH267936   1.740   2.922   0.906  0.0891 -0.0102  0.6891
15482TIP3    H167937   1.691   2.877   0.837 -0.2102  0.3419  0.6658
15482TIP3    H267938   1.672   2.949   0.968  0.2981  0.1606  0.8415
15483TIP3   OH267939   2.916   3.303   2.255  0.7592 -0.5336 -0.2655
15483TIP3    H167940   2.863   3.359   2.199 -1.7973 -0.7077  1.7981
15483TIP3    H267941   2.927   3.353   2.336  1.8374 -1.4557  0.1970
15484TIP3   OH267942   3.293   6.347   0.628  0.0396  0.5704  0.2618
15484TIP3    H167943   3.328   6.279   0.570 -0.3661 -0.5514  1.2935
15484TIP3    H267944   3.370   6.378   0.677 -0.1106 -0.9840  1.6004
15485TIP3   OH267945   5.887   0.095  13.970  0.2010 -0.2199  0.4549
15485TIP3    H167946   5.814   0.096  13.908  1.5668  0.9570 -1.2268
15485TIP3    H267947   5.945   0.026  13.937  1.1063  0.6466  0.1709
15486TIP3   OH267948   4.502   2.308   2.539 -0.2312  0.2677  0.3983
15486TIP3    H167949   4.452   2.235   2.575  0.4830  0.3607  1.6479
15486TIP3    H267950   4.488   2.380   2.601 -0.7905  1.1636 -0.7254
15487TIP3   OH267951   6.561   6.103  13.805 -0.5447  0.5637  0.9573
15487TIP3    H167952   6.496   6.046  13.846 -1.8335  1.5433  0.3677
15487TIP3    H267953   6.546   6.189  13.845 -0.5776  1.1211 -0.1982
15488TIP3   OH267954   0.074   0.949   5.560  0.8837 -0.0414 -0.3296
15488TIP3    H167955   0.141   0.887   5.591  0.7468  0.0151  0.0904
15488TIP3    H267956   0.097   1.032   5.602  1.3273  0.3125 -1.2408
15489TIP3   OH267957   2.031   6.360  12.126 -0.4656  0.5726 -0.1134
15489TIP3    H167958   2.106   6.369  12.067 -0.1338 -1.1178  0.0006
15489TIP3    H267959   1.962   6.322  12.072  0.2357 -2.1864  0.8067
15490TIP3   OH267960   1.180   5.027  14.796 -0.4575 -0.5007 -0.0504
15490TIP3    H167961   1.131   5.109  14.801 -0.8912 -0.5684 -2.0949
15490TIP3    H267962   1.272   5.052  14.806 -0.6746  0.0723  0.5325
15491TIP3   OH267963   1.417   3.267   2.503  0.0330 -0.5968  0.0649
15491TIP3    H167964   1.336   3.284   2.456 -1.3049 -1.0667  2.0677
15491TIP3    H267965   1.401   3.299   2.592  1.7957 -1.3118  0.6950
15492TIP3   OH267966   0.481   1.756  13.298 -0.4766 -0.4366 -0.7122
15492TIP3    H167967   0.386   1.747  13.285 -0.3546 -2.2320 -0.6400
15492TIP3    H267968   0.515   1.666  13.290  0.6910 -0.5717  3.5241
15493TIP3   OH267969   6.116   1.000   4.840 -0.1369 -0.2102 -0.0049
15493TIP3    H167970   6.158   0.990   4.754 -0.1349 -0.6405  0.0446
15493TIP3    H267971   6.108   0.911   4.873  2.8640  0.0722  1.9164
15494TIP3   OH267972   3.034   2.037   0.938 -0.1041  0.3022 -0.2629
15494TIP3    H167973   3.097   2.095   0.896 -0.0281  0.3118 -0.1368
15494TIP3    H267974   2.949   2.067   0.906 -0.2673  1.9194  1.4601
15495TIP3   OH267975   3.986   6.101  16.568  0.0135  0.0451 -0.3421
15495TIP3    H167976   3.977   6.148  16.485  2.0337 -1.1031 -1.2773
15495TIP3    H267977   4.031   6.163  16.625 -0.4125  0.4542 -0.4363
15496TIP3   OH267978   2.690   0.314  14.884  0.2347 -0.5316  0.0016
15496TIP3    H167979   2.710   0.370  14.809 -0.4662 -0.1955  0.0578
15496TIP3    H267980   2.772   0.311  14.934 -0.1099  1.7856  0.8585
15497TIP3   OH267981   0.355   4.364   6.315  0.2870 -0.2016  0.0933
15497TIP3    H167982   0.303   4.386   6.393 -0.6439  0.6972 -0.7383
15497TIP3    H267983   0.439   4.408   6.329 -0.6262  1.8104 -0.3418
15498TIP3   OH267984   4.505   6.712   0.602  0.0631  0.0219 -0.0772
15498TIP3    H167985   4.433   6.746   0.655  0.3936  1.0844 -0.2962
15498TIP3    H267986   4.572   6.686   0.667 -0.5769 -1.1647  0.1359
15499TIP3   OH267987   6.671   2.413   3.898  0.3577 -1.1714 -0.1983
15499TIP3    H167988   6.665   2.360   3.978 -0.5183  2.4822  2.4118
15499TIP3    H267989   6.764   2.416   3.878  0.9000 -0.3198  2.1432
15500TIP3   OH267990   1.568   3.122   0.347  0.0086 -0.6807  0.6808
15500TIP3    H167991   1.589   3.029   0.349 -0.8150 -0.8692  1.8187
15500TIP3    H267992   1.492   3.129   0.289  0.7970 -0.5416 -0.3487
15501TIP3   OH267993   2.358   1.735   0.869 -0.1444 -0.0603  0.4643
15501TIP3    H167994   2.281   1.696   0.911 -0.5846 -0.9571 -1.1178
15501TIP3    H267995   2.332   1.825   0.849 -1.1078 -0.6203 -0.8565
15502TIP3   OH267996   1.661   4.199  10.988 -0.2269 -0.3720 -0.0593
15502TIP3    H167997   1.680   4.248  11.068  2.2058 -2.4358  0.7394
15502TIP3    H267998   1.695   4.255  10.917 -0.7874  0.6722  0.4689
15503TIP3   OH267999   1.561   5.003   2.728  0.1004 -0.5111  0.0823
15503TIP3    H168000   1.644   5.050   2.735 -0.2600 -0.0855  2.0429
15503TIP3    H268001   1.561   4.944   2.803 -0.9502 -1.2074 -0.4511
15504TIP3   OH268002   2.137   4.880  11.330 -0.1215  0.5290  0.6064
15504TIP3    H168003   2.135   4.788  11.305  0.2336  0.9591 -1.0971
15504TIP3    H268004   2.049   4.912  11.312 -0.0805  0.6657  0.6462
15505TIP3   OH268005   0.371   1.097  16.447 -0.3849  0.1334  0.4502
15505TIP3    H168006   0.423   1.161  16.398 -0.7798 -0.6788 -1.0468
15505TIP3    H268007   0.366   1.135  16.536 -1.5657  2.7761 -0.6237
15506TIP3   OH268008   0.013   0.720  13.674  0.1821 -0.2507  0.3204
15506TIP3    H168009  -0.034   0.657  13.730 -0.6080  1.2105  1.3713
15506TIP3    H268010  -0.051   0.746  13.608  1.0005 -1.6932 -1.1027
15507TIP3   OH268011   1.784   1.535  11.342  0.1416 -0.0508 -0.6792
15507TIP3    H168012   1.775   1.531  11.438  0.4842  0.6525 -0.6146
15507TIP3    H268013   1.725   1.467  11.310 -0.6581  0.3040  0.0029
15508TIP3   OH268014   4.531   0.179  11.064 -0.0004  0.9458 -0.0598
15508TIP3    H168015   4.518   0.132  11.147  2.9603 -1.4395 -0.7668
15508TIP3    H268016   4.615   0.223  11.075 -0.6294  2.4727 -1.0703
15509TIP3   OH268017   5.785   2.105   6.031  0.7948  0.1654 -0.1703
15509TIP3    H168018   5.810   2.196   6.011  2.2528 -0.1171  0.2792
15509TIP3    H268019   5.868   2.057   6.034 -0.0256 -1.4245 -1.4921
15510TIP3   OH268020   2.937   0.877   3.224  0.0475  0.7097 -0.1662
15510TIP3    H168021   2.915   0.865   3.131  0.7476 -0.2372 -0.2276
15510TIP3    H268022   2.853   0.877   3.269 -0.2216 -1.2671 -0.5525
15511TIP3   OH268023   6.661   1.425  13.882  0.2799 -0.1999  0.4878
15511TIP3    H168024   6.617   1.343  13.908 -0.5644  0.4844  1.2968
15511TIP3    H268025   6.641   1.433  13.788  0.0588 -0.7365  0.4789
15512TIP3   OH268026   3.676   0.807   5.859 -0.6983 -0.4672  0.1530
15512TIP3    H168027   3.677   0.875   5.927 -1.1055 -0.8603  0.5588
15512TIP3    H268028   3.639   0.730   5.902  0.7543 -1.2785  0.0032
15513TIP3   OH268029   3.773   4.058  16.444  0.1691 -0.1950 -0.5282
15513TIP3    H168030   3.754   4.136  16.497  0.4935 -0.9740  0.7656
15513TIP3    H268031   3.840   4.011  16.493 -1.7429 -2.5496  0.0072
15514TIP3   OH268032   5.488   2.902  15.585 -0.2577 -0.3295  0.0086
15514TIP3    H168033   5.444   2.966  15.641 -0.8281 -1.7346  1.2456
15514TIP3    H268034   5.489   2.942  15.498  0.3497  1.7869  0.9225
15515TIP3   OH268035   4.013   2.695  11.547 -0.0107 -0.2898  1.1132
15515TIP3    H168036   3.996   2.627  11.482  1.4077  0.8755 -0.5577
15515TIP3    H268037   4.096   2.671  11.587 -0.2685 -0.3507  1.6141
15516TIP3   OH268038   2.505   6.005   5.116 -0.4269 -0.9422  0.5623
15516TIP3    H168039   2.557   5.926   5.113  0.9382 -0.1183  1.5926
15516TIP3    H268040   2.445   5.997   5.042  1.7224 -1.5352 -1.1933
15517TIP3   OH268041   2.386   5.457  12.818 -0.0207  0.3919  0.5377
15517TIP3    H168042   2.360   5.482  12.907 -1.2219 -0.6802  0.5042
15517TIP3    H268043   2.403   5.363  12.824 -1.4565  0.0239 -0.6509
15518TIP3   OH268044   4.384   1.450  16.746  0.1985 -0.3279 -0.1983
15518TIP3    H168045   4.400   1.448  16.840 -1.4916  0.9113  0.1700
15518TIP3    H268046   4.293   1.479  16.738 -0.1025 -1.6168 -2.1938
15519TIP3   OH268047   5.617   3.715  14.137 -0.3118  0.0509  0.0831
15519TIP3    H168048   5.532   3.754  14.158 -0.0987 -0.0514  1.1871
15519TIP3    H268049   5.671   3.788  14.107 -0.2344  0.4488  1.1420
15520TIP3   OH268050   1.950   1.057  12.289 -0.2311  0.0839 -0.0391
15520TIP3    H168051   2.037   1.073  12.325 -0.5334  0.0170  0.7588
15520TIP3    H268052   1.890   1.090  12.357 -0.8337  2.5216 -1.6385
15521TIP3   OH268053   6.269   5.869  16.180  0.0157  0.2561  0.5693
15521TIP3    H168054   6.359   5.854  16.151 -0.0111  0.1263  0.5530
15521TIP3    H268055   6.216   5.861  16.101  0.0803  1.1844  0.4263
15522TIP3   OH268056   0.147   2.285   1.327  0.9505  0.0214  0.1616
15522TIP3    H168057   0.132   2.337   1.406 -0.5417 -1.3640  0.8503
15522TIP3    H268058   0.231   2.316   1.294  1.0668  1.4441  1.6470
15523TIP3   OH268059   6.551   1.690   4.816 -0.4135 -0.3609  0.0783
15523TIP3    H168060   6.635   1.648   4.835 -0.6167 -1.2046 -0.7822
15523TIP3    H268061   6.562   1.729   4.730 -1.0201 -0.8405 -0.2288
15524TIP3   OH268062   6.131   1.949  13.014  0.3545 -0.5717  0.2681
15524TIP3    H168063   6.226   1.945  13.004  0.2194 -0.9146 -0.9717
15524TIP3    H268064   6.104   1.857  13.018  0.1195 -0.4746  1.2753
15525TIP3   OH268065   2.054   2.978  15.425 -0.4933 -0.1437 -0.0117
15525TIP3    H168066   2.009   2.945  15.502  0.4892  0.2534  0.7636
15525TIP3    H268067   2.078   3.068  15.448  1.3947 -0.5938 -0.0434
15526TIP3   OH268068   2.538   2.687   4.878 -0.2801 -0.3188  0.5358
15526TIP3    H168069   2.510   2.768   4.836  0.1519 -0.0278  0.8029
15526TIP3    H268070   2.597   2.715   4.948 -1.1146 -0.7859  1.4499
15527TIP3   OH268071   0.257   2.200  15.405  0.2851 -0.0092 -0.3954
15527TIP3    H168072   0.245   2.261  15.332  0.7321  1.7657  0.9273
15527TIP3    H268073   0.224   2.117  15.373 -1.1532  1.1175 -2.0090
15528TIP3   OH268074   5.643   2.327   4.475  0.3018 -0.2484 -0.3966
15528TIP3    H168075   5.698   2.249   4.466 -1.7823 -2.0709  1.5129
15528TIP3    H268076   5.574   2.315   4.410  0.7853  0.8114 -1.1294
15529TIP3   OH268077   6.150   3.721  11.883  0.1343 -0.1002 -0.3167
15529TIP3    H168078   6.150   3.707  11.789  1.8502 -0.5267 -0.2955
15529TIP3    H268079   6.118   3.811  11.895  0.2526  0.0816 -1.3366
15530TIP3   OH268080   1.922   0.535   4.283 -0.6739 -0.3747 -0.1517
15530TIP3    H168081   1.858   0.601   4.312 -0.1428  0.4124 -0.7355
15530TIP3    H268082   1.935   0.480   4.359  0.3197  1.3562  0.9983
15531TIP3   OH268083   0.407   4.130  14.863  0.1055  0.4633  0.3464
15531TIP3    H168084   0.451   4.150  14.781 -0.6820  2.3228  0.3382
15531TIP3    H268085   0.459   4.175  14.930 -1.0063  1.5888  0.4807
15532TIP3   OH268086   4.329   1.795   5.757 -0.3390 -0.2030 -0.1982
15532TIP3    H168087   4.272   1.868   5.782  0.7651 -0.0903  2.3824
15532TIP3    H268088   4.394   1.834   5.699 -0.8337  0.4501 -0.3232
15533TIP3   OH268089   0.743   3.727   0.205  0.1456 -0.0820  0.5953
15533TIP3    H168090   0.670   3.763   0.255 -0.6289 -0.5097 -0.1944
15533TIP3    H268091   0.701   3.679   0.133  1.1909 -0.8064  0.4475
15534TIP3   OH268092   4.454   3.995   2.758  0.2571 -0.0368 -0.3921
15534TIP3    H168093   4.498   3.971   2.839  1.0399 -1.4571 -1.1892
15534TIP3    H268094   4.362   4.001   2.781  0.6890  1.9498  1.0824
15535TIP3   OH268095   4.310   3.684  11.093 -0.6029  0.2110 -0.1114
15535TIP3    H168096   4.363   3.701  11.015 -1.3752 -0.0653 -0.7167
15535TIP3    H268097   4.290   3.771  11.127 -0.4493  0.3443 -0.3524
15536TIP3   OH268098   0.955   0.959  15.641  0.0813 -0.7016 -0.3862
15536TIP3    H168099   0.911   0.875  15.623  1.1821 -1.0072 -1.8359
15536TIP3    H268100   0.967   0.959  15.736 -1.3027 -1.4718 -0.1722
15537TIP3   OH268101   4.180   1.518   3.955 -0.2577  0.3504  0.3710
15537TIP3    H168102   4.230   1.480   4.027 -1.0530  1.4195  1.5196
15537TIP3    H268103   4.149   1.602   3.988 -0.6345  0.8757 -1.2329
15538TIP3   OH268104   4.343   5.142   1.962 -0.4918 -0.2397  0.0924
15538TIP3    H168105   4.328   5.085   2.037  1.1978  0.8910  1.3594
15538TIP3    H268106   4.421   5.106   1.920 -0.5431  0.0125 -0.2215
15539TIP3   OH268107   5.040   0.159   5.262 -0.0795  0.3868  0.3388
15539TIP3    H168108   5.025   0.236   5.317 -0.9923 -0.0719  0.7532
15539TIP3    H268109   5.061   0.196   5.176  1.3807  1.1072  0.9681
15540TIP3   OH268110   1.198   2.539  14.847  0.2430 -0.4795  0.7052
15540TIP3    H168111   1.199   2.584  14.932 -2.5866 -0.5534  0.8917
15540TIP3    H268112   1.281   2.491  14.844  0.4004 -0.5469  3.4724
15541TIP3   OH268113   1.460   0.269  14.223 -0.1734  0.2617  0.0960
15541TIP3    H168114   1.411   0.338  14.179  0.1780  0.2569 -0.3068
15541TIP3    H268115   1.544   0.309  14.246  0.5194 -0.3448 -1.2068
15542TIP3   OH268116   0.306   3.550   0.843  1.0559 -0.2929  0.1507
15542TIP3    H168117   0.330   3.460   0.860  0.3536 -0.6000 -0.4088
15542TIP3    H268118   0.350   3.572   0.761  0.3295 -0.5079 -0.3099
15543TIP3   OH268119   5.251   1.166  16.817  0.1591 -0.1325  0.3278
15543TIP3    H168120   5.336   1.154  16.777 -0.4182 -0.7283 -0.7549
15543TIP3    H268121   5.210   1.079  16.814 -1.3697  0.5863 -1.2727
15544TIP3   OH268122   5.182   3.876  14.831 -0.4080 -0.1709 -0.5306
15544TIP3    H168123   5.194   3.971  14.830 -0.2563 -0.1830 -1.7495
15544TIP3    H268124   5.094   3.862  14.795 -0.2071 -0.5086 -0.8994
15545TIP3   OH268125   5.868   6.522   4.870 -0.2392  0.5688  0.6302
15545TIP3    H168126   5.857   6.432   4.900  0.0830 -0.5313 -2.2384
15545TIP3    H268127   5.959   6.543   4.889  1.2339 -1.6475 -3.0468
15546TIP3   OH268128   4.745   4.500   5.725 -0.1740 -0.4485  0.3837
15546TIP3    H168129   4.707   4.562   5.787 -1.9338 -1.5939  0.5223
15546TIP3    H268130   4.755   4.418   5.774  1.5215 -0.4851  0.0375
15547TIP3   OH268131   0.466   3.831  15.558  0.0224  0.8177  0.0238
15547TIP3    H168132   0.427   3.891  15.495 -1.1503  1.5198  1.3546
15547TIP3    H268133   0.559   3.854  15.558  0.0887  0.6664 -1.5586
15548TIP3   OH268134   3.678   4.829  12.032 -0.1731 -0.2576  0.1770
15548TIP3    H168135   3.768   4.803  12.052 -0.0164 -0.8694 -1.2195
15548TIP3    H268136   3.683   4.867  11.944 -0.8804  2.0125  1.0583
15549TIP3   OH268137   1.645   6.033  12.921 -0.0941 -0.1661  0.3462
15549TIP3    H168138   1.644   6.084  13.002 -0.4285 -0.1321  0.3218
15549TIP3    H268139   1.737   6.035  12.892 -0.2234  1.0537 -0.0583
15550TIP3   OH268140   5.531   6.696   3.085 -0.0768  0.1624 -0.0008
15550TIP3    H168141   5.545   6.773   3.140  0.2986 -0.3602  0.6492
15550TIP3    H268142   5.608   6.693   3.028 -0.0725  0.2440  0.0003
15551TIP3   OH268143   5.630   0.693  12.584  0.0898 -0.5464  0.0415
15551TIP3    H168144   5.644   0.784  12.559  0.7212 -0.8599 -0.7668
15551TIP3    H268145   5.569   0.658  12.519  0.9174 -1.0758 -0.4595
15552TIP3   OH268146   4.960   2.755  17.110  0.7078 -0.1602 -1.0057
15552TIP3    H168147   5.031   2.730  17.169  0.3806  1.0152 -0.0901
15552TIP3    H268148   4.883   2.762  17.166 -0.1918 -1.5399 -2.0025
15553TIP3   OH268149   3.297   4.136   0.788  0.4958  0.1499  0.1874
15553TIP3    H168150   3.362   4.201   0.813  0.5475  0.4841 -0.7781
15553TIP3    H268151   3.214   4.172   0.817  0.5541  0.5306 -0.1139
15554TIP3   OH268152   1.456   4.339  11.711  0.3384  0.0585  0.4237
15554TIP3    H168153   1.473   4.428  11.741  0.2679  0.2770 -0.1723
15554TIP3    H268154   1.364   4.340  11.685  0.5942  0.0710 -0.4846
15555TIP3   OH268155   1.164   6.694  17.198  0.0347  0.1376 -0.2289
15555TIP3    H168156   1.185   6.606  17.229  0.0472 -0.0773 -0.8229
15555TIP3    H268157   1.234   6.749  17.232  0.4721 -0.2282 -0.5246
15556TIP3   OH268158   6.022   1.571  12.387 -0.5148 -0.5144  0.1872
15556TIP3    H168159   6.012   1.478  12.367 -2.0441 -0.2745 -0.3528
15556TIP3    H268160   5.948   1.612  12.341 -0.0168  0.9263  0.6457
15557TIP3   OH268161   6.162   2.055   2.158  0.2002 -0.3233 -0.3621
15557TIP3    H168162   6.090   2.115   2.142  1.9801  1.9634 -0.2448
15557TIP3    H268163   6.214   2.097   2.227  2.0422 -1.5299 -0.9270
15558TIP3   OH268164   3.702   4.246  12.075 -0.0442 -0.4269 -0.0916
15558TIP3    H168165   3.777   4.282  12.027 -1.4505 -1.3701 -3.2017
15558TIP3    H268166   3.626   4.286  12.035 -1.3477 -1.5008  1.2076
15559TIP3   OH268167   6.796   3.773  14.430 -0.0107  0.0760 -0.2976
15559TIP3    H168168   6.773   3.842  14.493  0.9123 -0.4611  0.6595
15559TIP3    H268169   6.866   3.811  14.377 -1.5541  0.9428 -1.8048
15560TIP3   OH268170   1.558   5.930   0.565  1.0062 -0.1544 -0.1787
15560TIP3    H168171   1.503   6.000   0.529 -0.2655 -0.5107  0.9869
15560TIP3    H268172   1.644   5.944   0.526  0.7335  1.9420 -0.1171
15561TIP3   OH268173   2.057   6.250   5.475 -0.2138 -0.7441 -0.0424
15561TIP3    H168174   2.065   6.202   5.557  1.5534  1.2039  1.0110
15561TIP3    H268175   2.143   6.292   5.463 -2.1365  3.8816  0.3095
15562TIP3   OH268176   3.575   0.015   0.941  0.4805 -0.2472 -0.2786
15562TIP3    H168177   3.565   0.110   0.950 -0.8201 -0.2567 -1.2578
15562TIP3    H268178   3.549  -0.020   1.026 -0.2573  0.2233 -0.3023
15563TIP3   OH268179   4.134   6.127   0.873  0.1711 -0.3459  0.1778
15563TIP3    H168180   4.146   6.035   0.894 -2.1845 -0.7965 -0.0948
15563TIP3    H268181   4.174   6.138   0.787  1.0773 -0.9317  0.5193
15564TIP3   OH268182   0.979   6.246   3.349  0.1008  0.3132  0.1206
15564TIP3    H168183   0.946   6.319   3.297 -2.0520 -0.6441  0.0423
15564TIP3    H268184   0.947   6.168   3.304  0.1847 -0.5999  1.5900
15565TIP3   OH268185   2.125   0.846  15.532 -0.4044 -0.3607 -1.0781
15565TIP3    H168186   2.160   0.928  15.568 -0.4789 -0.4657 -0.7603
15565TIP3    H268187   2.196   0.812  15.477  0.3596 -1.0253  0.2721
15566TIP3   OH268188   2.917   0.297  15.776 -0.4355  0.2092  0.4378
15566TIP3    H168189   2.988   0.271  15.718  0.7003 -1.1503  2.3237
15566TIP3    H268190   2.896   0.387  15.750  0.1173 -0.2971 -1.9155
15567TIP3   OH268191   0.656   0.634  14.415 -0.2573 -0.5031 -0.3304
15567TIP3    H168192   0.576   0.674  14.381 -1.2272 -1.5363  0.6826
15567TIP3    H268193   0.698   0.597  14.337 -0.9465 -0.2902 -0.8200
15568TIP3   OH268194   3.404   6.368  10.950 -0.2138 -0.0153  0.1059
15568TIP3    H168195   3.481   6.422  10.929 -0.6307 -0.2977 -2.4594
15568TIP3    H268196   3.433   6.278  10.933 -0.8474 -0.1866 -0.0975
15569TIP3   OH268197   2.181   6.338   0.395  0.2714  0.1979  0.0004
15569TIP3    H168198   2.206   6.395   0.468 -0.6060  1.2931 -0.5203
15569TIP3    H268199   2.249   6.272   0.392  1.5313  1.4264  0.4006
15570TIP3   OH268200   6.282   3.752  14.787  0.1125 -0.1425  0.3413
15570TIP3    H168201   6.363   3.778  14.743 -0.0114  0.9988  0.7369
15570TIP3    H268202   6.305   3.751  14.880 -0.1428 -0.5465  0.4015
15571TIP3   OH268203   1.220   3.952   2.493 -0.1681 -0.4922 -0.5636
15571TIP3    H168204   1.166   3.956   2.414  0.5518 -1.0656 -1.0968
15571TIP3    H268205   1.306   3.925   2.462  0.1903 -0.4890  0.3917
15572TIP3   OH268206   4.745   5.134  16.678  0.1135 -0.1452  0.0615
15572TIP3    H168207   4.720   5.100  16.764  1.5249  1.2277  1.0661
15572TIP3    H268208   4.826   5.088  16.657 -1.1358 -1.8089 -1.4395
15573TIP3   OH268209   1.034   0.534  13.065  0.1176 -0.1675  0.4247
15573TIP3    H168210   1.088   0.551  12.987  3.7903 -2.7360  2.1016
15573TIP3    H268211   1.006   0.443  13.055 -1.7943  0.3268  0.8903
15574TIP3   OH268212   6.422   6.580  13.084  0.5326  0.2123  0.2562
15574TIP3    H168213   6.331   6.599  13.105  0.1992 -1.7849  0.7643
15574TIP3    H268214   6.468   6.662  13.102 -1.2684  1.5834 -0.9508
15575TIP3   OH268215   2.585   5.553   3.763 -0.0564 -0.2505  0.3176
15575TIP3    H168216   2.642   5.629   3.772  0.8574 -0.9977  1.0020
15575TIP3    H268217   2.565   5.550   3.669 -0.5124  1.0976  0.3428
15576TIP3   OH268218   0.015   1.925   5.624  0.0458  0.3781 -0.5064
15576TIP3    H168219   0.094   1.939   5.676 -0.6678  1.5308  0.3123
15576TIP3    H268220   0.033   1.844   5.575  1.4433  0.2389  0.1686
15577TIP3   OH268221   2.214   2.895   1.413 -0.0814  0.0595  0.5090
15577TIP3    H168222   2.289   2.948   1.436 -1.8427  3.1200 -0.3028
15577TIP3    H268223   2.184   2.859   1.497  2.9648 -2.5249  0.7057
15578TIP3   OH268224   3.053   3.451   0.743 -0.6020 -0.4055  0.0013
15578TIP3    H168225   3.038   3.544   0.727 -0.7949  0.0470  2.3801
15578TIP3    H268226   3.125   3.427   0.685  0.1491  1.5022  0.0880
15579TIP3   OH268227   5.508   6.358   5.795  0.7362  0.2249 -0.2613
15579TIP3    H168228   5.482   6.268   5.816  0.6191  0.2762 -0.1856
15579TIP3    H268229   5.535   6.395   5.879  1.2398  0.1136 -0.3682
15580TIP3   OH268230   4.576   0.622  13.841  0.2508 -0.2057  0.0013
15580TIP3    H168231   4.523   0.603  13.918  0.8761 -1.7667  0.0794
15580TIP3    H268232   4.645   0.680  13.873 -1.2216  1.6938 -0.0633
15581TIP3   OH268233   6.100   3.258  15.845  0.1862  0.4188 -0.2367
15581TIP3    H168234   6.172   3.197  15.833 -0.8313 -1.1399  1.0285
15581TIP3    H268235   6.080   3.290  15.757  0.2575 -1.7207 -1.1092
15582TIP3   OH268236   0.252   5.759  11.876  0.0585  0.7570  0.0360
15582TIP3    H168237   0.174   5.776  11.823  0.0140  0.2531 -0.0733
15582TIP3    H268238   0.222   5.699  11.944  0.4276  0.2415 -0.2412
15583TIP3   OH268239   1.342   5.299   2.583  0.0838 -0.5249  1.0110
15583TIP3    H168240   1.299   5.248   2.514  1.6843 -1.6354  0.7766
15583TIP3    H268241   1.333   5.245   2.661  0.5206 -0.4763  1.0949
15584TIP3   OH268242   2.927   4.393  11.892  1.0675  0.7869 -0.1068
15584TIP3    H168243   2.852   4.334  11.897 -0.4469  2.3632 -2.3219
15584TIP3    H268244   3.001   4.337  11.868  0.0429 -0.4232 -0.5048
15585TIP3   OH268245   3.293   5.655  12.125 -0.0506  0.5771  0.4929
15585TIP3    H168246   3.224   5.656  12.059  1.0225  0.7739 -0.6834
15585TIP3    H268247   3.299   5.746  12.155 -0.1622  0.6038  0.4322
15586TIP3   OH268248   2.545   1.060   0.262 -0.0986 -0.4141  0.4465
15586TIP3    H168249   2.607   0.991   0.241 -0.1994 -0.1729 -0.7327
15586TIP3    H268250   2.549   1.119   0.186  1.1415  1.7220  2.0513
15587TIP3   OH268251   1.509   5.672   3.739 -0.5627  0.0448 -0.0690
15587TIP3    H168252   1.449   5.603   3.767 -1.7485  1.3623  0.7541
15587TIP3    H268253   1.465   5.714   3.666  0.0746  0.0711 -0.4488
15588TIP3   OH268254   0.017   6.702   1.537 -0.2493  0.0183  0.0264
15588TIP3    H168255   0.072   6.763   1.488  1.1744 -1.6744 -0.5799
15588TIP3    H268256  -0.069   6.709   1.496  0.0042  1.2524 -0.3275
15589TIP3   OH268257   3.484   3.170  14.209  0.0016  0.4134  0.1381
15589TIP3    H168258   3.430   3.149  14.132  1.6569  0.0835 -0.9866
15589TIP3    H268259   3.471   3.096  14.268  1.4299 -1.1541 -1.3863
15590TIP3   OH268260   5.521   1.553  13.864  0.2218  0.1241  0.4238
15590TIP3    H168261   5.471   1.547  13.945  0.7211  0.5158  0.7684
15590TIP3    H268262   5.462   1.519  13.796 -0.1614 -0.2915  0.9623
15591TIP3   OH268263   2.665   5.330  14.979 -0.2810  0.2499  0.0068
15591TIP3    H168264   2.627   5.406  14.934  0.3405  0.1107 -0.7737
15591TIP3    H268265   2.734   5.368  15.034  1.8616  0.0829 -2.3532
15592TIP3   OH268266   5.598   6.098   5.563  0.2591  0.0484  0.3523
15592TIP3    H168267   5.539   6.109   5.638  0.0163 -0.7532  0.2909
15592TIP3    H268268   5.647   6.180   5.558 -1.4511  1.0876 -0.1113
15593TIP3   OH268269   5.443   4.646  17.109 -0.7482 -0.0499 -0.3702
15593TIP3    H168270   5.486   4.648  17.195 -0.4144 -0.7952 -0.5173
15593TIP3    H268271   5.373   4.711  17.117 -0.0722  0.6568  0.1238
15594TIP3   OH268272   3.003   2.103  12.960 -0.0254  0.4437 -0.3791
15594TIP3    H168273   3.080   2.121  13.014 -1.2412  3.4682  0.5899
15594TIP3    H268274   3.035   2.108  12.870  1.5091 -1.9188 -0.0480
15595TIP3   OH268275   1.027   5.806  16.669  0.7762  0.4611 -0.5123
15595TIP3    H168276   1.028   5.728  16.614  0.0361  0.5282 -0.6347
15595TIP3    H268277   0.939   5.842  16.658 -0.1648 -0.6802  2.3329
15596TIP3   OH268278   4.234   6.385  11.121 -0.1878  0.0743 -0.1687
15596TIP3    H168279   4.228   6.463  11.176 -0.3862  1.5806 -2.2320
15596TIP3    H268280   4.318   6.346  11.145 -0.4062  0.4806  1.3967
15597TIP3   OH268281   0.125   6.425   3.972  0.1942  0.0797  0.6998
15597TIP3    H168282   0.178   6.393   4.045 -0.0246 -0.0062  0.8206
15597TIP3    H268283   0.035   6.424   4.005  0.2227  1.2131  0.8569
15598TIP3   OH268284   1.975   5.052  10.949  0.5440  0.1201 -0.4600
15598TIP3    H168285   2.065   5.043  10.920  0.9847  0.1556  0.8600
15598TIP3    H268286   1.951   5.142  10.925  1.1654  0.4184  0.0130
15599TIP3   OH268287   5.774   4.127  14.250  0.1075 -0.2473 -0.1579
15599TIP3    H168288   5.697   4.182  14.260  0.4876  0.8494 -2.4544
15599TIP3    H268289   5.839   4.164  14.311 -0.2599  0.6732 -0.3065
15600TIP3   OH268290   0.918   5.426  14.268  0.3689 -0.1913  0.4068
15600TIP3    H168291   0.900   5.518  14.291  0.6998  0.5156 -1.8943
15600TIP3    H268292   0.979   5.397  14.336  1.3934  1.7674  0.4199
15601TIP3   OH268293   6.551   5.183   6.615 -0.1935 -0.3285 -0.0935
15601TIP3    H168294   6.492   5.166   6.541 -2.1470  1.6439  0.8763
15601TIP3    H268295   6.626   5.228   6.575 -1.2452  0.7787 -0.9098
15602TIP3   OH268296   5.675   6.115   3.263  0.1920 -0.4571  0.1851
15602TIP3    H168297   5.715   6.076   3.341  1.1982  0.4763  0.1607
15602TIP3    H268298   5.603   6.168   3.298  2.1094  1.9063  0.7960
15603TIP3   OH268299   4.211   0.261  11.565  0.2006 -0.3542 -0.4839
15603TIP3    H168300   4.160   0.241  11.487 -1.5894  0.6265  0.3693
15603TIP3    H268301   4.223   0.356  11.563  1.2436 -0.4595 -0.1911
15604TIP3   OH268302   1.370   5.887  11.296 -0.3253  0.2860  0.3903
15604TIP3    H168303   1.290   5.844  11.327 -0.0382 -3.4127 -3.0468
15604TIP3    H268304   1.345   5.927  11.213  0.6058  2.6941  1.2012
15605TIP3   OH268305   0.631   2.487  11.374 -1.0438 -0.1319 -0.0725
15605TIP3    H168306   0.548   2.507  11.331 -1.4484 -0.1115  0.6948
15605TIP3    H268307   0.698   2.504  11.307 -1.6843 -0.6975 -0.8783
15606TIP3   OH268308   3.362   0.449   4.245 -0.1259 -0.3781  0.0743
15606TIP3    H168309   3.455   0.469   4.260 -0.7522  1.5473  1.8922
15606TIP3    H268310   3.315   0.510   4.302 -2.5201 -1.6807 -0.3827
15607TIP3   OH268311   2.088   3.354   4.198  0.2974  0.1685  0.1346
15607TIP3    H168312   2.032   3.385   4.127  0.4048 -0.0096 -0.0271
15607TIP3    H268313   2.170   3.403   4.187  0.0003  0.8156  0.6798
15608TIP3   OH268314   5.580   5.074   1.052  0.0717  0.1240 -0.1118
15608TIP3    H168315   5.511   5.136   1.031  1.6377  1.9691 -0.1064
15608TIP3    H268316   5.620   5.109   1.132  1.1659 -0.7452 -0.2488
15609TIP3   OH268317   0.631   1.168  13.524 -0.1628  0.1055  0.2651
15609TIP3    H168318   0.629   1.223  13.603  0.8851  0.3758  0.1154
15609TIP3    H268319   0.555   1.110  13.533 -0.4205  0.5623  1.1557
15610TIP3   OH268320   6.401   3.783  16.923  0.3421 -0.5938 -0.4488
15610TIP3    H168321   6.416   3.738  16.839  1.3923 -0.4495 -0.3508
15610TIP3    H268322   6.471   3.848  16.927 -0.3791  0.1525  0.0287
15611TIP3   OH268323   4.393   5.851   1.623  0.3766 -0.6747  0.2289
15611TIP3    H168324   4.445   5.877   1.547  1.0624 -0.1311  0.8740
15611TIP3    H268325   4.446   5.785   1.667  1.0048  0.5764  1.4283
15612TIP3   OH268326   3.909   2.090   3.572 -0.0612  0.1671  0.0821
15612TIP3    H168327   3.925   2.050   3.658  1.1567  1.0440  0.2877
15612TIP3    H268328   3.950   2.176   3.577 -1.2817  0.8530 -0.8821
15613TIP3   OH268329   1.948   6.114  14.811  0.1045  0.0627 -0.1359
15613TIP3    H168330   1.995   6.158  14.740 -0.8179  2.0288  0.3793
15613TIP3    H268331   1.997   6.140  14.890  0.7341 -1.5564  0.0341
15614TIP3   OH268332   3.912   1.700  15.589  0.1513 -0.0574  0.4102
15614TIP3    H168333   3.856   1.697  15.512 -0.2668  0.7020  0.6628
15614TIP3    H268334   3.856   1.667  15.660 -0.0478  0.8680  0.6959
15615TIP3   OH268335   4.688   3.344   0.637  0.0341  0.6106  0.0829
15615TIP3    H168336   4.704   3.365   0.545  1.2078  0.1824  0.1736
15615TIP3    H268337   4.681   3.249   0.639  2.5153  0.3740  0.7535
15616TIP3   OH268338   0.340   5.858  15.016 -0.1031  0.0782 -0.1519
15616TIP3    H168339   0.357   5.894  14.929  1.9622 -1.9545 -0.7031
15616TIP3    H268340   0.246   5.871  15.030 -0.6468 -0.1560 -3.0119
15617TIP3   OH268341   5.177   2.325   6.069 -0.0199  0.0730  0.0319
15617TIP3    H168342   5.171   2.420   6.076  0.1454 -0.0410  4.0318
15617TIP3    H268343   5.087   2.295   6.073 -0.0041  0.0454  0.2034
15618TIP3   OH268344   5.865   5.156  15.052  0.0451  0.4187  0.3643
15618TIP3    H168345   5.844   5.246  15.025  0.3539  0.5138  0.4329
15618TIP3    H268346   5.803   5.101  15.004  0.1729  0.6354 -0.0562
15619TIP3   OH268347   3.604   6.058  13.967  0.1521 -0.0368 -0.0681
15619TIP3    H168348   3.553   6.139  13.970  0.9423  0.4459  1.4442
15619TIP3    H268349   3.657   6.060  14.047  0.9674 -1.5460 -0.5296
15620TIP3   OH268350   5.476   5.128  16.900  0.3010  0.6968  0.5081
15620TIP3    H168351   5.462   5.043  16.942 -1.1564  0.8427  0.3697
15620TIP3    H268352   5.407   5.133  16.833  0.4352  1.9327  0.4429
15621TIP3   OH268353   6.206   5.941  12.645 -0.1203 -0.4652 -0.3104
15621TIP3    H168354   6.112   5.944  12.628 -0.4078 -0.8039  1.0845
15621TIP3    H268355   6.215   5.874  12.712  1.2468 -1.1659 -1.1533
15622TIP3   OH268356   5.313   5.094   2.774  0.9207  0.4435  0.2226
15622TIP3    H168357   5.402   5.123   2.792  1.2428 -0.3101 -0.1446
15622TIP3    H268358   5.298   5.119   2.683  0.5795  0.9907  0.4205
15623TIP3   OH268359   1.066   3.299  12.656  0.4577  0.3211 -0.5735
15623TIP3    H168360   1.065   3.309  12.561 -0.0942  0.3988 -0.5640
15623TIP3    H268361   1.093   3.384  12.690  3.4623 -0.4490 -0.7286
15624TIP3   OH268362   2.684   0.785  15.384  0.0963  0.4217 -0.6446
15624TIP3    H168363   2.634   0.709  15.413  0.0385  0.8036  0.2891
15624TIP3    H268364   2.719   0.823  15.464  2.7135 -0.3656 -1.2906
15625TIP3   OH268365   1.097   0.218  15.697 -0.4511  0.3219 -0.6738
15625TIP3    H168366   1.117   0.139  15.648 -0.4090  0.7147 -1.3006
15625TIP3    H268367   1.138   0.205  15.782 -0.6382 -0.4233 -0.6964
15626TIP3   OH268368   0.814   3.667  11.028 -0.1693 -0.1318  0.1103
15626TIP3    H168369   0.874   3.738  11.006 -1.0971  0.3593 -0.9941
15626TIP3    H268370   0.727   3.705  11.014 -0.7326 -0.9461  1.2533
15627TIP3   OH268371   0.592   0.043  17.059 -0.0860  0.2189 -0.4674
15627TIP3    H168372   0.617   0.064  17.149  0.6701  0.5930 -0.7541
15627TIP3    H268373   0.501   0.014  17.065  0.3070 -0.9154  0.5862
15628TIP3   OH268374   3.944   2.002  12.496 -0.2451 -0.4950 -0.1728
15628TIP3    H168375   3.982   1.977  12.412 -1.3759  1.3290 -1.2993
15628TIP3    H268376   3.984   2.087  12.516 -1.7317  0.2298 -0.1212
15629TIP3   OH268377   2.964   1.169  13.962 -0.6112 -0.0210  0.3027
15629TIP3    H168378   2.905   1.236  13.996 -2.9223 -1.3162 -0.9198
15629TIP3    H268379   2.950   1.093  14.018  1.9558  0.3868  1.6553
15630TIP3   OH268380   3.464   2.988   2.298  0.4074  0.5969  0.0810
15630TIP3    H168381   3.445   2.920   2.234  0.3743 -1.0714  1.7447
15630TIP3    H268382   3.405   3.060   2.276  0.2907  0.0160 -1.6159
15631TIP3   OH268383   3.988   5.399  10.795  0.2449 -0.0898  0.1646
15631TIP3    H168384   3.942   5.483  10.801  1.2344  0.5159 -0.4559
15631TIP3    H268385   4.079   5.421  10.812  0.3506 -1.2549  1.2976
15632TIP3   OH268386   1.321   6.302   6.575  0.2129 -0.2105  0.2330
15632TIP3    H168387   1.257   6.371   6.554 -0.9700 -1.5915 -0.9161
15632TIP3    H268388   1.397   6.323   6.521  0.8475  1.4845  1.6547
15633TIP3   OH268389   5.086   2.543   5.489 -0.0587 -0.5899  0.0768
15633TIP3    H168390   5.127   2.559   5.574  0.2275 -1.4734  0.1132
15633TIP3    H268391   5.138   2.596   5.428 -0.4891  0.3293  0.4965
15634TIP3   OH268392   1.596   2.783  10.432 -0.1941 -0.4161  0.0402
15634TIP3    H168393   1.607   2.689  10.418  0.6647 -0.3324  0.1279
15634TIP3    H268394   1.635   2.823  10.355 -2.0856 -0.1526 -0.8485
15635TIP3   OH268395   4.392   6.494   1.459 -0.7532  0.6296  0.3759
15635TIP3    H168396   4.316   6.449   1.423  0.2018 -0.1050 -0.7978
15635TIP3    H268397   4.458   6.491   1.389  0.5252  0.8353  1.5136
15636TIP3   OH268398   1.399   0.704  14.309 -0.1768 -0.2610  0.4917
15636TIP3    H168399   1.384   0.610  14.303  0.0181 -0.2782  0.2431
15636TIP3    H268400   1.474   0.720  14.252 -0.6932  0.1542 -0.0912
15637TIP3   OH268401   3.696   1.756   0.982  0.0123  0.2666  0.4192
15637TIP3    H168402   3.722   1.844   0.955 -0.7814  0.1967 -0.6217
15637TIP3    H268403   3.779   1.710   0.995  0.5389 -0.0050 -2.9866
15638TIP3   OH268404   1.627   3.572   1.222 -0.4347  0.4870  0.1267
15638TIP3    H168405   1.552   3.598   1.276 -2.0734  1.0918 -2.3049
15638TIP3    H268406   1.682   3.650   1.217 -1.5107  1.2043 -0.9915
15639TIP3   OH268407   5.075   1.595  12.195  0.3400 -0.0143  0.0188
15639TIP3    H168408   5.159   1.619  12.156  0.8272 -0.9924  0.4260
15639TIP3    H268409   5.082   1.623  12.287  0.2432 -0.1154  0.0582
15640TIP3   OH268410   4.034   1.565   2.930 -0.3176  0.3585  0.0257
15640TIP3    H168411   4.033   1.549   3.025 -1.6858 -0.7674 -0.1472
15640TIP3    H268412   4.118   1.607   2.914 -0.4975  1.5970  1.9046
15641TIP3   OH268413   5.724   1.177   5.083 -0.1586  0.3022 -0.0747
15641TIP3    H168414   5.703   1.129   5.163  1.6403 -0.7531 -0.1949
15641TIP3    H268415   5.769   1.256   5.114  0.2254  0.0675 -0.0381
15642TIP3   OH268416   2.264   0.120   3.733  0.0630  0.2951 -0.4629
15642TIP3    H168417   2.302   0.052   3.788  1.3911  0.8937 -0.5977
15642TIP3    H268418   2.272   0.201   3.784  2.2665  1.0466 -1.8424
15643TIP3   OH268419   5.964   4.601  16.298 -0.3863 -0.1442  0.3527
15643TIP3    H168420   5.869   4.586  16.301 -0.6705  0.9356 -1.6752
15643TIP3    H268421   5.979   4.669  16.364 -1.4810  1.5138 -1.0152
15644TIP3   OH268422   6.615   6.762  13.764  0.4689 -0.3392  0.0543
15644TIP3    H168423   6.669   6.724  13.696  0.2165  0.9207 -0.8752
15644TIP3    H268424   6.675   6.816  13.816  0.4149 -0.2452  0.0202
15645TIP3   OH268425   5.887   5.302   2.889 -0.1260  0.3212 -0.1346
15645TIP3    H168426   5.905   5.213   2.918  0.9999  0.1786 -1.1761
15645TIP3    H268427   5.924   5.306   2.800 -0.1141  1.8306 -0.0846
15646TIP3   OH268428   4.311   6.443   6.080  0.1200 -0.0088 -0.0583
15646TIP3    H168429   4.233   6.395   6.052  1.0141 -0.5398 -1.8033
15646TIP3    H268430   4.361   6.379   6.132 -0.6766  0.4049  1.2639
15647TIP3   OH268431   3.708   2.865  15.527 -0.7194 -0.1366  0.0004
15647TIP3    H168432   3.665   2.902  15.604 -0.1741 -0.9041  0.6853
15647TIP3    H268433   3.639   2.860  15.461 -0.9746  1.4430  0.0994
15648TIP3   OH268434   3.328   6.717   1.570 -0.6476  0.2609  0.5724
15648TIP3    H168435   3.363   6.662   1.500 -0.5434  0.2385  0.6411
15648TIP3    H268436   3.237   6.688   1.581 -0.5786  0.0667  0.6437
15649TIP3   OH268437   2.467   5.814  13.516  0.1183  0.1473 -0.1436
15649TIP3    H168438   2.383   5.854  13.496 -0.7810 -0.7951  1.5798
15649TIP3    H268439   2.497   5.779  13.432 -0.8095  1.1504 -0.9334
15650TIP3   OH268440   4.837   0.965   4.896 -0.1187  0.2018 -1.0420
15650TIP3    H168441   4.931   0.985   4.899  0.2886 -1.3371  2.9777
15650TIP3    H268442   4.795   1.042   4.936  0.1247 -1.1518  2.1183
15651TIP3   OH268443   1.070   1.828   1.903 -0.1410  0.0725 -0.1230
15651TIP3    H168444   1.023   1.907   1.932 -0.7924 -0.6417  0.8402
15651TIP3    H268445   1.042   1.760   1.965  1.2365 -0.6679 -0.2918
15652TIP3   OH268446   0.036   5.943  17.193  0.3666 -0.2316  0.0838
15652TIP3    H168447   0.014   5.887  17.267  0.1026  0.6634  0.6993
15652TIP3    H268448   0.039   5.884  17.118 -0.4383 -0.9739  0.6206
15653TIP3   OH268449   1.495   1.827  13.755 -0.0777  0.5684  0.2303
15653TIP3    H168450   1.415   1.781  13.784 -0.9982  0.6532 -1.9795
15653TIP3    H268451   1.556   1.756  13.735 -0.2182  0.4332  0.2687
15654TIP3   OH268452   6.127   0.593   2.106  0.2295 -0.1719 -0.2251
15654TIP3    H168453   6.209   0.606   2.153  0.6016  0.8453 -1.1398
15654TIP3    H268454   6.122   0.498   2.094  1.1952 -0.2562 -0.0503
15655TIP3   OH268455   0.429   1.139  10.527  0.2688  0.0471  0.2600
15655TIP3    H168456   0.393   1.219  10.568  1.0445  1.8342 -2.3222
15655TIP3    H268457   0.366   1.071  10.550 -0.5267  1.3945  2.4496
15656TIP3   OH268458   6.411   1.784   0.179 -0.0060  0.2777  0.3501
15656TIP3    H168459   6.384   1.874   0.196  0.6710  0.4868  0.3361
15656TIP3    H268460   6.496   1.776   0.221 -0.0330 -0.3389  0.2958
15657TIP3   OH268461   6.617   4.572  15.637  0.7102  0.2315 -0.3480
15657TIP3    H168462   6.582   4.483  15.643  1.0290  0.1935  1.3386
15657TIP3    H268463   6.555   4.617  15.580 -0.3128 -0.6810 -0.0037
15658TIP3   OH268464   3.808   1.211   2.260  0.2827  0.9347 -0.2489
15658TIP3    H168465   3.883   1.249   2.306 -1.1087  2.2903  1.0204
15658TIP3    H268466   3.847   1.149   2.198  2.3437 -0.0733  1.8714
15659TIP3   OH268467   4.031   0.969  12.770 -0.4268  0.5520 -0.1591
15659TIP3    H168468   4.088   1.020  12.712 -1.3978  0.9581 -0.7700
15659TIP3    H268469   4.028   0.882  12.730 -0.9653  0.7863 -0.6285
15660TIP3   OH268470   6.284   3.451  14.808  0.4643  0.5369  0.1368
15660TIP3    H168471   6.276   3.545  14.796 -0.9840  0.6618  1.7171
15660TIP3    H268472   6.271   3.437  14.902 -0.3987 -1.3139 -0.2074
15661TIP3   OH268473   2.048   2.237  14.003  0.5051  0.4012 -0.1602
15661TIP3    H168474   2.126   2.235  13.947 -0.6604 -0.0858 -1.8473
15661TIP3    H268475   1.975   2.248  13.942 -0.6853  2.1596  1.4503
15662TIP3   OH268476   2.060   5.582  12.164 -0.0246 -0.4971 -0.0225
15662TIP3    H168477   1.973   5.580  12.125 -0.0885  0.6932  0.0205
15662TIP3    H268478   2.085   5.490  12.172 -0.4373 -0.8052 -1.8890
15663TIP3   OH268479   2.819   6.158  15.146  0.2545  0.4287  0.4373
15663TIP3    H168480   2.729   6.191  15.156 -0.1519 -0.8611  1.3028
15663TIP3    H268481   2.839   6.174  15.054 -0.5302  1.5344  0.4322
15664TIP3   OH268482   3.679   4.172   0.285  0.0736  0.0790  0.1428
15664TIP3    H168483   3.659   4.263   0.264  2.9806  1.0124  0.9018
15664TIP3    H268484   3.665   4.166   0.379 -0.2683 -0.3250  0.0684
15665TIP3   OH268485   5.056   4.090   5.303  0.1005 -0.3451 -0.2480
15665TIP3    H168486   5.037   4.178   5.270  0.5152 -0.4319 -0.7518
15665TIP3    H268487   5.146   4.097   5.335 -0.4117 -0.1769  1.2093
15666TIP3   OH268488   5.539   0.795  15.409 -0.3307  0.0451  0.1139
15666TIP3    H168489   5.624   0.752  15.397  0.1363  1.5079 -2.7672
15666TIP3    H268490   5.561   0.883  15.439 -0.9778 -0.1500  1.2017
15667TIP3   OH268491   5.975   0.069   0.122 -0.0158 -0.0862 -0.1760
15667TIP3    H168492   5.884   0.101   0.120 -0.4849 -1.0776  1.8552
15667TIP3    H268493   5.966  -0.026   0.116  0.8303 -0.2205  0.5197
15668TIP3   OH268494   3.687   2.920  16.026 -0.4853 -0.3935 -0.0121
15668TIP3    H168495   3.735   2.961  16.098 -0.9632  1.0082 -0.4478
15668TIP3    H268496   3.747   2.855  15.991  0.5099  0.2671  0.4155
15669TIP3   OH268497   2.698   1.396   0.840  0.1591  0.0982  0.6336
15669TIP3    H168498   2.730   1.364   0.924  3.5625  0.4970 -0.3444
15669TIP3    H268499   2.729   1.486   0.835 -0.2210  0.1822 -0.9235
15670TIP3   OH268500   2.169   3.210  11.782 -0.0588 -0.0674  0.0999
15670TIP3    H168501   2.209   3.255  11.856  1.2860 -0.7663 -0.1625
15670TIP3    H268502   2.187   3.266  11.707 -0.7709  0.2725  0.1711
15671TIP3   OH268503   4.468   1.006   3.647  0.0521  0.7883  0.3176
15671TIP3    H168504   4.437   1.090   3.613  0.2487  1.0447  0.7581
15671TIP3    H268505   4.390   0.963   3.681 -0.2760  0.1859 -1.1518
15672TIP3   OH268506   4.958   4.604  16.976 -0.1197 -0.3444 -0.1944
15672TIP3    H168507   4.896   4.658  16.928 -0.7453 -1.0246 -0.1683
15672TIP3    H268508   4.993   4.543  16.911 -1.2561 -1.5245  0.2516
15673TIP3   OH268509   2.569   3.606  15.146  0.5157 -0.2111  0.4553
15673TIP3    H168510   2.580   3.700  15.164 -0.3193  0.0509 -0.2989
15673TIP3    H268511   2.495   3.603  15.086  0.9867 -1.3171 -0.0749
15674TIP3   OH268512   1.679   2.026  12.123  0.4352  0.5489 -0.3346
15674TIP3    H168513   1.656   2.118  12.108  0.9415  0.7353  0.0076
15674TIP3    H268514   1.670   1.985  12.037 -1.8809  0.4336 -0.1092
15675TIP3   OH268515   4.399   6.203   1.199  0.6479  0.4247  0.6070
15675TIP3    H168516   4.380   6.137   1.266  0.0292  1.0003  1.0026
15675TIP3    H268517   4.407   6.153   1.117 -0.7963 -0.0315  0.7332
15676TIP3   OH268518   0.290   1.327  13.352 -0.5718  0.5011  0.1604
15676TIP3    H168519   0.368   1.341  13.298  0.0228  2.4509  1.4175
15676TIP3    H268520   0.307   1.244  13.397  1.3447  1.4207  1.2569
15677TIP3   OH268521   2.055   1.737   2.089 -0.4695  0.2866  0.3257
15677TIP3    H168522   2.115   1.763   2.019  1.3176  0.2872  1.7904
15677TIP3    H268523   2.057   1.642   2.089  1.0556  0.2723  1.5465
15678TIP3   OH268524   1.606   2.517  14.866  0.1425 -0.0346  0.2853
15678TIP3    H168525   1.688   2.558  14.895  1.0408 -0.6626 -1.2369
15678TIP3    H268526   1.589   2.449  14.932  1.8794 -1.1286 -0.3156
15679TIP3   OH268527   5.308   0.203   5.585  0.0131  0.1363 -0.8691
15679TIP3    H168528   5.216   0.213   5.560 -0.3991 -0.3701  0.3733
15679TIP3    H268529   5.324   0.109   5.583  0.3896  0.1921 -0.6741
15680TIP3   OH268530   5.740   5.214  17.074 -0.2321 -0.1142  0.4924
15680TIP3    H168531   5.669   5.269  17.041  1.1019  1.4446  0.0713
15680TIP3    H268532   5.751   5.241  17.165 -1.8169 -2.1767  1.3660
15681TIP3   OH268533   4.678   6.801   3.501 -0.3133  0.4966 -0.4643
15681TIP3    H168534   4.735   6.760   3.436 -1.8113 -1.0886 -0.8388
15681TIP3    H268535   4.613   6.849   3.450 -0.4363  0.7270 -0.0949
15682TIP3   OH268536   0.411   6.811   6.342  0.2957 -0.6366  0.2462
15682TIP3    H168537   0.496   6.766   6.342  1.4872  1.3790 -2.1201
15682TIP3    H268538   0.400   6.842   6.432  1.7517 -1.4321  0.7323
15683TIP3   OH268539   4.030   1.636  14.179 -0.0541  0.0221  0.1271
15683TIP3    H168540   4.096   1.703  14.197 -0.6629  0.6019  0.2430
15683TIP3    H268541   3.984   1.668  14.101 -0.6423 -0.0273  0.4462
15684TIP3   OH268542   5.786   1.450   1.317 -0.4475  0.3672  0.0523
15684TIP3    H168543   5.801   1.464   1.411 -2.6112  1.0325  0.3675
15684TIP3    H268544   5.738   1.529   1.289 -1.5372 -0.6767 -1.1525
15685TIP3   OH268545   1.033   0.200   0.113 -0.5693  0.0463 -0.3475
15685TIP3    H168546   0.942   0.182   0.137 -0.0848 -1.3582  0.5399
15685TIP3    H268547   1.052   0.140   0.041  0.9674 -3.1034  2.4362
15686TIP3   OH268548   5.600   3.706  13.161  0.5387 -0.2288  0.1558
15686TIP3    H168549   5.560   3.620  13.169  0.7052 -0.3461 -0.2354
15686TIP3    H268550   5.528   3.766  13.144  0.5920 -0.5349 -1.2059
15687TIP3   OH268551   3.932   4.757  12.801 -0.3003 -0.0815 -0.5007
15687TIP3    H168552   4.010   4.800  12.764 -1.5199  0.1389 -3.0754
15687TIP3    H268553   3.868   4.828  12.810 -0.9155 -0.6173 -0.6207
15688TIP3   OH268554   1.441   3.833  14.888 -0.1416 -0.4176 -0.2214
15688TIP3    H168555   1.490   3.892  14.832 -1.4376  0.2881 -0.6453
15688TIP3    H268556   1.391   3.777  14.828  0.3819 -1.3610  0.1914
15689TIP3   OH268557   6.548   5.018   6.251 -0.0685  0.2009 -0.0734
15689TIP3    H168558   6.500   5.010   6.168 -0.4544  2.0189 -0.0681
15689TIP3    H268559   6.539   5.110   6.275  0.2434 -0.2329  1.8804
15690TIP3   OH268560   6.743   6.738  15.567 -0.0960 -0.1906 -0.0474
15690TIP3    H168561   6.769   6.830  15.572 -0.5085  0.0142 -1.3616
15690TIP3    H268562   6.822   6.692  15.540  0.1440 -0.2470  0.7343
15691TIP3   OH268563   0.968   5.171   1.737  0.3470 -0.0099  0.0969
15691TIP3    H168564   1.062   5.171   1.719  0.5452  0.0994  1.1140
15691TIP3    H268565   0.953   5.250   1.789 -0.0363 -0.8348  1.2775
15692TIP3   OH268566   0.933   2.477  14.256 -0.1027  0.5114 -0.6913
15692TIP3    H168567   0.880   2.539  14.305  0.6618  0.9082 -0.3488
15692TIP3    H268568   0.985   2.531  14.197  1.1717  0.2966  0.1849
15693TIP3   OH268569   1.064   2.047   3.998 -0.9282 -0.0357 -0.4442
15693TIP3    H168570   1.153   2.021   3.974 -1.4430 -1.5779 -0.7648
15693TIP3    H268571   1.073   2.082   4.087 -0.0835 -0.7184 -0.2417
15694TIP3   OH268572   3.439   2.856  11.618  0.1100 -0.3899  0.3423
15694TIP3    H168573   3.346   2.844  11.596 -0.0150 -0.5964  0.9730
15694TIP3    H268574   3.468   2.928  11.561 -0.2933 -0.6801 -0.2438
15695TIP3   OH268575   2.850   6.237   2.864 -0.3004 -0.6370 -0.0492
15695TIP3    H168576   2.857   6.144   2.885  1.7943 -0.0381  2.5309
15695TIP3    H268577   2.913   6.251   2.794  1.4092 -0.7800  1.3965
15696TIP3   OH268578   2.463   1.790   0.075 -0.2383 -0.5975 -0.2386
15696TIP3    H168579   2.388   1.820   0.024  0.1029 -1.7803 -1.4938
15696TIP3    H268580   2.486   1.864   0.131 -0.4473  0.8803 -2.0278
15697TIP3   OH268581   3.068   0.958  17.146 -0.2542 -0.3701 -0.1485
15697TIP3    H168582   2.992   0.901  17.138  0.6272 -1.4020 -1.6690
15697TIP3    H268583   3.032   1.047  17.147 -1.6140 -0.8861  1.7341
15698TIP3   OH268584   5.658   4.782  12.024 -0.4222 -0.5199 -0.2976
15698TIP3    H168585   5.640   4.866  12.066  1.5989 -0.1818 -0.0101
15698TIP3    H268586   5.655   4.719  12.095  0.0007 -0.3936 -0.1655
15699TIP3   OH268587   5.606   2.126  12.102  0.3278 -0.1376  0.1492
15699TIP3    H168588   5.598   2.206  12.153  0.2554 -0.4656  0.6694
15699TIP3    H268589   5.619   2.155  12.012  0.3008  0.4530  0.3330
15700TIP3   OH268590   3.120   5.870   2.364 -0.1690  0.3469  0.3368
15700TIP3    H168591   3.144   5.907   2.448  1.6194  0.8615 -0.3513
15700TIP3    H268592   3.141   5.938   2.300 -1.7029  0.0593 -0.5231
15701TIP3   OH268593   2.085   5.761  13.851  0.5480  0.4873 -0.2876
15701TIP3    H168594   2.036   5.817  13.911 -1.0288  0.2436 -1.2853
15701TIP3    H268595   2.037   5.678  13.853  0.9452  0.2262 -1.2835
15702TIP3   OH268596   0.868   4.760  16.674 -0.2428  0.1315 -0.0400
15702TIP3    H168597   0.823   4.788  16.594  0.9736  2.4982  0.0177
15702TIP3    H268598   0.949   4.720  16.643 -0.6684 -0.7432 -0.0354
15703TIP3   OH268599   5.326   3.428   2.098 -0.2235 -0.0095 -0.3546
15703TIP3    H168600   5.258   3.363   2.082  0.6683 -0.4314 -2.9560
15703TIP3    H268601   5.293   3.508   2.057 -1.3001  1.3035  2.7899
15704TIP3   OH268602   4.257   3.889  14.227  0.0189  0.1582  0.4169
15704TIP3    H168603   4.247   3.925  14.314 -1.0508  0.0984  0.3231
15704TIP3    H268604   4.225   3.958  14.168  2.2179  0.8669 -0.0666
15705TIP3   OH268605   5.909   5.893   3.755 -0.2575  0.2294 -0.1828
15705TIP3    H168606   5.934   5.985   3.747 -1.3824  0.5576 -0.1057
15705TIP3    H268607   5.867   5.888   3.841  1.1637 -0.6967  0.4875
15706TIP3   OH268608   1.218   4.762  14.725 -0.1786  0.4519  0.2445
15706TIP3    H168609   1.179   4.755  14.638 -2.5775 -1.0904  1.2976
15706TIP3    H268610   1.192   4.849  14.756  1.5366  1.4093 -0.8912
15707TIP3   OH268611   3.159   5.358  13.890  0.9282  0.1335  0.3343
15707TIP3    H168612   3.231   5.331  13.831  2.1755  2.0078  0.9015
15707TIP3    H268613   3.198   5.425  13.946  0.0030 -2.0407  3.8561
15708TIP3   OH268614   0.223   4.518   2.566  0.3387  0.1107 -0.0907
15708TIP3    H168615   0.206   4.429   2.596 -0.3487  0.1629 -0.3141
15708TIP3    H268616   0.266   4.508   2.481  0.6122 -0.0080  0.0604
15709TIP3   OH268617   2.389   4.863  15.815  0.0116 -0.3715  0.1282
15709TIP3    H168618   2.411   4.789  15.759  2.0249  0.3343 -0.0888
15709TIP3    H268619   2.470   4.883  15.862 -0.9783  0.5636  1.5234
15710TIP3   OH268620   4.724   5.150  13.518 -0.2469 -0.6334  0.3697
15710TIP3    H168621   4.687   5.138  13.430  0.1297 -1.2336  0.2945
15710TIP3    H268622   4.739   5.245  13.524 -2.1136 -0.3058  0.5379
15711TIP3   OH268623   0.635   0.899  14.675 -0.2752 -0.6701 -0.0566
15711TIP3    H168624   0.599   0.813  14.655  1.6738 -1.6245  0.3367
15711TIP3    H268625   0.625   0.908  14.769 -3.2326  0.9059 -0.4084
15712TIP3   OH268626   3.400   6.266   2.609  0.2104  0.4050 -0.2099
15712TIP3    H168627   3.343   6.337   2.580 -0.2226 -0.3915 -1.3887
15712TIP3    H268628   3.341   6.192   2.623  0.7000  0.1618  0.6445
15713TIP3   OH268629   2.757   1.705   3.154  0.4121  0.9808  0.0723
15713TIP3    H168630   2.683   1.762   3.133  0.7595  0.9807 -1.2406
15713TIP3    H268631   2.822   1.764   3.193 -0.4120  0.9060  1.6292
15714TIP3   OH268632   4.162   3.532  12.130 -0.2046  0.0677 -0.5325
15714TIP3    H168633   4.236   3.537  12.190 -2.0812 -2.1004  2.2165
15714TIP3    H268634   4.098   3.594  12.165 -0.2819  0.9018 -2.0536
15715TIP3   OH268635   6.031   5.875  14.700  0.2769 -0.1224 -0.2331
15715TIP3    H168636   5.938   5.850  14.695 -0.2488  1.5703  0.4086
15715TIP3    H268637   6.074   5.818  14.636 -1.5105  0.3452 -1.9671
15716TIP3   OH268638   6.187   5.818  12.889 -0.2016 -0.2074 -0.3233
15716TIP3    H168639   6.093   5.817  12.871 -0.1856 -1.4345 -0.4322
15716TIP3    H268640   6.195   5.858  12.975 -0.9207 -1.0123  0.1287
15717TIP3   OH268641   0.122   6.087  13.883  0.4804  0.6971 -0.0092
15717TIP3    H168642   0.089   6.111  13.797  0.8519 -0.2927 -0.4393
15717TIP3    H268643   0.197   6.030  13.866  0.3728  0.2307  0.9646
15718TIP3   OH268644   1.554   1.892   1.008  0.2562  0.1985 -0.3422
15718TIP3    H168645   1.530   1.963   1.067 -0.6965  0.5575 -1.1363
15718TIP3    H268646   1.588   1.935   0.930 -0.0275 -0.2221 -0.7056
15719TIP3   OH268647   3.216   1.503   3.237 -0.2117 -0.0444 -0.5051
15719TIP3    H168648   3.308   1.494   3.210  0.0677 -0.0489  0.4129
15719TIP3    H268649   3.174   1.549   3.164  1.1448  2.4994  0.1947
15720TIP3   OH268650   2.108   3.874   6.285 -0.5592 -0.1206 -0.3882
15720TIP3    H168651   2.081   3.834   6.367  1.0339  0.2822  0.3763
15720TIP3    H268652   2.204   3.867   6.286 -0.3746  1.8587 -1.1803
15721TIP3   OH268653   1.641   1.739  11.550  0.3760 -0.5605 -0.2949
15721TIP3    H168654   1.607   1.650  11.546  0.0424 -0.5278  1.3291
15721TIP3    H268655   1.715   1.734  11.610 -0.7080  0.5505  1.2013
15722TIP3   OH268656   2.740   5.185   3.055  0.2811  0.5485 -0.1595
15722TIP3    H168657   2.835   5.197   3.059  0.3244  0.9936 -1.8708
15722TIP3    H268658   2.728   5.105   3.004 -0.2594  0.8789 -0.5660
15723TIP3   OH268659   2.265   0.271   3.238  0.7680  0.2227 -0.1524
15723TIP3    H168660   2.247   0.338   3.303 -0.1612 -0.9143  0.8040
15723TIP3    H268661   2.180   0.251   3.199  0.4509 -2.4158  1.6395
15724TIP3   OH268662   3.390   4.403   5.808 -0.5519 -0.0127  0.4258
15724TIP3    H168663   3.397   4.498   5.801 -0.5457 -0.0142  0.4153
15724TIP3    H268664   3.337   4.389   5.887  0.5298 -0.0310  1.1613
15725TIP3   OH268665   2.533   2.364   3.448  0.0320  0.0162  0.2513
15725TIP3    H168666   2.622   2.357   3.483 -0.1186 -2.3975  0.3153
15725TIP3    H268667   2.480   2.309   3.506 -0.8751 -1.1933 -1.6433
15726TIP3   OH268668   2.439   3.215   3.452 -0.5872 -0.5267  0.1733
15726TIP3    H168669   2.446   3.224   3.547 -0.4312 -0.0832  0.1196
15726TIP3    H268670   2.487   3.135   3.432  1.2982  0.5521  0.2179
15727TIP3   OH268671   4.129   0.346   2.386  0.1398  0.3442  0.8188
15727TIP3    H168672   4.135   0.420   2.326 -0.9802 -0.3980 -0.2466
15727TIP3    H268673   4.220   0.329   2.412  0.4937  1.5294  0.4204
15728TIP3   OH268674   1.669   3.312   4.008 -0.2260  0.2336 -0.1968
15728TIP3    H168675   1.703   3.397   3.981 -2.7471  0.5888 -2.6498
15728TIP3    H268676   1.574   3.318   3.996 -0.6482 -2.4843  0.9474
15729TIP3   OH268677   5.850   5.002  16.738  0.3325  0.0306  0.5894
15729TIP3    H168678   5.844   5.089  16.775  0.3951 -0.3012  1.3915
15729TIP3    H268679   5.773   4.956  16.769 -1.4824  0.7276 -2.4467
15730TIP3   OH268680   3.052   6.298   4.699  0.3965 -0.6146  0.5971
15730TIP3    H168681   2.975   6.298   4.756  0.9584 -2.8764  1.4822
15730TIP3    H268682   3.050   6.383   4.656 -2.8444 -0.7361  0.2258
15731TIP3   OH268683   6.200   3.445   3.144  0.0446  0.0945 -1.1235
15731TIP3    H168684   6.282   3.438   3.193 -0.0534  2.7087 -0.4160
15731TIP3    H268685   6.222   3.417   3.056  0.5479 -3.4918 -0.0222
15732TIP3   OH268686   0.219   0.913  17.163 -0.1127  1.0373  0.4764
15732TIP3    H168687   0.291   0.949  17.111  1.2825 -0.4845  1.2371
15732TIP3    H268688   0.146   0.906  17.102  0.0002  3.5877 -0.0652
15733TIP3   OH268689   2.717   3.708  16.928  0.2311 -0.5482 -0.2102
15733TIP3    H168690   2.626   3.693  16.904 -0.0247  1.9307 -1.0733
15733TIP3    H268691   2.764   3.707  16.845 -0.0465  4.1462 -0.6828
15734TIP3   OH268692   1.933   5.609  15.048  0.7301  0.1267  0.0216
15734TIP3    H168693   1.899   5.563  15.125  0.7751  0.5286  0.2913
15734TIP3    H268694   1.984   5.544  15.001 -0.4965 -0.5277 -0.4576
15735TIP3   OH268695   6.733   2.973  11.364 -0.4123  0.2490 -0.3683
15735TIP3    H168696   6.675   2.921  11.308 -1.4069 -0.1812  1.0052
15735TIP3    H268697   6.810   2.989  11.310 -2.7666  3.0858 -3.3481
15736TIP3   OH268698   4.842   5.806  13.910  0.5053  0.3129 -0.1441
15736TIP3    H168699   4.937   5.801  13.921  0.2712 -0.8565  2.0249
15736TIP3    H268700   4.817   5.719  13.879  0.1101  0.4443 -0.2074
15737TIP3   OH268701   1.281   3.157  16.006  0.2916  0.2599  0.4235
15737TIP3    H168702   1.234   3.160  16.089  0.9794 -0.1806  0.8382
15737TIP3    H268703   1.288   3.249  15.979 -1.8793  0.2746 -0.2920
15738TIP3   OH268704   5.167   0.920  13.195  0.5810 -0.6651 -0.2338
15738TIP3    H168705   5.129   0.890  13.278  2.1325  0.1590  0.8288
15738TIP3    H268706   5.205   0.842  13.155 -0.8525 -1.2142 -0.5858
15739TIP3   OH268707   1.034   1.766  11.653  0.2424 -0.1436 -0.3563
15739TIP3    H168708   1.111   1.822  11.662 -0.8933  1.1980  2.1431
15739TIP3    H268709   1.063   1.680  11.685  0.4681  0.6240  1.6163
15740TIP3   OH268710   0.840   3.672   3.782 -0.2217 -0.3393 -1.2282
15740TIP3    H168711   0.919   3.651   3.732  0.6564 -3.6722  1.2831
15740TIP3    H268712   0.872   3.716   3.861 -0.9287 -1.0384 -0.5371
15741TIP3   OH268713   2.168   6.814   3.512 -0.0511 -0.3566 -0.3003
15741TIP3    H168714   2.240   6.814   3.449  0.1559 -0.3679 -0.0657
15741TIP3    H268715   2.202   6.862   3.587 -1.7404  3.6791 -1.8417
15742TIP3   OH268716   4.001   0.547  12.955  0.2365  0.3771 -0.0596
15742TIP3    H168717   3.946   0.540  12.877 -0.0493 -0.0638  0.1726
15742TIP3    H268718   3.981   0.467  13.005 -1.1164  1.6075  1.4638
15743TIP3   OH268719   2.269   5.922  16.059 -0.1519 -0.2148 -0.0321
15743TIP3    H168720   2.245   5.841  16.013 -0.9967 -0.2998  0.5569
15743TIP3    H268721   2.228   5.915  16.145 -2.3794  1.9571 -0.8161
15744TIP3   OH268722   1.684   4.352   5.385 -0.2862  0.0993  0.2494
15744TIP3    H168723   1.652   4.398   5.462  1.0247  0.1664  0.7935
15744TIP3    H268724   1.680   4.259   5.408  0.6293  0.1438  0.6393
15745TIP3   OH268725   2.142   6.218   6.281 -0.2843  0.1611  0.0392
15745TIP3    H168726   2.218   6.205   6.338  1.3896  1.2452 -1.8026
15745TIP3    H268727   2.121   6.131   6.249  1.3227  0.0319 -0.7498
15746TIP3   OH268728   3.351   1.876   1.683  0.0609  0.0818 -0.0318
15746TIP3    H168729   3.340   1.971   1.678  2.4359  0.3813 -0.5124
15746TIP3    H268730   3.346   1.846   1.592  3.0311  0.2933 -0.3506
15747TIP3   OH268731   3.905   5.687   0.971  0.1759 -0.2716  0.2255
15747TIP3    H168732   3.885   5.684   0.878 -0.7338 -1.3117  0.4373
15747TIP3    H268733   3.944   5.773   0.984 -0.6062  0.2853 -0.9312
15748TIP3   OH268734   2.901   6.824  12.190  0.0303  0.2191  0.0438
15748TIP3    H168735   2.978   6.880  12.198  0.4870 -0.2623 -0.8873
15748TIP3    H268736   2.857   6.832  12.275  0.9784  0.6795  0.5071
15749TIP3   OH268737   2.071   5.085  13.162  0.3104 -0.1638 -0.0760
15749TIP3    H168738   2.001   5.058  13.221 -1.3403  0.1827 -1.7995
15749TIP3    H268739   2.095   5.005  13.115  1.3648 -0.3556  0.7297
15750TIP3   OH268740   1.795   2.864   4.666 -0.4993  0.1740  0.0094
15750TIP3    H168741   1.702   2.883   4.682 -0.5061  0.9514 -0.8352
15750TIP3    H268742   1.818   2.798   4.731 -1.4898  0.4155  0.6277
15751TIP3   OH268743   6.471   6.362  12.568  0.2952  0.3957  0.0235
15751TIP3    H168744   6.474   6.421  12.493 -0.5941  3.8449  2.4146
15751TIP3    H268745   6.511   6.281  12.538 -0.3921  1.4189 -4.2059
15752TIP3   OH268746   1.193   2.924   2.041  0.1254 -0.1656  0.2336
15752TIP3    H168747   1.198   2.944   2.134  1.5225  0.1565  0.1129
15752TIP3    H268748   1.255   2.851   2.029  0.0327 -0.1385 -0.4545
15753TIP3   OH268749   2.419   5.955   1.147  0.3269 -0.0775 -0.0548
15753TIP3    H168750   2.361   6.001   1.086  0.7114 -0.5818 -0.8232
15753TIP3    H268751   2.463   5.890   1.093  1.6238  0.3071  0.5092
15754TIP3   OH268752   0.377   2.371   1.254  0.5585 -0.7442 -0.0274
15754TIP3    H168753   0.360   2.450   1.202  0.3359 -0.6445  0.1985
15754TIP3    H268754   0.418   2.310   1.191 -3.2506 -2.1201 -1.4778
15755TIP3   OH268755   4.342   2.297   3.343  0.3634  0.2528  0.0148
15755TIP3    H168756   4.284   2.230   3.307  2.3054 -1.3706 -0.2381
15755TIP3    H268757   4.342   2.366   3.276 -1.8863  0.7184  0.4137
15756TIP3   OH268758   5.656   3.305  11.040 -0.3083 -0.2852 -0.1883
15756TIP3    H168759   5.563   3.326  11.054  0.3935  2.4069  1.0968
15756TIP3    H268760   5.685   3.368  10.975  1.2464  0.8939  1.5706
15757TIP3   OH268761   0.659   3.691   2.442  0.3665 -0.1648  0.1745
15757TIP3    H168762   0.586   3.753   2.455 -1.0073 -1.7608  0.4175
15757TIP3    H268763   0.621   3.621   2.390  1.0488 -2.2076  2.2892
15758TIP3   OH268764   1.914   3.496   3.228 -0.3989 -0.3883  0.2713
15758TIP3    H168765   1.878   3.529   3.146  1.7478  0.3345 -0.4586
15758TIP3    H268766   1.873   3.550   3.295 -0.2584  0.7994 -0.5616
15759TIP3   OH268767   4.724   5.726   2.875 -0.0007 -0.2962 -0.2363
15759TIP3    H168768   4.808   5.722   2.828 -1.5378  2.6772 -3.7129
15759TIP3    H268769   4.662   5.682   2.817 -1.3915  0.1649  0.8422
15760TIP3   OH268770   0.804   6.493  17.109  0.5662 -0.4912  0.0271
15760TIP3    H168771   0.761   6.412  17.082  2.0167 -1.5680  0.8477
15760TIP3    H268772   0.897   6.479  17.093  0.8117  1.2110 -0.2761
15761TIP3   OH268773   0.712   2.360  17.194  0.1619 -0.0081 -0.0380
15761TIP3    H168774   0.780   2.294  17.203 -0.2807 -0.7199 -1.6046
15761TIP3    H268775   0.724   2.395  17.105 -1.3268  0.0552 -0.2372
15762TIP3   OH268776   5.538   5.821   0.931 -0.1806  0.3211  0.6788
15762TIP3    H168777   5.576   5.798   1.016 -1.6017 -0.8999  1.0247
15762TIP3    H268778   5.453   5.777   0.930  0.2872 -0.6767 -1.8587
15763TIP3   OH268779   2.042   1.245   0.565 -0.6943  0.3743  0.0861
15763TIP3    H168780   2.111   1.231   0.631  0.4118  1.4565 -0.7903
15763TIP3    H268781   2.000   1.159   0.556  0.7645 -0.4149  0.4210
15764TIP3   OH268782   2.098   6.739  16.154  0.1955  0.6060  0.3787
15764TIP3    H168783   2.153   6.698  16.088 -0.0443 -0.0569  0.5846
15764TIP3    H268784   2.050   6.667  16.194 -1.0918  1.2095 -0.0377
15765TIP3   OH268785   5.848   1.765   3.766  0.4012  0.4840 -0.2057
15765TIP3    H168786   5.873   1.765   3.858  0.8983  2.2269 -0.3026
15765TIP3    H268787   5.879   1.681   3.732 -2.5024 -1.6258  1.8483
15766TIP3   OH268788   5.866   6.334   2.288  0.5667  0.0924 -0.1477
15766TIP3    H168789   5.928   6.338   2.215  1.0611 -2.5583  0.0289
15766TIP3    H268790   5.920   6.311   2.364 -0.4995 -1.5019  0.1591
15767TIP3   OH268791   1.063   0.879  16.306  0.0960  0.4629 -0.3606
15767TIP3    H168792   0.997   0.896  16.373 -0.2182 -1.5759 -0.0670
15767TIP3    H268793   1.046   0.789  16.278  2.5850 -0.0793 -0.4366
15768TIP3   OH268794   6.270   2.731   0.255  0.1817 -0.1927  0.0647
15768TIP3    H168795   6.265   2.824   0.276 -1.1581 -0.0570 -0.7550
15768TIP3    H268796   6.273   2.687   0.340  2.4721  0.6311  0.4689
15769TIP3   OH268797   6.274   2.962   3.612 -0.2817 -0.1400 -0.0554
15769TIP3    H168798   6.360   3.002   3.615 -1.0378  1.5376  0.7968
15769TIP3    H268799   6.226   3.003   3.685 -1.2782 -2.2776  0.5672
15770TIP3   OH268800   0.931   5.548   1.607  0.0619 -0.5306  0.1665
15770TIP3    H168801   0.859   5.491   1.632  0.1187 -0.7183 -0.0879
15770TIP3    H268802   0.989   5.492   1.555  0.6866 -0.5435  0.8612
15771TIP3   OH268803   0.516   3.644  11.894  0.8564 -0.5940 -0.3005
15771TIP3    H168804   0.461   3.614  11.822  1.7432 -1.5819 -0.5892
15771TIP3    H268805   0.464   3.628  11.973  0.4481 -0.8547 -0.6228
15772TIP3   OH268806   5.145   2.178  16.352  0.3606 -0.4398 -0.1931
15772TIP3    H168807   5.189   2.247  16.303 -0.4571  1.3568  1.4593
15772TIP3    H268808   5.206   2.154  16.420 -0.5323  0.9990  1.1872
15773TIP3   OH268809   2.330   0.169   2.951  0.0931  0.3768 -0.0592
15773TIP3    H168810   2.270   0.216   2.893  1.6504  0.5647 -1.5870
15773TIP3    H268811   2.396   0.234   2.975  0.2730 -0.0891  0.7443
15774TIP3   OH268812   0.904   5.004  11.676 -0.2234 -0.7174 -0.3495
15774TIP3    H168813   0.939   4.975  11.592  2.1258 -2.3296  1.0635
15774TIP3    H268814   0.826   4.950  11.690 -1.2280  0.2757 -1.8895
15775TIP3   OH268815   0.734   3.325   1.751 -0.3789  0.1063  0.3660
15775TIP3    H168816   0.755   3.236   1.779 -3.2925 -1.1147 -0.9132
15775TIP3    H268817   0.797   3.345   1.681 -0.0369 -1.1684  0.2968
15776TIP3   OH268818   4.909   2.625   2.504  0.3663  0.1198  0.0513
15776TIP3    H168819   4.916   2.695   2.440 -2.1024  0.0912 -0.3565
15776TIP3    H268820   4.932   2.546   2.455 -0.8603  0.1778 -0.6554
15777TIP3   OH268821   0.230   3.090   1.379  0.1293 -0.6369 -0.3966
15777TIP3    H168822   0.161   3.113   1.317 -0.7729  0.6595  1.0072
15777TIP3    H268823   0.196   3.013   1.425 -1.5007  1.2828  1.8284
15778TIP3   OH268824   1.367   1.550  15.713  0.1024  0.0744  0.1401
15778TIP3    H168825   1.443   1.606  15.730  0.1923 -0.0657  0.2050
15778TIP3    H268826   1.311   1.563  15.790  0.0492  0.1978  0.0803
15779TIP3   OH268827   4.785   5.705   0.959  0.4511 -0.0879  0.3756
15779TIP3    H168828   4.829   5.783   0.926 -0.3904  0.5000  0.6056
15779TIP3    H268829   4.805   5.703   1.052  1.9174 -1.1367  0.0648
15780TIP3   OH268830   3.198   3.438  15.857 -0.2270 -0.3027  0.5588
15780TIP3    H168831   3.266   3.478  15.804 -1.2990 -0.3549 -0.9071
15780TIP3    H268832   3.239   3.359  15.893  1.1920  0.8715  1.6602
15781TIP3   OH268833   5.588   5.170  13.927  1.0193  1.0970 -0.0958
15781TIP3    H168834   5.590   5.116  13.847 -0.3834  1.6071 -0.5032
15781TIP3    H268835   5.675   5.158  13.966  1.3635 -0.0047 -1.1357
15782TIP3   OH268836   1.210   4.145  11.840  0.6049  0.4742  1.0757
15782TIP3    H168837   1.199   4.239  11.823 -0.1816  0.6693  2.5226
15782TIP3    H268838   1.185   4.103  11.757 -0.3040  1.4846  0.8013
15783TIP3   OH268839   5.433   3.316   1.664  0.6674 -0.1243  0.4813
15783TIP3    H168840   5.458   3.266   1.586 -0.5856 -1.0619  0.6613
15783TIP3    H268841   5.471   3.403   1.649  0.6256 -0.3431 -1.0717
15784TIP3   OH268842   0.835   2.174  13.479  0.4997  0.0976 -0.1997
15784TIP3    H168843   0.926   2.203  13.470 -0.1206  2.2986 -0.0066
15784TIP3    H268844   0.808   2.154  13.389  2.1188 -4.0744  0.0353
15785TIP3   OH268845   5.381   3.371   4.436 -0.9548 -0.4027 -0.2547
15785TIP3    H168846   5.436   3.346   4.511 -1.0567 -1.9312 -0.6691
15785TIP3    H268847   5.292   3.376   4.471 -1.2150 -2.4571 -0.5065
15786TIP3   OH268848   1.936   6.361   4.810  0.3162 -0.8423 -0.2513
15786TIP3    H168849   1.946   6.443   4.859 -0.0189 -0.5328 -0.6884
15786TIP3    H268850   1.994   6.299   4.855 -0.3049 -0.6964  0.7852
15787TIP3   OH268851   1.197   4.889  12.347  0.7558 -0.0096  0.0847
15787TIP3    H168852   1.131   4.935  12.398 -0.4856 -0.4591 -1.0719
15787TIP3    H268853   1.249   4.959  12.307 -0.8095  0.4478 -1.2709
15788TIP3   OH268854   2.716   5.746   5.563  0.2881  0.4024 -0.3347
15788TIP3    H168855   2.765   5.666   5.580 -0.0959  0.1844 -0.2486
15788TIP3    H268856   2.639   5.718   5.515 -0.2045  0.6264  0.3044
15789TIP3   OH268857   4.989   2.335   1.042  0.2286  0.4729  0.0092
15789TIP3    H168858   5.062   2.329   0.980  1.2356  0.1254  1.1908
15789TIP3    H268859   4.920   2.283   1.002  0.1273  1.8584 -1.7612
15790TIP3   OH268860   5.920   2.333   6.132 -0.3447  0.7836 -0.3438
15790TIP3    H168861   5.881   2.307   6.216 -0.3390  0.9557 -0.2866
15790TIP3    H268862   5.973   2.410   6.153 -1.8122  1.9699 -0.8152
15791TIP3   OH268863   4.630   0.992   1.960  0.2527  0.8224 -0.2328
15791TIP3    H168864   4.588   1.054   1.901  0.0362  0.8788 -0.0161
15791TIP3    H268865   4.696   1.044   2.006  0.8265  0.6585 -0.8365
15792TIP3   OH268866   4.087   4.150  15.714  0.3861 -0.2955 -0.3232
15792TIP3    H168867   4.072   4.241  15.687  0.5132  0.1463  1.0170
15792TIP3    H268868   4.070   4.150  15.808 -0.4658 -1.8669 -0.4471
15793TIP3   OH268869   3.780   0.071  13.400 -0.1965 -0.3011 -0.3055
15793TIP3    H168870   3.810   0.158  13.427 -0.5955 -0.5206  0.9131
15793TIP3    H268871   3.855   0.033  13.356  0.2894  0.3151 -0.0329
15794TIP3   OH268872   6.792   4.990  13.351 -0.2821  0.1084  0.0608
15794TIP3    H168873   6.793   4.936  13.431 -1.6651  1.5967  1.1536
15794TIP3    H268874   6.811   5.078  13.382  1.6664  0.3540 -1.6466
15795TIP3   OH268875   1.820   5.887  15.729 -0.3520  0.0079  0.1571
15795TIP3    H168876   1.832   5.865  15.821  1.1556  2.5163  0.6810
15795TIP3    H268877   1.904   5.867  15.688 -0.8028 -0.4927 -0.5550
15796TIP3   OH268878   5.782   5.055  12.562 -0.3465  0.0424 -0.5550
15796TIP3    H168879   5.775   5.042  12.656  0.8938  0.8313 -0.3274
15796TIP3    H268880   5.729   4.985  12.524 -1.6865  0.3113  0.7264
15797TIP3   OH268881   6.017   4.896  15.332  0.3485 -0.4663  0.2015
15797TIP3    H168882   5.930   4.893  15.292 -0.0090  0.0279  0.9275
15797TIP3    H268883   6.062   4.966  15.284 -0.6672  1.3463  1.7658
15798TIP3   OH268884   4.531   5.345  17.223  0.1245  0.3212  0.1346
15798TIP3    H168885   4.559   5.322  17.312  0.5097  0.0943 -0.0423
15798TIP3    H268886   4.453   5.399  17.235  0.7586  1.1469  0.6555
15799TIP3   OH268887   6.244   2.865   3.146  0.5125  0.1741  0.1734
15799TIP3    H168888   6.190   2.943   3.157 -0.4311 -0.3676 -0.4920
15799TIP3    H268889   6.191   2.794   3.182  0.5009 -0.4606 -1.0270
15800TIP3   OH268890   4.072   1.274   2.354  0.5626 -0.4500  0.5229
15800TIP3    H168891   4.026   1.296   2.434  0.2197  0.3702  0.1073
15800TIP3    H268892   4.165   1.277   2.378  0.4686 -0.0031  0.8413
15801TIP3   OH268893   6.578   0.830   1.787 -0.5265 -0.1977 -0.0586
15801TIP3    H168894   6.506   0.891   1.799 -1.0111 -0.6770 -0.5142
15801TIP3    H268895   6.571   0.769   1.861 -0.5314 -0.1941 -0.0561
15802TIP3   OH268896   1.014   3.506  11.143  0.8220  0.2436 -1.0254
15802TIP3    H168897   0.928   3.544  11.123  0.0359 -1.5682 -1.2706
15802TIP3    H268898   1.015   3.500  11.238 -0.5626 -2.2845 -1.0844
15803TIP3   OH268899   5.000   4.698  10.593 -0.2128  0.0539  0.2352
15803TIP3    H168900   4.912   4.676  10.623 -0.2250  0.7993  0.7777
15803TIP3    H268901   5.052   4.702  10.673  0.7622 -2.1822 -0.2179
15804TIP3   OH268902   4.127   3.854  10.937 -0.2098 -0.3576 -0.1228
15804TIP3    H168903   4.066   3.917  10.899  1.4523  0.7775 -1.0537
15804TIP3    H268904   4.166   3.810  10.861  0.6256 -0.5550  0.4126
15805TIP3   OH268905   0.078   4.136   5.517 -0.1611 -0.8190  0.6240
15805TIP3    H168906   0.035   4.171   5.595 -0.7262 -0.7207  0.2694
15805TIP3    H268907   0.152   4.196   5.502 -0.8626 -0.0293  0.2778
15806TIP3   OH268908   1.816   4.054  15.431 -0.2908  0.4997  0.7883
15806TIP3    H168909   1.807   4.130  15.374  0.5817  0.3957  0.4870
15806TIP3    H268910   1.741   3.999  15.411 -0.7521  1.1341  0.7740
15807TIP3   OH268911   5.125   4.988   5.983  0.5546 -0.2103  0.3751
15807TIP3    H168912   5.067   4.916   5.955  1.2446  0.2461 -2.4774
15807TIP3    H268913   5.167   4.954   6.062  0.4916 -2.7761 -0.5820
15808TIP3   OH268914   1.875   1.551   5.811 -0.2627  0.4016 -0.2846
15808TIP3    H168915   1.818   1.604   5.868 -0.5204  1.9656 -1.9351
15808TIP3    H268916   1.960   1.552   5.855 -0.6055  1.0656  0.3867
15809TIP3   OH268917   1.914   5.351  11.987  0.2270  0.5245  0.7492
15809TIP3    H168918   2.001   5.389  11.976 -0.2000  1.7116  1.2370
15809TIP3    H268919   1.930   5.264  12.023  1.2745 -0.0837 -1.0469
15810TIP3   OH268920   2.835   6.379  13.906 -0.5127  0.0357  0.6615
15810TIP3    H168921   2.767   6.366  13.840 -1.3469 -0.9155  1.6547
15810TIP3    H268922   2.820   6.468  13.938  0.0395  0.5897 -0.5459
15811TIP3   OH268923   6.128   3.088   2.699  0.3253 -0.1574  0.3319
15811TIP3    H168924   6.145   3.111   2.608  2.0751 -1.1016  0.3746
15811TIP3    H268925   6.215   3.076   2.738 -0.3486 -3.5585  1.0963
15812TIP3   OH268926   5.285   0.708  14.738  0.0959  0.0414  0.1920
15812TIP3    H168927   5.333   0.648  14.797 -1.1865 -0.3443  0.8798
15812TIP3    H268928   5.283   0.791  14.786 -0.6729 -0.1878  0.5845
15813TIP3   OH268929   2.982   6.388  16.891 -0.2105  0.3073  0.1124
15813TIP3    H168930   3.062   6.401  16.841 -1.0329  0.4817 -1.1985
15813TIP3    H268931   2.923   6.457  16.861 -0.9476  0.0337  0.8802
15814TIP3   OH268932   0.169   3.884  14.279 -0.4232 -0.0821  0.2349
15814TIP3    H168933   0.184   3.795  14.247 -1.2622  0.3308 -1.4287
15814TIP3    H268934   0.243   3.935  14.245  0.2349 -0.1751  1.4647
15815TIP3   OH268935   2.452   6.493   3.983  0.2716  0.2742 -0.2075
15815TIP3    H168936   2.516   6.549   4.028 -0.6336 -0.1535  1.7171
15815TIP3    H268937   2.368   6.516   4.023 -0.6865  0.1991 -2.0628
15816TIP3   OH268938   0.844   0.288  10.533  0.0476 -0.0063  0.6326
15816TIP3    H168939   0.780   0.350  10.570 -0.1777 -0.6379  1.3156
15816TIP3    H268940   0.792   0.212  10.509  0.2705  0.1981 -0.5461
15817TIP3   OH268941   5.623   2.593  15.174  0.1323 -0.0944  0.4314
15817TIP3    H168942   5.605   2.681  15.140 -1.4624 -0.1204  1.1182
15817TIP3    H268943   5.556   2.538  15.133  0.7012 -0.8678  0.5308
15818TIP3   OH268944   6.095   2.358   5.323  0.3687  0.4315  0.4432
15818TIP3    H168945   6.019   2.321   5.370  0.0280  0.3947 -0.1314
15818TIP3    H268946   6.108   2.444   5.363 -0.0549  0.4885  0.4655
15819TIP3   OH268947   3.469   6.602   1.349 -0.1730  0.0654  0.3764
15819TIP3    H168948   3.446   6.539   1.281  2.6512  1.2912 -1.9319
15819TIP3    H268949   3.540   6.560   1.398 -0.6717  0.0785  1.1222
15820TIP3   OH268950   4.805   0.885   4.639 -0.3545  0.1828  0.2774
15820TIP3    H168951   4.798   0.911   4.731 -0.1367  0.9642  0.0825
15820TIP3    H268952   4.835   0.964   4.595  0.1837 -0.3747 -0.3710
15821TIP3   OH268953   3.073   5.574   3.074  0.2606  0.3792  0.2832
15821TIP3    H168954   3.164   5.546   3.067 -0.0316 -0.2492 -1.7760
15821TIP3    H268955   3.030   5.531   3.000 -1.4715  1.5970  0.5380
15822TIP3   OH268956   1.195   4.071   3.099  0.7600 -0.5140 -0.0124
15822TIP3    H168957   1.237   4.113   3.174 -0.4659 -0.0919  0.4712
15822TIP3    H268958   1.114   4.034   3.135 -0.4658  0.7330 -1.3279
15823TIP3   OH268959   3.902   0.555   5.062  0.2224 -0.4045 -0.0851
15823TIP3    H168960   3.811   0.545   5.034  0.2527 -0.2306 -0.2480
15823TIP3    H268961   3.951   0.489   5.013  0.2762 -0.0976 -0.4496
15824TIP3   OH268962   2.382   5.791   3.869  0.2381  0.3004  0.1783
15824TIP3    H168963   2.432   5.715   3.839  0.6988 -0.0233  1.7068
15824TIP3    H268964   2.357   5.836   3.788  3.4112  0.7494 -0.6741
15825TIP3   OH268965   6.806   2.025   2.510 -0.0825 -0.1557 -0.3876
15825TIP3    H168966   6.888   2.070   2.490  0.0428 -1.0316 -1.9822
15825TIP3    H268967   6.795   2.037   2.605  2.7170 -1.3459  0.1888
15826TIP3   OH268968   2.297   1.833   4.088  0.2099 -0.5200 -0.8143
15826TIP3    H168969   2.334   1.893   4.153  1.3104 -0.8634 -1.1059
15826TIP3    H268970   2.205   1.859   4.080  0.5341  0.7529 -0.5143
15827TIP3   OH268971   0.219   1.436   2.022  0.4341  0.8588 -0.1261
15827TIP3    H168972   0.156   1.497   1.984  2.5368  2.3193 -1.4288
15827TIP3    H268973   0.271   1.406   1.948  1.3495 -0.2569  0.9298
15828TIP3   OH268974   5.603   2.975   1.019 -0.2881  0.3747  0.4511
15828TIP3    H168975   5.618   2.987   1.113 -0.3599 -1.3933  0.7130
15828TIP3    H268976   5.619   2.882   1.004 -0.3377  0.6201 -1.2904
15829TIP3   OH268977   4.781   6.472  15.833  0.1920 -0.2285  0.1160
15829TIP3    H168978   4.717   6.508  15.895  0.8939 -0.5340  1.0547
15829TIP3    H268979   4.813   6.548  15.784 -1.1539 -0.1275 -0.6326
15830TIP3   OH268980   2.215   3.057  11.290  0.3987  0.1692 -0.5305
15830TIP3    H168981   2.261   3.107  11.357  1.4437  1.0691 -1.8416
15830TIP3    H268982   2.271   3.063  11.213 -1.1523 -0.0721 -1.7450
15831TIP3   OH268983   5.859   2.501   6.441 -0.3206  0.1904  0.2390
15831TIP3    H168984   5.774   2.519   6.480  0.2799  1.7925  0.8764
15831TIP3    H268985   5.863   2.405   6.436 -2.6802  0.0841 -1.0530
15832TIP3   OH268986   0.552   1.674   3.578 -0.1198  0.1283 -0.3490
15832TIP3    H168987   0.587   1.762   3.562  0.4582  0.1102  0.7549
15832TIP3    H268988   0.539   1.670   3.673 -0.2237 -0.9451 -0.3975
15833TIP3   OH268989   4.891   0.381  17.013 -0.4490  0.6920  0.0591
15833TIP3    H168990   4.863   0.472  17.021  0.1353  0.8257  0.7374
15833TIP3    H268991   4.978   0.379  17.053  0.3969  0.2278 -1.6749
15834TIP3   OH268992   1.310   3.641  12.817  1.0326 -0.3531 -0.6199
15834TIP3    H168993   1.376   3.709  12.804  0.9395 -0.3693 -1.1993
15834TIP3    H268994   1.245   3.657  12.749  0.3267 -0.2151  0.0683
15835TIP3   OH268995   1.738   1.381   2.418  0.1659 -0.3154  0.4362
15835TIP3    H168996   1.806   1.412   2.478  0.0887 -1.3156  1.0502
15835TIP3    H268997   1.683   1.323   2.471 -0.3937 -0.5601 -0.3917
15836TIP3   OH268998   4.854   6.083   3.949 -0.0832  0.1594 -0.7459
15836TIP3    H168999   4.807   6.000   3.955 -1.1298  0.7434 -0.6653
15836TIP3    H269000   4.884   6.086   3.858  0.4564 -0.5605 -0.5993
15837TIP3   OH269001   4.381   2.273   5.654  0.4716  0.0886 -0.0359
15837TIP3    H169002   4.335   2.210   5.598 -1.1977  1.1953  0.0422
15837TIP3    H269003   4.320   2.293   5.724  1.8574  0.0955  1.2263
15838TIP3   OH269004   2.624   2.282   5.244  0.3358  0.1124 -0.4188
15838TIP3    H169005   2.680   2.294   5.320  0.0436 -0.4005 -0.1106
15838TIP3    H269006   2.674   2.317   5.171  1.3790 -0.9903 -0.2750
15839TIP3   OH269007   2.550   5.539   1.366 -0.2541 -0.2743  0.2659
15839TIP3    H169008   2.514   5.467   1.315 -0.2802 -0.8167  1.0392
15839TIP3    H269009   2.642   5.543   1.340 -1.0166  1.9045 -2.6404
15840TIP3   OH269010   5.879   0.296   4.188  0.0376  0.2946 -0.2793
15840TIP3    H169011   5.794   0.267   4.222 -0.8905  1.8374 -1.1129
15840TIP3    H269012   5.922   0.337   4.263 -0.4711  0.5198 -0.1016
15841TIP3   OH269013   6.648   6.472  13.714 -0.3114 -0.2515 -0.1592
15841TIP3    H169014   6.602   6.464  13.797 -1.3922  0.3437 -0.6804
15841TIP3    H269015   6.738   6.443  13.733  0.1387  2.1276  1.8001
15842TIP3   OH269016   2.916   5.737   0.954 -0.2499 -0.4756  0.0993
15842TIP3    H169017   2.920   5.826   0.990  0.4308 -0.2961 -0.3992
15842TIP3    H269018   2.979   5.738   0.882 -1.8688 -0.6836 -1.3884
15843TIP3   OH269019   4.863   5.311  16.011 -0.1140 -0.1456  0.4955
15843TIP3    H169020   4.945   5.360  16.016  0.1741 -0.6951  1.5564
15843TIP3    H269021   4.825   5.320  16.099 -0.9391 -0.3204  0.1643
15844TIP3   OH269022   6.258   0.119   5.718  0.2739  0.9428 -0.0425
15844TIP3    H169023   6.318   0.190   5.741  0.1527  0.5327  1.7024
15844TIP3    H269024   6.199   0.113   5.793  0.2015 -0.9125 -0.2091
15845TIP3   OH269025   0.700   5.864  12.653 -0.5505 -0.2092  0.2145
15845TIP3    H169026   0.788   5.887  12.685  0.2570 -3.1778  0.3698
15845TIP3    H269027   0.651   5.839  12.731 -0.7327 -0.9846 -0.1431
15846TIP3   OH269028   5.150   1.151   0.473 -0.4228 -0.0265  0.1598
15846TIP3    H169029   5.215   1.217   0.447 -1.4013  0.8679 -0.1050
15846TIP3    H269030   5.169   1.076   0.418 -0.0513  0.4875 -0.4316
15847TIP3   OH269031   2.656   6.767  15.307  0.0009  0.1326 -0.0458
15847TIP3    H169032   2.690   6.736  15.391  0.3030  0.4201 -0.0573
15847TIP3    H269033   2.719   6.834  15.280  1.0048 -1.3146 -1.4538
15848TIP3   OH269034   5.340   3.982  16.592 -0.0611  0.2412 -0.1995
15848TIP3    H169035   5.349   3.899  16.639 -1.1224  0.1484 -0.1367
15848TIP3    H269036   5.334   3.957  16.500  1.2635  0.3727 -0.3379
15849TIP3   OH269037   6.451   4.278   4.434  0.1240  0.2030  0.2290
15849TIP3    H169038   6.358   4.295   4.450  0.0593  0.4139 -0.3425
15849TIP3    H269039   6.470   4.327   4.354  0.1149 -1.8208 -1.1005
15850TIP3   OH269040   4.057   5.467   2.135 -0.6511  0.5600 -0.0040
15850TIP3    H169041   3.985   5.482   2.074 -1.2371  0.6630  0.7000
15850TIP3    H269042   4.131   5.516   2.098 -1.0122  0.6767 -0.5807
15851TIP3   OH269043   1.271   5.805   0.012  0.2065  0.2543 -0.2192
15851TIP3    H169044   1.245   5.742  -0.055  1.9543  0.8891 -1.5846
15851TIP3    H269045   1.189   5.837   0.049 -0.7955 -0.5373 -1.6734
15852TIP3   OH269046   2.626   5.128   5.229 -0.5378  0.7303  0.3845
15852TIP3    H169047   2.590   5.042   5.251 -0.0928 -0.3634 -2.6166
15852TIP3    H269048   2.555   5.173   5.184 -0.0992  1.0619  0.0176
15853TIP3   OH269049   4.371   3.780  15.564  0.4063  0.0309 -0.8258
15853TIP3    H169050   4.434   3.716  15.530  0.6772 -0.2488  0.1633
15853TIP3    H269051   4.402   3.864  15.530  0.2277 -0.3146 -1.8761
15854TIP3   OH269052   4.044   4.766  13.224 -0.3042 -0.5096  0.0189
15854TIP3    H169053   3.980   4.832  13.196 -0.3852 -0.2746  0.7252
15854TIP3    H269054   4.123   4.816  13.243 -0.6784 -0.4425  1.5804
15855TIP3   OH269055   1.281   3.473   2.317 -0.4151 -0.0912 -0.2261
15855TIP3    H169056   1.287   3.499   2.409 -1.6980  0.9517 -0.3976
15855TIP3    H269057   1.253   3.553   2.272  0.8033 -0.4138 -1.6391
15856TIP3   OH269058   2.725   2.018  13.721 -0.4925  0.1914 -0.4213
15856TIP3    H169059   2.800   1.976  13.761  1.7560  2.9997 -1.3428
15856TIP3    H269060   2.704   1.962  13.646 -1.5923 -2.4070  1.6618
15857TIP3   OH269061   0.188   6.778  14.798 -0.1104  0.3428 -0.1267
15857TIP3    H169062   0.201   6.697  14.748  0.0785  0.4194 -0.2037
15857TIP3    H269063   0.255   6.774  14.867 -0.0731  0.4544 -0.1563
15858TIP3   OH269064   2.182   2.316   2.157 -0.3873  0.2142  0.0657
15858TIP3    H169065   2.088   2.315   2.176 -0.2065  1.0349  1.0831
15858TIP3    H269066   2.219   2.253   2.218 -0.2799 -0.1823 -0.4027
15859TIP3   OH269067   6.295   3.320   6.112  0.1585  0.1273  0.8045
15859TIP3    H169068   6.293   3.355   6.201  0.8369  2.6844 -0.0936
15859TIP3    H269069   6.385   3.290   6.100  0.4827  1.1701  0.5281
15860TIP3   OH269070   4.498   5.504   2.013 -0.0350 -0.3155  1.2771
15860TIP3    H169071   4.487   5.458   2.097 -3.5685 -1.0863  0.5547
15860TIP3    H269072   4.556   5.447   1.963  1.9058  0.0095  3.0276
15861TIP3   OH269073   0.968   4.615   6.247  0.1733  0.6167 -0.0790
15861TIP3    H169074   0.875   4.636   6.258  0.9373  3.7407  1.5368
15861TIP3    H269075   1.000   4.605   6.337  1.4844 -0.2406 -0.6175
15862TIP3   OH269076   6.247   0.228  16.482  0.8276  0.5404  0.7485
15862TIP3    H169077   6.321   0.260  16.431  1.7553 -1.0396  1.0230
15862TIP3    H269078   6.171   0.240  16.426  1.4728  1.1079 -0.0131
15863TIP3   OH269079   2.858   4.555  16.840 -0.5539  0.3993  0.2379
15863TIP3    H169080   2.832   4.642  16.808  0.3130  0.2494 -0.9370
15863TIP3    H269081   2.833   4.495  16.769 -0.8332 -0.2789  0.8958
15864TIP3   OH269082   5.437   5.169  13.047 -0.3514  0.0315  0.2823
15864TIP3    H169083   5.521   5.196  13.009 -1.7754  1.3652 -2.1745
15864TIP3    H269084   5.445   5.192  13.140  1.4247  1.6246 -0.1960
15865TIP3   OH269085   1.183   0.015   3.925 -0.1808 -0.1348  0.0547
15865TIP3    H169086   1.184  -0.065   3.977  0.1117 -0.2282 -0.0953
15865TIP3    H269087   1.188   0.086   3.990  0.2188 -0.2504  0.1501
15866TIP3   OH269088   0.320   2.589   1.054  0.6073 -0.2097  0.1759
15866TIP3    H169089   0.393   2.567   0.997  0.2099  0.6151 -0.6763
15866TIP3    H269090   0.256   2.631   0.997 -0.3762 -0.5653  0.9767
15867TIP3   OH269091   6.749   1.313   4.805 -0.5731 -0.6081  0.8162
15867TIP3    H169092   6.801   1.238   4.776 -0.8217 -0.3362 -0.3589
15867TIP3    H269093   6.701   1.280   4.881 -0.1393 -1.4186  0.7562
15868TIP3   OH269094   5.627   6.796   1.020 -0.0851  0.0067  0.5840
15868TIP3    H169095   5.659   6.885   1.033 -2.7041  1.2105 -0.4921
15868TIP3    H269096   5.548   6.790   1.073 -0.9912 -0.9968 -0.7871
15869TIP3   OH269097   5.902   0.374  13.580  0.0906  0.4657  0.5975
15869TIP3    H169098   5.966   0.303  13.588 -0.6527 -0.6921 -2.5512
15869TIP3    H269099   5.955   0.452  13.567  0.8796  0.2681  2.2903
15870TIP3   OH269100   6.660   2.056  14.730 -0.4635 -0.3313 -0.3267
15870TIP3    H169101   6.732   2.007  14.692  0.7963  1.9605 -1.0661
15870TIP3    H269102   6.634   2.005  14.807  0.2918 -2.4409 -1.3891
15871TIP3   OH269103   0.847   5.729   4.851 -0.3912  0.3894  1.0404
15871TIP3    H169104   0.904   5.804   4.867  1.6462 -1.1204  1.3649
15871TIP3    H269105   0.877   5.694   4.767 -1.8452  0.3709  0.5009
15872TIP3   OH269106   1.565   2.613   4.122 -0.1228  0.4388 -0.3183
15872TIP3    H169107   1.659   2.619   4.138  0.1163 -2.9108  0.2828
15872TIP3    H269108   1.524   2.636   4.205  0.2342  0.4392 -0.1432
15873TIP3   OH269109   2.895   5.947  11.199 -0.1525 -0.0260  0.2373
15873TIP3    H169110   2.839   5.970  11.125  1.4489  1.4693 -0.5815
15873TIP3    H269111   2.877   6.013  11.266  0.8876  0.7412 -0.2035
15874TIP3   OH269112   2.608   3.203  12.417  0.1333 -0.7597 -0.1971
15874TIP3    H169113   2.537   3.245  12.368  1.6640  1.0356 -1.0195
15874TIP3    H269114   2.576   3.200  12.507 -0.7597  0.6345 -0.4277
15875TIP3   OH269115   2.406   4.521   3.678  0.3082 -0.1815 -0.3473
15875TIP3    H169116   2.364   4.516   3.764 -0.4012 -3.0447 -0.7484
15875TIP3    H269117   2.338   4.495   3.616  1.7348 -1.7802 -1.3369
15876TIP3   OH269118   4.839   5.992  14.813  0.4743  0.5015 -0.2556
15876TIP3    H169119   4.794   6.051  14.752 -0.1923  0.4131  0.1489
15876TIP3    H269120   4.888   6.051  14.871  1.2313  0.5818 -0.9466
15877TIP3   OH269121   3.312   3.597   0.123  0.9246  0.0960  0.1049
15877TIP3    H169122   3.237   3.581   0.180 -0.6114  0.3065 -1.7883
15877TIP3    H269123   3.318   3.692   0.117  1.8268  0.1015  0.8015
15878TIP3   OH269124   1.616   3.061  15.791 -0.1554  0.0207 -0.2761
15878TIP3    H169125   1.575   2.981  15.827 -0.0019  0.2137  0.3430
15878TIP3    H269126   1.710   3.047  15.804 -0.1578  0.5510  0.3849
15879TIP3   OH269127   3.039   1.742  12.972  0.0316 -0.3225 -0.4179
15879TIP3    H169128   2.997   1.656  12.966 -0.6472  0.0608 -1.4248
15879TIP3    H269129   2.967   1.803  12.987  0.1848  0.3483 -2.1763
15880TIP3   OH269130   3.716   0.602   0.806  0.2711  0.7469  0.8691
15880TIP3    H169131   3.756   0.517   0.821 -0.7822  0.1631  0.5082
15880TIP3    H269132   3.640   0.604   0.864 -0.1643  1.1102  0.2992
15881TIP3   OH269133   2.143   5.290  12.167  0.2698  0.3500  0.2781
15881TIP3    H169134   2.230   5.254  12.148  0.2885  1.3847 -1.7748
15881TIP3    H269135   2.086   5.213  12.170  1.0143 -0.2152  0.2528
15882TIP3   OH269136   0.422   1.299  11.771  0.3215 -0.0786 -0.4315
15882TIP3    H169137   0.446   1.278  11.861  0.3207 -0.9618 -0.6326
15882TIP3    H269138   0.326   1.302  11.773  0.3523  2.0296  0.0516
15883TIP3   OH269139   3.601   5.344   5.131 -0.8597  0.0662 -0.0146
15883TIP3    H169140   3.614   5.293   5.051  2.2149  0.5632  0.0693
15883TIP3    H269141   3.557   5.424   5.101  1.3473  0.8122 -1.5156
15884TIP3   OH269142   1.051   3.874   0.706 -0.1595 -0.2250  0.3432
15884TIP3    H169143   1.017   3.788   0.682 -0.5951 -0.3690  1.4207
15884TIP3    H269144   1.087   3.910   0.624  1.0060 -1.8665  0.0802
15885TIP3   OH269145   5.473   4.337   6.188 -0.3228  0.6066  0.3804
15885TIP3    H169146   5.399   4.368   6.240 -1.2241  1.0117 -1.0878
15885TIP3    H269147   5.456   4.370   6.100 -0.5426 -2.6788 -0.9452
15886TIP3   OH269148   3.334   3.311   0.630 -0.3368  0.1530  0.4322
15886TIP3    H169149   3.289   3.303   0.546  0.1223  0.6551  0.1329
15886TIP3    H269150   3.356   3.221   0.654  1.8645  0.1247 -1.2826
15887TIP3   OH269151   1.856   5.777  14.262  0.0794  0.2466 -0.0985
15887TIP3    H169152   1.827   5.756  14.173  0.8840 -0.0168 -0.3079
15887TIP3    H269153   1.845   5.872  14.269 -1.0609  0.1352 -0.0714
15888TIP3   OH269154   5.386   4.608   1.309  0.5314  0.4387 -0.0354
15888TIP3    H169155   5.457   4.625   1.247  1.3284  0.2488  0.8177
15888TIP3    H269156   5.427   4.562   1.381 -0.1705  1.5846  1.1375
15889TIP3   OH269157   5.183   3.938  13.682  0.5326  0.2577  0.4501
15889TIP3    H169158   5.124   3.874  13.643  1.3708 -0.5699  0.5164
15889TIP3    H269159   5.265   3.891  13.695  0.9664  1.1620  1.1124
15890TIP3   OH269160   5.545   3.843  15.135  0.0357 -0.1967  0.3695
15890TIP3    H169161   5.607   3.871  15.068 -1.4200  0.6069 -0.7073
15890TIP3    H269162   5.486   3.783  15.090 -1.3809  0.8801  0.7126
15891TIP3   OH269163   3.962   3.383  12.903 -0.0102 -0.1103  0.2504
15891TIP3    H169164   4.032   3.432  12.944 -0.1230  0.2411  0.0226
15891TIP3    H269165   3.884   3.437  12.915 -0.6644 -1.3653  2.2280
15892TIP3   OH269166   4.035   4.008   2.259 -0.2622 -0.6221 -0.1463
15892TIP3    H169167   4.066   3.933   2.209 -2.9653 -0.9078 -1.5562
15892TIP3    H269168   4.100   4.076   2.242  1.2369 -2.0526 -0.3800
15893TIP3   OH269169   4.759   4.575  16.372  0.2276  0.0671  0.2968
15893TIP3    H169170   4.740   4.635  16.444 -1.4001  1.2482 -1.0390
15893TIP3    H269171   4.681   4.522  16.363  1.0472 -1.1918  0.4199
15894TIP3   OH269172   5.158   5.663  11.923 -0.1422  0.5793  0.4995
15894TIP3    H169173   5.215   5.630  11.853 -1.8100 -0.7830 -0.3103
15894TIP3    H269174   5.078   5.690  11.878 -2.1033 -2.2684  1.9472
15895TIP3   OH269175   1.263   6.272  15.637  0.3818 -0.1551 -0.2559
15895TIP3    H169176   1.276   6.339  15.704  1.5224  0.2390 -0.8504
15895TIP3    H269177   1.303   6.194  15.674  1.6687  0.2484 -0.7628
15896TIP3   OH269178   4.811   3.372  14.694  0.9452 -0.1264  0.2961
15896TIP3    H169179   4.753   3.448  14.698 -1.3106 -1.7247 -0.2372
15896TIP3    H269180   4.809   3.336  14.783 -1.4111 -1.8683 -0.3592
15897TIP3   OH269181   2.777   3.068  11.442 -0.0459 -0.0082 -0.4029
15897TIP3    H169182   2.746   3.139  11.386 -0.8279 -0.1918 -0.2151
15897TIP3    H269183   2.848   3.107  11.493  0.9637  0.0418 -1.8127
15898TIP3   OH269184   2.950   1.912  15.288 -0.3433  0.2468 -0.0691
15898TIP3    H169185   2.873   1.868  15.253  0.3746 -0.2878 -1.0407
15898TIP3    H269186   2.953   1.887  15.380 -0.4661 -1.0002 -0.3900
15899TIP3   OH269187   4.652   6.460  11.690 -0.0252 -0.2183  0.4383
15899TIP3    H169188   4.659   6.492  11.780  0.5979 -2.6334  1.3389
15899TIP3    H269189   4.708   6.382  11.688  0.6912  0.2490 -2.3047
15900TIP3   OH269190   1.475   2.766   4.667 -0.0971 -0.1434 -0.4384
15900TIP3    H169191   1.529   2.704   4.716 -1.0001 -0.4973  0.1375
15900TIP3    H269192   1.398   2.779   4.722 -0.4186  0.6708 -1.0529
15901TIP3   OH269193   0.202   0.268  11.197  0.3419  0.3484  0.2365
15901TIP3    H169194   0.126   0.280  11.140  0.1283 -1.8527  0.0093
15901TIP3    H269195   0.277   0.296  11.144 -0.0642  0.2827 -0.3770
15902TIP3   OH269196   6.414   2.666   2.060 -0.1271 -0.5083  0.2926
15902TIP3    H169197   6.475   2.610   2.106 -0.7767 -2.2320 -0.8565
15902TIP3    H269198   6.468   2.717   2.000  0.4761  0.2257  1.4231
15903TIP3   OH269199   5.609   5.863  10.783  0.0192  0.0786 -0.2145
15903TIP3    H169200   5.590   5.955  10.764  0.4542  0.3461  0.5910
15903TIP3    H269201   5.705   5.859  10.784  0.0057 -0.5433 -0.9616
15904TIP3   OH269202   2.682   6.419  12.658 -0.1299 -0.2727  0.0013
15904TIP3    H169203   2.649   6.340  12.700 -0.8390 -0.2035 -0.4222
15904TIP3    H269204   2.711   6.475  12.731 -0.5781 -0.4959  0.3515
15905TIP3   OH269205   1.998   2.272   4.501  0.3991  0.3902 -0.2880
15905TIP3    H169206   1.980   2.284   4.408 -1.8352  0.2272  0.0601
15905TIP3    H269207   2.074   2.327   4.518  1.4434 -0.2980 -2.3722
15906TIP3   OH269208   5.366   6.079  16.049 -0.9349  0.0811  0.3728
15906TIP3    H169209   5.424   6.002  16.056  0.4510  1.1032  0.5549
15906TIP3    H269210   5.417   6.151  16.087 -3.0669  0.6817  2.3659
15907TIP3   OH269211   1.002   6.628  16.711 -0.0472  0.2131 -0.0612
15907TIP3    H169212   0.962   6.569  16.647 -2.6804  2.4226 -0.6604
15907TIP3    H269213   0.959   6.712  16.696  1.4637  1.6039  2.6162
15908TIP3   OH269214   1.187   4.169   4.468 -0.2839 -0.2892  0.0592
15908TIP3    H169215   1.269   4.209   4.499  0.3028  0.4370 -2.2640
15908TIP3    H269216   1.188   4.081   4.506  1.9350 -0.5363 -0.4378
15909TIP3   OH269217   1.736   0.044  16.201 -0.5557 -0.1154 -0.3577
15909TIP3    H169218   1.776   0.101  16.135 -0.7948 -0.6067 -0.9380
15909TIP3    H269219   1.758  -0.045  16.173 -1.9710 -0.4024 -0.6557
15910TIP3   OH269220   1.801   5.737   5.117 -0.1385  0.2049 -0.0461
15910TIP3    H169221   1.823   5.746   5.024 -0.5572 -1.9663 -0.4211
15910TIP3    H269222   1.807   5.643   5.133 -1.0156  0.4412  1.8947
15911TIP3   OH269223   0.129   5.426   2.104 -0.2167 -0.0158  0.5775
15911TIP3    H169224   0.043   5.384   2.106  0.7355 -2.1677 -1.0257
15911TIP3    H269225   0.171   5.398   2.185 -0.1885 -0.8490  0.2789
15912TIP3   OH269226   4.721   2.603   3.477  0.3596 -0.1126  0.6911
15912TIP3    H169227   4.771   2.525   3.454  1.5762  0.2645  1.9354
15912TIP3    H269228   4.772   2.676   3.441 -0.0726  0.1910  0.6870
15913TIP3   OH269229   2.935   2.828   1.643  0.2343  0.7599  0.3582
15913TIP3    H169230   2.928   2.733   1.636  2.5540  0.5270  0.3789
15913TIP3    H269231   2.965   2.843   1.733 -1.9226  1.6976  0.9958
15914TIP3   OH269232   5.127   0.886   4.589  0.0383  0.7871  0.2087
15914TIP3    H169233   5.206   0.910   4.541  0.6399 -0.1185  0.7129
15914TIP3    H269234   5.056   0.932   4.544  0.8906  1.8954 -0.0318
15915TIP3   OH269235   4.138   0.137  12.182  0.3088 -0.1290 -0.3875
15915TIP3    H169236   4.193   0.128  12.260 -2.0266  1.8558  1.6438
15915TIP3    H269237   4.125   0.047  12.151 -0.0403 -1.1807  2.5304
15916TIP3   OH269238   2.286   1.172   4.745  0.2538 -0.2376  0.2095
15916TIP3    H169239   2.239   1.233   4.802  1.5505  1.4595 -0.4319
15916TIP3    H269240   2.344   1.124   4.803  1.3734  1.2888  0.4268
15917TIP3   OH269241   4.325   0.622   2.484 -0.5173 -0.6166  0.7769
15917TIP3    H169242   4.321   0.632   2.579 -0.7575  1.0895  0.6203
15917TIP3    H269243   4.238   0.648   2.454  0.3263  1.4488 -0.0642
15918TIP3   OH269244   0.216   0.999  14.109  0.0185  0.2566 -0.3032
15918TIP3    H169245   0.257   1.034  14.030  1.2270 -0.5071 -0.0525
15918TIP3    H269246   0.277   1.021  14.180  0.4087 -1.5364 -0.0249
15919TIP3   OH269247   1.867   1.121  12.044  0.1898 -0.0768 -0.1159
15919TIP3    H169248   1.892   1.088  12.131  2.1398  0.6010 -0.3636
15919TIP3    H269249   1.889   1.050  11.984 -0.3971 -0.2356 -0.1497
15920TIP3   OH269250   6.550   4.109   1.041 -0.0967  0.2261 -0.2284
15920TIP3    H169251   6.483   4.166   1.079  0.9580  0.8682  0.7677
15920TIP3    H269252   6.575   4.051   1.113  0.5976  0.1772 -0.5012
15921TIP3   OH269253   5.793   0.131  13.149  0.3268  0.8991  0.0463
15921TIP3    H169254   5.853   0.075  13.099 -0.9128 -0.1109 -0.3881
15921TIP3    H269255   5.761   0.195  13.085  0.4015  0.9855  0.0957
15922TIP3   OH269256   1.949   5.345   0.127  0.0053 -0.4122 -0.0238
15922TIP3    H169257   2.038   5.340   0.163  0.1000 -0.5294 -0.2747
15922TIP3    H269258   1.894   5.305   0.195 -0.0430  0.9577  0.7635
15923TIP3   OH269259   3.499   3.803   4.008  0.2391 -0.1123  0.4489
15923TIP3    H169260   3.593   3.815   3.989  0.4505 -1.7038  0.3373
15923TIP3    H269261   3.481   3.713   3.981 -1.0205 -0.2603  1.6983
15924TIP3   OH269262   2.327   6.686   3.803 -0.0027  0.4164 -0.1783
15924TIP3    H169263   2.419   6.712   3.813 -0.8066  2.6774  3.0323
15924TIP3    H269264   2.327   6.592   3.818  1.6492  0.6247  1.5254
15925TIP3   OH269265   5.427   0.898  12.206 -0.4883  0.4991 -0.0346
15925TIP3    H169266   5.402   0.897  12.298 -0.2160 -0.9066  0.0561
15925TIP3    H269267   5.345   0.881  12.159 -0.0961 -2.6222  0.1895
15926TIP3   OH269268   0.640   5.228  12.374  0.1150 -0.1587  0.1461
15926TIP3    H169269   0.708   5.226  12.441  0.0403 -1.0934  0.2174
15926TIP3    H269270   0.582   5.155  12.397  0.3565 -0.8062 -1.1706
15927TIP3   OH269271   2.079   4.343  16.376  0.0104 -0.2346 -0.9091
15927TIP3    H169272   2.113   4.427  16.406  1.0857 -0.9961  0.1227
15927TIP3    H269273   2.149   4.308  16.320  0.0336 -0.8977 -0.4774
15928TIP3   OH269274   5.934   1.531  16.960  0.1033 -0.1768  0.0155
15928TIP3    H169275   6.009   1.472  16.956 -1.1292 -1.8133 -0.1430
15928TIP3    H269276   5.965   1.611  16.918  1.2824 -1.3524 -1.5350
15929TIP3   OH269277   3.392   5.982   1.459 -0.3456 -0.0804 -0.1003
15929TIP3    H169278   3.383   5.904   1.405  0.7648  0.8832 -1.7322
15929TIP3    H269279   3.303   6.000   1.490 -0.7443 -1.5008 -0.3696
15930TIP3   OH269280   5.495   3.311  16.481 -0.2406 -0.5436  0.1239
15930TIP3    H169281   5.516   3.305  16.574  0.1379 -0.1740  0.0628
15930TIP3    H269282   5.520   3.225  16.446 -1.0474 -0.9409  0.4897
15931TIP3   OH269283   5.689   0.993   5.304 -0.4007  0.3765 -0.1998
15931TIP3    H169284   5.771   0.944   5.295 -1.1510 -1.0934  0.6355
15931TIP3    H269285   5.620   0.927   5.298 -1.4418  1.2189  1.5446
15932TIP3   OH269286   4.905   1.776  14.140  0.2295  0.0104 -0.2934
15932TIP3    H169287   4.940   1.696  14.180  1.8486  1.6267  1.6831
15932TIP3    H269288   4.858   1.820  14.211  1.4213  1.9668 -0.6552
15933TIP3   OH269289   3.218   4.157   5.168 -0.1381  0.5422 -0.3004
15933TIP3    H169290   3.282   4.216   5.129  1.0385 -0.2573  0.3562
15933TIP3    H269291   3.133   4.197   5.150  0.6388  2.7487  0.6152
15934TIP3   OH269292   4.829   6.205  12.357  0.0654  0.6218 -0.7198
15934TIP3    H169293   4.874   6.130  12.319  1.6422 -0.0926  2.2745
15934TIP3    H269294   4.888   6.279  12.341  0.0404  0.6126 -0.8600
15935TIP3   OH269295   6.600   4.200   4.009  0.0335  0.1145  0.1367
15935TIP3    H169296   6.631   4.256   4.081  3.2380 -0.0059 -0.9794
15935TIP3    H269297   6.604   4.111   4.044  1.4953  0.0654 -0.0760
15936TIP3   OH269298   5.050   0.011   1.069  0.1246 -0.0483  0.4735
15936TIP3    H169299   5.000  -0.062   1.032  1.5277 -1.3295  0.9960
15936TIP3    H269300   5.062  -0.011   1.161  3.6716 -1.1180 -0.0769
15937TIP3   OH269301   0.467   6.588   5.822  0.2334  0.3822  0.5475
15937TIP3    H169302   0.414   6.666   5.808  0.7072  0.8549  1.2578
15937TIP3    H269303   0.554   6.612   5.788 -0.0280 -0.4335 -0.7456
15938TIP3   OH269304   5.690   3.583   3.482 -0.2920 -0.2763  0.4741
15938TIP3    H169305   5.595   3.576   3.479 -0.4058  0.9612  0.5792
15938TIP3    H269306   5.708   3.633   3.561  0.3458  0.7864 -0.3202
15939TIP3   OH269307   0.430   6.596  15.154 -0.0433  0.2988 -0.5868
15939TIP3    H169308   0.474   6.593  15.069  1.2365  1.1307  0.0190
15939TIP3    H269309   0.337   6.593  15.133  0.2446  0.7235 -2.0277
15940TIP3   OH269310   4.724   0.643  11.084 -0.5684 -0.1427  0.3415
15940TIP3    H169311   4.718   0.549  11.098  0.8781 -0.0928  1.4708
15940TIP3    H269312   4.659   0.680  11.144 -0.3373 -0.3810  0.7483
15941TIP3   OH269313   5.501   2.922   3.007  0.3021  0.1374 -0.3446
15941TIP3    H169314   5.530   2.929   2.916  0.4459 -0.1183 -0.3221
15941TIP3    H269315   5.461   2.835   3.012  0.6098  0.0115 -0.0782
15942TIP3   OH269316   0.294   1.404   5.851  0.4566  0.1521  0.1808
15942TIP3    H169317   0.247   1.327   5.882  0.6720 -0.4675 -0.9555
15942TIP3    H269318   0.251   1.478   5.893 -0.3344 -0.5266  0.5844
15943TIP3   OH269319   1.302   4.973   5.598 -0.5052 -0.7011 -0.0829
15943TIP3    H169320   1.294   5.068   5.593 -0.2066 -0.7304 -1.4662
15943TIP3    H269321   1.222   4.944   5.644  0.3417  0.3350  2.2019
15944TIP3   OH269322   1.273   3.575   3.146 -0.0991  0.7265  0.4095
15944TIP3    H169323   1.278   3.599   3.053  0.4401  0.3396  0.3349
15944TIP3    H269324   1.286   3.657   3.193  3.1311  0.4481  0.1836
15945TIP3   OH269325   3.367   3.203  15.597 -0.4536  0.7694 -0.2206
15945TIP3    H169326   3.387   3.114  15.629  2.4631  1.7091  0.8760
15945TIP3    H269327   3.273   3.201  15.579 -0.8852 -1.9717  1.6866
15946TIP3   OH269328   2.856   3.372   0.911 -0.0443  0.4403  0.0606
15946TIP3    H169329   2.806   3.314   0.853  0.2707 -0.4207  0.6358
15946TIP3    H269330   2.926   3.405   0.855  0.0704 -0.1293 -0.1472
15947TIP3   OH269331   0.487   5.577  11.217  0.1921 -0.1856 -0.5431
15947TIP3    H169332   0.458   5.644  11.279  1.0222 -1.2351  1.0541
15947TIP3    H269333   0.483   5.496  11.267 -0.6300 -1.3318 -2.3822
15948TIP3   OH269334   6.682   1.880   3.987  0.8835 -0.3828  0.0023
15948TIP3    H169335   6.754   1.820   4.002  2.0534  1.1237  0.7085
15948TIP3    H269336   6.716   1.944   3.925 -0.3036 -0.3870 -0.6874
15949TIP3   OH269337   5.603   2.995   5.037 -0.4245  0.1316 -0.7752
15949TIP3    H169338   5.610   3.013   5.131 -1.4439 -4.2931  0.3458
15949TIP3    H269339   5.510   3.010   5.016 -0.9464 -2.0244 -0.1929
15950TIP3   OH269340   2.486   4.502  12.297 -0.3788 -0.3490 -0.8425
15950TIP3    H169341   2.420   4.561  12.261  0.4160 -1.0622 -3.7329
15950TIP3    H269342   2.557   4.503  12.232  1.0265 -2.0994  0.5565
15951TIP3   OH269343   3.476   0.298  15.179 -0.1264 -0.2026  0.7348
15951TIP3    H169344   3.441   0.328  15.095  1.8013  1.1651  0.3593
15951TIP3    H269345   3.489   0.204  15.167  0.2472 -0.0021 -0.5613
15952TIP3   OH269346   2.903   1.787  14.723 -0.4545 -0.4018 -0.1552
15952TIP3    H169347   2.879   1.694  14.731  1.5375 -1.0467 -1.1014
15952TIP3    H269348   2.837   1.833  14.775 -0.4741 -2.4892  1.8486
15953TIP3   OH269349   0.801   4.254   1.485  0.0308  0.1317 -0.5091
15953TIP3    H169350   0.810   4.160   1.469  0.9017  0.2113 -0.5219
15953TIP3    H269351   0.710   4.264   1.513  0.1676 -0.8394  0.3614
15954TIP3   OH269352   2.212   0.040  15.390  0.4685  0.0230 -0.0273
15954TIP3    H169353   2.250   0.125  15.368 -0.8168  0.6227 -0.0326
15954TIP3    H269354   2.147   0.025  15.322 -0.2535 -0.3279  0.7291
15955TIP3   OH269355   2.506   1.012  15.474 -0.0752 -0.7429  0.3806
15955TIP3    H169356   2.529   0.931  15.518 -0.7329 -0.9426  0.3709
15955TIP3    H269357   2.559   1.013  15.395  1.8241  0.0644  1.5990
15956TIP3   OH269358   5.551   1.856   6.123 -0.1489 -0.0885 -0.2643
15956TIP3    H169359   5.458   1.838   6.135 -0.2695  0.5511 -0.1683
15956TIP3    H269360   5.596   1.776   6.151 -0.5985  0.1406  1.1559
15957TIP3   OH269361   6.545   0.495  10.893 -0.8947  0.0997  0.4791
15957TIP3    H169362   6.620   0.470  10.840  0.0012  1.2060  1.1811
15957TIP3    H269363   6.540   0.430  10.963 -0.4909  0.1219  0.5263
15958TIP3   OH269364   0.575   2.335   3.230  0.0482 -0.5898 -0.5567
15958TIP3    H169365   0.488   2.308   3.257  0.1399 -1.2670 -0.9268
15958TIP3    H269366   0.631   2.314   3.304  0.1063 -1.3630 -0.8111
15959TIP3   OH269367   2.904   4.730   1.253 -0.2606  0.1403 -0.0285
15959TIP3    H169368   2.870   4.677   1.324  0.5911  0.1907  0.4286
15959TIP3    H269369   2.990   4.693   1.234 -0.8320 -0.4382 -1.6473
15960TIP3   OH269370   5.919   3.354  11.449 -0.3548  0.1780 -0.2853
15960TIP3    H169371   5.851   3.395  11.502 -0.1183  1.4398 -0.9179
15960TIP3    H269372   5.903   3.260  11.458  1.1424  0.1129  3.9996
15961TIP3   OH269373   4.088   3.958  14.758 -0.0018  0.2117  0.0403
15961TIP3    H169374   4.040   4.039  14.777 -1.0689 -0.4228  0.1397
15961TIP3    H269375   4.180   3.984  14.757 -0.0807  0.9264  2.8552
15962TIP3   OH269376   3.439   1.687  17.201 -0.5182 -0.3521 -0.1276
15962TIP3    H169377   3.515   1.629  17.211  0.2444  0.6124 -0.1798
15962TIP3    H269378   3.476   1.770  17.171 -1.1826  1.1344  2.7494
15963TIP3   OH269379   0.707   0.363   5.018  0.3906 -0.1338 -0.5534
15963TIP3    H169380   0.797   0.333   5.033  0.8894  1.2754 -0.5808
15963TIP3    H269381   0.697   0.438   5.077 -0.1022  0.9297 -1.9313
15964TIP3   OH269382   4.961   5.361   0.263  0.3146 -0.0584 -0.1898
15964TIP3    H169383   4.980   5.375   0.356 -0.8395 -0.9119  0.2000
15964TIP3    H269384   4.869   5.386   0.254  0.3865 -0.1009 -1.0789
15965TIP3   OH269385   4.054   2.807  12.426 -0.2564  0.1722 -0.2068
15965TIP3    H169386   4.030   2.857  12.504 -0.2546 -0.2785  0.0918
15965TIP3    H269387   4.127   2.855  12.387 -1.4910  1.4462 -1.0136
15966TIP3   OH269388   2.701   6.328  14.877 -0.1078 -0.8200 -0.8205
15966TIP3    H169389   2.638   6.349  14.946 -0.0794 -1.0083 -0.7365
15966TIP3    H269390   2.670   6.377  14.800  1.0761  1.2017 -0.0979
15967TIP3   OH269391   2.497   2.752   1.426  0.2731 -0.4226 -0.3864
15967TIP3    H169392   2.409   2.725   1.402 -0.5710 -0.3311  2.2496
15967TIP3    H269393   2.490   2.847   1.441  1.4586  0.0668 -2.4402
15968TIP3   OH269394   0.498   6.507   0.885  0.7001  0.2926  0.1250
15968TIP3    H169395   0.488   6.422   0.842 -0.7349 -0.4229  1.7339
15968TIP3    H269396   0.582   6.501   0.931  0.8078 -0.0873 -0.1113
15969TIP3   OH269397   1.143   6.148  12.420 -0.1663  0.4031  0.2207
15969TIP3    H169398   1.084   6.098  12.364  1.5664  0.2928 -1.5989
15969TIP3    H269399   1.094   6.227  12.443 -1.0076  0.3408 -1.2627
15970TIP3   OH269400   0.231   3.672  16.170 -0.1453 -0.0696  0.3736
15970TIP3    H169401   0.315   3.710  16.144 -1.0480  0.3152 -2.2681
15970TIP3    H269402   0.221   3.699  16.262  1.3821  2.1713 -0.0127
15971TIP3   OH269403   5.996   4.896  13.322 -0.1440 -0.3198 -0.5953
15971TIP3    H169404   5.910   4.885  13.281 -0.4373 -0.3370  0.0095
15971TIP3    H269405   6.057   4.854  13.261 -0.4443  0.4656 -1.4628
15972TIP3   OH269406   2.410   2.595  12.603  0.1346 -0.4431 -0.6300
15972TIP3    H169407   2.400   2.505  12.572 -0.3640 -0.8357  0.6237
15972TIP3    H269408   2.344   2.605  12.672 -0.1161  1.0243 -1.0347
15973TIP3   OH269409   1.742   3.334   0.332  0.5664 -0.0125 -0.1225
15973TIP3    H169410   1.669   3.275   0.352  0.6680 -0.0515  0.1377
15973TIP3    H269411   1.815   3.275   0.314 -0.0804 -0.0780 -2.9978
15974TIP3   OH269412   4.026   3.467  14.598 -0.7809  0.2451  0.5596
15974TIP3    H169413   4.028   3.561  14.615 -0.5081  0.5775 -1.1348
15974TIP3    H269414   3.971   3.457  14.521 -0.2156 -0.9080  0.2788
15975TIP3   OH269415   5.515   1.580   2.177 -0.6452 -0.4096  0.2498
15975TIP3    H169416   5.449   1.642   2.147 -0.8265  0.1812  1.8235
15975TIP3    H269417   5.518   1.513   2.108 -2.7215 -0.3348  0.0388
15976TIP3   OH269418   4.472   5.163   3.348 -0.2967 -0.3580 -0.4973
15976TIP3    H169419   4.567   5.179   3.356 -0.3945 -0.3311  0.9897
15976TIP3    H269420   4.462   5.117   3.265  0.9213  0.3922 -1.0927
15977TIP3   OH269421   6.680   0.463   5.012 -0.1638  0.5775  0.4141
15977TIP3    H169422   6.697   0.557   5.022  0.1049  0.4241  1.5625
15977TIP3    H269423   6.594   0.450   5.053  0.5127  0.0780  1.7196
15978TIP3   OH269424   0.228   5.874   5.875  0.0061 -0.1315 -0.4636
15978TIP3    H169425   0.222   5.969   5.867 -0.5437  0.0049  1.0849
15978TIP3    H269426   0.159   5.851   5.939 -0.3561 -1.6494 -1.3397
15979TIP3   OH269427   1.309   0.416   1.829  0.5153  0.2204 -0.0725
15979TIP3    H169428   1.359   0.334   1.829  0.0624 -0.0850  1.0096
15979TIP3    H269429   1.251   0.408   1.905  1.7889  2.3450  1.2309
15980TIP3   OH269430   2.124   1.390  14.752  0.2788  0.3564  0.3857
15980TIP3    H169431   2.032   1.410  14.769  0.5383  0.9503  1.1333
15980TIP3    H269432   2.123   1.346  14.667 -0.9540 -1.8931  1.5000
15981TIP3   OH269433   6.631   4.173  11.089 -0.5955  0.1130 -0.4325
15981TIP3    H169434   6.634   4.157  10.995 -0.8442  0.8165 -0.5714
15981TIP3    H269435   6.539   4.190  11.107 -0.3400  1.6269 -0.3753
15982TIP3   OH269436   5.977   0.522  16.456  0.2746  0.0728  0.2520
15982TIP3    H169437   6.071   0.502  16.451  0.3336  0.6606 -1.4959
15982TIP3    H269438   5.934   0.442  16.428  0.2544 -0.0085  0.5059
15983TIP3   OH269439   0.272   2.239   2.413  0.0285  0.3667  0.1418
15983TIP3    H169440   0.349   2.289   2.439 -0.5994  1.8878 -0.7744
15983TIP3    H269441   0.219   2.234   2.492 -0.1900  1.7711  0.1162
15984TIP3   OH269442   2.802   4.979   0.583 -0.6955 -0.4521  0.0397
15984TIP3    H169443   2.772   5.060   0.624 -0.8691 -0.7581  0.5310
15984TIP3    H269444   2.879   4.954   0.633 -0.0937 -0.1123 -0.6933
15985TIP3   OH269445   2.003   1.908  13.973 -0.3002 -0.2833 -0.2371
15985TIP3    H169446   2.066   1.970  14.010 -1.3783  1.8957 -1.7663
15985TIP3    H269447   2.052   1.860  13.907  0.2544 -0.0543  0.0026
15986TIP3   OH269448   5.633   4.263  11.825  0.0198  0.3978 -0.2228
15986TIP3    H169449   5.563   4.245  11.763 -2.9015  0.5467  2.7338
15986TIP3    H269450   5.634   4.359  11.834 -1.1492  0.2981  1.4551
15987TIP3   OH269451   2.795   2.053  11.230  0.0711  0.0247 -0.2511
15987TIP3    H169452   2.850   2.120  11.189  0.3119 -0.6509 -1.0496
15987TIP3    H269453   2.765   1.999  11.158 -0.2813 -0.6228  0.3685
15988TIP3   OH269454   1.810   2.671   4.239  0.4097 -0.6641 -0.0862
15988TIP3    H169455   1.895   2.638   4.213 -0.0300 -1.7171 -0.2375
15988TIP3    H269456   1.826   2.717   4.322  0.9840 -1.6733  0.3832
15989TIP3   OH269457   5.286   3.556   2.865  0.1215 -0.5273  0.2338
15989TIP3    H169458   5.264   3.591   2.951  1.3895 -2.0356  1.2209
15989TIP3    H269459   5.370   3.512   2.877  0.4168 -0.6586 -1.8245
15990TIP3   OH269460   3.556   0.190  14.390  0.9737 -0.1809  0.1464
15990TIP3    H169461   3.474   0.179  14.343  0.3824  1.6904  0.6715
15990TIP3    H269462   3.623   0.154  14.332 -0.1474 -1.2912 -0.4902
15991TIP3   OH269463   3.877   6.379   4.442  0.4189 -0.2129 -0.4122
15991TIP3    H169464   3.800   6.389   4.385 -0.4059 -0.2940  0.6537
15991TIP3    H269465   3.888   6.284   4.451 -0.8822 -0.2575  1.3629
15992TIP3   OH269466   0.764   6.527  14.247 -0.1249  0.0904  0.3066
15992TIP3    H169467   0.814   6.446  14.255  0.9171  0.8833  3.4029
15992TIP3    H269468   0.831   6.595  14.239 -0.8708  0.8790  0.6730
15993TIP3   OH269469   1.811   1.728   5.087  0.6125 -0.4333  1.2187
15993TIP3    H169470   1.813   1.779   5.168  1.7974 -0.3042  1.1296
15993TIP3    H269471   1.899   1.692   5.080  0.2878 -1.0870  0.3873
15994TIP3   OH269472   3.097   5.471  12.639  0.8969 -0.3955 -0.2240
15994TIP3    H169473   3.052   5.521  12.571  1.8970 -0.3236 -0.8474
15994TIP3    H269474   3.190   5.479  12.618  1.3087  0.2852  1.6019
15995TIP3   OH269475   5.708   6.265  11.769 -0.0249 -0.2736 -0.1680
15995TIP3    H169476   5.688   6.343  11.717 -1.0775 -0.7392 -0.4990
15995TIP3    H269477   5.652   6.197  11.732  0.0781 -0.9143  0.8165
15996TIP3   OH269478   3.849   6.122   0.900  1.1308 -0.4854 -0.4210
15996TIP3    H169479   3.834   6.121   0.806  1.5114  2.2276 -0.5993
15996TIP3    H269480   3.944   6.118   0.910  1.0975 -0.6528 -0.1639
15997TIP3   OH269481   2.719   6.472   3.660 -0.2878  0.2066 -1.0640
15997TIP3    H169482   2.809   6.485   3.630 -0.6501  0.2713 -2.1559
15997TIP3    H269483   2.685   6.561   3.674  0.1461  0.1661  0.4117
15998TIP3   OH269484   0.126   5.972  11.039 -0.6988 -0.2485  0.2133
15998TIP3    H169485   0.036   5.975  11.005 -0.7143  1.1483  0.3288
15998TIP3    H269486   0.156   5.883  11.018 -1.3063 -0.0235 -1.9083
15999TIP3   OH269487   1.084   6.320   5.348  0.5292  0.2283  0.2157
15999TIP3    H169488   1.080   6.225   5.345  0.4622  0.2574 -1.8618
15999TIP3    H269489   1.178   6.340   5.346  0.5295  0.2235  0.1831
16000TIP3   OH269490   0.543   5.027   5.374 -0.1649  0.1674  0.2691
16000TIP3    H169491   0.634   5.008   5.349 -0.6605 -0.5123 -1.1179
16000TIP3    H269492   0.551   5.077   5.455  1.3854 -1.6774  1.3510
16001TIP3   OH269493   2.533   1.800   0.447 -0.2574  0.3980  0.6806
16001TIP3    H169494   2.496   1.749   0.519 -1.1205 -0.8868 -0.6026
16001TIP3    H269495   2.461   1.809   0.385  0.4851  1.3809 -0.0751
16002TIP3   OH269496   5.050   3.053   3.530 -0.8059  0.0460 -0.1824
16002TIP3    H169497   5.024   3.123   3.471  1.3420  1.1987  0.1363
16002TIP3    H269498   5.118   3.092   3.586 -0.1455 -2.0349  0.5814
16003TIP3   OH269499   1.567   3.911  15.734  0.4076 -0.4051  0.4966
16003TIP3    H169500   1.594   3.820  15.724  0.3523 -0.3694  0.0380
16003TIP3    H269501   1.507   3.928  15.662  0.1826 -0.0911  0.7491
16004TIP3   OH269502   4.033   2.002   2.590 -0.5928 -0.5216  0.3345
16004TIP3    H169503   4.042   1.907   2.581  0.6227 -0.2342 -3.0414
16004TIP3    H269504   3.953   2.023   2.541  0.2066  0.3080 -0.6686
16005TIP3   OH269505   0.723   0.201  10.802 -0.1130  0.7092  0.0596
16005TIP3    H169506   0.644   0.198  10.856 -0.3890  0.6731 -0.3386
16005TIP3    H269507   0.702   0.264  10.733  0.9266  2.1933  1.0458
16006TIP3   OH269508   5.144   6.732   4.776  0.2729 -0.0660  0.3752
16006TIP3    H169509   5.190   6.795   4.831 -1.7924  2.6457 -0.7531
16006TIP3    H269510   5.162   6.760   4.686 -0.2126 -1.4732 -0.1906
16007TIP3   OH269511   1.243   1.583  15.473  0.1624 -0.2325 -0.3276
16007TIP3    H169512   1.304   1.647  15.437  1.0254  0.5109  2.2270
16007TIP3    H269513   1.263   1.580  15.567 -1.8041 -2.1303  0.1341
16008TIP3   OH269514   2.730   3.809   1.579  0.5279  0.0870 -0.5665
16008TIP3    H169515   2.720   3.718   1.607 -1.9363  0.3352 -0.3663
16008TIP3    H269516   2.722   3.806   1.484 -0.7208  0.1724 -0.4810
16009TIP3   OH269517   4.865   2.423  16.094 -0.2922 -0.7024  0.0628
16009TIP3    H169518   4.905   2.424  16.008 -0.4002 -0.5910  0.0127
16009TIP3    H269519   4.795   2.488  16.089 -0.9010 -1.3562 -0.0550
16010TIP3   OH269520   6.383   3.037   2.264 -0.4059 -0.5154  0.6920
16010TIP3    H169521   6.393   3.054   2.357  0.8188 -0.8733  0.6480
16010TIP3    H269522   6.445   3.096   2.221 -2.5794  1.3242 -0.0928
16011TIP3   OH269523   0.603   2.566   0.073  0.5218 -0.2587 -0.1495
16011TIP3    H169524   0.639   2.483   0.040 -0.2836 -1.4177  1.7292
16011TIP3    H269525   0.655   2.586   0.150 -0.0006  0.4231  0.0331
16012TIP3   OH269526   6.578   0.269   0.297  0.3848 -0.3142  0.3195
16012TIP3    H169527   6.667   0.255   0.263  0.7333 -1.5581  1.6542
16012TIP3    H269528   6.527   0.197   0.260 -0.1055  0.3965 -0.4424
16013TIP3   OH269529   2.503   0.987  16.369  0.1414 -0.0052 -0.2838
16013TIP3    H169530   2.493   1.044  16.294  0.6974  0.8378  0.2631
16013TIP3    H269531   2.421   0.938  16.374 -0.2641  0.6130 -0.8702
16014TIP3   OH269532   2.533   3.342   1.596  0.2841 -0.3231 -0.5452
16014TIP3    H169533   2.599   3.311   1.534  0.6677 -0.1138 -0.2425
16014TIP3    H269534   2.557   3.433   1.612 -0.2624 -0.1541 -0.6710
16015TIP3   OH269535   3.695   5.547  15.918 -0.2829 -0.1667  0.3005
16015TIP3    H169536   3.619   5.489  15.927  0.0928 -0.5022  1.4565
16015TIP3    H269537   3.761   5.493  15.875 -1.2221  0.6527 -2.4017
16016TIP3   OH269538   3.694   4.465  13.112 -0.4754  0.1581  0.1282
16016TIP3    H169539   3.675   4.384  13.064 -0.5871 -0.5928  1.4044
16016TIP3    H269540   3.754   4.513  13.054  1.2672 -1.7716  0.2099
16017TIP3   OH269541   2.051   0.003  11.136 -0.1908  0.3254 -0.1141
16017TIP3    H169542   2.063   0.041  11.223 -1.8569  1.4761 -0.3366
16017TIP3    H269543   2.068   0.076  11.076 -0.1947 -0.1587 -0.7101
16018TIP3   OH269544   3.010   5.708   1.803  0.4238 -0.3847 -0.5520
16018TIP3    H169545   3.055   5.648   1.863 -1.1291 -1.4391 -0.3845
16018TIP3    H269546   3.037   5.795   1.832  1.7031 -0.9404  0.0388
16019TIP3   OH269547   2.212   4.178  15.620 -0.4673 -0.3364 -0.3281
16019TIP3    H169548   2.257   4.176  15.705 -0.3870  0.6167 -0.3456
16019TIP3    H269549   2.280   4.158  15.556 -0.2370  0.2830 -0.2818
16020TIP3   OH269550   0.362   4.615   1.628 -0.6213 -0.3053 -0.1414
16020TIP3    H169551   0.384   4.593   1.537  1.7923  2.2293 -0.3193
16020TIP3    H269552   0.396   4.703   1.640 -0.6277 -0.6358  3.3518
16021TIP3   OH269553   3.872   3.630   5.664 -0.1787 -0.3999 -0.4515
16021TIP3    H169554   3.862   3.623   5.569 -0.5679  1.1011 -0.5419
16021TIP3    H269555   3.908   3.545   5.691  0.9506 -0.4688 -2.0644
16022TIP3   OH269556   0.463   2.500   4.619 -0.8148 -0.3471  0.5264
16022TIP3    H169557   0.490   2.422   4.571 -0.7605  0.6126 -1.0505
16022TIP3    H269558   0.472   2.572   4.557 -0.6675  0.9682  1.9983
16023TIP3   OH269559   1.816   0.994   0.546  0.0190 -0.0387 -0.4118
16023TIP3    H169560   1.840   1.017   0.456 -1.5581  3.0644 -0.1679
16023TIP3    H269561   1.722   0.975   0.541 -0.0487  0.0093  0.5516
16024TIP3   OH269562   3.051   0.135   6.473 -0.1026  0.4477 -0.3877
16024TIP3    H169563   3.112   0.191   6.425  1.8680 -1.1924  0.0908
16024TIP3    H269564   3.102   0.098   6.544 -1.8200 -0.5764  0.3838
16025TIP3   OH269565   6.679   0.263   1.465 -0.0907  0.5101 -0.6193
16025TIP3    H169566   6.588   0.246   1.491  0.0854  0.2037 -0.1965
16025TIP3    H269567   6.698   0.194   1.401  0.3844 -0.4740  0.5490
16026TIP3   OH269568   3.604   1.982   0.368 -0.1957 -0.1625 -0.2358
16026TIP3    H169569   3.519   2.003   0.405 -1.5331 -0.9635 -2.6568
16026TIP3    H269570   3.637   1.910   0.422 -1.2824 -0.2049  0.3926
16027TIP3   OH269571   5.380   5.539   4.968 -0.1052  0.3826 -0.1352
16027TIP3    H169572   5.444   5.497   4.910 -2.1411 -0.1718 -2.1522
16027TIP3    H269573   5.346   5.612   4.915  0.3972  2.0559  1.7382
16028TIP3   OH269574   5.233   4.792  16.466 -0.3096  0.1612  0.1674
16028TIP3    H169575   5.296   4.734  16.510 -0.2768 -1.5362 -1.9875
16028TIP3    H269576   5.167   4.811  16.533  0.9951 -0.3249  1.6416
16029TIP3   OH269577   5.004   2.981   1.995 -0.1682 -0.0479  0.4202
16029TIP3    H169578   5.042   3.063   2.024  1.2154 -0.2109 -0.8120
16029TIP3    H269579   4.996   2.990   1.900  2.0704 -2.0868 -0.0585
16030TIP3   OH269580   4.199   4.249  13.689  0.3277  0.5618 -0.0606
16030TIP3    H169581   4.203   4.325  13.747  1.2408 -0.5603  1.4254
16030TIP3    H269582   4.193   4.287  13.601 -0.7883  2.3222  0.7094
16031TIP3   OH269583   0.350   4.025  13.606  0.2705 -0.1221 -0.1096
16031TIP3    H169584   0.410   4.083  13.652  0.6754 -0.9077  0.3823
16031TIP3    H269585   0.405   3.976  13.545 -0.2317  0.7468 -1.2997
16032TIP3   OH269586   2.847   0.452   5.358 -0.0185 -0.7263 -0.6537
16032TIP3    H169587   2.935   0.427   5.385 -0.7141 -1.3768  1.1782
16032TIP3    H269588   2.791   0.430   5.434 -1.6954  0.0001 -1.6169
16033TIP3   OH269589   1.307   0.587   2.818  0.2143  0.1565  0.3345
16033TIP3    H169590   1.378   0.532   2.851 -0.1507 -0.3117  0.3469
16033TIP3    H269591   1.340   0.677   2.826  0.8563 -0.0674  0.2072
16034TIP3   OH269592   0.167   3.373  16.948 -0.3335  0.2519 -0.0390
16034TIP3    H169593   0.198   3.288  16.976  0.9389  0.6922 -0.0302
16034TIP3    H269594   0.245   3.429  16.951 -1.2831  1.5849  0.6343
16035TIP3   OH269595   6.078   0.286  14.935 -0.3192  0.1368 -0.0756
16035TIP3    H169596   5.987   0.287  14.905 -0.4822 -1.0929  0.2990
16035TIP3    H269597   6.104   0.194  14.927  0.0251 -0.0384  2.3537
16036TIP3   OH269598   5.796   3.376  11.932  0.2303  0.4486 -0.4894
16036TIP3    H169599   5.800   3.443  12.000 -1.3155  0.3718 -0.2869
16036TIP3    H269600   5.708   3.337  11.941  0.2675 -0.0787 -2.0325
16037TIP3   OH269601   2.416   5.864  14.736 -0.0943  0.4750  0.1740
16037TIP3    H169602   2.480   5.934  14.742 -0.3302  0.7957 -0.7776
16037TIP3    H269603   2.354   5.881  14.807  1.3877 -0.4138  1.7477
16038TIP3   OH269604   2.755   6.197  13.286  0.3023 -0.4837  0.1220
16038TIP3    H169605   2.840   6.239  13.272  0.3467 -0.7034 -0.2770
16038TIP3    H269606   2.702   6.264  13.329 -0.6956  1.1949 -3.4144
16039TIP3   OH269607   5.170   5.242   1.894  0.2544 -0.2092 -1.1053
16039TIP3    H169608   5.164   5.210   1.984 -0.5890 -1.7405 -1.6635
16039TIP3    H269609   5.259   5.218   1.867  0.6952  0.7254 -0.5347
16040TIP3   OH269610   5.062   3.264  12.767  0.0622 -0.2643  0.1154
16040TIP3    H169611   5.038   3.343  12.718 -2.5601 -0.1318  1.5006
16040TIP3    H269612   5.131   3.294  12.827 -1.2257  1.1447  0.9679
16041TIP3   OH269613   4.144   5.126   1.142 -0.0516 -0.1099 -0.0911
16041TIP3    H169614   4.053   5.147   1.120 -0.4867 -0.7852  1.0206
16041TIP3    H269615   4.178   5.205   1.182  0.4335  0.7774 -2.1052
16042TIP3   OH269616   1.717   5.007   3.629 -0.7795 -0.4183 -0.8564
16042TIP3    H169617   1.792   4.955   3.601  0.3167 -0.5536  1.9709
16042TIP3    H269618   1.686   5.051   3.549  0.4166 -2.6626 -2.6587
16043TIP3   OH269619   5.730   5.192  12.309 -0.3132  0.1549 -0.3152
16043TIP3    H169620   5.719   5.141  12.389  0.1434  0.5437  0.0058
16043TIP3    H269621   5.823   5.183  12.288 -0.8850 -2.0561 -2.2726
16044TIP3   OH269622   2.809   5.106  16.018 -0.0318 -0.0591  0.1549
16044TIP3    H169623   2.794   5.110  16.112 -2.1368 -1.6548 -0.0261
16044TIP3    H269624   2.725   5.132  15.979  0.8193  0.6584 -1.3072
16045TIP3   OH269625   0.737   2.637  14.352 -0.6191 -0.0929 -0.2258
16045TIP3    H169626   0.664   2.695  14.374 -0.7856 -0.0290 -0.9153
16045TIP3    H269627   0.813   2.694  14.347 -0.7274  0.0211 -0.6006
16046TIP3   OH269628   3.064   3.460  11.490 -0.6291  0.2723 -0.8065
16046TIP3    H169629   3.149   3.499  11.471 -1.6002  2.9862 -0.0203
16046TIP3    H269630   3.001   3.520  11.451 -2.2784  0.4079  1.8008
16047TIP3   OH269631   4.925   1.753  16.984 -0.5180 -0.0137  0.0211
16047TIP3    H169632   4.982   1.682  17.014 -0.9920 -0.1684  0.5724
16047TIP3    H269633   4.919   1.812  17.058  1.5525  1.7250 -1.0849
16048TIP3   OH269634   2.955   5.112   1.470  0.0355  0.1799  0.8869
16048TIP3    H169635   2.977   5.094   1.561  3.0364 -0.3884  0.1378
16048TIP3    H269636   2.986   5.202   1.456  0.6986 -0.1589  0.1335
16049TIP3   OH269637   2.011   2.043   5.052 -0.1933  0.0198  1.1392
16049TIP3    H169638   1.926   2.034   5.095 -1.4710  1.0679 -1.0131
16049TIP3    H269639   1.992   2.035   4.958  1.8644  1.6747  0.5092
16050TIP3   OH269640   2.839   1.144   0.300  0.5034 -0.2096 -0.3684
16050TIP3    H169641   2.765   1.196   0.267  1.0779  0.4507 -0.6309
16050TIP3    H269642   2.896   1.134   0.224  0.6006 -0.8825 -0.2133
16051TIP3   OH269643   0.423   2.245  12.107 -0.3066 -0.2931 -0.3332
16051TIP3    H169644   0.435   2.150  12.112 -1.1152 -0.3920 -0.1668
16051TIP3    H269645   0.388   2.259  12.019  1.5090  0.0536 -1.0374
16052TIP3   OH269646   4.534   2.232  11.524  0.0932 -0.2847  0.4475
16052TIP3    H169647   4.477   2.172  11.572 -0.8033  0.4891  0.3928
16052TIP3    H269648   4.488   2.246  11.440  0.4859  0.1622  0.3060
16053TIP3   OH269649   5.760   4.821  14.217 -0.0055 -0.3941  0.2014
16053TIP3    H169650   5.742   4.764  14.143 -0.6609  0.2918 -0.1795
16053TIP3    H269651   5.737   4.769  14.294 -2.2708 -0.0937 -0.1939
16054TIP3   OH269652   3.489   0.381   6.250  0.0995  0.5700  0.0841
16054TIP3    H169653   3.555   0.448   6.265  0.3250  0.3873 -0.0851
16054TIP3    H269654   3.444   0.408   6.170  2.9125 -1.5723 -2.4469
16055TIP3   OH269655   3.368   5.227   1.039  0.3598  0.8132  0.4466
16055TIP3    H169656   3.340   5.266   1.121  0.6791 -0.3870  1.1471
16055TIP3    H269657   3.291   5.180   1.006  0.5099  0.4728  0.5711
16056TIP3   OH269658   5.215   1.450  15.638  0.0301 -0.5115 -0.0102
16056TIP3    H169659   5.121   1.440  15.622  0.0671 -0.3758 -0.3141
16056TIP3    H269660   5.250   1.361  15.632  0.2946 -0.3005 -2.3036
16057TIP3   OH269661   5.926   5.844  11.879 -0.1319 -0.0425  0.4126
16057TIP3    H169662   5.890   5.927  11.908 -0.6929 -0.1583  0.0651
16057TIP3    H269663   5.864   5.813  11.813 -0.5184 -1.2443  1.2972
16058TIP3   OH269664   6.220   1.412  15.573 -0.1377 -0.1527  0.2991
16058TIP3    H169665   6.246   1.372  15.490 -1.7951 -1.8345  0.5179
16058TIP3    H269666   6.281   1.376  15.637  2.3882  2.6149 -0.3511
16059TIP3   OH269667   5.685   4.746   1.748 -0.3478  0.3091 -0.3608
16059TIP3    H169668   5.604   4.795   1.736 -1.2886 -0.9749  0.5242
16059TIP3    H269669   5.658   4.655   1.752  1.0685 -0.1086  0.5903
16060TIP3   OH269670   3.413   2.604  10.670  0.7898  0.4040 -0.4810
16060TIP3    H169671   3.459   2.640  10.595 -0.8648  1.7865 -0.8967
16060TIP3    H269672   3.441   2.659  10.744 -0.8572  1.9160 -0.9114
16061TIP3   OH269673   2.204   4.879  11.657  0.1773 -0.4973  0.0887
16061TIP3    H169674   2.250   4.961  11.673 -1.2457  0.2302  0.5864
16061TIP3    H269675   2.207   4.867  11.562  2.5412 -1.1844  0.2021
16062TIP3   OH269676   4.670   3.454  12.923  0.0607  0.0269  0.1053
16062TIP3    H169677   4.731   3.482  12.991  0.5981 -0.0110 -0.3502
16062TIP3    H269678   4.678   3.359  12.921  0.4675  0.0663 -0.3861
16063TIP3   OH269679   4.774   1.057   4.188  0.4262 -0.1178 -0.2351
16063TIP3    H169680   4.744   1.108   4.112 -0.3704 -1.4175 -0.8326
16063TIP3    H269681   4.869   1.055   4.179  0.3506 -0.1605 -1.1542
16064TIP3   OH269682   4.889   3.471  13.083  0.3051 -0.5707  0.8085
16064TIP3    H169683   4.919   3.392  13.126  1.5724  0.1368  1.2793
16064TIP3    H269684   4.962   3.533  13.092  0.3996 -0.1888 -1.8126
16065TIP3   OH269685   4.584   3.856   4.583  0.0714  0.1302  0.8161
16065TIP3    H169686   4.511   3.798   4.601  1.6181 -1.9610  0.7287
16065TIP3    H269687   4.601   3.900   4.667 -0.9156  0.2338  0.9741
16066TIP3   OH269688   4.492   3.549  15.476 -0.0733 -0.0520 -0.1150
16066TIP3    H169689   4.585   3.531  15.489 -0.0880 -1.4427 -1.6601
16066TIP3    H269690   4.450   3.464  15.481 -1.4314  0.6732  1.5257
16067TIP3   OH269691   4.097   5.989   4.737  0.1207 -0.5182  0.4829
16067TIP3    H169692   4.149   6.031   4.669 -1.9188  0.5898 -0.5103
16067TIP3    H269693   4.127   5.898   4.738  2.5216  0.2134  0.5186
16068TIP3   OH269694   2.934   3.913  16.877  0.5779 -0.0700 -0.7686
16068TIP3    H169695   2.998   3.844  16.893  1.1673  0.7742  0.6983
16068TIP3    H269696   2.872   3.905  16.950  0.4652  0.7413 -0.7758
16069TIP3   OH269697   3.927   0.824   0.129 -0.2986  0.5818 -0.0210
16069TIP3    H169698   3.997   0.759   0.118  0.3743  1.3111 -0.1613
16069TIP3    H269699   3.847   0.776   0.111  0.1907 -0.1953 -0.1982
16070TIP3   OH269700   1.638   1.525  14.152 -0.4074  0.1934  0.1579
16070TIP3    H169701   1.726   1.558  14.167 -0.4096 -0.1889  1.0334
16070TIP3    H269702   1.647   1.430  14.153 -0.6734  0.1516 -0.7190
16071TIP3   OH269703   3.258   4.950   1.733 -0.1363  0.0260  0.2079
16071TIP3    H169704   3.164   4.962   1.721 -0.2331  0.3188  1.1614
16071TIP3    H269705   3.297   5.021   1.682 -0.5340  1.3863  1.7143
16072TIP3   OH269706   6.691   6.350   1.609  0.1126  0.2919  0.0601
16072TIP3    H169707   6.605   6.318   1.579  1.0390 -0.3572 -2.0741
16072TIP3    H269708   6.698   6.318   1.699  0.3902 -4.6422 -1.4182
16073TIP3   OH269709   3.800   1.942  12.810  0.4994  0.3923  0.3112
16073TIP3    H169710   3.793   2.030  12.773  1.6354  0.6711  0.7166
16073TIP3    H269711   3.718   1.929  12.858  0.1380  1.0475 -0.1178
16074TIP3   OH269712   2.357   3.995   3.063  0.0162 -0.0306 -0.2170
16074TIP3    H169713   2.284   4.027   3.010  0.8991  0.2407 -1.3021
16074TIP3    H269714   2.363   4.057   3.136 -1.5427 -0.7048  0.5459
16075TIP3   OH269715   0.295   2.493   5.463 -0.5245  0.4227  0.3466
16075TIP3    H169716   0.311   2.467   5.554 -0.6480 -0.5173  0.1120
16075TIP3    H269717   0.228   2.561   5.469 -1.4117 -0.4680  0.8954
16076TIP3   OH269718   1.533   6.014   2.008 -0.0411 -0.2229 -0.4663
16076TIP3    H169719   1.473   6.033   2.080  0.6242  0.7276 -0.1372
16076TIP3    H269720   1.598   5.955   2.046  0.6342  0.7259 -0.0964
16077TIP3   OH269721   5.236   3.682   1.994 -0.1790  0.3450  0.2728
16077TIP3    H169722   5.308   3.688   1.932 -0.3332 -1.8163 -0.2031
16077TIP3    H269723   5.252   3.752   2.057  2.4871 -0.2114  0.3222
16078TIP3   OH269724   2.668   2.272  13.847 -0.2427 -0.7844  0.2190
16078TIP3    H169725   2.668   2.230  13.933  1.9758 -1.4864 -0.0499
16078TIP3    H269726   2.682   2.200  13.785 -1.3464 -0.2325 -0.7241
16079TIP3   OH269727   1.013   1.675  13.411 -0.5741 -0.9776  0.2009
16079TIP3    H169728   0.956   1.727  13.467 -1.1731 -3.1509  1.7388
16079TIP3    H269729   0.973   1.588  13.410  2.7296 -2.6602  1.4497
16080TIP3   OH269730   5.936   1.765   6.386 -0.4930  0.1470 -0.8698
16080TIP3    H169731   5.941   1.778   6.481  0.1878  0.6883 -0.9756
16080TIP3    H269732   5.861   1.707   6.374 -0.2168 -0.4255  0.0478
16081TIP3   OH269733   2.936   6.777  14.963  0.0048  0.2195 -0.4609
16081TIP3    H169734   2.983   6.853  14.997  0.2733  1.8686 -4.0810
16081TIP3    H269735   2.958   6.774  14.870 -4.1011 -1.1702 -1.6079
16082TIP3   OH269736   3.537   4.297   5.388 -0.9529 -0.4369 -0.2414
16082TIP3    H169737   3.597   4.225   5.407  0.2119  1.3608  3.7711
16082TIP3    H269738   3.457   4.276   5.437 -2.1912 -0.7521 -2.2225
16083TIP3   OH269739   5.932   3.999   1.849 -0.2961  0.3955  0.1592
16083TIP3    H169740   5.897   3.932   1.908 -0.2049  0.8033  0.6860
16083TIP3    H269741   6.017   4.022   1.887 -1.3421  2.5215  1.3782
16084TIP3   OH269742   3.046   2.904  12.427 -0.2755  0.0583 -0.1993
16084TIP3    H169743   2.988   2.834  12.396  0.2515 -0.1510 -0.7249
16084TIP3    H269744   3.034   2.905  12.522 -0.6550 -0.4155 -0.2404
16085TIP3   OH269745   0.502   5.791   5.155 -0.1884 -0.2740 -0.0815
16085TIP3    H169746   0.472   5.703   5.178  0.9543 -0.9200 -0.9258
16085TIP3    H269747   0.442   5.850   5.200  0.7643 -1.4559  2.9386
16086TIP3   OH269748   6.793   4.547   5.357 -0.1621 -0.6139 -0.0509
16086TIP3    H169749   6.822   4.525   5.445  0.2984 -0.3447 -0.1363
16086TIP3    H269750   6.871   4.578   5.312 -0.6971  0.7956 -0.0670
16087TIP3   OH269751   3.654   6.158  16.649 -0.1152 -0.1756 -0.2144
16087TIP3    H169752   3.620   6.208  16.575 -1.2914 -0.7720 -0.0992
16087TIP3    H269753   3.741   6.195  16.665 -0.1623  0.4842 -1.3824
16088TIP3   OH269754   1.371   2.732   2.100  0.4247  0.0339  0.8014
16088TIP3    H169755   1.333   2.660   2.049  0.5879  0.2751  0.3321
16088TIP3    H269756   1.372   2.700   2.190  2.7210 -1.5655  0.3166
16089TIP3   OH269757   5.423   2.218  13.555 -0.0419 -0.2759  0.3934
16089TIP3    H169758   5.425   2.314  13.557 -0.0613 -0.2440 -0.4525
16089TIP3    H269759   5.498   2.191  13.607  1.2124  0.2485 -1.0520
16090TIP3   OH269760   2.685   1.230   4.602 -0.8441  0.1629  0.5061
16090TIP3    H169761   2.679   1.313   4.649 -2.2734  0.9424 -0.9524
16090TIP3    H269762   2.776   1.225   4.573 -1.1504  2.2046 -0.9998
16091TIP3   OH269763   6.709   0.261   3.538  0.8121  0.6318  0.1541
16091TIP3    H169764   6.707   0.333   3.475  0.3305  0.8840  0.4499
16091TIP3    H269765   6.646   0.287   3.605 -0.3004 -0.6528 -0.3670
16092TIP3   OH269766   5.482   2.763  11.724  0.2094  0.7396 -0.2734
16092TIP3    H169767   5.547   2.693  11.721 -0.8387 -0.2767 -0.5599
16092TIP3    H269768   5.493   2.811  11.642 -0.2465 -0.2541 -0.9404
16093TIP3   OH269769   1.616   4.435  13.850 -0.6999  0.1836 -0.4737
16093TIP3    H169770   1.569   4.383  13.915  0.4707  1.0922  1.1695
16093TIP3    H269771   1.688   4.378  13.822  1.2880  1.1620  2.1874
16094TIP3   OH269772   3.687   0.510   4.028 -0.1095 -0.0038  0.2721
16094TIP3    H169773   3.782   0.521   4.040 -0.0639 -0.1295  0.0365
16094TIP3    H269774   3.650   0.523   4.115  0.0389  0.9865  0.1922
16095TIP3   OH269775   5.750   2.953  15.681  0.5421  0.0978 -0.2950
16095TIP3    H169776   5.659   2.941  15.652  0.2574  2.2767 -0.4944
16095TIP3    H269777   5.803   2.908  15.616 -0.3223  0.6188 -1.3911
16096TIP3   OH269778   1.935   0.059  12.014  0.2214  0.0354 -0.1438
16096TIP3    H169779   1.936   0.112  12.094  2.3478  0.4118 -0.3669
16096TIP3    H269780   1.868   0.100  11.959 -1.9325 -0.7666  1.7171
16097TIP3   OH269781   6.514   0.503  14.822  0.5054  0.3408 -0.1831
16097TIP3    H169782   6.578   0.435  14.798  0.2959  0.4909 -1.2295
16097TIP3    H269783   6.497   0.549  14.740 -0.2721  0.8851  0.2740
16098TIP3   OH269784   2.403   1.405  15.755  0.0177  0.5545  0.0177
16098TIP3    H169785   2.376   1.433  15.667 -0.1200  0.7577  0.1252
16098TIP3    H269786   2.383   1.311  15.757 -0.9864  0.7631  0.2108
16099TIP3   OH269787   4.402   4.562   0.389 -0.0416  0.7605 -0.5203
16099TIP3    H169788   4.362   4.478   0.410  0.2572  0.6966 -0.2172
16099TIP3    H269789   4.346   4.626   0.434 -0.3987  0.7440 -0.9318
16100TIP3   OH269790   3.132   6.622   2.711  0.1550 -0.4791  0.0098
16100TIP3    H169791   3.152   6.616   2.618  2.5853 -0.3097  0.4728
16100TIP3    H269792   3.156   6.536   2.747  1.4127  0.1847  0.8261
16101TIP3   OH269793   5.297   6.347   0.441  0.3119  0.3545 -0.2930
16101TIP3    H169794   5.216   6.310   0.475  1.4789 -1.5937  0.5588
16101TIP3    H269795   5.364   6.320   0.504  1.6356  2.0061 -0.8894
16102TIP3   OH269796   5.495   4.871   5.476 -1.3167 -0.2131  0.3004
16102TIP3    H169797   5.437   4.795   5.468 -0.3475 -1.0614  1.0229
16102TIP3    H269798   5.539   4.859   5.560 -1.3667  1.3317  0.5861
16103TIP3   OH269799   3.493   5.637   2.846 -0.1473 -0.0911  0.4360
16103TIP3    H169800   3.512   5.719   2.892 -0.0294  0.2494 -0.1994
16103TIP3    H269801   3.437   5.664   2.772  2.3022 -0.1001 -1.5583
16104TIP3   OH269802   5.365   5.329   1.138 -0.5030 -0.0507  0.1305
16104TIP3    H169803   5.414   5.388   1.194 -0.5185 -0.7976  0.9617
16104TIP3    H269804   5.281   5.318   1.183  0.1861 -2.1700  1.0283
16105TIP3   OH269805   5.310   2.379  14.403  0.1312 -0.1636  0.1381
16105TIP3    H169806   5.292   2.345  14.491  0.8573 -0.4516  0.1786
16105TIP3    H269807   5.270   2.315  14.344  0.1161 -0.2584  0.2499
16106TIP3   OH269808   1.972   0.190  15.615 -0.0374  0.4235  0.1865
16106TIP3    H169809   1.942   0.279  15.631 -0.5170  0.3892 -0.4740
16106TIP3    H269810   2.016   0.164  15.696  1.2183  1.7058 -0.0541
16107TIP3   OH269811   5.462   1.568   6.232  0.0485 -0.2571 -0.1850
16107TIP3    H169812   5.472   1.529   6.319  0.9387  0.4496  0.0408
16107TIP3    H269813   5.411   1.648   6.248  1.8875  0.9400  0.0250
16108TIP3   OH269814   5.555   4.083   1.791  0.0606  0.0973 -0.3118
16108TIP3    H169815   5.499   4.147   1.836  0.2791 -1.2962  2.1057
16108TIP3    H269816   5.634   4.078   1.845  1.1859 -0.3116 -1.9361
16109TIP3   OH269817   1.720   0.450  16.435  0.1304  0.2484  0.0558
16109TIP3    H169818   1.811   0.428  16.416 -0.0349  0.5215 -1.1553
16109TIP3    H269819   1.688   0.490  16.354 -0.7505  1.1621  0.8379
16110TIP3   OH269820   4.450   5.214   2.404  0.0225  0.2553 -0.1388
16110TIP3    H169821   4.504   5.262   2.340 -1.1833 -0.2050 -1.5553
16110TIP3    H269822   4.483   5.242   2.489  1.1129  1.5583 -0.9544
16111TIP3   OH269823   0.155   0.226  14.998  0.0674  0.0450 -0.2175
16111TIP3    H169824   0.219   0.283  14.954  0.2744  0.0670  0.1035
16111TIP3    H269825   0.190   0.138  14.986  2.3673  0.2417  3.2771
16112TIP3   OH269826   3.556   5.509   1.093 -0.0131  0.2835 -0.3024
16112TIP3    H169827   3.538   5.458   1.172 -1.8066  2.4452  0.7893
16112TIP3    H269828   3.638   5.554   1.111 -0.7741  1.3263  0.6886
16113TIP3   OH269829   6.687   2.158   2.858 -0.6260  0.4121 -0.1077
16113TIP3    H169830   6.637   2.138   2.937 -1.8297  1.6487 -0.5152
16113TIP3    H269831   6.714   2.073   2.824  0.0687 -0.1318  1.7110
16114TIP3   OH269832   2.323   4.468   0.286  0.4924  0.3807 -0.0210
16114TIP3    H169833   2.342   4.561   0.276  1.2931  0.1162 -1.1550
16114TIP3    H269834   2.235   4.458   0.248 -0.6078  1.0304  2.1879
16115TIP3   OH269835   5.100   4.224   4.073  0.0139 -0.0941  0.0182
16115TIP3    H169836   5.142   4.300   4.113 -2.1799  1.7714 -1.0117
16115TIP3    H269837   5.068   4.173   4.147  1.3160  0.0681  0.7242
16116TIP3   OH269838   4.902   4.930   5.708  0.9521  0.0132  0.1605
16116TIP3    H169839   4.817   4.927   5.664  1.9345  1.7099 -2.0468
16116TIP3    H269840   4.908   4.846   5.753 -1.1331 -0.9191 -1.1260
16117TIP3   OH269841   2.778   3.900   2.155  0.1851 -0.2448 -0.4037
16117TIP3    H169842   2.835   3.829   2.184  0.8518  1.4319  2.8850
16117TIP3    H269843   2.695   3.884   2.201 -0.5701 -0.2469 -1.6962
16118TIP3   OH269844   4.940   1.402  13.146 -0.2689 -0.4152  0.7966
16118TIP3    H169845   4.951   1.421  13.053 -1.9778  0.5042  0.7315
16118TIP3    H269846   5.015   1.445  13.188  0.4951 -0.8046 -0.1397
16119TIP3   OH269847   3.791   3.115   4.831  0.0190 -0.1213 -0.6920
16119TIP3    H169848   3.737   3.165   4.892  1.5783  1.0715 -0.2255
16119TIP3    H269849   3.853   3.179   4.796 -0.0801 -1.0352 -2.6658
16120TIP3   OH269850   4.852   2.314   0.327 -0.3154 -0.3294 -0.8978
16120TIP3    H169851   4.899   2.246   0.375 -0.8749  0.3930  0.7484
16120TIP3    H269852   4.899   2.322   0.244  1.0869 -1.1690 -0.2223
16121TIP3   OH269853   0.416   3.692   2.883  0.2025 -0.4536  0.4209
16121TIP3    H169854   0.356   3.650   2.822  1.0167 -0.4167 -0.4320
16121TIP3    H269855   0.364   3.762   2.922 -0.3492 -0.4898 -0.2175
16122TIP3   OH269856   0.617   0.633  15.039  0.5784 -0.0964 -0.3775
16122TIP3    H169857   0.631   0.549  15.083  0.0387 -0.5423 -1.0234
16122TIP3    H269858   0.703   0.658  15.005  0.7844 -0.2792  0.0129
16123TIP3   OH269859   6.053   4.313   1.553  0.4214 -1.0206 -0.0724
16123TIP3    H169860   5.996   4.350   1.621  1.8288 -1.3594  1.3641
16123TIP3    H269861   6.125   4.272   1.602  0.5431 -2.9158 -1.7066
16124TIP3   OH269862   0.117   0.656  14.641  0.3514  0.1868 -0.6095
16124TIP3    H169863   0.196   0.676  14.590  0.0074  1.6516 -0.6108
16124TIP3    H269864   0.112   0.560  14.641  2.0424  0.0613 -0.7426
16125TIP3   OH269865   1.081   5.303  13.424 -0.1666  0.1205  0.4572
16125TIP3    H169866   1.057   5.240  13.492 -0.1885 -0.7849 -0.3741
16125TIP3    H269867   1.126   5.251  13.358 -1.0952  0.7911 -0.7358
16126TIP3   OH269868   5.665   3.594  13.635  0.2649 -0.0161  0.0175
16126TIP3    H169869   5.684   3.627  13.547 -1.9320  1.3287 -0.0204
16126TIP3    H269870   5.676   3.671  13.692  2.4780 -1.0487  1.1062
16127TIP3   OH269871   5.867   0.188  16.632 -0.4241  0.5903  0.3667
16127TIP3    H169872   5.941   0.143  16.674  2.4167  2.0035 -2.6400
16127TIP3    H269873   5.869   0.277  16.668 -0.1166  0.8404 -0.2390
16128TIP3   OH269874   4.243   5.281   0.231 -0.6019  0.6250  0.8090
16128TIP3    H169875   4.200   5.365   0.248 -1.2355  0.1779  1.4831
16128TIP3    H269876   4.206   5.221   0.296 -0.0067 -0.1302  0.4735
16129TIP3   OH269877   5.340   2.171  16.544  0.4925 -0.5965  0.7519
16129TIP3    H169878   5.416   2.225  16.562  0.7590 -0.9961  0.8348
16129TIP3    H269879   5.370   2.081  16.557  0.3122 -0.8268 -0.3093
16130TIP3   OH269880   0.859   4.078   2.606 -0.3184  0.4301  0.2354
16130TIP3    H169881   0.772   4.115   2.619 -0.2348  1.2558 -1.3179
16130TIP3    H269882   0.846   4.007   2.543  0.1671  0.7942 -0.2877
16131TIP3   OH269883   4.224   5.074   1.610  0.1808  0.6294  0.2685
16131TIP3    H169884   4.247   5.166   1.596  0.6511  0.5553  0.5658
16131TIP3    H269885   4.303   5.034   1.645 -0.0136  0.1001  0.1076
16132TIP3   OH269886   0.396   6.245  13.028 -0.7191 -0.2323  0.2181
16132TIP3    H169887   0.388   6.331  13.069 -4.4661 -0.2578 -0.1327
16132TIP3    H269888   0.408   6.264  12.935  0.3398 -0.1490  0.3579
16133TIP3   OH269889   1.421   5.419  10.667 -0.1964 -0.5249  0.3752
16133TIP3    H169890   1.492   5.458  10.718  2.0507 -1.8723 -1.5162
16133TIP3    H269891   1.341   5.448  10.711  1.3933  3.0602  1.2627
16134TIP3   OH269892   0.808   6.219  17.138 -0.1761 -0.1879 -0.3371
16134TIP3    H169893   0.743   6.223  17.068 -1.3993  0.3119  0.7803
16134TIP3    H269894   0.763   6.172  17.208  1.2099 -1.1534 -0.0626
16135TIP3   OH269895   2.278   1.306   1.496  0.1426  0.5863 -0.4377
16135TIP3    H169896   2.299   1.219   1.464  0.8032  0.2839  0.7547
16135TIP3    H269897   2.196   1.329   1.453  0.4591 -0.2165 -1.5064
16136TIP3   OH269898   5.119   5.014  11.926  0.0376 -0.1363  0.2649
16136TIP3    H169899   5.147   5.028  11.836 -0.4189  1.6170  0.3609
16136TIP3    H269900   5.030   4.980  11.919  0.1144 -0.3008  0.0610
16137TIP3   OH269901   5.129   2.760   3.784  0.1129  0.4943 -0.5996
16137TIP3    H169902   5.217   2.734   3.809  0.9042  2.3474 -1.3296
16137TIP3    H269903   5.100   2.818   3.854 -1.1970 -1.3194  0.4458
16138TIP3   OH269904   5.010   0.931  15.413  0.1370 -0.0455 -0.2920
16138TIP3    H169905   5.102   0.926  15.439 -0.3666  0.2481  1.7686
16138TIP3    H269906   5.003   0.875  15.335  2.3204  1.1076 -1.3875
16139TIP3   OH269907   1.807   0.136   3.107  0.3072 -0.6575  0.0919
16139TIP3    H169908   1.894   0.103   3.126 -0.0081 -1.2448  0.5372
16139TIP3    H269909   1.761   0.134   3.191 -0.5518 -1.6283 -0.3790
16140TIP3   OH269910   6.550   0.948   5.170  0.6847  0.0365  0.6633
16140TIP3    H169911   6.507   0.876   5.216  1.2376 -2.0140 -1.7621
16140TIP3    H269912   6.634   0.958   5.214  1.2238 -1.8918  0.1829
16141TIP3   OH269913   3.612   2.419  13.203  0.0598  0.4225 -0.4372
16141TIP3    H169914   3.698   2.456  13.185 -0.1996  0.9967 -0.5478
16141TIP3    H269915   3.573   2.480  13.266  0.3748 -0.7435  0.9261
16142TIP3   OH269916   3.040   4.667  12.763 -0.4716 -0.5322 -0.8273
16142TIP3    H169917   3.059   4.739  12.703  0.8883 -1.0921 -1.1380
16142TIP3    H269918   2.948   4.677  12.786 -0.6352  0.5531 -1.8606
16143TIP3   OH269919   6.019   2.362  13.851  0.4222  0.2432  0.3483
16143TIP3    H169920   5.961   2.301  13.805  0.7003 -0.3978  0.8296
16143TIP3    H269921   6.103   2.354  13.807  0.5639 -0.0172  0.6670
16144TIP3   OH269922   4.964   5.718   2.704  0.7391  0.1858  0.7048
16144TIP3    H169923   5.044   5.668   2.721  0.2795 -0.4476  1.0528
16144TIP3    H269924   4.973   5.745   2.612  0.7849 -0.9637  0.3457
16145TIP3   OH269925   5.991   6.796  13.031  0.6264 -0.1638  0.0344
16145TIP3    H169926   6.083   6.795  13.058  1.2535 -1.4515 -1.9380
16145TIP3    H269927   5.991   6.846  12.949 -0.8725  1.8819  1.1778
16146TIP3   OH269928   3.334   1.842  16.536 -0.0748  0.3566 -0.8302
16146TIP3    H169929   3.402   1.904  16.563  0.5532 -0.5439 -0.2903
16146TIP3    H269930   3.257   1.896  16.520  0.1233  1.1514  0.7583
16147TIP3   OH269931   1.675   3.488  14.299  0.1265  0.3168 -0.3670
16147TIP3    H169932   1.609   3.558  14.295 -1.9133 -1.5440 -1.2217
16147TIP3    H269933   1.702   3.486  14.390 -0.7974  1.3254 -0.0395
16148TIP3   OH269934   2.064   4.632  16.280 -0.1729  0.3994 -0.3997
16148TIP3    H169935   2.104   4.611  16.195 -0.3850 -0.6744 -0.2533
16148TIP3    H269936   1.970   4.633  16.262 -0.1412  3.0360 -0.7689
16149TIP3   OH269937   2.507   6.017   6.305 -0.2938  0.1146  0.0772
16149TIP3    H169938   2.442   6.011   6.236  0.6761  1.1201 -0.9680
16149TIP3    H269939   2.581   5.965   6.273 -0.9472 -2.0278  1.7747
16150TIP3   OH269940   2.989   1.853  11.540  0.2830 -1.0285  0.1516
16150TIP3    H169941   3.010   1.867  11.448 -0.2239 -2.7087 -0.2690
16150TIP3    H269942   3.057   1.793  11.571 -2.6143 -5.2456 -0.8035
16151TIP3   OH269943   0.180   3.327   1.080  0.3383  0.1275 -0.0423
16151TIP3    H169944   0.094   3.283   1.084  0.1213  0.5119 -0.4594
16151TIP3    H269945   0.195   3.356   1.170 -1.1133  2.2076 -0.3788
16152TIP3   OH269946   6.318   4.016   3.674 -0.3186 -0.3817 -0.2302
16152TIP3    H169947   6.345   3.924   3.683 -1.4647 -1.1004 -3.1032
16152TIP3    H269948   6.223   4.012   3.669 -0.7458  1.4593  3.4081
16153TIP3   OH269949   1.961   2.301   0.537 -0.0349  0.5676 -0.0696
16153TIP3    H169950   1.941   2.315   0.445 -1.2129  2.7490  0.4441
16153TIP3    H269951   1.876   2.310   0.581  0.8379  2.0218  1.4293
16154TIP3   OH269952   2.623   5.088   5.857 -0.3762  0.3971 -0.0706
16154TIP3    H169953   2.564   5.081   5.781  0.9504 -0.8212 -1.0497
16154TIP3    H269954   2.641   5.182   5.864 -1.5800  0.6789 -0.4050
16155TIP3   OH269955   1.624   5.082  17.118 -0.0385  0.0817  0.0859
16155TIP3    H169956   1.719   5.082  17.130 -0.0576 -2.0816  0.5247
16155TIP3    H269957   1.612   5.078  17.023  0.4448 -3.8923  0.0571
16156TIP3   OH269958   6.614   6.292  13.246  0.6609  0.2289  0.6366
16156TIP3    H169959   6.670   6.216  13.259  1.5148  0.8856  0.8832
16156TIP3    H269960   6.526   6.255  13.233  1.0582 -0.7881  0.7448
16157TIP3   OH269961   4.188   4.943   0.973 -0.2476 -0.2120 -0.2952
16157TIP3    H169962   4.276   4.909   0.991  0.0446  1.2435  1.2401
16157TIP3    H269963   4.178   5.017   1.032 -1.9640  0.5813 -1.4888
16158TIP3   OH269964   5.899   2.603   0.921 -0.3310  0.2249 -0.0788
16158TIP3    H169965   5.967   2.546   0.885  0.7245  2.4407 -1.8014
16158TIP3    H269966   5.946   2.662   0.980 -1.1336  0.3857  0.4180
16159TIP3   OH269967   5.589   0.486  16.138 -0.4159 -0.7313  0.4295
16159TIP3    H169968   5.495   0.483  16.119 -0.5495 -2.5805  1.1051
16159TIP3    H269969   5.625   0.411  16.091  0.7509  0.0175  0.0984
16160TIP3   OH269970   1.647   2.363  15.441 -0.2205 -0.5705  0.0771
16160TIP3    H169971   1.563   2.319  15.454 -1.0740  0.9856  0.0714
16160TIP3    H269972   1.677   2.383  15.530 -1.2622  1.3638  0.0341
16161TIP3   OH269973   3.497   6.478   2.179  0.5587 -0.2408 -0.1548
16161TIP3    H169974   3.559   6.545   2.149  0.6708  1.4017  3.2754
16161TIP3    H269975   3.411   6.517   2.166  0.2259 -1.5832 -2.7267
16162TIP3   OH269976   0.253   1.456   6.305  0.2281  0.2249 -0.2765
16162TIP3    H169977   0.293   1.380   6.346 -0.2201 -0.0571 -0.3501
16162TIP3    H269978   0.169   1.424   6.271 -0.1520  0.8411  0.0441
16163TIP3   OH269979   4.843   5.733   0.113  0.0644 -0.5280 -0.1071
16163TIP3    H169980   4.859   5.700   0.202 -1.2784  0.4819  0.5514
16163TIP3    H269981   4.908   5.803   0.102  0.2618 -0.6806  0.0780
16164TIP3   OH269982   2.807   3.590  17.164 -0.5352 -0.0934  0.0435
16164TIP3    H169983   2.717   3.560  17.151 -1.1322  1.8113 -0.5774
16164TIP3    H269984   2.818   3.661  17.101  1.6534 -0.7243 -0.3688
16165TIP3   OH269985   1.648   0.711   0.881 -0.2483  0.4070  0.3935
16165TIP3    H169986   1.623   0.691   0.792  0.8213 -0.6008  0.2919
16165TIP3    H269987   1.578   0.674   0.935 -1.0552  1.2981 -0.0271
16166TIP3   OH269988   1.882   5.831   3.003  0.4893  0.4268  0.2280
16166TIP3    H169989   1.977   5.832   2.996  0.4197 -1.2564 -3.4892
16166TIP3    H269990   1.863   5.771   3.075  2.2130  0.2860  0.6011
16167TIP3   OH269991   2.955   6.157  14.891  0.0499  0.1012 -0.6082
16167TIP3    H169992   2.884   6.219  14.875  0.4151  0.1702 -2.1282
16167TIP3    H269993   3.026   6.187  14.834  0.7181 -0.9235 -0.3380
16168TIP3   OH269994   2.039   1.080  12.949 -0.8458 -0.4670  0.2677
16168TIP3    H169995   1.995   1.148  12.898 -1.0673 -1.6197 -1.1742
16168TIP3    H269996   2.095   1.128  13.010 -1.3044  1.0008 -0.4053
16169TIP3   OH269997   0.326   3.449   2.073  0.0462  0.2802  0.0411
16169TIP3    H169998   0.380   3.499   2.012 -0.4574  0.5732 -0.1691
16169TIP3    H269999   0.379   3.371   2.093  0.2602  0.2259 -0.6958
16170TIP3   OH270000   4.513   0.463   1.163  0.0167 -0.0039  0.0726
16170TIP3    H170001   4.461   0.542   1.178  1.2582  0.5883  1.4539
16170TIP3    H270002   4.565   0.483   1.085  0.4405  0.6082  0.5087
16171TIP3   OH270003   2.137   4.620  17.019 -0.6723 -0.0699 -0.3413
16171TIP3    H170004   2.085   4.635  17.097 -1.0700 -0.7076 -0.4788
16171TIP3    H270005   2.153   4.526  17.018  1.2741  0.2164  0.1938
16172TIP3   OH270006   4.213   4.549  15.028  0.7941 -0.0785 -0.0943
16172TIP3    H170007   4.190   4.526  14.937  0.4235 -1.5168  0.3435
16172TIP3    H270008   4.305   4.526  15.036  0.3474 -1.7942  0.4330
16173TIP3   OH270009   0.312   2.893   6.265 -0.1348 -0.0541  0.3172
16173TIP3    H170010   0.246   2.900   6.334  1.1467 -2.6832  1.9680
16173TIP3    H270011   0.281   2.953   6.197 -3.8321 -0.5540  1.2999
16174TIP3   OH270012   0.576   0.309  12.887  0.1156  0.0159 -0.3258
16174TIP3    H170013   0.507   0.276  12.944  1.3759  0.2556  1.4090
16174TIP3    H270014   0.529   0.361  12.821 -1.4258 -0.6273  0.2100
16175TIP3   OH270015   2.256   2.025   6.162  0.5331 -0.3371  0.7667
16175TIP3    H170016   2.320   1.967   6.202  1.8823  1.4996  1.3934
16175TIP3    H270017   2.277   2.024   6.069  0.3183 -1.1030  0.7233
16176TIP3   OH270018   4.869   1.754   2.276  0.3928 -0.1157 -0.3619
16176TIP3    H170019   4.941   1.772   2.216  0.4402 -1.5541 -0.7593
16176TIP3    H270020   4.902   1.684   2.332 -0.1490  0.2811  0.4736
16177TIP3   OH270021   3.325   3.174  12.326 -1.0063  0.2326 -0.0967
16177TIP3    H170022   3.404   3.187  12.379 -1.1598  1.2356 -0.0997
16177TIP3    H270023   3.288   3.261  12.316 -1.8339 -0.1590 -0.5469
16178TIP3   OH270024   0.919   1.283  14.151 -0.5610  0.2337 -0.9205
16178TIP3    H170025   0.922   1.313  14.242 -1.1426 -2.2572 -0.0114
16178TIP3    H270026   0.840   1.322  14.115 -0.6207  0.8049 -0.1852
16179TIP3   OH270027   2.490   0.207  13.697  0.1027  0.0564  0.0358
16179TIP3    H170028   2.427   0.207  13.769 -0.9118  1.1522 -0.8136
16179TIP3    H270029   2.516   0.115  13.688 -2.4136 -0.6918 -0.4495
16180TIP3   OH270030   0.333   1.657   0.280 -0.0856 -0.1103 -0.8137
16180TIP3    H170031   0.427   1.672   0.279  0.0466 -0.8933 -0.9745
16180TIP3    H270032   0.315   1.614   0.196 -0.3449 -1.2900 -0.1759
16181TIP3   OH270033   2.591   5.919  13.035  0.1597 -0.4360  0.0092
16181TIP3    H170034   2.578   6.011  13.057 -2.6857 -0.4991 -1.0075
16181TIP3    H270035   2.664   5.920  12.973  0.3573  1.0804  0.2214
16182TIP3   OH270036   3.946   2.841   3.398 -0.6664 -0.2100  0.1744
16182TIP3    H170037   3.900   2.758   3.413  0.0181 -0.7676 -0.7194
16182TIP3    H270038   3.987   2.861   3.482 -2.0703  0.0161  0.8316
16183TIP3   OH270039   0.633   2.876  14.962  0.3999 -0.4095 -0.3051
16183TIP3    H170040   0.681   2.899  15.041  1.2401 -0.2659 -0.8389
16183TIP3    H270041   0.625   2.958  14.914  0.6615 -0.6437 -0.7628
16184TIP3   OH270042   0.529   4.410  11.205 -0.6825 -0.2035 -0.4188
16184TIP3    H170043   0.603   4.358  11.173  0.2410  1.0021 -0.2903
16184TIP3    H270044   0.463   4.402  11.135  0.2075  0.0651 -1.3102
16185TIP3   OH270045   1.884   5.605  14.471 -0.2672  0.3001  0.6644
16185TIP3    H170046   1.803   5.565  14.502 -0.9375  1.6741  0.7733
16185TIP3    H270047   1.861   5.640  14.384 -0.7195  3.2145  1.8213
16186TIP3   OH270048   3.526   2.809  13.194  0.7943  0.2442 -0.3399
16186TIP3    H170049   3.580   2.884  13.219  0.9813  0.3067 -0.9099
16186TIP3    H270050   3.545   2.742  13.260 -0.7017  1.2789  1.2160
16187TIP3   OH270051   5.943   4.769   1.655 -0.8199  0.2809 -0.0769
16187TIP3    H170052   6.022   4.751   1.707 -0.5778  0.0894 -0.5041
16187TIP3    H270053   5.872   4.766   1.719 -0.3556  1.7301  0.5463
16188TIP3   OH270054   4.656   4.258  13.425  0.4765 -0.1791 -0.1659
16188TIP3    H170055   4.623   4.221  13.507  0.0071 -0.1076 -0.3216
16188TIP3    H270056   4.706   4.336  13.452 -0.3836  0.3324 -0.0071
16189TIP3   OH270057   0.655   0.691  12.177  0.4019  0.1799 -0.3047
16189TIP3    H170058   0.729   0.645  12.215  0.5009  1.0527  0.5893
16189TIP3    H270059   0.589   0.623  12.162  1.4741 -0.6597 -1.4140
16190TIP3   OH270060   3.278   1.900   4.412 -0.2083  0.0832 -0.6906
16190TIP3    H170061   3.269   1.930   4.502 -0.6883 -0.3752 -0.5785
16190TIP3    H270062   3.231   1.965   4.359 -0.0744  0.2590 -0.5931
16191TIP3   OH270063   2.976   2.721  13.046 -0.1818  0.2099 -0.0553
16191TIP3    H170064   2.971   2.627  13.026 -0.2073  0.0541  0.6564
16191TIP3    H270065   2.897   2.739  13.097 -1.0796  1.0033 -1.6717
16192TIP3   OH270066   5.533   6.055   0.752 -0.1210  0.5443  0.4648
16192TIP3    H170067   5.547   5.971   0.795  0.3846  0.4237  0.0743
16192TIP3    H270068   5.481   6.106   0.814  0.1220  0.1719  0.9746
16193TIP3   OH270069   2.563   2.585   2.576 -0.0389  0.2836 -0.1829
16193TIP3    H170070   2.514   2.505   2.560 -0.0817  0.3893 -0.5806
16193TIP3    H270071   2.567   2.592   2.672  1.8970 -1.3993 -0.0658
16194TIP3   OH270072   2.494   4.859   3.092  0.6846  0.1188  0.2519
16194TIP3    H170073   2.482   4.913   3.014 -0.8494 -1.2059 -0.4893
16194TIP3    H270074   2.584   4.826   3.085  0.1676 -1.0512 -1.7131
16195TIP3   OH270075   3.453   1.318   3.244 -0.0319  0.3410 -0.4170
16195TIP3    H170076   3.517   1.373   3.289  0.2095  0.0759 -0.4317
16195TIP3    H270077   3.506   1.263   3.187 -0.4280  1.6801 -2.1554
16196TIP3   OH270078   1.413   2.027   1.646  0.0527  0.0028 -0.4908
16196TIP3    H170079   1.353   1.952   1.644  0.5557 -0.4174  0.0558
16196TIP3    H270080   1.428   2.048   1.553 -0.3429 -0.3677 -0.6409
16197TIP3   OH270081   4.575   4.380  16.415  1.3583  0.3058  0.0105
16197TIP3    H170082   4.616   4.298  16.387  0.9203 -0.0380  0.3723
16197TIP3    H270083   4.497   4.389  16.360  1.9871  1.0483 -0.7978
16198TIP3   OH270084   5.646   3.893  16.763  1.2835 -0.0109 -0.4822
16198TIP3    H170085   5.725   3.854  16.725  1.3006 -1.8501  1.2984
16198TIP3    H270086   5.574   3.855  16.713  1.4383  0.1075 -0.7980
16199TIP3   OH270087   0.268   6.119   5.555 -0.0954 -0.1088  0.6070
16199TIP3    H170088   0.332   6.048   5.557  0.3522  0.3048  1.3210
16199TIP3    H270089   0.256   6.143   5.647 -0.0711  0.8846  0.3612
16200TIP3   OH270090   6.554   5.609  14.585 -0.1524  0.6583  0.3086
16200TIP3    H170091   6.534   5.573  14.671  1.4979  1.6444  1.1654
16200TIP3    H270092   6.511   5.694  14.584 -0.2723  0.5964  0.1032
16201TIP3   OH270093   1.528   5.480  13.377 -0.2573 -0.7933 -0.4388
16201TIP3    H170094   1.476   5.423  13.435 -1.2441  0.5391  0.0292
16201TIP3    H270095   1.489   5.567  13.388  1.6637  0.1229 -0.6178
16202TIP3   OH270096   4.375   1.417   2.792  0.3054  0.0125  0.3463
16202TIP3    H170097   4.383   1.472   2.714 -2.8838  0.1688  0.0041
16202TIP3    H270098   4.387   1.478   2.865 -1.9090  0.9908 -0.0438
16203TIP3   OH270099   3.609   1.155   4.377 -0.2266 -0.7063 -0.0394
16203TIP3    H170100   3.683   1.102   4.405 -0.5028  0.1683  2.5697
16203TIP3    H270101   3.648   1.235   4.343  0.0579 -0.8480 -0.0453
16204TIP3   OH270102   0.888   6.360   2.021 -0.1401 -0.2989 -0.5310
16204TIP3    H170103   0.861   6.444   1.983  0.5396 -0.4828 -1.4527
16204TIP3    H270104   0.958   6.383   2.083  1.1210 -0.2950 -1.8940
16205TIP3   OH270105   0.709   2.357   2.803  0.1059  0.0033  0.1816
16205TIP3    H170106   0.675   2.284   2.752 -0.3772 -0.4045  1.0544
16205TIP3    H270107   0.781   2.319   2.853  1.1592  0.6093 -0.8443
16206TIP3   OH270108   6.019   4.636   5.983  0.2957 -0.2308 -0.0467
16206TIP3    H170109   6.111   4.658   5.970  0.2235  0.5916  0.7667
16206TIP3    H270110   6.015   4.541   5.974  1.1286 -0.2211 -0.6216
16207TIP3   OH270111   2.871   0.986  14.129  0.5729  0.5886 -0.3082
16207TIP3    H170112   2.905   0.899  14.110 -0.8461  0.0653 -0.5708
16207TIP3    H270113   2.875   0.993  14.225 -0.0598 -0.1075 -0.2193
16208TIP3   OH270114   1.456   5.050  14.736  0.0767  0.1132 -0.0050
16208TIP3    H170115   1.461   5.024  14.645  4.2287  0.7010 -0.1283
16208TIP3    H270116   1.480   4.972  14.786  1.0565  0.6170  0.3394
16209TIP3   OH270117   0.841   6.204  11.065 -0.4126  0.4797 -0.2188
16209TIP3    H170118   0.771   6.147  11.035 -2.3796  2.0660  1.1365
16209TIP3    H270119   0.919   6.173  11.018 -1.5093 -2.7670 -0.1248
16210TIP3   OH270120   6.140   3.164  11.054  0.6157  0.3374  0.0347
16210TIP3    H170121   6.191   3.216  10.991 -0.5859  1.0189 -0.4239
16210TIP3    H270122   6.061   3.216  11.068  0.1367 -0.5932  0.8775
16211TIP3   OH270123   3.289   1.849  12.996 -0.3222  0.6025  0.4252
16211TIP3    H170124   3.280   1.874  12.904  0.5609 -1.6429 -0.3424
16211TIP3    H270125   3.204   1.812  13.019  0.2134 -1.1806 -0.3191
16212TIP3   OH270126   0.636   6.400  12.578  0.3433  0.4588  0.0963
16212TIP3    H170127   0.716   6.425  12.625 -0.3006  2.7750  0.0989
16212TIP3    H270128   0.666   6.380  12.489  1.1018 -0.2589  0.4999
16213TIP3   OH270129   3.325   0.125  13.852  0.1318 -0.3061  0.1405
16213TIP3    H170130   3.274   0.146  13.774  1.4429  3.5853  0.1115
16213TIP3    H270131   3.350   0.210  13.888  4.0415 -1.9165  1.8244
16214TIP3   OH270132   4.939   4.969   1.596 -0.1838  0.7793 -0.1404
16214TIP3    H170133   4.896   5.048   1.564 -1.7165  0.4664  1.0272
16214TIP3    H270134   4.869   4.918   1.636  0.5867 -1.6379 -1.6564
16215TIP3   OH270135   5.160   1.857  15.032 -0.0141  0.0289  0.2229
16215TIP3    H170136   5.171   1.770  15.071 -2.9855 -0.7919 -0.5780
16215TIP3    H270137   5.080   1.891  15.071  0.2654  1.7963 -0.6449
16216TIP3   OH270138   0.465   2.652   6.185  0.3924 -0.0037  0.5384
16216TIP3    H170139   0.408   2.726   6.205  2.4767  1.7924  0.2699
16216TIP3    H270140   0.411   2.575   6.200 -2.5353  1.5476 -1.0425
16217TIP3   OH270141   0.903   2.212   2.596 -0.2480  0.1366 -0.2541
16217TIP3    H170142   0.914   2.300   2.632 -1.3159 -0.1419  0.8295
16217TIP3    H270143   0.829   2.220   2.535 -1.2511 -0.2417  0.8546
16218TIP3   OH270144   6.688   0.540   4.549  0.4782  0.3613  0.1693
16218TIP3    H170145   6.640   0.457   4.555  1.2318 -0.0848  0.1991
16218TIP3    H270146   6.724   0.540   4.460  1.1693  0.2666  0.4469
16219TIP3   OH270147   6.426   6.617  16.768 -0.1324 -0.0525 -0.0486
16219TIP3    H170148   6.427   6.523  16.748 -2.1668  0.2612 -1.9904
16219TIP3    H270149   6.448   6.659  16.685  2.2130  1.2438  1.1244
16220TIP3   OH270150   5.755   4.437   4.644 -0.5238  0.0801 -0.3413
16220TIP3    H170151   5.835   4.452   4.694 -0.1036 -0.1016 -0.9476
16220TIP3    H270152   5.754   4.508   4.579 -2.0406  1.4433  1.1003
16221TIP3   OH270153   3.493   3.116   4.750 -0.1502 -0.1894  0.5186
16221TIP3    H170154   3.494   3.171   4.671  1.1642 -1.3570 -0.3292
16221TIP3    H270155   3.482   3.178   4.822 -2.6480  0.8094 -0.5943
16222TIP3   OH270156   4.449   6.241   0.406  0.2946  0.0128 -0.1411
16222TIP3    H170157   4.394   6.249   0.328 -1.2797 -0.1170  0.9103
16222TIP3    H270158   4.442   6.326   0.449  0.7280 -0.0855  0.1268
16223TIP3   OH270159   2.546   1.026  10.519 -0.0402 -0.2296  0.2781
16223TIP3    H170160   2.545   0.969  10.596 -1.3148  0.3035  0.6911
16223TIP3    H270161   2.478   1.091  10.536 -0.4040 -0.1335 -1.3221
16224TIP3   OH270162   2.058   3.666  11.133 -0.6411 -0.5113  0.0050
16224TIP3    H170163   2.087   3.738  11.076 -2.0689  0.2118  0.1415
16224TIP3    H270164   1.967   3.651  11.108 -0.8732 -1.1177  1.1605
16225TIP3   OH270165   3.239   6.636   3.505 -0.0512  0.5362 -0.0785
16225TIP3    H170166   3.269   6.549   3.478  1.7681  1.1788 -0.2855
16225TIP3    H270167   3.285   6.696   3.446  0.6831  1.7595  1.6716
16226TIP3   OH270168   6.623   6.721  16.954  0.0936  0.1476  0.0442
16226TIP3    H170169   6.561   6.677  16.896  0.1469  0.4106 -0.2138
16226TIP3    H270170   6.682   6.768  16.895  0.6934 -0.2999  0.2729
16227TIP3   OH270171   4.016   4.538   5.634 -0.0376  0.5106  0.1006
16227TIP3    H170172   4.009   4.501   5.546 -1.9342  0.7246  0.1341
16227TIP3    H270173   3.972   4.474   5.691  3.7349 -1.2096  1.4761
16228TIP3   OH270174   5.111   6.710   1.297  0.1314 -1.0835  0.7068
16228TIP3    H170175   5.182   6.650   1.322  0.6752 -1.3053 -1.2128
16228TIP3    H270176   5.033   6.654   1.293  0.3620 -1.3823  0.2939
16229TIP3   OH270177   0.151   3.333  12.552 -0.7663  0.6930 -0.3148
16229TIP3    H170178   0.224   3.394  12.538 -0.6663  0.2963 -1.6316
16229TIP3    H270179   0.192   3.252  12.582 -0.7766  0.8178  0.0455
16230TIP3   OH270180   4.542   1.988   0.520  0.1772  0.7141  0.4986
16230TIP3    H170181   4.498   2.062   0.480  0.8396  0.9419  0.1660
16230TIP3    H270182   4.543   1.920   0.452  1.6915  1.2551 -0.0556
16231TIP3   OH270183   1.884   5.535  13.538  0.3716  0.1460  0.6272
16231TIP3    H170184   1.941   5.460  13.555  0.5731  0.3755  0.9968
16231TIP3    H270185   1.795   5.500  13.544  0.4757 -0.2663 -0.1981
16232TIP3   OH270186   4.276   2.067   2.358 -0.2039 -0.1092  0.2903
16232TIP3    H170187   4.254   2.134   2.423  2.1998  0.5429  0.5201
16232TIP3    H270188   4.358   2.029   2.390 -0.8538 -2.3189 -0.5092
16233TIP3   OH270189   1.023   2.731  15.858  0.6669  0.1729 -0.0775
16233TIP3    H170190   1.053   2.822  15.855 -0.3427  0.5036 -0.3481
16233TIP3    H270191   1.086   2.683  15.805  0.7361  0.8516 -0.6187
16234TIP3   OH270192   5.525   6.687  14.457  0.1472  0.5084 -0.5196
16234TIP3    H170193   5.594   6.681  14.523  0.3437  2.6670 -0.4335
16234TIP3    H270194   5.447   6.653  14.501  1.2487 -2.8213 -0.9207
16235TIP3   OH270195   5.873   0.729   2.160  0.0959 -0.0127 -0.2943
16235TIP3    H170196   5.956   0.684   2.145 -0.0737 -0.1580 -0.8268
16235TIP3    H270197   5.808   0.674   2.116 -0.5384 -0.8257  1.5604
16236TIP3   OH270198   4.936   3.431   2.148  0.5630 -0.1373 -0.1229
16236TIP3    H170199   4.909   3.508   2.098 -2.8176  0.1170  1.7322
16236TIP3    H270200   4.947   3.463   2.237 -0.6196 -1.6838  0.6353
16237TIP3   OH270201   1.723   4.035   5.560 -0.1902  0.0775  0.2515
16237TIP3    H170202   1.695   4.000   5.645  0.6710 -3.3656 -0.7030
16237TIP3    H270203   1.688   3.973   5.496 -0.7516  2.5098 -1.9874
16238TIP3   OH270204   5.610   3.138   3.528  0.4274  0.2567  0.3913
16238TIP3    H170205   5.662   3.190   3.467 -0.2358 -0.0075 -0.4169
16238TIP3    H270206   5.608   3.190   3.609 -1.4697  2.2812 -0.8385
16239TIP3   OH270207   5.640   3.847  17.200 -0.3931 -0.4209  0.5216
16239TIP3    H170208   5.729   3.871  17.176 -0.3209 -1.4476 -0.3414
16239TIP3    H270209   5.588   3.865  17.122 -0.6154 -1.4621  0.4110
16240TIP3   OH270210   6.455   0.363  16.340  0.0661 -0.3980  0.2800
16240TIP3    H170211   6.488   0.442  16.383  0.6493  0.3821 -1.4945
16240TIP3    H270212   6.408   0.396  16.263  1.2076 -1.7711 -1.0819
16241TIP3   OH270213   6.436   5.276  14.990  0.1236  0.5395 -0.2190
16241TIP3    H170214   6.495   5.204  14.966 -1.5355 -1.7958  2.1522
16241TIP3    H270215   6.487   5.330  15.050 -0.0381 -1.5098  1.8951
16242TIP3   OH270216   1.235   5.163   1.643 -0.2374 -0.0390  0.3145
16242TIP3    H170217   1.248   5.241   1.697 -0.3164  0.7281 -0.7462
16242TIP3    H270218   1.317   5.115   1.649  0.2859  0.7870 -0.0361
16243TIP3   OH270219   6.582   4.434  12.334 -0.1807  0.2321 -0.5358
16243TIP3    H170220   6.524   4.451  12.260  0.9467 -0.9112 -1.7416
16243TIP3    H270221   6.670   4.456  12.301  0.4479 -1.1396  0.1476
16244TIP3   OH270222   5.081   1.369   3.237  0.1156  0.1287 -0.5790
16244TIP3    H170223   5.076   1.283   3.193  1.4685 -1.0663  1.4545
16244TIP3    H270224   5.164   1.367   3.283 -0.2556  2.2119  0.2591
16245TIP3   OH270225   3.027   5.308   5.081 -0.1435 -0.4827  0.6025
16245TIP3    H170226   2.986   5.261   5.009 -1.9005  0.6291  0.8049
16245TIP3    H270227   3.106   5.346   5.043 -0.2118 -1.2100 -0.3023
16246TIP3   OH270228   6.752   3.039  16.450  0.2421 -0.1618  0.4823
16246TIP3    H170229   6.790   2.970  16.504 -1.3819 -0.9548  0.6693
16246TIP3    H270230   6.758   3.118  16.503  0.8285 -0.4365  0.8391
16247TIP3   OH270231   3.393   2.568  15.349 -0.3896  0.2248  0.3090
16247TIP3    H170232   3.483   2.539  15.365 -0.5601  0.2141  1.2833
16247TIP3    H270233   3.352   2.495  15.303 -0.1105 -0.0716  0.5262
16248TIP3   OH270234   1.332   0.109  17.218  0.1827 -0.2544  0.4294
16248TIP3    H170235   1.424   0.086  17.222 -0.0634 -1.4812 -0.4345
16248TIP3    H270236   1.326   0.192  17.265  1.2654 -1.4413  2.7947
16249TIP3   OH270237   0.609   5.503   1.393 -0.0144  0.6223 -0.4485
16249TIP3    H170238   0.678   5.446   1.360 -0.8616 -0.4936 -0.3193
16249TIP3    H270239   0.585   5.466   1.478 -2.8633 -0.8562 -1.7749
16250TIP3   OH270240   1.901   2.625   4.821  0.2148 -0.2915 -1.0899
16250TIP3    H170241   1.844   2.555   4.850  0.7867  0.5094  2.4849
16250TIP3    H270242   1.946   2.654   4.901  2.3476  2.0216 -2.9507
16251TIP3   OH270243   5.454   5.679  13.951 -0.3966 -0.1834  0.3897
16251TIP3    H170244   5.402   5.700  13.873 -1.1314 -1.9485  0.3512
16251TIP3    H270245   5.421   5.738  14.019 -0.2744  0.8514 -0.4339
16252TIP3   OH270246   1.340   6.771   4.909 -0.1474  0.8315 -0.6318
16252TIP3    H170247   1.318   6.838   4.974  1.2115  0.8162 -0.1176
16252TIP3    H270248   1.291   6.694   4.937 -1.1280  1.3830 -0.7892
16253TIP3   OH270249   2.325   6.308  16.081 -0.5802  0.3663  0.5145
16253TIP3    H170250   2.381   6.263  16.144  0.5151 -1.6673 -1.7451
16253TIP3    H270251   2.241   6.317  16.126  0.2327 -0.6658  2.3724
16254TIP3   OH270252   0.422   4.001   6.196  0.1304  0.0459  0.9833
16254TIP3    H170253   0.403   4.095   6.187  2.0500  0.3770 -0.0941
16254TIP3    H270254   0.483   3.996   6.270  1.1295 -0.1604  0.1661
16255TIP3   OH270255   1.838   3.183   1.733  0.0262  0.0134  0.0656
16255TIP3    H170256   1.893   3.220   1.664 -0.1993  0.3893  0.0845
16255TIP3    H270257   1.898   3.130   1.786 -0.0592 -1.4643 -1.2462
16256TIP3   OH270258   5.495   4.599  12.863 -0.4860  0.1969 -0.2776
16256TIP3    H170259   5.408   4.594  12.823 -1.2734 -1.0202  1.4817
16256TIP3    H270260   5.510   4.693  12.876 -1.6045  0.4095 -0.4469
16257TIP3   OH270261   4.526   6.705  11.616  0.1126  0.4035 -0.6137
16257TIP3    H170262   4.568   6.787  11.644 -0.2538 -0.0720  1.4888
16257TIP3    H270263   4.593   6.638  11.630 -0.7499 -0.1443  1.3502
16258TIP3   OH270264   1.409   6.428  10.580  0.1603  0.2229  0.5146
16258TIP3    H170265   1.328   6.440  10.629  0.8145 -0.0333  1.7230
16258TIP3    H270266   1.450   6.350  10.619  1.2697  0.7079  0.3773
16259TIP3   OH270267   0.946   0.168  14.474 -0.3546 -0.2735  0.2074
16259TIP3    H170268   0.920   0.191  14.385 -2.2389  1.7021  1.1797
16259TIP3    H270269   0.976   0.251  14.512 -0.8369 -0.8083  1.8073
16260TIP3   OH270270   6.536   2.650   3.802  0.0054 -0.5180 -0.7214
16260TIP3    H170271   6.570   2.567   3.836 -0.3369 -0.9186 -1.3442
16260TIP3    H270272   6.473   2.625   3.735 -2.7826  0.1458  1.4358
16261TIP3   OH270273   1.916   1.890   1.458 -0.1241  0.2238 -0.1603
16261TIP3    H170274   1.826   1.859   1.462 -0.0427 -0.1924 -1.0774
16261TIP3    H270275   1.914   1.977   1.498 -1.4881  1.4119 -2.5663
16262TIP3   OH270276   0.200   0.772   2.706 -0.4606  0.0955 -0.3639
16262TIP3    H170277   0.248   0.710   2.760 -1.7385  0.3640  1.1469
16262TIP3    H270278   0.140   0.718   2.655  0.0396 -0.0801 -0.7710
16263TIP3   OH270279   5.728   2.405  14.887 -0.3095 -0.4759 -0.1735
16263TIP3    H170280   5.804   2.349  14.902  0.1583 -0.2163 -1.5046
16263TIP3    H270281   5.763   2.494  14.889 -1.3157  0.0411  3.8308
16264TIP3   OH270282   2.015   5.896  11.191  0.1880  0.2695 -0.3460
16264TIP3    H170283   2.003   5.808  11.227 -0.0142  0.1855 -0.6140
16264TIP3    H270284   2.098   5.891  11.143  0.9766  0.6555  0.9139
16265TIP3   OH270285   1.010   5.621  16.467  0.2399  0.6516  0.3343
16265TIP3    H170286   0.981   5.707  16.436  2.9925  2.2651  1.8326
16265TIP3    H270287   1.074   5.592  16.402  1.6930  1.3161  1.4120
16266TIP3   OH270288   3.605   0.289   0.524 -0.0773  0.1874  0.0109
16266TIP3    H170289   3.674   0.227   0.547 -0.0628  0.6374  1.2501
16266TIP3    H270290   3.532   0.266   0.581 -1.7454 -1.5684 -2.6384
16267TIP3   OH270291   2.120   3.697  15.309 -0.0234  0.2539  0.3486
16267TIP3    H170292   2.108   3.722  15.401  0.4629  2.4018 -0.1287
16267TIP3    H270293   2.082   3.769  15.259 -0.4976 -0.9949 -1.1579
16268TIP3   OH270294   6.405   1.617  13.705  0.3318 -0.1043 -0.2062
16268TIP3    H170295   6.455   1.544  13.668  0.9084  0.4719 -0.5994
16268TIP3    H270296   6.331   1.629  13.646 -1.1192 -1.8709  1.1397
16269TIP3   OH270297   0.540   1.379   5.716 -0.1976  0.5262 -0.2128
16269TIP3    H170298   0.471   1.357   5.778 -0.3374  1.6455  0.0654
16269TIP3    H270299   0.571   1.465   5.746  2.2737 -0.5363  0.5200
16270TIP3   OH270300   3.548   2.413  12.642 -0.2932 -0.3052  0.6499
16270TIP3    H170301   3.578   2.443  12.728 -1.7121 -0.5096  1.2503
16270TIP3    H270302   3.582   2.478  12.581  0.9189 -0.2693  1.3346
16271TIP3   OH270303   4.851   4.219  12.630 -0.1393 -0.6904  0.7695
16271TIP3    H170304   4.811   4.138  12.659 -0.1062 -1.9102 -2.2408
16271TIP3    H270305   4.943   4.197  12.614  0.4011  0.5437  1.9730
16272TIP3   OH270306   0.016   2.586   1.377  0.4065 -0.3175  0.3975
16272TIP3    H170307   0.056   2.635   1.449  0.7127 -0.1199  0.0956
16272TIP3    H270308  -0.066   2.632   1.360  0.9054  0.3821 -0.1908
16273TIP3   OH270309   5.518   1.957   1.519  0.3324  0.0215 -0.6173
16273TIP3    H170310   5.588   1.963   1.454  1.0094  1.6035  0.1871
16273TIP3    H270311   5.478   2.044   1.518  0.3594  0.0883  1.0413
16274TIP3   OH270312   5.275   3.114  13.232  0.4763  0.0855  0.2418
16274TIP3    H170313   5.289   3.040  13.173 -0.6562 -0.5583  0.7410
16274TIP3    H270314   5.362   3.148  13.250  0.8568  0.3223 -1.8071
16275TIP3   OH270315   4.958   0.238   1.745  0.2574  0.1928  0.2128
16275TIP3    H170316   4.920   0.150   1.742  0.4296  0.1183 -2.3204
16275TIP3    H270317   4.951   0.264   1.836  0.5975 -2.6085  1.1465
16276TIP3   OH270318   1.684   1.877  14.121 -0.5471  0.4616 -0.6312
16276TIP3    H170319   1.701   1.921  14.038 -1.8413  2.1287 -0.0564
16276TIP3    H270320   1.592   1.896  14.140 -0.5808 -0.8185  0.6545
16277TIP3   OH270321   3.788   1.866  13.088 -0.0275 -0.0564  0.8008
16277TIP3    H170322   3.709   1.813  13.097 -1.4558  1.2456 -2.4351
16277TIP3    H270323   3.768   1.946  13.138 -0.4430 -0.0580  0.6429
16278TIP3   OH270324   2.993   0.945   2.663 -0.7911  0.2156 -0.2415
16278TIP3    H170325   2.929   0.913   2.599 -0.8603 -0.7129  0.2761
16278TIP3    H270326   2.942   0.998   2.724 -1.1551 -0.8280  0.3851
16279TIP3   OH270327   2.560   2.227   1.042  0.0338  0.2828  0.1566
16279TIP3    H170328   2.551   2.284   1.119  2.7411  1.4743 -0.2834
16279TIP3    H270329   2.487   2.252   0.985 -1.6697 -0.1908  1.9978
16280TIP3   OH270330   4.188   2.503   1.449 -0.6331  0.5489  0.2581
16280TIP3    H170331   4.223   2.592   1.439  0.2290  0.1364 -0.4663
16280TIP3    H270332   4.143   2.505   1.534  1.4351  0.9893  1.4163
16281TIP3   OH270333   3.876   2.467  12.696 -0.0718  0.0455 -0.1319
16281TIP3    H170334   3.940   2.530  12.729 -2.0987  2.4133 -0.4597
16281TIP3    H270335   3.795   2.489  12.742 -1.3050 -1.0726 -1.6684
16282TIP3   OH270336   1.668   0.566  12.684 -0.7940 -0.1300  0.1300
16282TIP3    H170337   1.651   0.565  12.778  0.7098 -0.4625  0.4279
16282TIP3    H270338   1.581   0.567  12.644 -1.4621 -0.4481  1.5066
16283TIP3   OH270339   3.824   2.125   0.587  0.4275 -0.5292 -0.1346
16283TIP3    H170340   3.795   2.109   0.497  0.0920 -0.3886 -0.0524
16283TIP3    H270341   3.908   2.169   0.578 -0.9997  2.3173 -0.4369
16284TIP3   OH270342   0.221   4.750  15.834  0.3210  0.0054 -0.1711
16284TIP3    H170343   0.207   4.840  15.806 -0.3249 -0.7680 -2.5725
16284TIP3    H270344   0.133   4.710  15.833  0.4764 -0.4860  1.6446
16285TIP3   OH270345   0.054   1.029   1.577  0.3460  0.3951  0.1454
16285TIP3    H170346   0.021   0.945   1.609  0.3460  0.8014  1.2580
16285TIP3    H270347  -0.019   1.065   1.527  0.6391 -0.6279 -1.0922
16286TIP3   OH270348   3.631   2.979  15.755 -0.3641 -0.2386 -0.6693
16286TIP3    H170349   3.665   2.949  15.839  0.8275 -0.0906 -1.0837
16286TIP3    H270350   3.700   3.034  15.719 -1.4227  0.8356 -1.1365
16287TIP3   OH270351   2.142   6.758   5.416  0.6137 -0.7632 -0.1971
16287TIP3    H170352   2.090   6.802   5.349  0.3986  0.6674  0.8656
16287TIP3    H270353   2.101   6.784   5.498  0.7113 -2.6967  0.5100
16288TIP3   OH270354   1.004   2.437   4.112 -0.2511 -0.0162  0.9067
16288TIP3    H170355   0.949   2.423   4.189  0.5644 -0.3645  1.4447
16288TIP3    H270356   1.078   2.378   4.125 -0.6520 -0.9345 -0.7097
16289TIP3   OH270357   2.635   2.546   2.829 -0.4266  0.2678  0.3240
16289TIP3    H170358   2.641   2.458   2.865 -2.3654 -0.3785 -0.8145
16289TIP3    H270359   2.593   2.598   2.898  1.1328  0.4671  1.1759
16290TIP3   OH270360   5.852   1.441   0.867  0.1105 -0.2044 -0.0020
16290TIP3    H170361   5.770   1.486   0.885  0.4755  0.1235  0.9121
16290TIP3    H270362   5.834   1.389   0.788 -0.7670  0.3637 -0.1961
16291TIP3   OH270363   6.174   2.102  16.790  0.5283 -0.2985 -0.2898
16291TIP3    H170364   6.097   2.102  16.847  1.5539  2.1677  1.2723
16291TIP3    H270365   6.141   2.069  16.706 -2.4971  1.5451 -0.0031
16292TIP3   OH270366   3.717   6.364  15.267 -0.6455 -0.7199 -0.2435
16292TIP3    H170367   3.711   6.309  15.346  1.8278  0.1431  0.6245
16292TIP3    H270368   3.802   6.343  15.229 -1.8402 -1.2388 -2.8750
16293TIP3   OH270369   1.261   5.220  11.858 -0.0566 -0.0441  0.9521
16293TIP3    H170370   1.352   5.247  11.869  0.1256  0.4391 -1.2089
16293TIP3    H270371   1.211   5.285  11.907  0.6316  1.7541 -0.5582
16294TIP3   OH270372   6.458   2.907   0.050 -0.4615  0.1186  0.3467
16294TIP3    H170373   6.414   2.901   0.135 -1.4451 -1.1038 -0.2104
16294TIP3    H270374   6.387   2.926  -0.011 -0.2106 -1.5767 -0.5354
16295TIP3   OH270375   5.781   5.988  15.309  0.0044 -0.2945 -0.5017
16295TIP3    H170376   5.862   5.941  15.289 -1.2179 -2.6103 -0.3189
16295TIP3    H270377   5.798   6.078  15.282  2.6422 -0.7018 -0.4194
16296TIP3   OH270378   4.010   3.685   5.390 -0.0452 -0.4204  0.2633
16296TIP3    H170379   4.082   3.724   5.439 -0.2843  0.6258 -0.1761
16296TIP3    H270380   4.039   3.597   5.370  1.4864  0.2441 -0.6286
16297TIP3   OH270381   3.940   5.178  11.536 -0.0731  0.3143  0.3063
16297TIP3    H170382   3.872   5.221  11.589  0.1167  1.1554 -0.1216
16297TIP3    H270383   3.987   5.250  11.494  0.6605 -0.2921  0.0699
16298TIP3   OH270384   5.318   6.764   2.887 -0.0947 -0.2422 -0.5842
16298TIP3    H170385   5.316   6.859   2.891 -2.3604 -0.2662  0.5688
16298TIP3    H270386   5.365   6.737   2.965  0.9470 -0.0965 -1.1429
16299TIP3   OH270387   3.623   4.689   3.920 -0.7004 -0.3781  0.1733
16299TIP3    H170388   3.544   4.637   3.907  0.6128 -2.0505 -1.9651
16299TIP3    H270389   3.695   4.628   3.898  1.2286  0.8848  2.5285
16300TIP3   OH270390   4.304   1.049   1.216 -0.4218  0.1167  0.0189
16300TIP3    H170391   4.335   1.096   1.138 -1.7822  0.0647 -0.5871
16300TIP3    H270392   4.247   0.980   1.181  1.3952 -1.9372  0.8965
16301TIP3   OH270393   3.085   3.104   0.629  0.5075 -0.3117  0.2987
16301TIP3    H170394   3.117   3.157   0.702 -0.7198  0.3283  0.3928
16301TIP3    H270395   3.123   3.145   0.551  3.0843 -1.9024  0.6048
16302TIP3   OH270396   5.697   2.221  11.863  0.5534  0.3553  0.0387
16302TIP3    H170397   5.767   2.163  11.833  0.5043  0.5752 -0.5173
16302TIP3    H270398   5.740   2.307  11.873  0.6179  0.2385  0.8176
16303TIP3   OH270399   5.117   2.600   5.156 -0.2301 -0.2651 -0.2313
16303TIP3    H170400   5.140   2.676   5.209 -0.6951 -0.4365  0.2309
16303TIP3    H270401   5.058   2.633   5.089 -0.1733 -0.1618 -0.2295
16304TIP3   OH270402   0.166   6.181  11.516 -0.4117 -0.6295  0.4319
16304TIP3    H170403   0.118   6.263  11.530  0.8673  0.0369  1.1781
16304TIP3    H270404   0.148   6.157  11.425 -1.8250 -0.2171  0.5838
16305TIP3   OH270405   0.738   4.689   4.104 -0.1606  0.2117  0.4777
16305TIP3    H170406   0.822   4.646   4.118 -1.1401 -1.1043  2.8744
16305TIP3    H270407   0.729   4.749   4.178 -0.6113  1.6293 -0.6804
16306TIP3   OH270408   1.434   4.789  11.478  0.3230  0.1366  0.5814
16306TIP3    H170409   1.440   4.884  11.492  1.4140 -0.1841  2.7777
16306TIP3    H270410   1.369   4.760  11.542 -0.1374 -0.5942 -0.2030
16307TIP3   OH270411   0.813   0.837  13.282 -0.5647 -0.5299 -0.0763
16307TIP3    H170412   0.898   0.793  13.281  0.2592  1.0138 -1.0296
16307TIP3    H270413   0.822   0.903  13.350 -0.0767  1.2823 -1.8143
16308TIP3   OH270414   6.129   0.656   6.604 -0.2618 -0.2077  0.0372
16308TIP3    H170415   6.101   0.738   6.645 -2.0670 -1.7544  2.1206
16308TIP3    H270416   6.048   0.619   6.568  0.9576  0.1741 -3.4509
16309TIP3   OH270417   3.451   2.358  11.699 -0.6330  0.4121  0.3750
16309TIP3    H170418   3.356   2.359  11.704 -0.6741 -0.3591 -0.1029
16309TIP3    H270419   3.476   2.450  11.691 -1.3360  0.6112  0.4126
16310TIP3   OH270420   6.750   3.260  11.745  0.4657  0.1574  0.1646
16310TIP3    H170421   6.781   3.170  11.734 -0.3641  0.0158 -1.2554
16310TIP3    H270422   6.657   3.250  11.766  0.5113  0.6770  0.6242
16311TIP3   OH270423   5.232   4.175  14.834  0.3027  0.3067 -0.1738
16311TIP3    H170424   5.198   4.246  14.888 -0.9563  0.3438 -0.9701
16311TIP3    H270425   5.307   4.141  14.883  0.8535  2.0899  0.2781
16312TIP3   OH270426   1.285   2.862   3.657  0.1859  1.0815  0.0462
16312TIP3    H170427   1.281   2.956   3.674 -1.2063  1.1050 -0.2615
16312TIP3    H270428   1.200   2.829   3.686 -0.1719  0.2688 -1.7997
16313TIP3   OH270429   4.429   1.164   3.017 -0.2522  0.5092 -0.1947
16313TIP3    H170430   4.449   1.235   2.955  1.0693  0.4783  0.1490
16313TIP3    H270431   4.473   1.087   2.980  1.2898  0.6743  1.1505
16314TIP3   OH270432   3.568   6.777   4.037  0.1257  0.0145  0.0954
16314TIP3    H170433   3.535   6.702   3.988 -0.4492  0.0726  0.3864
16314TIP3    H270434   3.558   6.852   3.978 -0.0497 -0.0067  0.0983
16315TIP3   OH270435   0.845   4.946   1.646  0.3024  0.1131 -0.3996
16315TIP3    H170436   0.898   4.927   1.569 -1.8932  1.2317 -2.3245
16315TIP3    H270437   0.878   5.029   1.678 -0.0517  0.6914 -1.4533
16316TIP3   OH270438   1.440   4.937  14.489  0.0398  0.5873 -0.5704
16316TIP3    H170439   1.401   4.850  14.495  0.9895  0.2007  0.3847
16316TIP3    H270440   1.493   4.934  14.409  1.8459 -0.5085  0.5987
16317TIP3   OH270441   3.934   1.933   1.487 -0.2646  0.7250  0.1736
16317TIP3    H170442   4.026   1.938   1.511 -0.0966 -0.4928 -0.1371
16317TIP3    H270443   3.927   1.986   1.407  0.1290  0.9582  0.2928
16318TIP3   OH270444   6.759   1.504  12.646  0.0747  0.1631 -0.3056
16318TIP3    H170445   6.744   1.571  12.580 -1.7019 -1.4058 -1.6193
16318TIP3    H270446   6.786   1.427  12.596 -0.7885 -0.9213  0.8392
16319TIP3   OH270447   5.529   2.187  10.720 -0.5274  0.1118  0.3262
16319TIP3    H170448   5.547   2.230  10.804 -0.1033 -0.7847  0.7023
16319TIP3    H270449   5.566   2.246  10.654  2.1473 -0.7317  0.9507
16320TIP3   OH270450   1.283   6.820  13.485  0.3982 -0.0136  0.5728
16320TIP3    H170451   1.327   6.888  13.537  0.2001 -0.0896  0.8444
16320TIP3    H270452   1.254   6.756  13.550 -1.9079  1.0245  0.6645
16321TIP3   OH270453   0.286   3.103  17.022  0.0637  0.1616  0.3529
16321TIP3    H170454   0.295   3.023  17.074  2.0051  0.2593  0.2513
16321TIP3    H270455   0.361   3.157  17.048 -1.4172  2.1333  0.6887
16322TIP3   OH270456   5.840   1.574   6.730  0.2144  0.3243 -0.3402
16322TIP3    H170457   5.852   1.667   6.710 -0.1185  0.4069 -0.1599
16322TIP3    H270458   5.888   1.529   6.662 -0.4737  0.6138 -1.0320
16323TIP3   OH270459   2.515   1.771  11.407  0.7095  0.4126  0.1150
16323TIP3    H170460   2.485   1.862  11.401 -0.1579  0.1057 -0.3684
16323TIP3    H270461   2.560   1.756  11.324  0.6034  0.3125  0.0764
16324TIP3   OH270462   2.470   0.699   2.742 -0.2531 -0.0661  0.3411
16324TIP3    H170463   2.536   0.638   2.776  1.2082  0.7287 -0.9681
16324TIP3    H270464   2.412   0.714   2.817  1.5484 -0.1128  1.8472
16325TIP3   OH270465   0.611   1.596   5.451 -0.4059 -0.1022  0.4448
16325TIP3    H170466   0.530   1.608   5.501  0.0951 -2.3991  1.9324
16325TIP3    H270467   0.592   1.522   5.393  0.7198 -0.8789  1.0466
16326TIP3   OH270468   1.066   0.052  11.018  0.0281 -0.0685 -0.0540
16326TIP3    H170469   1.098  -0.005  10.948  0.1219 -0.0699 -0.0094
16326TIP3    H270470   1.136   0.053  11.083  0.1911  0.4033 -0.2275
16327TIP3   OH270471   4.248   0.756   4.507 -0.3623 -0.1014 -0.2599
16327TIP3    H170472   4.271   0.816   4.578 -0.3115 -0.2683 -0.1348
16327TIP3    H270473   4.246   0.670   4.548  1.1407 -0.3970 -0.7749
16328TIP3   OH270474   0.221   1.314   0.826  0.5663  0.3001  0.4637
16328TIP3    H170475   0.179   1.400   0.820  0.8273  0.3863 -0.2695
16328TIP3    H270476   0.244   1.293   0.735 -0.2043 -0.8953  0.5277
16329TIP3   OH270477   5.296   4.665   6.110 -0.2957  0.1238  0.4791
16329TIP3    H170478   5.264   4.737   6.164 -0.8785  0.1822  0.0692
16329TIP3    H270479   5.268   4.586   6.156 -0.1232  0.1682  0.6575
16330TIP3   OH270480   2.358   1.664   5.951  0.0239 -0.8374  0.1091
16330TIP3    H170481   2.307   1.676   6.032 -0.7856 -0.5877 -0.4215
16330TIP3    H270482   2.449   1.667   5.979 -0.2408 -1.6810  1.1503
16331TIP3   OH270483   5.806   4.316  16.344 -0.0444 -0.5954 -0.7882
16331TIP3    H170484   5.723   4.297  16.388  0.1004 -1.0864 -0.7159
16331TIP3    H270485   5.872   4.304  16.413  0.2122 -1.6354 -1.1876
16332TIP3   OH270486   2.498   1.231  10.825 -0.1555 -0.5411 -0.0580
16332TIP3    H170487   2.444   1.153  10.835 -0.2087 -0.4534  0.3680
16332TIP3    H270488   2.491   1.253  10.732  0.3810 -1.4107 -0.3116
16333TIP3   OH270489   6.740   4.187  12.223 -0.6292 -0.0167 -0.3038
16333TIP3    H170490   6.705   4.203  12.311 -1.2337  0.2304 -0.5809
16333TIP3    H270491   6.805   4.118  12.235 -0.8008 -0.0767  0.3175
16334TIP3   OH270492   5.221   4.368  11.932  0.1779  0.0078  0.4562
16334TIP3    H170493   5.236   4.412  11.848 -0.4730 -0.8426 -0.1219
16334TIP3    H270494   5.148   4.416  11.971 -1.9014 -1.6808 -1.0795
16335TIP3   OH270495   5.488   6.785   4.721  0.3090 -0.1034  0.4247
16335TIP3    H170496   5.452   6.699   4.700  0.0530  0.1261 -0.0822
16335TIP3    H270497   5.453   6.843   4.655  1.3619  0.1896  0.0979
16336TIP3   OH270498   2.709   6.574   4.074  0.2971 -0.0136 -0.1664
16336TIP3    H170499   2.697   6.669   4.076  1.2193  0.1114 -0.0748
16336TIP3    H270500   2.790   6.561   4.024  1.1089 -0.6452  1.2528
16337TIP3   OH270501   1.810   2.450   2.461  0.7092  0.1656  0.2612
16337TIP3    H170502   1.755   2.469   2.385 -0.7309 -0.8937  0.9890
16337TIP3    H270503   1.837   2.536   2.494 -0.2214  0.7021 -0.3420
16338TIP3   OH270504   0.528   0.936   4.932 -0.2297 -0.2731 -0.4293
16338TIP3    H170505   0.590   0.916   4.861  0.1031 -2.3946  0.3952
16338TIP3    H270506   0.443   0.912   4.896 -0.3646  0.8080 -0.8757
16339TIP3   OH270507   0.786   6.725   2.381 -0.7605 -0.1107  0.2497
16339TIP3    H170508   0.711   6.750   2.435 -0.7500  0.2406  0.1021
16339TIP3    H270509   0.857   6.711   2.443 -0.9971 -0.6204  0.4060
16340TIP3   OH270510   2.623   5.099  14.833 -0.1174  0.1590  0.1751
16340TIP3    H170511   2.646   5.186  14.867  0.1041  0.4651 -0.7135
16340TIP3    H270512   2.618   5.112  14.738 -1.5836 -0.4644  0.1428
16341TIP3   OH270513   5.011   0.625   1.377  0.1066 -0.2453  0.1043
16341TIP3    H170514   4.955   0.673   1.438  1.1225  0.6190  0.3824
16341TIP3    H270515   4.970   0.539   1.370 -1.2763  0.3694  0.2567
16342TIP3   OH270516   5.922   4.983   5.441  0.3708  0.0962  0.0565
16342TIP3    H170517   5.954   4.992   5.351  0.2372  2.3955  0.1891
16342TIP3    H270518   5.897   5.071   5.467 -0.4130 -0.6552  2.0773
16343TIP3   OH270519   0.748   3.714  14.059 -0.4503 -0.2776 -0.1966
16343TIP3    H170520   0.659   3.746  14.051 -0.4649 -0.4578 -0.8554
16343TIP3    H270521   0.764   3.667  13.976  0.1183 -0.5697  0.0724
16344TIP3   OH270522   5.019   4.742  14.124 -0.4314  0.3701  0.2263
16344TIP3    H170523   4.937   4.785  14.100 -1.6408 -0.8065  1.9809
16344TIP3    H270524   4.999   4.648  14.121  0.4659  0.0838  1.8256
16345TIP3   OH270525   5.648   5.744   1.179 -0.2609 -0.0685 -0.2464
16345TIP3    H170526   5.622   5.712   1.266 -2.3688  0.0180 -0.7824
16345TIP3    H270527   5.721   5.688   1.154 -0.2014 -0.6950  1.1896
16346TIP3   OH270528   2.042   1.733  16.648  0.0944 -0.3156  0.0597
16346TIP3    H170529   2.044   1.828  16.638  1.0409  0.0320  2.6728
16346TIP3    H270530   1.969   1.704  16.594  0.6532  1.7152 -1.9013
16347TIP3   OH270531   4.794   2.998  12.580  0.5722 -0.9745 -0.0587
16347TIP3    H170532   4.752   2.975  12.497 -0.0439  1.9324 -0.6505
16347TIP3    H270533   4.729   2.975  12.647 -0.8661  0.8170 -0.7642
16348TIP3   OH270534   0.926   6.490  13.771  0.5559  0.6005 -0.0130
16348TIP3    H170535   0.859   6.505  13.704  0.1275  0.2806  0.3388
16348TIP3    H270536   0.898   6.542  13.846 -0.1397 -0.7279  0.6834
16349TIP3   OH270537   2.344   5.962   4.852 -0.0012 -0.3693  0.1387
16349TIP3    H170538   2.350   6.005   4.766 -1.5374 -0.9536 -0.2907
16349TIP3    H270539   2.253   5.934   4.859  0.1986 -0.7179  1.7928
16350TIP3   OH270540   4.275   0.384  14.045  0.2574  0.0835  0.1849
16350TIP3    H170541   4.291   0.301  14.091  2.3756 -0.0630 -0.6678
16350TIP3    H270542   4.361   0.427  14.045 -0.1194  0.9266 -1.9379
16351TIP3   OH270543   1.195   6.512   0.620  0.3740 -0.2552  0.1367
16351TIP3    H170544   1.141   6.591   0.614  1.4997  0.6541  1.4333
16351TIP3    H270545   1.189   6.473   0.533 -1.9602  0.0396  0.0821
16352TIP3   OH270546   0.309   5.605   6.094 -0.1415  0.5737  0.0248
16352TIP3    H170547   0.339   5.647   6.175 -0.3766 -0.8663  0.8927
16352TIP3    H270548   0.250   5.536   6.123 -0.1611 -0.0404 -1.3820
16353TIP3   OH270549   4.925   4.958   3.360  0.4520 -0.1649 -0.2449
16353TIP3    H170550   4.834   4.987   3.359  0.0789 -1.2085  0.9754
16353TIP3    H270551   4.921   4.863   3.373  1.7121 -0.2350 -0.1775
16354TIP3   OH270552   1.353   4.048   0.456 -0.0163  0.2181 -0.3974
16354TIP3    H170553   1.393   3.973   0.499  0.9386  1.9132  1.8638
16354TIP3    H270554   1.417   4.075   0.389  0.6621  0.3429  0.2928
16355TIP3   OH270555   3.592   4.605  10.672  0.0078  0.6731 -0.2739
16355TIP3    H170556   3.626   4.695  10.675  2.9088 -0.3391  1.2962
16355TIP3    H270557   3.589   4.584  10.578  0.4731  1.9892 -0.6092
16356TIP3   OH270558   2.781   6.561   5.061 -0.0898  0.4034 -0.1236
16356TIP3    H170559   2.691   6.561   5.029 -0.1261  0.8358 -0.0301
16356TIP3    H270560   2.816   6.646   5.034  1.1213 -0.7418 -2.4751
16357TIP3   OH270561   4.657   6.508   0.718  0.0837 -0.1455 -0.5383
16357TIP3    H170562   4.636   6.463   0.800  0.2847 -0.0892 -0.4566
16357TIP3    H270563   4.741   6.473   0.692  0.5835  0.6897 -0.1057
16358TIP3   OH270564   1.813   0.827   5.464 -0.2530 -0.7379  0.2699
16358TIP3    H170565   1.782   0.798   5.378 -0.4281 -1.7239  0.6535
16358TIP3    H270566   1.896   0.781   5.476 -0.4758 -1.0060  0.8338
16359TIP3   OH270567   4.022   6.269   4.192 -0.1128  0.3130 -0.6617
16359TIP3    H170568   4.052   6.223   4.114 -1.1811  2.4747 -2.4855
16359TIP3    H270569   3.984   6.201   4.247 -0.2455 -1.1908 -2.4926
16360TIP3   OH270570   5.860   2.957  16.960  0.7488  0.3914 -0.0748
16360TIP3    H170571   5.839   3.050  16.949  1.1253  0.3051 -1.6304
16360TIP3    H270572   5.870   2.924  16.871 -1.5180 -1.6514  0.3161
16361TIP3   OH270573   3.038   2.196  16.384  0.3453 -0.2564 -0.3503
16361TIP3    H170574   3.024   2.112  16.429  0.3267 -0.1520 -0.1598
16361TIP3    H270575   3.109   2.178  16.322  0.0509 -0.5221 -0.6086
16362TIP3   OH270576   6.157   6.203   1.463 -0.1300 -0.0378  0.2400
16362TIP3    H170577   6.102   6.145   1.410  0.2897  0.3438 -0.6323
16362TIP3    H270578   6.095   6.268   1.498 -0.4440 -0.4133  0.3915
16363TIP3   OH270579   4.223   4.523  12.271  0.7555 -0.1402 -0.1776
16363TIP3    H170580   4.198   4.567  12.190 -0.8363  1.1270  0.9620
16363TIP3    H270581   4.210   4.430  12.252  1.0635  0.0657 -1.5613
16364TIP3   OH270582   4.929   6.237  12.727 -0.3420 -0.1452  0.3830
16364TIP3    H170583   4.967   6.315  12.686  1.6600 -0.2890  1.7939
16364TIP3    H270584   4.963   6.164  12.676  0.2064 -0.2107  0.8313
16365TIP3   OH270585   3.829   2.275  12.996 -0.1031 -0.3836  0.3247
16365TIP3    H170586   3.843   2.218  13.072  1.1016  0.1021  0.4919
16365TIP3    H270587   3.917   2.289  12.960 -0.4095  1.1584  0.1344
16366TIP3   OH270588   4.956   5.820   2.446  0.1260  0.5931  0.1470
16366TIP3    H170589   4.861   5.826   2.445 -0.0761 -1.8737 -0.0412
16366TIP3    H270590   4.985   5.881   2.377 -1.3857  0.3446 -0.7447
16367TIP3   OH270591   4.266   3.625  17.240  0.4746 -0.0225  0.3747
16367TIP3    H170592   4.196   3.657  17.296 -0.8044 -2.2951  0.2044
16367TIP3    H270593   4.291   3.701  17.187 -1.0376  1.1543  1.2680
16368TIP3   OH270594   3.414   3.507  14.904  0.1647 -0.1250 -0.3926
16368TIP3    H170595   3.472   3.566  14.857 -0.6137 -0.2255 -1.5003
16368TIP3    H270596   3.365   3.563  14.964  0.6208  0.1079 -0.2381
16369TIP3   OH270597   2.251   2.353  17.175 -0.3082 -0.3834 -0.4853
16369TIP3    H170598   2.230   2.416  17.244  3.0532 -0.2443  0.6132
16369TIP3    H270599   2.177   2.292  17.174 -1.8410  1.3386  1.1165
16370TIP3   OH270600   3.750   0.056   6.322  0.1123  0.3902 -0.3275
16370TIP3    H170601   3.723  -0.027   6.361  0.3681  0.4997  0.0868
16370TIP3    H270602   3.672   0.089   6.278 -0.4364  0.6839  0.8202
16371TIP3   OH270603   1.924   3.431   3.522  0.1513 -0.3393 -0.1604
16371TIP3    H170604   2.006   3.452   3.566 -0.2350  0.2436  0.3065
16371TIP3    H270605   1.859   3.431   3.592 -0.2468 -0.8059 -0.5259
16372TIP3   OH270606   4.253   6.083  11.697 -0.3119  0.3325 -0.4046
16372TIP3    H170607   4.341   6.065  11.666 -0.8084 -1.7174 -0.7470
16372TIP3    H270608   4.248   6.179  11.701  1.7262  0.4974 -0.8840
16373TIP3   OH270609   3.961   0.367   1.654  0.1135 -0.2727 -0.4285
16373TIP3    H170610   4.002   0.284   1.675  0.1797 -0.7194 -2.1566
16373TIP3    H270611   4.030   0.432   1.664  0.3821 -0.5938 -0.2028
16374TIP3   OH270612   6.726   0.748   1.480  0.4430 -0.2522  0.1711
16374TIP3    H170613   6.679   0.666   1.492  0.7649 -0.5799 -0.7099
16374TIP3    H270614   6.658   0.815   1.484  0.2084 -0.5348  1.1225
16375TIP3   OH270615   1.721   4.643   1.629 -0.0802 -0.0972  0.5744
16375TIP3    H170616   1.769   4.687   1.699 -0.1491  0.2831  0.3843
16375TIP3    H270617   1.789   4.603   1.575 -0.0789 -2.0102  1.8915
16376TIP3   OH270618   3.849   4.004   0.928 -0.1615 -0.0910 -0.2029
16376TIP3    H170619   3.854   3.927   0.985  1.1063 -0.6128 -0.9538
16376TIP3    H270620   3.910   3.984   0.857  0.9073  1.9922  0.0515
16377TIP3   OH270621   4.553   5.845  16.529  0.0132  0.3144  0.1682
16377TIP3    H170622   4.520   5.933  16.512 -1.4759 -0.2840 -0.1879
16377TIP3    H270623   4.480   5.799  16.570  1.4608 -0.1559  2.3787
16378TIP3   OH270624   4.513   0.755  14.262 -0.3401 -0.1337  0.1991
16378TIP3    H170625   4.608   0.761  14.270 -0.2678 -1.1348  0.1522
16378TIP3    H270626   4.489   0.832  14.209  0.6198 -0.7142 -1.1494
16379TIP3   OH270627   6.819   1.631   1.376  0.6995  0.4247  0.2490
16379TIP3    H170628   6.894   1.574   1.392  1.4428  1.1213 -0.6262
16379TIP3    H270629   6.759   1.612   1.448  2.0226  0.3602  1.3911
16380TIP3   OH270630   0.609   5.615   0.499 -0.2730  0.0891  0.0389
16380TIP3    H170631   0.563   5.538   0.465 -0.8278 -0.0357  1.0369
16380TIP3    H270632   0.541   5.681   0.507  0.2331  0.7609 -0.9715
16381TIP3   OH270633   4.424   5.325  12.007 -0.2875 -0.3037 -0.0260
16381TIP3    H170634   4.444   5.362  11.921  0.8392 -0.5837  0.1030
16381TIP3    H270635   4.385   5.240  11.988 -2.6599  0.7502 -0.3187
16382TIP3   OH270636   2.570   6.315   3.824 -0.0882  0.0598 -0.2334
16382TIP3    H170637   2.526   6.366   3.892 -0.1803  2.1953 -1.7901
16382TIP3    H270638   2.630   6.377   3.783  0.5988 -1.4044 -1.5530
16383TIP3   OH270639   1.157   2.422   3.853 -0.0112  0.4796  0.4916
16383TIP3    H170640   1.202   2.495   3.894  1.3239  0.0321 -0.1189
16383TIP3    H270641   1.069   2.423   3.891  0.5655  1.2604  1.8602
16384TIP3   OH270642   2.189   1.842  15.979  0.2155  0.5340  0.0480
16384TIP3    H170643   2.117   1.807  16.032  0.2382  1.2985  0.5912
16384TIP3    H270644   2.148   1.869  15.897  0.2995 -1.3596 -0.6698
16385TIP3   OH270645   1.186   4.364  13.810 -0.0438  0.2007  0.6403
16385TIP3    H170646   1.167   4.381  13.718 -0.3475  1.1495  0.8601
16385TIP3    H270647   1.250   4.293  13.809 -0.6843 -0.3732 -0.2628
16386TIP3   OH270648   0.896   6.376  11.869 -0.2701  0.4117  0.2976
16386TIP3    H170649   0.888   6.335  11.783 -0.3349  0.4968  0.2633
16386TIP3    H270650   0.983   6.415  11.869 -0.2435  0.3541  0.2966
16387TIP3   OH270651   2.731   0.478   5.055 -0.1905  0.1910 -0.6184
16387TIP3    H170652   2.694   0.436   5.132 -2.0545 -2.8052 -2.9039
16387TIP3    H270653   2.825   0.457   5.059 -0.5714 -1.6103 -0.0744
16388TIP3   OH270654   2.654   5.491   5.115 -0.1655  0.6990 -0.0475
16388TIP3    H170655   2.667   5.451   5.029 -1.0688 -1.2418  0.6620
16388TIP3    H270656   2.568   5.460   5.143  1.0342 -0.6297  2.5123
16389TIP3   OH270657   6.186   3.853  12.273 -0.0383  0.1082 -0.0874
16389TIP3    H170658   6.223   3.765  12.270 -1.6308 -0.6124  0.6254
16389TIP3    H270659   6.257   3.909  12.241  2.2491 -1.0104  2.5333
16390TIP3   OH270660   2.418   1.376   1.724  0.1346  0.2572  0.4903
16390TIP3    H170661   2.409   1.299   1.781  2.0984  0.6865  1.4836
16390TIP3    H270662   2.393   1.345   1.637  0.1000 -1.2833  1.0169
16391TIP3   OH270663   2.808   0.616  12.297 -0.3377  0.2315  0.7444
16391TIP3    H170664   2.751   0.691  12.280 -0.8540  0.0921  1.7632
16391TIP3    H270665   2.756   0.559  12.354  0.2352 -0.6641  0.4007
16392TIP3   OH270666   1.727   0.384   3.394  0.3128 -0.2979  0.0937
16392TIP3    H170667   1.709   0.344   3.479  1.2780 -2.6069 -0.6965
16392TIP3    H270668   1.647   0.368   3.343  0.1168  0.1889  0.2413
16393TIP3   OH270669   1.401   3.428  12.964  0.0266  0.1748 -0.5978
16393TIP3    H170670   1.366   3.505  12.920  1.1492  0.7871 -0.4636
16393TIP3    H270671   1.468   3.394  12.905  1.6064  1.0513  0.5901
16394TIP3   OH270672   3.998   5.999  11.585  0.1652 -0.2747  0.1682
16394TIP3    H170673   4.065   6.058  11.620  0.7892 -1.1644  0.4884
16394TIP3    H270674   3.984   6.030  11.495  2.0709 -0.9509 -0.4109
16395TIP3   OH270675   2.948   1.994  14.044  0.6866 -0.1735  0.2338
16395TIP3    H170676   3.017   2.040  13.996 -0.2424  0.9665 -0.0658
16395TIP3    H270677   2.913   2.060  14.104 -0.8548 -0.3788 -0.3862
16396TIP3   OH270678   4.876   5.724   4.982 -0.0460  0.3704 -0.3861
16396TIP3    H170679   4.949   5.783   4.962 -0.3951  0.6766 -0.7469
16396TIP3    H270680   4.798   5.778   4.976 -0.4239 -0.2646 -1.3321
16397TIP3   OH270681   5.687   5.705   0.737  0.2167  0.2093 -0.1180
16397TIP3    H170682   5.671   5.765   0.810 -0.4267 -0.4277  0.2754
16397TIP3    H270683   5.767   5.659   0.761  0.8480  1.0785 -0.5361
16398TIP3   OH270684   1.702   2.379   1.427 -0.0122 -0.0644 -0.5519
16398TIP3    H170685   1.656   2.436   1.365  0.0083  0.0959 -0.4199
16398TIP3    H270686   1.792   2.375   1.395  0.0119  0.0649 -0.5000
16399TIP3   OH270687   4.743   5.415  13.421 -0.4845 -0.6705 -0.1280
16399TIP3    H170688   4.763   5.504  13.393 -0.8474 -0.1784  1.1088
16399TIP3    H270689   4.703   5.374  13.345 -0.9619  0.4406 -0.4910
16400TIP3   OH270690   1.944   4.716   6.511 -0.2914 -0.0926  0.0419
16400TIP3    H170691   1.876   4.717   6.443 -0.4019  0.4911  0.1595
16400TIP3    H270692   1.942   4.626   6.544 -1.9563  0.2299  0.9720
16401TIP3   OH270693   4.355   5.816  15.963 -0.4057  0.0567 -0.3781
16401TIP3    H170694   4.383   5.727  15.984 -0.0941  0.0693 -0.7248
16401TIP3    H270695   4.262   5.807  15.939 -0.0534 -0.3815 -1.6571
16402TIP3   OH270696   6.344   2.085   3.807 -0.0748 -0.5612  0.6418
16402TIP3    H170697   6.287   2.157   3.781  1.3291  0.5088  0.3674
16402TIP3    H270698   6.294   2.006   3.788 -0.6988  0.2864 -1.5338
16403TIP3   OH270699   0.048   0.281  11.939  0.0573 -0.2991  0.1200
16403TIP3    H170700   0.142   0.289  11.922  0.0879 -1.5201 -0.3344
16403TIP3    H270701   0.033   0.188  11.954 -0.9591 -0.0129  1.0108
16404TIP3   OH270702   5.958   0.575  15.671  0.1996  0.9511 -0.2293
16404TIP3    H170703   6.039   0.530  15.696 -1.1738 -1.9233 -0.5632
16404TIP3    H270704   5.904   0.573  15.749 -1.0423 -0.8879 -1.0524
16405TIP3   OH270705   4.759   2.748   6.273  0.9384  0.0543 -0.0728
16405TIP3    H170706   4.847   2.714   6.284  1.2573  1.1453  1.0508
16405TIP3    H270707   4.702   2.671   6.272  1.9676 -0.7474 -2.0176
16406TIP3   OH270708   1.818   4.855  14.066  0.6259  0.2759  0.4076
16406TIP3    H170709   1.780   4.825  14.149 -0.5556 -0.5215 -0.3951
16406TIP3    H270710   1.872   4.782  14.036 -0.6651 -0.3155 -0.5648
16407TIP3   OH270711   0.828   1.961   0.378  0.5049  0.0542  0.3161
16407TIP3    H170712   0.736   1.977   0.358  0.3643 -1.1341 -0.0443
16407TIP3    H270713   0.834   1.975   0.473 -0.2740 -0.8414  0.5125
16408TIP3   OH270714   5.771   6.506   5.193  0.0720  0.1898 -0.1105
16408TIP3    H170715   5.832   6.432   5.200 -1.0032 -0.5831  2.1485
16408TIP3    H270716   5.690   6.473   5.231 -0.9336  2.0433 -0.5597
16409TIP3   OH270717   6.467   6.463  12.281 -0.2544  0.3071 -0.4446
16409TIP3    H170718   6.427   6.393  12.227 -1.6701 -0.3161  1.3152
16409TIP3    H270719   6.392   6.514  12.312  0.5214  0.6442  0.9178
16410TIP3   OH270720   4.855   3.052   3.090  0.0202  0.1038  0.5579
16410TIP3    H170721   4.873   3.146   3.100 -1.3326  0.4049  0.4670
16410TIP3    H270722   4.759   3.047   3.085  0.1134 -1.0858 -1.2699
16411TIP3   OH270723   0.615   2.595   1.487  0.1000 -0.1320  0.1255
16411TIP3    H170724   0.625   2.522   1.548 -1.4081 -0.0293  0.5393
16411TIP3    H270725   0.520   2.605   1.476  0.3005  0.1550 -1.8813
16412TIP3   OH270726   3.161   5.985  14.183 -0.3179  0.3613 -0.2603
16412TIP3    H170727   3.207   5.920  14.236  0.8777  1.6986  0.4080
16412TIP3    H270728   3.102   5.934  14.128 -1.1763 -1.1312  1.9180
16413TIP3   OH270729   3.843   4.838   1.463  0.2789 -0.3583  0.0827
16413TIP3    H170730   3.824   4.844   1.369 -0.7752  1.9176  0.3611
16413TIP3    H270731   3.771   4.786   1.499 -1.6063  2.0312  0.0771
16414TIP3   OH270732   0.495   1.700   5.077  0.6845  0.6210  0.0769
16414TIP3    H170733   0.551   1.630   5.111 -0.2944 -0.4423 -0.4392
16414TIP3    H270734   0.406   1.664   5.081  0.3637  1.0615 -2.0608
16415TIP3   OH270735   4.890   4.083  15.195  0.8428  0.4860  0.4404
16415TIP3    H170736   4.846   4.003  15.224 -0.2610  0.8923 -0.0681
16415TIP3    H270737   4.982   4.070  15.219  1.1863 -1.9921 -1.6948
16416TIP3   OH270738   6.469   4.836  16.361  0.0914  0.4871  0.3052
16416TIP3    H170739   6.378   4.837  16.391 -1.2437 -1.2466 -3.1638
16416TIP3    H270740   6.506   4.756  16.399 -0.0720  0.7540  1.0394
16417TIP3   OH270741   1.276   4.766   3.416  0.6805  0.2045  0.6657
16417TIP3    H170742   1.324   4.703   3.361 -0.9079 -0.8518  0.4287
16417TIP3    H270743   1.201   4.717   3.449 -1.6341  2.3899 -0.9483
16418TIP3   OH270744   3.216   1.092   2.572  0.4184 -0.0298  0.2191
16418TIP3    H170745   3.220   1.126   2.661 -1.5229 -0.7854  0.6367
16418TIP3    H270746   3.149   1.024   2.575 -1.7351  1.7407 -2.3445
16419TIP3   OH270747   4.628   1.287  13.375  0.0427 -0.0415  0.1052
16419TIP3    H170748   4.695   1.226  13.344  0.1903 -0.5442  1.3492
16419TIP3    H270749   4.678   1.361  13.410 -0.1398  1.0186 -1.7316
16420TIP3   OH270750   1.344   2.112   3.925 -0.0250 -0.1257  0.2926
16420TIP3    H170751   1.395   2.080   3.999  0.5688  0.3991  0.1140
16420TIP3    H270752   1.373   2.202   3.913  0.0103 -0.2609 -0.6889
16421TIP3   OH270753   6.732   1.121  15.233 -0.0380 -0.2361 -0.5087
16421TIP3    H170754   6.735   1.047  15.294  0.1982  0.7993  0.7881
16421TIP3    H270755   6.651   1.109  15.184  0.0547 -1.4093 -0.4123
16422TIP3   OH270756   6.469   4.454   5.443 -0.9256  0.3366  0.3932
16422TIP3    H170757   6.449   4.362   5.464  0.3528 -0.0526 -0.0379
16422TIP3    H270758   6.535   4.479   5.508  0.8139  0.0529 -1.1935
16423TIP3   OH270759   0.892   6.149  16.255 -0.3046 -0.2976 -0.0708
16423TIP3    H170760   0.880   6.217  16.321 -1.0221  0.0282 -0.5258
16423TIP3    H270761   0.961   6.182  16.198 -1.4706  0.6473 -1.0093
16424TIP3   OH270762   2.645   3.180  17.123  0.1899  0.1114 -0.2789
16424TIP3    H170763   2.706   3.127  17.072 -1.4612 -1.5591 -0.6217
16424TIP3    H270764   2.635   3.133  17.205 -0.8030  0.2262 -0.3263
16425TIP3   OH270765   6.223   2.168   4.631 -0.2991 -0.0366  0.2324
16425TIP3    H170766   6.145   2.222   4.616  0.9828  1.2381 -2.3974
16425TIP3    H270767   6.230   2.164   4.727 -2.5347  1.3515  0.5374
16426TIP3   OH270768   4.796   4.862  14.726  0.2234 -0.6260  0.1939
16426TIP3    H170769   4.800   4.865  14.822  0.4455 -1.3364  0.2153
16426TIP3    H270770   4.706   4.886  14.705  0.7089  1.7306  0.4574
16427TIP3   OH270771   5.855   2.472  14.607  0.2343  0.1072  0.3625
16427TIP3    H170772   5.867   2.382  14.577 -1.2227 -0.8821  2.5012
16427TIP3    H270773   5.780   2.504  14.557  0.7791  0.1884 -0.4305
16428TIP3   OH270774   6.475   0.507  13.781  0.2868  0.2299 -0.4562
16428TIP3    H170775   6.481   0.602  13.770  2.4609  0.0644 -1.3301
16428TIP3    H270776   6.470   0.494  13.876 -1.6485  1.2257 -0.3891
16429TIP3   OH270777   0.897   1.704   0.931  0.2684 -0.0139  0.0198
16429TIP3    H170778   0.841   1.781   0.942 -0.3555 -0.4137 -0.2850
16429TIP3    H270779   0.836   1.630   0.934  0.6442 -0.4091 -1.3461
16430TIP3   OH270780   0.302   5.286  14.635  0.2859 -0.1247 -0.5439
16430TIP3    H170781   0.234   5.280  14.568 -0.1369 -0.1046 -0.1147
16430TIP3    H270782   0.285   5.211  14.693  1.4454 -0.9341 -1.1919
16431TIP3   OH270783   3.516   2.770   1.738  0.5890  0.0676  0.1768
16431TIP3    H170784   3.420   2.775   1.745  0.7124  0.9599  2.0211
16431TIP3    H270785   3.536   2.679   1.759  0.1816  0.1351  0.9240
16432TIP3   OH270786   0.419   1.959  17.072  0.2017 -0.4165 -0.4742
16432TIP3    H170787   0.325   1.970  17.060 -0.2635 -0.3128  2.4189
16432TIP3    H270788   0.459   2.013  17.004 -1.8401  1.2497 -0.4453
16433TIP3   OH270789   0.929   2.364  12.053 -0.1608 -0.3486  0.1767
16433TIP3    H170790   0.842   2.382  12.018  0.2202 -0.0384 -0.6515
16433TIP3    H270791   0.987   2.425  12.007  0.4997 -0.5656  0.6922
16434TIP3   OH270792   2.590   2.659   1.675  0.4373 -0.5819 -0.7657
16434TIP3    H170793   2.541   2.736   1.705 -1.0940 -1.4114 -1.0330
16434TIP3    H270794   2.565   2.649   1.584  1.3528 -0.8754 -0.9935
16435TIP3   OH270795   5.167   5.075   3.707  0.0548 -0.5838 -0.3723
16435TIP3    H170796   5.166   5.042   3.617 -0.3189  1.4630 -1.1625
16435TIP3    H270797   5.155   5.169   3.699 -0.8147 -0.4329  1.8823
16436TIP3   OH270798   2.984   3.415   0.001 -0.1660  0.3314  0.6677
16436TIP3    H170799   3.023   3.370  -0.074 -1.1758 -1.9989  1.4547
16436TIP3    H270800   2.919   3.474  -0.037 -1.2011 -1.3562 -0.3242
16437TIP3   OH270801   0.083   6.360  15.935 -0.5105  0.1850  0.3141
16437TIP3    H170802   0.032   6.365  16.016  0.1284  1.0498  0.6836
16437TIP3    H270803   0.093   6.452  15.908  0.1393 -0.0292 -0.1925
16438TIP3   OH270804   3.247   5.005  16.360  0.3137  0.5155  0.1584
16438TIP3    H170805   3.159   5.029  16.390  0.5412  1.3989  0.1487
16438TIP3    H270806   3.261   4.918  16.395 -0.7927  0.1213 -0.3262
16439TIP3   OH270807   5.899   0.707  14.114 -0.0654  0.2931 -0.5684
16439TIP3    H170808   5.870   0.629  14.066 -0.3950  0.7308 -1.1018
16439TIP3    H270809   5.989   0.688  14.139 -0.3134 -0.4754 -0.2245
16440TIP3   OH270810   0.569   0.471   5.761 -0.6467 -0.4080 -0.2348
16440TIP3    H170811   0.564   0.376   5.746 -0.6917 -0.2753 -1.1578
16440TIP3    H270812   0.647   0.483   5.815 -1.7957 -1.1517  1.7007
16441TIP3   OH270813   4.825   6.127  16.763  0.1513 -0.0858 -0.0466
16441TIP3    H170814   4.744   6.090  16.800  0.0298  0.9850  0.8072
16441TIP3    H270815   4.813   6.221  16.768  0.2820  0.1234 -2.5888
16442TIP3   OH270816   5.567   0.878  14.067 -0.1625 -0.1575  0.1805
16442TIP3    H170817   5.582   0.840  13.980  0.4932 -1.1405  0.6957
16442TIP3    H270818   5.486   0.837  14.097 -0.6147  0.5007 -0.1300
16443TIP3   OH270819   4.372   3.310  12.214 -0.8072 -0.0344  0.6114
16443TIP3    H170820   4.394   3.323  12.122 -0.6865  1.6880  0.8427
16443TIP3    H270821   4.284   3.273  12.213 -0.4240 -0.9876 -0.1918
16444TIP3   OH270822   3.671   1.264  14.419 -0.0101 -0.2182 -0.0852
16444TIP3    H170823   3.692   1.353  14.391 -0.3596  0.2636  1.1244
16444TIP3    H270824   3.629   1.275  14.504  2.1416 -1.6777  1.2666
16445TIP3   OH270825   2.483   4.277  11.388 -0.2601 -0.0780  0.2593
16445TIP3    H170826   2.523   4.342  11.445  1.5681  0.0412 -1.0665
16445TIP3    H270827   2.557   4.234  11.344 -1.5466  0.0458 -2.2422
16446TIP3   OH270828   4.755   3.158   2.134  0.6268 -0.7357 -0.2568
16446TIP3    H170829   4.717   3.119   2.055 -1.9418  2.5010 -0.8231
16446TIP3    H270830   4.818   3.223   2.102  0.5995 -0.3642  0.4186
16447TIP3   OH270831   1.178   5.513   6.500 -0.2099 -0.6933  0.7180
16447TIP3    H170832   1.257   5.539   6.547 -1.3817  1.1366  1.8462
16447TIP3    H270833   1.181   5.418   6.497  0.8926 -0.7800  2.8240
16448TIP3   OH270834   3.248   4.664  13.213  0.1648  0.1410 -0.4317
16448TIP3    H170835   3.183   4.714  13.165 -1.1836 -0.7136  0.4512
16448TIP3    H270836   3.302   4.731  13.256  0.3867  0.8696 -1.7860
16449TIP3   OH270837   0.949   1.069   5.482  0.3585  0.0630 -0.5715
16449TIP3    H170838   0.874   1.125   5.502 -0.5576 -1.1714 -0.5019
16449TIP3    H270839   0.991   1.055   5.567 -0.7497 -1.2319 -0.2226
16450TIP3   OH270840   1.122   4.598   1.392 -0.1505  0.3221 -0.1350
16450TIP3    H170841   1.081   4.552   1.465  4.4184 -0.4341  2.3482
16450TIP3    H270842   1.117   4.536   1.319  1.0625 -1.9634  1.5799
16451TIP3   OH270843   3.339   2.022   0.497  0.5675  0.0621 -0.3630
16451TIP3    H170844   3.261   2.072   0.475 -0.0003 -0.2279  0.8965
16451TIP3    H270845   3.350   2.034   0.592  0.2254 -2.3801  0.0606
16452TIP3   OH270846   5.501   0.778  11.454 -0.3244  0.3903  0.3806
16452TIP3    H170847   5.467   0.776  11.364 -1.1150  0.8542  0.6593
16452TIP3    H270848   5.570   0.712  11.454  0.0376  0.7409 -0.7058
16453TIP3   OH270849   3.218   4.605  16.130 -0.1788 -0.5079  0.4919
16453TIP3    H170850   3.182   4.527  16.086 -0.1730 -0.3430  0.1955
16453TIP3    H270851   3.186   4.679  16.078 -0.1565 -0.3121  0.7572
16454TIP3   OH270852   1.016   1.436  13.810  0.1017  0.0770 -0.0818
16454TIP3    H170853   0.985   1.523  13.834  0.3990 -0.0617  0.8293
16454TIP3    H270854   1.077   1.451  13.738 -0.1727  0.5727 -0.2169
16455TIP3   OH270855   0.215   6.540   5.955 -0.1916  0.0036  0.2261
16455TIP3    H170856   0.297   6.538   5.905 -0.6962  1.2855 -0.7199
16455TIP3    H270857   0.234   6.592   6.032 -0.4632  1.5713 -0.7260
16456TIP3   OH270858   3.733   2.523  12.165 -0.1589  0.0925 -0.1481
16456TIP3    H170859   3.671   2.597  12.164 -0.9776 -0.5512  0.7830
16456TIP3    H270860   3.817   2.563  12.185 -0.8147  0.6513  1.7067
16457TIP3   OH270861   5.377   1.158   3.158  0.2013 -0.2925 -0.1650
16457TIP3    H170862   5.309   1.114   3.106 -1.3221  1.3720  0.3080
16457TIP3    H270863   5.376   1.249   3.126  1.0879  0.1424  0.9804
16458TIP3   OH270864   6.575   2.030   3.668 -0.2027  0.0783 -1.2788
16458TIP3    H170865   6.494   2.081   3.674 -0.4768 -0.2044 -2.4712
16458TIP3    H270866   6.624   2.055   3.747 -0.8006  1.3601 -1.2840
16459TIP3   OH270867   0.049   6.343   5.861 -0.2929  0.4886  0.2237
16459TIP3    H170868   0.096   6.400   5.922  1.6743 -0.3782 -0.4097
16459TIP3    H270869  -0.026   6.311   5.912 -0.4067  2.1223  1.1829
16460TIP3   OH270870   3.628   2.539   0.282  0.8385 -0.3021  0.9816
16460TIP3    H170871   3.636   2.582   0.367 -1.4272  1.4786  0.3970
16460TIP3    H270872   3.570   2.465   0.297 -0.0058  0.3358  0.9071
16461TIP3   OH270873   6.447   3.267  15.642 -0.5052 -0.1629 -0.6970
16461TIP3    H170874   6.384   3.212  15.689 -0.4687  0.3415 -0.0423
16461TIP3    H270875   6.513   3.205  15.610 -0.7615 -0.5698 -0.4561
16462TIP3   OH270876   5.366   3.897   0.654 -0.6701 -0.9639 -0.3866
16462TIP3    H170877   5.320   3.815   0.671 -1.1590 -0.7583 -0.6920
16462TIP3    H270878   5.446   3.891   0.706 -1.2378 -1.1452  0.4830
16463TIP3   OH270879   4.705   2.129  15.103 -0.2766 -0.4086  0.3148
16463TIP3    H170880   4.684   2.199  15.165  0.7266 -0.9667  1.3236
16463TIP3    H270881   4.623   2.115  15.055 -0.1360  2.4048 -0.9474
16464TIP3   OH270882   3.215   4.900   0.344  0.1213  0.1806 -0.0911
16464TIP3    H170883   3.235   4.982   0.389  0.7348  0.0213 -0.0718
16464TIP3    H270884   3.165   4.849   0.408 -2.5610  1.5432 -0.9495
16465TIP3   OH270885   0.873   2.224  15.497 -0.2316 -0.0431 -0.0092
16465TIP3    H170886   0.845   2.141  15.534 -1.8465  0.3851 -0.1918
16465TIP3    H270887   0.823   2.232  15.416  1.9620 -0.1674 -1.4570
16466TIP3   OH270888   1.922   3.904  15.760  0.0507  0.0866  0.0502
16466TIP3    H170889   1.946   3.876  15.849 -1.0450 -1.3251 -0.0643
16466TIP3    H270890   1.867   3.981  15.774 -0.2142 -0.1949  0.6112
16467TIP3   OH270891   6.605   0.748  15.629  0.1669 -0.2487  0.1495
16467TIP3    H170892   6.510   0.760  15.621  0.3697  0.6390 -1.1778
16467TIP3    H270893   6.618   0.654  15.622 -0.4556 -0.2228 -1.8746
16468TIP3   OH270894   2.725   3.203   1.408 -0.0944  0.5033  0.2998
16468TIP3    H170895   2.746   3.256   1.331  1.5073 -0.6862 -0.1394
16468TIP3    H270896   2.795   3.137   1.411 -0.5839  0.0191  2.3020
16469TIP3   OH270897   5.156   1.702   4.554  0.0139 -0.2433 -0.4061
16469TIP3    H170898   5.218   1.671   4.621  0.8562 -2.2078 -2.0074
16469TIP3    H270899   5.071   1.671   4.585  0.2878 -0.5185  0.0977
16470TIP3   OH270900   0.836   2.523   1.327  0.3738  0.0921 -0.1537
16470TIP3    H170901   0.766   2.520   1.392  0.2042  1.2425 -0.2661
16470TIP3    H270902   0.846   2.432   1.298  0.1682 -0.3611  1.1636
16471TIP3   OH270903   5.876   0.963   2.450  0.1785 -0.2437 -0.2037
16471TIP3    H170904   5.867   1.022   2.525 -2.2612  0.3975 -0.9111
16471TIP3    H270905   5.912   1.019   2.380 -1.9143  0.4475 -0.8045
16472TIP3   OH270906   1.112   5.676   3.071 -0.3504  0.4563 -0.8714
16472TIP3    H170907   1.165   5.626   3.009  1.1301  0.6642  0.1680
16472TIP3    H270908   1.139   5.643   3.157 -0.7383  1.7041 -0.2494
16473TIP3   OH270909   4.844   2.818   5.107 -0.0432 -0.0351 -0.2573
16473TIP3    H170910   4.799   2.902   5.102 -0.1367  0.0220  1.2062
16473TIP3    H270911   4.937   2.842   5.106 -0.0603  0.0140 -0.8340
16474TIP3   OH270912   2.843   1.831  11.759 -0.3542  0.1941 -0.2250
16474TIP3    H170913   2.885   1.760  11.808 -0.3707  0.2660 -0.1057
16474TIP3    H270914   2.898   1.843  11.682 -0.0065  0.4591  0.0580
16475TIP3   OH270915   2.417   1.758  15.091 -0.3799  0.1452  0.3275
16475TIP3    H170916   2.499   1.752  15.141  1.7209 -0.2235 -2.8873
16475TIP3    H270917   2.350   1.728  15.152  2.0099 -0.6333  2.7834
16476TIP3   OH270918   2.718   0.003  17.210  0.7562  0.0581 -0.3147
16476TIP3    H170919   2.786  -0.013  17.276  1.5317 -1.6888 -1.4677
16476TIP3    H270920   2.767   0.018  17.129 -0.2064  0.8160 -0.7641
16477TIP3   OH270921   0.686   1.765  10.805  0.2965  0.3433 -0.2497
16477TIP3    H170922   0.627   1.760  10.730 -0.1016 -0.4606  0.1061
16477TIP3    H270923   0.771   1.788  10.767  0.0497  0.1793 -0.9194
16478TIP3   OH270924   2.848   5.266  11.095 -0.1655  0.2088 -0.1442
16478TIP3    H170925   2.860   5.187  11.043  0.0863  0.7480 -0.9312
16478TIP3    H270926   2.931   5.275  11.143 -0.0328  0.2107 -0.3680
16479TIP3   OH270927   3.031   3.417  14.089  0.1920 -0.0456  0.7021
16479TIP3    H170928   2.971   3.458  14.151  1.3083  1.2108  0.9817
16479TIP3    H270929   3.102   3.383  14.143  0.5953  0.0129  0.2081
16480TIP3   OH270930   6.395   4.413  13.161 -0.2493  0.3273 -0.3351
16480TIP3    H170931   6.462   4.472  13.128  1.8267 -0.7840  1.6199
16480TIP3    H270932   6.444   4.341  13.201 -2.6511 -1.6707 -0.7664
16481TIP3   OH270933   3.123   5.559  13.694 -0.5783 -0.1024 -0.1446
16481TIP3    H170934   3.131   5.511  13.776 -2.1396 -0.0093  0.1022
16481TIP3    H270935   3.173   5.508  13.631 -0.1510 -0.6946  0.6527
16482TIP3   OH270936   6.184   4.846   3.310  0.3152  0.6122 -0.0572
16482TIP3    H170937   6.251   4.912   3.322  0.3458  0.8578 -1.3426
16482TIP3    H270938   6.162   4.851   3.216 -0.4346 -0.4666  0.0340
16483TIP3   OH270939   3.781   3.942  11.082 -0.3864 -0.9105 -0.2520
16483TIP3    H170940   3.766   4.013  11.144 -0.0622 -2.4646  1.7081
16483TIP3    H270941   3.795   3.986  10.998 -2.9941  1.1957  0.2651
16484TIP3   OH270942   2.564   6.002  16.483  0.0650 -0.0619 -0.1328
16484TIP3    H170943   2.584   5.953  16.404 -1.2659 -0.1528 -0.4328
16484TIP3    H270944   2.593   5.945  16.555  4.0223  1.2052 -0.4833
16485TIP3   OH270945   4.231   2.407  13.042  0.5497  0.4638 -0.1828
16485TIP3    H170946   4.226   2.359  13.124 -0.2913  0.1022 -0.4337
16485TIP3    H270947   4.280   2.349  12.983 -0.8647 -0.3138 -0.6244
16486TIP3   OH270948   6.365   2.567  11.682 -0.3868 -0.3934  0.3243
16486TIP3    H170949   6.381   2.660  11.696 -0.8404 -0.2813  0.1181
16486TIP3    H270950   6.426   2.522  11.741 -1.5622  0.0492  1.9805
16487TIP3   OH270951   3.357   4.722  14.649  0.7147 -0.2406 -0.7250
16487TIP3    H170952   3.415   4.648  14.633  1.7060  0.7311 -1.7362
16487TIP3    H270953   3.326   4.709  14.739  1.8029 -1.2404 -0.4705
16488TIP3   OH270954   2.907   0.855   3.636 -0.4608 -0.2674  0.2286
16488TIP3    H170955   2.838   0.905   3.678 -0.0778  1.3480 -0.9852
16488TIP3    H270956   2.862   0.781   3.594 -1.1026 -0.6281  1.5106
16489TIP3   OH270957   3.704   2.647   3.727  0.3060 -0.2361 -0.7024
16489TIP3    H170958   3.633   2.696   3.685  0.8980  0.1623 -1.2829
16489TIP3    H270959   3.755   2.613   3.653  1.3822  0.4936 -0.3259
16490TIP3   OH270960   3.710   4.867  10.674  0.0810 -0.1404  0.3048
16490TIP3    H170961   3.792   4.896  10.636 -0.2169 -1.2887 -1.2962
16490TIP3    H270962   3.645   4.930  10.642 -0.1623 -1.0796 -1.1391
16491TIP3   OH270963   3.736   0.631   1.818 -0.3366 -0.2442 -0.3251
16491TIP3    H170964   3.654   0.669   1.848 -0.2347  0.8710 -1.4015
16491TIP3    H270965   3.758   0.679   1.739  1.8749  0.1822  0.4766
16492TIP3   OH270966   3.464   4.631   3.422 -0.4964 -0.1818 -0.5041
16492TIP3    H170967   3.488   4.603   3.510 -0.3457 -0.2778 -0.5770
16492TIP3    H270968   3.422   4.555   3.382  1.3515 -0.8325 -1.2662
16493TIP3   OH270969   5.712   1.551   4.697 -0.1101 -0.6264 -0.4842
16493TIP3    H170970   5.664   1.617   4.746 -0.0539  0.1972 -1.5053
16493TIP3    H270971   5.802   1.559   4.729 -0.2603 -0.7898 -0.0120
16494TIP3   OH270972   2.435   5.220  16.921 -0.1337  0.5020  0.1999
16494TIP3    H170973   2.430   5.191  17.012 -0.5435  1.3620  0.4652
16494TIP3    H270974   2.343   5.226  16.894 -0.0081 -1.8975 -1.0011
16495TIP3   OH270975   5.057   3.290  13.535 -0.4081 -0.0855  0.2999
16495TIP3    H170976   5.075   3.199  13.560  2.0254  0.1368 -0.3993
16495TIP3    H270977   5.108   3.342  13.596 -2.3272  0.9225  1.1440
16496TIP3   OH270978   1.236   5.107  13.270 -0.0491  0.4756 -0.0152
16496TIP3    H170979   1.311   5.047  13.274  0.0701  0.5573 -0.8133
16496TIP3    H270980   1.166   5.054  13.231  0.2058  0.9796 -1.2189
16497TIP3   OH270981   4.738   2.650  11.132 -0.1778 -0.4835 -0.0301
16497TIP3    H170982   4.827   2.629  11.102 -0.4364  0.5620 -1.6263
16497TIP3    H270983   4.684   2.646  11.053 -2.1779 -3.7795  1.2548
16498TIP3   OH270984   1.325   5.176  15.997 -0.1592  0.3658 -0.0027
16498TIP3    H170985   1.240   5.221  16.003 -0.0024  0.8693 -1.1601
16498TIP3    H270986   1.335   5.158  15.903  0.4484 -0.8133  0.2719
16499TIP3   OH270987   2.878   1.450   3.438  0.4359  0.1089 -0.1859
16499TIP3    H170988   2.858   1.379   3.377  0.0648  0.3309 -0.3222
16499TIP3    H270989   2.792   1.482   3.467  0.5895  0.9332 -0.6218
16500TIP3   OH270990   2.519   0.160   0.345 -0.4140 -0.0186 -0.4665
16500TIP3    H170991   2.561   0.134   0.427  0.3625  1.4778 -0.3663
16500TIP3    H270992   2.439   0.108   0.343 -0.1586 -0.5334  0.9412
16501TIP3   OH270993   5.471   5.662   5.633 -0.2599 -0.6113 -0.1362
16501TIP3    H170994   5.531   5.640   5.562 -0.2539 -2.6721  0.4443
16501TIP3    H270995   5.528   5.686   5.706 -0.2012 -0.5639 -0.1983
16502TIP3   OH270996   5.891   2.365   5.598  0.3745  0.3016  0.3458
16502TIP3    H170997   5.957   2.434   5.588  2.1867 -1.3024  0.5546
16502TIP3    H270998   5.902   2.334   5.688 -1.6813  0.8927  0.8676
16503TIP3   OH270999   0.319   2.402   5.727  0.2988  0.4534 -0.3173
16503TIP3    H171000   0.352   2.427   5.813  0.7334 -1.0971 -0.0027
16503TIP3    H271001   0.249   2.339   5.745  0.2821  0.2306 -1.0947
16504TIP3   OH271002   3.576   0.601   5.993  0.5434 -0.7145  0.8799
16504TIP3    H171003   3.613   0.558   6.070 -0.1186 -1.8546  0.5794
16504TIP3    H271004   3.482   0.607   6.012  0.5201 -0.0321  0.6051
16505TIP3   OH271005   3.987   0.059  15.359 -0.0424 -0.2768  0.6598
16505TIP3    H171006   4.018   0.145  15.387 -0.6506  0.1356  0.1248
16505TIP3    H271007   3.907   0.045  15.409 -0.1723 -0.3358  0.4397
16506TIP3   OH271008   0.904   4.825   4.971  0.5990  0.2156 -0.6089
16506TIP3    H171009   0.832   4.882   4.995  0.0895 -0.3264 -0.8302
16506TIP3    H271010   0.980   4.883   4.965  0.5190  0.5477  1.1775
16507TIP3   OH271011   0.714   5.199  17.184 -0.2248 -0.0499  0.7203
16507TIP3    H171012   0.781   5.203  17.251 -0.9986 -0.0785  1.5118
16507TIP3    H271013   0.647   5.141  17.219 -1.1333  0.7571  0.3900
16508TIP3   OH271014   2.628   0.117   5.359 -0.0005  0.3366 -0.4992
16508TIP3    H171015   2.620   0.071   5.276  2.0308  0.2015 -0.6691
16508TIP3    H271016   2.646   0.048   5.423 -1.2188  0.4736  0.0168
16509TIP3   OH271017   5.334   6.069  16.737  0.7807 -0.8255 -0.2398
16509TIP3    H171018   5.328   6.164  16.747 -0.2312 -1.0694  2.1021
16509TIP3    H271019   5.248   6.042  16.705  1.1640 -0.9359 -1.1959
16510TIP3   OH271020   3.519   6.326   1.792 -0.0192 -0.5303 -0.4478
16510TIP3    H171021   3.506   6.294   1.881  1.3800  0.3313  0.1081
16510TIP3    H271022   3.497   6.419   1.797  0.6406 -0.3471 -0.8589
16511TIP3   OH271023   6.357   4.754  11.826  0.0688 -0.5716  0.5641
16511TIP3    H171024   6.433   4.720  11.874  0.7464 -0.1231 -0.1576
16511TIP3    H271025   6.395   4.811  11.758 -0.9574  0.3711  0.7526
16512TIP3   OH271026   5.767   0.636  15.417 -0.7615 -0.4887  0.5898
16512TIP3    H171027   5.693   0.585  15.451  0.5706 -2.2495  1.0093
16512TIP3    H271028   5.840   0.612  15.474  1.0030 -1.7110 -2.0113
16513TIP3   OH271029   5.659   4.986  14.964  0.4674  0.1866 -0.8089
16513TIP3    H171030   5.666   4.931  15.041  0.5838 -0.1459 -1.0558
16513TIP3    H271031   5.569   5.018  14.964 -0.6303 -2.6051 -2.4249
16514TIP3   OH271032   4.368   4.465   5.358  0.7431  1.0001  0.0623
16514TIP3    H171033   4.370   4.500   5.447 -0.3461  0.2850  0.3911
16514TIP3    H271034   4.277   4.439   5.345  1.1950 -0.2890 -0.7124
16515TIP3   OH271035   0.476   0.588  15.713  0.1053 -0.3382  0.5185
16515TIP3    H171036   0.535   0.520  15.746 -0.6109 -1.6607 -0.7826
16515TIP3    H271037   0.404   0.539  15.673 -0.2330  1.1877 -0.8376
16516TIP3   OH271038   5.351   1.298   0.333 -0.4662  0.3544  0.2569
16516TIP3    H171039   5.374   1.387   0.306 -2.0463  0.3352 -1.3929
16516TIP3    H271040   5.383   1.243   0.262 -0.9720 -0.2022  0.4561
16517TIP3   OH271041   2.754   1.174  17.210  0.0855 -0.3716  0.1569
16517TIP3    H171042   2.850   1.177  17.202  0.1341 -0.4857  0.6928
16517TIP3    H271043   2.732   1.246  17.268 -0.3756  1.1294 -1.7792
16518TIP3   OH271044   5.329   5.692   3.708  0.2320 -0.1178 -0.1367
16518TIP3    H171045   5.346   5.601   3.684 -0.1332 -0.9283  2.3612
16518TIP3    H271046   5.409   5.721   3.752 -0.2514  0.1796  0.5735
16519TIP3   OH271047   1.608   1.641   0.445 -0.1744 -0.3251  0.3540
16519TIP3    H171048   1.619   1.586   0.367 -0.2716  1.9773 -1.3703
16519TIP3    H271049   1.697   1.672   0.465 -0.2176 -0.5348  0.8854
16520TIP3   OH271050   6.357   1.395   6.036  0.8628  0.1584  0.3092
16520TIP3    H171051   6.419   1.391   6.109  1.0637 -0.2109  0.1221
16520TIP3    H271052   6.327   1.486   6.035  0.5033  0.0618  1.1460
16521TIP3   OH271053   1.030   1.499  13.053  0.0242  0.1479 -0.0062
16521TIP3    H171054   0.994   1.462  12.972  0.2943 -0.6159  0.2141
16521TIP3    H271055   1.089   1.568  13.023 -0.5988  0.5042 -0.4213
16522TIP3   OH271056   4.230   4.894  12.116  0.0525 -0.2568  0.3709
16522TIP3    H171057   4.278   4.861  12.192  0.5550 -0.5173 -0.0468
16522TIP3    H271058   4.177   4.819  12.087 -1.3103  0.2845  1.3525
16523TIP3   OH271059   3.870   2.081  16.456  0.1527 -0.1617  0.0357
16523TIP3    H171060   3.804   2.064  16.389 -0.6656 -0.8434  0.9628
16523TIP3    H271061   3.818   2.098  16.536  1.0916  0.4008  0.5444
16524TIP3   OH271062   0.742   4.980   2.893  0.1397 -0.5138  0.2022
16524TIP3    H171063   0.767   4.891   2.868  0.2289 -0.4502  0.0636
16524TIP3    H271064   0.817   5.013   2.943  1.2473  0.4064 -1.9358
16525TIP3   OH271065   5.114   6.628  16.088  0.8079  0.5169  0.4016
16525TIP3    H171066   5.183   6.590  16.035 -0.0599  0.4060 -0.6887
16525TIP3    H271067   5.059   6.554  16.114  0.9160  0.6394  0.9962
16526TIP3   OH271068   5.017   0.543  14.932  0.2262 -0.0408 -0.2537
16526TIP3    H171069   4.943   0.512  14.984 -0.1655 -0.0843 -0.8226
16526TIP3    H271070   5.003   0.637  14.923 -0.4829 -0.2401 -1.4573
16527TIP3   OH271071   5.452   5.660  16.592 -0.0854 -0.0849 -0.2160
16527TIP3    H171072   5.432   5.642  16.684 -0.8764  1.6765 -0.0048
16527TIP3    H271073   5.501   5.742  16.594  1.9081 -1.1905 -1.2271
16528TIP3   OH271074   2.123   1.802   5.171 -0.1202  0.2926 -0.1994
16528TIP3    H171075   2.112   1.844   5.086 -1.0545  0.0113 -0.2281
16528TIP3    H271076   2.125   1.875   5.234 -1.7579  0.4170 -0.2442
16529TIP3   OH271077   5.239   6.802   3.935 -0.0545  0.0618  0.0103
16529TIP3    H171078   5.257   6.748   3.858  1.7592 -0.6385  0.8771
16529TIP3    H271079   5.245   6.892   3.902  0.7191 -0.2218 -0.6645
16530TIP3   OH271080   4.577   1.666   3.883 -0.0967 -0.5462  0.2489
16530TIP3    H171081   4.673   1.660   3.877 -0.2028 -1.7102 -0.5840
16530TIP3    H271082   4.560   1.673   3.977  0.7691 -1.1152  0.4637
16531TIP3   OH271083   4.961   6.351  10.527 -0.1811  0.0372 -0.1288
16531TIP3    H171084   4.950   6.361  10.432  0.8627 -1.3369 -0.4154
16531TIP3    H271085   4.877   6.317  10.557 -0.4650  0.3186 -0.5809
16532TIP3   OH271086   2.185   5.195   4.915  0.6412 -0.2659  0.2065
16532TIP3    H171087   2.114   5.133   4.927 -0.6608  1.2767  0.7793
16532TIP3    H271088   2.259   5.142   4.886 -1.2940 -1.6500 -2.5112
16533TIP3   OH271089   2.024   0.883   6.152  0.2901  0.2247 -0.7771
16533TIP3    H171090   1.979   0.913   6.230 -0.2802  3.1973 -2.1278
16533TIP3    H271091   1.972   0.809   6.121  0.1142 -0.5170  1.1880
16534TIP3   OH271092   2.512   4.285  16.365 -0.4456 -0.1519 -0.2108
16534TIP3    H171093   2.524   4.369  16.410  1.9054 -1.3620  1.6834
16534TIP3    H271094   2.549   4.300  16.278 -0.1440  0.8289  0.0668
16535TIP3   OH271095   3.982   0.508   4.547 -0.0771 -0.3777  0.3262
16535TIP3    H171096   3.972   0.567   4.472  2.4490 -0.5517 -0.2422
16535TIP3    H271097   3.894   0.502   4.584 -0.6418  2.9791 -0.1221
16536TIP3   OH271098   3.252   4.255  11.367 -0.2040 -0.1656 -0.6973
16536TIP3    H171099   3.211   4.341  11.353  0.5493  0.1836 -0.7933
16536TIP3    H271100   3.325   4.272  11.426 -0.2202 -0.7957 -0.4832
16537TIP3   OH271101   5.130   3.544  15.603  0.3309  0.0706  0.2723
16537TIP3    H171102   5.145   3.484  15.676 -0.5202 -0.9931 -0.3990
16537TIP3    H271103   5.061   3.603  15.634  1.1821  0.7337  0.9396
16538TIP3   OH271104   4.986   0.756  16.938  0.5190  0.1200 -0.1887
16538TIP3    H171105   5.007   0.774  17.030  2.2801 -1.0500 -0.3194
16538TIP3    H271106   4.903   0.709  16.941 -0.0083  1.0540  0.6964
16539TIP3   OH271107   6.548   1.599  13.120 -0.3696  0.0179 -0.5626
16539TIP3    H171108   6.604   1.548  13.178 -2.1760 -0.7008  0.6263
16539TIP3    H271109   6.584   1.584  13.033  1.2861 -0.3770  0.1467
16540TIP3   OH271110   0.714   0.327  13.207 -0.1120 -0.3628 -0.1493
16540TIP3    H171111   0.744   0.340  13.297  0.0912 -1.2811 -0.0779
16540TIP3    H271112   0.618   0.337  13.212  0.0540  1.6884 -0.2228
16541TIP3   OH271113   4.038   2.916  14.664 -0.3216  0.3377  0.4899
16541TIP3    H171114   4.057   2.996  14.615  2.4649 -0.5781 -0.1243
16541TIP3    H271115   4.094   2.921  14.741 -3.2972  0.8908  2.8122
16542TIP3   OH271116   4.138   1.700  17.123 -0.5651  0.3628 -0.3560
16542TIP3    H171117   4.127   1.716  17.216 -0.4591 -1.5608  0.0305
16542TIP3    H271118   4.189   1.775  17.091 -1.4470  1.5435  0.8975
16543TIP3   OH271119   3.277   1.720   1.902  0.1020  0.1473  0.5432
16543TIP3    H171120   3.295   1.763   1.819 -0.0170  0.1972  0.5434
16543TIP3    H271121   3.325   1.637   1.897 -0.1867 -0.0054  0.2825
16544TIP3   OH271122   3.158   3.321  10.406 -0.6469  0.3212  0.4436
16544TIP3    H171123   3.204   3.262  10.465  0.1467  0.7853  0.3083
16544TIP3    H271124   3.071   3.331  10.444 -0.3295  0.1604  1.2152
16545TIP3   OH271125   6.393   2.934   1.485 -0.3750 -0.0039  0.1125
16545TIP3    H171126   6.349   3.015   1.460 -2.5613 -0.7316  1.3593
16545TIP3    H271127   6.408   2.889   1.402 -3.8860 -0.6091 -0.3244
16546TIP3   OH271128   6.055   4.789  10.804 -0.4779  0.8158  0.0085
16546TIP3    H171129   5.990   4.812  10.871  1.0079  2.4205  0.9959
16546TIP3    H271130   6.004   4.752  10.732 -2.0718 -1.9008  2.3416
16547TIP3   OH271131   3.280   0.480  17.220 -0.0969  0.0273 -0.0318
16547TIP3    H171132   3.321   0.526  17.147 -0.1283  1.3443  0.7477
16547TIP3    H271133   3.200   0.530  17.238 -0.9944 -1.2907 -0.1961
16548TIP3   OH271134   3.883   5.439   5.539  0.0463 -0.1325  0.0031
16548TIP3    H171135   3.807   5.485   5.573 -0.2749 -0.2427 -0.5616
16548TIP3    H271136   3.948   5.446   5.609 -0.8506 -1.0115  0.9557
16549TIP3   OH271137   1.295   3.642   0.936 -1.1583 -0.6076  0.3834
16549TIP3    H171138   1.350   3.564   0.934 -2.1778 -1.3404  0.1920
16549TIP3    H271139   1.353   3.711   0.969  0.0698 -1.1778 -0.5064
16550TIP3   OH271140   2.997   3.031   3.119 -0.0254 -0.0680 -0.6303
16550TIP3    H171141   3.005   3.003   3.210  0.8223 -0.9494 -0.9576
16550TIP3    H271142   2.904   3.049   3.108  0.0792  1.6154  0.8380
16551TIP3   OH271143   5.777   5.402  13.789  0.5557  0.2600 -0.5287
16551TIP3    H171144   5.857   5.398  13.737  2.1176 -0.4301  1.7608
16551TIP3    H271145   5.730   5.321  13.769  0.4237  0.6424 -1.8348
16552TIP3   OH271146   2.556   4.404  10.981  0.0677  0.6037 -0.2316
16552TIP3    H171147   2.471   4.383  11.020 -0.8309  1.1531 -1.7991
16552TIP3    H271148   2.559   4.353  10.900  0.8446  1.2686 -0.6416
16553TIP3   OH271149   0.421   6.157  11.422  0.0711  0.2982  0.3693
16553TIP3    H171150   0.447   6.066  11.434 -0.9175 -0.7806 -4.0939
16553TIP3    H271151   0.334   6.163  11.462 -0.4902 -1.1733 -0.5843
16554TIP3   OH271152   2.426   1.664   2.304  0.1483 -0.5086 -0.4597
16554TIP3    H171153   2.365   1.738   2.299  0.4862 -0.2134 -0.3386
16554TIP3    H271154   2.512   1.704   2.293  0.3615 -0.8400 -0.0575
16555TIP3   OH271155   5.201   2.597  12.215 -0.4029 -0.1640 -0.3466
16555TIP3    H171156   5.223   2.511  12.179  0.3720  0.4038 -1.2802
16555TIP3    H271157   5.246   2.601  12.299 -1.4424 -1.1306  0.2974
16556TIP3   OH271158   6.530   0.848   3.292  0.3258 -0.5980  0.3740
16556TIP3    H171159   6.573   0.784   3.235 -0.0451  0.0060 -0.6063
16556TIP3    H271160   6.502   0.918   3.233 -0.2023 -0.0232  1.2819
16557TIP3   OH271161   2.775   0.445  11.479  0.2580  0.1677 -0.5509
16557TIP3    H171162   2.805   0.519  11.531 -1.4546  0.5239 -0.0291
16557TIP3    H271163   2.775   0.477  11.389 -1.0025  0.9975 -0.2673
16558TIP3   OH271164   2.266   1.613  12.111 -0.6638  0.1608 -0.5409
16558TIP3    H171165   2.313   1.680  12.062  0.8710 -0.5584 -0.0940
16558TIP3    H271166   2.209   1.571  12.045 -0.4546  0.8279 -1.1586
16559TIP3   OH271167   3.101   1.845   3.610  0.0925  0.1367 -0.0752
16559TIP3    H171168   3.018   1.893   3.612  0.8842  1.5489  0.3993
16559TIP3    H271169   3.078   1.758   3.578 -1.5650  0.5053  0.0333
16560TIP3   OH271170   1.591   2.195  16.583 -0.1059 -0.0871 -0.2600
16560TIP3    H171171   1.611   2.195  16.489  1.7296  0.0624  0.1116
16560TIP3    H271172   1.516   2.255  16.591 -2.8866 -2.9641 -2.0757
16561TIP3   OH271173   2.676   4.405  14.381  0.0879  0.0510 -0.3558
16561TIP3    H171174   2.658   4.323  14.334 -3.0314  0.9045 -0.9209
16561TIP3    H271175   2.620   4.400  14.459 -3.3747  3.0928 -2.3329
16562TIP3   OH271176   2.809   4.970  15.334 -0.7035  0.0826  0.0367
16562TIP3    H171177   2.736   4.954  15.274 -0.0870  2.1809 -1.3622
16562TIP3    H271178   2.877   4.908  15.305 -0.4861  0.9351 -1.3385
16563TIP3   OH271179   0.112   2.454  12.846 -0.6810 -0.1985 -0.2491
16563TIP3    H171180   0.192   2.403  12.833 -0.2851 -0.1362  1.6834
16563TIP3    H271181   0.049   2.416  12.784 -0.0346 -2.2357  0.2795
16564TIP3   OH271182   0.804   6.670  15.834 -0.2601 -0.3885 -0.4425
16564TIP3    H171183   0.749   6.653  15.910  0.1430  0.8926  0.1681
16564TIP3    H271184   0.773   6.754  15.800  0.7507 -0.0608 -0.5901
16565TIP3   OH271185   6.577   5.127   2.466 -0.5788  0.2420  0.3596
16565TIP3    H171186   6.509   5.126   2.398 -1.2983  1.6814  1.0002
16565TIP3    H271187   6.562   5.047   2.515 -1.5484  0.3031  0.1989
16566TIP3   OH271188   3.374   1.000   3.043 -0.4128  0.0534  0.5050
16566TIP3    H171189   3.311   0.962   2.982  0.3391  0.2479 -0.4173
16566TIP3    H271190   3.325   1.010   3.125 -1.5873  0.2261 -0.1902
16567TIP3   OH271191   2.062   2.139  17.131 -0.0838  0.2228  0.0458
16567TIP3    H171192   2.010   2.145  17.051 -1.1775 -0.8145  0.6497
16567TIP3    H271193   2.146   2.103  17.101  0.0996  1.3536 -0.8509
16568TIP3   OH271194   4.958   4.276   1.826 -0.1744  0.6516  0.2423
16568TIP3    H171195   4.978   4.368   1.806 -1.8774  1.1987  0.9308
16568TIP3    H271196   5.032   4.248   1.881 -0.0742  1.8950  0.7959
16569TIP3   OH271197   4.240   3.942   2.954  0.2117  0.1768  0.4073
16569TIP3    H171198   4.188   3.891   2.892  1.2362  0.1964 -0.4901
16569TIP3    H271199   4.198   3.927   3.039 -0.9846 -0.1474 -0.2295
16570TIP3   OH271200   2.503   2.200  15.568  0.5674 -0.0581  0.1451
16570TIP3    H171201   2.469   2.260  15.635  1.1786  0.7735 -0.2663
16570TIP3    H271202   2.463   2.231  15.486 -0.4846 -1.3047  0.1496
16571TIP3   OH271203   0.830   2.588  13.748  0.3266  0.5863  0.2167
16571TIP3    H171204   0.861   2.500  13.771  0.9608  0.9262  0.7044
16571TIP3    H271205   0.846   2.596  13.654 -2.0387 -0.7290 -0.3628
16572TIP3   OH271206   2.799   1.195  16.498 -0.0061 -0.6367 -0.0744
16572TIP3    H171207   2.851   1.196  16.418  0.4225 -1.1635  0.1881
16572TIP3    H271208   2.844   1.255  16.557 -0.4493 -0.0755 -0.3048
16573TIP3   OH271209   6.801   1.147   6.360 -0.4906 -0.5119 -0.6811
16573TIP3    H171210   6.847   1.200   6.296  0.1753  0.4049  0.5130
16573TIP3    H271211   6.853   1.066   6.366  0.3035  0.0186 -0.2282
16574TIP3   OH271212   0.990   5.736   0.909 -0.6239 -0.5513  0.0449
16574TIP3    H171213   1.084   5.726   0.892 -0.3977 -0.5983  1.2347
16574TIP3    H271214   0.948   5.713   0.826  0.3812 -1.3283 -0.2654
16575TIP3   OH271215   4.789   0.170   1.078  0.3247 -0.1228  0.3185
16575TIP3    H171216   4.809   0.263   1.070  2.0232 -0.5209 -0.4534
16575TIP3    H271217   4.862   0.134   1.128 -0.6416 -0.9512  1.1921
16576TIP3   OH271218   2.850   2.872   5.900 -0.7023  0.0037 -0.7594
16576TIP3    H171219   2.785   2.916   5.954  0.6678  0.9943  0.1513
16576TIP3    H271220   2.848   2.918   5.816 -1.6562 -0.4490 -1.0016
16577TIP3   OH271221   3.419   6.312  15.472  0.8709  0.4883  0.1731
16577TIP3    H171222   3.449   6.328  15.383 -2.8984 -0.2515 -1.4485
16577TIP3    H271223   3.369   6.230  15.466  2.9703 -1.2875  3.7192
16578TIP3   OH271224   0.264   4.865  16.116 -0.1249  0.2386 -0.3226
16578TIP3    H171225   0.196   4.823  16.063  1.4696  2.0245 -4.1190
16578TIP3    H271226   0.345   4.820  16.092  0.6754  1.0513  0.7282
16579TIP3   OH271227   3.169   4.009   5.842 -0.4236 -0.6861 -0.2246
16579TIP3    H171228   3.160   3.978   5.932 -0.9327 -0.0155 -0.0378
16579TIP3    H271229   3.216   3.939   5.797 -1.3781 -1.6385  0.2233
16580TIP3   OH271230   3.363   5.377   2.787  0.3248  0.4339  0.5759
16580TIP3    H171231   3.289   5.335   2.831  0.0675  2.3492  2.1265
16580TIP3    H271232   3.397   5.439   2.851  2.2098  0.8228 -0.7243
16581TIP3   OH271233   5.534   0.269  16.353  0.1196  0.0851 -0.5753
16581TIP3    H171234   5.514   0.220  16.274 -2.1673  0.5407 -0.3364
16581TIP3    H271235   5.495   0.355  16.339  0.1114  0.3405  0.8351
16582TIP3   OH271236   2.906   5.111   5.859  0.1086  0.6949 -1.3394
16582TIP3    H171237   2.913   5.179   5.791 -0.1178 -0.3950 -2.5025
16582TIP3    H271238   2.812   5.096   5.868  0.0555  1.7653  0.2219
16583TIP3   OH271239   3.404   3.335   5.895 -0.4307  0.0535  0.3621
16583TIP3    H171240   3.469   3.296   5.837 -1.1280 -1.5528  0.6028
16583TIP3    H271241   3.328   3.352   5.839 -0.1444  1.1129  0.2624
16584TIP3   OH271242   4.927   2.748  16.331 -0.0851 -0.1412 -0.2521
16584TIP3    H171243   4.918   2.835  16.370 -0.1034  0.6279 -1.8804
16584TIP3    H271244   4.929   2.688  16.405  0.3061  1.2812  0.9266
16585TIP3   OH271245   5.051   5.705  12.696 -0.0052  0.2423  0.1872
16585TIP3    H171246   5.126   5.764  12.686 -0.0735  0.1753 -0.8851
16585TIP3    H271247   4.981   5.749  12.648 -0.7258  0.4137  1.3649
16586TIP3   OH271248   5.250   2.272  11.819  0.1154  0.3354  0.2380
16586TIP3    H171249   5.182   2.243  11.758 -0.7153 -1.2287  1.8006
16586TIP3    H271250   5.331   2.234  11.785 -0.0714  0.7228 -0.6665
16587TIP3   OH271251   2.244   1.118   0.718  0.1838  0.3920 -0.5451
16587TIP3    H171252   2.203   1.056   0.779  0.6141  0.1343 -0.5077
16587TIP3    H271253   2.334   1.126   0.750  0.8330 -0.8233 -1.9282
16588TIP3   OH271254   0.044   6.087   2.282 -0.0154  0.3221  0.3965
16588TIP3    H171255   0.093   6.089   2.364 -1.1796  1.2650  1.1018
16588TIP3    H271256  -0.046   6.067   2.308 -0.5844  1.5439 -0.5451
16589TIP3   OH271257   1.213   0.463   0.459 -0.3944  0.1360  0.3839
16589TIP3    H171258   1.125   0.439   0.486 -0.5991  0.1159 -0.2859
16589TIP3    H271259   1.232   0.407   0.384 -0.1169  0.6828  0.0334
16590TIP3   OH271260   5.739   6.369  16.481 -0.3945 -0.2023  0.0605
16590TIP3    H171261   5.774   6.450  16.444  1.2980 -1.3631 -1.0435
16590TIP3    H271262   5.787   6.357  16.563 -0.3907 -0.2635  0.0499
16591TIP3   OH271263   0.919   5.593  15.973 -0.4117  0.4336  0.5607
16591TIP3    H171264   0.861   5.523  15.945 -0.1927  0.8511 -0.9963
16591TIP3    H271265   0.954   5.630  15.892  2.7250 -0.3708  1.3943
16592TIP3   OH271266   4.988   6.041   1.848 -0.4367  0.2274 -0.1623
16592TIP3    H171267   5.039   6.089   1.782 -0.7388 -0.8861 -1.2273
16592TIP3    H271268   4.998   6.094   1.928  0.0875  1.5052 -1.0327
16593TIP3   OH271269   2.405   4.756   5.625  0.3657 -0.6928 -0.6285
16593TIP3    H171270   2.366   4.717   5.547  1.2383  1.3930 -2.2024
16593TIP3    H271271   2.476   4.697   5.649  1.3914 -0.3908 -2.6874
16594TIP3   OH271272   5.137   6.437  13.550  0.5594 -0.3743 -0.0812
16594TIP3    H171273   5.085   6.378  13.604 -0.7357 -1.2111 -2.1213
16594TIP3    H271274   5.195   6.379  13.500  0.8248  0.2677 -0.5352
16595TIP3   OH271275   4.844   5.746   3.811  0.2367  0.0768  0.1110
16595TIP3    H171276   4.803   5.669   3.851 -0.4009  0.1676 -0.3438
16595TIP3    H271277   4.915   5.770   3.871 -0.9926  0.5113  1.4638
16596TIP3   OH271278   2.133   1.068   1.936  0.2858 -0.1473 -0.4810
16596TIP3    H171279   2.090   1.140   1.982 -1.8780 -1.1130 -0.8551
16596TIP3    H271280   2.129   0.995   1.997 -3.3004 -1.6649 -2.2718
16597TIP3   OH271281   2.440   2.478   0.250  0.4417 -0.8852  0.5883
16597TIP3    H171282   2.424   2.398   0.300  0.8836 -0.9319  0.6519
16597TIP3    H271283   2.534   2.481   0.237  0.5998  0.3418  1.7955
16598TIP3   OH271284   3.159   2.903   2.153  0.0644  0.6850 -0.2626
16598TIP3    H171285   3.120   2.988   2.133 -0.6864  0.1508 -1.1260
16598TIP3    H271286   3.138   2.888   2.246 -2.7391 -0.0449 -0.9194
16599TIP3   OH271287   4.628   6.649  14.514  0.1902  0.4408  0.3934
16599TIP3    H171288   4.571   6.607  14.450  0.0541 -0.1223  0.8743
16599TIP3    H271289   4.717   6.636  14.480  0.3222 -1.9239  1.4401
16600TIP3   OH271290   6.362   1.900   4.905 -0.8418 -0.2443 -0.1484
16600TIP3    H171291   6.376   1.886   4.999  0.0224  0.6387 -0.1255
16600TIP3    H271292   6.402   1.823   4.863 -1.4845 -0.7839  0.2027
16601TIP3   OH271293   6.792   1.848  11.106 -0.4538 -0.1583 -0.2929
16601TIP3    H171294   6.723   1.914  11.094  0.2438  0.4384 -1.1090
16601TIP3    H271295   6.806   1.811  11.018  0.8294  0.3016 -0.2978
16602TIP3   OH271296   3.691   2.040  16.240  0.2263 -0.6907  0.0950
16602TIP3    H171297   3.643   2.043  16.157 -1.0285  0.6152  0.8308
16602TIP3    H271298   3.716   1.947  16.250 -2.5176 -1.5354 -0.1533
16603TIP3   OH271299   5.901   4.410  14.554 -0.5022 -0.1933  0.2798
16603TIP3    H171300   5.969   4.342  14.563 -0.9364 -0.8944 -1.3380
16603TIP3    H271301   5.819   4.361  14.546 -0.8613  0.5110 -0.5932
16604TIP3   OH271302   3.574   2.426   6.093 -0.3874 -0.1462  0.7622
16604TIP3    H171303   3.581   2.373   6.013 -2.0066 -0.4818  0.8153
16604TIP3    H271304   3.489   2.402   6.130  0.4582 -0.2055  2.7562
16605TIP3   OH271305   1.354   4.959  12.624  0.3673  1.0634  0.1957
16605TIP3    H171306   1.265   4.930  12.639  1.8247 -3.1380  2.2352
16605TIP3    H271307   1.387   4.901  12.555  1.3181  3.2079 -1.2618
16606TIP3   OH271308   5.376   4.899   6.509 -0.3900 -0.0831  0.0092
16606TIP3    H171309   5.468   4.920   6.520 -0.4902  0.3380  0.0443
16606TIP3    H271310   5.343   4.888   6.599 -0.2346 -0.8553 -0.0200
16607TIP3   OH271311   4.152   3.816   1.003  0.0388 -0.2963  1.1059
16607TIP3    H171312   4.130   3.794   0.913  0.3290  1.3402  0.6056
16607TIP3    H271313   4.246   3.800   1.010 -0.2261 -1.8168  1.5752
16608TIP3   OH271314   5.483   1.714   1.055  0.6362  0.7267  0.1763
16608TIP3    H171315   5.436   1.668   0.985  1.3561 -0.4755  0.4392
16608TIP3    H271316   5.435   1.796   1.067 -0.4883  0.2044 -0.5676
16609TIP3   OH271317   4.329   1.341  14.538  0.4612  0.1464  0.6516
16609TIP3    H171318   4.311   1.285  14.462  0.5931  1.1749 -0.1664
16609TIP3    H271319   4.416   1.313  14.568 -0.0636 -1.0341  1.1486
16610TIP3   OH271320   5.008   2.402   6.910  0.1568  0.0135  0.0555
16610TIP3    H171321   5.046   2.424   6.995  1.0684  1.1299 -0.6116
16610TIP3    H271322   4.934   2.345   6.931  0.1213  0.5841  1.6195
16611TIP3   OH271323   2.140   5.703   6.576  0.5404 -0.3993  0.0226
16611TIP3    H171324   2.070   5.749   6.530 -0.6813  0.6709  2.7484
16611TIP3    H271325   2.214   5.764   6.574  0.4269 -0.2731 -0.3515
16612TIP3   OH271326   2.544   4.351   4.057 -0.0506  0.0857  0.2302
16612TIP3    H171327   2.475   4.416   4.076  1.1632  1.3293  0.5516
16612TIP3    H271328   2.595   4.391   3.987  0.7740 -0.4749  0.4978
16613TIP3   OH271329   5.087   2.118   1.792 -0.2227 -0.1840 -0.3060
16613TIP3    H171330   5.174   2.107   1.830  0.4401 -2.2307 -2.1994
16613TIP3    H271331   5.097   2.191   1.730 -0.5893  1.2796  1.2712
16614TIP3   OH271332   4.217   5.907   5.068  0.1676  0.5996 -0.0952
16614TIP3    H171333   4.187   5.957   5.145 -1.6692 -0.0311 -0.3449
16614TIP3    H271334   4.139   5.860   5.039  1.5652 -1.5410 -0.5477
16615TIP3   OH271335   2.596   2.106   6.156 -0.2863 -0.2830  0.0326
16615TIP3    H171336   2.553   2.180   6.115 -1.1221 -0.3048  0.8346
16615TIP3    H271337   2.672   2.143   6.201  2.2249 -0.5624 -3.5457
16616TIP3   OH271338   3.903   5.147  17.208  0.0296  0.0101 -0.1992
16616TIP3    H171339   3.910   5.181  17.297  2.3548  0.6138 -0.5343
16616TIP3    H271340   3.816   5.174  17.178  0.1954  2.0476  1.0047
16617TIP3   OH271341   4.115   0.195   2.058 -0.4362 -0.4324 -0.0745
16617TIP3    H171342   4.060   0.142   2.000  1.7718 -0.0162 -2.7317
16617TIP3    H271343   4.190   0.140   2.077  0.3880  0.5780 -0.2913
16618TIP3   OH271344   6.165   6.646  13.205 -0.3471 -0.0079 -0.1418
16618TIP3    H171345   6.157   6.685  13.292  1.7682 -0.6574  0.4019
16618TIP3    H271346   6.087   6.591  13.197 -0.2501 -0.4786  1.6402
16619TIP3   OH271347   2.425   3.058  11.061 -0.1129  0.3079  0.1140
16619TIP3    H171348   2.409   3.084  10.970  2.1362  1.1551 -0.0968
16619TIP3    H271349   2.505   3.005  11.057 -0.4720 -0.3694  1.5043
16620TIP3   OH271350   4.936   3.202  12.407  0.2553  0.1107  0.3142
16620TIP3    H171351   4.888   3.170  12.484 -0.8995  0.1763 -0.3641
16620TIP3    H271352   4.948   3.124  12.352 -1.0269  0.4805 -0.5295
16621TIP3   OH271353   0.134   0.153  16.052 -0.1834  0.4100  0.4323
16621TIP3    H171354   0.054   0.182  16.008 -0.6462 -1.9217 -0.4601
16621TIP3    H271355   0.114   0.064  16.081  2.2760 -0.5028 -0.3885
16622TIP3   OH271356   0.209   4.102  13.168 -0.3012 -0.1431 -0.2406
16622TIP3    H171357   0.286   4.062  13.127 -0.0897  1.5670 -1.6225
16622TIP3    H271358   0.241   4.134  13.253 -0.8222 -4.0207  1.6090
16623TIP3   OH271359   0.712   1.600  11.737 -0.0549  0.1630 -0.2446
16623TIP3    H171360   0.632   1.585  11.687 -0.1279 -2.9040  0.5813
16623TIP3    H271361   0.774   1.636  11.674 -1.9348  2.4886 -0.9420
16624TIP3   OH271362   2.136   4.390   1.769 -0.1233  0.3965 -0.2409
16624TIP3    H171363   2.193   4.399   1.693 -1.0878 -0.9705 -1.1644
16624TIP3    H271364   2.083   4.470   1.769  1.5962  1.5969  0.5252
16625TIP3   OH271365   6.664   2.740   1.893  0.5667  0.1074  0.2267
16625TIP3    H171366   6.638   2.816   1.840 -0.1994 -0.2996 -0.0050
16625TIP3    H271367   6.698   2.677   1.830 -1.0708 -0.6894  0.0652
16626TIP3   OH271368   6.603   0.285   2.300  0.2200 -0.1508  0.0004
16626TIP3    H171369   6.674   0.221   2.294  0.1166 -0.3245  0.6002
16626TIP3    H271370   6.575   0.297   2.209 -0.8179 -2.1379 -0.0040
16627TIP3   OH271371   2.625   1.660   6.128 -0.0217 -0.3120  0.0615
16627TIP3    H171372   2.652   1.653   6.220  1.9018  2.4926 -0.1624
16627TIP3    H271373   2.641   1.573   6.091  3.5308 -0.3734  1.3785
16628TIP3   OH271374   2.546   1.887   3.154 -0.0028 -0.3226 -0.1794
16628TIP3    H171375   2.484   1.946   3.112 -0.7524 -0.4717  0.7013
16628TIP3    H271376   2.565   1.927   3.239  1.6161  0.0529 -0.6692
16629TIP3   OH271377   4.335   3.700   4.594  0.5473 -0.6677  0.2865
16629TIP3    H171378   4.281   3.685   4.672 -0.8096  0.3066 -0.4236
16629TIP3    H271379   4.274   3.690   4.520  1.6874 -1.0458 -0.6242
16630TIP3   OH271380   0.627   1.950   2.515 -0.0713 -0.0354 -0.2489
16630TIP3    H171381   0.686   1.993   2.453 -2.3671  1.4686 -1.5099
16630TIP3    H271382   0.541   1.954   2.474 -1.2189 -1.5542  1.8045
16631TIP3   OH271383   1.831   0.713  11.513  0.3866  0.2152  0.1440
16631TIP3    H171384   1.787   0.760  11.442  0.9163  1.6023  0.7052
16631TIP3    H271385   1.802   0.756  11.593  0.9630 -0.3552  0.6812
16632TIP3   OH271386   0.727   4.314  13.513  0.1762  0.0235  0.7852
16632TIP3    H171387   0.681   4.276  13.588 -1.0846 -1.1551 -0.5197
16632TIP3    H271388   0.664   4.375  13.475  0.1119 -0.7080 -0.3247
16633TIP3   OH271389   2.847   2.558  14.538 -0.3840  0.2341  0.0566
16633TIP3    H171390   2.754   2.552  14.517 -0.9146 -1.8581  2.4896
16633TIP3    H271391   2.853   2.630  14.601 -0.3343  0.4221 -0.1623
16634TIP3   OH271392   5.811   4.808  12.289  0.0054  0.7666  0.2977
16634TIP3    H171393   5.814   4.897  12.253  0.8950  1.6711  2.4154
16634TIP3    H271394   5.902   4.781  12.293 -0.2099  0.0382  0.3605
16635TIP3   OH271395   1.773   1.035   4.845 -0.6908  0.2766 -0.2630
16635TIP3    H171396   1.856   1.036   4.797  0.7106 -0.7860  1.9207
16635TIP3    H271397   1.760   1.126   4.873  2.2632 -0.1106  3.1349
16636TIP3   OH271398   2.041   4.792   0.402  0.5402 -0.5311 -0.1433
16636TIP3    H171399   2.000   4.837   0.476 -1.3135  0.2811 -1.5866
16636TIP3    H271400   2.045   4.700   0.430  0.1887 -0.1990  1.0893
16637TIP3   OH271401   0.107   6.594   4.307  0.0043  0.1951 -0.6626
16637TIP3    H171402   0.187   6.558   4.346 -1.2912 -0.9866  1.0593
16637TIP3    H271403   0.043   6.593   4.379 -1.3102  1.9977 -1.7289
16638TIP3   OH271404   5.849   5.990  16.481  0.2237  0.6041  0.2008
16638TIP3    H171405   5.922   5.983  16.418  0.2058 -0.3152  0.2626
16638TIP3    H271406   5.787   5.923  16.453  0.8879 -0.8752  2.0629
16639TIP3   OH271407   2.357   4.034   0.615 -0.2810 -0.2388  0.1017
16639TIP3    H171408   2.286   3.996   0.563  1.3621 -0.3139 -2.2809
16639TIP3    H271409   2.384   4.111   0.565 -0.3528  1.3108  2.3357
16640TIP3   OH271410   5.600   5.231   3.640  0.0106 -0.1893  0.7573
16640TIP3    H171411   5.695   5.234   3.654 -0.0402  1.0552  0.9352
16640TIP3    H271412   5.576   5.141   3.663  1.2181 -0.6788  0.1885
16641TIP3   OH271413   4.931   2.837   5.840  0.1592  0.0048  0.0576
16641TIP3    H171414   4.877   2.758   5.840  0.4417 -0.1928 -0.8218
16641TIP3    H271415   4.939   2.860   5.933  0.2230 -1.1026  0.3420
16642TIP3   OH271416   4.369   1.922   0.980  0.3618 -0.0775 -0.2263
16642TIP3    H171417   4.386   1.989   1.046 -0.4681  0.3926 -0.4829
16642TIP3    H271418   4.357   1.971   0.899 -0.7632 -0.4919 -0.3197
16643TIP3   OH271419   1.301   2.969  13.077  0.4679  0.2632  0.3430
16643TIP3    H171420   1.333   3.015  13.000 -0.1812 -0.0814 -0.1348
16643TIP3    H271421   1.232   2.911  13.045  0.8089 -0.5620  1.0339
16644TIP3   OH271422   1.005   6.469   3.203  0.2525 -0.5054 -0.1440
16644TIP3    H171423   0.961   6.545   3.164 -0.3615  0.6439  2.5404
16644TIP3    H271424   1.080   6.507   3.250  1.0314 -1.8161 -0.2968
16645TIP3   OH271425   2.656   2.878   1.186  0.1500  0.2144  0.3989
16645TIP3    H171426   2.746   2.845   1.188  0.7068  1.4770 -1.0961
16645TIP3    H271427   2.611   2.831   1.255  1.8742 -0.7284  0.9336
16646TIP3   OH271428   6.196   3.687  15.819  0.6092 -0.6440 -0.3697
16646TIP3    H171429   6.208   3.725  15.732 -2.1476  1.1701 -0.0917
16646TIP3    H271430   6.104   3.702  15.840  1.3124 -0.2443  3.1959
16647TIP3   OH271431   1.048   5.769  14.827 -0.0289  0.6737  0.1124
16647TIP3    H171432   1.086   5.690  14.865 -0.0803  1.2632  1.4487
16647TIP3    H271433   0.954   5.753  14.827  0.0967 -0.4981 -2.5378
16648TIP3   OH271434   0.155   2.949  13.779 -0.2640 -0.2671 -0.2169
16648TIP3    H171435   0.194   3.015  13.836 -3.1509  1.4557 -0.0004
16648TIP3    H271436   0.195   2.866  13.806  0.3001  0.8023  2.6045
16649TIP3   OH271437   2.297   6.144  10.749  0.3653  0.4097  0.1612
16649TIP3    H171438   2.377   6.126  10.699  0.7754  1.1588  0.5361
16649TIP3    H271439   2.295   6.075  10.816 -0.0577 -0.4487 -0.7138
16650TIP3   OH271440   5.684   5.069   1.876 -0.4978 -0.1380  0.4703
16650TIP3    H171441   5.698   5.062   1.782 -0.4880  0.8612  0.3861
16650TIP3    H271442   5.771   5.062   1.914  0.0196  2.8957  0.1492
16651TIP3   OH271443   5.048   1.032   4.187  0.5324  0.6008 -0.0320
16651TIP3    H171444   5.111   1.102   4.166 -0.1208  1.0976 -0.3864
16651TIP3    H271445   5.101   0.953   4.191  1.0805  0.8823 -1.1341
16652TIP3   OH271446   1.832   5.529   1.663 -0.3561  0.3652 -0.2460
16652TIP3    H171447   1.872   5.513   1.578 -1.8639  0.4593 -1.0023
16652TIP3    H271448   1.901   5.572   1.714  1.1991 -1.3796 -0.7454
16653TIP3   OH271449   6.815   2.667  11.724  0.0748  1.0816  0.2083
16653TIP3    H171450   6.860   2.684  11.642  0.1653 -0.0721 -0.0034
16653TIP3    H271451   6.885   2.660  11.789  0.2380 -0.6598 -0.1110
16654TIP3   OH271452   4.756   3.654   4.786 -0.2473 -0.1316  0.4263
16654TIP3    H171453   4.711   3.730   4.824 -1.9382 -0.2629 -1.1729
16654TIP3    H271454   4.820   3.691   4.726 -1.8400  0.1076 -1.2102
16655TIP3   OH271455   6.714   4.496  16.030  0.2198  0.0886 -0.3683
16655TIP3    H171456   6.686   4.424  16.087  0.6465 -1.1470 -1.6499
16655TIP3    H271457   6.646   4.562  16.040 -0.4919 -0.7335  0.4114
16656TIP3   OH271458   6.739   5.514   2.492 -0.4448 -0.6571  0.5190
16656TIP3    H171459   6.649   5.541   2.510 -0.2894  0.4489 -0.2769
16656TIP3    H271460   6.757   5.446   2.557 -1.6655 -0.5090  1.0391
16657TIP3   OH271461   3.912   6.716   2.242 -0.5950  0.2493  0.7067
16657TIP3    H171462   3.900   6.727   2.147 -0.1046  0.8549  0.7111
16657TIP3    H271463   3.970   6.788   2.267 -0.0807 -0.3665  1.3317
16658TIP3   OH271464   1.140   4.432   3.793  0.4163 -0.5500 -0.1992
16658TIP3    H171465   1.061   4.485   3.778  1.9844  1.6883 -1.1286
16658TIP3    H271466   1.133   4.405   3.885 -2.4004 -2.2378 -0.7843
16659TIP3   OH271467   2.957   2.945  12.093 -0.3168  0.5467  0.1486
16659TIP3    H171468   3.037   2.996  12.079 -0.1062 -0.2170 -1.7885
16659TIP3    H271469   2.902   3.000  12.149  1.9189  0.6715  2.3777
16660TIP3   OH271470   1.574   2.409  12.991 -0.0912  0.0616 -0.3390
16660TIP3    H171471   1.650   2.415  12.933  1.7705 -0.5486  1.8732
16660TIP3    H271472   1.549   2.317  12.989 -0.4462  0.1632 -0.6633
16661TIP3   OH271473   2.014   5.287  16.612  0.2617  0.0184  0.7069
16661TIP3    H171474   1.980   5.228  16.544 -0.7330  0.3749  0.8761
16661TIP3    H271475   1.946   5.287  16.680  1.2729 -0.4036  1.7580
16662TIP3   OH271476   4.075   0.743   3.688 -0.2728  0.8551  0.2707
16662TIP3    H171477   3.984   0.748   3.660 -0.8620 -1.1833  1.5958
16662TIP3    H271478   4.122   0.710   3.612 -1.5205 -2.7510  0.8663
16663TIP3   OH271479   4.768   2.345  12.046 -0.2713 -0.9613  0.0468
16663TIP3    H171480   4.798   2.345  11.956 -1.8942 -1.1408 -0.5214
16663TIP3    H271481   4.762   2.252  12.069  1.1708 -0.9133  0.7280
16664TIP3   OH271482   4.703   3.081  11.064  0.1142 -0.0460  0.4655
16664TIP3    H171483   4.669   3.085  11.153  0.9838  0.6102  0.7838
16664TIP3    H271484   4.739   3.169  11.048 -1.7603  0.4985 -1.2464
16665TIP3   OH271485   5.428   5.928  15.739  0.0332 -0.4176 -0.3193
16665TIP3    H171486   5.445   5.834  15.728  0.7326 -0.6057  1.7756
16665TIP3    H271487   5.381   5.934  15.822 -0.2294  1.0744 -0.5531
16666TIP3   OH271488   1.027   1.400  14.851 -0.3940 -0.6070 -0.3878
16666TIP3    H171489   1.000   1.308  14.844  1.8643 -1.7295  3.0245
16666TIP3    H271490   1.088   1.412  14.778  0.6901 -2.4930  0.1368
16667TIP3   OH271491   2.313   1.252   3.839 -0.3610 -0.4799  0.6082
16667TIP3    H171492   2.361   1.170   3.830 -1.0945 -0.7397 -1.2618
16667TIP3    H271493   2.380   1.317   3.859  0.4117 -1.2735  0.6572
16668TIP3   OH271494   1.577   4.609  11.178 -0.0291  0.1029  0.3489
16668TIP3    H171495   1.576   4.596  11.084  1.6490 -0.2538  0.3400
16668TIP3    H271496   1.565   4.704  11.190 -1.1748  0.0312 -0.1574
16669TIP3   OH271497   0.748   2.982   4.624  0.2163 -0.2108  0.3672
16669TIP3    H171498   0.794   3.063   4.644  2.3646 -1.4698  0.8583
16669TIP3    H271499   0.677   2.978   4.688 -0.8481  1.9186 -0.5860
16670TIP3   OH271500   2.966   5.238   2.544  0.1652 -0.7397 -0.0265
16670TIP3    H171501   2.892   5.284   2.504  0.9306 -1.8681 -3.0228
16670TIP3    H271502   3.023   5.308   2.576 -1.1946  0.2003  0.4090
16671TIP3   OH271503   5.347   3.857  16.347 -0.5099 -1.1849 -0.5163
16671TIP3    H171504   5.305   3.894  16.270 -1.7392  0.9645  1.0845
16671TIP3    H271505   5.282   3.796  16.383 -1.3424  0.2799  0.5766
16672TIP3   OH271506   3.361   6.793  16.332  0.3262 -0.3577 -0.1848
16672TIP3    H171507   3.276   6.785  16.376 -0.7198  0.3079 -2.0066
16672TIP3    H271508   3.411   6.852  16.388 -0.1984 -1.1515  1.1740
16673TIP3   OH271509   2.316   0.582   3.137 -0.1580 -0.0555  0.3934
16673TIP3    H171510   2.237   0.557   3.089 -0.4524  3.1398 -1.0367
16673TIP3    H271511   2.289   0.657   3.190  1.8261  0.8868  0.1446
16674TIP3   OH271512   1.676   6.071   4.236  0.1683  0.3228 -0.3059
16674TIP3    H171513   1.683   6.124   4.315  0.7764 -1.3650  0.8226
16674TIP3    H271514   1.586   6.039   4.237  0.0345  0.6837 -0.5662
16675TIP3   OH271515   0.205   4.283  17.159  0.1973 -0.2938 -0.8738
16675TIP3    H171516   0.271   4.287  17.090 -0.1169 -0.8853 -1.2132
16675TIP3    H271517   0.234   4.211  17.215 -0.1916 -0.5951 -1.0573
16676TIP3   OH271518   4.191   4.074  15.466  0.0541  0.4367  0.2943
16676TIP3    H171519   4.186   4.109  15.555 -0.8272 -0.1196  0.4770
16676TIP3    H271520   4.102   4.046  15.446  0.6261 -1.3865  0.0509
16677TIP3   OH271521   1.717   6.548   1.121 -0.3272  0.6182 -0.1237
16677TIP3    H171522   1.737   6.488   1.192 -1.5668  0.8320  0.4380
16677TIP3    H271523   1.681   6.492   1.052  0.1305  0.5068 -0.2705
16678TIP3   OH271524   0.411   4.901   0.788 -0.0742 -0.7572  0.2568
16678TIP3    H171525   0.340   4.923   0.727  1.0727  0.9054 -0.5501
16678TIP3    H271526   0.367   4.887   0.871 -1.3995 -0.1997 -0.3179
16679TIP3   OH271527   1.015   2.285  16.400 -0.5042 -0.0788 -0.1912
16679TIP3    H171528   1.089   2.324  16.355 -0.2767 -1.9634 -1.5486
16679TIP3    H271529   1.045   2.272  16.490  0.4838  0.0098 -0.5044
16680TIP3   OH271530   2.310   2.861   2.347 -0.3233 -0.1716 -0.2909
16680TIP3    H171531   2.358   2.808   2.283  0.2921  1.5830 -1.3547
16680TIP3    H271532   2.370   2.869   2.421 -0.6867 -1.4869  0.1582
16681TIP3   OH271533   1.612   5.519  12.386 -0.3796  0.0648  0.1155
16681TIP3    H171534   1.655   5.603  12.400  1.9695 -0.6727 -1.8316
16681TIP3    H271535   1.637   5.466  12.462 -0.2967  0.5517  0.4324
16682TIP3   OH271536   2.893   4.810   2.421  0.1935 -0.3018  0.1881
16682TIP3    H171537   2.828   4.772   2.480  1.0403  0.3611  1.5996
16682TIP3    H271538   2.862   4.787   2.333 -0.8444 -1.7350  0.8890
16683TIP3   OH271539   1.536   6.050  16.535 -0.1097 -0.3415 -0.2214
16683TIP3    H171540   1.531   6.096  16.451 -0.3016 -1.9921 -1.1540
16683TIP3    H271541   1.452   6.067  16.577 -0.4217 -0.3702 -0.8268
16684TIP3   OH271542   3.083   4.607   2.369  0.2922  0.2539  0.0735
16684TIP3    H171543   3.170   4.600   2.410 -0.0024  0.8839  0.8281
16684TIP3    H271544   3.039   4.676   2.418 -1.0190 -0.7472  0.3736
16685TIP3   OH271545   4.857   2.942   4.753  0.6886 -0.3352  0.5008
16685TIP3    H171546   4.839   3.036   4.757  0.4557 -0.0910 -2.9955
16685TIP3    H271547   4.771   2.901   4.764  0.3904  0.0191 -0.4218
16686TIP3   OH271548   4.615   6.170  14.916 -0.1261  0.1562 -0.4888
16686TIP3    H171549   4.603   6.151  15.010 -0.9734  0.5021 -0.5138
16686TIP3    H271550   4.532   6.143  14.876 -1.4194  3.6918 -0.5466
16687TIP3   OH271551   1.922   3.807  17.253  1.0295  0.4157 -0.2144
16687TIP3    H171552   1.887   3.758  17.179 -0.1533 -0.3253  0.7896
16687TIP3    H271553   2.003   3.847  17.220  0.7345 -0.2070 -1.7668
16688TIP3   OH271554   1.815   2.818  12.125 -0.0275  0.4267 -0.3696
16688TIP3    H171555   1.892   2.828  12.181  0.8926  1.3133 -1.7319
16688TIP3    H271556   1.836   2.743  12.069 -1.7518 -1.7207  1.6389
16689TIP3   OH271557   3.500   0.107   5.545  0.0026 -0.3277 -0.5932
16689TIP3    H171558   3.492   0.031   5.487 -1.1080 -0.7332  0.0632
16689TIP3    H271559   3.541   0.072   5.624 -1.2146 -0.4420  0.0167
16690TIP3   OH271560   2.579   1.099  12.250 -0.1833 -0.0421 -0.1792
16690TIP3    H171561   2.657   1.113  12.196  0.4262  0.3894  0.8053
16690TIP3    H271562   2.571   1.178  12.302 -1.0831 -0.2332 -0.0165
16691TIP3   OH271563   2.505   5.075  10.832 -0.3279 -0.3138  0.7901
16691TIP3    H171564   2.580   5.117  10.789 -0.6833 -0.4286  0.0519
16691TIP3    H271565   2.500   5.118  10.918 -0.3011  0.7069  0.2950
16692TIP3   OH271566   6.229   3.067   1.842  0.4893 -0.9367 -0.5281
16692TIP3    H171567   6.225   3.002   1.772  0.1326 -0.8208 -0.6214
16692TIP3    H271568   6.144   3.112   1.837  0.7257 -0.4742 -0.4588
16693TIP3   OH271569   1.941   6.571   3.764  0.2640  0.2201  0.1965
16693TIP3    H171570   1.919   6.648   3.710 -1.0901  0.4936  1.0955
16693TIP3    H271571   1.912   6.496   3.711 -0.1797  0.4389  0.1216
16694TIP3   OH271572   0.107   2.600  16.907 -0.1066 -0.1600  0.0340
16694TIP3    H171573   0.015   2.616  16.887 -0.3722 -0.2661  1.0887
16694TIP3    H271574   0.155   2.635  16.832 -0.9917  0.1699 -0.3861
16695TIP3   OH271575   2.297   2.712  15.625  0.1824 -0.9138  0.0508
16695TIP3    H171576   2.222   2.652  15.613 -0.2843 -0.3774  0.2569
16695TIP3    H271577   2.351   2.669  15.691 -1.2847 -0.0662  1.8845
16696TIP3   OH271578   1.308   4.251   0.821  0.0854 -0.3684  0.0191
16696TIP3    H171579   1.254   4.174   0.839 -2.7237  1.4273 -0.0201
16696TIP3    H271580   1.336   4.239   0.730 -0.5323 -1.2068 -0.0780
16697TIP3   OH271581   2.044   3.484  12.017 -0.6028  0.6048 -0.3143
16697TIP3    H171582   2.017   3.570  12.052 -1.6315  0.1934 -0.0498
16697TIP3    H271583   1.973   3.425  12.044  0.6009 -0.5485  0.4362
16698TIP3   OH271584   6.027   0.797   6.032  0.1764  0.2851 -0.1155
16698TIP3    H171585   6.037   0.741   6.109 -1.9043  0.5699  0.4343
16698TIP3    H271586   6.094   0.767   5.971  1.5568 -0.2832  1.5988
16699TIP3   OH271587   5.089   3.808   0.044  0.2767 -0.4095 -0.1968
16699TIP3    H171588   5.093   3.904   0.042  0.8337 -0.4426 -1.1011
16699TIP3    H271589   5.169   3.779  -0.000 -0.5644 -1.2724 -1.2214
16700TIP3   OH271590   2.050   3.463   5.315  0.5710 -0.2278 -0.0170
16700TIP3    H171591   2.141   3.434   5.302  0.0880 -1.4720 -0.7085
16700TIP3    H271592   2.009   3.452   5.230 -0.1574  0.6578  0.2084
16701TIP3   OH271593   4.666   6.150  14.186 -0.2910  0.4590 -0.2543
16701TIP3    H171594   4.628   6.063  14.173  0.6116  0.1412 -0.8516
16701TIP3    H271595   4.666   6.162  14.281  1.4008 -1.0563 -0.0071
16702TIP3   OH271596   0.100   1.865   0.316 -0.7800  0.3548  0.0623
16702TIP3    H171597   0.188   1.830   0.310 -1.1291 -0.9740  1.8508
16702TIP3    H271598   0.043   1.793   0.289 -1.4949 -0.5959  3.5485
16703TIP3   OH271599   2.459   2.723   3.980 -0.5349  0.2668  0.2570
16703TIP3    H171600   2.444   2.707   4.074 -1.1895  0.6952  0.2354
16703TIP3    H271601   2.539   2.776   3.978 -0.7616  0.6382  0.6130
16704TIP3   OH271602   0.236   3.755  11.759  0.2453 -0.0896 -0.0689
16704TIP3    H171603   0.192   3.808  11.693 -1.2023 -1.7600 -0.4921
16704TIP3    H271604   0.267   3.677  11.712  1.1151 -0.3011  0.8084
16705TIP3   OH271605   4.044   4.513   1.811  0.7538 -0.4235  0.1123
16705TIP3    H171606   4.042   4.421   1.838  3.7069 -0.5042  0.3855
16705TIP3    H271607   4.063   4.561   1.892 -0.5226  0.4669 -0.0767
16706TIP3   OH271608   0.572   2.263  10.835  0.3119  0.3061  0.0345
16706TIP3    H171609   0.505   2.329  10.818  1.2223  1.2692  0.0380
16706TIP3    H271610   0.653   2.303  10.802  1.0751 -0.3355  1.0867
16707TIP3   OH271611   3.150   4.416   6.339 -0.0718  0.3085 -0.2271
16707TIP3    H171612   3.130   4.324   6.359 -2.5456  0.7138 -0.5222
16707TIP3    H271613   3.171   4.455   6.424 -1.8082  0.0647  0.3479
16708TIP3   OH271614   6.300   6.550  11.985  0.4220  0.3936  0.2576
16708TIP3    H171615   6.212   6.527  12.013 -0.3474  0.7327 -1.6921
16708TIP3    H271616   6.323   6.628  12.036 -1.2626  1.5317 -0.6458
16709TIP3   OH271617   6.720   1.575  11.962  0.0851  0.3539  0.3867
16709TIP3    H171618   6.678   1.587  11.877 -0.5085 -0.6285  0.5214
16709TIP3    H271619   6.810   1.606  11.950 -0.1356  0.6717 -0.4574
16710TIP3   OH271620   4.476   6.463   2.239 -0.0375  0.4023  0.3467
16710TIP3    H171621   4.425   6.384   2.258 -0.0416 -0.0390 -1.3689
16710TIP3    H271622   4.411   6.526   2.207  0.1878  0.5579  0.1910
16711TIP3   OH271623   6.775   6.076   1.349  0.1745 -0.0329  0.1576
16711TIP3    H171624   6.847   6.133   1.376 -0.0947 -0.4902  1.9888
16711TIP3    H271625   6.718   6.133   1.298  2.7219 -0.1170 -3.1423
16712TIP3   OH271626   6.113   3.338   6.713 -0.5891 -0.1842 -0.5440
16712TIP3    H171627   6.032   3.296   6.740  0.7059 -2.2984  0.2646
16712TIP3    H271628   6.162   3.351   6.794  1.5621 -2.7318 -1.2952
16713TIP3   OH271629   1.097   2.827   2.633  0.4199 -0.1559 -0.2837
16713TIP3    H171630   1.153   2.888   2.681 -0.2504  0.1211  0.1637
16713TIP3    H271631   1.134   2.824   2.545  2.8532 -2.1428  0.6999
16714TIP3   OH271632   1.081   4.452  11.868 -0.0154  0.1635  0.6133
16714TIP3    H171633   1.139   4.510  11.819 -1.4338  1.5760  0.5670
16714TIP3    H271634   1.029   4.407  11.801 -0.6498  0.7031  0.7358
16715TIP3   OH271635   0.688   0.211   0.957  0.7180 -0.0924 -0.2646
16715TIP3    H171636   0.698   0.134   1.012 -2.0072 -0.0511  0.4364
16715TIP3    H271637   0.712   0.284   1.013 -2.7097  0.0231  1.3504
16716TIP3   OH271638   5.832   5.625   2.218 -0.3445  0.2807  0.5144
16716TIP3    H171639   5.857   5.683   2.290  0.4504 -0.1384  0.5912
16716TIP3    H271640   5.738   5.639   2.207 -0.0861  1.9496  0.1935
16717TIP3   OH271641   3.912   3.750  12.864 -0.7619  0.2356  0.1015
16717TIP3    H171642   3.831   3.746  12.914  0.0825  2.4455  1.7736
16717TIP3    H271643   3.974   3.696  12.914 -0.2747  1.3794  0.7508
16718TIP3   OH271644   3.995   3.025  10.809 -0.5164 -0.2457  0.0531
16718TIP3    H171645   4.020   2.992  10.722  0.4828  1.2874 -0.2773
16718TIP3    H271646   4.033   2.962  10.870  3.8956  1.5613 -0.4413
16719TIP3   OH271647   0.475   4.571   3.432 -0.3162 -0.3154  0.5047
16719TIP3    H171648   0.501   4.608   3.516 -0.0330 -2.3276  1.3421
16719TIP3    H271649   0.515   4.484   3.430 -2.9657 -1.6191 -0.2603
16720TIP3   OH271650   4.746   0.910   3.669  0.1218  0.4124 -0.8782
16720TIP3    H171651   4.659   0.950   3.670  0.1245  0.6004  2.3495
16720TIP3    H271652   4.730   0.817   3.683  0.4297  0.4259 -0.4299
16721TIP3   OH271653   5.842   6.100   1.719  0.3151  0.0349 -0.5945
16721TIP3    H171654   5.903   6.073   1.788  0.5224  0.2748 -0.6822
16721TIP3    H271655   5.876   6.184   1.688 -0.1792  0.2780 -0.4966
16722TIP3   OH271656   5.803   5.809   1.964 -0.4572  0.3466  0.0140
16722TIP3    H171657   5.812   5.904   1.971 -0.3954  0.3389  0.0437
16722TIP3    H271658   5.862   5.775   2.031  0.1220  0.2783 -0.5081
16723TIP3   OH271659   2.561   4.494   5.159 -0.1308  0.2556  0.4533
16723TIP3    H171660   2.562   4.455   5.071  0.9422  1.6800 -0.2101
16723TIP3    H271661   2.483   4.458   5.200  0.0636 -1.4881 -0.5982
16724TIP3   OH271662   3.944   3.285   0.130 -0.5217  0.4161 -0.4649
16724TIP3    H171663   4.002   3.274   0.054  0.2718 -0.6339  0.2735
16724TIP3    H271664   3.877   3.347   0.100 -1.0155 -0.9783 -2.4836
16725TIP3   OH271665   3.828   4.157  11.232  0.5801  0.9721  0.4315
16725TIP3    H171666   3.851   4.171  11.324  0.5941  1.6931  0.3229
16725TIP3    H271667   3.809   4.244  11.199  1.7958  0.8790 -0.5862
16726TIP3   OH271668   4.851   3.684  14.077 -0.1349 -0.1539  0.6192
16726TIP3    H171669   4.770   3.700  14.028  1.2967 -0.7867 -2.1540
16726TIP3    H271670   4.851   3.590  14.093 -0.2983 -0.0389  1.3239
16727TIP3   OH271671   4.514   6.304  11.017 -0.2191 -0.0915  0.1353
16727TIP3    H171672   4.517   6.363  10.941 -3.0490 -0.2727 -0.2392
16727TIP3    H271673   4.594   6.251  11.009 -0.5657 -0.3647 -2.9698
16728TIP3   OH271674   0.136   2.767   2.019 -0.2062  0.0827 -0.7175
16728TIP3    H171675   0.211   2.726   1.977  1.1159  0.7561  0.8439
16728TIP3    H271676   0.071   2.776   1.950  1.2175 -0.3769 -2.1774
16729TIP3   OH271677   0.803   3.243   1.192  0.6810  0.2843 -0.4730
16729TIP3    H171678   0.841   3.207   1.111  1.5619  0.6576 -0.2414
16729TIP3    H271679   0.754   3.171   1.230  0.0679  0.1674 -1.4581
16730TIP3   OH271680   6.327   5.188   1.507  0.3802  0.5064  0.5875
16730TIP3    H171681   6.302   5.267   1.555 -0.5601 -1.3438  3.4069
16730TIP3    H271682   6.423   5.190   1.506  0.3655  2.0216 -0.0530
16731TIP3   OH271683   3.747   5.060   0.755  0.2120 -0.7499 -0.5970
16731TIP3    H171684   3.807   5.132   0.735 -0.3978  0.7873  2.4575
16731TIP3    H271685   3.803   4.983   0.761  1.8258  0.4661  1.2628
16732TIP3   OH271686   3.196   5.155   2.844 -0.2427 -0.1127  0.3624
16732TIP3    H171687   3.240   5.086   2.795 -1.1602  0.1683 -0.8911
16732TIP3    H271688   3.138   5.109   2.905  0.1764 -0.4488  0.5153
16733TIP3   OH271689   1.414   5.758  11.986 -0.4019  0.0477  0.6545
16733TIP3    H171690   1.470   5.680  11.987 -3.1734 -2.0989  1.1465
16733TIP3    H271691   1.408   5.781  11.893  1.9439  0.9708  0.6426
16734TIP3   OH271692   1.421   3.395   4.131 -0.1934 -0.0436 -0.2336
16734TIP3    H171693   1.421   3.431   4.043  1.8726 -0.8587 -0.6321
16734TIP3    H271694   1.413   3.471   4.189  2.0768  0.9421 -1.0883
16735TIP3   OH271695   3.002   5.083   1.735  0.2855 -0.0476  0.0285
16735TIP3    H171696   3.053   5.114   1.810 -2.0786  2.4642  0.7531
16735TIP3    H271697   2.911   5.088   1.764 -0.8879  2.6219 -3.4400
16736TIP3   OH271698   0.870   5.820   1.512 -0.3133 -0.3850  0.3426
16736TIP3    H171699   0.803   5.862   1.566 -0.6135 -0.4845  0.0468
16736TIP3    H271700   0.888   5.737   1.557  0.8247  0.3691  1.3495
16737TIP3   OH271701   2.009   5.087  12.481 -0.5761  0.0192 -0.5614
16737TIP3    H171702   2.073   5.054  12.417 -0.2263 -0.1752 -0.1171
16737TIP3    H271703   2.050   5.166  12.517  0.5834 -1.4113  1.5153
16738TIP3   OH271704   3.962   1.604   1.021 -0.1118 -0.0864  0.8705
16738TIP3    H171705   4.020   1.659   1.073  0.2679 -0.9074  1.3363
16738TIP3    H271706   4.018   1.567   0.953 -0.8631  2.0100 -1.0089
16739TIP3   OH271707   2.755   1.975   6.440 -0.4413 -0.1907 -0.2852
16739TIP3    H171708   2.797   1.894   6.411  0.7540 -0.1042  1.0806
16739TIP3    H271709   2.741   2.025   6.359  1.4894 -0.5263 -0.8909
16740TIP3   OH271710   3.957   4.367  15.843 -0.1777 -0.2749 -0.0317
16740TIP3    H171711   3.886   4.308  15.869  0.8593 -2.5031 -1.8589
16740TIP3    H271712   3.921   4.419  15.772 -0.5705 -0.0036  0.3676
16741TIP3   OH271713   0.279   6.456   5.053  0.8959 -0.1758  0.0278
16741TIP3    H171714   0.357   6.491   5.098  0.4188  1.5897 -0.4189
16741TIP3    H271715   0.248   6.386   5.109  1.3581  0.7789  1.5454
16742TIP3   OH271716   2.807   6.252   0.081  0.3242 -0.3668  0.3249
16742TIP3    H171717   2.788   6.248   0.174  1.2986  0.9860  0.6074
16742TIP3    H271718   2.730   6.294   0.042  1.1529  1.9133  0.9866
16743TIP3   OH271719   3.405   4.739   1.639  0.3420 -0.3022  0.5784
16743TIP3    H171720   3.367   4.656   1.670  0.7735 -0.6851  0.0829
16743TIP3    H271721   3.347   4.806   1.675  0.1518 -0.8037  1.2225
16744TIP3   OH271722   2.918   2.603   5.851  0.2804  0.4366  0.0003
16744TIP3    H171723   2.951   2.605   5.762  1.1670  2.1005  0.3315
16744TIP3    H271724   2.874   2.687   5.863 -1.3899 -0.4754  0.5839
16745TIP3   OH271725   0.997   4.672   3.886 -0.3394 -0.3905 -0.3079
16745TIP3    H171726   0.940   4.633   3.820 -2.1134  0.7722  0.4593
16745TIP3    H271727   0.997   4.609   3.957  0.1253 -0.8345 -0.6970
16746TIP3   OH271728   6.283   4.718  15.750 -0.2039  0.1201 -0.4879
16746TIP3    H171729   6.284   4.625  15.724 -0.6693  0.0348 -0.2116
16746TIP3    H271730   6.195   4.731  15.787  0.1324  0.4743  0.1935
16747TIP3   OH271731   4.823   2.938   3.629 -0.4854 -0.1353 -0.2269
16747TIP3    H171732   4.911   2.968   3.608  0.3771 -1.6156  1.0680
16747TIP3    H271733   4.819   2.939   3.725 -1.7445 -0.4691 -0.2532
16748TIP3   OH271734   3.110   6.404  15.024  1.0700  0.3851 -0.1326
16748TIP3    H171735   3.091   6.326  15.076  3.7357 -0.6065 -0.4970
16748TIP3    H271736   3.100   6.376  14.933  2.9998  0.0792 -0.3063
16749TIP3   OH271737   3.598   5.007  14.104  0.0167  0.0276 -0.4303
16749TIP3    H171738   3.542   5.048  14.170 -3.2143 -1.0777 -2.2698
16749TIP3    H271739   3.565   4.918  14.097  3.6949 -1.5590  0.0130
16750TIP3   OH271740   1.852   4.801  10.893  0.0250 -0.1084  0.2386
16750TIP3    H171741   1.904   4.881  10.895 -0.2150  0.1523 -1.6106
16750TIP3    H271742   1.767   4.825  10.928 -0.1825  0.5943 -0.6986
16751TIP3   OH271743   6.523   4.935  14.532 -0.0433  0.3446  0.0513
16751TIP3    H171744   6.495   5.026  14.522 -2.0922 -0.5050 -3.9034
16751TIP3    H271745   6.591   4.923  14.465 -1.5495 -1.5457 -1.2559
16752TIP3   OH271746   5.253   1.907  13.808 -0.4892  0.3964  0.5067
16752TIP3    H171747   5.231   1.858  13.888 -1.1801  0.3726  0.3094
16752TIP3    H271748   5.174   1.899  13.754 -0.0079  0.3822 -0.1922
16753TIP3   OH271749   2.064   4.645   3.766  0.4616  0.3756 -0.1128
16753TIP3    H171750   2.085   4.708   3.834  1.9093 -1.4610  1.2281
16753TIP3    H271751   2.063   4.697   3.685 -1.6563  2.6818  1.2362
16754TIP3   OH271752   5.439   2.640   1.651 -0.1170  0.2003 -0.1790
16754TIP3    H171753   5.481   2.698   1.715  0.4940  0.8781 -1.1578
16754TIP3    H271754   5.347   2.638   1.678  0.2439 -0.0467  1.0846
16755TIP3   OH271755   0.738   4.740  13.457 -0.1996  0.0962 -0.4249
16755TIP3    H171756   0.693   4.767  13.377  0.1466 -1.6380 -1.2520
16755TIP3    H271757   0.681   4.674  13.496 -0.2605  0.7749  0.6779
16756TIP3   OH271758   4.197   3.266  12.785  0.0175  0.3755 -0.0960
16756TIP3    H171759   4.131   3.319  12.828  0.3809  1.5674 -0.9701
16756TIP3    H271760   4.274   3.273  12.841 -0.3496 -0.4215  0.5361
16757TIP3   OH271761   5.991   3.295   1.310  0.3222 -0.4299 -0.1816
16757TIP3    H171762   5.978   3.299   1.405  0.9196 -0.5238 -0.0931
16757TIP3    H271763   6.044   3.371   1.289 -1.4000  0.6848 -0.7349
16758TIP3   OH271764   2.953   6.396   0.754  0.1088 -0.0309 -0.8470
16758TIP3    H171765   2.905   6.411   0.835  2.1335  1.0632  0.2268
16758TIP3    H271766   3.017   6.328   0.777 -0.5117 -1.0824 -2.0941
16759TIP3   OH271767   4.712   2.468  14.714 -0.6401  0.3119  0.1722
16759TIP3    H171768   4.735   2.471  14.807  1.1426  2.4773 -0.2423
16759TIP3    H271769   4.786   2.422  14.674 -2.1909 -2.1321 -0.0585
16760TIP3   OH271770   1.230   4.898   6.156 -0.1358 -0.1909 -0.5416
16760TIP3    H171771   1.190   4.887   6.243  1.0466  1.9179  0.3552
16760TIP3    H271772   1.174   4.962   6.112  0.5079  0.4334 -0.4648
16761TIP3   OH271773   2.288   1.063   5.247 -0.0533  0.3264  0.8602
16761TIP3    H171774   2.345   1.123   5.295  0.2760  2.2719 -1.7741
16761TIP3    H271775   2.201   1.081   5.282  0.0366  2.3941  0.1491
16762TIP3   OH271776   5.801   0.325   5.395 -0.1209  0.2857 -0.3115
16762TIP3    H171777   5.808   0.415   5.428  1.7668 -0.5896  1.9124
16762TIP3    H271778   5.739   0.283   5.454  0.2480 -0.2904 -0.3305
16763TIP3   OH271779   6.230   0.425  16.677 -0.1629  0.2367  0.2282
16763TIP3    H171780   6.311   0.475  16.692 -0.5555  1.5786 -1.7574
16763TIP3    H271781   6.252   0.365  16.605 -0.8609  0.4174 -0.1393
16764TIP3   OH271782   5.258   5.046   1.068  0.1774 -0.5316  0.1260
16764TIP3    H171783   5.226   5.126   1.108 -1.6625 -1.0691 -0.2012
16764TIP3    H271784   5.200   4.977   1.101 -0.0710 -1.2997 -1.8050
16765TIP3   OH271785   4.037   1.741  13.364  0.3017 -0.3336 -0.7446
16765TIP3    H171786   3.989   1.668  13.325  0.6474 -0.7594 -0.3792
16765TIP3    H271787   4.085   1.780  13.291 -1.3250  0.7059 -1.3208
16766TIP3   OH271788   1.637   0.217   1.857  0.7612 -0.1815 -0.4777
16766TIP3    H171789   1.545   0.195   1.870  0.5401  0.9734  0.0510
16766TIP3    H271790   1.678   0.199   1.942  0.6766  0.9141 -0.1969
16767TIP3   OH271791   3.883   3.617   3.354 -0.4287  0.0676  0.2919
16767TIP3    H171792   3.898   3.662   3.271  2.5008  0.0796  0.7114
16767TIP3    H271793   3.843   3.533   3.330  0.7075 -0.0833 -1.1937
16768TIP3   OH271794   6.485   5.476   0.250 -0.6372  0.6105 -0.1205
16768TIP3    H171795   6.520   5.403   0.200  0.8326  1.4106 -0.2962
16768TIP3    H271796   6.401   5.497   0.208 -0.6864 -0.4354 -0.5598
16769TIP3   OH271797   2.749   5.588  14.305  0.4782 -0.3170 -0.1178
16769TIP3    H171798   2.663   5.601  14.344  0.0161  0.2015 -1.2711
16769TIP3    H271799   2.748   5.499  14.271  0.4282 -0.3299 -0.0815
16770TIP3   OH271800   0.955   1.275  12.856  0.4913 -0.4459  0.1235
16770TIP3    H171801   0.946   1.256  12.949  1.1769  2.3749  0.8493
16770TIP3    H271802   0.877   1.325  12.833 -0.3767 -2.2784 -1.2508
16771TIP3   OH271803   4.937   3.695  12.068 -0.2659 -0.1272 -0.2353
16771TIP3    H171804   5.018   3.714  12.114  0.6170 -0.5597 -1.5696
16771TIP3    H271805   4.870   3.697  12.137  0.7258  1.1085  0.7358
16772TIP3   OH271806   2.266   6.551   0.118 -0.0848 -0.6222  0.3548
16772TIP3    H171807   2.287   6.462   0.145  2.0601 -0.1152  0.5476
16772TIP3    H271808   2.238   6.543   0.026 -0.7326 -1.5678  0.6257
16773TIP3   OH271809   3.336   2.366   2.828  0.0726  0.2958  0.5892
16773TIP3    H171810   3.410   2.307   2.846  1.0219  1.0310 -0.7469
16773TIP3    H271811   3.357   2.446   2.876 -1.2864 -0.4169  2.5191
16774TIP3   OH271812   2.666   4.283  13.482 -0.0355 -0.1022 -0.0570
16774TIP3    H171813   2.656   4.342  13.407 -2.2879  0.5063  0.6523
16774TIP3    H271814   2.588   4.297  13.535  0.9411 -1.3498  1.8556
16775TIP3   OH271815   5.597   6.647   0.222  0.3583  0.0311 -0.5775
16775TIP3    H171816   5.633   6.585   0.159 -1.9933 -3.6502  1.2962
16775TIP3    H271817   5.515   6.676   0.184 -0.1391 -0.6834 -0.0746
16776TIP3   OH271818   2.824   2.522   1.543  0.0874 -1.0624  0.3584
16776TIP3    H171819   2.765   2.447   1.538 -1.2998 -0.0602  0.7890
16776TIP3    H271820   2.789   2.575   1.615  1.1754 -0.1230  0.2307
16777TIP3   OH271821   5.062   0.705   2.299  0.0322 -0.1406 -0.2110
16777TIP3    H171822   5.077   0.610   2.296  0.1753 -0.1263  0.0722
16777TIP3    H271823   5.062   0.726   2.392 -0.8241  0.0067 -0.2390
16778TIP3   OH271824   3.896   6.533  14.246  0.5630 -0.1489  0.2396
16778TIP3    H171825   3.845   6.453  14.240  0.3633 -0.2075  2.2531
16778TIP3    H271826   3.897   6.555  14.339 -2.1398  3.9762 -0.4219
16779TIP3   OH271827   6.295   3.939   1.715  0.1598  0.7129 -0.1203
16779TIP3    H171828   6.351   4.008   1.680  0.4534 -0.1152 -1.3904
16779TIP3    H271829   6.252   3.902   1.637  0.1794 -0.6562  0.4856
16780TIP3   OH271830   2.050   2.029  16.512 -0.2816  0.4247  0.4138
16780TIP3    H171831   1.958   2.034  16.486 -0.3266  0.6094  0.6099
16780TIP3    H271832   2.098   2.030  16.429 -0.4770 -0.2609  0.2807
16781TIP3   OH271833   6.610   4.959  16.930 -0.4055  0.0672  0.0352
16781TIP3    H171834   6.700   4.985  16.913 -0.6308  0.9917  0.2009
16781TIP3    H271835   6.575   4.938  16.843  0.0361 -0.5696  0.0004
16782TIP3   OH271836   4.390   3.039  15.418 -0.4629  0.0550 -0.0973
16782TIP3    H171837   4.402   2.963  15.475  1.6632  0.5109  0.1436
16782TIP3    H271838   4.395   3.004  15.329 -0.7403 -0.2399  0.0018
16783TIP3   OH271839   3.640   3.267  13.736 -0.5179  0.3767  0.0397
16783TIP3    H171840   3.586   3.346  13.740  1.1094  1.4921  1.5588
16783TIP3    H271841   3.728   3.299  13.713 -0.3742 -1.3248 -1.9806
16784TIP3   OH271842   2.726   4.801  16.866 -0.2040  0.7122  0.2119
16784TIP3    H171843   2.735   4.748  16.945  0.0586 -0.7502 -0.7756
16784TIP3    H271844   2.716   4.891  16.899  1.9869  0.4262  1.8460
16785TIP3   OH271845   1.424   3.526  13.928 -0.0570 -0.0751  0.2399
16785TIP3    H171846   1.418   3.490  14.016 -1.3306 -1.6316 -0.4212
16785TIP3    H271847   1.467   3.457  13.877 -0.8049  0.1070 -0.6778
16786TIP3   OH271848   5.417   5.383   4.446 -0.9778 -0.2380  0.4714
16786TIP3    H171849   5.358   5.456   4.465  0.9766  0.9183  2.5827
16786TIP3    H271850   5.396   5.318   4.512 -1.3947 -0.7777 -0.1869
16787TIP3   OH271851   2.221   4.276  11.323  0.0389  0.3651 -0.3046
16787TIP3    H171852   2.311   4.262  11.355  0.4038  2.6449 -0.2058
16787TIP3    H271853   2.232   4.318  11.238 -0.8989  1.5537  0.1350
16788TIP3   OH271854   3.441   6.556  11.329 -0.2874  0.4750 -0.1338
16788TIP3    H171855   3.381   6.513  11.269  1.0087 -1.2774 -0.2805
16788TIP3    H271856   3.483   6.624  11.277  0.8838 -1.0701 -1.3317
16789TIP3   OH271857   2.367   6.234  16.526  0.1254  0.2546 -0.4260
16789TIP3    H171858   2.389   6.321  16.557 -0.9617  0.3303  0.1868
16789TIP3    H271859   2.449   6.185  16.529  0.7313  1.2362 -0.7387
16790TIP3   OH271860   2.166   0.086   2.040 -0.2460  0.1500  1.0537
16790TIP3    H171861   2.093   0.133   2.000 -0.6526 -1.2363  0.1115
16790TIP3    H271862   2.126   0.017   2.092  0.3245  1.1704  2.9729
16791TIP3   OH271863   6.755   6.679   0.176  0.4480 -0.3209 -0.1671
16791TIP3    H171864   6.788   6.595   0.208 -1.5693 -1.2570 -0.4211
16791TIP3    H271865   6.684   6.657   0.117  0.3925  1.5621 -0.8902
16792TIP3   OH271866   2.692   4.611   4.798  0.2862  0.1500 -0.3195
16792TIP3    H171867   2.660   4.653   4.719 -0.3770  0.4751  0.1042
16792TIP3    H271868   2.769   4.662   4.824 -0.6392  1.2785  0.3157
16793TIP3   OH271869   1.292   6.105  16.726  0.3040 -0.1908  0.1381
16793TIP3    H171870   1.222   6.165  16.754  1.4810  1.5135 -0.4110
16793TIP3    H271871   1.366   6.162  16.708  1.3093 -1.7841 -1.0097
16794TIP3   OH271872   0.815   5.923  11.696 -0.0377  0.7355  0.3784
16794TIP3    H171873   0.810   5.879  11.611 -1.7871 -0.2285  0.9389
16794TIP3    H271874   0.899   5.895  11.733  1.4484  2.3008 -1.5738
16795TIP3   OH271875   2.686   0.780   5.761  0.1436 -0.3866  0.0094
16795TIP3    H171876   2.674   0.719   5.688  1.7472  0.3915 -0.9558
16795TIP3    H271877   2.602   0.826   5.768  0.4110  0.6458 -2.4418
16796TIP3   OH271878   3.671   1.996  15.305 -0.4919  0.0168  0.7656
16796TIP3    H171879   3.658   2.074  15.360 -2.8053  0.6115 -0.4948
16796TIP3    H271880   3.603   1.935  15.334 -0.3983 -0.4782 -0.0441
16797TIP3   OH271881   1.970   4.623  17.245  0.2397 -1.0503  0.6149
16797TIP3    H171882   1.984   4.563  17.319 -0.6692 -0.8063  0.9996
16797TIP3    H271883   1.900   4.681  17.274  1.9616  1.0839  0.7849
16798TIP3   OH271884   1.131   3.222  14.456 -0.0766  0.0262 -0.3925
16798TIP3    H171885   1.053   3.272  14.481  0.0173  0.7123 -1.3966
16798TIP3    H271886   1.106   3.177  14.375  0.8060  0.9251 -1.2012
16799TIP3   OH271887   5.553   2.229   3.808 -0.1656  0.2489  0.4162
16799TIP3    H171888   5.523   2.263   3.893  0.4180  1.8971  0.0070
16799TIP3    H271889   5.638   2.271   3.795 -0.4341  0.3378 -1.1718
16800TIP3   OH271890   6.554   1.697  16.207 -0.2298 -0.2031  0.0898
16800TIP3    H171891   6.568   1.629  16.273 -0.1614  1.4252  1.8119
16800TIP3    H271892   6.470   1.737  16.231  0.0637  0.7830 -0.4645
16801TIP3   OH271893   6.683   2.750  14.266 -0.1315 -1.0274 -0.1288
16801TIP3    H171894   6.719   2.755  14.354 -2.7423  1.8280  0.9599
16801TIP3    H271895   6.599   2.705  14.276 -0.4814 -0.6427 -1.1231
16802TIP3   OH271896   1.895   6.574  16.276 -0.1367  0.0642 -0.0260
16802TIP3    H171897   1.908   6.587  16.370  1.6657 -1.0311 -0.0725
16802TIP3    H271898   1.833   6.501  16.270 -0.4801  0.3267  0.2983
16803TIP3   OH271899   0.307   6.311  14.018 -0.5610 -0.3124  0.3700
16803TIP3    H171900   0.334   6.249  13.951 -1.5094 -2.2874  1.7334
16803TIP3    H271901   0.355   6.284  14.097 -1.8031 -0.0232  1.2619
16804TIP3   OH271902   1.653   3.151   0.606 -0.2590  0.4937 -0.3038
16804TIP3    H171903   1.746   3.167   0.589 -0.4772  0.3133 -1.8336
16804TIP3    H271904   1.622   3.107   0.527 -1.0797 -1.8250  1.1929
16805TIP3   OH271905   4.890   0.327   0.151 -0.2521 -0.1949 -0.0859
16805TIP3    H171906   4.952   0.370   0.092  0.4134  1.0534  1.4712
16805TIP3    H271907   4.816   0.388   0.156 -0.1954 -0.1819  0.5623
16806TIP3   OH271908   5.410   3.801  15.727  0.5308 -0.7928  0.4487
16806TIP3    H171909   5.362   3.882  15.713  0.3150 -1.1834 -1.2491
16806TIP3    H271910   5.391   3.777  15.818 -1.2607 -0.1583  0.2713
16807TIP3   OH271911   5.206   6.149  12.160  0.5882  0.2137  0.4845
16807TIP3    H171912   5.240   6.067  12.124 -2.2322 -0.9279  0.1704
16807TIP3    H271913   5.237   6.217  12.100 -0.0958 -1.0922 -1.4270
16808TIP3   OH271914   0.109   3.460   4.047  0.3896  0.4473  0.0401
16808TIP3    H171915   0.129   3.431   3.958  0.8288 -0.2873  0.3673
16808TIP3    H271916   0.031   3.516   4.038 -0.6561 -1.0627 -0.5845
16809TIP3   OH271917   2.749   2.109  15.489  0.1948 -0.0075 -0.0707
16809TIP3    H171918   2.746   2.015  15.504  1.2903 -0.1190 -0.5033
16809TIP3    H271919   2.658   2.137  15.496 -0.1347 -1.0880  0.1099
16810TIP3   OH271920   4.564   1.181  16.831  0.1738  0.5142 -0.2831
16810TIP3    H171921   4.554   1.173  16.736  0.3551  0.5599 -0.3064
16810TIP3    H271922   4.604   1.098  16.857  0.8167  0.8003 -0.3460
16811TIP3   OH271923   0.052   1.210  16.513  0.1956 -0.6415  0.2641
16811TIP3    H171924   0.075   1.206  16.606  0.8585 -0.0678  0.1257
16811TIP3    H271925   0.133   1.189  16.467 -0.0693 -0.6754 -0.1950
16812TIP3   OH271926   4.414   6.402  13.022  0.8593  0.2473 -0.3427
16812TIP3    H171927   4.502   6.377  13.052  0.8252  0.7641  0.2090
16812TIP3    H271928   4.366   6.420  13.103  0.0145 -0.7597 -0.6043
16813TIP3   OH271929   0.614   6.473   5.445 -0.1116 -0.0165 -0.1219
16813TIP3    H171930   0.655   6.414   5.382 -0.2210 -1.3124  0.9795
16813TIP3    H271931   0.599   6.419   5.522 -2.6658  0.7310  0.0072
16814TIP3   OH271932   5.889   4.868   3.181  0.1709  0.1956 -0.5471
16814TIP3    H171933   5.804   4.882   3.141  0.3130  1.0335 -0.5850
16814TIP3    H271934   5.951   4.912   3.122  0.0320  5.1248  2.3868
16815TIP3   OH271935   0.911   0.759   1.795  0.3335 -0.0885 -0.0723
16815TIP3    H171936   0.837   0.793   1.745 -0.3898  0.1817  1.1385
16815TIP3    H271937   0.970   0.833   1.803  0.1050  0.0756  0.1048
16816TIP3   OH271938   2.506   1.320  16.019  0.5755 -0.2835 -0.0113
16816TIP3    H171939   2.575   1.364  16.069 -1.4371  1.6276  1.2735
16816TIP3    H271940   2.492   1.376  15.943 -1.4131  1.0062  1.1956
16817TIP3   OH271941   1.206   4.626  12.182 -0.5111 -0.3152  0.8247
16817TIP3    H171942   1.221   4.675  12.101 -0.5421 -1.2639  0.2298
16817TIP3    H271943   1.174   4.692  12.245 -0.2776  0.4683  0.1343
16818TIP3   OH271944   0.874   4.542  12.056  0.1978 -0.1452 -0.8984
16818TIP3    H171945   0.954   4.558  12.007 -0.5956  0.2309 -2.0974
16818TIP3    H271946   0.902   4.542  12.148  1.3570  1.3018 -1.2205
16819TIP3   OH271947   6.668   1.145  16.125 -0.3352 -0.1715 -0.1587
16819TIP3    H171948   6.600   1.206  16.152  0.8223  0.8013  0.6478
16819TIP3    H271949   6.726   1.196  16.068 -0.9290 -1.3235 -1.8628
16820TIP3   OH271950   6.186   0.339   2.628 -0.5484  0.7071  0.2549
16820TIP3    H171951   6.252   0.395   2.587 -0.4578  0.3415 -0.1018
16820TIP3    H271952   6.188   0.258   2.577 -0.0492  0.0410  1.3145
16821TIP3   OH271953   0.552   1.926   4.632 -0.0886 -0.4221  0.6003
16821TIP3    H171954   0.498   2.005   4.631  0.3129 -0.1395  0.8335
16821TIP3    H271955   0.493   1.856   4.607 -0.6178 -0.1463  1.0650
16822TIP3   OH271956   0.093   4.973  12.768 -0.1283  0.0890  0.3627
16822TIP3    H171957   0.136   5.059  12.775  2.0377 -0.7957 -1.2287
16822TIP3    H271958   0.129   4.923  12.841 -1.9346  0.6723  1.7298
16823TIP3   OH271959   6.563   3.229  11.208 -0.0373 -0.4521 -0.1546
16823TIP3    H171960   6.545   3.151  11.156  1.2853 -0.4321 -0.6724
16823TIP3    H271961   6.528   3.302  11.157  1.1914 -0.4392 -1.0190
16824TIP3   OH271962   1.335   1.990   0.127 -0.0696 -0.1201  0.4005
16824TIP3    H171963   1.273   1.937   0.077 -0.4640 -0.5329  1.3139
16824TIP3    H271964   1.374   1.930   0.190  2.0533 -0.1206 -0.8117
16825TIP3   OH271965   2.857   3.562  16.250 -0.4792 -0.3948  0.0759
16825TIP3    H171966   2.786   3.544  16.313 -0.0756  0.3755  0.7573
16825TIP3    H271967   2.927   3.503  16.276 -0.9148 -1.2957 -0.7171
16826TIP3   OH271968   0.793   4.450   1.293  0.2509 -0.1306  0.2744
16826TIP3    H171969   0.720   4.412   1.244  1.3225 -0.3884 -1.1665
16826TIP3    H271970   0.809   4.388   1.364 -1.2239  0.1798  0.9169
16827TIP3   OH271971   3.639   5.981   2.415  0.4846  0.1545  0.0650
16827TIP3    H171972   3.663   6.071   2.436 -0.8928  0.0695  2.3529
16827TIP3    H271973   3.573   5.989   2.347  2.9364  0.6207 -2.4271
16828TIP3   OH271974   5.267   2.610   0.560 -0.2449  0.0121 -0.0905
16828TIP3    H171975   5.202   2.614   0.489 -0.4986  1.5288  0.2010
16828TIP3    H271976   5.264   2.519   0.589 -2.0022 -0.0451 -0.3127
16829TIP3   OH271977   3.334   1.440  15.604  0.1322 -0.3439 -0.7682
16829TIP3    H171978   3.343   1.468  15.513  1.6305  1.7105 -0.0716
16829TIP3    H271979   3.412   1.475  15.647 -1.6536  0.8239  1.7889
16830TIP3   OH271980   5.946   6.362  15.392 -0.4683  0.0443  0.1182
16830TIP3    H171981   6.004   6.286  15.396  0.6275  0.8995  1.7789
16830TIP3    H271982   5.883   6.340  15.324  0.8509 -1.6030 -0.6648
16831TIP3   OH271983   2.718   5.446  10.961 -0.5831  0.9857  0.3666
16831TIP3    H171984   2.644   5.389  10.983 -0.4707  0.2163 -1.1072
16831TIP3    H271985   2.793   5.407  11.007 -0.3517 -0.5672 -1.2056
16832TIP3   OH271986   2.320   0.819  17.072  0.6129  0.2533 -0.1312
16832TIP3    H171987   2.392   0.824  17.135  0.6964  0.2826 -0.2281
16832TIP3    H271988   2.329   0.897  17.018  0.3453  0.3929  0.0254
16833TIP3   OH271989   0.633   1.939   3.536  0.0776  0.3594 -0.5035
16833TIP3    H171990   0.579   1.956   3.614  0.1134 -0.4844 -0.2756
16833TIP3    H271991   0.709   1.996   3.547  0.0095  0.3629  0.0092
16834TIP3   OH271992   1.506   0.586  11.826  0.3070  0.0662 -0.2190
16834TIP3    H171993   1.597   0.568  11.802  0.9168  4.7888 -2.5327
16834TIP3    H271994   1.511   0.658  11.889 -1.7159  2.1007 -2.1900
16835TIP3   OH271995   5.457   1.773   4.016 -0.1679  0.7569  0.1654
16835TIP3    H171996   5.505   1.853   4.035  1.4077 -0.2216  0.4908
16835TIP3    H271997   5.432   1.782   3.924  0.2454  1.4882  0.1145
16836TIP3   OH271998   2.677   6.072   1.223  0.2520  0.3008  0.3092
16836TIP3    H171999   2.695   6.016   1.299 -0.1549  0.4791  0.5395
16836TIP3    H272000   2.604   6.031   1.178 -0.1327  0.7083  0.5499
16837TIP3   OH272001   5.990   5.277  12.607  0.0988  0.7933 -0.2241
16837TIP3    H172002   6.038   5.236  12.679  0.9883  2.3511  0.1072
16837TIP3    H272003   5.921   5.214  12.586  0.7601 -0.3871  0.9471
16838TIP3   OH272004   5.142   3.119  12.085 -0.1853 -0.1099  0.1939
16838TIP3    H172005   5.089   3.170  12.024  0.2588  0.5478  0.3389
16838TIP3    H272006   5.079   3.073  12.141 -0.5917 -0.4218 -0.5123
16839TIP3   OH272007   3.156   0.264   4.654 -0.0398 -0.1499 -0.6300
16839TIP3    H172008   3.152   0.243   4.561 -0.3401 -1.1524 -0.3991
16839TIP3    H272009   3.249   0.260   4.677 -0.0817 -1.2022 -0.6060
16840TIP3   OH272010   3.170   0.912   2.863  0.6415 -0.3698 -0.0334
16840TIP3    H172011   3.173   0.896   2.769 -1.2239  0.5447 -0.2915
16840TIP3    H272012   3.100   0.854   2.895 -0.2427  0.9031  0.4068
16841TIP3   OH272013   1.352   0.004   0.731 -0.6512 -0.3225 -0.3494
16841TIP3    H172014   1.296   0.077   0.707 -1.6563 -0.2536  1.9445
16841TIP3    H272015   1.313  -0.073   0.689  0.0983  0.3227 -2.3193
16842TIP3   OH272016   0.174   2.431   4.553  0.0581  0.1934 -0.4847
16842TIP3    H172017   0.086   2.434   4.590  0.5364  0.0182  0.6984
16842TIP3    H272018   0.232   2.443   4.627  1.0684 -0.7965 -1.0809
16843TIP3   OH272019   3.826   1.731   6.095  0.2517  0.1036 -0.4048
16843TIP3    H172020   3.775   1.806   6.066  1.7357  0.9094 -1.0393
16843TIP3    H272021   3.781   1.700   6.173 -0.3730  1.6768 -0.1055
16844TIP3   OH272022   2.642   5.114   2.515 -0.2003 -0.0789  0.1596
16844TIP3    H172023   2.727   5.129   2.473 -0.7159  1.3251 -0.4286
16844TIP3    H272024   2.612   5.031   2.477  1.0044 -0.7269  0.5652
16845TIP3   OH272025   6.290   1.233   1.704  0.4923 -0.2219 -0.0117
16845TIP3    H172026   6.364   1.289   1.729 -1.2508  1.7625  1.0758
16845TIP3    H272027   6.254   1.275   1.626  0.1447 -0.8085 -0.1738
16846TIP3   OH272028   1.544   1.955   4.784  0.6048  0.4610  0.5865
16846TIP3    H172029   1.564   1.961   4.691 -0.5194  1.2779  0.3700
16846TIP3    H272030   1.486   1.879   4.792 -1.5063  1.9307  0.1489
16847TIP3   OH272031   3.278   2.534   1.450  0.6304 -0.2401 -0.6664
16847TIP3    H172032   3.362   2.487   1.448  0.9434  0.3233 -0.8469
16847TIP3    H272033   3.279   2.589   1.371 -0.5974 -1.3994 -1.5456
16848TIP3   OH272034   0.877   6.705   5.281 -0.1278  0.5248 -0.4816
16848TIP3    H172035   0.872   6.658   5.364 -1.2849 -0.7186 -1.2239
16848TIP3    H272036   0.969   6.698   5.254  0.5403  1.9417  1.2076
16849TIP3   OH272037   2.224   4.604   1.999 -0.0093  0.1405 -1.0775
16849TIP3    H172038   2.197   4.602   1.907 -1.4858  0.1756 -0.6619
16849TIP3    H272039   2.171   4.538   2.042  2.0367 -1.2561 -0.5601
16850TIP3   OH272040   2.477   0.274  12.860 -0.0678 -0.1554 -0.3013
16850TIP3    H172041   2.382   0.270  12.850 -0.1767 -0.7463  0.7893
16850TIP3    H272042   2.507   0.322  12.783 -1.5361  3.1809  1.0241
16851TIP3   OH272043   2.670   4.898  11.086 -0.8429 -0.1608 -0.7674
16851TIP3    H172044   2.614   4.972  11.108  0.3861  0.6662 -0.3300
16851TIP3    H272045   2.726   4.929  11.015  0.3121 -0.3256  0.0324
16852TIP3   OH272046   3.140   4.208  11.883  0.0381  0.5792 -0.1373
16852TIP3    H172047   3.211   4.266  11.855  0.0050  0.7752  0.1835
16852TIP3    H272048   3.141   4.137  11.819 -0.0757  1.0540 -0.6704
16853TIP3   OH272049   5.589   6.391   2.677  0.4319 -0.1493 -0.0653
16853TIP3    H172050   5.673   6.345   2.670  1.4979  1.8474 -1.9010
16853TIP3    H272051   5.545   6.373   2.594 -0.0213  0.4768  0.0369
16854TIP3   OH272052   4.253   1.168  11.650 -0.2832  0.2257  0.4673
16854TIP3    H172053   4.240   1.218  11.569 -1.2367  0.3156  0.6586
16854TIP3    H272054   4.235   1.231  11.720 -0.8561 -0.2082  0.7168
16855TIP3   OH272055   5.092   0.483  13.874 -0.1184 -0.3754 -0.1610
16855TIP3    H172056   5.051   0.540  13.939  0.2971 -1.8746  1.5211
16855TIP3    H272057   5.185   0.506  13.878 -0.4338  1.7456 -2.6395
16856TIP3   OH272058   6.717   2.910   1.454 -0.6202  0.3752 -0.5562
16856TIP3    H172059   6.706   2.977   1.388  0.9664  0.7142 -0.5308
16856TIP3    H272060   6.644   2.850   1.441 -1.9514  1.9722 -0.7126
16857TIP3   OH272061   0.309   0.349  16.210  0.4843 -0.4314 -0.3704
16857TIP3    H172062   0.289   0.318  16.299 -0.9502  2.2903  0.3697
16857TIP3    H272063   0.259   0.289  16.153  2.5265 -3.0955  0.4393
16858TIP3   OH272064   4.526   5.240  14.748 -0.0955  0.8577 -0.1021
16858TIP3    H172065   4.476   5.288  14.682  0.1973  2.2860  0.6849
16858TIP3    H272066   4.596   5.299  14.773  0.6690 -0.2466  0.4405
16859TIP3   OH272067   1.726   4.343   4.298 -0.8557  0.0636 -0.0457
16859TIP3    H172068   1.675   4.420   4.320  0.8592  1.1435  0.3231
16859TIP3    H272069   1.758   4.359   4.210  0.4019  0.3044  0.4351
16860TIP3   OH272070   5.587   3.823  12.652  0.7535 -0.0621  0.3485
16860TIP3    H172071   5.654   3.848  12.716  1.0412  0.3684 -0.1091
16860TIP3    H272072   5.565   3.733  12.673  1.8809 -0.3936  0.1710
16861TIP3   OH272073   3.958   1.531  13.638  0.4580 -0.0088  0.4273
16861TIP3    H172074   3.990   1.501  13.553 -1.2444  1.8175 -0.9573
16861TIP3    H272075   4.034   1.571  13.680  0.9045  0.7829 -1.0742
16862TIP3   OH272076   1.317   1.786   5.033  0.4634 -0.8848 -0.1280
16862TIP3    H172077   1.367   1.785   4.951 -0.5281  1.2552 -0.8595
16862TIP3    H272078   1.340   1.870   5.073 -1.8439 -0.2246 -0.0757
16863TIP3   OH272079   0.201   3.081   0.723  0.2119 -0.0182  0.4114
16863TIP3    H172080   0.142   3.085   0.648 -0.3393  1.0036  0.8810
16863TIP3    H272081   0.269   3.019   0.697 -0.1332  0.0948 -0.8114
16864TIP3   OH272082   6.245   5.433  12.575  0.2331 -0.1865 -0.5119
16864TIP3    H172083   6.157   5.421  12.611  0.6604  1.8050  1.4287
16864TIP3    H272084   6.291   5.352  12.595 -1.1430 -1.2722 -1.5955
16865TIP3   OH272085   5.807   5.535   4.229 -0.2307  0.2026  0.4274
16865TIP3    H172086   5.893   5.518   4.267  0.7797  1.6771 -1.0614
16865TIP3    H272087   5.824   5.547   4.136 -2.1109  0.2210  0.0510
16866TIP3   OH272088   4.923   4.996  13.621 -0.4757 -0.6073 -0.2856
16866TIP3    H172089   4.988   5.065  13.636 -1.2905  0.2247 -0.4714
16866TIP3    H272090   4.847   5.042  13.587 -0.1841 -1.8936 -2.9214
16867TIP3   OH272091   2.015   5.856   1.474  0.4994  0.3144  0.4096
16867TIP3    H172092   2.033   5.877   1.382 -1.0799  2.5941  0.5495
16867TIP3    H272093   1.920   5.856   1.481  0.5832 -0.1790  1.9791
16868TIP3   OH272094   5.929   0.617  12.807 -0.2600  0.1473 -0.0116
16868TIP3    H172095   5.875   0.551  12.764  0.4315 -1.3794  1.3305
16868TIP3    H272096   6.018   0.599  12.777 -0.0458  0.3823  0.4654
16869TIP3   OH272097   5.434   6.522   1.846  0.4719  0.3737  0.0776
16869TIP3    H172098   5.451   6.550   1.756 -1.2714 -1.9758 -1.1095
16869TIP3    H272099   5.354   6.568   1.871  0.1705 -0.0337 -0.1269
16870TIP3   OH272100   0.062   5.215   0.710 -0.0607 -0.1996 -0.1854
16870TIP3    H172101   0.138   5.242   0.657 -0.4440 -2.2711 -1.9785
16870TIP3    H272102  -0.013   5.225   0.651 -1.3058  2.0347  1.6303
16871TIP3   OH272103   3.206   5.844   0.227 -0.0967 -0.5505 -0.5742
16871TIP3    H172104   3.135   5.783   0.206 -0.1599 -0.2731 -1.1500
16871TIP3    H272105   3.178   5.884   0.309  0.1075 -1.5539  0.0122
16872TIP3   OH272106   0.634   5.451   0.943 -0.3974  0.1463 -0.0342
16872TIP3    H172107   0.655   5.539   0.975  1.8694 -0.4067  0.1690
16872TIP3    H272108   0.706   5.430   0.883 -0.3276 -1.9737  0.7287
16873TIP3   OH272109   6.443   1.472  12.549  0.4621 -0.3953 -0.6954
16873TIP3    H172110   6.371   1.428  12.594  0.6972 -0.9723 -0.8774
16873TIP3    H272111   6.508   1.403  12.534  1.2182  0.1918 -0.2027
16874TIP3   OH272112   3.232   1.802   1.442 -0.2673 -0.4961 -0.1102
16874TIP3    H172113   3.143   1.804   1.476 -0.1150  1.7955  0.3126
16874TIP3    H272114   3.223   1.827   1.350 -0.1960 -1.8633 -0.5041
16875TIP3   OH272115   2.024   2.072   2.739  0.1744 -0.0927  0.2384
16875TIP3    H172116   2.118   2.084   2.754  0.3087  0.1166 -0.7321
16875TIP3    H272117   1.998   2.006   2.803  1.0613 -0.4350  0.2592
16876TIP3   OH272118   2.660   1.306  12.865  0.1784 -0.0441  0.4805
16876TIP3    H172119   2.596   1.311  12.936 -0.7441 -1.3452 -0.1960
16876TIP3    H272120   2.707   1.224  12.881 -0.6625 -0.8367 -0.8477
16877TIP3   OH272121   2.432   3.274  15.468  0.2217  0.0096 -0.6254
16877TIP3    H172122   2.495   3.207  15.443  0.0489 -0.2259 -0.4293
16877TIP3    H272123   2.347   3.238  15.445 -0.1420 -1.0651  2.0465
16878TIP3   OH272124   2.320   1.315   0.262  0.2607  0.9431  0.6374
16878TIP3    H172125   2.394   1.294   0.320  0.1448 -1.0430  0.1500
16878TIP3    H272126   2.354   1.381   0.202  1.2522  0.9760  1.2065
16879TIP3   OH272127   6.381   0.197  12.269 -0.0137 -0.0501 -0.2286
16879TIP3    H172128   6.468   0.213  12.305  0.8611 -0.9350 -1.8406
16879TIP3    H272129   6.336   0.281  12.276  0.2035 -0.0682  2.5092
16880TIP3   OH272130   3.979   3.773  11.833 -0.2679  0.1282  0.0229
16880TIP3    H172131   3.905   3.765  11.893 -0.5576  3.0570  0.1824
16880TIP3    H272132   3.941   3.756  11.746 -0.6594 -0.4112  0.2919
16881TIP3   OH272133   2.884   6.113   3.237 -0.0593  0.4850 -0.4438
16881TIP3    H172134   2.888   6.049   3.307 -0.5314  1.8897  0.9290
16881TIP3    H272135   2.961   6.095   3.183  1.1664  0.2946  1.2841
16882TIP3   OH272136   4.084   0.071   3.543  0.2676  0.7098 -0.0159
16882TIP3    H172137   4.028  -0.007   3.544 -1.0869  1.6425  0.2293
16882TIP3    H272138   4.059   0.117   3.462  2.3161  0.0466 -1.0927
16883TIP3   OH272139   0.999   4.216  15.979 -0.4925  0.0054  0.1120
16883TIP3    H172140   1.001   4.151  16.049  0.7139 -1.2934 -1.0574
16883TIP3    H272141   1.059   4.181  15.913 -3.2190 -0.0220 -2.5857
16884TIP3   OH272142   2.264   6.464   0.627 -0.4310  0.1110 -0.0163
16884TIP3    H172143   2.268   6.408   0.705  1.1642  0.5243  0.2312
16884TIP3    H272144   2.308   6.545   0.653 -0.3972  0.4812 -1.1704
16885TIP3   OH272145   0.376   0.240   2.350  0.0260 -0.0798  0.1571
16885TIP3    H172146   0.356   0.307   2.284 -0.5806 -0.2658  0.1540
16885TIP3    H272147   0.350   0.280   2.433  0.8528  0.1816  0.3015
16886TIP3   OH272148   3.754   2.712   1.167 -0.0768 -0.4828 -0.3825
16886TIP3    H172149   3.813   2.740   1.097  1.4177  1.3747  1.5008
16886TIP3    H272150   3.810   2.664   1.228 -0.7732  0.1535  0.7915
16887TIP3   OH272151   5.742   1.134  16.538  0.6342  0.1005 -0.2370
16887TIP3    H172152   5.741   1.222  16.500  1.8648 -0.1596 -0.9289
16887TIP3    H272153   5.739   1.075  16.462  1.0244 -0.4443  0.1666
16888TIP3   OH272154   4.661   3.748   0.496 -0.0801 -0.0071  0.3078
16888TIP3    H172155   4.604   3.736   0.420  1.7505 -0.8838 -0.9937
16888TIP3    H272156   4.615   3.706   0.568 -1.4421  0.0330 -0.5110
16889TIP3   OH272157   5.619   6.512  11.639 -0.1452  0.3506 -0.6182
16889TIP3    H172158   5.629   6.591  11.691  0.2555 -0.0174 -0.1224
16889TIP3    H272159   5.534   6.522  11.596 -0.3168  0.8256 -0.1795
16890TIP3   OH272160   2.483   4.206  12.306 -0.0195 -0.0615 -0.3831
16890TIP3    H172161   2.436   4.151  12.244 -2.0055 -0.0605  1.0108
16890TIP3    H272162   2.471   4.163  12.391  0.6645  1.1212  0.3595
16891TIP3   OH272163   1.303   2.398  12.590  0.0114  0.5108 -0.2938
16891TIP3    H172164   1.392   2.431  12.596  0.4711 -0.5291 -0.9483
16891TIP3    H272165   1.306   2.314  12.636 -0.4973  0.2406 -0.7455
16892TIP3   OH272166   5.623   4.146  13.311 -0.9174 -0.5764  0.1109
16892TIP3    H172167   5.627   4.063  13.263 -1.2602 -0.2973 -0.4067
16892TIP3    H272168   5.645   4.122  13.401  0.7618 -0.9448 -0.3550
16893TIP3   OH272169   3.951   4.661  11.836  0.7614  0.0950 -0.7357
16893TIP3    H172170   3.888   4.727  11.809 -1.2690 -1.0181  0.9447
16893TIP3    H272171   3.982   4.622  11.754  0.1275  1.4333 -1.6473
16894TIP3   OH272172   4.702   6.680  13.926 -0.0157 -0.2218  0.1757
16894TIP3    H172173   4.611   6.681  13.958 -0.1691 -1.4615 -0.1619
16894TIP3    H272174   4.705   6.750  13.861 -0.6770 -0.0358  0.3307
16895TIP3   OH272175   0.987   3.113  11.033  0.1763 -0.2101 -0.1634
16895TIP3    H172176   1.043   3.062  10.974 -1.3696 -2.0874 -0.1163
16895TIP3    H272177   0.958   3.050  11.098 -0.7097  1.0990  0.7573
16896TIP3   OH272178   1.491   0.437  13.527  0.4334 -0.5237 -0.2439
16896TIP3    H172179   1.415   0.496  13.527  2.7965  2.7667 -1.1126
16896TIP3    H272180   1.528   0.445  13.439  3.3887  0.3575  0.9570
16897TIP3   OH272181   4.272   6.248  13.439 -0.5098  0.1845 -0.0519
16897TIP3    H172182   4.345   6.237  13.501 -0.5700 -0.6565 -0.1162
16897TIP3    H272183   4.281   6.174  13.379 -1.8882 -0.4029  0.4272
16898TIP3   OH272184   5.655   3.167   1.534 -0.1362 -0.5626 -0.5391
16898TIP3    H172185   5.704   3.248   1.517 -1.3141  0.3749  0.3959
16898TIP3    H272186   5.712   3.117   1.593  0.5502 -0.3839 -1.0324
16899TIP3   OH272187   5.039   3.314   1.561  0.3001 -0.1680 -0.4591
16899TIP3    H172188   5.014   3.235   1.608  0.0138 -0.0863 -0.4706
16899TIP3    H272189   5.089   3.283   1.486  0.1328 -0.3434 -0.4988
16900TIP3   OH272190   3.413   4.693   5.472  0.0832  0.2950 -0.6147
16900TIP3    H172191   3.327   4.661   5.498  1.0904 -1.4179  0.8979
16900TIP3    H272192   3.416   4.783   5.503 -0.6769 -0.0668  0.5638
16901TIP3   OH272193   0.100   1.218   2.143  0.3503  0.1937 -0.7131
16901TIP3    H172194   0.180   1.270   2.134  1.2501 -0.9150  0.4704
16901TIP3    H272195   0.131   1.127   2.145 -0.9428 -0.2526 -0.2241
16902TIP3   OH272196   2.324   6.402  14.529 -0.6803 -0.1502 -0.1761
16902TIP3    H172197   2.264   6.463  14.487 -0.8189 -0.7852 -0.9275
16902TIP3    H272198   2.355   6.346  14.458  2.5542  1.5282 -0.2478
16903TIP3   OH272199   1.329   4.350  14.748  0.4517  0.3978 -0.4633
16903TIP3    H172200   1.287   4.357  14.662  2.9163  2.2975 -1.6610
16903TIP3    H272201   1.388   4.276  14.740 -0.8714 -0.7865  0.3979
16904TIP3   OH272202   2.421   6.609   3.038  0.0084 -0.1478  0.2027
16904TIP3    H172203   2.475   6.537   3.005 -0.2376 -0.3309  0.2020
16904TIP3    H272204   2.352   6.620   2.973 -0.2346 -0.2317  0.4463
16905TIP3   OH272205   3.334   6.511  12.056 -0.1307 -0.0144  0.2202
16905TIP3    H172206   3.326   6.591  12.107 -1.3899 -0.5136  0.8597
16905TIP3    H272207   3.415   6.522  12.006  0.7152  0.8419  1.7059
16906TIP3   OH272208   0.526   5.094   0.953  0.4303  0.1801 -0.0583
16906TIP3    H172209   0.505   5.018   0.898 -2.4407  0.7119  0.1768
16906TIP3    H272210   0.513   5.169   0.895  0.4548  0.6051  0.4827
16907TIP3   OH272211   2.836   5.891   1.414  0.1830 -0.1770 -0.1532
16907TIP3    H172212   2.899   5.917   1.347  0.2762  2.3893  0.8236
16907TIP3    H272213   2.863   5.937   1.492 -2.8856  1.0942  0.3149
16908TIP3   OH272214   4.869   2.169   3.899 -0.0180  0.1529  0.1710
16908TIP3    H172215   4.898   2.247   3.850  0.8389 -0.7922 -0.8772
16908TIP3    H272216   4.818   2.205   3.972  1.0706  1.7335  0.2120
16909TIP3   OH272217   4.875   6.331   2.233  0.0220 -0.3987  0.4643
16909TIP3    H172218   4.802   6.269   2.229 -0.8941  0.7077 -1.2185
16909TIP3    H272219   4.946   6.288   2.185  0.1299 -1.0135  1.1538
16910TIP3   OH272220   1.977   2.298  10.950  0.6218  0.2080  0.1270
16910TIP3    H172221   1.959   2.254  10.867 -0.2742 -0.8951  0.8646
16910TIP3    H272222   1.946   2.236  11.016 -1.4427  2.2902  1.2346
16911TIP3   OH272223   4.772   6.250   1.590  0.2264  0.0898  0.1029
16911TIP3    H172224   4.730   6.323   1.546 -0.9099 -0.4905  0.2070
16911TIP3    H272225   4.862   6.252   1.557 -0.3445  0.2230 -1.5471
16912TIP3   OH272226   5.694   4.741  16.729 -0.2939  0.5276 -0.2679
16912TIP3    H172227   5.669   4.656  16.765 -0.9622  0.7517 -0.1904
16912TIP3    H272228   5.646   4.747  16.646  0.6477  0.3386 -0.8426
16913TIP3   OH272229   4.608   0.567  16.720 -0.1013  0.3651  0.6253
16913TIP3    H172230   4.635   0.587  16.630  0.6532  2.2660  1.2079
16913TIP3    H272231   4.534   0.626  16.736 -0.0842  0.2082  1.3099
16914TIP3   OH272232   6.029   3.745   4.360 -0.1011 -0.2649  0.7432
16914TIP3    H172233   6.118   3.729   4.328  0.7770  3.2504  0.9746
16914TIP3    H272234   6.036   3.738   4.455 -0.3048 -0.7596  0.7280
16915TIP3   OH272235   0.603   4.228  15.035 -0.1609 -0.3776  0.4312
16915TIP3    H172236   0.608   4.323  15.040  0.4487 -0.3757 -0.0940
16915TIP3    H272237   0.691   4.198  15.055 -0.5968 -0.8977  1.6716
16916TIP3   OH272238   4.964   0.959  15.916 -0.7634  0.5130 -0.5786
16916TIP3    H172239   4.952   0.866  15.898 -0.0177  0.0766  1.0406
16916TIP3    H272240   4.970   0.965  16.011  3.6413  1.6012 -0.7257
16917TIP3   OH272241   2.498   5.321  16.643 -0.5079 -0.0273  0.2233
16917TIP3    H172242   2.460   5.233  16.646 -1.5316  0.4161  2.6099
16917TIP3    H272243   2.491   5.353  16.733  2.1760  1.5557 -0.0411
16918TIP3   OH272244   1.530   6.238  14.906  0.7635 -0.0162  0.4665
16918TIP3    H172245   1.616   6.213  14.939  1.2198  0.2025 -0.5254
16918TIP3    H272246   1.538   6.231  14.811 -0.0275  0.9001  0.3166
16919TIP3   OH272247   1.520   5.101  13.189 -0.5135  0.6658  0.4139
16919TIP3    H172248   1.488   5.052  13.114 -1.7672  0.5786  0.9803
16919TIP3    H272249   1.590   5.047  13.226 -0.1204  0.5520 -0.4640
16920TIP3   OH272250   5.049   1.788   0.321 -0.1538 -0.2043  0.2042
16920TIP3    H172251   5.072   1.806   0.412 -2.2742  0.1434  0.7282
16920TIP3    H272252   4.977   1.849   0.302 -0.0475 -0.5825 -1.5605
16921TIP3   OH272253   4.181   5.136  12.616  0.5572  0.3634 -0.0892
16921TIP3    H172254   4.126   5.060  12.598  1.2412  0.1322 -1.2926
16921TIP3    H272255   4.161   5.198  12.545  0.1087  1.2815  0.7977
16922TIP3   OH272256   3.830   1.054  13.655 -0.1084 -0.7490  0.2314
16922TIP3    H172257   3.903   1.106  13.689 -0.9658  0.4567  0.2981
16922TIP3    H272258   3.785   1.022  13.733 -1.5180  1.2265  0.3044
16923TIP3   OH272259   1.317   5.684  16.644  0.1623  0.3856 -0.2976
16923TIP3    H172260   1.322   5.595  16.609 -1.9799  0.1685 -0.1789
16923TIP3    H272261   1.328   5.741  16.567 -0.8653 -0.0427 -0.7844
16924TIP3   OH272262   3.302   1.476   3.865  0.3448 -0.0371  0.2954
16924TIP3    H172263   3.381   1.448   3.819  1.0402 -0.1134  1.4826
16924TIP3    H272264   3.231   1.430   3.820  0.9176  0.3539 -1.0482
16925TIP3   OH272265   6.513   6.132  11.826 -0.3190  0.2687  0.0442
16925TIP3    H172266   6.473   6.065  11.881  1.4145 -0.5802  0.3300
16925TIP3    H272267   6.577   6.085  11.773 -0.6492  1.3621 -1.3978
16926TIP3   OH272268   0.800   3.879  11.546  0.6654 -0.7219  0.0528
16926TIP3    H172269   0.734   3.837  11.602  0.7184 -1.5427 -0.4991
16926TIP3    H272270   0.859   3.809  11.520  1.0392 -0.2203 -0.4886
16927TIP3   OH272271   3.053   4.652   5.089 -0.0935 -0.1628 -0.7490
16927TIP3    H172272   3.146   4.648   5.069  0.2972 -1.4090  1.0179
16927TIP3    H272273   3.047   4.708   5.166 -0.7348 -0.5305 -0.5222
16928TIP3   OH272274   2.122   3.285  14.357 -0.0619 -0.2106 -0.4685
16928TIP3    H172275   2.027   3.281  14.369 -0.2337  0.2675 -1.5929
16928TIP3    H272276   2.135   3.281  14.263  1.0807 -0.9003 -0.3051
16929TIP3   OH272277   2.253   4.207   5.531  0.4579 -0.3779  0.0175
16929TIP3    H172278   2.160   4.185   5.526  0.4023  0.1898 -2.8306
16929TIP3    H272279   2.270   4.216   5.625 -2.8031  1.3840  0.5730
16930TIP3   OH272280   3.996   6.815  10.639 -0.4392  0.2065 -0.6067
16930TIP3    H172281   4.018   6.899  10.680 -0.4556 -0.2341  0.3268
16930TIP3    H272282   4.070   6.758  10.659 -1.7118 -0.8613  1.3182
16931TIP3   OH272283   5.033   5.863  11.316 -0.1976  0.3574 -0.2166
16931TIP3    H172284   5.113   5.911  11.294  1.1105 -1.0121  1.2616
16931TIP3    H272285   5.024   5.873  11.411 -0.1815 -1.7397  0.0668
16932TIP3   OH272286   0.482   5.587   4.014  0.3611  0.3172  0.2176
16932TIP3    H172287   0.426   5.645   3.963  1.5618  1.0358 -0.3330
16932TIP3    H272288   0.452   5.499   3.992 -0.6053  0.6935  0.0196
16933TIP3   OH272289   5.088   6.615  10.962 -0.1114 -0.2295 -0.5679
16933TIP3    H172290   5.111   6.708  10.962 -0.2027 -0.2063 -0.2449
16933TIP3    H272291   5.104   6.586  10.872  0.5655 -0.0615 -0.5066
16934TIP3   OH272292   4.523   3.317   1.964 -0.6561  0.2346  0.2864
16934TIP3    H172293   4.591   3.291   1.902 -1.2719  1.4740 -0.9771
16934TIP3    H272294   4.496   3.236   2.007 -0.2115 -0.6730 -1.0933
16935TIP3   OH272295   2.754   2.323  15.676 -0.5702  0.2995  0.0125
16935TIP3    H172296   2.663   2.348  15.660 -0.9132  0.7585  2.2227
16935TIP3    H272297   2.772   2.253  15.614 -1.8572  1.3704 -1.6504
16936TIP3   OH272298   5.992   2.371   4.567 -0.3821  0.4430 -0.6516
16936TIP3    H172299   5.964   2.438   4.629 -0.8801  1.5602 -2.0186
16936TIP3    H272300   5.942   2.389   4.487 -0.8899 -1.8696 -0.9412
16937TIP3   OH272301   0.623   3.999  11.261  0.2630 -0.1126 -0.3196
16937TIP3    H172302   0.596   4.031  11.348 -0.9091  0.4754 -0.8747
16937TIP3    H272303   0.694   3.938  11.279 -0.8370 -1.0180  1.1625
16938TIP3   OH272304   1.106   5.270  14.437 -0.3469 -0.3441 -0.4121
16938TIP3    H172305   1.117   5.311  14.522 -0.8194 -0.8394 -0.1020
16938TIP3    H272306   1.192   5.276  14.396  0.5415 -2.1116  1.0179
16939TIP3   OH272307   1.993   4.962   4.130  0.4520  0.1785 -0.3309
16939TIP3    H172308   1.928   4.981   4.197  0.1393  1.3643 -0.9337
16939TIP3    H272309   2.077   4.973   4.173  0.2637 -1.2440  0.4255
16940TIP3   OH272310   4.963   0.451   5.687 -0.1434 -0.2805 -0.2365
16940TIP3    H172311   4.945   0.357   5.678 -2.2853 -0.0366  0.8032
16940TIP3    H272312   5.005   0.476   5.606  0.6975 -2.1977 -0.4319
16941TIP3   OH272313   3.570   0.232   3.928  0.8502 -0.2448  0.1249
16941TIP3    H172314   3.659   0.266   3.944  0.5357  1.1159 -0.8439
16941TIP3    H272315   3.515   0.310   3.923 -0.3389 -1.0493  0.2265
16942TIP3   OH272316   1.162   5.203  11.002  0.0326  0.0200 -0.3422
16942TIP3    H172317   1.216   5.143  11.053 -2.2602 -1.3879  0.5584
16942TIP3    H272318   1.132   5.150  10.928 -2.2217 -0.0930  0.5914
16943TIP3   OH272319   4.056   1.372  12.195 -0.1376 -0.1618  0.3237
16943TIP3    H172320   4.132   1.325  12.162 -1.2590 -1.7382 -0.1464
16943TIP3    H272321   4.026   1.321  12.270 -0.5076  0.6583  0.7568
16944TIP3   OH272322   1.489   2.696  17.217  0.4498  0.4482 -0.4335
16944TIP3    H172323   1.395   2.681  17.219  0.9131 -4.3614 -2.4102
16944TIP3    H272324   1.517   2.681  17.308 -0.5810  1.9968  0.1883
16945TIP3   OH272325   2.740   3.469   0.542 -0.2517 -0.0886  0.1559
16945TIP3    H172326   2.784   3.395   0.584  0.8836  0.3194 -0.2812
16945TIP3    H272327   2.775   3.546   0.585 -0.7094  0.2453 -0.0553
16946TIP3   OH272328   0.510   4.591   1.896  0.1645 -0.0871  0.5224
16946TIP3    H172329   0.604   4.603   1.881  0.2115 -1.5974 -0.6867
16946TIP3    H272330   0.474   4.679   1.899  1.3423  0.4835 -0.9952
16947TIP3   OH272331   1.370   2.198  17.214 -0.5013 -0.4878  0.1010
16947TIP3    H172332   1.351   2.128  17.277 -0.0881 -0.3022  0.4416
16947TIP3    H272333   1.452   2.237  17.246 -2.2727  2.2094  1.7844
16948TIP3   OH272334   5.223   0.944   5.422 -0.0869  0.5492 -1.1051
16948TIP3    H172335   5.167   1.007   5.376  1.9995  3.5182  0.1303
16948TIP3    H272336   5.166   0.905   5.488 -1.6300  0.5458 -2.3805
16949TIP3   OH272337   6.603   4.856   5.339 -0.0500  0.1322 -0.2923
16949TIP3    H172338   6.577   4.936   5.385 -3.6190 -1.1688  0.2657
16949TIP3    H272339   6.653   4.806   5.403  0.9334  1.2353 -0.1690
16950TIP3   OH272340   1.242   3.806   1.448 -0.0944 -0.1382 -0.1620
16950TIP3    H172341   1.188   3.780   1.523  1.3028 -1.8604  0.3044
16950TIP3    H272342   1.308   3.865   1.486  1.8401 -2.5323  0.4699
16951TIP3   OH272343   0.744   1.354   6.003 -0.6475  0.2177  0.5657
16951TIP3    H172344   0.698   1.308   6.073 -0.1760 -0.0801  0.6867
16951TIP3    H272345   0.760   1.442   6.039 -1.2492  0.3732  0.4628
16952TIP3   OH272346   5.072   5.925   5.657  0.2465 -0.0343 -0.5191
16952TIP3    H172347   5.125   5.867   5.710  1.0495  1.5552  0.5123
16952TIP3    H272348   5.131   5.997   5.633 -1.3903  1.9038  0.8244
16953TIP3   OH272349   4.918   4.579  13.259 -0.0870 -0.1325  0.0144
16953TIP3    H172350   4.902   4.637  13.333 -0.1361  1.4598 -1.1917
16953TIP3    H272351   5.014   4.572  13.255 -0.0974 -0.5316  0.4578
16954TIP3   OH272352   2.374   0.046  16.496  0.1955  0.6819  0.0999
16954TIP3    H172353   2.411   0.102  16.564 -0.9170  1.9631 -0.3337
16954TIP3    H272354   2.446   0.036  16.433  0.6865  0.8743  0.6135
16955TIP3   OH272355   2.629   1.648   6.407  0.6457 -0.3341  0.2627
16955TIP3    H172356   2.565   1.668   6.474  0.6790  0.1509  0.1494
16955TIP3    H272357   2.597   1.567   6.366  0.1800 -0.1667  0.2953
16956TIP3   OH272358   2.851   3.076  16.102 -0.3336 -0.2690 -0.0961
16956TIP3    H172359   2.934   3.083  16.149 -0.0239 -0.8903 -0.5334
16956TIP3    H272360   2.786   3.057  16.170 -0.1717  0.5488  0.2875
16957TIP3   OH272361   3.465   3.056  16.702 -0.3277 -0.1514  0.6153
16957TIP3    H172362   3.531   3.123  16.719  0.9099 -1.4532  1.1616
16957TIP3    H272363   3.434   3.074  16.614  1.2129  0.1539  0.1081
16958TIP3   OH272364   0.687   3.126  16.404 -0.6221 -0.6110 -0.3462
16958TIP3    H172365   0.731   3.076  16.472  1.6114 -0.5600 -1.6737
16958TIP3    H272366   0.677   3.065  16.332 -1.5707 -0.2338 -0.5513
16959TIP3   OH272367   5.373   5.537  13.518  0.6600 -0.3165  0.2934
16959TIP3    H172368   5.417   5.615  13.484  0.4190 -1.1088 -2.0602
16959TIP3    H272369   5.441   5.469  13.520  0.1964 -0.8436 -0.7727
16960TIP3   OH272370   4.620   1.826  12.356 -0.0944  0.0903 -0.4215
16960TIP3    H172371   4.566   1.902  12.331 -1.8714 -0.7251  0.7121
16960TIP3    H272372   4.650   1.790  12.273  2.4265  3.0751 -0.9878
16961TIP3   OH272373   4.051   6.396   6.008 -0.2459 -0.3182  0.1882
16961TIP3    H172374   4.043   6.454   5.932  1.5126 -1.4953 -0.9581
16961TIP3    H272375   4.001   6.318   5.984  1.7365 -1.4388 -0.6260
16962TIP3   OH272376   4.653   4.258   1.122 -0.1237  0.0742 -0.6047
16962TIP3    H172377   4.679   4.169   1.148 -1.0346 -0.3009 -0.9266
16962TIP3    H272378   4.730   4.312   1.139 -0.2725 -0.3429  1.8556
16963TIP3   OH272379   0.305   0.667  14.431  0.0613 -0.6916  0.3913
16963TIP3    H172380   0.254   0.587  14.422  0.3938 -1.1966  2.4539
16963TIP3    H272381   0.364   0.667  14.356  0.2354 -2.4999  0.4918
16964TIP3   OH272382   0.547   5.308  11.289  0.6330 -0.0120  0.0245
16964TIP3    H172383   0.510   5.221  11.308  0.9169 -0.3017 -0.7190
16964TIP3    H272384   0.609   5.324  11.360  1.0590 -0.7079 -0.1840
16965TIP3   OH272385   6.432   3.701  16.380  0.5923  0.5727  0.3437
16965TIP3    H172386   6.519   3.686  16.343  1.1897  1.0428  1.5067
16965TIP3    H272387   6.388   3.757  16.316  2.2939  3.0161  1.1416
16966TIP3   OH272388   5.637   2.740   6.429 -0.3779 -0.8286 -0.6222
16966TIP3    H172389   5.655   2.680   6.501 -2.9798 -0.7656  0.1859
16966TIP3    H272390   5.598   2.817   6.471 -1.6325 -0.6433 -2.0460
16967TIP3   OH272391   6.342   4.294   4.010  0.6197 -0.6750  0.6882
16967TIP3    H172392   6.368   4.385   4.019  0.9904 -0.7554  0.4656
16967TIP3    H272393   6.424   4.247   3.998  0.3151 -0.8201 -1.0558
16968TIP3   OH272394   4.977   5.563   6.267  0.5098 -0.0011 -0.1479
16968TIP3    H172395   4.883   5.565   6.248  1.0340  0.3260 -3.1081
16968TIP3    H272396   5.006   5.478   6.234  1.5793  0.6971 -1.0413
16969TIP3   OH272397   5.777   3.022   2.115 -0.2573  0.0924  0.5807
16969TIP3    H172398   5.711   3.052   2.052  0.3028  1.0783  0.4502
16969TIP3    H272399   5.768   3.082   2.190  0.2783  0.0466  0.6875
16970TIP3   OH272400   5.582   6.195   2.345 -0.3189  0.6292 -0.1041
16970TIP3    H172401   5.675   6.175   2.339 -0.4720 -0.3016  0.2959
16970TIP3    H272402   5.576   6.290   2.338  0.4713  0.5767 -2.2206
16971TIP3   OH272403   1.789   1.341  13.795  0.0922 -0.1138 -0.3231
16971TIP3    H172404   1.751   1.318  13.711 -2.7910 -0.3504  0.9395
16971TIP3    H272405   1.801   1.257  13.840  2.6585 -0.0926 -0.8182
16972TIP3   OH272406   3.137   6.762   4.204 -0.1631 -0.0745  0.1272
16972TIP3    H172407   3.148   6.851   4.172 -0.2604  0.1515  0.7010
16972TIP3    H272408   3.073   6.723   4.145 -0.7942  0.5207  0.4028
16973TIP3   OH272409   0.599   0.495   1.799  0.0508  0.0719 -0.0980
16973TIP3    H172410   0.512   0.511   1.838  0.4301  0.5050  0.6019
16973TIP3    H272411   0.658   0.551   1.850  0.6102  0.4915 -1.1725
16974TIP3   OH272412   6.322   0.487  10.742  0.3915  0.2188  0.3629
16974TIP3    H172413   6.275   0.456  10.819  2.1860  0.0609  1.4521
16974TIP3    H272414   6.411   0.505  10.774  0.6725  1.9762 -1.2596
16975TIP3   OH272415   2.818   6.021  17.150  0.2648 -0.1257 -0.3791
16975TIP3    H172416   2.745   5.996  17.207  1.4126 -0.9896  0.7692
16975TIP3    H272417   2.850   6.103  17.187 -0.3525  0.4515 -1.1119
16976TIP3   OH272418   2.811   2.052   0.354  0.2074 -0.2097  0.3350
16976TIP3    H172419   2.895   2.094   0.375  0.8671 -1.8660  1.2422
16976TIP3    H272420   2.778   2.022   0.439 -1.5637  0.8364  0.0496
16977TIP3   OH272421   4.842   1.600  10.692  0.8732 -0.3975  0.3460
16977TIP3    H172422   4.787   1.548  10.634  0.0859  1.1184 -0.3225
16977TIP3    H272423   4.813   1.690  10.678  2.8216  0.3469  0.7584
16978TIP3   OH272424   2.449   6.389  16.871  0.2294  0.4956  0.3095
16978TIP3    H172425   2.468   6.431  16.788 -1.0233  0.7383  0.1308
16978TIP3    H272426   2.535   6.361  16.904  0.7156  0.1654 -1.1640
16979TIP3   OH272427   0.464   3.516   4.450 -0.0573  0.2805 -0.9507
16979TIP3    H172428   0.500   3.453   4.387  0.2786 -1.3255  0.7658
16979TIP3    H272429   0.370   3.497   4.451 -0.3087  1.3399 -2.0310
16980TIP3   OH272430   3.272   3.583   3.547  0.0643  0.0571 -0.0191
16980TIP3    H172431   3.357   3.617   3.574 -0.0895  1.0801 -0.7389
16980TIP3    H272432   3.231   3.657   3.501 -1.4752 -0.2073  0.8765
16981TIP3   OH272433   4.222   0.871   2.156 -0.0885 -0.1417 -0.0367
16981TIP3    H172434   4.149   0.928   2.129  0.2817  1.3345  1.8069
16981TIP3    H272435   4.194   0.837   2.241  1.2237  0.1919  0.5444
16982TIP3   OH272436   2.724   2.635   6.167  0.1190 -0.0428 -0.3689
16982TIP3    H172437   2.777   2.683   6.104  2.6197  1.0275  2.2777
16982TIP3    H272438   2.634   2.658   6.145  0.9977  2.3243 -1.9689
16983TIP3   OH272439   1.194   3.461  16.059  0.1601 -0.4525 -0.5884
16983TIP3    H172440   1.249   3.518  16.113  2.4271 -1.9079 -1.2264
16983TIP3    H272441   1.161   3.395  16.121 -1.2211  0.5903 -0.1478
16984TIP3   OH272442   6.341   5.507  13.061  0.4899  0.1235 -0.3051
16984TIP3    H172443   6.353   5.422  13.105 -0.1858 -0.1232 -0.5843
16984TIP3    H272444   6.315   5.567  13.131 -0.5876 -0.2694 -0.3460
16985TIP3   OH272445   6.358   4.296   1.111 -0.1446  0.3444  0.2900
16985TIP3    H172446   6.293   4.352   1.153 -0.8128 -0.0223 -0.2335
16985TIP3    H272447   6.367   4.331   1.023  0.0619  0.1509  0.2332
16986TIP3   OH272448   3.020   3.726   1.469  0.0451 -0.2131  0.3321
16986TIP3    H172449   3.038   3.648   1.416 -1.3673 -0.6218  0.4311
16986TIP3    H272450   3.097   3.781   1.456  0.3268 -0.8900 -1.0754
16987TIP3   OH272451   5.086   2.617   4.719  0.1117  0.3661 -0.7724
16987TIP3    H172452   5.155   2.644   4.658 -0.2051 -1.7965 -2.1711
16987TIP3    H272453   5.095   2.522   4.725 -1.7246  0.2277  0.3121
16988TIP3   OH272454   6.010   2.736   1.118  0.0648  0.3643  0.4348
16988TIP3    H172455   6.096   2.693   1.110 -1.4571 -3.1541  1.0769
16988TIP3    H272456   5.987   2.728   1.210 -2.0863 -1.3934 -0.1620
16989TIP3   OH272457   6.218   5.625  15.119 -0.3155  0.2443 -0.4484
16989TIP3    H172458   6.217   5.651  15.026  1.4088  1.0298 -0.2811
16989TIP3    H272459   6.307   5.595  15.135 -1.6154 -4.0125 -0.0635
16990TIP3   OH272460   1.899   0.251  13.692  0.4887 -0.1313 -0.0485
16990TIP3    H172461   1.912   0.238  13.599  0.7604  0.0863 -0.0421
16990TIP3    H272462   1.847   0.332  13.697 -1.9414 -1.6009 -0.1323
16991TIP3   OH272463   6.453   6.268   5.154  0.1109 -0.1675  0.4655
16991TIP3    H172464   6.469   6.346   5.208 -0.1770  0.6782 -0.6316
16991TIP3    H272465   6.359   6.251   5.164  0.4398 -1.2960  1.8801
16992TIP3   OH272466   5.802   2.648   2.995 -0.4781 -0.5832 -0.2122
16992TIP3    H172467   5.788   2.640   2.901  0.3413 -1.7409 -0.2536
16992TIP3    H272468   5.802   2.558   3.028 -4.1909 -0.1429  1.4671
16993TIP3   OH272469   3.773   2.082   3.321  0.0203 -0.9008 -0.0963
16993TIP3    H172470   3.705   2.146   3.343  1.5645  1.4655 -1.7180
16993TIP3    H272471   3.827   2.077   3.400  0.0758  0.0860 -0.0580
16994TIP3   OH272472   2.457   4.354  13.655  0.0319  0.2560 -0.3045
16994TIP3    H172473   2.433   4.385  13.742 -0.0661 -0.0520 -0.2191
16994TIP3    H272474   2.401   4.278  13.641  0.5687 -0.1449 -0.3262
16995TIP3   OH272475   6.734   3.155  13.667 -0.1659  0.2139 -0.0446
16995TIP3    H172476   6.703   3.106  13.743  1.1886 -2.8380 -1.2980
16995TIP3    H272477   6.829   3.163  13.680  0.0937 -0.4004 -1.3802
16996TIP3   OH272478   5.877   4.760   6.384 -0.2449  0.2753 -0.4789
16996TIP3    H172479   5.857   4.815   6.459 -0.6835  0.0105 -0.4007
16996TIP3    H272480   5.792   4.733   6.350 -0.0388 -0.2104 -0.6203
16997TIP3   OH272481   3.120   4.215   2.226  0.1140  0.0764 -0.2493
16997TIP3    H172482   3.169   4.296   2.208 -0.1866 -0.0771 -1.9310
16997TIP3    H272483   3.149   4.155   2.158 -0.3960 -0.9278  0.4061
16998TIP3   OH272484   1.418   6.479   0.254 -0.0070  0.2569 -0.0875
16998TIP3    H172485   1.365   6.496   0.176 -1.0995 -0.0073  0.5668
16998TIP3    H272486   1.463   6.561   0.271  2.2844 -0.3727 -2.4447
16999TIP3   OH272487   6.217   1.028   0.835 -0.1197 -0.4915 -0.2923
16999TIP3    H172488   6.172   0.943   0.835 -1.8815  0.3956 -0.2987
16999TIP3    H272489   6.265   1.030   0.753 -1.7371 -0.6583 -1.2808
17000TIP3   OH272490   4.494   0.878   2.260  0.0616 -0.1968  0.4935
17000TIP3    H172491   4.547   0.945   2.216  0.7068  0.2186  1.8288
17000TIP3    H272492   4.409   0.884   2.218  1.1295 -1.1398 -1.9889
17001TIP3   OH272493   4.155   6.472   5.700 -0.1573 -0.3836 -0.2519
17001TIP3    H172494   4.148   6.399   5.639  1.1023 -0.0746 -0.7877
17001TIP3    H272495   4.248   6.495   5.701 -0.4614  0.9402  0.2243
17002TIP3   OH272496   5.062   3.421   5.543  0.1328  0.2075 -0.1514
17002TIP3    H172497   5.075   3.436   5.636  1.3323  1.8029 -0.5208
17002TIP3    H272498   5.146   3.385   5.513 -0.2928 -0.4392 -0.6028
17003TIP3   OH272499   0.302   4.660   6.637 -0.3189  0.1219  0.1802
17003TIP3    H172500   0.337   4.632   6.721  0.0358 -0.0433 -0.0194
17003TIP3    H272501   0.275   4.751   6.651  0.9474  0.5220  0.1256
17004TIP3   OH272502   6.409   0.253  11.495  0.0626  0.2263  1.0066
17004TIP3    H172503   6.347   0.206  11.440  1.4481 -1.2219  0.5905
17004TIP3    H272504   6.394   0.218  11.583  1.1778 -1.1767  0.6774
17005TIP3   OH272505   2.959   6.189  13.596 -0.6914 -0.2062  1.1162
17005TIP3    H172506   2.987   6.099  13.579  1.5083  0.4123  1.2590
17005TIP3    H272507   2.894   6.180  13.666  0.3334 -1.6026  1.9499
17006TIP3   OH272508   4.418   0.406   5.089 -0.4124 -0.3973  0.3753
17006TIP3    H172509   4.379   0.462   5.022 -0.0608 -1.7709 -1.0524
17006TIP3    H272510   4.351   0.401   5.157  0.3465  3.3637  1.5943
17007TIP3   OH272511   2.932   4.108  11.228  0.7484  0.4827  0.1056
17007TIP3    H172512   2.915   4.201  11.243 -1.2941  0.1686  0.0917
17007TIP3    H272513   2.899   4.092  11.139 -0.3123 -0.5278  0.6509
17008TIP3   OH272514   0.714   0.325  15.439  0.3136 -0.3125 -0.4270
17008TIP3    H172515   0.642   0.305  15.500  1.8855 -1.7594  1.0638
17008TIP3    H272516   0.772   0.383  15.490  1.9030 -1.9388 -0.2939
17009TIP3   OH272517   3.678   1.913  12.494  0.1066  0.4616  0.0071
17009TIP3    H172518   3.768   1.930  12.523 -0.1120 -0.0362  1.0585
17009TIP3    H272519   3.627   1.985  12.531  0.0023  0.4706 -0.1556
17010TIP3   OH272520   5.311   4.663   5.453 -0.5493 -0.4097 -0.4081
17010TIP3    H172521   5.342   4.667   5.543  0.9431 -0.6612 -0.8793
17010TIP3    H272522   5.222   4.628   5.459 -0.5401 -0.2332  0.9651
17011TIP3   OH272523   0.800   1.664  14.232 -0.3858 -0.0435 -0.2091
17011TIP3    H172524   0.776   1.643  14.142 -1.3338  2.8697 -0.7384
17011TIP3    H272525   0.804   1.579  14.276 -1.1981 -1.4591 -2.6609
17012TIP3   OH272526   4.521   5.145  14.989  0.6698 -0.2422 -0.0906
17012TIP3    H172527   4.505   5.174  14.899  4.4783 -0.5019 -1.0569
17012TIP3    H272528   4.495   5.219  15.043  0.8558  1.0513 -1.6833
17013TIP3   OH272529   3.507   2.790   1.198 -0.0027  0.1195 -0.1874
17013TIP3    H172530   3.589   2.753   1.166 -0.7576 -0.3385 -1.6866
17013TIP3    H272531   3.521   2.803   1.291  1.1253 -1.7012 -0.0606
17014TIP3   OH272532   5.272   2.805   0.098 -0.5945 -0.3286  0.2731
17014TIP3    H172533   5.306   2.761   0.177  0.2861  1.2239  0.8068
17014TIP3    H272534   5.226   2.882   0.132  0.4388  0.7701 -0.7253
17015TIP3   OH272535   0.213   4.925  12.999  0.6856  0.0393 -0.2512
17015TIP3    H172536   0.262   4.858  13.047  0.5237 -0.9304 -1.3713
17015TIP3    H272537   0.280   4.981  12.961  0.9470 -0.8607 -1.1859
17016TIP3   OH272538   4.311   2.512   3.755  0.3811  0.1467  0.3598
17016TIP3    H172539   4.341   2.435   3.707  0.4082 -0.3106  1.0948
17016TIP3    H272540   4.235   2.482   3.804  0.3383  0.6119  0.5839
17017TIP3   OH272541   4.679   0.915  16.883  0.4090  0.0251 -0.1256
17017TIP3    H172542   4.666   0.882  16.794 -1.1835 -0.6515  0.3158
17017TIP3    H272543   4.741   0.855  16.923 -3.3848 -3.5670  1.0945
17018TIP3   OH272544   5.821   1.840   3.054  0.5486 -0.6341  0.3179
17018TIP3    H172545   5.880   1.838   2.979  0.0683 -1.9497 -0.0666
17018TIP3    H272546   5.870   1.798   3.125 -0.3693 -3.1779 -0.4222
17019TIP3   OH272547   0.620   6.409  13.201  0.1739 -0.1477 -0.0356
17019TIP3    H172548   0.597   6.351  13.273 -0.8771 -1.0083 -1.0055
17019TIP3    H272549   0.564   6.486  13.213 -0.4550 -0.5580 -0.2412
17020TIP3   OH272550   1.679   5.209   5.069 -0.1361 -0.2049 -0.3724
17020TIP3    H172551   1.669   5.197   5.164  0.6292 -0.4775 -0.3186
17020TIP3    H272552   1.739   5.283   5.061 -1.4508  0.8641 -0.6721
17021TIP3   OH272553   6.246   4.835  16.978  0.1285  0.0525  0.1177
17021TIP3    H172554   6.162   4.863  17.014  0.0829 -0.3660  0.3422
17021TIP3    H272555   6.237   4.740  16.967  0.9163 -0.1447  1.0682
17022TIP3   OH272556   5.588   5.647  17.062  0.1393 -0.4104  0.0554
17022TIP3    H172557   5.511   5.637  17.118  0.6456  1.0776  1.0984
17022TIP3    H272558   5.653   5.690  17.118  0.8943  0.5451 -1.4848
17023TIP3   OH272559   5.972   6.623   0.156  0.0087  0.3451  0.3973
17023TIP3    H172560   6.017   6.539   0.146  2.2392  1.5192 -0.0401
17023TIP3    H272561   5.939   6.621   0.246 -0.1700 -1.0719  0.3269
17024TIP3   OH272562   0.212   5.880   2.526  0.1711  0.4122  0.3513
17024TIP3    H172563   0.193   5.813   2.460 -0.8644  0.3989  0.6480
17024TIP3    H272564   0.173   5.846   2.607 -1.3754  1.8631  0.2625
17025TIP3   OH272565   0.461   3.380   3.720 -0.3942 -0.2861  0.3421
17025TIP3    H172566   0.374   3.382   3.760 -0.0697  0.1341  1.0438
17025TIP3    H272567   0.445   3.350   3.631 -1.6401  2.5812 -0.5271
17026TIP3   OH272568   0.696   5.427   1.944 -0.4926 -0.5080 -0.3147
17026TIP3    H172569   0.790   5.420   1.963 -0.2855  0.4593 -0.9137
17026TIP3    H272570   0.653   5.398   2.025  0.3343  0.5085  0.5184
17027TIP3   OH272571   6.767   4.828  12.565 -1.1360  0.4595 -0.1018
17027TIP3    H172572   6.841   4.862  12.615 -0.2044  0.0537 -1.1419
17027TIP3    H272573   6.780   4.733  12.564 -1.6928  0.3801 -0.2694
17028TIP3   OH272574   0.346   1.896   3.778  0.3850 -0.1052  0.4396
17028TIP3    H172575   0.317   1.892   3.869 -1.6102  0.3746 -0.1234
17028TIP3    H272576   0.393   1.979   3.772  1.6859 -0.7490  1.3150
17029TIP3   OH272577   3.343   5.443  16.335  0.6674  0.3836  0.2043
17029TIP3    H172578   3.257   5.458  16.295 -0.4307  1.8825  2.8937
17029TIP3    H272579   3.391   5.524  16.317  0.9984  0.1457  0.0034
17030TIP3   OH272580   6.352   3.882   0.628  0.8701  0.0534 -0.2051
17030TIP3    H172581   6.290   3.951   0.604  0.1108 -0.3260  0.6070
17030TIP3    H272582   6.435   3.928   0.643  0.6759  0.6256 -0.8426
17031TIP3   OH272583   5.194   4.342  15.622 -0.5299  0.1390 -0.0178
17031TIP3    H172584   5.195   4.374  15.712 -0.4149 -1.3880  0.5535
17031TIP3    H272585   5.257   4.397  15.576 -0.7754  1.1023  0.7698
17032TIP3   OH272586   6.620   5.624  15.428  0.0689  0.3097 -0.4720
17032TIP3    H172587   6.629   5.719  15.415  1.1231  0.2081 -0.6073
17032TIP3    H272588   6.533   5.613  15.465 -0.1251  1.3231 -0.5903
17033TIP3   OH272589   5.473   5.864  16.860  0.0733 -0.1488  0.2267
17033TIP3    H172590   5.532   5.909  16.920 -0.5727  0.6561  0.2686
17033TIP3    H272591   5.424   5.934  16.818  0.1070 -0.7376 -0.8225
17034TIP3   OH272592   1.407   3.616  12.108  0.3042  1.0689  0.3083
17034TIP3    H172593   1.320   3.623  12.068  0.9245  0.2695 -1.2924
17034TIP3    H272594   1.405   3.532  12.155 -0.0661  1.4659  1.0028
17035TIP3   OH272595   6.283   4.962  12.096 -0.3729 -0.1634  0.3611
17035TIP3    H172596   6.214   5.016  12.137  2.0308  1.6548  2.3665
17035TIP3    H272597   6.349   5.025  12.070  0.6985 -1.8748 -1.2738
17036TIP3   OH272598   1.696   1.756  14.804  0.6492 -0.3119 -0.5639
17036TIP3    H172599   1.673   1.696  14.733 -0.8400  0.6312 -0.8962
17036TIP3    H272600   1.740   1.829  14.761  0.5548 -0.1591 -0.4004
17037TIP3   OH272601   2.043   4.078   3.325  0.5101 -0.1503  0.5751
17037TIP3    H172602   1.963   4.079   3.377  1.3179 -0.9961  1.8839
17037TIP3    H272603   2.057   4.170   3.300 -1.4808 -0.1317 -0.7121
17038TIP3   OH272604   4.822   1.384   0.417 -0.0760  0.2473  0.2855
17038TIP3    H172605   4.844   1.301   0.459  0.5036 -0.2183 -0.8813
17038TIP3    H272606   4.858   1.376   0.328 -1.0353  1.2834 -0.2263
17039TIP3   OH272607   1.121   2.999   1.505 -0.1187 -0.2352 -0.7694
17039TIP3    H172608   1.029   2.987   1.531 -0.1878 -0.0172 -0.9046
17039TIP3    H272609   1.171   2.954   1.573 -0.2870  0.5562 -0.0970
17040TIP3   OH272610   1.906   1.337   4.270 -0.7695 -0.2852  0.2589
17040TIP3    H172611   1.982   1.366   4.320 -2.0132 -2.8284  4.0729
17040TIP3    H272612   1.935   1.258   4.225 -0.2374  0.8635 -1.5515
17041TIP3   OH272613   0.437   4.853   1.944 -0.4540 -0.6790 -0.1527
17041TIP3    H172614   0.345   4.867   1.965 -0.4267  1.4676 -1.1813
17041TIP3    H272615   0.471   4.941   1.927  1.9168 -1.3756  0.6695
17042TIP3   OH272616   0.010   0.774   1.741 -0.1655 -0.8484  0.4556
17042TIP3    H172617   0.002   0.742   1.651  1.1724 -1.7075  0.6096
17042TIP3    H272618  -0.078   0.803   1.764 -0.4447 -0.1774 -1.2777
17043TIP3   OH272619   1.030   3.071  13.890 -0.0548 -0.2781 -0.0441
17043TIP3    H172620   1.125   3.063  13.901  0.0052 -1.1721 -1.0996
17043TIP3    H272621   1.019   3.107  13.801 -0.7429 -2.9231 -1.1251
17044TIP3   OH272622   4.561   2.484   1.642  0.2240  0.1054  0.2339
17044TIP3    H172623   4.597   2.412   1.591 -0.9380  0.5853 -1.3428
17044TIP3    H272624   4.466   2.474   1.636  0.0489  0.6459  1.6624
17045TIP3   OH272625   3.103   1.354   5.065  0.4532 -0.4399 -0.4117
17045TIP3    H172626   3.027   1.352   5.007  1.4652 -4.1521 -1.8870
17045TIP3    H272627   3.152   1.431   5.038 -1.3114  0.3880 -1.4148
17046TIP3   OH272628   1.263   5.639  14.571 -0.3598  0.1676 -0.5734
17046TIP3    H172629   1.216   5.557  14.583  0.3186 -0.8537 -3.8971
17046TIP3    H272630   1.322   5.643  14.646 -0.1292 -2.6462 -0.4814
17047TIP3   OH272631   4.232   0.494  11.770  0.1182  0.4036 -0.1748
17047TIP3    H172632   4.213   0.529  11.857 -0.9739  0.1779 -0.3146
17047TIP3    H272633   4.175   0.418  11.761  1.3288 -0.4989 -0.5030
17048TIP3   OH272634   4.545   5.457  11.354  0.9756 -0.1796 -0.1699
17048TIP3    H172635   4.539   5.368  11.319  1.0136 -0.5054  0.6167
17048TIP3    H272636   4.616   5.498  11.304  1.5803 -0.8987  0.0714
17049TIP3   OH272637   3.912   6.418   6.803 -0.1605  0.2718 -0.2015
17049TIP3    H172638   3.832   6.428   6.752 -0.3487 -0.0690  0.0225
17049TIP3    H272639   3.919   6.500   6.852 -1.1508 -0.2503  0.8666
17050TIP3   OH272640   1.166   0.491  10.899 -0.3282 -0.0364  0.3837
17050TIP3    H172641   1.200   0.566  10.947 -1.1150  1.0824 -0.7559
17050TIP3    H272642   1.178   0.514  10.807 -0.5822 -1.3179  0.0126
17051TIP3   OH272643   3.398   4.229  12.166  0.0608  0.4685  0.1262
17051TIP3    H172644   3.430   4.285  12.237 -0.9538  1.3831 -0.1034
17051TIP3    H272645   3.395   4.287  12.090 -1.3634  0.2172 -0.0364
17052TIP3   OH272646   0.038   0.903   5.899 -0.0135  0.1160 -0.2505
17052TIP3    H172647  -0.054   0.914   5.875  0.2764  1.5409 -0.8168
17052TIP3    H272648   0.082   0.876   5.819  0.0078 -1.0160  0.1245
17053TIP3   OH272649   4.527   0.358   4.815  0.1645 -0.1363 -0.1299
17053TIP3    H172650   4.580   0.306   4.754  0.7822  1.4085 -0.9666
17053TIP3    H272651   4.564   0.339   4.901  1.1829 -0.1616 -0.5592
17054TIP3   OH272652   5.543   2.657  13.906 -0.0558 -0.1103 -0.0858
17054TIP3    H172653   5.585   2.574  13.889 -0.7308 -0.3404 -0.7027
17054TIP3    H272654   5.613   2.722  13.903  0.2162 -0.4412 -1.4117
17055TIP3   OH272655   6.708   3.899  12.766  0.4264  0.3807 -0.1277
17055TIP3    H172656   6.640   3.917  12.701  0.3766  0.1607 -0.1387
17055TIP3    H272657   6.718   3.803  12.763 -0.9782  0.1373  1.5921
17056TIP3   OH272658   0.735   5.128   5.182 -0.2285 -0.1360 -0.0425
17056TIP3    H172659   0.803   5.072   5.221  0.3866 -1.0221 -2.1988
17056TIP3    H272660   0.783   5.202   5.145 -0.6644  0.1667 -0.0120
17057TIP3   OH272661   4.440   3.150  12.626 -0.5627  0.4470 -0.2339
17057TIP3    H172662   4.507   3.217  12.631  0.2615 -0.2934 -1.0653
17057TIP3    H272663   4.371   3.181  12.685  0.2327  1.5112  0.1694
17058TIP3   OH272664   0.216   3.609  12.354 -0.1723 -0.3750  0.4249
17058TIP3    H172665   0.264   3.576  12.430 -2.3572  0.6184  2.3883
17058TIP3    H272666   0.232   3.704  12.355 -0.5816 -0.2938 -0.0679
17059TIP3   OH272667   5.730   2.584  12.478 -0.0852 -0.4760  0.4327
17059TIP3    H172668   5.800   2.556  12.419  0.5885 -1.4162  1.6256
17059TIP3    H272669   5.707   2.671  12.447  1.6161 -0.1381 -0.0082
17060TIP3   OH272670   6.202   0.969  15.006  0.1780 -0.4392  0.0266
17060TIP3    H172671   6.282   0.994  15.051  0.5314 -0.2447 -0.6874
17060TIP3    H272672   6.209   1.009  14.919  0.1367 -1.8816 -0.6811
17061TIP3   OH272673   5.462   4.455  15.972  0.7692 -0.0759  0.3409
17061TIP3    H172674   5.436   4.509  16.047  1.7784  0.5267  0.2681
17061TIP3    H272675   5.418   4.371  15.987  1.8768 -0.3768  2.2429
17062TIP3   OH272676   3.327   5.482   3.561  0.1026  0.3240  0.6480
17062TIP3    H172677   3.339   5.527   3.644  1.1279  0.1203  0.6244
17062TIP3    H272678   3.408   5.499   3.513  0.8885 -2.1653  0.9390
17063TIP3   OH272679   6.691   5.379   6.463  0.1178  0.1037 -0.1774
17063TIP3    H172680   6.612   5.428   6.485 -0.7052 -1.6441  0.9133
17063TIP3    H272681   6.694   5.381   6.367 -3.2799 -2.6983 -0.5439
17064TIP3   OH272682   5.967   6.584   2.049 -0.3244 -0.1401 -1.1035
17064TIP3    H172683   5.978   6.598   1.954 -1.4352 -3.2992 -1.8186
17064TIP3    H272684   5.876   6.556   2.059 -0.5506  1.1677  1.1107
17065TIP3   OH272685   5.909   1.631   0.608 -0.4092  0.2226 -0.9282
17065TIP3    H172686   5.901   1.538   0.628  1.8285 -0.0755 -1.0669
17065TIP3    H272687   5.967   1.665   0.676  0.9086  0.8940 -2.2978
17066TIP3   OH272688   4.672   2.041   1.170  0.1120 -0.3496  0.2624
17066TIP3    H172689   4.590   2.088   1.164  0.2939 -0.0605  0.0340
17066TIP3    H272690   4.684   2.025   1.264  0.2742  0.4550  0.3865
17067TIP3   OH272691   3.319   2.063  14.841  0.6060  0.6496 -0.0724
17067TIP3    H172692   3.340   1.991  14.782 -0.5262  1.6258 -1.7109
17067TIP3    H272693   3.339   2.142  14.791 -0.5595  1.5055  0.7640
17068TIP3   OH272694   4.510   2.087  15.377  0.3146  0.1869 -0.1959
17068TIP3    H172695   4.529   2.165  15.325  0.1272  0.7072  0.5035
17068TIP3    H272696   4.437   2.112  15.434 -0.1299 -0.6774 -0.3604
17069TIP3   OH272697   1.309   4.214   1.439 -0.0314 -0.3644  0.4261
17069TIP3    H172698   1.340   4.128   1.468  2.9699  0.9976  1.6948
17069TIP3    H272699   1.311   4.209   1.343  3.0150 -0.9179  0.4082
17070TIP3   OH272700   1.376   0.070   3.269 -0.3520  0.0767 -0.0848
17070TIP3    H172701   1.336   0.086   3.184  1.0565  5.3081 -0.0907
17070TIP3    H272702   1.305   0.086   3.332 -0.5175 -0.2711 -0.1767
17071TIP3   OH272703   3.547   6.563  11.884 -0.0356 -0.3849 -0.3080
17071TIP3    H172704   3.584   6.486  11.842  0.2251 -0.3923 -0.0678
17071TIP3    H272705   3.623   6.611  11.919 -0.1760  0.0823 -0.6263
17072TIP3   OH272706   3.630   1.555   6.230 -0.2890  0.0122 -0.2401
17072TIP3    H172707   3.682   1.503   6.168 -1.8405 -0.5525 -1.1306
17072TIP3    H272708   3.635   1.506   6.312 -0.8662 -1.0076 -0.7961
17073TIP3   OH272709   0.848   5.323   2.672  0.2267 -0.2033  0.2439
17073TIP3    H172710   0.769   5.353   2.717 -0.2446 -1.1889  0.1044
17073TIP3    H272711   0.920   5.356   2.726 -0.2844  0.4348  0.5494
17074TIP3   OH272712   2.616   3.492  10.582 -0.4060  0.7485  0.2458
17074TIP3    H172713   2.561   3.511  10.506  0.1340  1.0442 -0.0784
17074TIP3    H272714   2.577   3.414  10.621  0.0510 -0.1722 -1.0798
17075TIP3   OH272715   0.854   3.542   2.581 -0.3290  0.1895  0.0327
17075TIP3    H172716   0.782   3.602   2.559  0.5925  0.4200 -2.8194
17075TIP3    H272717   0.904   3.535   2.500  1.7420 -1.5446  1.3621
17076TIP3   OH272718   3.540   4.509  14.643  0.0877  0.1500  0.9692
17076TIP3    H172719   3.625   4.487  14.606 -0.1774  0.7599 -0.0345
17076TIP3    H272720   3.489   4.428  14.635 -0.3726  0.6084 -1.2249
17077TIP3   OH272721   6.262   4.681  15.236  0.0937  0.5428  0.2271
17077TIP3    H172722   6.190   4.629  15.271  0.7884  0.8198  2.2556
17077TIP3    H272723   6.222   4.764  15.211 -0.6198 -0.0690 -0.7373
17078TIP3   OH272724   4.743   1.922   3.994  0.0273 -0.2331  0.2033
17078TIP3    H172725   4.654   1.910   3.961  0.4258  0.8852 -1.3749
17078TIP3    H272726   4.779   1.994   3.942  1.2068  0.6733  2.1380
17079TIP3   OH272727   6.164   2.792  15.532 -0.4261 -0.0304 -0.4733
17079TIP3    H172728   6.136   2.802  15.441 -1.0735 -2.0312 -0.5544
17079TIP3    H272729   6.259   2.787  15.527 -0.4771 -0.5360 -1.1017
17080TIP3   OH272730   1.406   2.392  16.628  0.7460 -0.0930 -0.3843
17080TIP3    H172731   1.391   2.457  16.559 -3.3755 -2.0432 -1.6340
17080TIP3    H272732   1.417   2.445  16.708 -0.2849  2.1734 -1.6389
17081TIP3   OH272733   0.154   3.034  16.165 -0.4868 -0.8225  0.2074
17081TIP3    H172734   0.214   3.057  16.235  0.0384 -1.6060  0.0167
17081TIP3    H272735   0.071   3.077  16.190 -0.6656 -2.0707  1.9248
17082TIP3   OH272736   5.508   4.677  13.732  0.1280 -0.0086  0.5527
17082TIP3    H172737   5.417   4.646  13.738 -0.5592  1.1145 -2.3732
17082TIP3    H272738   5.538   4.645  13.647  0.6500  3.8743 -0.9347
17083TIP3   OH272739   1.612   1.925  13.031 -0.8448  0.1690 -0.3380
17083TIP3    H172740   1.594   1.949  13.122 -0.8195 -0.6348 -0.1160
17083TIP3    H272741   1.641   1.834  13.036 -0.6692  0.1796 -1.1343
17084TIP3   OH272742   2.475   1.197   2.569  0.2425  0.7420  0.2518
17084TIP3    H172743   2.523   1.277   2.591 -0.7072  1.0758  1.2120
17084TIP3    H272744   2.487   1.187   2.475  2.2120  0.7815  0.4600
17085TIP3   OH272745   0.403   1.889   0.908  0.2674  0.5318  0.2729
17085TIP3    H172746   0.459   1.865   0.982 -1.8093 -0.4388  1.6264
17085TIP3    H272747   0.373   1.805   0.872  0.9200  0.9934 -1.4755
17086TIP3   OH272748   0.505   5.092   1.846 -0.2246 -0.4214  0.4845
17086TIP3    H172749   0.506   5.140   1.763 -1.5901 -1.0499  0.0564
17086TIP3    H272750   0.488   5.159   1.913 -0.8277 -0.1210  0.0446
17087TIP3   OH272751   0.312   2.283  13.412  0.1487  0.1745  0.4544
17087TIP3    H172752   0.242   2.271  13.347 -0.3862 -0.2882  1.1035
17087TIP3    H272753   0.385   2.318  13.361 -0.1228 -0.5498 -0.4738
17088TIP3   OH272754   5.732   6.723  14.116 -0.1324  0.0815  0.3643
17088TIP3    H172755   5.773   6.807  14.098 -0.4199  0.1171 -0.1319
17088TIP3    H272756   5.700   6.731  14.206 -2.6785  1.5557 -0.5743
17089TIP3   OH272757   4.385   6.138   3.700 -0.4134 -0.3988 -0.2219
17089TIP3    H172758   4.427   6.122   3.784  0.7955  0.7897 -0.5628
17089TIP3    H272759   4.412   6.227   3.676 -1.5572 -0.3302 -1.3966
17090TIP3   OH272760   2.887   4.206   2.688 -0.0988  0.1239  0.3990
17090TIP3    H172761   2.957   4.147   2.715 -0.3096 -0.4611 -0.2921
17090TIP3    H272762   2.932   4.272   2.634  0.0568  0.2994  0.7381
17091TIP3   OH272763   1.969   4.016   2.339  0.2011 -0.3588 -0.0206
17091TIP3    H172764   1.974   4.061   2.255 -0.1896 -2.1659 -1.0598
17091TIP3    H272765   2.061   4.009   2.368  0.2511  1.3267  0.3417
17092TIP3   OH272766   3.808   0.768   2.496 -0.3382  0.1799  0.2707
17092TIP3    H172767   3.773   0.797   2.412  0.6865  1.8210  0.3581
17092TIP3    H272768   3.869   0.837   2.521 -2.0478  0.7672  3.3234
17093TIP3   OH272769   5.256   5.790   2.246 -0.1624  0.5078  0.0560
17093TIP3    H172770   5.328   5.836   2.291  0.0389  0.9333 -0.6906
17093TIP3    H272771   5.181   5.849   2.255 -0.5772 -0.1503  1.2581
17094TIP3   OH272772   1.776   1.924   6.393  0.2871 -0.5719  0.2396
17094TIP3    H172773   1.773   1.839   6.349  1.7164 -0.8813  0.6821
17094TIP3    H272774   1.751   1.905   6.484  3.2520 -1.0944  1.0547
17095TIP3   OH272775   1.944   3.311  14.681  0.0609 -0.0230 -0.5397
17095TIP3    H172776   1.953   3.357  14.764 -2.2656 -0.2341 -0.1020
17095TIP3    H272777   1.976   3.222  14.699 -1.6908 -0.4798  0.6044
17096TIP3   OH272778   2.510   3.569  14.601 -0.4128 -0.5561 -0.1827
17096TIP3    H172779   2.483   3.660  14.590 -1.9426 -0.8464  0.8630
17096TIP3    H272780   2.457   3.536  14.673  1.5577 -1.7190  0.8323
17097TIP3   OH272781   0.896   4.898   0.750 -0.4541 -0.8452  0.2460
17097TIP3    H172782   0.972   4.863   0.795  0.5908  0.8369 -0.1519
17097TIP3    H272783   0.849   4.948   0.816 -0.4994 -0.7802  0.1646
17098TIP3   OH272784   4.724   1.542  12.887 -0.0204 -0.4591  0.0521
17098TIP3    H172785   4.677   1.570  12.965  0.3953  1.8410 -0.4522
17098TIP3    H272786   4.668   1.568  12.814 -0.7776 -3.2751 -0.5014
17099TIP3   OH272787   6.294   2.414  12.024  0.4378  1.0284 -0.8443
17099TIP3    H172788   6.233   2.369  11.966 -0.7909 -0.0477  1.1719
17099TIP3    H272789   6.251   2.496  12.047 -1.4823 -0.6407  2.2898
17100TIP3   OH272790   2.198   3.287   4.518  0.1976 -0.0623  0.7670
17100TIP3    H172791   2.238   3.247   4.440 -3.3053 -1.3306 -0.6223
17100TIP3    H272792   2.237   3.374   4.523 -1.0372  1.0640 -4.0075
17101TIP3   OH272793   0.879   3.086  14.953 -0.2716  0.3139  0.4575
17101TIP3    H172794   0.901   3.119  15.040 -1.6509  0.1018  0.9181
17101TIP3    H272795   0.961   3.087  14.905 -0.0626  3.7512  0.6346
17102TIP3   OH272796   3.673   1.380  15.420 -0.0166  0.0475  0.0704
17102TIP3    H172797   3.744   1.329  15.458 -0.2818 -0.7925 -0.5315
17102TIP3    H272798   3.714   1.461  15.390  0.2039  0.7295  2.0923
17103TIP3   OH272799   3.449   5.275  12.116  0.4723 -0.0503 -0.0773
17103TIP3    H172800   3.494   5.350  12.153  4.3129 -1.5057 -1.2283
17103TIP3    H272801   3.464   5.204  12.179 -1.7134 -0.3010  0.2447
17104TIP3   OH272802   4.716   3.964  13.658 -0.6024 -0.2727 -0.2991
17104TIP3    H172803   4.732   3.879  13.699  0.1795  0.6145  1.3541
17104TIP3    H272804   4.629   3.990  13.689 -0.3688  0.0069  0.1544
17105TIP3   OH272805   3.081   5.563   2.046 -0.5321  0.2752  0.4705
17105TIP3    H172806   3.133   5.633   2.087 -0.0702  2.0368 -2.8330
17105TIP3    H272807   2.995   5.572   2.087 -0.5104  2.9043  0.1660
17106TIP3   OH272808   3.031   4.746  17.115  0.8758  0.3551  0.0330
17106TIP3    H172809   3.076   4.722  17.195  0.7366  0.3503  0.1108
17106TIP3    H272810   2.940   4.718  17.129  0.5712  1.4544  0.3623
17107TIP3   OH272811   1.546   4.309   0.420 -0.0819  0.4841  0.3767
17107TIP3    H172812   1.581   4.228   0.384 -1.4948  0.0208 -0.0149
17107TIP3    H272813   1.451   4.301   0.410 -0.3144  1.7126  1.3388
17108TIP3   OH272814   2.282   4.339  15.161  0.3608 -0.6441  0.2201
17108TIP3    H172815   2.305   4.246  15.163 -1.8021 -1.2104  0.9706
17108TIP3    H272816   2.335   4.375  15.090  1.4763 -2.3687  0.1170
17109TIP3   OH272817   2.101   6.727  13.435 -0.2025 -0.2643  0.0783
17109TIP3    H172818   2.177   6.727  13.376  1.2506  0.5762  1.8615
17109TIP3    H272819   2.090   6.635  13.459 -0.1301 -0.4710 -0.6342
17110TIP3   OH272820   6.233   6.726  17.041  0.4732  0.1050  0.4255
17110TIP3    H172821   6.290   6.723  16.965 -0.3482  0.9785 -0.2394
17110TIP3    H272822   6.267   6.658  17.099  0.6256 -1.1373 -1.0548
17111TIP3   OH272823   5.861   2.252   1.092 -0.2010  0.1701 -0.7450
17111TIP3    H172824   5.952   2.236   1.116 -0.5213 -1.3928 -0.4621
17111TIP3    H272825   5.836   2.330   1.142  0.2595 -0.8314  1.1414
17112TIP3   OH272826   2.042   2.419   5.885 -0.9803  0.0711 -0.4449
17112TIP3    H172827   2.068   2.443   5.973  0.4894 -1.8758 -0.2894
17112TIP3    H272828   1.953   2.384   5.895 -0.7126 -0.4134  0.3211
17113TIP3   OH272829   5.803   4.372   0.859 -0.5968  0.1201  0.2998
17113TIP3    H172830   5.760   4.298   0.816  0.1555 -0.1992  0.0863
17113TIP3    H272831   5.762   4.449   0.820  0.2067 -0.1613 -1.1628
17114TIP3   OH272832   0.458   2.332   5.317 -0.4568  0.2075  0.0984
17114TIP3    H172833   0.398   2.374   5.380  0.6936  0.6640  0.9186
17114TIP3    H272834   0.534   2.390   5.315 -0.6251  0.4306 -2.0644
17115TIP3   OH272835   2.480   2.666   1.126  0.6897  0.9807  0.1600
17115TIP3    H172836   2.539   2.638   1.056 -0.2085 -0.2700 -0.1123
17115TIP3    H272837   2.456   2.756   1.102  0.7542  0.7264 -0.8878
17116TIP3   OH272838   4.507   5.091   5.542  0.6083 -0.1541  0.1290
17116TIP3    H172839   4.543   5.086   5.454 -1.1684 -2.7312 -0.5990
17116TIP3    H272840   4.429   5.145   5.533 -0.1124 -1.1976 -0.1700
17117TIP3   OH272841   3.519   5.987   2.138  0.0422 -0.9210 -0.1398
17117TIP3    H172842   3.610   5.974   2.111  0.5501 -1.4040  1.6719
17117TIP3    H272843   3.482   5.899   2.144 -0.3711 -0.7607 -0.2893
17118TIP3   OH272844   4.464   6.792  15.804  0.5943 -0.4533  0.0861
17118TIP3    H172845   4.456   6.888  15.808 -0.5329 -0.4545 -1.1440
17118TIP3    H272846   4.553   6.774  15.832  0.7629  0.9472  0.5457
17119TIP3   OH272847   4.611   1.390   5.409  0.6374  0.6345 -0.0502
17119TIP3    H172848   4.637   1.309   5.364  1.3285  1.0915 -0.5143
17119TIP3    H272849   4.516   1.395   5.398  0.4442 -0.6327  0.8932
17120TIP3   OH272850   5.356   4.543   4.743  0.6270  0.3314 -0.2399
17120TIP3    H172851   5.319   4.607   4.683 -0.2826  0.1266  0.0954
17120TIP3    H272852   5.283   4.487   4.768  1.3355 -0.6282 -0.2513
17121TIP3   OH272853   5.197   1.642  13.933  0.1924 -0.3220 -0.1229
17121TIP3    H172854   5.118   1.621  13.982 -0.8777  1.7988 -0.8214
17121TIP3    H272855   5.268   1.605  13.985 -1.2461 -2.7711  0.2312
17122TIP3   OH272856   4.770   4.974  10.453 -0.0435  0.0480 -0.4488
17122TIP3    H172857   4.726   4.937  10.530  0.1256  1.0624  0.1649
17122TIP3    H272858   4.844   4.915  10.437  0.4574  0.3162  0.7515
17123TIP3   OH272859   1.546   0.512  15.079 -0.2034 -0.2848 -0.5810
17123TIP3    H172860   1.615   0.577  15.074  0.7221 -1.1866  0.0962
17123TIP3    H272861   1.487   0.544  15.148  0.4595 -0.3617  0.0261
17124TIP3   OH272862   3.033   6.026   1.243  0.0604 -0.4488 -0.6216
17124TIP3    H172863   3.002   6.108   1.204  0.7913 -0.1640 -0.6038
17124TIP3    H272864   3.097   5.992   1.180  1.5973  0.2432  0.5167
17125TIP3   OH272865   2.086   2.413  11.611  0.2681  0.2796 -0.0834
17125TIP3    H172866   2.115   2.395  11.701 -0.0280 -0.7775 -0.1892
17125TIP3    H272867   2.014   2.476  11.621 -0.3179 -0.4590  0.4910
17126TIP3   OH272868   4.743   1.749   1.184 -0.4048  0.1118 -0.1605
17126TIP3    H172869   4.678   1.745   1.254 -0.4975  2.4044 -0.0326
17126TIP3    H272870   4.753   1.843   1.166  0.8084 -0.3338 -2.1141
17127TIP3   OH272871   6.723   5.297   2.115  0.7103 -0.6795  0.3124
17127TIP3    H172872   6.741   5.230   2.050  1.1783 -2.1005  1.8278
17127TIP3    H272873   6.745   5.256   2.199 -0.2478  0.9210  1.4147
17128TIP3   OH272874   0.479   3.913   0.287 -0.4202 -0.3866  0.2701
17128TIP3    H172875   0.470   3.981   0.354 -0.5599 -0.0058 -0.1269
17128TIP3    H272876   0.404   3.856   0.299  0.2104 -1.0380  1.2336
17129TIP3   OH272877   2.523   0.658   4.941  0.0280  0.0164  0.0553
17129TIP3    H172878   2.510   0.563   4.939  0.8019 -0.1293  1.0760
17129TIP3    H272879   2.464   0.689   5.009  1.1492 -0.0033  1.0803
17130TIP3   OH272880   6.255   3.762   3.417 -0.2813  0.3201 -0.0425
17130TIP3    H172881   6.293   3.817   3.485 -3.0094  3.5562 -0.8349
17130TIP3    H272882   6.180   3.721   3.459  0.0897 -0.5553 -0.2162
17131TIP3   OH272883   0.424   0.059  11.250 -0.0053  0.0441 -0.0690
17131TIP3    H172884   0.443   0.085  11.159 -1.3207  0.4056 -0.2654
17131TIP3    H272885   0.368   0.128  11.283  0.7934  0.1171  1.1766
17132TIP3   OH272886   3.272   1.951  12.729  0.5158 -0.1706 -0.8734
17132TIP3    H172887   3.196   1.942  12.672 -1.0118  1.0142  0.8808
17132TIP3    H272888   3.301   2.041  12.716 -1.0380  0.7695  1.5105
17133TIP3   OH272889   4.199   2.207   2.567 -0.6209  0.2668  0.7265
17133TIP3    H172890   4.138   2.134   2.575 -2.2304  1.5579  0.8553
17133TIP3    H272891   4.145   2.285   2.578  0.8901  1.5214 -0.2095
17134TIP3   OH272892   5.612   6.448  17.144  0.5730  0.2755 -0.0783
17134TIP3    H172893   5.694   6.444  17.194  0.3311 -0.8399  0.2675
17134TIP3    H272894   5.614   6.533  17.101  0.9658  1.1533  1.5640
17135TIP3   OH272895   6.789   2.752   1.118  0.2650 -0.3781  0.2272
17135TIP3    H172896   6.838   2.828   1.087 -0.9851  0.4109  0.1505
17135TIP3    H272897   6.848   2.710   1.180  0.8178  0.8956  0.6020
17136TIP3   OH272898   2.489   0.759   1.984 -0.3416 -0.2738  0.3931
17136TIP3    H172899   2.544   0.687   1.954 -0.9529 -0.3766 -0.5566
17136TIP3    H272900   2.512   0.833   1.927 -1.8590 -0.6040 -0.7371
17137TIP3   OH272901   5.289   2.058  16.063 -0.2338  0.1784 -0.9414
17137TIP3    H172902   5.271   1.994  15.994 -0.6537 -1.1886  0.3817
17137TIP3    H272903   5.308   2.006  16.140  0.5922  1.6676 -0.0862
17138TIP3   OH272904   2.216   5.631  14.812  0.1191 -0.3844  0.6421
17138TIP3    H172905   2.224   5.708  14.756  1.9041 -1.4342 -0.6322
17138TIP3    H272906   2.158   5.572  14.764 -0.3262 -0.2977  1.0709
17139TIP3   OH272907   0.173   6.030  12.683  0.2671 -0.3728  0.0784
17139TIP3    H172908   0.127   6.072  12.611 -0.7159 -2.7330 -0.7850
17139TIP3    H272909   0.248   5.987  12.641 -0.3535 -1.8298  0.4105
17140TIP3   OH272910   4.154   6.147  15.345  0.3288 -0.0562  0.1314
17140TIP3    H172911   4.207   6.093  15.286  2.1624 -0.8433  2.3687
17140TIP3    H272912   4.125   6.087  15.414 -0.4016  1.1536  0.9107
17141TIP3   OH272913   0.642   5.795   4.474 -0.6333 -0.1985 -0.4968
17141TIP3    H172914   0.643   5.792   4.379 -2.2116  0.4370 -0.5656
17141TIP3    H272915   0.567   5.740   4.499  1.1662 -2.3179  0.5166
17142TIP3   OH272916   5.615   1.157   3.744 -0.2800 -0.5301 -0.2334
17142TIP3    H172917   5.642   1.242   3.779 -1.5202 -0.6414  1.0810
17142TIP3    H272918   5.688   1.099   3.765  0.0195 -0.0820 -0.0019
17143TIP3   OH272919   0.866   0.897  11.369 -0.0619 -0.0095 -0.5110
17143TIP3    H172920   0.931   0.827  11.360 -0.9114 -1.4852  3.2196
17143TIP3    H272921   0.918   0.977  11.374  1.1172 -0.6293 -1.9682
17144TIP3   OH272922   5.701   2.477  16.032  0.4873  0.0479  0.2309
17144TIP3    H172923   5.633   2.416  16.061  0.0418 -0.2925 -1.4337
17144TIP3    H272924   5.657   2.535  15.970  0.8016  2.3682  2.0423
17145TIP3   OH272925   1.517   5.538  14.147  0.2691 -0.7097 -0.2692
17145TIP3    H172926   1.456   5.579  14.209  1.6106  2.4941 -0.8590
17145TIP3    H272927   1.471   5.541  14.063  0.1606 -0.9693 -0.2217
17146TIP3   OH272928   6.751   4.485   5.649  0.1276 -0.1460  0.4807
17146TIP3    H172929   6.833   4.528   5.674  0.4740 -0.6900  0.2804
17146TIP3    H272930   6.683   4.541   5.687  0.5992  0.0209  1.1046
17147TIP3   OH272931   4.778   6.325  14.720 -0.4093  0.1153 -0.1691
17147TIP3    H172932   4.777   6.415  14.752  1.6345 -0.0226  0.4237
17147TIP3    H272933   4.727   6.276  14.784  1.1983  0.3312  1.3179
17148TIP3   OH272934   4.771   2.345  11.180  0.6932 -0.6687  0.5482
17148TIP3    H172935   4.708   2.393  11.234 -0.8547  0.9788 -2.4996
17148TIP3    H272936   4.849   2.401  11.179 -0.3746  0.8995 -1.3007
17149TIP3   OH272937   3.349   1.836  14.663 -0.0129 -0.0308 -0.3071
17149TIP3    H172938   3.260   1.810  14.641  0.1272 -1.6249  0.7838
17149TIP3    H272939   3.402   1.805  14.590 -0.0569 -1.4834  0.2472
17150TIP3   OH272940   5.496   2.955   6.587  0.0624 -0.1609 -0.6043
17150TIP3    H172941   5.472   3.045   6.568 -0.4915 -0.2323 -0.2760
17150TIP3    H272942   5.412   2.912   6.605  0.2522 -0.8905 -1.3843
17151TIP3   OH272943   0.569   4.219   3.767 -0.3488 -0.2069 -0.8508
17151TIP3    H172944   0.496   4.279   3.778 -0.9883 -1.0672 -0.2979
17151TIP3    H272945   0.536   4.134   3.797  0.0706 -1.1885 -2.9585
17152TIP3   OH272946   2.824   0.190   4.161  0.0576  0.2890 -0.4513
17152TIP3    H172947   2.872   0.128   4.106 -1.0125  0.8317 -2.0518
17152TIP3    H272948   2.877   0.270   4.158 -0.3440  0.5286 -1.2603
17153TIP3   OH272949   4.132   1.935   5.903  0.6049  0.6548  0.4407
17153TIP3    H172950   4.116   2.020   5.944  0.4230  1.1732 -0.6559
17153TIP3    H272951   4.125   1.872   5.974  1.5066  1.6203  1.4347
17154TIP3   OH272952   5.216   0.404  11.214 -0.1262  0.5125  0.2551
17154TIP3    H172953   5.263   0.414  11.131 -0.9377 -2.3857 -0.6577
17154TIP3    H272954   5.239   0.316  11.245 -3.4002 -0.3152  0.7226
17155TIP3   OH272955   3.989   3.026  16.952  0.7284 -0.2225 -0.1048
17155TIP3    H172956   3.904   2.990  16.926  0.2036  0.4893  0.5728
17155TIP3    H272957   4.002   2.995  17.041  1.1118 -0.2091 -0.1570
17156TIP3   OH272958   6.363   2.278  16.669  0.2007  0.1296  0.7125
17156TIP3    H172959   6.292   2.223  16.703  0.4702  0.6729  2.2575
17156TIP3    H272960   6.397   2.230  16.594 -1.2612 -0.5371  0.4408
17157TIP3   OH272961   2.039   1.385   5.333 -0.5303  0.0807  0.3276
17157TIP3    H172962   2.046   1.426   5.419  0.0225  0.1089  0.2710
17157TIP3    H272963   2.102   1.432   5.278 -0.6637 -0.1355 -0.0176
17158TIP3   OH272964   2.494   6.819  14.600  0.4533 -0.1247  0.3309
17158TIP3    H172965   2.523   6.767  14.526 -0.6064  1.0375 -0.9583
17158TIP3    H272966   2.546   6.899  14.595 -0.0071  0.1906  0.5115
17159TIP3   OH272967   5.991   2.996   6.748 -0.1833  0.2309  0.3516
17159TIP3    H172968   6.006   2.949   6.830 -1.3361  0.1352  0.5217
17159TIP3    H272969   5.975   3.087   6.775  1.9516  0.7644  0.0328
17160TIP3   OH272970   5.557   0.825  14.960 -0.0628  0.7324  0.0903
17160TIP3    H172971   5.590   0.808  14.872 -0.3151  1.8390 -0.2324
17160TIP3    H272972   5.625   0.876  15.002 -0.8833  2.1678 -0.2462
17161TIP3   OH272973   6.133   5.799   0.449 -1.2297 -0.0472 -0.0202
17161TIP3    H172974   6.164   5.749   0.374 -0.7746  0.4866 -0.1981
17161TIP3    H272975   6.077   5.739   0.497  0.0596 -1.0456  0.2939
17162TIP3   OH272976   2.226   1.212   5.560  0.0112  0.2519 -0.2466
17162TIP3    H172977   2.275   1.240   5.482  0.2319 -1.3910 -0.7571
17162TIP3    H272978   2.283   1.146   5.600 -1.0065 -0.3950  0.1565
17163TIP3   OH272979   6.720   5.709  14.379 -0.4593 -0.1557 -0.4782
17163TIP3    H172980   6.699   5.638  14.319 -0.9946 -0.3333 -0.0925
17163TIP3    H272981   6.696   5.675  14.466 -0.0350  0.2265 -0.2010
17164TIP3   OH272982   2.913   4.853   0.267  0.0547  0.1777 -0.4419
17164TIP3    H172983   2.999   4.891   0.248  0.7470  0.1484  2.1599
17164TIP3    H272984   2.922   4.761   0.244  0.9095  0.0817  0.2080
17165TIP3   OH272985   6.384   3.974  12.120  0.1684 -0.4889  0.2007
17165TIP3    H172986   6.407   3.894  12.074 -1.1474 -0.7846  0.0288
17165TIP3    H272987   6.458   4.033  12.105  0.4893 -1.1560 -0.8973
17166TIP3   OH272988   2.674   0.136   3.159  0.0445 -0.0582  0.4095
17166TIP3    H172989   2.757   0.112   3.202 -1.0828 -2.4674  1.4272
17166TIP3    H272990   2.664   0.073   3.088 -0.6588  0.5942 -0.0907
17167TIP3   OH272991   3.946   1.008   0.668  0.3815 -0.2763 -0.0188
17167TIP3    H172992   3.897   1.038   0.591  1.1613 -0.4933 -0.6225
17167TIP3    H272993   3.971   0.918   0.647 -0.3366 -0.7301  0.9788
17168TIP3   OH272994   1.930   5.109   4.659 -0.2616  0.8451 -0.0263
17168TIP3    H172995   1.894   5.021   4.664 -0.3965  0.8672 -0.5401
17168TIP3    H272996   1.995   5.105   4.588 -0.0347  1.0757  0.1656
17169TIP3   OH272997   6.300   2.960   5.319 -0.8054 -0.3379 -0.0474
17169TIP3    H172998   6.261   2.971   5.406 -0.0916  0.0518  0.2281
17169TIP3    H272999   6.310   3.049   5.286 -1.0498 -0.4832 -0.5264
17170TIP3   OH273000   6.584   5.215  11.551 -0.2913 -0.1623  0.7368
17170TIP3    H173001   6.603   5.270  11.474  2.3613  0.8964  2.0121
17170TIP3    H273002   6.526   5.146  11.517  0.6450  0.3176 -2.1892
17171TIP3   OH273003   4.264   1.259  14.824  0.1158  0.6016 -0.6240
17171TIP3    H173004   4.204   1.288  14.893  1.0696 -2.5362  1.7831
17171TIP3    H273005   4.207   1.225  14.755 -0.8917  0.6704  0.1487
17172TIP3   OH273006   5.141   3.056  14.881 -0.3242  0.0083  0.1182
17172TIP3    H173007   5.112   3.102  14.960 -0.2496 -1.0290  0.7577
17172TIP3    H273008   5.111   3.112  14.809 -3.7842 -0.8175  0.7087
17173TIP3   OH273009   2.711   2.402  11.303  0.1479  0.4122 -0.2550
17173TIP3    H173010   2.733   2.396  11.210 -0.0232 -0.2152 -0.2568
17173TIP3    H273011   2.795   2.418  11.347  0.1458  1.3434 -0.5695
17174TIP3   OH273012   4.249   2.702   5.908  0.2199  0.1341 -0.1513
17174TIP3    H173013   4.160   2.665   5.914 -0.5559  1.9389  0.1789
17174TIP3    H273014   4.280   2.702   5.999  0.7627 -0.9415 -0.3303
17175TIP3   OH273015   0.011   4.208   3.695  0.5993 -0.1171 -0.3610
17175TIP3    H173016   0.036   4.248   3.778 -1.0491  3.5870 -1.4480
17175TIP3    H273017   0.085   4.224   3.636  0.7581 -0.5078 -0.2698
17176TIP3   OH273018   1.646   0.054   3.347  0.1580 -0.0581  0.2356
17176TIP3    H173019   1.555   0.056   3.317  1.1015  0.6084 -3.0695
17176TIP3    H273020   1.677  -0.034   3.324  0.6605  0.1212  0.2165
17177TIP3   OH273021   0.849   5.025   1.253 -0.2154  0.5334 -0.6840
17177TIP3    H173022   0.766   5.071   1.268 -1.4452 -1.5019 -0.8359
17177TIP3    H273023   0.829   4.933   1.272  1.8932 -0.0914 -1.2215
17178TIP3   OH273024   2.659   2.168  14.119  0.2316  0.2681  0.1427
17178TIP3    H173025   2.742   2.169  14.167  0.7765 -0.8073 -0.7089
17178TIP3    H273026   2.597   2.126  14.180 -0.0194  2.1139  1.2243
17179TIP3   OH273027   6.444   6.191  16.255  0.0413 -0.4784 -0.2908
17179TIP3    H173028   6.510   6.172  16.188 -1.2012  1.0833 -2.0671
17179TIP3    H273029   6.492   6.242  16.321  1.0377 -1.0863 -0.5196
17180TIP3   OH273030   4.321   1.488  17.024  0.2165 -0.9505  0.2747
17180TIP3    H173031   4.319   1.557  17.090  0.2066 -0.4943 -0.1998
17180TIP3    H273032   4.245   1.433  17.045 -1.6841  0.9528 -1.2177
17181TIP3   OH273033   6.185   0.449  15.771  0.2173 -0.8373  0.0194
17181TIP3    H173034   6.158   0.359  15.792 -0.5578 -0.2396  1.8264
17181TIP3    H273035   6.258   0.439  15.710  0.4778 -2.7015  0.5792
17182TIP3   OH273036   1.743   3.752  11.266 -0.8902 -0.2535 -0.3396
17182TIP3    H173037   1.649   3.772  11.258 -1.0457 -0.3831  0.9675
17182TIP3    H273038   1.751   3.663  11.232 -1.3268 -0.4286  0.0099
17183TIP3   OH273039   6.463   2.931   4.504 -0.1834  0.1795  0.6245
17183TIP3    H173040   6.535   2.893   4.454  0.1924  0.3491  1.0286
17183TIP3    H273041   6.384   2.899   4.461  0.1191  1.0706 -0.6665
17184TIP3   OH273042   2.625   4.392  14.004 -0.0523  0.2318  0.2967
17184TIP3    H173043   2.610   4.347  14.087  0.9118 -0.9731 -0.1295
17184TIP3    H273044   2.538   4.413  13.971 -0.5688 -1.3886  0.5280
17185TIP3   OH273045   3.935   4.055  12.895 -0.2181 -0.3032  0.3597
17185TIP3    H173046   3.906   3.967  12.872  1.7057 -0.9090  0.0911
17185TIP3    H273047   3.937   4.055  12.991 -0.0684 -0.6103  0.3569
17186TIP3   OH273048   2.556   1.420   6.258 -0.2185  0.0166 -0.4179
17186TIP3    H173049   2.493   1.412   6.187 -0.1740  0.1354 -0.4706
17186TIP3    H273050   2.528   1.354   6.322 -0.3322 -0.0042 -0.4884
17187TIP3   OH273051   5.679   4.220  17.047 -0.3479 -0.3564 -0.1577
17187TIP3    H173052   5.631   4.215  17.131 -0.2132  1.2760  0.0396
17187TIP3    H273053   5.762   4.177  17.065 -1.0372 -1.7253 -0.0269
17188TIP3   OH273054   4.887   4.491   4.767  0.0580  0.4277  0.0181
17188TIP3    H173055   4.845   4.431   4.828 -1.0429  0.1013 -1.0235
17188TIP3    H273056   4.936   4.552   4.823  0.3780 -0.8153  1.1345
17189TIP3   OH273057   6.534   1.285  11.349 -0.3108 -0.1205 -0.3644
17189TIP3    H173058   6.625   1.261  11.330  0.1102  0.8686  0.3551
17189TIP3    H273059   6.493   1.291  11.262  0.4895  0.1210 -0.7341
17190TIP3   OH273060   5.278   2.736   0.791  0.0390  0.4057  0.5465
17190TIP3    H173061   5.183   2.752   0.788  0.1070  1.2106  1.7352
17190TIP3    H273062   5.301   2.711   0.702 -1.2859  0.2694  0.2194
17191TIP3   OH273063   2.550   3.877  15.217 -0.5285  0.4703 -0.4453
17191TIP3    H173064   2.493   3.888  15.293 -1.0097 -0.9585 -0.5750
17191TIP3    H273065   2.542   3.960  15.170  0.7642  1.9052  1.6728
17192TIP3   OH273066   5.874   4.735  12.703  1.2524  0.3512  0.0429
17192TIP3    H173067   5.936   4.682  12.654  0.6727 -0.7970  0.5062
17192TIP3    H273068   5.812   4.768  12.638  1.8864  0.8417 -0.3109
17193TIP3   OH273069   5.845   4.479  12.812 -0.0626  0.2733  0.0885
17193TIP3    H173070   5.778   4.518  12.868  0.0926  0.5591  0.0739
17193TIP3    H273071   5.890   4.554  12.772 -0.1627  0.0764 -0.4083
17194TIP3   OH273072   0.001   3.462   0.722 -0.3411 -0.1088 -0.1578
17194TIP3    H173073   0.075   3.522   0.730  0.1289 -0.3987 -1.8221
17194TIP3    H273074   0.028   3.400   0.654 -1.7720 -0.7413 -0.1825
17195TIP3   OH273075   0.252   5.758  13.965  0.0484  0.3434 -0.1660
17195TIP3    H173076   0.160   5.781  13.956 -0.0059  1.0034  1.6525
17195TIP3    H273077   0.269   5.697  13.893 -1.5160  1.0413 -1.1723
17196TIP3   OH273078   2.049   2.077  12.455 -0.2600  0.4320 -0.5483
17196TIP3    H173079   2.107   2.050  12.526 -2.3542 -1.6836  0.5070
17196TIP3    H273080   2.086   2.037  12.377 -0.5836 -1.5015  0.2255
17197TIP3   OH273081   2.325   2.892  10.797  0.1351  0.1464  1.0380
17197TIP3    H173082   2.317   2.987  10.793 -0.9967  0.0583  0.8814
17197TIP3    H273083   2.235   2.860  10.789  0.6287 -0.9848 -0.4294
17198TIP3   OH273084   4.217   1.723   2.144  0.0591  0.2906  0.8677
17198TIP3    H173085   4.159   1.648   2.158  1.1403 -1.0310 -1.2354
17198TIP3    H273086   4.161   1.800   2.159 -2.1106 -0.9187 -0.5188
17199TIP3   OH273087   2.215   2.932   5.018 -0.0296 -0.4479  0.4528
17199TIP3    H173088   2.127   2.909   5.049 -0.1610 -0.7565 -0.1342
17199TIP3    H273089   2.207   2.934   4.923  0.2954  0.7882  0.4296
17200TIP3   OH273090   0.030   3.730   2.871 -0.1938 -0.7780  0.2507
17200TIP3    H173091   0.081   3.770   2.941 -0.1998 -0.6811  0.1990
17200TIP3    H273092  -0.052   3.704   2.912  0.3168 -1.9127  0.5952
17201TIP3   OH273093   3.117   4.139  14.919 -0.1303  0.2229  1.1113
17201TIP3    H173094   3.187   4.198  14.890  0.3049 -0.0409  1.6098
17201TIP3    H273095   3.146   4.052  14.893 -0.4503  0.1508  0.9909
17202TIP3   OH273096   1.584   4.243  16.671  0.0884  0.1347  0.1815
17202TIP3    H173097   1.547   4.314  16.723 -0.6998 -1.3549  1.7770
17202TIP3    H273098   1.508   4.191  16.644  0.6799 -0.4895 -0.3214
17203TIP3   OH273099   2.616   3.011   3.744 -0.3007  0.3384  0.1137
17203TIP3    H173100   2.704   3.006   3.707 -0.2224  0.0448  0.3343
17203TIP3    H273101   2.625   2.975   3.832 -0.8802 -0.8709 -0.2941
17204TIP3   OH273102   4.740   2.948   5.357  0.0036 -0.0079 -0.1643
17204TIP3    H173103   4.684   2.875   5.332  1.2280 -0.5139 -1.5856
17204TIP3    H273104   4.745   3.002   5.278  0.6530  0.6043  0.2815
17205TIP3   OH273105   2.265   1.788  12.656  0.0732 -0.5538 -0.4707
17205TIP3    H173106   2.183   1.743  12.638 -0.0400 -0.9663  0.9667
17205TIP3    H273107   2.302   1.807  12.569  0.1045 -3.3338 -1.1407
17206TIP3   OH273108   5.594   6.703  16.452  0.4003  0.7422 -0.6817
17206TIP3    H173109   5.522   6.683  16.512 -0.5351  0.9796 -1.6998
17206TIP3    H273110   5.613   6.795  16.467  1.1226  0.4529  0.2373
17207TIP3   OH273111   5.591   6.768  11.740  0.0618  0.3736  0.0009
17207TIP3    H173112   5.686   6.779  11.729  0.2290 -0.7410  0.1833
17207TIP3    H273113   5.563   6.849  11.782  0.7940  1.0611 -0.7901
17208TIP3   OH273114   2.650   1.250  16.940  0.3496 -0.7173  0.4235
17208TIP3    H173115   2.692   1.220  17.020 -0.0138 -0.8233  0.5803
17208TIP3    H273116   2.705   1.217  16.869  0.9784 -0.1559  0.6362
17209TIP3   OH273117   5.166   3.186  16.752  0.3905  0.4571  0.0530
17209TIP3    H173118   5.124   3.265  16.720 -0.2357 -0.6032 -1.9061
17209TIP3    H273119   5.094   3.126  16.772  0.8765  0.0538  0.6828
17210TIP3   OH273120   0.884   5.217   0.165  0.0042  0.4112  0.6883
17210TIP3    H173121   0.861   5.190   0.254 -1.1686 -0.4876  0.1460
17210TIP3    H273122   0.967   5.174   0.148 -0.5420 -0.7274  0.7986
17211TIP3   OH273123   5.346   0.066  15.390 -0.1141 -0.2641  0.5341
17211TIP3    H173124   5.366  -0.027  15.392  0.6524 -0.1292 -0.4647
17211TIP3    H273125   5.426   0.109  15.420  0.0002  0.1283 -0.2955
17212TIP3   OH273126   6.654   4.513   0.396  0.5270  0.0717 -0.0624
17212TIP3    H173127   6.740   4.514   0.354  0.0074 -0.9026 -1.2007
17212TIP3    H273128   6.617   4.600   0.380  0.4537 -0.1936 -1.3960
17213TIP3   OH273129   1.390   5.101  12.338  0.6884 -0.0852 -0.2313
17213TIP3    H173130   1.333   5.167  12.376  0.7458 -0.6064  0.7933
17213TIP3    H273131   1.478   5.138  12.346  0.6004  0.2576 -0.8277
17214TIP3   OH273132   3.201   2.182   0.805 -0.3621 -0.0590  0.3956
17214TIP3    H173133   3.274   2.233   0.771 -0.6696  1.5153  1.9804
17214TIP3    H273134   3.124   2.215   0.759 -0.1481 -1.8719 -1.4412
17215TIP3   OH273135   2.975   3.334  13.122 -0.1984  0.0704 -0.4039
17215TIP3    H173136   3.054   3.348  13.071  1.6041 -0.1238  2.1295
17215TIP3    H273137   2.935   3.255  13.084  0.7395  0.2343 -1.7867
17216TIP3   OH273138   2.940   1.259  14.348 -0.6086 -0.4037 -0.0537
17216TIP3    H173139   3.018   1.312  14.333 -1.0165 -0.3466 -2.3022
17216TIP3    H273140   2.959   1.176  14.306 -1.4401 -0.6885  0.1230
17217TIP3   OH273141   1.460   2.663   4.382  0.2539 -1.1878  0.4143
17217TIP3    H173142   1.366   2.658   4.363  0.4882 -0.0374 -1.3593
17217TIP3    H273143   1.465   2.695   4.472 -1.0755 -0.8473  0.3947
17218TIP3   OH273144   4.759   6.042   1.021 -0.0420  0.0904  0.2600
17218TIP3    H173145   4.732   6.114   0.964  0.0575  0.1596  0.2989
17218TIP3    H273146   4.814   5.987   0.965 -0.5984 -0.2692  0.0665
17219TIP3   OH273147   2.017   4.339  12.999  0.1229 -0.0037 -0.0785
17219TIP3    H173148   2.005   4.330  13.094 -0.3697  0.9014 -0.0358
17219TIP3    H273149   2.109   4.363  12.988 -0.2412  1.7003  0.3381
17220TIP3   OH273150   4.738   1.570  14.551  0.4277  0.1498 -0.2470
17220TIP3    H173151   4.703   1.597  14.466  4.5437  0.6485 -1.9870
17220TIP3    H273152   4.729   1.648  14.606 -0.8391  0.3327 -0.6666
17221TIP3   OH273153   2.645   4.826  13.900  0.0196  0.2385  0.2665
17221TIP3    H173154   2.549   4.830  13.904  0.0998  2.0613  1.9323
17221TIP3    H273155   2.666   4.839  13.808 -1.3245 -0.3413 -0.1442
17222TIP3   OH273156   4.256   2.440   6.112 -0.0832 -0.3742  0.0409
17222TIP3    H173157   4.255   2.536   6.117 -2.0154 -0.3278 -0.5312
17222TIP3    H273158   4.327   2.414   6.171 -0.1733  1.3652  0.9801
17223TIP3   OH273159   1.556   4.078   3.089  0.2020  0.1158  0.3362
17223TIP3    H173160   1.620   4.007   3.079 -1.0297 -1.2119  1.4584
17223TIP3    H273161   1.525   4.095   3.000  0.3901 -0.8670  0.0734
17224TIP3   OH273162   0.366   4.613  12.296  0.4303  0.2575  0.2236
17224TIP3    H173163   0.306   4.685  12.278 -0.7896 -0.3014  1.8372
17224TIP3    H273164   0.310   4.543  12.331  1.9163 -0.5382  1.1170
17225TIP3   OH273165   2.671   0.148   0.576  0.0606  0.6122  0.0661
17225TIP3    H173166   2.756   0.172   0.537  0.0362  0.8163  0.1400
17225TIP3    H273167   2.670   0.193   0.660 -0.5874  1.4934 -0.4013
17226TIP3   OH273168   6.604   6.396  11.604  0.2416 -0.1082  0.1048
17226TIP3    H173169   6.605   6.406  11.699 -0.1964 -1.3746  0.2604
17226TIP3    H273170   6.555   6.315  11.589 -1.2507  1.0013 -1.2924
17227TIP3   OH273171   3.878   0.477   2.240  0.7443 -0.3236  0.2424
17227TIP3    H173172   3.867   0.395   2.192  2.1875 -0.2560 -0.2350
17227TIP3    H273173   3.842   0.458   2.327  0.3145 -1.1973 -0.1074
17228TIP3   OH273174   4.285   6.277   6.707 -0.0381  0.6694 -0.3671
17228TIP3    H173175   4.227   6.269   6.782 -0.4000  1.3625 -0.5665
17228TIP3    H273176   4.352   6.209   6.721 -0.0918  0.8044  0.5806
17229TIP3   OH273177   2.789   5.983   2.593 -0.1465  0.0033  0.0142
17229TIP3    H173178   2.804   5.891   2.574  0.0542 -0.1629  0.9176
17229TIP3    H273179   2.854   6.006   2.659 -0.0331  0.8627 -0.3737
17230TIP3   OH273180   3.756   4.263  11.693 -0.2410 -0.1475 -0.1088
17230TIP3    H173181   3.757   4.356  11.669 -1.1739 -0.1396 -0.1604
17230TIP3    H273182   3.810   4.221  11.626  0.0170  0.3321 -0.2078
17231TIP3   OH273183   4.857   2.436   6.232 -0.2493  0.2268 -0.0107
17231TIP3    H173184   4.780   2.487   6.205 -0.3095 -0.2881 -0.8393
17231TIP3    H273185   4.930   2.478   6.186 -0.1475  0.2171  0.1419
17232TIP3   OH273186   2.389   4.977  12.608  0.2086  0.6151 -0.1071
17232TIP3    H173187   2.452   5.048  12.622  1.2815 -0.0411 -1.3366
17232TIP3    H273188   2.438   4.897  12.626 -0.9348  0.1482  1.0858
17233TIP3   OH273189   4.658   6.121   5.806  0.1343  0.1895  0.3348
17233TIP3    H173190   4.564   6.116   5.791 -0.3332  1.6276  2.3110
17233TIP3    H273191   4.671   6.207   5.847  2.2732 -0.0814  0.3595
17234TIP3   OH273192   5.501   0.691   6.830  0.7050  0.2264  0.6698
17234TIP3    H173193   5.465   0.647   6.753  1.1898  0.4180  0.3263
17234TIP3    H273194   5.554   0.625   6.874 -0.6549 -0.2735  1.5903
17235TIP3   OH273195   5.857   5.475   3.288  0.6147 -0.0168  0.1981
17235TIP3    H173196   5.785   5.519   3.333  0.1453 -0.8099  0.2467
17235TIP3    H273197   5.848   5.383   3.313 -1.8718 -1.2746 -4.1165
17236TIP3   OH273198   6.496   5.898   2.748 -0.0090 -0.1009  0.3422
17236TIP3    H173199   6.432   5.951   2.796 -1.5134 -3.6267  2.6005
17236TIP3    H273200   6.556   5.867   2.815 -0.4248 -2.8275 -0.4349
17237TIP3   OH273201   3.605   2.528   1.819 -0.1282  0.3858  0.1689
17237TIP3    H173202   3.545   2.466   1.861  0.2915  0.0873  0.3347
17237TIP3    H273203   3.688   2.480   1.810  0.2558  0.9764  0.4590
17238TIP3   OH273204   2.226   3.178   5.899  0.9878 -0.0404 -0.2414
17238TIP3    H173205   2.197   3.164   5.808  1.4840  2.8279 -0.9525
17238TIP3    H273206   2.321   3.171   5.895  0.8977 -2.5875  0.6819
17239TIP3   OH273207   6.206   5.237  11.951  0.4539  0.0869  0.0398
17239TIP3    H173208   6.178   5.274  12.035  0.3627  0.1342 -0.0116
17239TIP3    H273209   6.163   5.292  11.885  1.1585  0.5457 -0.0460
17240TIP3   OH273210   1.260   3.105   0.407 -0.1260  0.2842 -0.3676
17240TIP3    H173211   1.323   3.037   0.383 -2.2089 -2.1989  0.6767
17240TIP3    H273212   1.223   3.074   0.489 -2.1923  1.9946 -0.5860
17241TIP3   OH273213   0.654   5.785   4.185  0.0356  0.4354 -0.4465
17241TIP3    H173214   0.606   5.731   4.122 -1.8226  0.1518  1.1207
17241TIP3    H273215   0.733   5.735   4.204 -0.2709 -0.3484 -1.1550
17242TIP3   OH273216   0.561   3.656   5.145  0.4819 -0.2812 -0.2371
17242TIP3    H173217   0.514   3.582   5.185  1.5657 -1.0172 -0.2754
17242TIP3    H273218   0.522   3.733   5.186 -0.2795 -0.8952  0.2431
17243TIP3   OH273219   0.039   3.243   2.040  0.3341  0.4433  0.0514
17243TIP3    H173220  -0.006   3.324   2.063  1.3099  0.8917  0.4262
17243TIP3    H273221   0.023   3.233   1.946 -1.6242 -0.1071  0.4154
17244TIP3   OH273222   3.707   5.634   1.669 -0.3259  0.0848  0.2210
17244TIP3    H173223   3.748   5.556   1.707  0.6596  1.4047  2.0926
17244TIP3    H273224   3.614   5.624   1.687 -0.4310 -1.3555 -0.9759
17245TIP3   OH273225   1.035   4.275   2.975 -0.9354 -0.0129  0.6048
17245TIP3    H173226   1.110   4.225   3.007 -2.0935 -2.4926 -0.2700
17245TIP3    H273227   1.015   4.336   3.045  1.8741  0.7395  0.8549
17246TIP3   OH273228   4.762   0.865   1.313  0.4083 -0.0268  0.0557
17246TIP3    H173229   4.765   0.811   1.392  2.8646  0.6801  0.5381
17246TIP3    H273230   4.716   0.944   1.339 -0.8657 -0.7551  0.0859
17247TIP3   OH273231   4.760   5.768  11.445 -0.2833  0.2373 -0.4412
17247TIP3    H173232   4.826   5.706  11.474  0.0280  1.8641  2.7562
17247TIP3    H273233   4.777   5.778  11.351  3.1593 -0.4363 -0.0369
17248TIP3   OH273234   2.635   0.588  15.589 -0.0556  0.3599  0.0024
17248TIP3    H173235   2.605   0.649  15.657  0.3871  1.0120 -0.3794
17248TIP3    H273236   2.580   0.511  15.600  0.2173  0.3285  1.3161
17249TIP3   OH273237   3.363   6.025  12.797  0.5085  0.4818 -0.8949
17249TIP3    H173238   3.445   6.072  12.781 -0.0972  2.5267  1.3521
17249TIP3    H273239   3.299   6.094  12.814 -1.4651 -1.0884 -1.5144
17250TIP3   OH273240   6.152   2.285   3.726  0.4004 -0.1091 -0.4925
17250TIP3    H173241   6.143   2.368   3.772 -0.9144 -0.7590  0.5248
17250TIP3    H273242   6.156   2.308   3.633  0.0050  1.0887 -0.2265
17251TIP3   OH273243   5.379   1.742  12.879  0.1217  0.5826 -0.0138
17251TIP3    H173244   5.407   1.670  12.823  0.4779  1.2849 -0.7526
17251TIP3    H273245   5.395   1.821  12.827  1.7108  1.3706  1.5601
17252TIP3   OH273246   0.227   1.698  13.157 -0.1046  0.2990  0.0252
17252TIP3    H173247   0.194   1.616  13.194 -0.7672  0.9119  0.8367
17252TIP3    H273248   0.234   1.681  13.063 -1.2173 -0.3618  0.0432
17253TIP3   OH273249   3.088   3.095  16.254  0.0512  0.5879 -0.0133
17253TIP3    H173250   3.094   3.021  16.193  1.1495  0.6953 -0.0547
17253TIP3    H273251   3.074   3.054  16.340 -1.0536  0.4173 -0.2540
17254TIP3   OH273252   3.557   1.052  14.242  0.2236 -0.0654 -0.8545
17254TIP3    H173253   3.556   1.104  14.162  0.2603  0.3971 -0.5650
17254TIP3    H273254   3.600   1.110  14.306 -1.2422  0.2140 -0.0809
17255TIP3   OH273255   4.570   2.721   3.226 -0.9530  0.6733  0.2198
17255TIP3    H173256   4.620   2.774   3.288 -1.3879  0.9063  0.3697
17255TIP3    H273257   4.637   2.666   3.183 -0.5498  1.0834  0.3119
17256TIP3   OH273258   0.928   0.679  16.987 -0.0290  0.0737 -0.3660
17256TIP3    H173259   0.953   0.721  16.904 -0.9181 -0.3087 -0.8305
17256TIP3    H273260   0.995   0.612  17.000  0.7452  0.8495 -0.2051
17257TIP3   OH273261   2.910   5.721  13.693  0.3053 -0.5165 -0.6533
17257TIP3    H173262   2.994   5.678  13.677 -0.1240 -1.6611  0.1240
17257TIP3    H273263   2.912   5.797  13.634  1.2283 -1.3668 -1.7800
17258TIP3   OH273264   2.185   3.317  15.710  0.1303  0.5376 -0.2309
17258TIP3    H173265   2.263   3.273  15.743  1.2154 -0.0027 -3.2111
17258TIP3    H273266   2.207   3.410  15.711  1.5403  0.2790 -2.6066
17259TIP3   OH273267   2.943   1.876   3.231  0.3662 -0.3941  0.5538
17259TIP3    H173268   3.004   1.897   3.302  0.0747  0.2401  0.6246
17259TIP3    H273269   2.981   1.799   3.189  1.2937  0.0548  0.5238
17260TIP3   OH273270   0.669   2.372   1.628 -0.2447 -0.4241  0.2212
17260TIP3    H173271   0.719   2.291   1.621  0.9618  0.3258 -0.0986
17260TIP3    H273272   0.710   2.419   1.701 -1.4058 -0.3988  0.8891
17261TIP3   OH273273   0.910   5.034  15.811 -0.3588 -0.3942  0.4515
17261TIP3    H173274   0.872   4.986  15.738 -0.1561 -0.6386  0.5042
17261TIP3    H273275   0.952   4.966  15.865 -1.6518 -0.4081  1.5069
17262TIP3   OH273276   3.513   0.117  16.116  0.1681 -0.1495 -0.6581
17262TIP3    H173277   3.525   0.055  16.044  1.9488 -0.8964  0.1981
17262TIP3    H273278   3.479   0.063  16.188 -0.9976  0.4579 -0.7466
17263TIP3   OH273279   4.372   1.285   6.114 -0.0214  0.5131 -0.0168
17263TIP3    H173280   4.299   1.307   6.055  0.8820 -1.7195 -2.1726
17263TIP3    H273281   4.433   1.358   6.104  0.6608 -0.3030 -2.9755
17264TIP3   OH273282   3.306   2.917   4.727  0.2414 -1.0133 -0.1753
17264TIP3    H173283   3.373   2.985   4.724 -1.1664  0.5473  1.2945
17264TIP3    H273284   3.346   2.846   4.777  0.6396  0.1420  1.2136
17265TIP3   OH273285   5.767   3.155   4.896  0.0946  0.2529  0.0548
17265TIP3    H173286   5.806   3.192   4.975  0.9630  0.4467 -0.4506
17265TIP3    H273287   5.699   3.096   4.928 -1.1068  2.0160  0.8731
17266TIP3   OH273288   6.000   2.885  16.121 -0.1789  0.1698 -0.2356
17266TIP3    H173289   5.992   2.862  16.028 -0.7970 -0.7815  0.0386
17266TIP3    H273290   5.953   2.816  16.167 -1.0048  1.3316  0.7285
17267TIP3   OH273291   1.367   0.907   4.193  0.2585 -0.8445  0.3763
17267TIP3    H173292   1.459   0.881   4.198  0.3889 -0.2005  1.4796
17267TIP3    H273293   1.356   0.939   4.103  1.1646 -0.7251  0.3042
17268TIP3   OH273294   6.553   0.346  13.571  0.8309  0.1828  0.3599
17268TIP3    H173295   6.480   0.361  13.511  1.5992 -0.6718 -0.8495
17268TIP3    H273296   6.528   0.391  13.651 -2.2632 -2.2164  0.9473
17269TIP3   OH273297   6.556   2.894  16.952 -0.3774 -0.3763  0.0529
17269TIP3    H173298   6.615   2.944  17.009  0.7719 -0.3296 -1.1607
17269TIP3    H273299   6.513   2.961  16.898 -0.4492 -0.5323 -0.0814
17270TIP3   OH273300   0.133   5.596   6.819 -0.2245 -0.0929  0.2137
17270TIP3    H173301   0.080   5.630   6.747  1.6080 -0.0978 -1.2158
17270TIP3    H273302   0.219   5.637   6.808 -0.3680  1.4998  3.6372
17271TIP3   OH273303   5.860   0.061  12.266 -0.3145 -0.2165  0.7952
17271TIP3    H173304   5.936   0.112  12.238 -1.0974 -0.1036 -1.3293
17271TIP3    H273305   5.834   0.101  12.349  2.5312 -0.9595  2.1900
17272TIP3   OH273306   0.144   4.228   2.312  0.2109 -0.0067  0.5910
17272TIP3    H173307   0.080   4.266   2.373 -0.9308 -1.3754  0.2945
17272TIP3    H273308   0.168   4.144   2.352  2.6383  0.9030  1.2044
17273TIP3   OH273309   3.003   0.421   2.361 -0.1711  0.3898  0.2434
17273TIP3    H173310   2.965   0.498   2.319  1.1227  0.7899 -0.2477
17273TIP3    H273311   2.931   0.358   2.366 -0.8473  1.0494 -0.8072
17274TIP3   OH273312   5.422   2.562  11.964 -0.6714  0.2446  0.0021
17274TIP3    H173313   5.372   2.481  11.951 -1.0380  0.1511  1.7349
17274TIP3    H273314   5.495   2.555  11.903 -1.2819 -0.9019 -0.6409
17275TIP3   OH273315   0.297   4.497  12.042  0.0789 -0.3104  0.1018
17275TIP3    H173316   0.349   4.486  11.962  2.5932 -0.4058  1.6339
17275TIP3    H273317   0.242   4.419  12.046  0.9807 -1.0205 -0.7925
17276TIP3   OH273318   0.902   2.631  15.243  0.2747 -0.3709 -0.0494
17276TIP3    H173319   0.960   2.661  15.173  0.7112  1.4444  1.0111
17276TIP3    H273320   0.836   2.578  15.198  0.1882  1.1952 -1.9392
17277TIP3   OH273321   5.900   5.176   0.596  0.4341 -0.4555  0.0512
17277TIP3    H173322   5.967   5.207   0.656 -0.9866 -1.5993  2.3900
17277TIP3    H273323   5.817   5.196   0.640 -0.6370 -2.7563 -0.7577
17278TIP3   OH273324   0.575   5.503  17.018 -0.3079 -0.3346  0.2464
17278TIP3    H173325   0.667   5.502  17.045  0.3005  1.3222 -1.5109
17278TIP3    H273326   0.573   5.446  16.941 -0.9223 -0.9511  0.7128
17279TIP3   OH273327   1.298   6.224  15.189  0.0001  0.3939 -0.1930
17279TIP3    H173328   1.233   6.179  15.134 -0.0522 -0.6765  0.6941
17279TIP3    H273329   1.326   6.157  15.251 -0.5096  1.7539  1.5793
17280TIP3   OH273330   4.205   4.301   3.196  0.6691  0.1538  0.0175
17280TIP3    H173331   4.113   4.328   3.208  0.6924  0.1297  0.2481
17280TIP3    H273332   4.212   4.282   3.103  0.0930 -1.1176  0.2142
17281TIP3   OH273333   5.959   0.166   2.951  0.0634  0.7061 -0.2467
17281TIP3    H173334   5.951   0.084   3.000  1.8619  0.4397 -0.3322
17281TIP3    H273335   5.910   0.149   2.870  0.2819 -0.2395 -0.1987
17282TIP3   OH273336   3.585   3.442   2.433 -0.3952 -0.6299 -0.4339
17282TIP3    H173337   3.587   3.397   2.349 -0.6779 -2.8013  0.6458
17282TIP3    H273338   3.676   3.460   2.453 -0.3119 -0.2699 -1.1200
17283TIP3   OH273339   0.984   2.494  10.825 -0.2283 -0.3309  0.0381
17283TIP3    H173340   0.945   2.580  10.807 -0.8631 -0.5840  0.1563
17283TIP3    H273341   1.076   2.511  10.840 -0.5710  0.5002  1.3320
17284TIP3   OH273342   5.115   6.033  12.550 -0.3252 -0.2932  0.2399
17284TIP3    H173343   5.030   5.992  12.564  0.7406 -2.5591  0.5055
17284TIP3    H273344   5.162   5.972  12.494  0.7303  1.5204 -0.9910
17285TIP3   OH273345   4.934   2.071  11.235  0.0185  0.4240  0.4125
17285TIP3    H173346   5.029   2.060  11.234 -0.1452 -1.1411 -0.9671
17285TIP3    H273347   4.919   2.149  11.182  0.5179  0.6928  0.6531
17286TIP3   OH273348   0.804   6.387  16.405  0.4499 -0.5129 -0.5642
17286TIP3    H173349   0.786   6.410  16.314 -2.2553 -1.1250 -0.2710
17286TIP3    H273350   0.845   6.465  16.442  0.2996  0.2608 -1.9522
17287TIP3   OH273351   1.157   1.969  16.154 -0.0408 -0.1677 -0.3735
17287TIP3    H173352   1.200   1.905  16.098  0.8629  1.3723 -1.5267
17287TIP3    H273353   1.080   1.924  16.188  0.1999 -1.6281 -1.6849
17288TIP3   OH273354   0.750   2.415  10.684 -0.8527 -0.0251 -0.5407
17288TIP3    H173355   0.830   2.428  10.735 -2.0367  1.0209  1.1383
17288TIP3    H273356   0.757   2.479  10.613 -0.0143 -0.2528 -0.6794
17289TIP3   OH273357   6.517   6.555  15.276 -0.1941 -0.0874  0.1730
17289TIP3    H173358   6.587   6.495  15.303 -1.9661 -1.1862  2.6207
17289TIP3    H273359   6.467   6.506  15.211  0.6103  0.2800 -0.7483
17290TIP3   OH273360   5.206   6.217   3.805 -0.3785 -0.2240 -0.1139
17290TIP3    H173361   5.203   6.122   3.800  0.0559 -0.1967 -1.2008
17290TIP3    H273362   5.115   6.245   3.797 -0.2959 -0.4685 -2.8230
17291TIP3   OH273363   5.803   4.707  13.901  0.0748  0.0693 -0.6336
17291TIP3    H173364   5.897   4.717  13.916 -0.2383  1.3728  0.7046
17291TIP3    H273365   5.796   4.638  13.835  2.0045  0.5148 -1.3705
17292TIP3   OH273366   0.218   4.267   2.769  0.0816 -0.4752  0.3508
17292TIP3    H173367   0.227   4.186   2.717  0.2560 -0.4314  0.3119
17292TIP3    H273368   0.278   4.255   2.842 -0.3493 -0.6418  0.6799
17293TIP3   OH273369   3.103   1.902   5.386  0.3092 -0.3375  0.1451
17293TIP3    H173370   3.036   1.964   5.358 -1.3449 -2.9457 -2.2055
17293TIP3    H273371   3.085   1.888   5.479 -1.7019 -0.1040 -0.1714
17294TIP3   OH273372   4.785   2.662  13.099 -0.1457 -0.3182 -0.7372
17294TIP3    H173373   4.846   2.643  13.028  0.2749  0.2033 -0.5204
17294TIP3    H273374   4.841   2.686  13.173 -0.5884 -0.5901 -0.3076
17295TIP3   OH273375   1.990   3.029  14.700  0.4193  0.2635 -0.0224
17295TIP3    H173376   2.084   3.029  14.681  0.3015 -0.2851 -0.6300
17295TIP3    H273377   1.965   2.937  14.700 -0.0538  0.3881  0.4810
17296TIP3   OH273378   2.254   1.248  11.512  0.4211 -0.6580  0.4552
17296TIP3    H173379   2.279   1.326  11.462  0.2727 -1.6384 -1.2201
17296TIP3    H273380   2.190   1.279  11.575 -2.4099  0.0547 -2.5222
17297TIP3   OH273381   1.560   3.300  13.771 -0.1126 -0.8198  0.0227
17297TIP3    H173382   1.639   3.246  13.770 -1.1546 -2.3975 -0.3123
17297TIP3    H273383   1.495   3.248  13.724 -1.5491  0.1604  0.8677
17298TIP3   OH273384   0.148   1.146  12.981  0.4285  0.2261  0.0514
17298TIP3    H173385   0.072   1.184  12.937  0.7126 -0.1985 -0.8366
17298TIP3    H273386   0.223   1.185  12.936  0.7512  0.9825  1.2205
17299TIP3   OH273387   5.014   4.126  12.262 -0.2409 -0.3324  0.6041
17299TIP3    H173388   5.025   4.184  12.337  1.3495  0.9071 -0.5230
17299TIP3    H273389   5.060   4.046  12.285  0.7913  0.2849  0.7197
17300TIP3   OH273390   2.065   5.121  14.987  0.7321  0.1459  0.1808
17300TIP3    H173391   2.069   5.084  14.899  0.8727  1.3925 -0.3470
17300TIP3    H273392   2.122   5.197  14.984 -0.4349  1.0807  0.9180
17301TIP3   OH273393   6.656   4.928   6.472 -0.1724 -0.2035  0.5523
17301TIP3    H173394   6.738   4.971   6.448 -0.8813  1.4956  1.0192
17301TIP3    H273395   6.595   4.952   6.403 -1.1530  1.4167  1.8915
17302TIP3   OH273396   0.809   6.149   3.936 -0.2686  0.9663  0.2693
17302TIP3    H173397   0.889   6.142   3.884  0.8821 -0.5802  2.1230
17302TIP3    H273398   0.773   6.060   3.936 -0.5272  1.0470  1.6209
17303TIP3   OH273399   4.292   3.404  13.273  0.0919  0.4435  0.4125
17303TIP3    H173400   4.281   3.409  13.368 -0.4248 -0.1843  0.3917
17303TIP3    H273401   4.381   3.438  13.257 -0.1698  1.4531  1.0184
17304TIP3   OH273402   1.279   1.700  13.851 -0.2092  0.6694 -0.1799
17304TIP3    H173403   1.232   1.641  13.793 -2.1793  1.1944  0.8111
17304TIP3    H273404   1.251   1.675  13.939  0.7794  1.5188  0.3963
17305TIP3   OH273405   6.581   3.162   4.901 -0.2973 -0.0730  0.3675
17305TIP3    H173406   6.545   3.243   4.938  0.4442 -0.5123  2.1605
17305TIP3    H273407   6.546   3.159   4.812 -0.9268  1.8417  0.4978
17306TIP3   OH273408   5.288   1.725   3.761 -0.2263 -0.5547 -0.1339
17306TIP3    H173409   5.335   1.804   3.735 -0.1536 -0.4510  0.3129
17306TIP3    H273410   5.196   1.743   3.739 -0.0899 -0.6880 -0.8407
17307TIP3   OH273411   5.412   5.712  15.427  0.4440 -0.4116 -0.4337
17307TIP3    H173412   5.460   5.680  15.503  1.1037  3.9760  1.2954
17307TIP3    H273413   5.324   5.731  15.459  0.7995  1.7322 -0.5598
17308TIP3   OH273414   1.075   5.945   4.103 -0.1857 -0.5978  0.2877
17308TIP3    H173415   1.168   5.969   4.098 -0.0787 -0.8749  0.8467
17308TIP3    H273416   1.031   6.024   4.133 -0.2358 -0.2458 -0.6789
17309TIP3   OH273417   5.512   3.090   5.335 -0.1772 -0.2209  0.1659
17309TIP3    H173418   5.577   3.020   5.339  2.6921  2.2472 -0.0685
17309TIP3    H273419   5.470   3.089   5.421  0.7351 -1.3918  0.6268
17310TIP3   OH273420   2.775   2.533  11.570 -0.4772 -0.0651 -0.0820
17310TIP3    H173421   2.819   2.618  11.581 -2.2803  0.6528  2.4069
17310TIP3    H273422   2.702   2.552  11.512 -1.0900  0.1907  0.7620
17311TIP3   OH273423   4.774   5.917  13.009  0.0960 -0.0006 -0.1997
17311TIP3    H173424   4.865   5.934  12.987  0.5085  1.3287  2.1853
17311TIP3    H273425   4.723   5.958  12.939  1.2853 -0.9581 -1.6777
17312TIP3   OH273426   0.272   4.466   5.861  0.7257  0.3553  0.2961
17312TIP3    H173427   0.313   4.380   5.846  0.1971 -0.4900  3.0953
17312TIP3    H273428   0.346   4.526   5.868  1.1262  0.0943 -1.2446
17313TIP3   OH273429   6.574   1.995   2.348  0.2412  0.5821 -0.0679
17313TIP3    H173430   6.511   1.936   2.390 -0.5190  1.2529 -0.2534
17313TIP3    H273431   6.653   1.989   2.403  0.3495 -0.9585 -0.3515
17314TIP3   OH273432   4.786   0.437   2.872  0.1598 -0.6142 -0.7573
17314TIP3    H173433   4.717   0.394   2.921 -2.2901  1.0185 -2.5372
17314TIP3    H273434   4.803   0.379   2.797 -0.0377 -0.5277 -0.8693
17315TIP3   OH273435   6.449   0.129  14.357  0.2861 -0.6144  0.2416
17315TIP3    H173436   6.528   0.102  14.403  1.3321  0.3036 -0.9734
17315TIP3    H273437   6.378   0.085  14.405  1.5948 -2.5368  0.5575
17316TIP3   OH273438   4.748   5.405  14.199 -0.1497 -0.6756 -0.3377
17316TIP3    H173439   4.840   5.394  14.225 -0.3764 -0.5221  0.5556
17316TIP3    H273440   4.744   5.369  14.110  0.7571 -0.7510 -0.3592
17317TIP3   OH273441   5.199   6.805  12.591  0.3239  0.0122  0.5189
17317TIP3    H173442   5.152   6.849  12.662 -0.3906  0.6042 -0.2991
17317TIP3    H273443   5.134   6.747  12.551  0.6741 -0.1939  0.2382
17318TIP3   OH273444   5.774   1.351   0.612  0.2069 -0.6257  0.2806
17318TIP3    H173445   5.698   1.298   0.588 -1.0703  1.8058 -1.4911
17318TIP3    H273446   5.822   1.364   0.530  0.4452  0.9612  0.6396
17319TIP3   OH273447   2.390   1.241  10.568  0.1105  0.1170  0.1260
17319TIP3    H173448   2.340   1.211  10.492 -1.4894  1.6807  0.4900
17319TIP3    H273449   2.382   1.337  10.565  2.7721  0.4045  0.4596
17320TIP3   OH273450   6.475   5.866   4.864 -0.5173  0.3193  0.3959
17320TIP3    H173451   6.564   5.894   4.845 -1.4007  1.1771 -3.4063
17320TIP3    H273452   6.428   5.948   4.883 -0.7924  0.0448  0.9128
17321TIP3   OH273453   3.975   2.315   5.877  0.0125  0.3139  0.3750
17321TIP3    H173454   3.920   2.295   5.953  1.7435 -0.1658  1.5597
17321TIP3    H273455   3.936   2.264   5.806 -0.9510 -0.1607  1.2118
17322TIP3   OH273456   6.584   2.619  16.904  0.0286  0.6890  0.3896
17322TIP3    H173457   6.535   2.588  16.828  0.2758  0.0906  0.4707
17322TIP3    H273458   6.553   2.708  16.918  0.0078  0.8119 -0.4319
17323TIP3   OH273459   6.197   4.880   3.883  0.1723 -0.3021  0.6309
17323TIP3    H173460   6.231   4.896   3.971 -2.9864 -0.9237  2.1065
17323TIP3    H273461   6.110   4.919   3.884 -0.3181 -1.1735 -1.9199
17324TIP3   OH273462   3.296   4.822  14.224 -0.4185 -0.2057 -0.3908
17324TIP3    H173463   3.309   4.840  14.131 -2.0049  0.0308 -0.5992
17324TIP3    H273464   3.307   4.728  14.233  2.5341  0.0545 -0.2684
17325TIP3   OH273465   3.156   2.308   5.235 -0.0373 -0.4437 -0.1045
17325TIP3    H173466   3.232   2.254   5.259  0.9452  1.0410  0.2250
17325TIP3    H273467   3.086   2.276   5.291  1.3078  0.5850  2.3274
17326TIP3   OH273468   1.872   4.046   3.786  0.1312  0.5408 -0.2516
17326TIP3    H173469   1.942   4.100   3.823 -1.9421  2.1902  1.5749
17326TIP3    H273470   1.805   4.109   3.758 -0.3822 -0.9215 -2.6323
17327TIP3   OH273471   6.647   1.955  15.929  0.6724 -0.3100  0.9831
17327TIP3    H173472   6.664   2.029  15.987 -0.7729 -1.6157  3.2380
17327TIP3    H273473   6.701   1.884  15.964  2.3815 -0.2899 -1.4116
17328TIP3   OH273474   1.504   3.362  12.252 -0.4474  0.4357 -0.2426
17328TIP3    H173475   1.572   3.425  12.276 -0.0510  0.2415 -0.8471
17328TIP3    H273476   1.547   3.302  12.191 -0.2834 -1.4936  1.6148
17329TIP3   OH273477   3.694   0.361  15.002  0.5154  0.2418 -0.6514
17329TIP3    H173478   3.605   0.333  14.978  0.3254 -1.1013  1.3078
17329TIP3    H273479   3.699   0.343  15.096  2.4248  1.5762 -0.4515
17330TIP3   OH273480   6.151   6.245   2.142  0.2442 -0.0983  0.3890
17330TIP3    H173481   6.180   6.185   2.211  1.0173 -0.0147  0.1509
17330TIP3    H273482   6.230   6.263   2.091 -0.4636 -0.7643 -0.9884
17331TIP3   OH273483   0.585   4.179  14.320 -0.1526  0.0691  0.6701
17331TIP3    H173484   0.611   4.269  14.341  0.6361 -0.0378  0.1713
17331TIP3    H273485   0.652   4.148  14.260 -0.5330 -0.7916  0.6808
17332TIP3   OH273486   5.042   4.497   3.764 -0.1898  0.0404  0.4031
17332TIP3    H173487   5.122   4.449   3.784 -0.1895 -0.5728 -0.9780
17332TIP3    H273488   5.032   4.489   3.669 -0.1867  2.8177  0.0933
17333TIP3   OH273489   3.991   6.207   0.528 -0.2145 -0.5370  0.4672
17333TIP3    H173490   4.024   6.173   0.445 -1.6065 -2.5973  0.6795
17333TIP3    H273491   4.050   6.279   0.550 -0.2558  0.6084 -2.6704
17334TIP3   OH273492   4.554   1.455  12.494 -0.2732  0.3460 -0.1991
17334TIP3    H173493   4.550   1.455  12.398  1.6520 -3.3104 -0.4296
17334TIP3    H273494   4.494   1.385  12.521  2.0986 -1.4244  0.8861
17335TIP3   OH273495   1.772   2.297  14.230 -0.0530 -0.5845 -0.3473
17335TIP3    H173496   1.825   2.361  14.183 -2.0572  1.6295  0.1792
17335TIP3    H273497   1.832   2.226  14.252  2.7877  1.8960  0.5488
17336TIP3   OH273498   6.421   6.242  15.242  0.1725  0.2908  0.6010
17336TIP3    H173499   6.495   6.239  15.303  0.3796  0.8462  0.3812
17336TIP3    H273500   6.344   6.236  15.297  0.3708  0.2979  0.8805
17337TIP3   OH273501   2.466   2.183  14.489  0.4475 -0.4110 -0.2848
17337TIP3    H173502   2.373   2.201  14.475  0.5680 -0.4730 -1.1848
17337TIP3    H273503   2.509   2.267  14.473  0.2917  0.5999  3.4689
17338TIP3   OH273504   5.215   2.408  11.154  0.5898  0.3248  0.7365
17338TIP3    H173505   5.288   2.452  11.110 -0.4850 -0.8261 -2.4771
17338TIP3    H273506   5.221   2.317  11.125 -0.5433 -0.4194  2.6482
17339TIP3   OH273507   1.274   4.655   4.613  0.1173 -0.3211 -0.1777
17339TIP3    H173508   1.193   4.666   4.663  0.1029  1.7483 -0.5733
17339TIP3    H273509   1.336   4.715   4.655 -0.0927  2.0464 -2.9471
17340TIP3   OH273510   4.699   2.721  15.413  0.7786 -0.0559  0.4960
17340TIP3    H173511   4.772   2.781  15.396  0.7804  0.4124  2.0278
17340TIP3    H273512   4.630   2.777  15.447  0.1457 -0.6861  0.2704
17341TIP3   OH273513   2.933   1.823  16.068  0.6754 -0.5900 -0.3588
17341TIP3    H173514   2.977   1.782  16.143  1.8233  0.1706 -0.5992
17341TIP3    H273515   2.872   1.886  16.108  0.1455 -1.2951 -0.0361
17342TIP3   OH273516   2.912   4.383   0.694  0.7507 -0.0123  0.1305
17342TIP3    H173517   2.894   4.473   0.722  0.5336  0.2989 -0.9703
17342TIP3    H273518   2.852   4.368   0.621 -1.4448 -2.1540  2.2071
17343TIP3   OH273519   0.962   3.288  11.697  0.7728 -0.2471 -0.1072
17343TIP3    H173520   0.889   3.278  11.758 -0.0911 -0.7288 -1.1876
17343TIP3    H273521   0.944   3.370  11.650  0.9310 -0.3668 -0.3824
17344TIP3   OH273522   6.499   5.570   1.011  0.0268 -0.1988 -0.2512
17344TIP3    H173523   6.493   5.593   0.919 -0.7030 -0.5089 -0.2824
17344TIP3    H273524   6.410   5.544   1.036  0.3175 -0.5880  0.4128
17345TIP3   OH273525   6.168   2.508  15.699  0.0439  0.3240 -0.2810
17345TIP3    H173526   6.160   2.600  15.673 -0.1467  0.5288  0.4846
17345TIP3    H273527   6.223   2.469  15.632  0.1130  0.9938 -0.6231
17346TIP3   OH273528   1.000   6.334  16.064  0.0051 -0.1748  0.3575
17346TIP3    H173529   0.917   6.375  16.087 -0.1542 -0.6668  0.6898
17346TIP3    H273530   1.066   6.403  16.078 -0.3259  0.1602  0.2683
17347TIP3   OH273531   3.507   4.076  17.208 -0.4859 -0.1924  0.6327
17347TIP3    H173532   3.582   4.115  17.164 -1.0137  0.0086 -0.1063
17347TIP3    H273533   3.439   4.143  17.202 -0.4509  0.0188  2.1323
17348TIP3   OH273534   1.072   1.978  14.832 -0.1755 -0.2900  0.3250
17348TIP3    H173535   0.990   2.023  14.810  0.2722  0.0513 -0.7228
17348TIP3    H273536   1.045   1.888  14.851 -0.6830 -0.4832 -1.1635
17349TIP3   OH273537   5.953   1.090  16.177  0.2446 -0.4466  0.0109
17349TIP3    H173538   5.976   1.055  16.092 -0.9071  0.0661 -0.5311
17349TIP3    H273539   5.870   1.048  16.199 -1.0491  1.7099 -0.5490
17350TIP3   OH273540   0.696   4.565   4.997  0.4711 -0.2916  0.0869
17350TIP3    H173541   0.738   4.651   5.001 -0.3028  0.1158 -0.3267
17350TIP3    H273542   0.609   4.579   5.035  0.6475 -1.0958  0.8167
17351TIP3   OH273543   1.029   3.736   4.246 -0.1249 -0.0581 -0.6031
17351TIP3    H173544   1.014   3.820   4.290 -0.1427 -0.6699  0.6132
17351TIP3    H273545   0.975   3.740   4.167  0.4587  1.3645 -0.9668
17352TIP3   OH273546   0.151   6.132   2.012 -0.3295  0.3289  0.2831
17352TIP3    H173547   0.155   6.048   1.966  1.9909 -0.2614  1.4506
17352TIP3    H273548   0.082   6.120   2.078  0.1712 -0.7659  0.6270
17353TIP3   OH273549   6.734   2.315  14.180  0.4010 -0.8594  0.6564
17353TIP3    H173550   6.785   2.349  14.106  0.8063 -2.2238  0.2969
17353TIP3    H273551   6.754   2.376  14.252  0.8203 -0.1253 -0.0592
17354TIP3   OH273552   0.451   5.068  11.329 -0.2599  0.1459  0.2271
17354TIP3    H173553   0.402   5.064  11.411 -1.9632 -1.8867 -0.7991
17354TIP3    H273554   0.532   5.022  11.347 -0.2436  0.4708  1.0011
17355TIP3   OH273555   3.770   6.199  12.393  0.1761 -0.6272  0.0522
17355TIP3    H173556   3.739   6.284  12.423  1.1912 -0.3421  0.3417
17355TIP3    H273557   3.717   6.180  12.315  1.3378  1.2674 -1.2951
17356TIP3   OH273558   5.946   5.542  14.028 -0.2593  0.0933  0.3819
17356TIP3    H173559   6.009   5.527  14.098  0.3090 -1.2184 -0.3805
17356TIP3    H273560   5.861   5.522  14.067  0.0987 -1.1093  0.5751
17357TIP3   OH273561   5.379   5.263  16.569 -0.0872 -0.1772 -0.0416
17357TIP3    H173562   5.473   5.269  16.589 -0.3659  1.5550  0.9598
17357TIP3    H273563   5.339   5.233  16.651 -0.5794  0.9700  0.1657
17358TIP3   OH273564   2.652   6.215  11.137 -0.1967 -0.0915 -0.2318
17358TIP3    H173565   2.648   6.217  11.041  0.0719  0.1405 -0.2412
17358TIP3    H273566   2.704   6.292  11.160 -0.0884 -0.2586  0.0881
17359TIP3   OH273567   6.269   1.614   2.249  0.0133 -0.1474  0.4134
17359TIP3    H173568   6.285   1.696   2.204  2.7028  0.1876  1.7905
17359TIP3    H273569   6.303   1.628   2.338 -0.1796 -2.4884  0.9192
17360TIP3   OH273570   6.028   2.638  16.946  0.1116 -0.3816  0.1050
17360TIP3    H173571   5.962   2.663  16.881  1.5548  1.2382 -0.8418
17360TIP3    H273572   6.054   2.721  16.986  2.9306 -0.6518 -0.9319
17361TIP3   OH273573   0.363   3.519  12.591  0.3458  0.0618 -0.3020
17361TIP3    H173574   0.415   3.597  12.612  1.8638 -0.8790 -0.4455
17361TIP3    H273575   0.388   3.455  12.657  0.1829 -0.7788 -1.0414
17362TIP3   OH273576   1.920   4.876   3.528  0.5657  0.0918  0.1505
17362TIP3    H173577   2.007   4.885   3.565  0.5192 -0.9900  0.5763
17362TIP3    H273578   1.933   4.883   3.433  0.9488  1.0213  0.2622
17363TIP3   OH273579   1.282   3.175   3.015 -0.3877 -0.0415  0.3014
17363TIP3    H173580   1.241   3.095   3.048  2.9373 -2.1939 -0.3458
17363TIP3    H273581   1.305   3.224   3.094 -1.9023  0.0498  0.7219
17364TIP3   OH273582   2.843   4.917   3.347  0.9162 -0.5065  0.1167
17364TIP3    H173583   2.837   4.998   3.296 -0.2744  0.3033  1.4527
17364TIP3    H273584   2.812   4.849   3.289  0.8831  0.1682 -0.6722
17365TIP3   OH273585   3.715   1.770   0.556 -0.0348  0.2371 -0.1768
17365TIP3    H173586   3.751   1.712   0.489  0.4342  0.5255 -0.1795
17365TIP3    H273587   3.621   1.755   0.553 -0.5463  2.8192 -3.4380
17366TIP3   OH273588   4.555   0.071   5.068 -0.0895 -0.4382  0.1009
17366TIP3    H173589   4.505   0.116   5.136  0.0199 -2.5610  1.7028
17366TIP3    H273590   4.637   0.119   5.062 -1.0574  1.2350 -0.3275
17367TIP3   OH273591   2.019   0.983   2.496 -0.5855 -0.0654 -0.1366
17367TIP3    H173592   2.080   1.042   2.450 -1.8701  1.2209 -0.2663
17367TIP3    H273593   2.076   0.917   2.536  0.7969  0.4212 -1.1924
17368TIP3   OH273594   3.367   2.014   6.205 -0.2191 -0.2449 -0.1231
17368TIP3    H173595   3.351   2.108   6.214  0.4914 -0.0085 -1.2020
17368TIP3    H273596   3.291   1.981   6.158 -0.8783 -0.3813  0.9901
17369TIP3   OH273597   4.192   0.190  16.008  0.3177  0.7944  0.2707
17369TIP3    H173598   4.104   0.188  16.047  0.0739 -0.2584 -0.3042
17369TIP3    H273599   4.179   0.160  15.918  1.4690 -0.9151  0.6323
17370TIP3   OH273600   5.986   1.222   1.293 -0.0580 -0.3880  0.1720
17370TIP3    H173601   5.998   1.315   1.310 -1.1292 -0.2901  0.4683
17370TIP3    H273602   5.891   1.211   1.284  0.0171 -1.5184  0.5640
17371TIP3   OH273603   2.592   0.019   4.087 -0.3415  0.8261  0.3330
17371TIP3    H173604   2.634   0.081   4.147 -0.5085  0.7618  0.5140
17371TIP3    H273605   2.520   0.068   4.049 -1.2865  0.3502  1.4445
17372TIP3   OH273606   1.846   3.116   3.919  1.2141  0.0585 -0.5265
17372TIP3    H173607   1.910   3.104   3.989  1.5824  0.7997 -0.7290
17372TIP3    H273608   1.786   3.183   3.952  1.1090  0.0670 -0.7332
17373TIP3   OH273609   3.549   3.248   2.606 -0.4394 -0.2731 -0.5846
17373TIP3    H173610   3.472   3.204   2.568 -1.1238  0.2738  0.1482
17373TIP3    H273611   3.553   3.332   2.561 -1.3059  0.4154  0.5818
17374TIP3   OH273612   5.110   1.265  11.795  0.0571  0.5897 -0.5843
17374TIP3    H173613   5.118   1.295  11.704 -0.5620  1.7618 -0.2631
17374TIP3    H273614   5.187   1.301  11.839 -0.5934  1.6021 -0.2404
17375TIP3   OH273615   6.475   5.992   4.566  0.1252  0.3094 -0.0744
17375TIP3    H173616   6.493   5.934   4.640  0.1905 -0.5807 -0.7604
17375TIP3    H273617   6.470   5.932   4.491 -1.7999  0.9664 -0.5035
17376TIP3   OH273618   2.804   4.779  12.869  0.4432 -0.7978  0.4278
17376TIP3    H173619   2.717   4.792  12.906  0.9025  1.9748  0.7763
17376TIP3    H273620   2.806   4.834  12.791  1.8692 -0.8082  0.4257
17377TIP3   OH273621   1.089   4.370   0.084 -0.0326 -0.0858  0.1754
17377TIP3    H173622   1.139   4.450   0.103 -0.8881  0.2471  1.1127
17377TIP3    H273623   0.998   4.400   0.081 -0.4690 -1.1811  1.5537
17378TIP3   OH273624   0.757   3.051   1.818  0.3962 -0.6498  0.0011
17378TIP3    H173625   0.667   3.061   1.788  1.7594 -1.6416 -5.7312
17378TIP3    H273626   0.768   2.957   1.833  0.9059 -0.8630 -1.5305
17379TIP3   OH273627   1.031   1.704   1.456  0.4088  0.1593  0.0850
17379TIP3    H173628   1.047   1.716   1.363  0.8074 -0.3244  0.0906
17379TIP3    H273629   0.997   1.615   1.464  1.1497 -0.0940  0.4979
17380TIP3   OH273630   0.903   2.539   6.233  0.3650  0.1057 -0.0144
17380TIP3    H173631   0.824   2.544   6.287  0.9623  0.0578  0.9002
17380TIP3    H273632   0.944   2.457   6.261  1.5525  0.9158  0.7020
17381TIP3   OH273633   4.837   5.286   2.023  0.4243  0.0127  0.8885
17381TIP3    H173634   4.845   5.364   2.078  1.3304 -0.0490  0.8611
17381TIP3    H273635   4.894   5.222   2.065  1.7966  0.2250 -0.5467
17382TIP3   OH273636   4.330   6.760   0.880 -0.3633 -0.0658 -0.1898
17382TIP3    H173637   4.323   6.671   0.914  0.3000 -0.7330 -1.7105
17382TIP3    H273638   4.243   6.798   0.896 -0.3524 -0.6244  1.3782
17383TIP3   OH273639   3.595   5.383   2.064 -0.4882  0.1488 -0.7424
17383TIP3    H173640   3.625   5.379   2.155 -0.9664  0.7714 -0.5471
17383TIP3    H273641   3.665   5.342   2.013 -0.5565 -0.9100 -0.0189
17384TIP3   OH273642   0.943   0.747  10.978 -0.0078  0.0740 -0.0991
17384TIP3    H173643   1.017   0.688  10.995 -0.6919 -0.4987  1.0508
17384TIP3    H273644   0.891   0.702  10.911  1.2127  0.9801 -1.7040
17385TIP3   OH273645   5.672   5.253   6.143  0.3525  0.2541 -0.2547
17385TIP3    H173646   5.743   5.279   6.202 -1.4630  1.2344  1.6190
17385TIP3    H273647   5.616   5.197   6.196 -1.8725  1.9594 -0.6738
17386TIP3   OH273648   2.814   6.464   0.994  0.0316  0.0274  0.3553
17386TIP3    H173649   2.728   6.481   0.955  0.6758  0.6744 -0.8550
17386TIP3    H273650   2.826   6.533   1.059 -0.7427 -0.6280  1.2270
17387TIP3   OH273651   5.443   0.813   5.552  0.5765  0.1567 -0.2049
17387TIP3    H173652   5.380   0.744   5.574  1.1593 -0.1404  0.5609
17387TIP3    H273653   5.398   0.866   5.486  0.8218 -2.0320 -2.2954
17388TIP3   OH273654   2.387   5.570  16.839 -0.9807 -0.3166 -0.5336
17388TIP3    H173655   2.344   5.651  16.867  0.8179  0.6375 -0.3641
17388TIP3    H273656   2.326   5.530  16.777 -2.4972  0.4686  0.4056
17389TIP3   OH273657   5.059   1.326   0.119  0.1056 -0.3256  0.3585
17389TIP3    H173658   5.090   1.239   0.096 -1.0661 -1.5733  3.0500
17389TIP3    H273659   4.965   1.315   0.131 -0.1768  1.4963  0.0855
17390TIP3   OH273660   2.318   2.469   4.032  0.1074  0.1679  0.6843
17390TIP3    H173661   2.262   2.489   3.956 -2.3474  0.5034  2.4566
17390TIP3    H273662   2.407   2.479   3.999 -0.7448 -1.3193 -2.6038
17391TIP3   OH273663   1.448   6.140  14.651 -0.1201 -0.4056  0.3494
17391TIP3    H173664   1.497   6.083  14.592 -0.9628 -0.1892 -0.5935
17391TIP3    H273665   1.414   6.081  14.718 -0.6012 -0.9530 -0.3579
17392TIP3   OH273666   0.473   6.787  16.281 -0.7953  0.0648 -0.2877
17392TIP3    H173667   0.396   6.760  16.331 -0.1516 -2.0801 -0.3693
17392TIP3    H273668   0.516   6.852  16.337 -2.5678  1.2255 -0.1978
17393TIP3   OH273669   4.733   0.332   3.613  0.2170 -0.2098  0.5345
17393TIP3    H173670   4.721   0.309   3.521  3.9670  1.6060 -0.5897
17393TIP3    H273671   4.774   0.254   3.652  3.8741  0.8114 -0.8772
17394TIP3   OH273672   3.002   5.774   3.776  0.0700  0.3837  0.0997
17394TIP3    H173673   3.063   5.799   3.845 -0.7395  0.0653  0.9545
17394TIP3    H273674   3.055   5.770   3.697  1.3720 -0.9014  0.9885
17395TIP3   OH273675   6.018   1.650  15.211  0.4107  0.5360 -0.6693
17395TIP3    H173676   6.088   1.601  15.168 -1.3515 -1.4117 -1.4946
17395TIP3    H273677   5.967   1.583  15.257 -1.5143  1.7257 -0.9721
17396TIP3   OH273678   1.888   4.280  12.148  0.1536  0.1346 -0.0596
17396TIP3    H173679   1.957   4.229  12.190  0.3085  0.0126 -0.4578
17396TIP3    H273680   1.908   4.371  12.171 -1.9603 -0.1205  3.4182
17397TIP3   OH273681   3.659   5.446  13.224  0.1967  0.1657 -0.8027
17397TIP3    H173682   3.707   5.437  13.141 -0.6742  0.8610 -1.4000
17397TIP3    H273683   3.649   5.540  13.236  0.4797  0.0764  0.2071
17398TIP3   OH273684   5.001   3.229   0.907  0.3872 -0.5818  0.2667
17398TIP3    H173685   4.914   3.191   0.893 -0.5665  1.4503  0.3627
17398TIP3    H273686   4.987   3.302   0.967  2.0325  0.2353 -0.2585
17399TIP3   OH273687   3.592   6.627   6.071 -0.0387  0.0413 -0.3463
17399TIP3    H173688   3.653   6.615   6.144  1.0835  0.7924 -1.1292
17399TIP3    H273689   3.511   6.656   6.113  0.2128 -0.6762  0.6906
17400TIP3   OH273690   3.113   1.925  11.301 -0.7131 -0.3561 -0.6833
17400TIP3    H173691   3.204   1.950  11.317 -1.5234  1.6362  1.1614
17400TIP3    H273692   3.089   1.971  11.221 -0.2484 -0.5277 -0.9259
17401TIP3   OH273693   0.471   6.654   5.335  0.2831 -0.5366  0.3522
17401TIP3    H173694   0.524   6.656   5.255  1.1707 -2.4589  0.8355
17401TIP3    H273695   0.503   6.578   5.383 -0.8970  0.0136  2.1023
17402TIP3   OH273696   3.332   0.654   3.572 -0.3787  0.0611 -0.3010
17402TIP3    H173697   3.265   0.705   3.527  1.3329  2.7086 -0.0652
17402TIP3    H273698   3.340   0.696   3.658  1.0936 -0.6186 -0.0798
17403TIP3   OH273699   3.366   0.036  13.049  0.1800 -0.3279 -0.0025
17403TIP3    H173700   3.386   0.008  12.960  1.0724  0.4474 -0.0600
17403TIP3    H273701   3.274   0.064  13.045 -0.5642 -2.5967 -0.0699
17404TIP3   OH273702   5.961   4.680   0.878  0.5624  0.0444  0.1563
17404TIP3    H173703   5.944   4.773   0.864 -0.3245 -0.4094 -2.2549
17404TIP3    H273704   5.998   4.675   0.967  2.6980  2.9214 -0.4276
17405TIP3   OH273705   4.773   5.634   1.735  0.3277  0.7179  0.0742
17405TIP3    H173706   4.680   5.649   1.753  0.4925 -0.4139  2.3038
17405TIP3    H273707   4.816   5.711   1.771  0.3632  0.3347  0.8803
17406TIP3   OH273708   5.898   6.440   3.655 -0.2102 -0.2963 -0.0754
17406TIP3    H173709   5.974   6.490   3.626 -0.4257  0.6126  0.8380
17406TIP3    H273710   5.918   6.349   3.633  1.1293 -0.0743  0.1270
17407TIP3   OH273711   3.126   0.606  11.061  0.1791  0.1215 -0.3163
17407TIP3    H173712   3.196   0.668  11.044 -0.7195  1.1108 -0.5399
17407TIP3    H273713   3.079   0.644  11.136  1.2567 -1.7365  1.4052
17408TIP3   OH273714   6.666   5.481  13.191  0.1202  0.9002 -0.9884
17408TIP3    H173715   6.756   5.466  13.222 -0.5631  1.5486  1.5259
17408TIP3    H273716   6.644   5.568  13.223 -1.5624  0.5852 -1.2286
17409TIP3   OH273717   4.524   1.028  14.490  0.5470 -0.1281 -0.2803
17409TIP3    H173718   4.501   0.936  14.478  1.3542 -0.4238  0.3205
17409TIP3    H273719   4.473   1.074  14.424  0.4722 -1.0533 -0.8936
17410TIP3   OH273720   5.211   1.233   4.761 -0.2849 -0.1592 -0.5512
17410TIP3    H173721   5.255   1.229   4.676 -1.7915 -0.6925 -1.3381
17410TIP3    H273722   5.183   1.143   4.777 -0.5182  0.0479  0.2318
17411TIP3   OH273723   4.299   6.762   2.074 -0.2644  0.2395  0.4556
17411TIP3    H173724   4.218   6.719   2.046 -0.7146  0.5959  1.1704
17411TIP3    H273725   4.335   6.800   1.994 -0.4783 -0.4464  0.0253
17412TIP3   OH273726   6.765   4.131  15.404 -0.4694  0.2558  0.0209
17412TIP3    H173727   6.765   4.036  15.415  0.7627  0.3001  0.5798
17412TIP3    H273728   6.845   4.149  15.353 -1.4424  0.8757 -1.3309
17413TIP3   OH273729   1.895   3.359   4.367  0.4375 -0.0009 -0.1059
17413TIP3    H173730   1.832   3.294   4.337 -2.4185  2.5355 -0.1110
17413TIP3    H273731   1.972   3.346   4.312 -0.6967 -2.1336 -1.3048
17414TIP3   OH273732   1.559   4.524   1.190 -0.6976  0.5449  0.2007
17414TIP3    H173733   1.537   4.504   1.280  1.9161 -1.2189  0.5633
17414TIP3    H273734   1.486   4.491   1.138 -0.9193 -1.0856  1.5043
17415TIP3   OH273735   4.667   3.825  16.332  0.1450  0.5679  0.5077
17415TIP3    H173736   4.634   3.741  16.299 -0.0968  0.4422  1.0628
17415TIP3    H273737   4.607   3.890  16.296 -2.1447  0.1871  3.2438
17416TIP3   OH273738   6.049   6.068   1.911 -0.1651  0.1069 -0.5376
17416TIP3    H173739   5.992   6.094   1.984  1.3526  0.4385  0.5767
17416TIP3    H273740   6.126   6.030   1.953  0.2495 -0.7619 -2.0194
17417TIP3   OH273741   1.682   6.518  12.858  0.7089 -0.4533 -0.6296
17417TIP3    H173742   1.628   6.456  12.907  0.2504  0.4049 -0.0254
17417TIP3    H273743   1.767   6.475  12.851  0.9302 -0.4189  1.3388
17418TIP3   OH273744   0.025   2.738   1.608  0.3945 -0.3071 -0.4002
17418TIP3    H173745  -0.015   2.800   1.548 -0.8629 -0.9959 -0.3244
17418TIP3    H273746  -0.049   2.685   1.640  1.0310 -0.0506  1.6458
17419TIP3   OH273747   0.761   1.269   2.148  0.0964 -0.0941  0.3934
17419TIP3    H173748   0.817   1.203   2.191  0.1493 -0.0107  0.4538
17419TIP3    H273749   0.818   1.311   2.084 -0.5759 -1.7921 -1.4387
17420TIP3   OH273750   0.301   5.343  11.142 -0.2058 -0.6646 -0.0090
17420TIP3    H173751   0.307   5.435  11.116 -1.8052 -0.8086 -1.0533
17420TIP3    H273752   0.357   5.335  11.218 -1.0679  1.4886  0.9223
17421TIP3   OH273753   2.875   3.140  14.344  1.0518 -0.1482  0.2342
17421TIP3    H173754   2.850   3.232  14.341 -0.4005 -0.4179  1.9837
17421TIP3    H273755   2.804   3.094  14.300  1.0525 -0.5276  0.6213
17422TIP3   OH273756   2.157   4.552   0.941 -0.1845  0.5888  0.2297
17422TIP3    H173757   2.227   4.610   0.972  2.6654 -1.7022 -1.3737
17422TIP3    H273758   2.158   4.478   1.002 -1.1302  0.4690  0.1101
17423TIP3   OH273759   0.168   6.615  11.320 -0.3949 -0.2363  0.0551
17423TIP3    H173760   0.155   6.530  11.361  0.5960 -0.3752  0.1200
17423TIP3    H273761   0.173   6.676  11.394 -0.4733 -0.2201  0.0459
17424TIP3   OH273762   4.271   6.341  14.112 -0.2456 -0.1827 -0.0856
17424TIP3    H173763   4.251   6.429  14.143  0.4172 -0.1856  0.3748
17424TIP3    H273764   4.366   6.334  14.119 -0.2802 -0.8970 -0.2221
17425TIP3   OH273765   1.387   2.350  14.775 -0.3827  0.7797 -0.2353
17425TIP3    H173766   1.321   2.315  14.835 -1.4400  0.8408 -1.2977
17425TIP3    H273767   1.465   2.363  14.828 -1.2370  0.7039  1.0793
17426TIP3   OH273768   6.472   2.725  14.812  0.5549 -0.0915 -0.0866
17426TIP3    H173769   6.380   2.749  14.801  0.5513 -0.3669 -0.7076
17426TIP3    H273770   6.512   2.802  14.852  0.3812  0.6755 -1.3140
17427TIP3   OH273771   6.256   2.599   1.111  0.3215  0.3640 -0.1319
17427TIP3    H173772   6.338   2.636   1.079  1.3115 -0.4984  1.2867
17427TIP3    H273773   6.282   2.518   1.155 -1.2433  0.2862  0.7177
17428TIP3   OH273774   3.699   2.381  10.946  0.7115  0.1962  0.6470
17428TIP3    H173775   3.750   2.324  11.002 -1.9509 -1.2112  1.8165
17428TIP3    H273776   3.663   2.447  11.005  0.6347  0.7650 -0.0205
17429TIP3   OH273777   2.846   1.190  12.259 -0.4315  0.0221 -0.1562
17429TIP3    H173778   2.852   1.159  12.349  0.8853  1.4172  0.2838
17429TIP3    H273779   2.912   1.139  12.212 -1.7648 -1.3729 -0.5680
17430TIP3   OH273780   1.632   1.737   4.062 -0.0683  0.1577  0.4091
17430TIP3    H173781   1.675   1.663   4.104  1.1611  0.3486 -0.4814
17430TIP3    H273782   1.680   1.751   3.981  0.0773  2.2396  0.7833
17431TIP3   OH273783   1.189   6.702   5.265  0.2263  0.4183  0.2694
17431TIP3    H173784   1.221   6.687   5.354  1.6525  0.7580 -0.1467
17431TIP3    H273785   1.269   6.710   5.213 -0.5677  1.5010 -0.8293
17432TIP3   OH273786   2.503   1.043  16.095 -0.4440  0.3949  0.1958
17432TIP3    H173787   2.505   0.999  16.011  2.4995  0.9000 -0.1024
17432TIP3    H273788   2.492   1.135  16.074 -2.4451  0.3029  0.5952
17433TIP3   OH273789   3.346   1.106  15.289 -0.0816 -0.2124  0.8232
17433TIP3    H173790   3.351   1.067  15.202 -3.0327 -0.5297  0.7139
17433TIP3    H273791   3.426   1.159  15.296  0.8193 -1.1308 -1.5659
17434TIP3   OH273792   1.769   4.164   0.597 -0.1806 -0.0909 -0.1670
17434TIP3    H173793   1.715   4.100   0.643  1.0346  0.0528  1.5509
17434TIP3    H273794   1.835   4.111   0.552 -0.6054 -0.1593 -0.7204
17435TIP3   OH273795   6.159   2.283   6.722  0.0899 -0.2936  0.5345
17435TIP3    H173796   6.120   2.269   6.809 -0.8052  0.2737  0.2440
17435TIP3    H273797   6.155   2.378   6.710  0.8257 -0.3099  0.1460
17436TIP3   OH273798   6.088   2.800  17.190  0.3221  0.1826  1.0226
17436TIP3    H173799   6.139   2.880  17.179 -0.1821  0.2474 -1.2394
17436TIP3    H273800   6.152   2.736  17.223  1.0834  1.0855  1.3709
17437TIP3   OH273801   5.841   1.890   1.970 -0.1894  0.6899 -0.0619
17437TIP3    H173802   5.780   1.963   1.976 -0.8223  0.1666 -0.1034
17437TIP3    H273803   5.787   1.814   1.949  0.4548  0.1919  0.0324
17438TIP3   OH273804   6.555   5.581   3.109  0.0035  1.1385 -0.1678
17438TIP3    H173805   6.537   5.636   3.185 -1.0812  3.1167 -1.7227
17438TIP3    H273806   6.476   5.527   3.100  1.6760 -1.9855  2.2498
17439TIP3   OH273807   1.374   4.780   0.835 -0.1646 -0.5596  0.6969
17439TIP3    H173808   1.279   4.776   0.840 -0.2754  0.4090 -0.1991
17439TIP3    H273809   1.401   4.691   0.809 -1.1202 -0.0884 -2.3463
17440TIP3   OH273810   6.408   2.398  13.150 -0.0775  0.4257  0.0922
17440TIP3    H173811   6.388   2.372  13.240  0.5979  1.2248  0.4832
17440TIP3    H273812   6.339   2.461  13.127 -0.7186 -0.3862 -0.2463
17441TIP3   OH273813   6.751   2.782   2.886  0.2475  0.0329  0.1462
17441TIP3    H173814   6.747   2.688   2.903  1.9728 -0.1131 -0.0576
17441TIP3    H273815   6.842   2.805   2.902 -0.2177  1.7456  0.5063
17442TIP3   OH273816   1.295   1.503  10.715 -0.1011  0.2010  0.1111
17442TIP3    H173817   1.202   1.513  10.696 -0.5983  0.8618  2.4666
17442TIP3    H273818   1.306   1.410  10.734 -0.3613  0.1797  0.1614
17443TIP3   OH273819   4.451   1.193   1.720 -0.0505 -0.6262  0.4287
17443TIP3    H173820   4.397   1.188   1.641 -1.3385 -0.4241  1.2680
17443TIP3    H273821   4.541   1.191   1.687 -0.5492 -0.8817 -1.0179
17444TIP3   OH273822   2.989   1.019  13.336  0.2247 -0.2097  0.3371
17444TIP3    H173823   2.907   1.068  13.345 -0.4540 -1.4884  1.4199
17444TIP3    H273824   3.045   1.052  13.406 -1.2775 -2.8402  3.0448
17445TIP3   OH273825   1.568   4.351   1.434  0.1561  0.0137  0.0373
17445TIP3    H173826   1.574   4.267   1.390  0.5212 -0.4893  1.0165
17445TIP3    H273827   1.475   4.362   1.452  0.0486  0.0588 -0.5290
17446TIP3   OH273828   4.256   4.017  16.396  0.6104 -0.4089  0.9770
17446TIP3    H173829   4.181   3.959  16.410  0.2106 -0.1619 -0.0715
17446TIP3    H273830   4.286   4.039  16.484 -1.1037  0.2053  1.4398
17447TIP3   OH273831   2.363   6.302  13.797 -0.1977  0.7293 -0.2331
17447TIP3    H173832   2.333   6.332  13.712  0.3353  0.8224 -0.3906
17447TIP3    H273833   2.361   6.380  13.853 -0.8785  0.5956 -0.0624
17448TIP3   OH273834   0.741   5.052   2.191  0.1330 -0.2578 -0.3795
17448TIP3    H173835   0.697   4.969   2.208 -1.3778  1.0467  2.9581
17448TIP3    H273836   0.681   5.101   2.134 -0.4896 -0.3024  0.2285
17449TIP3   OH273837   4.986   5.274  13.438 -0.0662 -0.5125  0.4892
17449TIP3    H173838   4.980   5.221  13.358 -1.1533  0.2885  0.0155
17449TIP3    H273839   4.897   5.306  13.452  0.1071 -0.6262  2.0318
17450TIP3   OH273840   5.688   5.389   0.810 -0.0824  0.3446 -0.1759
17450TIP3    H173841   5.735   5.465   0.773 -0.4590  0.6209 -0.0888
17450TIP3    H273842   5.615   5.427   0.858  0.8227  0.0342  1.4970
17451TIP3   OH273843   2.468   1.947   1.499 -0.0574  0.2551  0.0365
17451TIP3    H173844   2.522   1.868   1.489 -0.1062  0.2710 -0.3535
17451TIP3    H273845   2.452   1.953   1.593 -0.2608 -0.3441  0.0465
17452TIP3   OH273846   0.391   3.843  17.139 -0.3336 -0.4123 -0.0424
17452TIP3    H173847   0.379   3.935  17.165  3.1538  0.3115 -0.4871
17452TIP3    H273848   0.373   3.793  17.218  0.4740  0.9285  1.0452
17453TIP3   OH273849   6.128   3.499   3.814  0.1186 -0.1044 -0.5060
17453TIP3    H173850   6.134   3.431   3.882  1.8313  0.4171 -0.0830
17453TIP3    H273851   6.173   3.461   3.739  2.2807  0.9873  0.1557
17454TIP3   OH273852   2.520   2.645  15.738 -0.0251 -1.0592 -0.5225
17454TIP3    H173853   2.519   2.549  15.736  0.8401 -1.0789 -0.4320
17454TIP3    H273854   2.569   2.667  15.817 -0.6786 -0.5282 -0.2473
17455TIP3   OH273855   2.318   2.001   0.794  0.0523 -0.1141  0.0019
17455TIP3    H173856   2.249   1.987   0.729 -0.4543  0.2684  0.4410
17455TIP3    H273857   2.306   2.093   0.821 -0.4360 -0.5492  1.3939
17456TIP3   OH273858   1.478   0.475   0.927 -0.0269 -0.5333 -0.3037
17456TIP3    H173859   1.447   0.505   0.841  0.5891  1.5845  0.1678
17456TIP3    H273860   1.420   0.402   0.949 -1.8002  0.4657 -1.4245
17457TIP3   OH273861   3.426   4.182  15.078  0.0554  0.4358  0.1874
17457TIP3    H173862   3.350   4.186  15.136  0.2347  0.9073  0.3933
17457TIP3    H273863   3.392   4.209  14.992 -0.1527 -0.0089  0.1275
17458TIP3   OH273864   2.342   6.227  17.064  0.2461  0.5477  0.1445
17458TIP3    H173865   2.325   6.155  17.003  1.5315  1.2191 -1.0807
17458TIP3    H273866   2.370   6.299  17.008 -2.6295  2.6383  1.1196
17459TIP3   OH273867   1.877   0.050   0.064 -0.0705  0.5494  0.4963
17459TIP3    H173868   1.851   0.117  -0.000  0.6691 -0.4319 -0.8648
17459TIP3    H273869   1.970   0.065   0.077 -0.0392  0.1889  0.6829
17460TIP3   OH273870   4.554   1.350   4.468  1.1195  0.3626 -0.3631
17460TIP3    H173871   4.508   1.316   4.392  1.2780 -1.1950  0.1760
17460TIP3    H273872   4.503   1.317   4.543  2.1196  0.0623  0.2058
17461TIP3   OH273873   3.370   5.068  11.072 -0.0076  0.0470  0.6877
17461TIP3    H173874   3.373   5.138  11.007 -1.3595  1.0761  1.6959
17461TIP3    H273875   3.398   4.990  11.023 -0.2355  0.9212 -0.9219
17462TIP3   OH273876   1.950   6.421   0.928 -0.3546 -0.4288  0.3669
17462TIP3    H173877   1.984   6.508   0.951  0.1632 -0.6780  0.5461
17462TIP3    H273878   1.914   6.388   1.011  1.6135 -1.3748  0.8981
17463TIP3   OH273879   5.079   4.866   2.641  0.1448 -0.4686  0.3407
17463TIP3    H173880   5.161   4.821   2.659 -0.5092 -1.0466  2.0216
17463TIP3    H273881   5.018   4.796   2.618 -0.1428 -0.1388  0.0841
17464TIP3   OH273882   2.097   3.060   2.362 -0.5447 -0.2327  0.1484
17464TIP3    H173883   2.063   3.082   2.275 -0.5834  0.3437  0.3041
17464TIP3    H273884   2.180   3.015   2.345 -0.2018  0.5059 -0.1742
17465TIP3   OH273885   1.514   0.780   3.171  0.3595  0.2199  0.4171
17465TIP3    H173886   1.577   0.748   3.107  0.0256  0.9853 -0.3180
17465TIP3    H273887   1.542   0.741   3.254 -1.0918 -3.4340 -0.6502
17466TIP3   OH273888   4.782   3.697  13.194 -0.2565  0.2410  0.1737
17466TIP3    H173889   4.860   3.711  13.140 -1.4960  2.8515 -1.1336
17466TIP3    H273890   4.782   3.771  13.255 -0.7684 -0.7405  1.3992
17467TIP3   OH273891   6.644   6.008   3.621 -0.2166  0.0452 -0.4690
17467TIP3    H173892   6.617   6.074   3.685  1.4995  0.9423 -0.6053
17467TIP3    H273893   6.715   6.050   3.572 -0.3942 -1.2156 -1.8780
17468TIP3   OH273894   2.552   4.964  13.458  0.0390 -0.4789 -0.6977
17468TIP3    H173895   2.482   5.024  13.486  1.1892  0.2984  0.5936
17468TIP3    H273896   2.623   4.979  13.519  1.1578 -1.6684 -1.6482
17469TIP3   OH273897   1.629   5.256   0.972 -0.1501 -0.0122 -0.2979
17469TIP3    H173898   1.574   5.287   1.045 -0.0736 -1.5447  0.4508
17469TIP3    H273899   1.590   5.172   0.948  1.4588 -0.8092 -0.1949
17470TIP3   OH273900   4.966   4.884  17.138 -0.7976  0.2619  0.4965
17470TIP3    H173901   4.883   4.929  17.116 -0.5109  0.1828 -0.8694
17470TIP3    H273902   4.950   4.845  17.223 -1.7867  1.2008  0.7742
17471TIP3   OH273903   1.175   2.713  16.925  0.4193  0.2007 -0.1850
17471TIP3    H173904   1.102   2.668  16.968  1.2216 -1.1202 -0.1454
17471TIP3    H273905   1.167   2.804  16.953  0.1209 -0.3545  1.7203
17472TIP3   OH273906   3.327   4.362  13.490 -0.4982 -0.2374  0.2893
17472TIP3    H173907   3.290   4.441  13.529 -0.5209  0.4741 -1.0818
17472TIP3    H273908   3.252   4.313  13.457 -0.4129 -0.2418  0.0953
17473TIP3   OH273909   6.143   3.030  11.576 -0.5244 -0.3456  0.2049
17473TIP3    H173910   6.085   2.960  11.548  0.1704 -1.5751  1.6530
17473TIP3    H273911   6.151   3.088  11.500 -1.3001 -1.7134 -0.9518
17474TIP3   OH273912   2.977   4.549   0.240  0.0612 -0.0644  0.9597
17474TIP3    H173913   3.019   4.472   0.280 -2.0815 -0.4903  2.6019
17474TIP3    H273914   2.930   4.514   0.165 -0.1726 -0.2087  1.1716
17475TIP3   OH273915   4.418   2.649   4.640  0.2391 -0.0073  0.0519
17475TIP3    H173916   4.355   2.589   4.600 -0.3278  0.1159  0.7525
17475TIP3    H273917   4.389   2.736   4.613 -1.5385  0.2654  2.5651
17476TIP3   OH273918   3.215   1.270   5.758 -0.1330 -0.5363 -0.3132
17476TIP3    H173919   3.292   1.299   5.807 -0.9377 -1.1114  1.3869
17476TIP3    H273920   3.165   1.350   5.742 -0.6879 -0.5152  1.3535
17477TIP3   OH273921   6.708   1.075   1.173 -0.1621  0.1478 -0.5257
17477TIP3    H173922   6.751   1.119   1.100 -0.7545  1.0949 -0.3305
17477TIP3    H273923   6.763   0.999   1.192  0.3719  0.2796 -1.4989
17478TIP3   OH273924   6.640   3.673   0.822 -0.2736 -0.1691 -0.7045
17478TIP3    H173925   6.546   3.687   0.831 -0.1555  0.2597 -0.1682
17478TIP3    H273926   6.653   3.660   0.728 -0.9613 -0.9396 -0.7087
17479TIP3   OH273927   6.434   3.489  11.650 -0.2257  0.5195 -0.0486
17479TIP3    H173928   6.350   3.471  11.691 -0.6457 -0.7804 -1.3714
17479TIP3    H273929   6.456   3.578  11.676 -0.8943  0.0940  2.1707
17480TIP3   OH273930   5.851   0.301   2.522  0.8942  0.2783 -0.0116
17480TIP3    H173931   5.811   0.369   2.577  1.3599  0.8953 -0.4237
17480TIP3    H273932   5.824   0.219   2.563  2.3922  0.7162  1.9723
17481TIP3   OH273933   2.213   6.410   4.631 -0.1579 -0.7373 -0.3810
17481TIP3    H173934   2.305   6.385   4.627  0.7721  2.0464  0.9158
17481TIP3    H273935   2.197   6.459   4.551 -0.2261 -0.4226 -0.1782
17482TIP3   OH273936   0.234   0.164   3.806  0.0291  0.2107 -0.2798
17482TIP3    H173937   0.282   0.118   3.875 -0.0010  0.4223 -0.1139
17482TIP3    H273938   0.296   0.168   3.733 -0.6853 -1.9102 -1.0494
17483TIP3   OH273939   2.078   0.717   3.894  1.1894 -0.4699  0.2932
17483TIP3    H173940   2.122   0.632   3.907 -1.2513 -1.5950  1.9490
17483TIP3    H273941   1.995   0.695   3.852 -0.1200  0.8658  2.0218
17484TIP3   OH273942   4.803   6.528  14.110  0.7031 -0.0033  0.0389
17484TIP3    H173943   4.777   6.559  14.023  0.3565 -1.3235 -0.3589
17484TIP3    H273944   4.847   6.602  14.150  1.4888  0.4255 -1.5372
17485TIP3   OH273945   6.596   3.440  11.434 -0.3848 -0.1457  0.7038
17485TIP3    H173946   6.535   3.477  11.370 -2.2129 -2.2552  1.1230
17485TIP3    H273947   6.556   3.458  11.519  0.9275  0.7075  1.1762
17486TIP3   OH273948   0.910   1.222  15.074  0.2771  0.6225 -0.0069
17486TIP3    H173949   0.880   1.156  15.136 -1.0303  1.0275 -0.1889
17486TIP3    H273950   1.003   1.233  15.094 -0.1013  0.6894  1.8224
17487TIP3   OH273951   4.810   1.701  13.908 -0.1625  0.0999 -0.4166
17487TIP3    H173952   4.856   1.749  13.977 -1.1645  1.5650 -0.7347
17487TIP3    H273953   4.726   1.677  13.947 -0.0014 -0.6805 -0.5376
17488TIP3   OH273954   5.665   1.635   0.873 -0.6367  0.5817 -0.3091
17488TIP3    H173955   5.623   1.688   0.940  4.4712  1.9866  2.3268
17488TIP3    H273956   5.701   1.698   0.810  1.8020  0.0669  0.4603
17489TIP3   OH273957   0.536   2.865  10.358  0.2524 -0.1812 -0.4838
17489TIP3    H173958   0.587   2.842  10.435 -0.4957 -1.3473 -0.3212
17489TIP3    H273959   0.601   2.872  10.288  0.9321  0.8656  0.2286
17490TIP3   OH273960   4.180   1.238   1.356  0.5628 -0.3902  0.2303
17490TIP3    H173961   4.216   1.155   1.325 -0.4615 -0.4377 -0.8945
17490TIP3    H273962   4.154   1.221   1.446  2.0323 -0.7456  0.6180
17491TIP3   OH273963   5.203   3.698   5.584 -0.4221 -0.1409  0.0684
17491TIP3    H173964   5.195   3.709   5.489  2.5116 -0.2717 -0.3040
17491TIP3    H273965   5.183   3.784   5.620 -1.6904 -0.1212 -0.6164
17492TIP3   OH273966   3.317   0.718   3.847 -0.1298 -0.5302 -0.3010
17492TIP3    H173967   3.411   0.736   3.858 -0.3275  0.6128 -0.3238
17492TIP3    H273968   3.303   0.634   3.891  0.7779 -0.3867  0.2881
17493TIP3   OH273969   0.763   0.796   0.463 -0.8837  0.3479 -0.1298
17493TIP3    H173970   0.749   0.781   0.370 -1.6450 -0.8083  0.1595
17493TIP3    H273971   0.754   0.710   0.504  3.1230  0.0941  0.6314
17494TIP3   OH273972   2.662   1.635  12.309 -0.1232  0.2131 -0.8622
17494TIP3    H173973   2.707   1.648  12.226 -2.0180 -0.1675 -2.0213
17494TIP3    H273974   2.583   1.586  12.286 -0.6730  0.0304  1.1847
17495TIP3   OH273975   4.161   4.342  16.865  0.0759 -0.2009  0.4711
17495TIP3    H173976   4.176   4.319  16.957  2.0992 -1.0354 -0.0161
17495TIP3    H273977   4.140   4.258  16.823  1.6984 -0.2627 -0.2658
17496TIP3   OH273978   1.745   6.353  13.530 -0.2528  0.4084 -0.2792
17496TIP3    H173979   1.669   6.301  13.504 -1.2103  1.1790  0.8629
17496TIP3    H273980   1.814   6.289  13.545 -1.1563 -0.4680  0.2643
17497TIP3   OH273981   2.450   0.234   4.634  0.0804  0.1406 -0.9336
17497TIP3    H173982   2.433   0.194   4.549  1.5566 -1.5378 -0.5059
17497TIP3    H273983   2.528   0.188   4.667  0.1641  1.4591  0.8705
17498TIP3   OH273984   3.431   1.002  16.499 -0.1210  0.0395 -0.0586
17498TIP3    H173985   3.336   0.999  16.511  0.0712 -1.2870  1.5089
17498TIP3    H273986   3.464   1.049  16.576  0.5233  0.0045 -0.3045
17499TIP3   OH273987   5.161   1.523   2.248 -0.2363 -0.7292 -0.7367
17499TIP3    H173988   5.202   1.608   2.268  0.4188 -1.2970  0.4569
17499TIP3    H273989   5.163   1.517   2.153  1.8371 -0.4174 -0.7538
17500TIP3   OH273990   5.366   0.310   5.844 -0.1272 -0.1718 -0.3108
17500TIP3    H173991   5.435   0.245   5.856  0.7670  0.6422 -0.8667
17500TIP3    H273992   5.368   0.330   5.751 -1.2855 -0.3040 -0.3763
17501TIP3   OH273993   0.683   0.306  12.461  0.2518 -0.3615  0.1535
17501TIP3    H173994   0.618   0.274  12.524 -0.2269 -2.7313 -1.4448
17501TIP3    H273995   0.763   0.315  12.512  0.0481 -2.8466  1.0469
17502TIP3   OH273996   0.648   0.050  14.122 -0.4644  0.4260  0.8393
17502TIP3    H173997   0.674  -0.015  14.056 -1.3026 -0.3008  1.2110
17502TIP3    H273998   0.720   0.050  14.185 -1.5693 -2.0238  2.1952
17503TIP3   OH273999   0.114   3.154  15.170 -0.0138  0.6994  0.0845
17503TIP3    H174000   0.200   3.112  15.162  0.1064  1.0229 -0.3343
17503TIP3    H274001   0.101   3.164  15.264  0.2357  0.3026  0.1658
17504TIP3   OH274002   1.493   1.164   6.056  0.0304 -0.4831  0.1537
17504TIP3    H174003   1.535   1.241   6.095  2.6679 -0.6050 -2.1327
17504TIP3    H274004   1.477   1.188   5.965 -1.2340 -1.8948 -0.0481
17505TIP3   OH274005   4.819   6.708   5.289  0.2748  0.0216  0.1615
17505TIP3    H174006   4.835   6.795   5.325  0.2868  0.2295 -0.3403
17505TIP3    H274007   4.724   6.697   5.291  0.3414 -0.5537  1.6034
17506TIP3   OH274008   5.959   5.007   3.958 -0.2762 -0.0551 -0.3945
17506TIP3    H174009   5.938   5.086   3.908 -0.2257  0.4500  0.3675
17506TIP3    H274010   5.931   4.935   3.902 -2.3129  0.5488 -0.2286
17507TIP3   OH274011   5.411   6.124  11.030  0.2691  0.3114  0.4071
17507TIP3    H174012   5.347   6.119  10.958 -0.8156  1.0939  1.2817
17507TIP3    H274013   5.393   6.048  11.084  0.3868  0.2859  0.4115
17508TIP3   OH274014   3.956   5.100   1.408  0.4384 -0.1988  0.0583
17508TIP3    H174015   3.871   5.061   1.389  2.1213 -4.3835 -0.0627
17508TIP3    H274016   3.950   5.190   1.375 -3.1924 -0.9887 -1.9165
17509TIP3   OH274017   1.886   2.077   6.201  0.2698  0.1945 -0.1802
17509TIP3    H174018   1.843   2.018   6.262 -1.4830 -0.1255 -1.6428
17509TIP3    H274019   1.814   2.121   6.155  1.4674 -0.0293 -2.4373
17510TIP3   OH274020   0.179   0.549   3.000  0.4294  0.2607 -0.6666
17510TIP3    H174021   0.194   0.641   3.024 -0.1876 -0.2729  2.2439
17510TIP3    H274022   0.256   0.524   2.950  3.0893  1.1309  2.5765
17511TIP3   OH274023   3.468   6.619  14.131  0.1334 -0.3812  0.0992
17511TIP3    H174024   3.393   6.598  14.186  0.0534  1.2492  0.6375
17511TIP3    H274025   3.430   6.636  14.045  0.0887 -1.2267 -0.0640
17512TIP3   OH274026   6.171   1.228  11.991 -0.3472 -0.1854 -0.1603
17512TIP3    H174027   6.235   1.159  11.971 -0.5197 -0.3374 -0.1866
17512TIP3    H274028   6.126   1.244  11.909  1.7536  2.1292 -0.9871
17513TIP3   OH274029   1.806   1.013   4.001 -0.7553 -0.3156  0.2421
17513TIP3    H174030   1.885   1.056   4.033 -1.5975  1.4733  0.0045
17513TIP3    H274031   1.837   0.957   3.930  0.6290 -1.6136  1.7770
17514TIP3   OH274032   1.242   4.648   0.340 -0.1567  0.3848 -0.6362
17514TIP3    H174033   1.168   4.592   0.363  0.0872 -0.2173 -1.2736
17514TIP3    H274034   1.314   4.617   0.396  0.6864 -1.6766 -2.7100
17515TIP3   OH274035   4.183   6.532   2.207 -0.5331 -0.1973  0.5139
17515TIP3    H174036   4.137   6.489   2.279 -2.0020  0.8079  0.2147
17515TIP3    H274037   4.170   6.625   2.222  0.0682  0.0599 -0.4737
17516TIP3   OH274038   5.980   2.339   5.843 -0.6455 -0.8339  0.2789
17516TIP3    H174039   5.975   2.430   5.870 -1.0058 -0.6798 -0.2920
17516TIP3    H274040   6.041   2.299   5.905 -1.3480 -0.4673  1.2387
17517TIP3   OH274041   0.206   0.193   4.271 -0.1615  0.7637  0.5025
17517TIP3    H174042   0.119   0.160   4.249  0.6096 -0.7762 -0.4781
17517TIP3    H274043   0.224   0.158   4.358  0.4381 -1.1211 -0.3189
17518TIP3   OH274044   1.979   2.882   5.393  0.5468 -0.0169 -0.3172
17518TIP3    H174045   2.009   2.946   5.458  1.1532 -0.4481 -0.1683
17518TIP3    H274046   2.009   2.798   5.427  3.9909 -0.0014 -2.8344
17519TIP3   OH274047   0.037   5.817   2.719  0.3283 -0.2301 -0.3407
17519TIP3    H174048   0.048   5.732   2.763  4.0936 -0.2636 -0.9833
17519TIP3    H274049   0.026   5.880   2.789 -0.8549 -1.0413  0.2271
17520TIP3   OH274050   6.047   3.215  16.494 -0.1039 -0.4082 -0.1023
17520TIP3    H174051   6.067   3.170  16.576 -0.6393  0.2002  0.3713
17520TIP3    H274052   6.096   3.166  16.427 -0.5889 -1.6367  0.4035
17521TIP3   OH274053   3.869   5.187   6.665 -0.3525 -0.2566  0.4299
17521TIP3    H174054   3.807   5.259   6.657 -0.2857 -0.2399  0.0335
17521TIP3    H274055   3.817   5.115   6.700 -0.5213 -0.1480  0.4042
17522TIP3   OH274056   5.551   3.141  16.927 -0.3310 -0.3354  0.7401
17522TIP3    H174057   5.469   3.128  16.975 -0.3157  1.0006  1.1634
17522TIP3    H274058   5.582   3.053  16.907 -0.7809 -0.9001  2.4430
17523TIP3   OH274059   2.997   6.058  16.579  0.0907 -0.3346 -0.2013
17523TIP3    H174060   2.917   6.071  16.628 -0.5956  0.9751 -1.5608
17523TIP3    H274061   3.066   6.050  16.645 -1.1709 -1.8474  0.9899
17524TIP3   OH274062   2.423   6.759  12.779 -0.0664 -0.2492  0.6203
17524TIP3    H174063   2.376   6.829  12.733 -0.3878  0.1164  1.4884
17524TIP3    H274064   2.507   6.754  12.733 -0.7164 -0.5111 -0.5693
17525TIP3   OH274065   4.081   4.024  11.965 -0.4014  0.0982  0.2681
17525TIP3    H174066   4.170   4.004  11.993 -1.2655 -2.0167  1.7488
17525TIP3    H274067   4.053   3.947  11.917 -0.5232  1.8865 -2.7671
17526TIP3   OH274068   1.693   4.526  14.668 -0.5872  0.1518  0.0863
17526TIP3    H174069   1.609   4.553  14.630 -0.8585 -0.7753  0.0046
17526TIP3    H274070   1.717   4.598  14.726 -0.8450  0.9772 -0.7909
17527TIP3   OH274071   0.553   6.191  14.276  0.3481 -0.0148 -0.4026
17527TIP3    H174072   0.612   6.158  14.343 -1.6570 -2.1728  0.4381
17527TIP3    H274073   0.553   6.123  14.209 -1.5119 -0.3083 -0.1403
17528TIP3   OH274074   4.766   0.863   5.664 -0.2496 -0.1782 -0.9042
17528TIP3    H174075   4.810   0.806   5.727 -0.2558  0.2036 -0.5517
17528TIP3    H274076   4.787   0.825   5.579 -0.3428 -0.7703 -0.6667
17529TIP3   OH274077   0.694   3.530  14.908 -0.4017  0.3412  0.0185
17529TIP3    H174078   0.603   3.535  14.940 -0.1068 -0.7132  1.0891
17529TIP3    H274079   0.710   3.436  14.896  0.2963  0.5680 -0.9712
17530TIP3   OH274080   6.804   5.371   2.722 -0.2647  0.1999 -0.2995
17530TIP3    H174081   6.812   5.465   2.736 -1.1449  0.1826  0.3634
17530TIP3    H274082   6.710   5.353   2.727 -0.1062 -0.7137 -0.3837
17531TIP3   OH274083   2.950   0.059   1.113  0.4896  0.2214  0.4150
17531TIP3    H174084   2.891  -0.011   1.142  0.2984 -0.0794 -0.6830
17531TIP3    H274085   3.008   0.074   1.188 -0.1860 -0.3373  1.0569
17532TIP3   OH274086   5.570   5.674   5.142 -0.1438 -0.3351 -0.0690
17532TIP3    H174087   5.523   5.607   5.092 -2.0159  0.1543  0.9534
17532TIP3    H274088   5.543   5.757   5.101 -1.2466  0.0311  1.3161
17533TIP3   OH274089   0.415   5.494   0.799 -0.3642 -0.5358 -0.5186
17533TIP3    H174090   0.330   5.478   0.839 -0.3362  0.2227 -0.1300
17533TIP3    H274091   0.478   5.471   0.867 -0.3330  1.5516  0.2215
17534TIP3   OH274092   4.414   3.616  13.822 -0.1474 -0.2105 -0.0386
17534TIP3    H174093   4.392   3.523  13.819  0.0753 -0.2878  0.6407
17534TIP3    H274094   4.336   3.658  13.859 -0.3092 -0.1056 -0.4959
17535TIP3   OH274095   6.260   2.436  16.974 -0.3875 -0.0865 -0.6308
17535TIP3    H174096   6.210   2.454  16.895 -0.0574  1.1632 -0.5806
17535TIP3    H274097   6.225   2.497  17.039  0.6025  0.2121 -0.3568
17536TIP3   OH274098   5.360   0.168   2.463 -0.4277 -0.2150 -0.0218
17536TIP3    H174099   5.406   0.252   2.452 -0.6518  0.1898  1.8504
17536TIP3    H274100   5.427   0.108   2.496  0.1691 -1.3273 -2.9452
17537TIP3   OH274101   0.971   6.175   4.255 -0.2250  0.0280 -0.1556
17537TIP3    H174102   0.943   6.262   4.285 -1.1873 -0.8037  1.4980
17537TIP3    H274103   0.891   6.124   4.250  0.4830 -1.1724  0.3508
17538TIP3   OH274104   6.355   2.845   2.557 -0.3370  0.0597  0.2843
17538TIP3    H174105   6.377   2.934   2.532 -1.9660  1.2480  2.7163
17538TIP3    H274106   6.440   2.802   2.571  0.5405  0.3695 -3.2707
17539TIP3   OH274107   4.909   5.459  14.593 -1.0791 -0.2426  0.3147
17539TIP3    H174108   5.003   5.451  14.573 -1.3381  0.4491 -1.3462
17539TIP3    H274109   4.906   5.512  14.673 -0.0634  2.1426 -1.0987
17540TIP3   OH274110   3.161   5.722  13.062  0.2445  0.7021  0.2746
17540TIP3    H174111   3.104   5.668  13.118  1.0078  0.8729  1.2484
17540TIP3    H274112   3.134   5.812  13.080 -0.8364  0.6851 -1.1389
17541TIP3   OH274113   1.021   4.572  12.527 -0.5128 -0.7956 -0.6148
17541TIP3    H174114   1.057   4.654  12.561  0.1940 -1.1385 -0.5219
17541TIP3    H274115   0.953   4.548  12.590 -1.2514  0.1056 -1.0447
17542TIP3   OH274116   5.727   6.139  12.703 -0.1603 -0.6014  0.4010
17542TIP3    H174117   5.719   6.046  12.723 -0.4211 -0.8297 -0.6987
17542TIP3    H274118   5.821   6.154  12.694 -0.1477 -0.8564  0.1161
17543TIP3   OH274119   4.932   6.586   6.538 -0.1293  0.1732 -0.0844
17543TIP3    H174120   4.993   6.512   6.549  1.5170  1.7959  3.1759
17543TIP3    H274121   4.968   6.636   6.466 -0.3682 -1.3219 -1.2918
17544TIP3   OH274122   0.387   3.048  15.871  0.4067 -0.2703  0.1130
17544TIP3    H174123   0.443   3.012  15.802 -0.1587  0.4743 -0.7546
17544TIP3    H274124   0.323   3.102  15.825 -0.7072 -0.6652  1.1178
17545TIP3   OH274125   2.457   4.862  10.655  0.4725  0.4306  0.5725
17545TIP3    H174126   2.420   4.811  10.727  0.2788  1.5621  1.3018
17545TIP3    H274127   2.501   4.935  10.698  2.1766  0.0188 -0.3546
17546TIP3   OH274128   4.823   0.706   1.563 -0.0688  0.0852 -0.1673
17546TIP3    H174129   4.765   0.747   1.628  0.6718  0.5271  0.2287
17546TIP3    H274130   4.848   0.622   1.603 -1.8630 -0.9652 -1.1284
17547TIP3   OH274131   3.052   4.688  10.795  0.3292  0.4805  0.2871
17547TIP3    H174132   3.019   4.778  10.792 -1.6233 -0.1600  0.7318
17547TIP3    H274133   2.991   4.642  10.854  1.2227 -1.1437  0.0139
17548TIP3   OH274134   3.944   6.254  15.188  0.1657  0.1543 -0.3801
17548TIP3    H174135   4.016   6.283  15.131  1.7793  2.1246  2.4121
17548TIP3    H274136   3.985   6.237  15.272 -2.4011 -0.5153  0.8377
17549TIP3   OH274137   0.309   1.662   0.746 -0.3085 -0.1886  0.2311
17549TIP3    H174138   0.383   1.601   0.745  0.4333  0.6401 -1.7471
17549TIP3    H274139   0.244   1.621   0.687 -0.0215  0.6308 -0.6855
17550TIP3   OH274140   4.113   3.958   2.540  0.5152 -0.1918 -0.2729
17550TIP3    H174141   4.103   3.992   2.452 -0.7383  0.6352  0.1583
17550TIP3    H274142   4.145   3.869   2.528  4.2308  1.1525 -1.4103
17551TIP3   OH274143   1.196   4.075  15.788  0.2194  0.0571  0.1451
17551TIP3    H174144   1.210   3.995  15.839  0.6667 -0.5816 -0.9627
17551TIP3    H274145   1.281   4.095  15.750 -0.2205  0.2156 -0.7915
17552TIP3   OH274146   4.721   4.908   1.198  0.3247  0.6005  0.5051
17552TIP3    H174147   4.718   4.830   1.141  0.5107  0.2191  1.0125
17552TIP3    H274148   4.679   4.977   1.146  0.3458  0.2162 -0.0333
17553TIP3   OH274149   2.629   4.912   2.128  0.0895  0.2594 -0.1136
17553TIP3    H174150   2.667   4.824   2.132  0.6834  0.5142 -0.1422
17553TIP3    H274151   2.548   4.900   2.078 -0.2433 -0.4116  0.5670
17554TIP3   OH274152   4.638   5.120   4.227  0.2187 -0.1221  0.2354
17554TIP3    H174153   4.711   5.179   4.246  0.9872  0.2625 -3.2883
17554TIP3    H274154   4.666   5.035   4.260  0.9073  0.5768  1.5709
17555TIP3   OH274155   1.648   6.651   5.363  0.2206  0.0863  0.0906
17555TIP3    H174156   1.714   6.590   5.396 -1.5384 -1.6290  0.6615
17555TIP3    H274157   1.663   6.731   5.412  1.5816 -0.3997  0.5201
17556TIP3   OH274158   0.343   3.562  15.271  0.1182 -0.2164 -0.1403
17556TIP3    H174159   0.403   3.488  15.267  1.7586  0.9912  0.6403
17556TIP3    H274160   0.283   3.541  15.343 -0.6016 -1.5380 -1.0771
17557TIP3   OH274161   0.562   0.374  16.441 -0.1888  0.0228 -0.6025
17557TIP3    H174162   0.477   0.343  16.412 -0.0784  0.0066 -0.9082
17557TIP3    H274163   0.542   0.446  16.501 -0.4084  0.2988 -1.0003
17558TIP3   OH274164   3.064   6.158   5.551  0.2815  0.6335  0.0927
17558TIP3    H174165   3.063   6.163   5.456  0.2463 -1.4016 -0.0569
17558TIP3    H274166   3.061   6.064   5.570  0.2363  1.0004  2.1010
17559TIP3   OH274167   5.821   6.281   0.263 -0.6730 -0.1351  0.3606
17559TIP3    H174168   5.843   6.224   0.336 -0.5936 -0.6192 -0.0348
17559TIP3    H274169   5.747   6.237   0.221 -2.1076  1.1864  1.3625
17560TIP3   OH274170   6.681   4.610   4.284  0.4963 -0.5121 -0.4500
17560TIP3    H174171   6.715   4.647   4.366  1.4886 -0.8133 -0.7056
17560TIP3    H274172   6.586   4.614   4.293  0.5324  2.0057 -0.4302
17561TIP3   OH274173   1.716   4.753   5.396 -0.1102  0.4238  0.2326
17561TIP3    H174174   1.699   4.688   5.465 -1.9867  0.0506 -0.5076
17561TIP3    H274175   1.784   4.713   5.342 -0.2237 -0.2988  0.6096
17562TIP3   OH274176   5.193   2.178   3.972  0.4855  0.4167  0.0859
17562TIP3    H174177   5.105   2.213   3.986 -0.4980 -1.8517 -0.0082
17562TIP3    H274178   5.248   2.226   4.034 -0.9135  1.5021  0.5269
17563TIP3   OH274179   2.104   1.310  15.883 -0.3154  0.0584  0.3107
17563TIP3    H174180   2.172   1.317  15.950  0.9803 -2.2865 -0.6601
17563TIP3    H274181   2.022   1.314  15.932  0.5175  1.2366  1.6909
17564TIP3   OH274182   0.837   4.098   0.671  0.4736  0.1523  0.6361
17564TIP3    H174183   0.889   4.037   0.723 -1.5099 -1.3174  1.0023
17564TIP3    H274184   0.841   4.062   0.582  0.1092  0.0540  0.6605
17565TIP3   OH274185   5.897   0.330   5.133 -0.2089  0.1693 -0.1058
17565TIP3    H174186   5.851   0.279   5.066 -0.9350 -2.2439  2.0679
17565TIP3    H274187   5.847   0.315   5.213  2.4356  0.1656  1.6872
17566TIP3   OH274188   6.254   5.789  11.578 -0.6017 -0.5232 -0.5978
17566TIP3    H174189   6.235   5.748  11.662  0.6337  0.0740 -0.0015
17566TIP3    H274190   6.263   5.716  11.517 -0.1462 -1.0468  0.0816
17567TIP3   OH274191   1.288   5.487  12.732 -0.1721 -0.1470  0.6341
17567TIP3    H174192   1.274   5.581  12.716  0.1607 -0.2133 -0.0836
17567TIP3    H274193   1.380   5.481  12.758  0.8416 -0.6213 -2.5956
17568TIP3   OH274194   2.655   2.914  14.902  0.2954  0.4374 -0.3091
17568TIP3    H174195   2.706   2.866  14.837  0.3758  0.1880 -0.0640
17568TIP3    H274196   2.654   3.004  14.870  0.7553  0.4126 -0.3990
17569TIP3   OH274197   1.146   0.005  14.464 -0.2223  0.0815  0.2043
17569TIP3    H174198   1.081   0.073  14.479  0.6781  1.1499 -0.6221
17569TIP3    H274199   1.224   0.035  14.509  0.5749  0.2546 -1.2171
17570TIP3   OH274200   4.274   3.371  13.800  0.3483 -0.3278  0.5374
17570TIP3    H174201   4.238   3.341  13.884  0.8100 -3.4929 -0.2405
17570TIP3    H274202   4.365   3.341  13.802  0.8409  1.0121 -0.4679
17571TIP3   OH274203   2.607   0.787   0.169 -0.4372 -0.5192  1.1199
17571TIP3    H174204   2.550   0.712   0.151 -0.9070 -0.4633  2.3271
17571TIP3    H274205   2.685   0.771   0.115 -0.7971 -1.5418  0.8788
17572TIP3   OH274206   1.322   2.475   2.846  0.3848 -0.4224 -0.5872
17572TIP3    H174207   1.233   2.448   2.871  0.3767  0.8067  0.9273
17572TIP3    H274208   1.376   2.451   2.921  0.5222  2.6544  0.4700
17573TIP3   OH274209   6.143   6.492  16.718 -0.7068  0.4300  0.2887
17573TIP3    H174210   6.227   6.536  16.734 -0.5620  0.2837 -0.0758
17573TIP3    H274211   6.078   6.559  16.738 -0.4847  0.8376 -0.3117
17574TIP3   OH274212   0.669   2.802   3.101 -0.1934 -0.1891 -0.1259
17574TIP3    H174213   0.759   2.823   3.077  0.0542  1.2190  1.7890
17574TIP3    H274214   0.667   2.706   3.104  0.7168 -0.3167 -1.8909
17575TIP3   OH274215   5.030   6.639   3.730 -0.6397  0.0588 -0.0397
17575TIP3    H174216   5.111   6.591   3.715 -1.2778 -1.5481  1.3431
17575TIP3    H274217   5.055   6.731   3.724  1.4707 -0.3801  1.2087
17576TIP3   OH274218   0.801   4.553   0.577 -0.5924 -0.2925 -0.7008
17576TIP3    H174219   0.792   4.648   0.585  0.6815 -0.0446 -1.7582
17576TIP3    H274220   0.874   4.531   0.634 -0.7495 -0.6101 -0.6231
17577TIP3   OH274221   5.086   6.470   5.451 -0.4855 -0.8238 -0.3385
17577TIP3    H174222   5.050   6.480   5.539  1.0241 -1.2926  0.3525
17577TIP3    H274223   5.172   6.430   5.464  0.2198  0.0670 -1.9398
17578TIP3   OH274224   2.273   2.393  14.975 -0.2685 -0.5294  0.6251
17578TIP3    H174225   2.200   2.376  14.916  0.8578  0.0910 -1.0192
17578TIP3    H274226   2.351   2.371  14.924  0.8093  1.1726  1.4460
17579TIP3   OH274227   2.525   1.516   4.505 -0.2486  0.2875 -1.0253
17579TIP3    H174228   2.486   1.428   4.509  0.7480 -0.1406 -0.3903
17579TIP3    H274229   2.553   1.525   4.414 -1.5061  0.4801 -1.4220
17580TIP3   OH274230   2.913   5.096   3.858  0.6023  0.3030 -0.6011
17580TIP3    H174231   2.918   5.187   3.886 -0.3507  0.0650  0.4514
17580TIP3    H274232   2.820   5.074   3.864  0.9853 -1.1972  0.7616
17581TIP3   OH274233   4.016   6.038   1.183  0.0092  0.9879  0.2801
17581TIP3    H174234   3.980   5.959   1.224  1.1934  0.2279 -0.0970
17581TIP3    H274235   3.943   6.100   1.183 -0.5344  0.4201  1.9308
17582TIP3   OH274236   0.059   2.464  16.573 -0.0416  0.1849  0.2928
17582TIP3    H174237   0.146   2.495  16.600 -0.0415 -0.3350  0.8979
17582TIP3    H274238   0.044   2.385  16.625 -1.8955  1.5606  1.9568
17583TIP3   OH274239   0.708   1.486  16.227 -1.3000  0.4550 -0.3206
17583TIP3    H174240   0.703   1.412  16.167  0.5651  0.2926 -0.3164
17583TIP3    H274241   0.661   1.556  16.181  0.1895  0.3808 -2.0629
17584TIP3   OH274242   6.038   0.668  14.896 -0.0006 -0.3881 -1.1113
17584TIP3    H174243   5.979   0.738  14.870 -0.4187 -0.2238  0.2174
17584TIP3    H274244   5.981   0.596  14.923  0.4104 -0.7514 -1.1917
17585TIP3   OH274245   3.549   1.404   3.717 -0.4283 -0.1855  0.1824
17585TIP3    H174246   3.622   1.436   3.769 -1.3427  0.2250  1.2382
17585TIP3    H274247   3.588   1.381   3.632  1.2390 -1.6149  1.2660
17586TIP3   OH274248   4.816   1.707   2.754  0.3321  0.0610  0.2831
17586TIP3    H174249   4.858   1.761   2.687  0.7634  0.1646  0.6267
17586TIP3    H274250   4.843   1.747   2.837  0.8145 -0.7782  0.5532
17587TIP3   OH274251   1.455   6.703   1.270 -0.0611 -0.6752 -0.1539
17587TIP3    H174252   1.422   6.652   1.344  0.5687 -0.2184  0.4491
17587TIP3    H274253   1.546   6.676   1.260 -0.5986 -2.0284 -1.9042
17588TIP3   OH274254   3.493   4.568   1.087 -0.1420  0.0850  0.3918
17588TIP3    H174255   3.486   4.473   1.079  0.4243 -0.0005  0.8330
17588TIP3    H274256   3.405   4.601   1.065 -0.8856 -0.6650  2.0587
17589TIP3   OH274257   2.730   4.220  15.335 -0.0435 -0.3931  0.4169
17589TIP3    H174258   2.793   4.153  15.360 -1.7026 -2.6099 -1.0300
17589TIP3    H274259   2.770   4.261  15.257  0.7723  0.0518  1.0498
17590TIP3   OH274260   6.683   0.336  13.262 -0.2316  0.2347  0.9745
17590TIP3    H174261   6.659   0.326  13.354 -1.5498  0.5039  0.6695
17590TIP3    H274262   6.617   0.394  13.225  0.8798  0.9703  0.0835
17591TIP3   OH274263   6.479   6.445   0.853 -0.2469 -0.3679 -0.1480
17591TIP3    H174264   6.508   6.532   0.881 -0.2174 -1.0866  2.2470
17591TIP3    H274265   6.549   6.413   0.797 -0.4629  1.2989 -1.4477
17592TIP3   OH274266   5.453   5.345   3.981  0.3598  1.0016  0.1077
17592TIP3    H174267   5.390   5.272   3.982 -1.4713  2.4494 -1.6643
17592TIP3    H274268   5.458   5.373   4.072 -3.6012  2.3971  0.0806
17593TIP3   OH274269   1.666   1.592   0.730 -0.4365  0.0868  0.1937
17593TIP3    H174270   1.620   1.510   0.713 -0.7186  0.1947  0.4372
17593TIP3    H274271   1.662   1.639   0.646 -0.0548 -0.2498 -0.0206
17594TIP3   OH274272   3.547   0.625  16.359  0.0625 -0.3529  0.7205
17594TIP3    H174273   3.596   0.546  16.382  0.1037 -0.5685 -0.0907
17594TIP3    H274274   3.613   0.694  16.357 -0.0176 -0.2376  1.7021
17595TIP3   OH274275   2.899   0.766   0.822 -0.7478  0.2010 -0.2297
17595TIP3    H174276   2.989   0.756   0.853 -0.9609 -1.8628 -0.1217
17595TIP3    H274277   2.851   0.798   0.898 -0.5154 -0.9836  0.4429
17596TIP3   OH274278   2.986   3.890   4.797 -0.0376 -0.3543  0.8663
17596TIP3    H174279   3.007   3.980   4.822  1.3618 -0.5257  0.3864
17596TIP3    H274280   3.064   3.839   4.821  1.3216 -0.6013 -3.3114
17597TIP3   OH274281   3.809   0.623   2.936  0.5624 -0.0832 -0.6068
17597TIP3    H174282   3.731   0.661   2.896 -0.8160  0.2466  2.1109
17597TIP3    H274283   3.842   0.692   2.993  1.2742 -1.1020  0.2511
17598TIP3   OH274284   6.402   4.207   5.613 -0.0426  0.2281  0.0803
17598TIP3    H174285   6.366   4.204   5.525 -0.0531  4.1468 -0.2438
17598TIP3    H274286   6.326   4.207   5.671 -0.0985 -0.6561  0.0225
17599TIP3   OH274287   3.834   5.769   2.372  0.5532 -0.2141  0.1549
17599TIP3    H174288   3.768   5.838   2.364  0.7766 -0.1675 -1.6329
17599TIP3    H274289   3.784   5.692   2.399 -0.2680 -0.1583 -1.0811
17600TIP3   OH274290   1.514   3.403  15.192  1.0957 -0.0778  0.5660
17600TIP3    H174291   1.456   3.471  15.159  1.0681 -0.1063  0.5557
17600TIP3    H274292   1.520   3.418  15.286  1.3885  0.1681  0.5096
17601TIP3   OH274293   0.609   3.978  12.885  0.0540 -0.0073 -1.1617
17601TIP3    H174294   0.552   3.975  12.807 -1.1079 -0.7025 -0.3242
17601TIP3    H274295   0.548   3.978  12.959  1.1575 -1.2176 -0.2112
17602TIP3   OH274296   1.663   6.538   4.972 -0.8953 -1.1308 -0.1191
17602TIP3    H174297   1.719   6.482   5.026  1.9367 -0.0951 -1.7943
17602TIP3    H274298   1.696   6.526   4.883 -1.0900  2.0935 -0.7460
17603TIP3   OH274299   3.981   4.997  12.236 -0.0120  0.2684  1.1483
17603TIP3    H174300   3.959   5.083  12.200  0.3357  0.6737  1.9002
17603TIP3    H274301   4.069   4.979  12.203  0.0742  0.3771  1.3209
17604TIP3   OH274302   5.830   2.443  16.462  0.3968 -0.0869 -0.2993
17604TIP3    H174303   5.891   2.408  16.527 -1.0363 -1.1418  0.5206
17604TIP3    H274304   5.751   2.464  16.511 -0.2044  0.5112 -1.4677
17605TIP3   OH274305   1.326   5.641  12.433  0.4965  0.5595 -1.0560
17605TIP3    H174306   1.284   5.696  12.499 -2.3756 -2.0250 -0.4565
17605TIP3    H274307   1.409   5.615  12.471 -0.3322  0.5387  0.8355
17606TIP3   OH274308   5.197   4.505   3.442 -0.0111  0.5993 -0.3591
17606TIP3    H174309   5.212   4.592   3.479  1.0538  0.9590 -1.5368
17606TIP3    H274310   5.103   4.499   3.431 -0.2227  1.0304  1.0350
17607TIP3   OH274311   2.830   4.480   5.135  0.1120  0.2505 -0.9805
17607TIP3    H174312   2.876   4.565   5.133 -0.0716  0.3468 -2.8602
17607TIP3    H274313   2.738   4.503   5.147 -0.0250  0.3740 -2.2167
17608TIP3   OH274314   2.378   6.146   0.388 -0.0623  0.0005  0.1948
17608TIP3    H174315   2.331   6.064   0.398 -1.9126  1.0624  0.8271
17608TIP3    H274316   2.467   6.127   0.416 -0.1545 -2.0387 -0.7512
17609TIP3   OH274317   6.430   3.424   0.457  0.1234 -1.0831 -0.2895
17609TIP3    H174318   6.494   3.369   0.503  0.0735 -2.7555 -2.0821
17609TIP3    H274319   6.346   3.403   0.497  0.4645  0.0653  1.1169
17610TIP3   OH274320   6.109   1.502   3.568 -0.2021  0.7003  0.0186
17610TIP3    H174321   6.174   1.563   3.602  0.6669  0.6434 -1.4765
17610TIP3    H274322   6.030   1.522   3.618  0.6445  1.5187  1.1066
17611TIP3   OH274323   2.550   1.474   2.447  0.0661  0.2661 -0.6140
17611TIP3    H174324   2.607   1.449   2.374  0.0801  1.3399 -0.9791
17611TIP3    H274325   2.506   1.554   2.418  0.5796  1.1078  0.7996
17612TIP3   OH274326   2.367   3.228  11.466  0.2133  0.1607  0.0581
17612TIP3    H174327   2.391   3.279  11.389 -1.5129 -0.1224 -0.7155
17612TIP3    H274328   2.322   3.290  11.523  0.4879  0.1049  0.3422
17613TIP3   OH274329   0.809   4.984  14.113 -0.0771 -0.1539 -0.4494
17613TIP3    H174330   0.893   5.018  14.141 -0.9156  0.7481  1.0915
17613TIP3    H274331   0.749   5.058  14.121 -0.9882 -0.7188 -1.7162
17614TIP3   OH274332   5.519   5.423   0.164  0.1654 -0.0749  0.2194
17614TIP3    H174333   5.521   5.518   0.174 -0.4451 -0.1618  1.3188
17614TIP3    H274334   5.442   5.406   0.110  0.2818  0.0485  0.0123
17615TIP3   OH274335   0.542   2.343  13.980  0.0276  0.5724 -0.0835
17615TIP3    H174336   0.545   2.425  13.931 -1.9451  1.8427  1.7889
17615TIP3    H274337   0.544   2.275  13.912 -1.8752  2.2321 -1.9256
17616TIP3   OH274338   5.169   3.065   4.537 -0.2247  0.2970 -0.3697
17616TIP3    H174339   5.132   3.128   4.475 -0.2808  0.0976 -0.5398
17616TIP3    H274340   5.124   3.083   4.620 -1.5400 -0.6862 -0.8356
17617TIP3   OH274341   5.853   1.742  17.132  0.1797 -0.6556  0.0740
17617TIP3    H174342   5.877   1.657  17.094 -2.0784 -1.0222 -0.7545
17617TIP3    H274343   5.775   1.768  17.082 -0.4415  0.8835  1.7506
17618TIP3   OH274344   2.248   1.893  14.263  0.7011 -0.0078  0.0619
17618TIP3    H174345   2.251   1.927  14.173  0.5796 -0.6090 -0.1811
17618TIP3    H274346   2.336   1.907  14.297  0.4484  1.2106  0.2300
17619TIP3   OH274347   1.923   2.316  16.299 -0.2341  0.3772  0.0149
17619TIP3    H174348   1.899   2.408  16.300 -0.0433  0.4338  1.9098
17619TIP3    H274349   1.840   2.269  16.313 -0.1798  0.2977  0.0714
17620TIP3   OH274350   6.113   6.547   3.483  0.1615 -0.5584 -0.0096
17620TIP3    H174351   6.124   6.614   3.551  1.5238 -1.7466  0.9990
17620TIP3    H274352   6.155   6.584   3.405 -0.5317  0.4025  0.0505
17621TIP3   OH274353   2.779   4.081  16.159 -0.5632  0.2188  0.2239
17621TIP3    H174354   2.791   3.987  16.141 -3.6820 -0.1880 -0.3115
17621TIP3    H274355   2.830   4.124  16.091  0.7811 -1.0649  0.3579
17622TIP3   OH274356   1.148   2.478   2.461  0.4606 -0.1425 -0.1237
17622TIP3    H174357   1.077   2.488   2.525  1.6042 -0.1707  1.1957
17622TIP3    H274358   1.199   2.404   2.493  0.4731 -0.8437 -1.6750
17623TIP3   OH274359   5.827   4.311  13.674  0.2846 -0.2458 -0.7386
17623TIP3    H174360   5.840   4.270  13.588 -1.0934 -1.2115 -0.5191
17623TIP3    H274361   5.848   4.403  13.660 -1.7406  0.0093 -2.6454
17624TIP3   OH274362   4.813   3.627  12.580  0.1135 -0.0573  0.0350
17624TIP3    H174363   4.875   3.569  12.624 -1.7105 -1.2802  1.1256
17624TIP3    H274364   4.783   3.688  12.648 -1.1096 -0.5676 -0.0187
17625TIP3   OH274365   3.462   1.944  12.002 -0.1178 -0.2724 -0.6027
17625TIP3    H174366   3.480   1.944  12.096 -3.2697 -1.5547  0.1071
17625TIP3    H274367   3.541   1.908  11.963  1.1297 -0.0788  1.5661
17626TIP3   OH274368   1.902   5.855   4.432 -0.3977 -0.0590  0.3052
17626TIP3    H174369   1.989   5.844   4.392 -0.6478  0.2191 -0.3292
17626TIP3    H274370   1.868   5.766   4.439 -0.3619 -0.1147 -0.1467
17627TIP3   OH274371   0.921   2.905   5.063 -0.1050  0.1966  0.5076
17627TIP3    H174372   0.830   2.896   5.090 -1.1243  1.0951 -2.3307
17627TIP3    H274373   0.954   2.979   5.114 -0.9078 -0.1288  1.5470
17628TIP3   OH274374   5.243   6.137   5.600  0.2031 -0.0545  0.1126
17628TIP3    H174375   5.260   6.220   5.556 -1.0904 -0.3795 -1.1004
17628TIP3    H274376   5.250   6.157   5.693  1.7104  0.9701 -0.1932
17629TIP3   OH274377   3.292   2.098  15.311  0.5679 -0.0375  0.0831
17629TIP3    H174378   3.215   2.105  15.367  0.2787  0.0147 -0.3226
17629TIP3    H274379   3.315   2.005  15.313  0.9796  0.0665  0.8450
17630TIP3   OH274380   1.256   6.783   1.738  0.1066  0.4299  0.0175
17630TIP3    H174381   1.335   6.735   1.715  0.5604  1.7972 -1.4672
17630TIP3    H274382   1.191   6.715   1.757  1.3739 -0.7219  0.4027
17631TIP3   OH274383   4.058   1.952   3.071 -0.1069  0.6701  0.1399
17631TIP3    H174384   4.076   2.027   3.128 -1.5750  0.9190  0.3172
17631TIP3    H274385   3.975   1.917   3.103 -0.5173  0.2701 -1.2952
17632TIP3   OH274386   5.402   6.168  14.259 -0.0533 -0.4953  0.2646
17632TIP3    H174387   5.453   6.244  14.286 -1.0749  0.4213 -0.2757
17632TIP3    H274388   5.311   6.193  14.276 -0.4072 -1.6470  0.1690
17633TIP3   OH274389   3.195   2.358  17.035  0.1584 -0.3167 -0.1371
17633TIP3    H174390   3.253   2.434  17.028 -0.5061  0.1387 -0.8147
17633TIP3    H274391   3.176   2.334  16.945  1.8716 -2.5019 -0.0138
17634TIP3   OH274392   0.351   5.426   3.747 -0.6059 -0.5492  0.1489
17634TIP3    H174393   0.276   5.475   3.715  0.9976  1.8854 -0.0684
17634TIP3    H274394   0.412   5.423   3.673  1.0151  0.7472  1.3596
17635TIP3   OH274395   1.527   2.676  14.255 -0.0473  0.4605 -0.2914
17635TIP3    H174396   1.575   2.665  14.172 -0.3923  3.2443 -0.9625
17635TIP3    H274397   1.557   2.760  14.289  0.0230 -0.5757  2.4428
17636TIP3   OH274398   0.641   2.383  11.975  0.4508 -0.0870  0.9679
17636TIP3    H174399   0.590   2.356  12.051  1.8533  1.0825  2.3958
17636TIP3    H274400   0.601   2.465  11.947 -2.5021 -2.2869 -2.0866
17637TIP3   OH274401   1.794   0.746   4.403  0.5363  0.3054 -0.5128
17637TIP3    H174402   1.733   0.778   4.336  2.2543  1.8890 -1.4226
17637TIP3    H274403   1.773   0.798   4.481 -1.3660 -1.4348  0.2195
17638TIP3   OH274404   3.988   6.551   2.831  0.0681  0.1456  0.0711
17638TIP3    H174405   3.920   6.605   2.872 -0.5065 -1.1129  0.8607
17638TIP3    H274406   3.950   6.463   2.830  1.2348 -0.3681 -0.5743
17639TIP3   OH274407   1.398   1.210   3.600 -0.2369  0.1803  0.0697
17639TIP3    H174408   1.467   1.182   3.662 -0.4625 -1.8108 -0.4909
17639TIP3    H274409   1.445   1.227   3.519 -0.2737 -0.0442  0.0016
17640TIP3   OH274410   2.778   1.750   2.005  1.1525  0.0858 -0.6425
17640TIP3    H174411   2.755   1.724   1.915  0.8921  2.4560 -1.3148
17640TIP3    H274412   2.815   1.670   2.043 -1.0322 -1.7148 -2.0165
17641TIP3   OH274413   6.081   4.702   1.902 -0.9958 -0.2376  0.1464
17641TIP3    H174414   6.172   4.671   1.903 -0.6973  0.4886  2.3338
17641TIP3    H274415   6.079   4.772   1.968 -2.8648  0.6471 -0.7712
17642TIP3   OH274416   3.793   4.240  15.601  0.4269  0.8056 -0.0241
17642TIP3    H174417   3.708   4.228  15.560  0.6373 -2.3443  0.2745
17642TIP3    H274418   3.776   4.232  15.695  0.7788  2.5053  0.2317
17643TIP3   OH274419   1.869   5.287  16.850  0.1572 -0.3877  0.3651
17643TIP3    H174420   1.836   5.199  16.871 -1.4295  0.0310 -0.2270
17643TIP3    H274421   1.902   5.321  16.933  1.0213 -1.6198  0.5577
17644TIP3   OH274422   3.220   0.592   1.160  0.4746 -0.2210  0.1053
17644TIP3    H174423   3.295   0.588   1.101 -0.6926 -1.0969 -1.4141
17644TIP3    H274424   3.253   0.635   1.239  1.8191  2.1597 -1.6182
17645TIP3   OH274425   1.230   5.784  15.742  0.4852  0.0065  0.2966
17645TIP3    H174426   1.229   5.694  15.710  0.6683  0.3013 -0.5520
17645TIP3    H274427   1.197   5.836  15.669 -2.2991  0.3737  1.6433
17646TIP3   OH274428   4.810   5.109  14.096 -0.3756  0.4479 -0.7326
17646TIP3    H174429   4.737   5.114  14.158  0.5098  2.6060  0.2243
17646TIP3    H274430   4.814   5.016  14.072 -0.0726 -0.7886  3.3353
17647TIP3   OH274431   4.444   3.524   3.938  0.2940 -0.2119 -0.3400
17647TIP3    H174432   4.380   3.581   3.896  1.3446 -0.2488 -2.0678
17647TIP3    H274433   4.528   3.567   3.923  1.0078 -1.7143 -0.8084
17648TIP3   OH274434   5.927   6.694   1.650  0.1297 -0.2839  0.2145
17648TIP3    H174435   5.957   6.603   1.649 -1.7908 -0.9467  0.1716
17648TIP3    H274436   5.875   6.704   1.571  1.5456  1.3390 -0.5924
17649TIP3   OH274437   0.151   0.366   4.974 -0.1523  0.4592  0.2619
17649TIP3    H174438   0.228   0.399   4.927  0.7817  0.0265  1.4372
17649TIP3    H274439   0.109   0.444   5.009  0.0195  0.6631  0.0159
17650TIP3   OH274440   2.315   0.469   5.634  0.5131 -0.1796  0.3315
17650TIP3    H174441   2.361   0.385   5.641  0.0982 -0.3343  1.3818
17650TIP3    H274442   2.237   0.458   5.689  0.6853  1.0491  0.8405
17651TIP3   OH274443   0.629   3.833   4.798 -0.2603 -0.0801  0.0949
17651TIP3    H174444   0.541   3.801   4.819 -0.1435 -0.3313  0.2123
17651TIP3    H274445   0.649   3.794   4.713 -0.3808  0.2180 -0.0696
17652TIP3   OH274446   1.235   4.557  14.889  0.5561  0.6449  0.2407
17652TIP3    H174447   1.218   4.627  14.825  0.1870  1.1138  0.8296
17652TIP3    H274448   1.255   4.480  14.836 -1.0430  0.6861 -0.4738
17653TIP3   OH274449   6.441   1.853   3.215  0.3713 -0.0928 -0.0375
17653TIP3    H174450   6.495   1.878   3.140  0.8230 -2.1503 -0.4546
17653TIP3    H274451   6.497   1.797   3.268 -1.1856 -2.0431 -0.3169
17654TIP3   OH274452   2.122   0.162  15.839  0.5205  0.2206  0.0420
17654TIP3    H174453   2.216   0.168  15.856  0.2217 -1.0494  2.8356
17654TIP3    H274454   2.105   0.067  15.837 -1.0727  0.3119  3.0297
17655TIP3   OH274455   4.544   2.900   5.635 -0.1567 -0.2281 -0.1796
17655TIP3    H174456   4.616   2.847   5.601 -0.8507 -0.5943 -1.1131
17655TIP3    H274457   4.465   2.855   5.606 -0.7687  0.1612  0.8439
17656TIP3   OH274458   5.920   3.777   2.976 -0.2058 -0.0836 -0.1373
17656TIP3    H174459   5.939   3.716   3.047  1.4289  0.5032 -0.0351
17656TIP3    H274460   6.001   3.827   2.965 -0.8295  0.6563 -1.6088
17657TIP3   OH274461   2.512   6.538   5.063  0.0611 -0.8571  0.0725
17657TIP3    H174462   2.467   6.561   5.144  1.4783 -0.7603  0.8725
17657TIP3    H274463   2.449   6.486   5.014 -0.8033 -0.9790  1.2708
17658TIP3   OH274464   6.824   0.512  12.762 -0.3610 -0.2525  0.2251
17658TIP3    H174465   6.831   0.522  12.667  2.0592  2.7835  0.5627
17658TIP3    H274466   6.871   0.430  12.781  1.7787  0.6070 -1.0337
17659TIP3   OH274467   3.412   5.821  13.955  0.1961  0.3010 -0.2798
17659TIP3    H174468   3.450   5.850  14.038  1.2609 -0.2747 -0.5499
17659TIP3    H274469   3.386   5.902  13.911  1.4630  0.7417 -0.2449
17660TIP3   OH274470   6.026   4.710  14.958  0.6347  0.1334  0.6189
17660TIP3    H174471   5.981   4.681  15.038  1.4982 -0.0593  1.0429
17660TIP3    H274472   5.961   4.699  14.889 -0.1109  0.2588  1.2854
17661TIP3   OH274473   2.765   2.435  14.144 -0.3476  0.3951  0.4175
17661TIP3    H174474   2.675   2.462  14.162 -0.9388 -0.0352 -1.6685
17661TIP3    H274475   2.757   2.368  14.076  1.5625  0.5652 -0.0228
17662TIP3   OH274476   1.169   5.335   1.015 -0.0445 -0.2844 -0.0566
17662TIP3    H174477   1.194   5.242   1.009  0.0795 -0.2626  0.1303
17662TIP3    H274478   1.250   5.380   1.036 -0.1053 -0.1316 -0.1520
17663TIP3   OH274479   6.080   5.563  11.230  0.1400  0.0181 -0.2944
17663TIP3    H174480   6.145   5.543  11.162  0.9427 -0.2095  0.5230
17663TIP3    H274481   6.128   5.556  11.312 -0.5922  1.1706  0.2666
17664TIP3   OH274482   4.388   0.282   0.983 -0.1267 -0.3791 -0.0943
17664TIP3    H174483   4.294   0.279   1.002 -0.1473 -2.1780 -0.2659
17664TIP3    H274484   4.428   0.305   1.066 -0.7511  1.3773 -0.2439
17665TIP3   OH274485   1.528   1.026  11.117 -0.3419 -0.7638 -0.2543
17665TIP3    H174486   1.450   0.987  11.156  0.0919 -1.0032  0.3943
17665TIP3    H274487   1.552   0.967  11.046  0.3657 -1.7603  0.7825
17666TIP3   OH274488   6.534   0.055  13.131  0.1518 -0.1783  0.1355
17666TIP3    H174489   6.607   0.042  13.071 -0.8334 -0.2017 -1.1144
17666TIP3    H274490   6.574   0.063  13.217  1.6334  0.0419 -0.5455
17667TIP3   OH274491   5.310   1.980   2.526 -0.3164 -0.2454  0.2339
17667TIP3    H174492   5.344   1.968   2.615 -1.4436 -4.6522  0.3123
17667TIP3    H274493   5.231   2.033   2.538  1.4353  2.3667  1.2179
17668TIP3   OH274494   1.498   4.947   5.388  0.4297 -0.6255  0.8569
17668TIP3    H174495   1.431   4.916   5.449 -0.8487 -0.8800 -0.6167
17668TIP3    H274496   1.544   4.868   5.360  0.9175 -0.5235  1.3352
17669TIP3   OH274497   4.670   5.024   2.880 -0.0436  0.3169 -0.4328
17669TIP3    H174498   4.734   4.962   2.846 -0.4497  0.5732 -1.7181
17669TIP3    H274499   4.617   4.973   2.941  1.4188  0.1321  0.7237
17670TIP3   OH274500   5.242   5.034   4.929 -0.5594  0.3617  0.7080
17670TIP3    H174501   5.261   4.940   4.921  1.8590  0.6687  1.8195
17670TIP3    H274502   5.211   5.045   5.019  0.5610  0.7931  1.0564
17671TIP3   OH274503   4.764   3.094  11.524  0.3508  0.0911 -0.4886
17671TIP3    H174504   4.757   3.021  11.462 -1.0164 -0.2084 -0.0254
17671TIP3    H274505   4.853   3.088  11.558  0.8439 -0.2515 -1.7957
17672TIP3   OH274506   1.326   6.208   5.553  0.7705  0.2547 -0.6509
17672TIP3    H174507   1.402   6.153   5.572 -0.6491 -2.2773 -1.7472
17672TIP3    H274508   1.362   6.289   5.517  2.9546 -0.3930 -0.0146
17673TIP3   OH274509   1.168   0.427  14.837  0.2392 -0.3490 -0.6576
17673TIP3    H174510   1.249   0.379  14.854  1.5404  1.0910 -2.3480
17673TIP3    H274511   1.193   0.519  14.840 -1.6318  0.1910  0.0145
17674TIP3   OH274512   1.760   3.139  16.676  0.1980  0.2040  0.4331
17674TIP3    H174513   1.735   3.154  16.768  0.7193 -0.0065  0.6090
17674TIP3    H274514   1.842   3.187  16.666  0.5161 -0.3685  0.2728
17675TIP3   OH274515   2.670   2.679   3.361 -0.0691 -0.1869  0.0246
17675TIP3    H174516   2.723   2.654   3.285 -1.2995 -1.4061 -0.4691
17675TIP3    H274517   2.684   2.608   3.424 -0.1579  0.1201  0.3952
17676TIP3   OH274518   4.293   2.507  11.927 -0.4878 -0.6783  0.7575
17676TIP3    H174519   4.334   2.528  12.011  0.2664  0.1938  0.1849
17676TIP3    H274520   4.258   2.418  11.939  0.2493 -0.8503  1.7478
17677TIP3   OH274521   1.774   5.836  16.328 -0.1484 -0.2260  0.2803
17677TIP3    H174522   1.863   5.815  16.300 -1.0710 -1.9057 -1.6912
17677TIP3    H274523   1.763   5.788  16.410  1.3920  1.7638  1.7692
17678TIP3   OH274524   0.401   1.893  16.190  0.6560 -0.1712  0.3918
17678TIP3    H174525   0.487   1.915  16.227  2.5413 -1.5245 -2.8050
17678TIP3    H274526   0.380   1.966  16.133 -0.1283 -0.0579  0.8160
17679TIP3   OH274527   0.814   4.918   0.012  0.0560 -0.0058 -0.2867
17679TIP3    H174528   0.879   4.988   0.002 -1.0069  0.8875 -1.3529
17679TIP3    H274529   0.768   4.940   0.093  0.3007  0.0524 -0.1647
17680TIP3   OH274530   1.048   5.823  14.562 -0.2950 -0.7680  0.4160
17680TIP3    H174531   1.019   5.821  14.653 -0.5183 -0.8047  0.3440
17680TIP3    H274532   1.114   5.754  14.556  0.1926 -0.3326  0.7092
17681TIP3   OH274533   6.590   6.769   2.975 -0.9081 -0.2210 -0.8747
17681TIP3    H174534   6.643   6.691   2.960 -2.1940 -1.0740 -1.1571
17681TIP3    H274535   6.502   6.744   2.948 -1.6969  0.7993  0.5938
17682TIP3   OH274536   2.269   2.737  16.821  0.4513 -0.2695  0.3774
17682TIP3    H174537   2.328   2.689  16.879 -0.4516 -0.5216  1.0947
17682TIP3    H274538   2.197   2.676  16.804 -0.6391  0.7493  1.1831
17683TIP3   OH274539   2.986   1.613   6.095 -0.2727 -0.6397  0.5142
17683TIP3    H174540   3.069   1.605   6.048 -0.7855 -1.3700 -0.3005
17683TIP3    H274541   2.947   1.525   6.089 -1.7314  0.0341 -0.3085
17684TIP3   OH274542   5.300   3.051   5.523 -0.4320  0.8132  0.3140
17684TIP3    H174543   5.239   3.043   5.596 -1.5599  0.0193 -0.6818
17684TIP3    H274544   5.250   3.095   5.455 -0.0041 -0.1057 -0.6269
17685TIP3   OH274545   6.060   3.345  16.126  0.4338 -0.1049 -0.1291
17685TIP3    H174546   6.059   3.307  16.038 -2.0644 -0.9016  0.1486
17685TIP3    H274547   6.001   3.289  16.177 -1.7479  2.8019  0.8738
17686TIP3   OH274548   6.772   1.301  12.861  0.1370 -0.4422  0.1260
17686TIP3    H174549   6.784   1.365  12.790 -5.9689  0.6732 -0.4746
17686TIP3    H274550   6.761   1.217  12.816 -1.1326 -0.1688 -0.1336
17687TIP3   OH274551   5.078   6.239  16.388  0.1232  0.2071  0.0655
17687TIP3    H174552   5.056   6.212  16.477 -1.9644  0.3984 -0.3391
17687TIP3    H274553   5.089   6.156  16.340 -0.4030  0.0807  0.1533
17688TIP3   OH274554   2.531   6.422  11.718  0.1015  0.0183 -0.5057
17688TIP3    H174555   2.522   6.453  11.808 -0.4949  1.3474 -1.0043
17688TIP3    H274556   2.563   6.498  11.669  0.9376 -0.8327 -1.3257
17689TIP3   OH274557   2.447   0.898   5.881 -0.4592  0.3321 -0.4846
17689TIP3    H174558   2.501   0.953   5.938  0.1719 -1.0074  0.2531
17689TIP3    H274559   2.357   0.911   5.912 -0.2278  0.3654  0.1803
17690TIP3   OH274560   0.660   0.905   2.194 -0.4518 -1.0319 -0.0585
17690TIP3    H174561   0.731   0.961   2.224 -0.2187 -1.9677  1.2527
17690TIP3    H274562   0.592   0.965   2.165  0.7397 -0.1205 -1.0342
17691TIP3   OH274563   4.473   0.462   3.146  0.1165  0.2761  0.1799
17691TIP3    H174564   4.393   0.513   3.141  0.5864  1.0863  0.6504
17691TIP3    H274565   4.517   0.494   3.225 -0.2532 -1.8860  1.3467
17692TIP3   OH274566   6.298   1.674   6.011 -0.1393 -0.0360 -0.2973
17692TIP3    H174567   6.254   1.687   6.095  0.9254  0.3592  0.2226
17692TIP3    H274568   6.244   1.721   5.948 -1.3491 -0.9477  0.0257
17693TIP3   OH274569   5.469   0.359  17.059  0.0649  0.2443 -0.7905
17693TIP3    H174570   5.439   0.348  17.150  1.0472 -0.7721 -0.5738
17693TIP3    H274571   5.436   0.445  17.034  1.4500  1.4502  1.2051
17694TIP3   OH274572   4.276   4.377  14.785  0.6017  0.2608 -0.0595
17694TIP3    H174573   4.311   4.301  14.737 -0.8702  1.1706 -2.8392
17694TIP3    H274574   4.346   4.442  14.782  0.3438  0.5280 -1.7258
17695TIP3   OH274575   3.077   5.391   1.833  0.2111  0.3404 -0.6575
17695TIP3    H174576   2.982   5.396   1.824 -0.1693 -0.1670  2.0265
17695TIP3    H274577   3.095   5.434   1.917  2.2021 -0.6754 -0.4997
17696TIP3   OH274578   6.000   6.470  12.132  0.8488  0.1829  0.0091
17696TIP3    H174579   5.949   6.539  12.176  0.4994 -1.1152  1.7324
17696TIP3    H274580   5.957   6.461  12.046 -0.4110  0.6664  0.5571
17697TIP3   OH274581   5.092   0.494   5.436 -0.7052  0.1086  0.0412
17697TIP3    H174582   5.187   0.489   5.422 -0.6148 -1.5038  1.0621
17697TIP3    H274583   5.056   0.502   5.347  0.3652  1.0200 -0.3493
17698TIP3   OH274584   1.315   5.825  14.359 -0.1176 -0.0459  0.0541
17698TIP3    H174585   1.231   5.859  14.389  0.2354 -1.2182  2.6163
17698TIP3    H274586   1.330   5.748  14.414  2.7968  0.3367 -0.0824
17699TIP3   OH274587   3.443   5.549   4.005  0.4590  0.3659  0.3817
17699TIP3    H174588   3.471   5.465   4.042 -0.1049 -0.2343 -0.5422
17699TIP3    H274589   3.523   5.602   4.003  1.1547 -0.6747 -0.4525
17700TIP3   OH274590   5.166   5.482  14.136  0.8233 -0.2826 -0.0974
17700TIP3    H174591   5.225   5.552  14.165  1.4693 -0.6889 -0.4058
17700TIP3    H274592   5.139   5.509  14.048  0.3786  0.0044  0.1235
17701TIP3   OH274593   3.232   5.528   0.552 -0.7529 -0.6099 -0.3731
17701TIP3    H174594   3.302   5.518   0.488 -1.9465  1.3115 -2.0776
17701TIP3    H274595   3.202   5.439   0.568 -0.7337 -1.1471 -2.8922
17702TIP3   OH274596   5.647   2.256  14.528  0.4272 -0.1920 -0.1525
17702TIP3    H174597   5.621   2.331  14.581  2.5010  0.7204 -0.3255
17702TIP3    H274598   5.642   2.182  14.589  0.7830  0.5051  0.7547
17703TIP3   OH274599   6.072   4.608  12.554  0.3953  0.2274 -0.2065
17703TIP3    H174600   6.066   4.512  12.552 -1.3732  0.3067 -0.1087
17703TIP3    H274601   6.125   4.630  12.478 -0.3358 -0.7771 -1.0468
17704TIP3   OH274602   4.390   2.290  13.366 -0.7126 -0.0312 -0.2403
17704TIP3    H174603   4.481   2.318  13.359 -0.4760 -0.9749 -1.2809
17704TIP3    H274604   4.364   2.315  13.455  0.2686  1.0676 -0.2413
17705TIP3   OH274605   0.586   4.513   5.277  0.3378  0.2977  0.0899
17705TIP3    H174606   0.618   4.603   5.273  1.3689 -0.1133 -3.2112
17705TIP3    H274607   0.665   4.459   5.269 -0.3957 -0.9157  0.7343
17706TIP3   OH274608   4.153   2.886   1.052  0.1403  0.2133  0.0543
17706TIP3    H174609   4.113   2.947   1.114 -0.7004 -0.2940  0.0240
17706TIP3    H274610   4.081   2.857   0.997  0.7332  0.0201 -0.6312
17707TIP3   OH274611   3.218   1.953   3.031  0.2522 -0.6734  0.3492
17707TIP3    H174612   3.197   2.030   3.084  0.8135  0.6961 -1.3158
17707TIP3    H274613   3.241   1.989   2.945  1.0293 -2.6874 -0.3378
17708TIP3   OH274614   3.833   6.653   5.206  0.3070 -0.0354  0.8512
17708TIP3    H174615   3.811   6.560   5.207 -0.6526  0.1784  1.9173
17708TIP3    H274616   3.827   6.680   5.297 -0.3852  1.2850  0.4388
17709TIP3   OH274617   3.911   4.613   4.835 -0.2287  0.2652 -0.1759
17709TIP3    H174618   3.855   4.682   4.869 -0.3782 -0.2229  0.5952
17709TIP3    H274619   3.988   4.659   4.801  0.5945  0.7306  2.0987
17710TIP3   OH274620   2.534   2.552  16.473 -0.5147 -0.2963  0.2754
17710TIP3    H174621   2.472   2.602  16.526 -0.5366 -0.2954  0.2485
17710TIP3    H274622   2.480   2.488  16.426 -0.6431  0.4192 -0.5892
17711TIP3   OH274623   4.060   4.038  12.320 -0.2217  0.0613 -0.4575
17711TIP3    H174624   4.134   4.011  12.265 -1.5517 -2.0410 -1.3373
17711TIP3    H274625   4.034   4.124  12.285  2.1578  1.1844  0.3220
17712TIP3   OH274626   0.355   1.579   6.093 -0.1104 -0.0984  0.3377
17712TIP3    H174627   0.312   1.540   6.169  2.4731 -2.5935  0.6781
17712TIP3    H274628   0.437   1.613   6.127  0.3508  0.2662 -1.0747
17713TIP3   OH274629   4.627   0.845  11.878  0.6138  0.7183 -0.1564
17713TIP3    H174630   4.540   0.833  11.839 -0.1132  0.6424  1.3859
17713TIP3    H274631   4.680   0.775  11.841 -0.7060 -0.8442  0.7622
17714TIP3   OH274632   4.058   3.915  11.382  0.3823  0.4685  0.0767
17714TIP3    H174633   4.032   3.823  11.375 -1.0780  0.9164 -0.6899
17714TIP3    H274634   4.129   3.925  11.319  0.5646 -0.1277  0.1810
17715TIP3   OH274635   4.467   0.084  11.300  0.7002  0.0111  0.5497
17715TIP3    H174636   4.428   0.006  11.260  1.0425  0.3266 -0.4355
17715TIP3    H274637   4.465   0.066  11.394 -0.6614 -0.5067  0.4446
17716TIP3   OH274638   6.153   1.679   6.242  0.1773 -0.0141 -0.3772
17716TIP3    H174639   6.066   1.710   6.266  0.0797  0.8118 -1.7311
17716TIP3    H274640   6.167   1.602   6.298 -0.0056  1.7676  2.2996
17717TIP3   OH274641   4.419   6.038   1.981  0.2866  0.2861 -0.1573
17717TIP3    H174642   4.334   6.049   2.025 -0.4091 -1.0547 -1.0775
17717TIP3    H274643   4.405   6.075   1.894  1.1314  1.4007  0.1585
17718TIP3   OH274644   1.658   0.435  16.884 -0.0177  0.0748 -0.1392
17718TIP3    H174645   1.568   0.426  16.916  1.1565  1.1620  4.1758
17718TIP3    H274646   1.676   0.353  16.840 -2.3375 -1.3025  1.2527
17719TIP3   OH274647   5.881   6.805   1.261  0.2877  0.4371  0.1252
17719TIP3    H174648   5.836   6.753   1.328 -1.8851  0.4290 -1.2201
17719TIP3    H274649   5.846   6.893   1.271  2.1693  1.1543  0.8493
17720TIP3   OH274650   2.882   5.901   2.069  0.3885 -0.0151  0.4149
17720TIP3    H174651   2.911   5.819   2.109  0.9001 -0.5359 -0.9745
17720TIP3    H274652   2.949   5.920   2.003 -0.8154  0.4254 -0.7037
17721TIP3   OH274653   2.412   0.581  13.098 -0.0570  0.2051 -0.2195
17721TIP3    H174654   2.505   0.597  13.084 -0.2937 -0.2377 -3.0081
17721TIP3    H274655   2.409   0.506  13.157  1.4605 -0.9305 -1.4889
17722TIP3   OH274656   4.953   2.013   5.488 -0.1028  0.6387 -0.1873
17722TIP3    H174657   4.918   2.078   5.427 -1.2645 -0.7233 -1.0551
17722TIP3    H274658   5.002   1.952   5.432 -0.3196 -0.0697  0.3753
17723TIP3   OH274659   6.716   6.752  11.512 -0.2049  0.4226  0.1257
17723TIP3    H174660   6.810   6.753  11.534  0.4151  3.4379 -2.0324
17723TIP3    H274661   6.711   6.704  11.429 -0.9037 -1.2543  1.0888
17724TIP3   OH274662   0.179   6.024   0.622  0.4743 -0.5542 -0.2857
17724TIP3    H174663   0.185   6.026   0.718  0.0285 -0.3284 -0.2575
17724TIP3    H274664   0.270   6.027   0.592  0.6309 -0.9589  0.1331
17725TIP3   OH274665   3.653   1.491   5.791 -0.6657  0.5492 -0.4322
17725TIP3    H174666   3.672   1.473   5.883  0.2631 -0.2082 -0.7586
17725TIP3    H274667   3.736   1.519   5.754 -0.2255 -2.1841 -1.7349
17726TIP3   OH274668   3.017   6.170  14.355  0.2934 -0.5619  0.6267
17726TIP3    H174669   3.019   6.106  14.426  0.5258 -1.6167 -0.2952
17726TIP3    H274670   3.103   6.161  14.313  0.8458  1.3129  1.2768
17727TIP3   OH274671   0.446   0.419   3.605  0.1904 -0.0891 -0.1200
17727TIP3    H174672   0.378   0.460   3.551  1.4155  0.3436 -1.3791
17727TIP3    H274673   0.472   0.487   3.667 -0.2489 -0.1345  0.1179
17728TIP3   OH274674   0.891   4.085  12.922  0.5290 -0.2809  0.3143
17728TIP3    H174675   0.799   4.096  12.900  0.7720 -0.3258 -0.7629
17728TIP3    H274676   0.937   4.090  12.838  1.3868 -1.5286  0.6835
17729TIP3   OH274677   5.681   1.581   5.086  0.0216  0.2477 -0.0107
17729TIP3    H174678   5.677   1.674   5.064 -0.4158  0.6576  1.6486
17729TIP3    H274679   5.590   1.556   5.102  0.0187 -0.7404 -1.3969
17730TIP3   OH274680   4.595   0.105   4.386  0.3072  0.5327  0.1375
17730TIP3    H174681   4.545   0.030   4.352  2.6535 -1.3715  0.6137
17730TIP3    H274682   4.647   0.134   4.311 -0.2377  1.4090  0.0905
17731TIP3   OH274683   5.857   5.624  11.078 -0.0214  0.0450 -0.2846
17731TIP3    H174684   5.877   5.592  10.990 -1.8470 -3.0626  0.2557
17731TIP3    H274685   5.890   5.556  11.136 -0.3008  1.2366  1.3358
17732TIP3   OH274686   4.921   2.474  12.228  0.4177 -0.3527 -0.3210
17732TIP3    H174687   5.009   2.464  12.194  0.3330  2.0903 -1.4336
17732TIP3    H274688   4.865   2.433  12.162  0.6098 -0.4455 -0.4258
17733TIP3   OH274689   0.691   5.186  13.471 -0.2747  0.8377  0.0260
17733TIP3    H174690   0.758   5.181  13.403  0.8141 -1.2709  1.1333
17733TIP3    H274691   0.683   5.096  13.503 -3.5614  1.0448  0.0767
17734TIP3   OH274692   3.241   2.741   1.782 -0.1797 -0.4636  0.0376
17734TIP3    H174693   3.179   2.769   1.850 -1.8343  0.1424 -1.6325
17734TIP3    H274694   3.204   2.660   1.747  0.8965 -1.0131  0.1341
17735TIP3   OH274695   6.191   4.128  13.837  0.3684 -0.3488 -0.4337
17735TIP3    H174696   6.165   4.208  13.790  1.2110  0.9486  1.1972
17735TIP3    H274697   6.248   4.159  13.907  0.3016 -2.3474  0.5737
17736TIP3   OH274698   0.898   0.106   2.888 -0.3081  0.5833 -0.2868
17736TIP3    H174699   0.898   0.021   2.844 -0.6915  0.0787  0.6642
17736TIP3    H274700   0.820   0.105   2.943 -1.0584  2.1112 -1.2960
17737TIP3   OH274701   6.369   0.082   1.364  0.1773 -0.1333 -0.5181
17737TIP3    H174702   6.331   0.166   1.390 -0.7552 -0.9250  0.7858
17737TIP3    H274703   6.293   0.024   1.354  0.7716 -0.7053 -1.8941
17738TIP3   OH274704   2.603   3.376  16.157 -0.1930 -0.4205 -0.3060
17738TIP3    H174705   2.601   3.433  16.080  0.2197  1.1017  0.7739
17738TIP3    H274706   2.611   3.288  16.121  0.9517  0.3205 -1.9890
17739TIP3   OH274707   1.435   1.927  12.218  0.0277 -0.0002 -0.0843
17739TIP3    H174708   1.521   1.957  12.188 -0.1170  0.6915  0.1762
17739TIP3    H274709   1.400   1.878  12.144  1.3121 -1.7121  0.3800
17740TIP3   OH274710   1.816   6.014   3.375 -0.5494  0.0539  0.5433
17740TIP3    H174711   1.776   6.100   3.390 -2.4100 -0.5797 -0.5623
17740TIP3    H274712   1.889   6.033   3.315 -0.2637  0.9775  1.1472
17741TIP3   OH274713   3.584   4.828  13.510  0.4761  0.3562 -0.6224
17741TIP3    H174714   3.602   4.756  13.570  1.1340  0.7383 -0.3494
17741TIP3    H274715   3.563   4.902  13.568 -0.1507  0.4013 -0.8970
17742TIP3   OH274716   0.024   4.748  14.528 -0.1068  0.6943 -0.1385
17742TIP3    H174717   0.006   4.677  14.466  1.3899 -0.9431  1.2147
17742TIP3    H274718   0.117   4.767  14.518  0.0090  0.8925  1.1111
17743TIP3   OH274719   2.263   2.522   1.219 -0.0399  0.5757  0.1229
17743TIP3    H174720   2.328   2.574   1.172  0.1553  0.0021 -0.2495
17743TIP3    H274721   2.208   2.484   1.151  0.8023 -0.9974  0.2694
17744TIP3   OH274722   5.447   0.148  11.490  0.0299  0.0028 -0.5551
17744TIP3    H174723   5.361   0.167  11.527 -0.3370 -2.9230  0.4338
17744TIP3    H274724   5.494   0.104  11.561  0.6825 -2.4450 -2.3426
17745TIP3   OH274725   0.473   5.622   3.399 -0.5020  0.0765  0.6713
17745TIP3    H174726   0.421   5.589   3.326  0.3619 -0.8749  0.4587
17745TIP3    H274727   0.485   5.547   3.457  2.3002 -0.3631 -0.2903
17746TIP3   OH274728   5.677   0.553  16.482  0.0494  0.5088  0.6886
17746TIP3    H174729   5.641   0.507  16.558 -0.9447  0.0835 -0.0292
17746TIP3    H274730   5.618   0.532  16.410  1.0703  0.7747 -0.2564
17747TIP3   OH274731   1.859   5.284   5.929 -0.4127  0.1766 -0.1506
17747TIP3    H174732   1.900   5.200   5.951  1.7757  1.4569  1.0582
17747TIP3    H274733   1.844   5.280   5.835 -0.6813 -1.6832 -0.0586
17748TIP3   OH274734   0.129   0.357  14.689 -0.7804  0.1137 -0.4959
17748TIP3    H174735   0.164   0.273  14.661 -0.9071  0.2727 -1.1441
17748TIP3    H274736   0.190   0.388  14.756 -0.2250 -0.0630 -0.9141
17749TIP3   OH274737   1.277   6.194  13.546  0.2232 -0.0920 -0.7266
17749TIP3    H174738   1.194   6.226  13.583 -0.3877 -2.8407  0.5334
17749TIP3    H274739   1.264   6.198  13.451 -2.5008 -2.8450 -0.6220
17750TIP3   OH274740   2.733   2.480   0.275 -0.1340  0.1772 -0.3980
17750TIP3    H174741   2.776   2.534   0.341 -1.1555 -1.0418  1.3225
17750TIP3    H274742   2.779   2.396   0.277 -0.7336 -0.1653 -0.6132
17751TIP3   OH274743   0.218   3.679  10.882  0.1965  0.2125  0.7625
17751TIP3    H174744   0.153   3.732  10.836  2.4321  2.8049  0.3846
17751TIP3    H274745   0.166   3.622  10.938 -2.4387  0.9385 -0.7533
17752TIP3   OH274746   2.296   0.563   4.730 -0.2085  0.3189 -0.2413
17752TIP3    H174747   2.308   0.509   4.808  2.4835 -0.9506 -1.3735
17752TIP3    H274748   2.340   0.646   4.751  0.4776 -0.0058 -0.3795
17753TIP3   OH274749   0.671   3.376  14.350  0.2585  0.4412 -0.7091
17753TIP3    H174750   0.630   3.450  14.393  1.0985  0.8213 -0.5414
17753TIP3    H274751   0.746   3.413  14.304  2.4040 -0.6170  1.6584
17754TIP3   OH274752   0.850   5.873  10.981  0.2956 -0.3466  0.3463
17754TIP3    H174753   0.882   5.795  10.936  2.1727  0.5267  0.0780
17754TIP3    H274754   0.809   5.840  11.061 -0.3320 -1.6955 -0.5065
17755TIP3   OH274755   3.989   3.212  15.969  0.1249  0.3995  0.4667
17755TIP3    H174756   4.010   3.297  15.930 -0.3079  0.8335  1.1415
17755TIP3    H274757   3.912   3.182  15.921  1.0276 -0.2176 -0.6201
17756TIP3   OH274758   5.515   6.145   2.068 -0.3334  0.1901 -0.3970
17756TIP3    H174759   5.486   6.180   2.152  0.2947 -0.8912  0.2873
17756TIP3    H274760   5.435   6.140   2.015 -0.9801 -0.4081  0.6056
17757TIP3   OH274761   2.508   2.638   5.176  0.5135 -0.1970 -0.3875
17757TIP3    H174762   2.432   2.580   5.189 -1.6614  2.3269 -0.9264
17757TIP3    H274763   2.474   2.726   5.193  3.3428  1.0704 -0.7573
17758TIP3   OH274764   5.072   5.882   0.028  0.2194  0.0965  0.1139
17758TIP3    H174765   5.085   5.843  -0.058 -2.2142  0.2116 -0.3880
17758TIP3    H274766   5.134   5.837   0.085 -1.2871 -3.3792 -0.7599
17759TIP3   OH274767   5.350   3.355  12.813 -0.0653  0.6766 -0.0262
17759TIP3    H174768   5.419   3.327  12.874 -0.1076  1.4447  0.3868
17759TIP3    H274769   5.366   3.304  12.734 -0.4223 -0.8362  0.8494
17760TIP3   OH274770   6.701   1.126  16.878 -0.0763 -0.6605 -0.3924
17760TIP3    H174771   6.628   1.095  16.825 -0.2413 -1.2337  0.1609
17760TIP3    H274772   6.744   1.047  16.909  0.1668 -0.3349  0.1247
17761TIP3   OH274773   2.054   3.118  12.084 -0.0246  0.4240 -0.2391
17761TIP3    H174774   2.081   3.181  12.150 -0.8522  0.9894 -0.4130
17761TIP3    H274775   2.090   3.152  12.002  0.1490  0.2765 -0.2232
17762TIP3   OH274776   0.815   1.981  15.561  0.2969 -0.1275  0.1148
17762TIP3    H174777   0.865   1.958  15.483 -0.9844  1.1029 -1.1428
17762TIP3    H274778   0.780   1.897  15.592 -1.2547 -0.4483 -2.1857
17763TIP3   OH274779   3.610   2.552   0.562 -0.4201  0.2682  0.1789
17763TIP3    H174780   3.689   2.567   0.613 -1.1930  0.0020  1.4942
17763TIP3    H274781   3.577   2.468   0.593 -0.8526  0.0384 -0.8553
17764TIP3   OH274782   4.175   6.123  17.098  0.1593 -0.1000 -0.1618
17764TIP3    H174783   4.208   6.045  17.143  0.6823  0.1427 -0.1200
17764TIP3    H274784   4.122   6.088  17.026  0.1580 -0.4936  0.0252
17765TIP3   OH274785   1.106   1.125   2.071 -0.8689  0.0663  0.2635
17765TIP3    H174786   1.193   1.087   2.079 -1.3451 -1.1865 -0.0679
17765TIP3    H274787   1.100   1.154   1.980 -1.1706 -0.9079 -0.0463
17766TIP3   OH274788   4.593   6.551   0.988  0.1052 -0.0812  0.0167
17766TIP3    H174789   4.506   6.528   1.020 -0.8015  0.0927 -2.1291
17766TIP3    H274790   4.602   6.644   1.008 -0.1225 -0.1393  0.4001
17767TIP3   OH274791   3.339   3.230  16.887  0.1107 -0.8687 -0.5480
17767TIP3    H174792   3.414   3.276  16.926 -0.6283 -0.6733  0.7170
17767TIP3    H274793   3.376   3.184  16.812  1.3693 -0.2564 -0.3467
17768TIP3   OH274794   1.517   5.102  16.315  0.3923  0.2508 -0.2244
17768TIP3    H174795   1.422   5.103  16.318  0.3872 -0.8692  1.5462
17768TIP3    H274796   1.545   5.127  16.404  1.6308 -2.3456  0.2372
17769TIP3   OH274797   3.621   5.703  16.162  0.8945 -0.7561 -0.5485
17769TIP3    H174798   3.573   5.626  16.132  1.2460 -1.7321  1.2495
17769TIP3    H274799   3.611   5.766  16.091  0.2135 -2.2801 -1.8848
17770TIP3   OH274800   2.882   3.719   0.659  0.1910 -0.1569 -0.5358
17770TIP3    H174801   2.864   3.793   0.601  0.3503 -1.3730 -2.2057
17770TIP3    H274802   2.958   3.746   0.710  0.5328  0.6645 -1.4548
17771TIP3   OH274803   5.331   5.732   1.851  0.0847  0.0029  0.0032
17771TIP3    H174804   5.408   5.785   1.872  1.5906 -1.4707 -1.4007
17771TIP3    H274805   5.326   5.668   1.922  1.3840 -1.0938 -0.8409
17772TIP3   OH274806   3.472   3.507   3.947 -0.5174 -0.2426  0.3914
17772TIP3    H174807   3.465   3.442   3.876 -0.3930 -0.7899  0.8740
17772TIP3    H274808   3.545   3.477   4.000 -0.1978  0.5291  0.3937
17773TIP3   OH274809   1.388   1.915  12.873  0.1647  0.0311  0.6763
17773TIP3    H174810   1.474   1.902  12.913  0.1381  1.7571  1.3595
17773TIP3    H274811   1.391   1.860  12.794  1.2066 -1.3375  1.5997
17774TIP3   OH274812   2.774   4.031  11.582 -0.2175  0.0553 -0.0690
17774TIP3    H174813   2.741   4.111  11.622 -0.6355 -1.5615  3.1741
17774TIP3    H274814   2.717   4.017  11.506 -0.0666  2.8032 -0.7791
17775TIP3   OH274815   3.381   5.901  16.268  0.1921 -0.1044  0.6892
17775TIP3    H174816   3.408   5.906  16.360 -1.1931 -1.4923  1.2337
17775TIP3    H274817   3.441   5.958  16.222  0.2689  1.4911  2.6095
17776TIP3   OH274818   5.451   2.291  13.878  0.3059 -0.7104 -0.3220
17776TIP3    H174819   5.356   2.288  13.864  0.1988 -0.8239  0.3687
17776TIP3    H274820   5.468   2.219  13.940  0.4689  0.8383  1.5314
17777TIP3   OH274821   1.160   2.389  17.184  0.1467  0.8149 -0.1891
17777TIP3    H174822   1.252   2.369  17.164 -0.0648 -0.4184 -0.0003
17777TIP3    H274823   1.130   2.440  17.109  0.4341 -0.5215 -1.2523
17778TIP3   OH274824   1.982   0.283  13.173 -0.9580 -0.0816  0.0934
17778TIP3    H174825   1.942   0.244  13.095 -2.7037  0.5726  0.5931
17778TIP3    H274826   1.920   0.351  13.199  0.2313  0.5764  1.3174
17779TIP3   OH274827   1.137   5.015   4.982  0.3974 -0.4455  0.5932
17779TIP3    H174828   1.221   4.974   4.998  1.1927  1.3511  1.3632
17779TIP3    H274829   1.141   5.097   5.032 -0.9064  0.7749 -1.1700
17780TIP3   OH274830   1.468   0.364   4.612 -0.3054  0.7789 -0.2838
17780TIP3    H174831   1.555   0.387   4.581 -0.2727 -0.4403 -1.1575
17780TIP3    H274832   1.483   0.301   4.683 -0.4683  0.9682 -0.0775
17781TIP3   OH274833   0.396   1.977   2.381  0.2429  0.3854 -0.1450
17781TIP3    H174834   0.331   2.047   2.376  0.6788  0.9035  1.1352
17781TIP3    H274835   0.432   1.971   2.292 -1.6108  0.0000 -0.9093
17782TIP3   OH274836   2.656   0.033   3.481 -0.0780  0.1441 -0.0427
17782TIP3    H174837   2.588   0.008   3.419  0.7549  1.7358 -1.6717
17782TIP3    H274838   2.610   0.087   3.545 -0.2635  1.8898 -1.5836
17783TIP3   OH274839   6.702   5.082  13.123  0.5820 -0.0583  0.0111
17783TIP3    H174840   6.786   5.116  13.092  0.3454 -0.7176 -1.4877
17783TIP3    H274841   6.721   5.040  13.206  1.5286  0.7360  0.1999
17784TIP3   OH274842   1.933   4.450  13.642  0.2750  0.4294  0.0318
17784TIP3    H174843   1.920   4.508  13.567 -0.6528  0.4242  0.1817
17784TIP3    H274844   1.935   4.362  13.605  0.3723  0.4660 -0.0494
17785TIP3   OH274845   5.841   0.210   1.581  0.1127 -0.2165 -0.1674
17785TIP3    H174846   5.905   0.153   1.624  1.1953 -0.6080 -2.1660
17785TIP3    H274847   5.763   0.156   1.572  1.3239 -1.7475 -2.6211
17786TIP3   OH274848   4.771   0.392  14.805 -0.4977 -0.0435 -0.1775
17786TIP3    H174849   4.712   0.317  14.804 -0.3156 -0.1864 -0.2388
17786TIP3    H274850   4.850   0.360  14.849 -1.2920  0.7777  1.9605
17787TIP3   OH274851   4.135   4.731   1.687  0.3351  0.0602 -0.0587
17787TIP3    H174852   4.221   4.740   1.729  0.5458  0.8935 -0.6355
17787TIP3    H274853   4.111   4.640   1.701  1.3442 -0.2021  0.0812
17788TIP3   OH274854   6.137   6.752   1.347  0.1222 -0.0610 -0.4751
17788TIP3    H174855   6.133   6.683   1.280  0.8438  0.0554 -0.6474
17788TIP3    H274856   6.055   6.800   1.337 -0.7264 -1.3008  0.0999
17789TIP3   OH274857   3.378   5.033  16.638 -0.4619 -0.4106  0.0568
17789TIP3    H174858   3.469   5.020  16.665  0.2999  0.8964 -1.6432
17789TIP3    H274859   3.369   5.128  16.632 -1.5106 -0.5655 -1.1378
17790TIP3   OH274860   3.326   5.103  15.610  0.5889 -0.6784 -0.3971
17790TIP3    H174861   3.412   5.133  15.580 -0.6682  1.1684 -2.3864
17790TIP3    H274862   3.345   5.022  15.658  3.5111  0.1605  0.0408
17791TIP3   OH274863   1.380   6.820  12.792  0.2021 -0.7014  0.2211
17791TIP3    H174864   1.335   6.892  12.747 -0.7255  0.1838  2.4295
17791TIP3    H274865   1.457   6.803  12.738 -0.5763  0.6219 -1.4026
17792TIP3   OH274866   1.766   2.457  10.797 -0.1196  0.0764  0.5479
17792TIP3    H174867   1.735   2.424  10.712 -2.1194 -0.2201  1.3392
17792TIP3    H274868   1.806   2.541  10.776 -2.3511  0.9729 -0.5030
17793TIP3   OH274869   5.280   5.746   5.420  0.6200 -0.0088 -0.2145
17793TIP3    H174870   5.359   5.734   5.473  0.6508  0.5643 -0.1198
17793TIP3    H274871   5.232   5.664   5.429 -0.3582  0.7278  2.3517
17794TIP3   OH274872   0.766   1.004   0.635  0.0477  0.4094 -0.5167
17794TIP3    H174873   0.674   1.031   0.636 -0.2796 -0.6330 -1.5924
17794TIP3    H274874   0.766   0.916   0.598  1.3227 -0.2768  0.9866
17795TIP3   OH274875   2.948   6.604   0.415  0.1624 -0.0355  0.3742
17795TIP3    H174876   2.974   6.513   0.432 -0.0274 -0.2516 -0.4535
17795TIP3    H274877   2.882   6.622   0.482  1.9432  0.3147  2.0969
17796TIP3   OH274878   1.576   0.202   0.830  0.1493 -0.4663  0.1931
17796TIP3    H174879   1.516   0.129   0.813 -3.2649  1.6370  2.0011
17796TIP3    H274880   1.576   0.252   0.749  1.0823 -1.4873 -0.4608
17797TIP3   OH274881   0.095   6.158   4.700 -0.0011  0.0795 -0.1735
17797TIP3    H174882   0.032   6.179   4.631  1.5182  3.6454 -0.6926
17797TIP3    H274883   0.164   6.109   4.656  0.3179  1.1866 -0.9392
17798TIP3   OH274884   6.291   2.514   3.281  0.1040 -0.6101 -0.0832
17798TIP3    H174885   6.255   2.515   3.192 -0.3540 -2.1275  0.0533
17798TIP3    H274886   6.245   2.585   3.327 -0.5738 -0.6321 -0.7153
17799TIP3   OH274887   6.009   2.297   2.119 -0.1858 -0.5639 -0.2398
17799TIP3    H174888   5.923   2.314   2.080 -1.2357 -1.0163  1.7420
17799TIP3    H274889   6.055   2.380   2.114 -1.8786  0.5348  1.2738
17800TIP3   OH274890   6.800   6.372   0.848  0.1550 -0.3326 -0.1499
17800TIP3    H174891   6.785   6.315   0.773 -0.0329 -1.2749  0.5733
17800TIP3    H274892   6.885   6.343   0.883  0.2761  0.1432 -0.0504
17801TIP3   OH274893   5.949   3.104   0.774 -0.2275  0.2407 -0.1066
17801TIP3    H174894   5.932   3.081   0.865 -1.0166  0.6380 -0.1434
17801TIP3    H274895   6.020   3.046   0.747  0.9894  1.0653  1.1666
17802TIP3   OH274896   5.845   3.717  16.686 -0.0172 -0.1572 -0.4033
17802TIP3    H174897   5.873   3.748  16.600 -0.7851  0.7127 -0.3562
17802TIP3    H274898   5.921   3.730  16.743  0.2340  0.0063 -0.7753
17803TIP3   OH274899   4.200   4.338  12.842 -0.4865  0.4315 -0.2879
17803TIP3    H174900   4.226   4.375  12.758  1.4877 -1.3355 -0.5412
17803TIP3    H274901   4.116   4.296  12.825 -0.5488  0.8677 -1.1211
17804TIP3   OH274902   5.013   1.696   0.988 -0.1142 -0.0775  0.2381
17804TIP3    H174903   4.995   1.786   1.014  0.4954  0.4148 -0.9816
17804TIP3    H274904   5.092   1.673   1.036 -0.3241 -0.0044  0.6268
17805TIP3   OH274905   5.465   5.777   3.298  0.2813 -0.0657 -0.0112
17805TIP3    H174906   5.499   5.768   3.209  0.6555 -0.4591  0.1720
17805TIP3    H274907   5.373   5.803   3.286  0.7091  1.3272 -0.5048
17806TIP3   OH274908   3.728   0.880  12.128 -0.0305  0.0928  0.1884
17806TIP3    H174909   3.713   0.786  12.138 -1.7000  0.4389  1.4955
17806TIP3    H274910   3.817   0.894  12.160 -0.5951 -0.7560  2.3272
17807TIP3   OH274911   5.328   0.796  14.198  0.0537 -0.0805  0.5075
17807TIP3    H174912   5.338   0.883  14.237 -1.2854 -0.5171  1.9468
17807TIP3    H274913   5.233   0.784  14.192  0.1732 -1.9350  1.5609
17808TIP3   OH274914   0.101   5.590   4.963 -0.1353 -0.0497  0.1293
17808TIP3    H174915   0.021   5.552   4.999 -0.0007 -0.6228 -0.1597
17808TIP3    H274916   0.126   5.530   4.892  1.5790 -0.9369  1.4050
17809TIP3   OH274917   3.557   2.630   2.301 -0.4425  0.0406 -0.3515
17809TIP3    H174918   3.563   2.722   2.275  0.9383  0.6792  1.8768
17809TIP3    H274919   3.624   2.586   2.250 -0.7766  0.3477 -1.0706
17810TIP3   OH274920   5.722   2.708   3.492 -0.5281 -0.6387 -0.8542
17810TIP3    H174921   5.679   2.745   3.415 -0.2691 -0.7141 -1.0344
17810TIP3    H274922   5.650   2.685   3.551 -0.6819  0.4721 -0.5902
17811TIP3   OH274923   1.288   5.954  11.035  0.0287 -0.4115 -0.4950
17811TIP3    H174924   1.240   6.023  10.990 -0.1442  0.1347  0.4920
17811TIP3    H274925   1.255   5.872  10.997 -1.8843 -0.0638  0.3238
17812TIP3   OH274926   3.239   6.597  15.373  0.3826  0.1232  0.0828
17812TIP3    H174927   3.266   6.515  15.331 -0.8464 -0.7160  0.8442
17812TIP3    H274928   3.319   6.631  15.412  1.1040 -0.2185 -1.0361
17813TIP3   OH274929   5.022   5.778   4.707  0.8603 -0.3500  0.0807
17813TIP3    H174930   4.966   5.760   4.631 -1.2373  0.8427  1.2540
17813TIP3    H274931   5.111   5.773   4.672 -0.0255  0.5813 -2.5790
17814TIP3   OH274932   2.545   3.690  12.906 -0.2744  0.1636 -0.0385
17814TIP3    H174933   2.496   3.641  12.840  0.4824  0.3657 -0.7815
17814TIP3    H274934   2.630   3.646  12.910 -0.9155 -1.0296  2.2073
17815TIP3   OH274935   2.777   5.132   2.243 -0.0786 -0.0439 -0.0431
17815TIP3    H174936   2.766   5.047   2.200  0.0035  0.0609 -0.2763
17815TIP3    H274937   2.871   5.138   2.259  0.0249  0.3398 -0.7432
17816TIP3   OH274938   2.194   5.096  11.825  0.1776 -0.1071  0.4275
17816TIP3    H174939   2.143   5.155  11.769  2.9282  1.8547 -0.1893
17816TIP3    H274940   2.150   5.011  11.816 -1.8727  1.0468 -1.4429
17817TIP3   OH274941   2.338   0.550   1.912  0.1453  0.8652  0.1196
17817TIP3    H174942   2.413   0.495   1.889  0.4609  2.5876 -3.6095
17817TIP3    H274943   2.378   0.632   1.942 -0.3395  0.5532  1.7409
17818TIP3   OH274944   0.184   3.040   5.880 -0.7376 -0.0865 -0.6332
17818TIP3    H174945   0.104   2.993   5.855 -1.3808  1.4970 -1.7308
17818TIP3    H274946   0.176   3.054   5.974 -2.4384  1.2044 -0.9330
17819TIP3   OH274947   6.611   1.046   4.873  0.0036  0.3030  0.3854
17819TIP3    H174948   6.612   1.034   4.968  0.4420  1.6462  0.5804
17819TIP3    H274949   6.528   1.092   4.856  0.0020  0.2113  0.1468
17820TIP3   OH274950   6.045   1.587  11.867 -0.3284 -0.4100 -0.2381
17820TIP3    H174951   6.079   1.626  11.947 -1.2192  0.9768 -0.4948
17820TIP3    H274952   6.006   1.505  11.895  0.6008 -0.6096  0.5154
17821TIP3   OH274953   5.631   3.106   4.396  0.1688 -0.2590 -0.5978
17821TIP3    H174954   5.673   3.077   4.477 -0.2112  0.2635 -0.2119
17821TIP3    H274955   5.638   3.201   4.398 -0.6285 -0.1907 -0.7545
17822TIP3   OH274956   6.262   0.437  12.134 -0.0537 -0.4797  0.2111
17822TIP3    H174957   6.233   0.425  12.043  0.9082 -2.3202  0.0945
17822TIP3    H274958   6.255   0.531  12.150 -2.8388 -0.4085 -0.8713
17823TIP3   OH274959   5.819   5.220  10.668  0.0677 -0.6632  0.1234
17823TIP3    H174960   5.896   5.265  10.633  1.3293 -1.4053  1.8147
17823TIP3    H274961   5.794   5.272  10.745  0.0251 -1.4352  0.6421
17824TIP3   OH274962   3.309   1.803   3.394  0.2652 -0.3767  0.0613
17824TIP3    H174963   3.218   1.821   3.418  0.5055  0.0292  0.6759
17824TIP3    H274964   3.328   1.718   3.433 -0.1949 -1.0116 -1.0329
17825TIP3   OH274965   2.339   0.771   5.147 -0.7720 -0.3878  0.1110
17825TIP3    H174966   2.288   0.851   5.157  1.1955  0.8702  0.4153
17825TIP3    H274967   2.399   0.770   5.220 -1.5716 -2.8540  0.8534
17826TIP3   OH274968   3.720   4.701  16.851 -0.0910 -0.7719 -0.5985
17826TIP3    H174969   3.783   4.638  16.817 -0.3239 -1.1418 -0.3570
17826TIP3    H274970   3.761   4.786  16.839 -0.2003 -0.8782 -1.9044
17827TIP3   OH274971   0.358   2.963  16.482  0.0430 -0.4621 -0.8250
17827TIP3    H174972   0.356   3.059  16.479  1.4556 -0.2147  2.3479
17827TIP3    H274973   0.270   2.938  16.511  0.7957  0.2930  2.5094
17828TIP3   OH274974   2.024   5.618   4.033 -0.4173 -0.2098  0.0146
17828TIP3    H174975   2.043   5.679   4.104 -1.1045 -1.1444  1.0247
17828TIP3    H274976   1.938   5.644   4.000 -0.1067  0.2124 -0.4908
17829TIP3   OH274977   2.567   0.207   3.674 -1.0315  0.3575  0.1036
17829TIP3    H174978   2.475   0.200   3.699 -0.5906  0.5099  1.8577
17829TIP3    H274979   2.612   0.239   3.752  0.4315  0.8879 -0.8985
17830TIP3   OH274980   3.963   3.352   2.458 -0.1049 -0.0932  0.3411
17830TIP3    H174981   3.906   3.299   2.401 -1.2438 -0.4725  1.7664
17830TIP3    H274982   4.022   3.397   2.397 -2.4057  0.9113 -1.3057
17831TIP3   OH274983   3.388   1.935  10.880  0.1340 -0.3267 -0.6711
17831TIP3    H174984   3.296   1.909  10.883  0.2112 -0.5252  0.8394
17831TIP3    H274985   3.435   1.856  10.854 -0.0897 -0.2762 -1.2472
17832TIP3   OH274986   0.331   2.471   0.135  0.6123 -0.3653 -0.0896
17832TIP3    H174987   0.283   2.456   0.053  1.6608 -1.8676 -0.4850
17832TIP3    H274988   0.402   2.530   0.110  1.0773 -1.0153 -0.3547
17833TIP3   OH274989   3.815   6.015   4.653 -0.0235 -0.2669  0.3229
17833TIP3    H174990   3.905   6.018   4.686  0.1368  1.1813 -0.1450
17833TIP3    H274991   3.762   5.990   4.729  0.8625 -2.2399  0.3299
17834TIP3   OH274992   4.861   3.804   2.684  0.3769 -0.7536  0.0375
17834TIP3    H174993   4.943   3.795   2.635  0.1583  0.5983 -0.6120
17834TIP3    H274994   4.799   3.842   2.622 -0.1762  0.0872  1.0617
17835TIP3   OH274995   1.744   5.785   0.762  0.0734 -0.0895  0.3959
17835TIP3    H174996   1.835   5.813   0.773  0.2343 -0.3127 -0.3147
17835TIP3    H274997   1.714   5.833   0.685 -0.9632  1.3129  1.6220
17836TIP3   OH274998   3.182   6.224  12.848 -0.5615  0.1356  0.1980
17836TIP3    H174999   3.212   6.300  12.897  0.2839  0.1723 -0.3569
17836TIP3    H275000   3.121   6.260  12.783  0.2746  0.4312 -0.4410
17837TIP3   OH275001   1.609   1.112   3.812  0.5991  0.2253  0.2289
17837TIP3    H175002   1.671   1.095   3.883  0.4462  0.6985  0.4801
17837TIP3    H275003   1.659   1.159   3.746  0.4851  0.7007  0.4778
17838TIP3   OH275004   0.849   2.958  11.211 -0.3101 -0.6822 -0.3170
17838TIP3    H175005   0.897   2.970  11.293 -0.6133 -0.1878 -0.2053
17838TIP3    H275006   0.770   3.011  11.222  0.0136  0.0029 -1.2199
17839TIP3   OH275007   6.488   6.633  15.846  0.0446 -0.0749  0.2724
17839TIP3    H175008   6.541   6.693  15.899  1.9769 -0.2305 -1.3436
17839TIP3    H275009   6.532   6.631  15.761 -1.1609 -2.1787 -0.3843
17840TIP3   OH275010   3.601   6.696   0.311 -0.8851  0.0979  0.2487
17840TIP3    H175011   3.592   6.603   0.336  0.7945 -0.4309 -0.9336
17840TIP3    H275012   3.684   6.723   0.350 -0.0006  0.2853 -1.6516
17841TIP3   OH275013   0.669   3.792   3.593 -0.7969 -0.2777 -0.0603
17841TIP3    H175014   0.632   3.711   3.558 -3.9472  1.0795 -0.2612
17841TIP3    H275015   0.722   3.764   3.668 -1.7801 -2.5152 -0.1164
17842TIP3   OH275016   0.976   2.176  17.220  0.0051  1.0927  0.4878
17842TIP3    H175017   1.058   2.223  17.210  1.8371 -1.5013  1.9975
17842TIP3    H275018   0.963   2.170  17.314 -0.4105 -0.8501  0.3561
17843TIP3   OH275019   5.566   2.712   7.137 -0.1065 -0.0031  0.4059
17843TIP3    H175020   5.506   2.777   7.173 -1.6971  0.6297 -2.9766
17843TIP3    H275021   5.511   2.634   7.124  1.0223 -1.0256  1.4719
17844TIP3   OH275022   0.721   2.757   0.995  0.0388  0.4197 -0.3299
17844TIP3    H175023   0.788   2.815   1.031 -1.3304  1.0297  1.3864
17844TIP3    H275024   0.638   2.796   1.023 -0.9630 -1.9106  0.1839
17845TIP3   OH275025   5.607   3.995   3.507  0.0390 -0.5199 -0.1162
17845TIP3    H175026   5.561   4.078   3.521 -0.0646 -0.4558 -0.7674
17845TIP3    H275027   5.540   3.937   3.470  0.1085 -0.8986  0.3440
17846TIP3   OH275028   4.727   1.919  15.382 -0.0593 -0.3859  0.3211
17846TIP3    H175029   4.713   1.858  15.455 -1.0689 -0.3695  0.1614
17846TIP3    H275030   4.650   1.977  15.385  0.3494  0.1893 -0.1967
17847TIP3   OH275031   3.512   3.726   5.258 -0.7793  0.5778  0.3999
17847TIP3    H175032   3.472   3.648   5.297 -0.1571  0.5246  0.9573
17847TIP3    H275033   3.604   3.721   5.286 -0.3064  0.5272 -1.1075
17848TIP3   OH275034   5.970   6.707  13.673  0.2469 -0.0341 -0.1506
17848TIP3    H175035   5.987   6.682  13.764  3.0754 -0.7502 -0.7864
17848TIP3    H275036   6.050   6.683  13.626 -0.0553  2.7719 -2.3603
17849TIP3   OH275037   0.128   2.574   4.876 -0.1987 -0.1276 -0.2839
17849TIP3    H175038   0.122   2.532   4.961  2.3667  1.1683  0.6340
17849TIP3    H275039   0.046   2.624   4.868 -0.9641 -1.1509  0.8738
17850TIP3   OH275040   4.298   5.518  17.130  0.0217 -0.7146 -0.5317
17850TIP3    H175041   4.276   5.519  17.036 -2.8772  1.9174  0.0033
17850TIP3    H275042   4.228   5.466  17.170 -0.6078  0.7913  0.4155
17851TIP3   OH275043   5.468   4.778   1.072 -0.0590 -0.2241  0.7756
17851TIP3    H175044   5.466   4.865   1.112  0.9762  0.6832 -0.9997
17851TIP3    H275045   5.561   4.761   1.056 -0.3361 -1.1830  0.1097
17852TIP3   OH275046   4.801   2.464  14.965  0.1679  0.0492  0.6761
17852TIP3    H175047   4.887   2.427  14.944  0.4274 -0.0023  1.7991
17852TIP3    H275048   4.794   2.458  15.060 -0.4043  1.5377  0.7483
17853TIP3   OH275049   0.306   4.070   5.381 -0.0233  0.3846  0.0105
17853TIP3    H175050   0.318   4.148   5.326  1.9425 -0.8295 -1.3910
17853TIP3    H275051   0.251   4.100   5.453 -0.8103  2.6189 -1.4242
17854TIP3   OH275052   0.219   3.669   5.727 -0.2124  0.1270  0.0030
17854TIP3    H175053   0.266   3.681   5.809 -0.7796 -0.6150  0.4461
17854TIP3    H275054   0.156   3.599   5.745  0.2477 -0.6628 -1.3225
17855TIP3   OH275055   2.920   2.457   0.510 -0.2054 -0.0732 -0.7496
17855TIP3    H175056   2.977   2.494   0.578 -0.0979  1.4632 -1.6332
17855TIP3    H275057   2.949   2.366   0.503 -0.2361 -0.2987  1.2456
17856TIP3   OH275058   6.593   3.207   2.781 -0.0974 -0.1439  0.1399
17856TIP3    H175059   6.632   3.291   2.757  0.9605 -0.3189  1.1736
17856TIP3    H275060   6.638   3.143   2.725 -1.9168  0.0881 -1.6972
17857TIP3   OH275061   0.353   3.530   5.282  0.6597  0.1726  0.0265
17857TIP3    H175062   0.310   3.476   5.215  1.1266  0.2656 -0.3565
17857TIP3    H275063   0.285   3.590   5.311  0.1588 -0.5642  0.3953
17858TIP3   OH275064   3.942   0.172   5.735 -0.2175 -0.5454  0.0502
17858TIP3    H175065   4.015   0.110   5.738  1.4741  1.1667 -2.0842
17858TIP3    H275066   3.945   0.208   5.646  0.0863  3.9008  1.6295
17859TIP3   OH275067   4.602   4.197  10.995  0.2295 -1.1345 -0.1772
17859TIP3    H175068   4.668   4.180  10.927  0.4982 -0.5230 -0.0788
17859TIP3    H275069   4.535   4.248  10.949  0.6772 -0.2412  0.1378
17860TIP3   OH275070   3.199   5.304   3.316  0.0315 -0.5203  0.2748
17860TIP3    H175071   3.219   5.310   3.410  0.5493 -0.7993  0.1873
17860TIP3    H275072   3.284   5.315   3.273 -0.2350 -0.1904 -0.1712
17861TIP3   OH275073   4.169   3.396  15.486  0.1715 -0.0243  0.3340
17861TIP3    H175074   4.167   3.325  15.423  1.5600  0.6809 -0.5608
17861TIP3    H275075   4.084   3.439  15.477 -0.5016 -1.2660  0.5592
17862TIP3   OH275076   4.584   3.327  17.034  0.3913  0.2368  0.0518
17862TIP3    H175077   4.536   3.276  16.969 -0.8214 -0.2126  1.2482
17862TIP3    H275078   4.533   3.317  17.115  1.5951  1.1520  0.9642
17863TIP3   OH275079   5.135   4.565  16.768  0.7233  0.4399 -0.4065
17863TIP3    H175080   5.177   4.484  16.737  0.6788  1.1249 -2.4391
17863TIP3    H275081   5.202   4.633  16.756  0.3296  0.9177  0.0544
17864TIP3   OH275082   4.663   5.966   0.192  0.4355 -0.4079 -0.0919
17864TIP3    H175083   4.708   6.023   0.253  0.4877  0.8435 -1.2550
17864TIP3    H275084   4.720   5.889   0.184  2.2183  0.9661 -1.2477
17865TIP3   OH275085   4.139   2.878  11.249  0.0850  0.1708 -0.0424
17865TIP3    H175086   4.144   2.796  11.298 -2.5278  0.2784  0.5601
17865TIP3    H275087   4.178   2.943  11.307  0.0249 -0.2641  0.4934
17866TIP3   OH275088   4.924   0.738  13.690 -0.1482 -0.2963  0.0505
17866TIP3    H175089   4.952   0.687  13.766  1.3667 -1.0573 -0.9744
17866TIP3    H275090   4.922   0.675  13.618  0.5697  0.8211 -0.9954
17867TIP3   OH275091   1.205   5.112  13.892  0.4549 -0.3488 -0.0879
17867TIP3    H175092   1.198   5.017  13.882 -1.0861 -0.5138  1.8645
17867TIP3    H275093   1.281   5.126  13.948  1.2117 -0.3395 -1.0928
17868TIP3   OH275094   2.267   6.508   1.373  0.1768  0.7801 -0.0800
17868TIP3    H175095   2.297   6.525   1.463 -1.5530 -0.0284  0.7028
17868TIP3    H275096   2.311   6.427   1.348 -0.0933  0.4581  0.4541
17869TIP3   OH275097   0.644   2.700  16.226  0.4114 -0.2447  0.0686
17869TIP3    H175098   0.554   2.732  16.223 -0.1162 -1.2879  2.4670
17869TIP3    H275099   0.698   2.778  16.214 -0.8335  0.7620  0.7777
17870TIP3   OH275100   1.076   5.386  11.993 -0.0967 -0.4919 -0.1405
17870TIP3    H175101   1.015   5.373  12.066  0.9245 -0.6975  0.6995
17870TIP3    H275102   1.112   5.474  12.007  1.2493 -1.1194  0.5105
17871TIP3   OH275103   3.220   3.871   0.104  0.0945  0.6173 -0.5773
17871TIP3    H175104   3.232   3.914   0.020 -1.0099  1.9115 -0.1027
17871TIP3    H275105   3.133   3.896   0.132 -0.3545 -1.4425  0.0447
17872TIP3   OH275106   0.245   6.153   5.836 -0.5033  0.2131 -0.0707
17872TIP3    H175107   0.157   6.179   5.863 -0.6956  0.5547 -0.9882
17872TIP3    H275108   0.302   6.218   5.878 -0.8511  1.1411 -0.9964
17873TIP3   OH275109   4.806   2.618   6.610  0.8057 -0.7602  0.1266
17873TIP3    H175110   4.777   2.549   6.549 -0.0096 -0.8515  0.6020
17873TIP3    H275111   4.731   2.631   6.668  1.1176  0.2158  0.3254
17874TIP3   OH275112   5.483   4.458   1.519  0.6865 -0.5135  0.6760
17874TIP3    H175113   5.476   4.514   1.596  0.6716  0.4606 -0.0021
17874TIP3    H275114   5.419   4.389   1.533 -0.5869  0.6364  0.7499
17875TIP3   OH275115   2.034   3.065  16.526  0.0033  0.3451 -0.4482
17875TIP3    H175116   2.102   3.051  16.593 -1.1741  1.6859  1.1162
17875TIP3    H275117   2.071   3.026  16.447  0.9937 -2.4300  1.2053
17876TIP3   OH275118   3.444   6.726  15.544  0.1313 -0.0160 -0.0832
17876TIP3    H175119   3.455   6.803  15.600 -0.7470  0.4337 -0.5157
17876TIP3    H275120   3.443   6.652  15.606  0.1515  0.3880  0.4099
17877TIP3   OH275121   1.787   0.524  13.178  0.0153  0.0877 -0.3851
17877TIP3    H175122   1.801   0.605  13.130 -1.7969  0.2436 -0.7368
17877TIP3    H275123   1.807   0.546  13.269  0.6233  0.6072 -0.6368
17878TIP3   OH275124   1.334   1.956   1.922  0.1129 -0.2110 -0.3925
17878TIP3    H175125   1.267   1.892   1.901  2.1296 -2.5766 -0.1138
17878TIP3    H275126   1.397   1.951   1.850  0.1066  1.8953 -0.6287
17879TIP3   OH275127   6.143   3.166   2.433  0.2392  0.5156  0.2144
17879TIP3    H175128   6.215   3.167   2.369  1.7399  2.7976  1.7770
17879TIP3    H275129   6.110   3.256   2.433 -0.8026  0.1595  1.5129
17880TIP3   OH275130   6.007   1.093  17.042 -0.9836  0.0732 -0.0846
17880TIP3    H175131   6.036   1.172  16.996  0.1539 -0.0990  0.3022
17880TIP3    H275132   5.958   1.043  16.976 -0.4311  0.4098 -0.7620
17881TIP3   OH275133   5.000   2.346  16.504 -0.6119  1.0273 -0.3815
17881TIP3    H175134   5.027   2.293  16.429 -1.6285  0.4482 -0.3573
17881TIP3    H275135   4.929   2.401  16.471 -1.6395  0.1793  0.3312
17882TIP3   OH275136   4.035   5.352  13.279  0.4417 -0.7662  0.3493
17882TIP3    H175137   3.986   5.382  13.203  0.3780 -1.0315  0.2852
17882TIP3    H275138   3.972   5.300  13.330  0.7861 -1.5462  0.0056
17883TIP3   OH275139   1.585   0.390   5.320  0.2764 -0.7001  0.1953
17883TIP3    H175140   1.656   0.411   5.259  0.0649 -1.8470 -0.4949
17883TIP3    H275141   1.619   0.414   5.406  1.9177 -2.1319  0.0077
17884TIP3   OH275142   6.586   4.060   3.429 -0.1865 -0.3296  0.3033
17884TIP3    H175143   6.641   4.011   3.490  0.7585 -1.3354 -1.2719
17884TIP3    H275144   6.534   4.118   3.484  2.0085  0.2193  1.9174
17885TIP3   OH275145   2.713   2.671   0.066  0.0028  0.0457  0.3156
17885TIP3    H175146   2.734   2.603   0.129 -2.1082 -0.1785  0.8456
17885TIP3    H275147   2.706   2.751   0.118 -0.7500  0.0446  0.2278
17886TIP3   OH275148   4.335   0.963   5.690 -0.2786 -0.0262  0.5366
17886TIP3    H175149   4.364   0.929   5.775 -1.5000  0.6882  1.2706
17886TIP3    H275150   4.332   0.885   5.633  3.3448 -0.1097  0.2408
17887TIP3   OH275151   0.772   0.665   4.072  0.7496 -0.2955 -0.4065
17887TIP3    H175152   0.816   0.608   4.009  1.8314 -0.7832  0.7512
17887TIP3    H275153   0.686   0.624   4.085  1.4347 -1.5946  0.2639
17888TIP3   OH275154   4.435   2.323  17.036  0.4608 -0.0150 -0.4990
17888TIP3    H175155   4.392   2.375  17.104 -0.3795 -1.4195  0.1007
17888TIP3    H275156   4.469   2.246  17.083  1.4247 -0.1441 -1.3889
17889TIP3   OH275157   3.663   6.743   4.437 -0.1552 -0.4749 -0.0920
17889TIP3    H175158   3.754   6.731   4.463  0.6272  2.2953 -1.2878
17889TIP3    H275159   3.665   6.747   4.342 -1.5693 -0.5778 -0.1530
17890TIP3   OH275160   3.400   0.215  13.274  0.3877  0.5116 -0.1658
17890TIP3    H175161   3.405   0.164  13.193  2.0893 -0.1712  0.3308
17890TIP3    H275162   3.367   0.300  13.247  0.6257  0.1890 -1.5310
17891TIP3   OH275163   4.422   4.610   1.510 -0.1247  0.1639  0.0020
17891TIP3    H175164   4.374   4.543   1.460 -2.9950  1.8661  0.2039
17891TIP3    H275165   4.401   4.692   1.465  4.6328  0.9857 -1.2704
17892TIP3   OH275166   3.646   4.787  16.138 -0.0161  0.1332  0.5542
17892TIP3    H175167   3.722   4.734  16.161  1.0556  1.1195 -0.5874
17892TIP3    H275168   3.596   4.795  16.219  1.7506  0.5424  1.6359
17893TIP3   OH275169   0.088   4.956  11.798  0.3518 -0.0444 -0.1215
17893TIP3    H175170   0.174   4.981  11.830  0.4919 -0.2485 -0.3327
17893TIP3    H275171   0.081   4.999  11.712 -0.9469  2.4377  1.0997
17894TIP3   OH275172   6.134   2.611   6.938 -0.1725  0.0283  0.3962
17894TIP3    H175173   6.223   2.579   6.941  1.0610  3.0884  3.2902
17894TIP3    H275174   6.080   2.538   6.969  1.6588 -1.0573  1.1589
17895TIP3   OH275175   0.431   1.998  14.864  0.1371  0.2738 -0.4091
17895TIP3    H175176   0.494   1.928  14.849 -0.4499 -0.4925  0.5461
17895TIP3    H275177   0.430   2.010  14.959  0.3433  1.7067 -0.5650
17896TIP3   OH275178   5.604   1.632  14.238 -0.4514  0.2704  0.2662
17896TIP3    H175179   5.696   1.652  14.223 -0.3122 -0.1104  0.5962
17896TIP3    H275180   5.605   1.547  14.282 -1.0940 -1.1580 -2.3054
17897TIP3   OH275181   3.104   2.649  16.910 -0.0726 -0.6341 -0.1251
17897TIP3    H175182   3.105   2.585  16.839  0.0198 -1.6061  0.7370
17897TIP3    H275183   3.169   2.617  16.973  0.6613  0.8084 -0.0953
17898TIP3   OH275184   2.749   6.676   1.210  0.3082  0.3023 -0.0472
17898TIP3    H175185   2.748   6.616   1.285  2.8939  2.9455  2.3634
17898TIP3    H275186   2.667   6.724   1.216 -0.4413 -0.9259 -0.2160
17899TIP3   OH275187   1.320   0.405   1.566  0.1481 -0.0842  0.0026
17899TIP3    H175188   1.316   0.407   1.661  0.7749 -1.5260  0.0939
17899TIP3    H275189   1.238   0.364   1.539  0.3362 -0.4465 -0.0236
17900TIP3   OH275190   6.673   1.847  15.486 -0.5354  0.2647  0.6753
17900TIP3    H175191   6.665   1.933  15.443 -0.4705 -0.6820 -1.3340
17900TIP3    H275192   6.756   1.851  15.532 -0.3260  1.1424  0.2501
17901TIP3   OH275193   6.296   3.441  11.896 -0.1834  0.0552  0.3359
17901TIP3    H175194   6.357   3.498  11.942 -0.4412 -0.6095  1.5648
17901TIP3    H275195   6.321   3.353  11.923  0.1582 -0.4373 -1.4621
17902TIP3   OH275196   3.981   2.511  15.927 -0.0022 -0.7742  0.4781
17902TIP3    H175197   4.049   2.481  15.988 -0.3941 -0.1994  1.2097
17902TIP3    H275198   3.921   2.563  15.981  0.3350  0.8414 -0.6141
17903TIP3   OH275199   3.956   0.743   0.922  0.1623  0.3104 -0.1379
17903TIP3    H175200   3.947   0.696   1.005  0.5416 -1.2241 -0.9174
17903TIP3    H275201   3.870   0.736   0.882  0.0079  0.9626  0.0746
17904TIP3   OH275202   2.031   4.743  16.762  0.4381 -0.2683 -0.2750
17904TIP3    H175203   1.942   4.737  16.797 -0.4338  0.7159 -2.1906
17904TIP3    H275204   2.084   4.773  16.836 -1.1037  0.6297  0.5162
17905TIP3   OH275205   3.257   5.475   4.691  0.3272 -0.6669  0.6044
17905TIP3    H175206   3.338   5.512   4.726 -0.1979  1.0699  0.1217
17905TIP3    H275207   3.192   5.544   4.705 -0.5272 -1.0578 -1.1383
17906TIP3   OH275208   4.940   5.497   2.175 -0.1602 -0.4271  0.5720
17906TIP3    H175209   5.013   5.445   2.208  0.6004  1.0796  1.3579
17906TIP3    H275210   4.979   5.580   2.149 -1.1165 -0.7100 -2.0346
17907TIP3   OH275211   0.366   6.291   4.770 -0.2502 -0.0054  0.3089
17907TIP3    H175212   0.313   6.318   4.845  0.4982  0.5825  0.6437
17907TIP3    H275213   0.434   6.235   4.807 -0.2045 -0.1590 -0.0069
17908TIP3   OH275214   1.363   1.729   4.765  0.0488 -0.2156 -0.2677
17908TIP3    H175215   1.362   1.634   4.755 -2.7124 -0.0539 -2.7207
17908TIP3    H275216   1.271   1.754   4.770  0.7125  2.3317  0.9332
17909TIP3   OH275217   5.315   4.397  17.090  0.5105  0.0136 -0.2155
17909TIP3    H175218   5.229   4.431  17.116  0.2924 -1.0462  0.5381
17909TIP3    H275219   5.372   4.474  17.090 -0.4473  0.7497 -0.8206
17910TIP3   OH275220   5.677   4.799  14.473  0.2398  0.1255  0.1697
17910TIP3    H175221   5.692   4.793  14.567  1.6617  1.4876  0.0734
17910TIP3    H275222   5.708   4.886  14.449 -1.4403  0.3834 -1.3407
17911TIP3   OH275223   6.738   6.478  17.120  0.2308 -0.3128 -0.1205
17911TIP3    H175224   6.670   6.429  17.166  1.3549  0.7098  2.8016
17911TIP3    H275225   6.691   6.548  17.074 -0.7979 -0.3443  0.8593
17912TIP3   OH275226   5.142   2.632  15.887 -0.4342  0.8046 -0.4067
17912TIP3    H175227   5.082   2.671  15.951 -0.0732  0.7722 -0.0444
17912TIP3    H275228   5.227   2.635  15.929 -0.3120  0.1036 -0.5859
17913TIP3   OH275229   3.305   4.451  16.379 -0.0686 -0.2683 -0.2809
17913TIP3    H175230   3.247   4.500  16.437  1.4766  2.3772 -0.8098
17913TIP3    H275231   3.246   4.406  16.318 -1.5982 -0.4611  1.2637
17914TIP3   OH275232   1.276   6.129  13.977  0.4512  0.3429 -0.2182
17914TIP3    H175233   1.219   6.146  14.052  0.3442 -1.0905  0.0557
17914TIP3    H275234   1.339   6.064  14.008 -2.1919 -3.7172 -2.3774
17915TIP3   OH275235   6.808   2.740  13.193  0.2181  0.2379  0.3065
17915TIP3    H175236   6.745   2.811  13.182 -1.0171 -0.7180  0.8698
17915TIP3    H275237   6.786   2.677  13.124  1.4661  0.5048 -0.3534
17916TIP3   OH275238   6.048   2.592   5.978 -0.3038  0.2308 -0.1974
17916TIP3    H175239   6.138   2.601   5.948 -0.7290  3.1265 -0.9939
17916TIP3    H275240   6.053   2.604   6.073  0.1323  1.0177 -0.3091
17917TIP3   OH275241   3.821   5.232  15.042 -0.1785 -0.5853  0.4862
17917TIP3    H175242   3.878   5.300  15.077  0.4226 -1.6682  1.6812
17917TIP3    H275243   3.854   5.217  14.953 -0.7804  1.1412 -0.0903
17918TIP3   OH275244   5.716   1.569  12.836  0.1106 -0.6020  0.3810
17918TIP3    H175245   5.755   1.548  12.921 -1.2916 -0.2959  1.1215
17918TIP3    H275246   5.652   1.500  12.820 -2.2233  1.2098  1.3159
17919TIP3   OH275247   0.373   1.570   5.581 -0.3406  0.0607  0.4499
17919TIP3    H175248   0.367   1.486   5.627  5.6619 -1.3687 -0.4821
17919TIP3    H275249   0.366   1.636   5.650 -2.8119 -1.2387  1.5564
17920TIP3   OH275250   4.119   4.982  15.578 -0.1408 -0.4098  0.2074
17920TIP3    H175251   4.044   4.932  15.547 -1.7122  0.5108  2.2133
17920TIP3    H275252   4.154   4.930  15.650  0.8741 -0.6026 -0.4143
17921TIP3   OH275253   0.251   2.039  11.376 -0.5603 -0.6022  0.0675
17921TIP3    H175254   0.294   2.108  11.427  0.3520  0.8708 -2.5286
17921TIP3    H275255   0.308   1.963  11.386 -1.2124 -0.8623  2.4119
17922TIP3   OH275256   0.148   1.208   5.966  0.0647 -0.1387 -0.1957
17922TIP3    H175257   0.121   1.122   5.996 -2.3391 -0.3915 -2.6217
17922TIP3    H275258   0.138   1.265   6.042 -0.2157 -1.6362  0.9257
17923TIP3   OH275259   0.221   1.905  12.774  0.1247 -0.1610  0.3663
17923TIP3    H175260   0.314   1.929  12.777 -0.0770  0.5425  1.7016
17923TIP3    H275261   0.190   1.940  12.691  0.8607  0.3536  0.2918
17924TIP3   OH275262   5.796   0.033   3.185 -0.4657 -0.2525  0.2761
17924TIP3    H175263   5.796  -0.010   3.271 -3.0177 -1.3324 -0.1826
17924TIP3    H275264   5.739   0.109   3.196 -0.4652 -0.1518 -0.3739
17925TIP3   OH275265   5.874   0.590   4.760  0.3585 -0.5092 -0.7600
17925TIP3    H175266   5.855   0.682   4.743 -0.7182 -0.2466  1.4983
17925TIP3    H275267   5.788   0.550   4.775  0.9661 -0.9309  2.3218
17926TIP3   OH275268   0.765   1.438   0.573  0.0269  0.5390  0.3779
17926TIP3    H175269   0.859   1.423   0.588  0.7220 -0.1288 -3.5771
17926TIP3    H275270   0.761   1.523   0.531 -0.8407 -0.2964 -1.3261
17927TIP3   OH275271   1.644   5.587  13.690 -0.0629  0.7487 -0.7344
17927TIP3    H175272   1.673   5.496  13.684  2.4647  1.3515  0.5894
17927TIP3    H275273   1.549   5.582  13.693  0.0177 -2.0465  1.3895
17928TIP3   OH275274   4.599   0.155  10.468  0.6564  0.4864  0.9663
17928TIP3    H175275   4.621   0.237  10.513  0.7448  0.9718  0.0548
17928TIP3    H275276   4.526   0.119  10.518 -0.9695  2.3131  0.0099
17929TIP3   OH275277   5.716   6.657  13.556  0.5892 -0.1522 -0.1192
17929TIP3    H175278   5.806   6.690  13.562  0.8610 -0.8107 -0.4789
17929TIP3    H275279   5.668   6.725  13.510  0.7707  0.4650  0.5899
17930TIP3   OH275280   6.614   2.808   0.699 -0.3698 -0.0623 -0.1938
17930TIP3    H175281   6.691   2.772   0.654 -1.1441 -0.0665 -1.5491
17930TIP3    H275282   6.647   2.886   0.744  0.5145 -0.2964 -0.4171
17931TIP3   OH275283   1.988   4.091   0.415  0.2211  0.3495  1.0441
17931TIP3    H175284   1.961   4.012   0.368 -0.0460  0.9658  0.1270
17931TIP3    H275285   2.045   4.137   0.353  0.8185  0.6063  1.7761
17932TIP3   OH275286   2.646   1.991   5.007  0.8282 -0.7709 -0.8145
17932TIP3    H175287   2.720   1.991   5.068 -0.4379 -1.2132  0.7667
17932TIP3    H275288   2.619   1.900   5.001 -1.5953 -0.2696  1.2058
17933TIP3   OH275289   2.328   4.201   1.841  0.2753 -0.9303 -0.2761
17933TIP3    H175290   2.393   4.247   1.787  1.3495 -2.7888 -0.6898
17933TIP3    H275291   2.246   4.248   1.827  1.1958  0.5061 -1.0472
17934TIP3   OH275292   4.154   3.171   0.752  0.3508  0.4547 -0.1664
17934TIP3    H175293   4.092   3.236   0.784 -0.3674 -1.2899  2.2653
17934TIP3    H275294   4.110   3.131   0.677 -1.2971 -0.3822  1.1949
17935TIP3   OH275295   6.330   4.194  14.058  0.2419 -0.5096  0.3453
17935TIP3    H175296   6.361   4.282  14.035  1.4870 -1.1454 -0.5448
17935TIP3    H275297   6.343   4.188  14.153 -1.1172  0.7151  0.6458
17936TIP3   OH275298   3.296   4.407   3.314 -0.1849 -0.2250 -0.1175
17936TIP3    H175299   3.278   4.394   3.407 -0.0831 -0.2559 -0.1013
17936TIP3    H275300   3.286   4.320   3.275 -0.2635 -0.2051 -0.1409
17937TIP3   OH275301   4.805   5.300   5.389  0.5821 -0.4858  0.5519
17937TIP3    H175302   4.711   5.288   5.372  0.5897 -0.2034  0.2928
17937TIP3    H275303   4.824   5.388   5.355  0.6916 -0.0666  1.6647
17938TIP3   OH275304   1.907   1.196   5.870 -0.0932  0.5016 -0.0091
17938TIP3    H175305   1.824   1.151   5.887 -0.0186  0.7786  1.1939
17938TIP3    H275306   1.885   1.264   5.806 -0.2988 -0.9242 -1.5119
17939TIP3   OH275307   4.023   3.449  15.836  0.3077  0.5509  0.0397
17939TIP3    H175308   3.964   3.483  15.769 -0.6820 -0.8165  0.1724
17939TIP3    H275309   4.110   3.469  15.804 -0.1895  1.9215 -0.5498
17940TIP3   OH275310   3.173   3.379  12.929  0.3017  0.2738 -0.3053
17940TIP3    H175311   3.250   3.428  12.958  0.4333 -0.8169  1.3472
17940TIP3    H275312   3.207   3.315  12.868  0.5047  0.6012 -0.5397
17941TIP3   OH275313   2.366   0.183  14.811 -0.2698  0.1524  0.6734
17941TIP3    H175314   2.432   0.246  14.842  1.2696 -1.1136  0.1158
17941TIP3    H275315   2.417   0.117  14.764 -1.9372 -1.0292  0.4573
17942TIP3   OH275316   0.124   5.373   2.399 -0.2516 -0.2310  0.1361
17942TIP3    H175317   0.200   5.415   2.440  0.9114 -0.2666 -1.8581
17942TIP3    H275318   0.050   5.428   2.425  0.2798 -0.6070  2.7355
17943TIP3   OH275319   1.156   5.722  10.939  0.1935  0.0664  0.6001
17943TIP3    H175320   1.086   5.713  10.873  2.0860  0.4550 -1.5826
17943TIP3    H275321   1.148   5.643  10.993 -0.9143 -0.7014 -0.6211
17944TIP3   OH275322   3.888   4.504   0.961 -0.1195  0.1945 -0.2027
17944TIP3    H175323   3.841   4.436   0.912 -0.9092  0.4768  0.1328
17944TIP3    H275324   3.874   4.584   0.911  1.0614  0.0637 -0.7539
17945TIP3   OH275325   0.115   0.141   6.097 -0.0206 -0.1604  0.1132
17945TIP3    H175326   0.148   0.064   6.050  0.6208 -0.7325  1.4515
17945TIP3    H275327   0.104   0.111   6.187  0.2404  1.3262  0.6607
17946TIP3   OH275328   0.657   1.356  16.872  0.3097  0.5134 -0.2736
17946TIP3    H175329   0.574   1.391  16.903 -0.4398 -1.3026 -0.0898
17946TIP3    H275330   0.712   1.350  16.950 -0.3819 -0.8358  0.1481
17947TIP3   OH275331   1.250   6.190   1.370 -0.2568  0.8117 -0.7845
17947TIP3    H175332   1.174   6.185   1.428  0.9058 -1.3803  0.6955
17947TIP3    H275333   1.239   6.272   1.323 -3.5692  0.5326 -0.7089
17948TIP3   OH275334   0.358   1.648  16.867  0.4597  0.4406 -0.2234
17948TIP3    H175335   0.386   1.738  16.885  0.8233  0.3549 -0.3419
17948TIP3    H275336   0.397   1.628  16.782 -0.4784  0.5220 -0.6828
17949TIP3   OH275337   1.708   4.860  13.299 -0.5620  0.3865  0.5597
17949TIP3    H175338   1.635   4.833  13.244 -0.2584 -2.2270  1.3259
17949TIP3    H275339   1.780   4.802  13.275  1.0331  2.2530  0.5105
17950TIP3   OH275340   3.898   3.542   2.118 -0.1913  0.0953 -0.2442
17950TIP3    H175341   3.807   3.557   2.092  0.3529  0.2029 -2.2418
17950TIP3    H275342   3.907   3.447   2.123 -0.9108  0.0850  2.0506
17951TIP3   OH275343   4.352   1.435   5.164 -0.3732 -0.2116 -0.0361
17951TIP3    H175344   4.407   1.451   5.086 -0.7456  1.8245  0.0561
17951TIP3    H275345   4.275   1.491   5.150 -0.5654 -0.0106  1.6695
17952TIP3   OH275346   3.531   4.091  11.683 -0.2490  0.1272  0.6887
17952TIP3    H175347   3.606   4.151  11.679 -1.5748  1.8297 -0.3741
17952TIP3    H275348   3.514   4.079  11.776  1.4453 -0.4498  0.9446
17953TIP3   OH275349   5.054   2.989  12.670  0.1831  0.3866  0.6106
17953TIP3    H175350   5.064   3.066  12.726 -1.6336  1.1576 -0.0385
17953TIP3    H275351   4.961   2.988  12.647  0.5144 -0.9734 -0.8691
17954TIP3   OH275352   1.374   0.638  15.276  0.2830 -0.4681  0.1419
17954TIP3    H175353   1.360   0.622  15.369  0.6721  0.1605  0.3132
17954TIP3    H275354   1.327   0.719  15.258  1.4259  0.2126  0.1276
17955TIP3   OH275355   6.814   0.161   0.822 -0.3660  0.1828  0.1493
17955TIP3    H175356   6.802   0.094   0.755  0.2725  1.4146 -1.2570
17955TIP3    H275357   6.748   0.228   0.801 -0.4192  0.4151  0.9980
17956TIP3   OH275358   5.951   5.584  15.162 -0.1381  0.2964 -0.0201
17956TIP3    H175359   5.954   5.567  15.068  0.4650  0.2095  0.0139
17956TIP3    H275360   6.042   5.582  15.190 -0.3183  0.2532  0.5793
17957TIP3   OH275361   1.882   0.671  10.966 -0.2838  0.4249  0.2415
17957TIP3    H175362   1.813   0.615  11.001  0.1227  0.0439  0.4474
17957TIP3    H275363   1.953   0.611  10.945 -1.3443  0.2561 -3.5324
17958TIP3   OH275364   4.659   3.051   0.658 -0.9047  0.0882  0.1692
17958TIP3    H175365   4.621   2.966   0.633 -1.0722 -0.2913  1.6228
17958TIP3    H275366   4.712   3.032   0.735  0.0934  1.1000 -0.2440
17959TIP3   OH275367   5.799   0.576  14.614 -0.2362  0.2526  0.5779
17959TIP3    H175368   5.863   0.506  14.605 -0.5475 -0.1426  1.3032
17959TIP3    H275369   5.850   0.653  14.636  0.0392  0.0635  0.6065
17960TIP3   OH275370   5.780   1.669   2.298 -0.7559 -0.5222 -0.1637
17960TIP3    H175371   5.739   1.728   2.361 -0.5813 -1.8930  1.2942
17960TIP3    H275372   5.709   1.616   2.263 -0.4509 -2.0965  1.4875
17961TIP3   OH275373   5.541   4.611   6.358  0.1344 -0.2231 -0.4629
17961TIP3    H175374   5.530   4.674   6.287  1.2344  0.7046  0.1662
17961TIP3    H275375   5.460   4.619   6.409  0.5208  1.2129 -0.0099
17962TIP3   OH275376   0.235   4.933   3.071  0.0076 -0.1469 -0.5221
17962TIP3    H175377   0.236   4.931   3.166 -0.8219  0.7753 -0.4770
17962TIP3    H275378   0.186   5.013   3.049 -2.1449 -1.7051 -1.7122
17963TIP3   OH275379   6.265   5.876   1.438 -0.4648  0.3174  0.1297
17963TIP3    H175380   6.353   5.913   1.427 -0.0652 -0.7672 -0.3914
17963TIP3    H275381   6.210   5.929   1.380 -0.1380  0.8735  0.3092
17964TIP3   OH275382   2.596   6.051  14.782 -0.1753 -0.1265  0.0058
17964TIP3    H175383   2.654   6.078  14.711 -2.1812 -0.9631 -2.0833
17964TIP3    H275384   2.524   6.114  14.779 -1.3352 -1.4096 -0.1456
17965TIP3   OH275385   5.864   0.898  15.346  0.3216  0.0863  0.1096
17965TIP3    H175386   5.916   0.914  15.425  2.3178 -1.6685 -0.7519
17965TIP3    H275387   5.833   0.808  15.355 -2.3072  0.9396  0.3783
17966TIP3   OH275388   3.088   0.082  13.067  0.1572  0.0387 -0.1662
17966TIP3    H175389   3.115   0.173  13.081  0.2439  0.1853 -1.2103
17966TIP3    H275390   3.008   0.073  13.119  0.8586  0.3165  0.9941
17967TIP3   OH275391   6.339   0.698  15.649 -0.1533  0.2043 -0.2274
17967TIP3    H175392   6.329   0.790  15.674  0.5858  0.5251 -1.0806
17967TIP3    H275393   6.254   0.674  15.614 -0.7115  0.2156  1.0648
17968TIP3   OH275394   4.588   5.841  15.272  0.1559 -0.2793 -0.0472
17968TIP3    H175395   4.529   5.775  15.309 -0.6972  1.0085  0.9688
17968TIP3    H275396   4.672   5.825  15.316 -0.5438  0.4990  1.6389
17969TIP3   OH275397   0.805   2.515  10.316 -0.4714  0.2393 -0.1378
17969TIP3    H175398   0.758   2.597  10.307 -0.1192  0.3233 -1.5478
17969TIP3    H275399   0.866   2.530  10.388  1.2870  2.1110 -1.8690
17970TIP3   OH275400   0.710   2.193  15.275  0.8047 -0.1598  0.1345
17970TIP3    H175401   0.730   2.110  15.233  0.2788  0.0181 -0.5009
17970TIP3    H275402   0.687   2.251  15.202 -0.6744  0.0018  0.6967
17971TIP3   OH275403   5.777   6.816  11.365  0.0734  0.2485 -0.0092
17971TIP3    H175404   5.688   6.804  11.333  0.4882 -0.3587 -0.9835
17971TIP3    H275405   5.798   6.733  11.408  0.7530 -0.2694 -1.2813
17972TIP3   OH275406   0.330   5.758   0.973  0.2312  0.5491 -0.0995
17972TIP3    H175407   0.397   5.724   1.033  1.1313  1.8895 -0.3078
17972TIP3    H275408   0.266   5.687   0.966 -0.7586  0.8654  3.6619
17973TIP3   OH275409   3.559   1.617  15.611 -0.2936 -0.3580  0.4184
17973TIP3    H175410   3.540   1.678  15.682 -0.1117  0.9498 -0.6186
17973TIP3    H275411   3.553   1.670  15.532  0.3036 -1.5956 -0.4846
17974TIP3   OH275412   0.411   2.751   4.498  0.2384  0.0699 -0.2374
17974TIP3    H175413   0.389   2.773   4.589  0.5360  0.9998 -0.3830
17974TIP3    H275414   0.346   2.798   4.446  0.8942  0.6328 -0.5609
17975TIP3   OH275415   3.484   3.369  11.964  0.1375 -0.5545 -0.0271
17975TIP3    H175416   3.399   3.396  11.999  0.4131  0.0751  0.1757
17975TIP3    H275417   3.545   3.434  11.999  0.9061 -1.7320  0.8860
17976TIP3   OH275418   3.627   3.738  15.765  0.3566  0.2158  0.3989
17976TIP3    H175419   3.539   3.730  15.803 -0.4299  0.8259 -1.2232
17976TIP3    H275420   3.663   3.650  15.770 -0.4170 -0.0833  0.9164
17977TIP3   OH275421   6.076   0.594   3.286 -0.0355 -0.4348 -0.0335
17977TIP3    H175422   6.088   0.524   3.350  3.1968  0.4537  0.5269
17977TIP3    H275423   6.007   0.649   3.323 -0.6788 -1.8133  0.8797
17978TIP3   OH275424   5.737   1.774  12.649 -0.0188  0.0804 -0.1904
17978TIP3    H175425   5.712   1.703  12.708 -0.2430 -1.0807 -1.5949
17978TIP3    H275426   5.654   1.815  12.624  0.2129  2.1877  2.0923
17979TIP3   OH275427   5.541   5.899   1.893 -0.1218 -0.0131  0.1417
17979TIP3    H175428   5.619   5.843   1.899 -1.5071 -1.9972  0.5411
17979TIP3    H275429   5.539   5.947   1.976  0.6824  0.1140  0.1012
17980TIP3   OH275430   2.022   2.952   2.964  0.5642 -0.1668 -0.3455
17980TIP3    H175431   1.987   2.899   3.036  0.0005  1.0971  0.3484
17980TIP3    H275432   2.113   2.969   2.988  0.2159  0.7521  0.4091
17981TIP3   OH275433   1.825   5.751   4.830 -0.2777 -0.3714 -0.0027
17981TIP3    H175434   1.759   5.818   4.811  0.8358  0.3231 -1.6494
17981TIP3    H275435   1.795   5.673   4.783 -0.9144 -0.6746  0.8749
17982TIP3   OH275436   5.603   2.215   3.246  0.5057 -0.2678 -0.4476
17982TIP3    H175437   5.632   2.178   3.163 -0.2514 -0.8986 -0.4372
17982TIP3    H275438   5.647   2.163   3.313  0.8918  0.0564 -0.4454
17983TIP3   OH275439   2.602   3.863   5.515 -0.3888 -0.2746 -0.3913
17983TIP3    H175440   2.667   3.932   5.500  0.5881 -1.3806 -1.5126
17983TIP3    H275441   2.600   3.853   5.611  0.5328  0.2902 -0.2975
17984TIP3   OH275442   6.390   4.518   4.701 -0.1583 -0.2022 -0.4935
17984TIP3    H175443   6.455   4.560   4.758  0.8451 -1.1971 -0.8642
17984TIP3    H275444   6.366   4.438   4.748  0.3781 -0.8276 -1.2675
17985TIP3   OH275445   3.126   6.322  13.944 -0.0272 -1.0147  0.1308
17985TIP3    H175446   3.034   6.296  13.941 -1.0050  1.9958 -2.2425
17985TIP3    H275447   3.157   6.309  13.854  1.2296 -0.0986  0.4028
17986TIP3   OH275448   4.857   1.849  13.113 -0.4335  0.6163 -0.2191
17986TIP3    H175449   4.766   1.870  13.090 -1.7145 -1.2229  2.7014
17986TIP3    H275450   4.865   1.873  13.205  2.1075  0.7110 -0.3948
17987TIP3   OH275451   3.900   3.640  11.353 -0.2454  0.4947  0.1481
17987TIP3    H175452   3.808   3.634  11.327 -0.5045 -0.2813  1.1676
17987TIP3    H275453   3.946   3.664  11.273 -1.2849  0.4780 -0.4736
17988TIP3   OH275454   6.676   1.185   6.702 -0.2970 -0.0479  0.1987
17988TIP3    H175455   6.764   1.209   6.675 -0.3899 -0.2552 -0.2947
17988TIP3    H275456   6.629   1.268   6.710 -0.2998  0.0048 -0.3776
17989TIP3   OH275457   6.327   3.461   5.866 -0.0236  0.7377 -0.5272
17989TIP3    H175458   6.306   3.410   5.944  2.2891  0.3427 -0.0973
17989TIP3    H275459   6.275   3.541   5.875  1.5374  1.5826  2.4617
17990TIP3   OH275460   6.682   6.575   5.521  0.0149  0.0178 -0.1954
17990TIP3    H175461   6.764   6.563   5.569  0.8171  1.8793 -1.0314
17990TIP3    H275462   6.656   6.486   5.496  1.2492 -0.6884  0.9147
17991TIP3   OH275463   1.201   1.868  14.552 -0.1989 -0.0442 -0.0633
17991TIP3    H175464   1.184   1.939  14.614  0.1375  2.0639 -2.2201
17991TIP3    H275465   1.296   1.858  14.552 -0.2397 -0.4639  0.1789
17992TIP3   OH275466   1.463   3.639   6.477 -0.6310  0.0050  0.3716
17992TIP3    H175467   1.416   3.723   6.481  0.2553  0.5326  0.1120
17992TIP3    H275468   1.555   3.662   6.495 -0.7109 -1.2594  2.8246
17993TIP3   OH275469   2.713   6.748  12.008 -0.3096  0.1514  0.7936
17993TIP3    H175470   2.663   6.826  12.035  1.7295  1.5092  0.9252
17993TIP3    H275471   2.799   6.760  12.050  0.0688 -2.1890  0.7939
17994TIP3   OH275472   2.454   1.285  13.322  0.0934 -0.0170  0.3459
17994TIP3    H175473   2.418   1.221  13.383  0.7545  0.2297  1.0206
17994TIP3    H275474   2.527   1.325  13.370 -0.3019  1.2305 -0.0559
17995TIP3   OH275475   5.056   5.690  15.366  0.1562  0.3267  1.0167
17995TIP3    H175476   5.046   5.732  15.280 -0.3673 -1.4578  0.1604
17995TIP3    H275477   5.106   5.610  15.348  0.7191  0.3114  2.5159
17996TIP3   OH275478   4.945   2.830   2.902  0.5306  0.5928 -0.0730
17996TIP3    H175479   4.943   2.896   2.971  1.2784  0.6523 -0.1037
17996TIP3    H275480   4.892   2.868   2.831  1.6126  1.5278 -0.4111
17997TIP3   OH275481   1.211   2.768  14.118 -0.1954  0.6890 -0.5474
17997TIP3    H175482   1.202   2.673  14.126  1.7979  0.2920 -2.1958
17997TIP3    H275483   1.253   2.794  14.200 -1.8665  0.3908  0.4596
17998TIP3   OH275484   2.149   1.090  17.120 -0.3786  0.0081  1.1713
17998TIP3    H175485   2.115   1.084  17.209  0.7304 -0.4863  1.5838
17998TIP3    H275486   2.239   1.122  17.131  0.2783 -1.4709  0.3575
17999TIP3   OH275487   3.655   0.422  11.148  0.4743  0.0993  0.2648
17999TIP3    H175488   3.677   0.461  11.233 -1.4347 -0.4227  1.0688
17999TIP3    H275489   3.575   0.372  11.166  0.3553 -0.4876 -1.7361
18000TIP3   OH275490   3.656   3.738   5.834  0.3093  0.1230 -0.2492
18000TIP3    H175491   3.737   3.721   5.787  0.9421  1.6706  0.2074
18000TIP3    H275492   3.680   3.736   5.926 -0.4012 -0.4261 -0.0637
18001TIP3   OH275493   0.559   1.664  16.091 -0.1062 -0.0320 -0.4559
18001TIP3    H175494   0.518   1.629  16.012  1.5320 -0.7116 -1.0568
18001TIP3    H275495   0.524   1.753  16.099 -0.1018  0.1501 -2.1134
18002TIP3   OH275496   2.939   4.337  14.060  0.3785  0.1899 -0.1863
18002TIP3    H175497   2.885   4.362  13.985  1.0534  0.9689 -0.4220
18002TIP3    H275498   2.931   4.410  14.121  1.0550  0.2486 -0.1661
18003TIP3   OH275499   3.382   5.178   0.281 -0.0134  0.6374  0.1292
18003TIP3    H175500   3.348   5.150   0.196  0.3821  0.4229  0.0424
18003TIP3    H275501   3.475   5.160   0.277  0.0184  0.6906  0.5869
18004TIP3   OH275502   3.117   2.873  16.732 -0.4097 -0.0639 -0.2829
18004TIP3    H175503   3.166   2.874  16.814 -0.6693  0.9390 -0.1238
18004TIP3    H275504   3.027   2.859  16.758 -0.3171 -1.2013 -0.5223
18005TIP3   OH275505   1.058   5.956   6.884  0.1313  0.1654 -0.4696
18005TIP3    H175506   1.097   5.870   6.871  0.7206  0.5717 -1.5370
18005TIP3    H275507   1.118   6.017   6.840 -1.4805  0.8495 -1.8485
18006TIP3   OH275508   5.058   5.896  11.587 -0.3018  0.4383 -0.5217
18006TIP3    H175509   5.089   5.977  11.628  0.9021  0.0992 -0.7264
18006TIP3    H275510   5.103   5.826  11.635 -1.3957 -0.1255 -0.2898
18007TIP3   OH275511   5.090   1.528   2.529  0.0615  0.0401  0.4035
18007TIP3    H175512   5.139   1.490   2.456 -2.6718 -1.9858 -0.5536
18007TIP3    H275513   5.118   1.478   2.605  0.4477 -0.2041  0.1043
18008TIP3   OH275514   2.975   3.058   2.682  0.1441  0.1747 -0.1859
18008TIP3    H175515   3.012   3.132   2.635 -0.6072  1.3418  0.9985
18008TIP3    H275516   2.979   2.985   2.619  1.0151  1.1651 -1.3228
18009TIP3   OH275517   4.340   2.071  11.677 -0.0529 -0.0899 -0.2919
18009TIP3    H175518   4.365   2.023  11.756  0.2565  0.5482  0.0053
18009TIP3    H275519   4.262   2.025  11.644  1.0728 -1.7019 -0.8520
18010TIP3   OH275520   6.742   4.841  13.554 -0.2901 -0.1581 -0.0281
18010TIP3    H175521   6.783   4.755  13.565 -1.7712 -1.0015 -0.7795
18010TIP3    H275522   6.669   4.841  13.615  0.1396  0.8819  0.5075
18011TIP3   OH275523   2.384   2.283  13.868 -0.4429  0.0133 -0.1649
18011TIP3    H175524   2.460   2.340  13.865  1.3840 -2.2309  0.1211
18011TIP3    H275525   2.382   2.250  13.958 -0.1989 -1.8680 -0.8030
18012TIP3   OH275526   3.707   0.561  13.167 -0.3105  0.3714  0.4157
18012TIP3    H175527   3.778   0.615  13.201 -0.8346 -0.6676  3.4416
18012TIP3    H275528   3.751   0.484  13.130  0.2072  0.2753  1.2070
18013TIP3   OH275529   5.675   4.704  16.249 -0.9405 -0.0443  0.8830
18013TIP3    H175530   5.693   4.792  16.280 -1.1827 -0.1902  1.4456
18013TIP3    H275531   5.588   4.710  16.208 -1.0383 -0.0601  1.0861
18014TIP3   OH275532   2.930   4.052  15.323 -0.7359  0.0345 -0.0899
18014TIP3    H175533   2.992   4.034  15.394 -0.9920 -0.8146 -0.0745
18014TIP3    H275534   2.969   4.011  15.246 -2.0879 -2.0665  0.2727
18015TIP3   OH275535   0.610   4.150   1.707 -0.1706  0.1333 -0.1926
18015TIP3    H175536   0.682   4.186   1.761 -0.8063 -0.5323  1.1505
18015TIP3    H275537   0.549   4.223   1.698 -2.0559 -0.7464  3.5670
18016TIP3   OH275538   5.649   2.023  16.928  0.3075  0.1328 -0.0485
18016TIP3    H175539   5.631   2.011  17.021  1.8803  0.8100  0.3621
18016TIP3    H275540   5.630   1.938  16.889  1.1282 -0.6205  1.1380
18017TIP3   OH275541   2.591   6.106  11.961  0.4192 -0.1681  0.5087
18017TIP3    H175542   2.653   6.173  11.990 -1.5014  1.7692  0.3859
18017TIP3    H275543   2.505   6.143  11.982 -0.7993 -1.5823 -1.6970
18018TIP3   OH275544   1.033   3.681   6.083  0.1504  0.2171  0.1766
18018TIP3    H175545   1.098   3.611   6.086 -0.4784 -0.3871 -0.1424
18018TIP3    H275546   1.064   3.740   6.014  0.6958  0.2739  0.4658
18019TIP3   OH275547   4.663   3.621   1.861  0.3906  0.0734  0.1991
18019TIP3    H175548   4.594   3.627   1.927  0.0640 -3.9289  0.4804
18019TIP3    H275549   4.737   3.669   1.900 -1.3877  2.3325  0.9927
18020TIP3   OH275550   0.742   1.372  11.886  1.1314  0.1521 -0.4105
18020TIP3    H175551   0.717   1.462  11.863 -0.8149 -0.0111  0.8516
18020TIP3    H275552   0.792   1.381  11.967  0.6515  0.0883 -0.1027
18021TIP3   OH275553   3.164   1.148   4.300  0.3886 -0.4643 -0.1752
18021TIP3    H175554   3.161   1.089   4.376 -0.1584 -1.9449 -1.3062
18021TIP3    H275555   3.256   1.154   4.277  0.6042  0.3044  0.8133
18022TIP3   OH275556   0.745   4.482   5.874  0.0073  0.2866 -0.2141
18022TIP3    H175557   0.679   4.436   5.927  2.5208 -1.5756  1.5385
18022TIP3    H275558   0.802   4.413   5.842  0.7763  1.7739 -2.2489
18023TIP3   OH275559   0.833   6.076   0.450 -0.2847 -0.0900  0.4409
18023TIP3    H175560   0.855   6.169   0.455 -0.0053 -0.0976 -0.5028
18023TIP3    H275561   0.751   6.074   0.401  0.0856 -0.3787 -0.1815
18024TIP3   OH275562   5.995   1.050  15.575 -0.1203 -0.0351 -0.1923
18024TIP3    H175563   5.945   1.132  15.575 -0.3092 -0.1444  0.4148
18024TIP3    H275564   6.020   1.038  15.667 -1.9934 -1.7997  0.1524
18025TIP3   OH275565   5.898   1.434   4.384  0.3997  0.5209 -0.0023
18025TIP3    H175566   5.944   1.518   4.380 -0.9245  1.3274  0.9654
18025TIP3    H275567   5.810   1.454   4.353  0.0057 -0.4721  0.4513
18026TIP3   OH275568   1.723   0.026   0.451 -0.2308 -0.0577  0.2885
18026TIP3    H175569   1.817   0.031   0.432 -0.5304  2.1040 -1.0246
18026TIP3    H275570   1.716  -0.034   0.525  2.2317  0.0829  0.7187
18027TIP3   OH275571   0.553   6.167   5.200  0.0183  0.3688 -0.3082
18027TIP3    H175572   0.508   6.089   5.168 -0.8378  0.7028  0.0565
18027TIP3    H275573   0.484   6.221   5.239  0.8101  0.6597  0.7385
18028TIP3   OH275574   6.704   6.229   5.026 -0.3469  0.6635 -0.4209
18028TIP3    H175575   6.707   6.288   4.951 -1.7751 -1.1432 -2.0107
18028TIP3    H275576   6.620   6.246   5.067  0.5651  1.8747  1.0508
18029TIP3   OH275577   4.431   5.774   5.801  1.0154 -0.2611  0.2073
18029TIP3    H175578   4.412   5.867   5.799 -1.4770 -0.6851  0.7856
18029TIP3    H275579   4.483   5.761   5.880 -1.0931  0.2974  1.7537
18030TIP3   OH275580   2.948   2.735   6.657  0.2840  0.6082 -0.5437
18030TIP3    H175581   3.037   2.757   6.684  0.1877  0.2264  0.1118
18030TIP3    H275582   2.940   2.641   6.673 -0.9095  0.9959  1.4700
18031TIP3   OH275583   3.067   4.006   4.531  0.2832 -0.1759  0.1567
18031TIP3    H175584   3.034   4.042   4.614  0.1364 -0.4170  0.2027
18031TIP3    H275585   3.161   3.998   4.544  0.2423 -0.3411  0.3483
18032TIP3   OH275586   5.556   1.311  12.385  0.2757  0.0258  0.3171
18032TIP3    H175587   5.582   1.263  12.307 -1.2198 -1.3534  0.6084
18032TIP3    H275588   5.507   1.387  12.353 -2.2140 -1.6657 -0.1377
18033TIP3   OH275589   3.013   6.592  12.909  0.1015 -0.2835 -0.2434
18033TIP3    H175590   3.041   6.615  12.998 -0.2302 -1.4814  0.1911
18033TIP3    H275591   3.066   6.647  12.852 -0.1379  0.9757  0.7082
18034TIP3   OH275592   1.792   5.386  11.198  0.3511 -0.2551  0.1151
18034TIP3    H175593   1.773   5.402  11.106  2.4552  0.1916 -0.2817
18034TIP3    H275594   1.880   5.349  11.199  0.1222 -0.8732  1.9138
18035TIP3   OH275595   5.795   3.453   1.201 -0.1416  0.2459  0.4254
18035TIP3    H175596   5.849   3.390   1.249  0.3910 -1.1862 -1.9081
18035TIP3    H275597   5.838   3.537   1.215 -0.1418 -0.0526  2.5726
18036TIP3   OH275598   4.734   5.099   3.607  0.4069 -0.3035 -0.1845
18036TIP3    H175599   4.720   5.023   3.551 -1.8089 -0.9977  1.2008
18036TIP3    H275600   4.749   5.171   3.546  0.5081 -1.4754 -1.5826
18037TIP3   OH275601   5.682   2.440   0.385  0.2687  0.2842  0.1907
18037TIP3    H175602   5.678   2.524   0.338 -1.8072  0.7866  1.1608
18037TIP3    H275603   5.767   2.404   0.360 -0.4684  0.6936 -3.6564
18038TIP3   OH275604   4.239   2.325   5.878 -0.2399  0.0444  0.4779
18038TIP3    H175605   4.268   2.352   5.965  0.0764  1.6066 -0.0864
18038TIP3    H275606   4.144   2.327   5.882 -0.2325 -0.4175  0.9426
18039TIP3   OH275607   3.542   3.744  13.177 -0.2597  0.3014  0.0838
18039TIP3    H175608   3.476   3.676  13.192 -0.9335 -0.2046 -4.0617
18039TIP3    H275609   3.502   3.824  13.211 -1.3282 -0.6207  1.1125
18040TIP3   OH275610   6.731   5.424   0.019 -0.4784  0.3506 -0.0282
18040TIP3    H175611   6.818   5.454   0.044 -0.6091 -1.0736  2.5252
18040TIP3    H275612   6.678   5.503   0.018  0.6687  1.1321 -0.8260
18041TIP3   OH275613   0.480   4.100   2.068 -0.2607  0.3015 -0.3562
18041TIP3    H175614   0.435   4.088   1.985  0.3488  1.7710 -0.9456
18041TIP3    H275615   0.467   4.193   2.089 -0.6898 -0.1123  1.3763
18042TIP3   OH275616   5.333   1.150  11.384  0.3694  0.0490  0.9491
18042TIP3    H175617   5.275   1.220  11.356  0.9728 -0.7580 -2.7676
18042TIP3    H275618   5.276   1.087  11.428 -0.6837  1.3861  1.5636
18043TIP3   OH275619   1.981   6.085  14.486 -0.1155 -0.1050 -0.0902
18043TIP3    H175620   2.015   6.000  14.511 -1.0702 -0.5444 -0.2367
18043TIP3    H275621   2.021   6.104  14.401 -1.3078 -1.2823 -0.9625
18044TIP3   OH275622   1.575   2.313   2.589  0.3378 -0.6257  0.9047
18044TIP3    H175623   1.633   2.238   2.596 -0.8739 -1.5942  0.8645
18044TIP3    H275624   1.613   2.367   2.519  0.7282 -1.6422  0.3227
18045TIP3   OH275625   6.557   5.688  12.152  0.1575 -0.0439 -0.2256
18045TIP3    H175626   6.644   5.651  12.143 -0.0877 -1.8094  2.9778
18045TIP3    H275627   6.501   5.630  12.101  0.6266 -0.0210 -0.7696
18046TIP3   OH275628   3.250   2.868  13.981  0.2398 -0.2979  0.0819
18046TIP3    H175629   3.218   2.846  14.068 -1.4104  2.1717  0.2151
18046TIP3    H275630   3.212   2.801  13.924  0.0352 -1.0439  1.0595
18047TIP3   OH275631   2.771   5.675  15.329 -0.2729 -0.5515  0.5788
18047TIP3    H175632   2.781   5.770  15.325 -0.4298 -0.5304  0.6775
18047TIP3    H275633   2.843   5.641  15.277 -1.0555 -0.3393 -0.6932
18048TIP3   OH275634   0.797   3.366  15.517 -0.0973  0.5019 -0.5589
18048TIP3    H175635   0.708   3.389  15.545 -0.7681 -2.1209 -0.2220
18048TIP3    H275636   0.807   3.410  15.432 -1.2766  1.7380 -0.0982
18049TIP3   OH275637   2.154   2.798   1.115  0.0572 -0.0567 -0.1770
18049TIP3    H175638   2.241   2.831   1.095  0.1410  0.2284  0.6120
18049TIP3    H275639   2.147   2.806   1.210 -0.1885 -1.6621 -0.0379
18050TIP3   OH275640   5.621   6.461   2.246 -0.5190 -0.3067 -0.2044
18050TIP3    H175641   5.708   6.422   2.255 -0.7211 -0.5070  1.0935
18050TIP3    H275642   5.627   6.515   2.167  1.3074  1.0298  0.7578
18051TIP3   OH275643   0.794   0.659  15.981 -0.5100  0.8536 -0.1117
18051TIP3    H175644   0.748   0.743  15.983 -1.5130  0.3321 -0.1903
18051TIP3    H275645   0.728   0.597  15.947  0.2504  0.0685 -0.1904
18052TIP3   OH275646   4.271   5.599   5.622  0.1318 -0.0368 -0.0395
18052TIP3    H175647   4.246   5.623   5.533  1.6181  1.7197 -0.0401
18052TIP3    H275648   4.289   5.682   5.665 -2.1621 -0.7134  2.4715
18053TIP3   OH275649   3.150   6.453  12.525 -0.1231  0.1908  0.4849
18053TIP3    H175650   3.083   6.388  12.546 -1.0160  0.5996 -0.9576
18053TIP3    H275651   3.104   6.537  12.530  0.3767  0.5095 -0.1450
18054TIP3   OH275652   4.125   4.387   5.272  0.1831  0.2055  0.6451
18054TIP3    H175653   4.132   4.396   5.177  0.3673 -0.5495  0.5811
18054TIP3    H275654   4.051   4.443   5.296  0.5643  0.9285  0.1463
18055TIP3   OH275655   1.413   4.148   2.565  0.4456  0.0058 -0.0546
18055TIP3    H175656   1.366   4.065   2.559 -0.0139  0.2788 -0.2802
18055TIP3    H275657   1.500   4.129   2.530  0.3053 -0.3471 -0.2163
18056TIP3   OH275658   6.081   1.015   3.606 -0.1884 -0.2320  0.1438
18056TIP3    H175659   6.105   1.097   3.650 -0.0034 -1.8689  3.4014
18056TIP3    H275660   5.987   1.007   3.620 -0.3670 -0.1807 -0.9589
18057TIP3   OH275661   6.437   6.251  11.252  0.4973 -0.3201 -0.2548
18057TIP3    H175662   6.531   6.260  11.236  0.5325  1.4324  0.6039
18057TIP3    H275663   6.430   6.244  11.348 -0.2937  1.0614 -0.1790
18058TIP3   OH275664   6.609   4.263  15.581 -0.2741  0.4846 -0.8189
18058TIP3    H175665   6.664   4.212  15.521 -0.1879 -0.5083  0.0828
18058TIP3    H275666   6.534   4.290  15.528 -0.1364 -0.2622 -1.4125
18059TIP3   OH275667   3.272   6.479   2.503 -0.1697 -0.6188 -0.0268
18059TIP3    H175668   3.182   6.481   2.473 -0.3030 -1.0719  0.3283
18059TIP3    H275669   3.318   6.541   2.447 -0.8606  0.2067  0.3119
18060TIP3   OH275670   3.756   1.140  16.047  0.1297 -0.0633 -0.7283
18060TIP3    H175671   3.818   1.203  16.010 -0.2668  1.5380  1.1864
18060TIP3    H275672   3.790   1.121  16.134 -1.1209 -0.5380 -0.3262
18061TIP3   OH275673   4.917   4.433   3.479  0.2661  0.6474 -0.2185
18061TIP3    H175674   4.901   4.351   3.432  1.4636  0.8961 -1.0872
18061TIP3    H275675   4.849   4.492   3.448  1.4345  1.0224 -2.2179
18062TIP3   OH275676   2.455   1.647  16.911  0.3025  0.1361 -0.3894
18062TIP3    H175677   2.422   1.695  16.835 -0.6077  0.3421  0.1158
18062TIP3    H275678   2.389   1.661  16.979  0.6106 -0.8549  0.1376
18063TIP3   OH275679   1.604   0.819   2.582 -0.8875 -0.0082 -0.4587
18063TIP3    H175680   1.556   0.737   2.598 -1.9204  0.9873  2.1302
18063TIP3    H275681   1.535   0.884   2.566 -0.2628  0.8699  0.2885
18064TIP3   OH275682   6.306   5.537   4.505 -0.0503  0.7100  0.4762
18064TIP3    H175683   6.391   5.537   4.460  0.1793 -0.8469  0.8387
18064TIP3    H275684   6.324   5.576   4.591  0.2577  0.5668  0.4789
18065TIP3   OH275685   3.074   5.717   4.708 -0.0072  0.1412 -0.3268
18065TIP3    H175686   3.080   5.811   4.691  0.1432 -0.0767 -1.5830
18065TIP3    H275687   2.996   5.689   4.660 -0.3925 -0.2867  0.5231
18066TIP3   OH275688   4.564   3.371  14.066 -0.1772 -0.4121 -0.3521
18066TIP3    H175689   4.471   3.376  14.087 -0.3016  1.7111 -1.1499
18066TIP3    H275690   4.567   3.331  13.980 -0.4296  0.1305 -0.6212
18067TIP3   OH275691   1.869   4.952  11.220  0.6244  0.6288  0.1709
18067TIP3    H175692   1.790   5.006  11.215 -0.1385 -0.5451 -1.0655
18067TIP3    H275693   1.908   4.958  11.133  1.7337  0.8929  0.6606
18068TIP3   OH275694   6.330   3.880   4.385  0.0540 -0.1486  0.1737
18068TIP3    H175695   6.301   3.937   4.313 -1.2187 -0.9388  0.0309
18068TIP3    H275696   6.405   3.833   4.349  0.1808  0.3531 -0.2275
18069TIP3   OH275697   5.837   6.016   2.320  0.3666 -0.0395  1.1427
18069TIP3    H175698   5.919   6.047   2.358 -0.3680  1.0949  1.8918
18069TIP3    H275699   5.777   6.008   2.395 -0.1288 -1.1478  0.6545
18070TIP3   OH275700   2.902   4.386  15.515 -0.2437  0.1192 -0.2583
18070TIP3    H175701   2.903   4.405  15.421 -1.4914 -1.9048 -0.7412
18070TIP3    H275702   2.831   4.323  15.526 -0.1928  0.3917  2.0843
18071TIP3   OH275703   6.518   5.373  16.115 -0.1786 -0.3747 -0.0106
18071TIP3    H175704   6.551   5.286  16.093  0.0639 -0.1077 -0.7469
18071TIP3    H275705   6.594   5.431  16.106 -0.3863 -0.0566  0.2617
18072TIP3   OH275706   5.760   2.243  13.061 -0.2137 -0.7058  0.0979
18072TIP3    H175707   5.752   2.307  13.132 -0.4652 -0.8999  0.2469
18072TIP3    H275708   5.776   2.296  12.983 -0.1199 -0.4795  0.2694
18073TIP3   OH275709   3.020   1.043  14.805 -0.5981 -0.0437  1.0727
18073TIP3    H175710   3.079   0.982  14.761 -1.1100  0.7941 -0.8959
18073TIP3    H275711   3.065   1.066  14.887  1.8731  0.6576 -0.3840
18074TIP3   OH275712   0.875   1.672  15.875  0.0941 -0.1292 -0.2099
18074TIP3    H175713   0.829   1.589  15.881 -0.1651 -0.0552 -1.0224
18074TIP3    H275714   0.877   1.705  15.964 -0.8503 -0.4413 -0.0600
18075TIP3   OH275715   6.310   2.070   4.222  0.1962  0.3481 -0.3013
18075TIP3    H175716   6.405   2.069   4.206  0.1299 -1.8206 -0.8608
18075TIP3    H275717   6.275   2.006   4.160 -1.4441 -0.0628  0.9966
18076TIP3   OH275718   1.493   6.224  12.079 -0.0635 -0.1033  0.2161
18076TIP3    H175719   1.576   6.187  12.107 -1.1036 -2.4664  0.4638
18076TIP3    H275720   1.499   6.227  11.984  0.5451  0.3973  0.2644
18077TIP3   OH275721   0.178   2.622   0.768 -0.2670 -0.0853  0.2585
18077TIP3    H175722   0.160   2.686   0.699 -0.1270  1.9336  1.9685
18077TIP3    H275723   0.273   2.611   0.766 -0.1955  0.4425  0.4909
18078TIP3   OH275724   4.684   5.059   6.451  0.2245 -0.0972  0.2443
18078TIP3    H175725   4.603   5.011   6.434 -1.8834  1.9216  3.3603
18078TIP3    H275726   4.680   5.134   6.392 -0.0067 -0.1475  0.1943
18079TIP3   OH275727   0.206   0.044  13.226 -0.1107 -0.7305  0.1435
18079TIP3    H175728   0.121   0.036  13.269  0.9327 -0.7077  2.3571
18079TIP3    H275729   0.263   0.082  13.293  1.3937  0.2801 -1.6290
18080TIP3   OH275730   6.088   5.907   5.112  0.3713  0.0787  0.5628
18080TIP3    H175731   5.996   5.927   5.129  0.2966  0.7856 -0.5700
18080TIP3    H275732   6.130   5.993   5.105  0.7686 -0.1971 -0.7156
18081TIP3   OH275733   6.776   1.460   5.190 -0.5191 -0.3588 -0.0512
18081TIP3    H175734   6.800   1.446   5.282  1.7750 -0.3029 -0.5793
18081TIP3    H275735   6.684   1.486   5.193 -0.7163 -1.1156  2.1590
18082TIP3   OH275736   1.435   4.280  15.469  0.0545 -0.0473 -0.3057
18082TIP3    H175737   1.347   4.248  15.450 -0.5110  1.4818 -0.3692
18082TIP3    H275738   1.490   4.240  15.402 -0.1783 -2.6283  0.8856
18083TIP3   OH275739   0.437   1.983  15.744 -0.1731 -0.2863 -0.1901
18083TIP3    H175740   0.383   2.060  15.728 -1.5192 -1.2687 -0.5500
18083TIP3    H275741   0.527   2.017  15.747 -0.8053  1.4450  0.7612
18084TIP3   OH275742   5.899   4.158  16.069 -0.2386 -0.1866  0.0476
18084TIP3    H175743   5.908   4.216  16.145 -0.0188 -0.6599  0.3894
18084TIP3    H275744   5.891   4.070  16.107 -0.1264 -0.4271 -0.4785
18085TIP3   OH275745   2.998   4.297  16.284  0.1635 -0.5787 -0.3953
18085TIP3    H175746   2.963   4.218  16.324  2.0206 -1.3079 -0.1246
18085TIP3    H275747   2.993   4.281  16.190  1.0015 -1.2574 -0.3349
18086TIP3   OH275748   6.510   0.277   5.762 -0.1483  0.4859  0.0468
18086TIP3    H175749   6.489   0.224   5.839  0.9605  0.6952  0.5089
18086TIP3    H275750   6.571   0.224   5.711 -0.9594  0.3057 -0.7508
18087TIP3   OH275751   5.909   1.864  14.534  0.1089  0.8037 -0.2723
18087TIP3    H175752   6.001   1.891  14.532  0.8140 -1.1922  1.1820
18087TIP3    H275753   5.913   1.768  14.538 -1.9982  0.7076  0.8427
18088TIP3   OH275754   5.335   2.205   1.080  0.4977 -0.2050  0.4278
18088TIP3    H175755   5.277   2.252   1.021 -1.3105 -1.1644  1.3838
18088TIP3    H275756   5.420   2.247   1.067 -0.4519  1.4799 -0.7471
18089TIP3   OH275757   5.021   1.283   2.228 -0.3525 -0.1955  0.1181
18089TIP3    H175758   5.091   1.220   2.247 -0.3371 -0.6596 -1.3611
18089TIP3    H275759   5.066   1.366   2.215  0.1318 -0.7123 -2.0067
18090TIP3   OH275760   1.433   5.739   0.765  0.3407 -0.0918 -0.1136
18090TIP3    H175761   1.380   5.808   0.804 -0.7412 -1.3313  0.6871
18090TIP3    H275762   1.505   5.785   0.723 -1.3620  1.6821 -1.2750
18091TIP3   OH275763   1.368   4.475   6.233 -0.3333  0.3664 -0.4343
18091TIP3    H175764   1.461   4.471   6.213 -0.2690  0.6357 -0.1852
18091TIP3    H275765   1.363   4.472   6.328 -0.6289 -0.5959 -0.4665
18092TIP3   OH275766   3.132   2.382  15.411 -0.0580  0.3244  0.7058
18092TIP3    H175767   3.076   2.450  15.449 -0.2637  1.8162 -2.0123
18092TIP3    H275768   3.073   2.307  15.398 -0.4138  0.4440  1.5397
18093TIP3   OH275769   0.728   2.006   2.237  0.2293 -0.3397 -0.2183
18093TIP3    H175770   0.675   2.036   2.163 -1.5074 -1.3859  0.5506
18093TIP3    H275771   0.700   1.915   2.252  0.3230 -0.0741  1.8885
18094TIP3   OH275772   4.793   1.091   1.652 -0.0536 -0.2847  0.3199
18094TIP3    H175773   4.776   1.182   1.679  0.4009 -0.5714  1.6412
18094TIP3    H275774   4.866   1.098   1.591 -0.6694  0.3320 -0.3562
18095TIP3   OH275775   3.992   5.411   2.400 -0.4545  0.2176  0.0616
18095TIP3    H175776   4.003   5.438   2.309  1.6222 -0.2122  0.1293
18095TIP3    H275777   4.079   5.420   2.438 -0.6689 -2.1599  1.2875
18096TIP3   OH275778   0.373   0.218  11.771  0.1244  0.6826 -0.2898
18096TIP3    H175779   0.456   0.263  11.788  0.3547  0.2935 -0.3636
18096TIP3    H275780   0.340   0.258  11.691 -0.1887  1.4375  0.2118
18097TIP3   OH275781   4.045   0.134   1.774 -0.1059  0.0614 -0.0414
18097TIP3    H175782   4.031   0.078   1.698  0.0207 -1.1111  0.7621
18097TIP3    H275783   4.140   0.147   1.778  0.0333 -1.0307  0.6764
18098TIP3   OH275784   2.325   6.267   1.989  0.1466 -0.0240  0.3309
18098TIP3    H175785   2.235   6.238   1.974  0.1778  0.1842 -0.2899
18098TIP3    H275786   2.379   6.212   1.932  0.6369 -1.4336  2.0532
18099TIP3   OH275787   2.595   6.390   3.029  0.1165 -0.8274 -0.0596
18099TIP3    H175788   2.589   6.323   3.097 -0.2384  1.2407  2.0746
18099TIP3    H275789   2.689   6.407   3.020  0.1068 -0.2799  0.8031
18100TIP3   OH275790   2.984   1.186   1.798  0.1420  0.1887  0.3115
18100TIP3    H175791   2.971   1.279   1.780  1.5138  0.3448  0.0384
18100TIP3    H275792   3.079   1.176   1.808  0.0138 -1.1712  0.3868
18101TIP3   OH275793   4.513   1.573   3.053 -0.4945  0.0829  0.1061
18101TIP3    H175794   4.545   1.631   2.984  0.6993 -3.1439 -2.3272
18101TIP3    H275795   4.582   1.573   3.119 -0.2444  0.9111 -0.1433
18102TIP3   OH275796   2.629   6.690  14.408 -0.6359 -0.1390 -0.1792
18102TIP3    H175797   2.707   6.637  14.391 -1.2040 -0.8165 -0.7393
18102TIP3    H275798   2.633   6.759  14.342 -0.4567 -0.0990 -0.1293
18103TIP3   OH275799   3.677   5.368  10.306  0.1506 -0.2268  0.2279
18103TIP3    H175800   3.641   5.356  10.219 -0.8250 -0.3242  0.6274
18103TIP3    H275801   3.711   5.281  10.330  1.5300  0.0877 -0.5165
18104TIP3   OH275802   1.601   6.737   4.200 -0.2998  0.1482  0.4109
18104TIP3    H175803   1.615   6.725   4.106  0.9548 -0.1928  0.6229
18104TIP3    H275804   1.685   6.768   4.233 -0.6716  0.0777  1.4614
18105TIP3   OH275805   3.168   5.939   3.323  0.5332  0.3807  1.1430
18105TIP3    H175806   3.165   5.846   3.303  1.1645  0.5701  0.0833
18105TIP3    H275807   3.164   5.982   3.237 -0.3163  1.3446  1.6474
18106TIP3   OH275808   5.577   4.094   2.300  0.2116  0.6575  0.2340
18106TIP3    H175809   5.545   4.058   2.382 -0.8864  0.4448 -0.2697
18106TIP3    H275810   5.644   4.033   2.271 -0.8696 -0.4190 -0.0654
18107TIP3   OH275811   4.400   2.890  15.991 -0.1352 -0.6353  0.7680
18107TIP3    H175812   4.331   2.938  16.036  0.7905 -0.8994  2.5630
18107TIP3    H275813   4.469   2.955  15.977  0.7969 -1.2125  2.4869
18108TIP3   OH275814   2.751   6.346  16.392  0.3925  0.1093  0.8773
18108TIP3    H175815   2.800   6.274  16.351 -0.1990 -1.1238  2.2293
18108TIP3    H275816   2.786   6.352  16.481  0.7258  1.8246  0.6660
18109TIP3   OH275817   6.502   5.151  10.904  0.2400 -0.2606 -0.5779
18109TIP3    H175818   6.444   5.224  10.880 -1.0381 -1.4768 -1.3010
18109TIP3    H275819   6.489   5.086  10.835  1.1975 -1.2840  0.1666
18110TIP3   OH275820   6.349   3.429  17.247  0.2390  0.2034 -0.2374
18110TIP3    H175821   6.275   3.480  17.215 -2.2662 -1.7611  1.9672
18110TIP3    H275822   6.339   3.343  17.204  0.8389 -0.2882  0.5739
18111TIP3   OH275823   6.779   4.742   4.508  0.4973 -0.7105  0.0045
18111TIP3    H175824   6.868   4.767   4.483  0.4282 -0.8770 -0.4301
18111TIP3    H275825   6.749   4.813   4.565  1.0501 -0.8555  0.4846
18112TIP3   OH275826   6.814   5.636   1.203 -0.2188  0.2837 -0.7762
18112TIP3    H175827   6.852   5.642   1.291  1.6862  1.1524 -1.6123
18112TIP3    H275828   6.724   5.608   1.218  0.2552 -0.2653  1.4130
18113TIP3   OH275829   5.863   1.553   1.889  0.6017  1.1921  0.0055
18113TIP3    H175830   5.910   1.537   1.971  0.5132  3.3663  0.5385
18113TIP3    H275831   5.790   1.609   1.913  0.2068  1.3582 -1.4857
18114TIP3   OH275832   3.929   4.426   3.171 -0.1933 -0.1108  0.0299
18114TIP3    H175833   3.843   4.465   3.182 -0.0669  0.0286  0.5503
18114TIP3    H275834   3.955   4.450   3.082  0.5035  2.2897  0.8003
18115TIP3   OH275835   6.627   0.013  11.047 -0.0585  0.1597 -0.5361
18115TIP3    H175836   6.618   0.020  10.952  0.5812  0.5234 -0.5717
18115TIP3    H275837   6.705  -0.041  11.060 -0.5902 -0.5602 -0.2126
18116TIP3   OH275838   3.133   2.724  11.330 -0.7735 -0.0403  0.2456
18116TIP3    H175839   3.120   2.782  11.405 -3.0761  1.1235 -0.9235
18116TIP3    H275840   3.132   2.783  11.255  0.7002 -1.2583 -0.7674
18117TIP3   OH275841   5.447   0.606   1.947 -0.0241  0.6005 -0.3565
18117TIP3    H175842   5.399   0.678   1.988  0.5954  0.0711  1.3335
18117TIP3    H275843   5.381   0.564   1.890 -1.1234  0.8844  0.6671
18118TIP3   OH275844   2.280   4.881   1.424 -0.1742  0.2727 -0.0963
18118TIP3    H175845   2.300   4.964   1.468 -1.0641  0.1146  0.6313
18118TIP3    H275846   2.192   4.893   1.390 -0.8580 -0.8368  1.1917
18119TIP3   OH275847   0.236   2.737   0.323 -0.3997  0.2748  0.6279
18119TIP3    H175848   0.220   2.645   0.301  2.1730 -0.5607  1.8313
18119TIP3    H275849   0.196   2.786   0.252 -2.3251 -1.7331  0.2232
18120TIP3   OH275850   2.359   4.931   6.251 -0.4768 -0.7340 -0.0742
18120TIP3    H175851   2.369   5.013   6.202 -2.2302  0.1088  0.8761
18120TIP3    H275852   2.447   4.911   6.283 -0.2180  1.5499  0.8432
18121TIP3   OH275853   0.671   5.532  14.914 -0.2834 -0.3702  0.1364
18121TIP3    H175854   0.614   5.511  14.840 -1.8247 -1.9439  1.6567
18121TIP3    H275855   0.683   5.448  14.959  1.5192  0.3375  1.0636
18122TIP3   OH275856   2.100   3.750   2.987  0.4055 -0.3165 -0.4011
18122TIP3    H175857   2.042   3.812   3.030 -0.7946 -1.0354 -0.9295
18122TIP3    H275858   2.100   3.777   2.895  0.4431 -0.6730 -0.5072
18123TIP3   OH275859   4.224   2.320   1.231 -0.8941 -0.2604  0.2068
18123TIP3    H175860   4.207   2.382   1.302  0.5014 -0.4316  0.7363
18123TIP3    H275861   4.224   2.374   1.152  0.5505  0.5142  0.6845
18124TIP3   OH275862   0.932   1.434   4.822 -0.2204  0.2670 -0.3705
18124TIP3    H175863   0.969   1.488   4.891  1.8910  1.8066 -2.5435
18124TIP3    H275864   0.889   1.496   4.763 -0.6396 -0.8107 -1.2300
18125TIP3   OH275865   3.473   4.898  10.860 -0.0147 -0.0396 -0.3819
18125TIP3    H175866   3.540   4.964  10.840  0.1046 -0.0456 -0.0135
18125TIP3    H275867   3.511   4.816  10.829  0.7752 -0.2708  1.0930
18126TIP3   OH275868   1.534   5.518  12.135 -0.5143  0.1481  0.4827
18126TIP3    H175869   1.617   5.564  12.117 -1.3225  1.5204  0.0934
18126TIP3    H275870   1.529   5.514  12.230 -0.5911  1.2322  0.5354
18127TIP3   OH275871   4.276   6.076   2.738  0.0039 -0.4386  0.0152
18127TIP3    H175872   4.315   6.128   2.809 -1.0772  0.9278 -0.3550
18127TIP3    H275873   4.207   6.132   2.702  1.0332 -0.7620 -2.6584
18128TIP3   OH275874   0.041   0.699  12.978 -0.3764  0.0661 -0.5068
18128TIP3    H175875   0.106   0.766  12.960  0.1555 -0.3550 -0.2086
18128TIP3    H275876   0.048   0.638  12.905 -1.7216  0.9589 -1.4187
18129TIP3   OH275877   1.360   5.355   4.318 -0.0771  0.6764  0.1616
18129TIP3    H175878   1.391   5.351   4.409 -0.7124 -1.2428  0.3292
18129TIP3    H275879   1.272   5.319   4.321  0.6459 -1.4380 -1.4880
18130TIP3   OH275880   1.923   5.591  10.884  0.8541 -0.2157  0.0786
18130TIP3    H175881   1.832   5.563  10.880  0.8580 -0.4241  1.0551
18130TIP3    H275882   1.933   5.652  10.812 -0.1361  0.0196  0.1263
18131TIP3   OH275883   2.911   2.041   3.953  0.6619 -0.4413  0.5703
18131TIP3    H175884   2.861   1.959   3.954 -3.9881  1.9201 -2.2360
18131TIP3    H275885   2.887   2.084   4.035  0.3338 -0.4929  0.5035
18132TIP3   OH275886   3.142   6.631   3.758 -0.1088  0.5338  0.4085
18132TIP3    H175887   3.068   6.586   3.717  1.2722 -2.7729  1.1896
18132TIP3    H275888   3.207   6.639   3.688  0.3066 -0.4045  0.6647
18133TIP3   OH275889   2.772   3.369   1.176  0.3814  0.2629  0.6316
18133TIP3    H175890   2.786   3.456   1.214 -1.0361  1.1003 -0.6324
18133TIP3    H275891   2.827   3.369   1.097 -1.1595  0.8272 -0.4740
18134TIP3   OH275892   2.236   1.011   0.427  0.8524  0.5408 -0.0442
18134TIP3    H175893   2.279   1.023   0.343  2.3481  0.4022  0.6661
18134TIP3    H275894   2.240   1.098   0.468  0.3335  0.5540 -0.0168
18135TIP3   OH275895   4.938   0.833  17.191  0.7246  0.0836 -0.1465
18135TIP3    H175896   4.935   0.928  17.203  0.6741  0.1322 -0.5064
18135TIP3    H275897   4.862   0.800  17.239  1.1867  0.1450  0.6370
18136TIP3   OH275898   6.512   6.077   1.472 -0.3320 -0.2115  0.0126
18136TIP3    H175899   6.510   6.162   1.516  0.8332  0.8921 -1.9064
18136TIP3    H275900   6.592   6.035   1.504 -1.7200 -1.3394  2.1706
18137TIP3   OH275901   5.124   0.979   4.835 -0.1346 -0.0430 -0.0686
18137TIP3    H175902   5.136   0.918   4.762  0.5647 -0.1383  0.1220
18137TIP3    H275903   5.195   0.960   4.895 -0.2505  0.5655  0.2736
18138TIP3   OH275904   0.654   4.071  15.985  0.3540 -0.0706  0.1064
18138TIP3    H175905   0.740   4.039  15.958  0.4352 -0.9712  1.3565
18138TIP3    H275906   0.604   3.992  16.007 -1.0061  0.3942 -1.1335
18139TIP3   OH275907   3.341   4.625   6.478  0.2760 -0.4431  0.0084
18139TIP3    H175908   3.270   4.641   6.540 -0.1139 -0.1217 -0.5117
18139TIP3    H275909   3.401   4.698   6.491  0.0342 -0.2062 -0.2229
18140TIP3   OH275910   2.535   2.639  13.255 -0.2071  0.1322 -0.2343
18140TIP3    H175911   2.468   2.635  13.186 -2.0145 -1.5357  1.5102
18140TIP3    H275912   2.535   2.552  13.294  1.4207  0.7685  1.3166
18141TIP3   OH275913   6.030   5.327  14.711  0.0739  0.0445  0.0492
18141TIP3    H175914   6.013   5.413  14.673 -1.6808  0.8730  2.4663
18141TIP3    H275915   6.102   5.343  14.772 -0.0849 -0.2644  0.3181
18142TIP3   OH275916   2.375   4.993   4.860 -0.4234  0.5243 -0.0900
18142TIP3    H175917   2.413   5.002   4.772  0.0247  0.4467  0.0940
18142TIP3    H275918   2.394   4.903   4.885  1.2125  1.0983  0.8876
18143TIP3   OH275919   1.812   5.024  14.789  0.8241  0.0360  0.4446
18143TIP3    H175920   1.905   5.049  14.790  0.6452  0.8501 -0.7506
18143TIP3    H275921   1.766   5.103  14.816  0.4291 -0.1063  0.1869
18144TIP3   OH275922   2.014   4.577  10.895  0.1449 -0.2153 -0.2333
18144TIP3    H175923   1.965   4.656  10.871  0.5461  0.7538  1.8798
18144TIP3    H275924   1.948   4.519  10.932  0.2592  0.2725  0.7569
18145TIP3   OH275925   0.097   4.414  11.321  0.1526 -0.4692 -0.1462
18145TIP3    H175926   0.012   4.369  11.323 -0.6684  0.5822 -3.8863
18145TIP3    H275927   0.075   4.506  11.312  1.7721  0.0449  0.7767
18146TIP3   OH275928   0.485   3.139   3.866 -0.1690 -0.1259 -0.0976
18146TIP3    H175929   0.507   3.228   3.837  2.4005 -0.0944  1.5655
18146TIP3    H275930   0.425   3.151   3.939  0.2298  0.2622  0.1691
18147TIP3   OH275931   4.242   2.312  11.678 -0.0955 -0.8644  0.2921
18147TIP3    H175932   4.276   2.222  11.673 -0.3716 -1.0970  2.0260
18147TIP3    H275933   4.216   2.323  11.769 -0.4770  0.8480  0.0137
18148TIP3   OH275934   3.833   6.556   4.885  0.4928 -0.0577  0.1171
18148TIP3    H175935   3.827   6.508   4.968  0.8120 -2.0313 -0.9498
18148TIP3    H275936   3.924   6.584   4.881  0.5210 -0.1080  0.3470
18149TIP3   OH275937   6.424   3.432  13.917 -0.2132  0.2908 -0.2958
18149TIP3    H175938   6.353   3.400  13.861 -0.7280  0.4322  0.2552
18149TIP3    H275939   6.463   3.353  13.955  0.0265  0.2048 -0.7248
18150TIP3   OH275940   5.666   4.158   5.503  0.0401  0.2838 -0.1003
18150TIP3    H175941   5.708   4.158   5.589 -0.3595 -0.4062  0.1030
18150TIP3    H275942   5.657   4.250   5.481  0.0698  0.4731  0.6410
18151TIP3   OH275943   2.043   3.896   0.743  0.7013 -0.3210 -0.3782
18151TIP3    H175944   1.948   3.890   0.743  0.7939 -2.4920 -0.8294
18151TIP3    H275945   2.067   3.900   0.836  0.2130 -0.8953 -0.2239
18152TIP3   OH275946   6.109   6.674   4.451 -0.0172 -0.2621 -0.2673
18152TIP3    H175947   6.091   6.703   4.541  1.4398 -0.9191  0.2744
18152TIP3    H275948   6.025   6.681   4.406 -0.6125  0.8415  0.9285
18153TIP3   OH275949   6.792   2.794  16.071 -0.2507  0.0814 -0.3696
18153TIP3    H175950   6.865   2.854  16.054  1.3406 -1.6326 -0.0630
18153TIP3    H275951   6.769   2.809  16.163  0.7741 -0.3634 -0.0177
18154TIP3   OH275952   4.760   0.950   2.665  1.1875  0.2582 -0.2214
18154TIP3    H175953   4.797   1.029   2.627 -1.2555  0.2727 -2.9200
18154TIP3    H275954   4.668   0.950   2.637  0.3936 -2.1974  1.9361
18155TIP3   OH275955   3.229   3.533   2.171 -0.0433 -0.0578  0.5719
18155TIP3    H175956   3.285   3.608   2.154  0.5866 -0.4218  1.0005
18155TIP3    H275957   3.175   3.524   2.092 -0.4823  1.1383  0.7174
18156TIP3   OH275958   1.866   5.876   2.595 -0.0169  0.2285  0.1769
18156TIP3    H175959   1.828   5.955   2.633 -1.7386  1.3564 -3.3868
18156TIP3    H275960   1.817   5.804   2.635 -1.5384  1.2967  0.3241
18157TIP3   OH275961   1.593   3.261  11.937 -0.3180  0.2128  0.2723
18157TIP3    H175962   1.505   3.235  11.966 -0.4789 -0.2861 -0.6084
18157TIP3    H275963   1.590   3.251  11.842  0.4144  1.0789  0.1458
18158TIP3   OH275964   5.867   2.830   6.302  0.4655 -0.8022  0.6797
18158TIP3    H175965   5.934   2.844   6.369 -2.0816 -1.1138  3.4934
18158TIP3    H275966   5.800   2.777   6.345 -2.3775  0.8069 -1.4082
18159TIP3   OH275967   2.430   1.478  14.769 -0.3403  0.1198 -0.5519
18159TIP3    H175968   2.377   1.506  14.844  1.1648 -1.9494  1.4070
18159TIP3    H275969   2.435   1.383  14.777  4.0050  0.1802 -0.2601
18160TIP3   OH275970   4.838   2.015   0.224 -0.4143  0.3776  0.5740
18160TIP3    H175971   4.776   1.951   0.258 -0.6466  0.3817  0.1546
18160TIP3    H275972   4.788   2.096   0.218 -0.9599 -0.0715 -1.6898
18161TIP3   OH275973   2.021   3.030   1.919 -0.2341  0.4805 -0.5180
18161TIP3    H175974   2.080   3.071   1.982  2.2665 -0.8435 -1.8084
18161TIP3    H275975   2.038   2.936   1.928 -1.8678  0.0860 -1.2581
18162TIP3   OH275976   1.051   2.780   1.225 -0.1185  0.0934 -0.5180
18162TIP3    H175977   1.125   2.726   1.197 -1.0841 -1.0664 -0.9415
18162TIP3    H275978   1.090   2.864   1.249  1.2857 -0.3732 -1.0513
18163TIP3   OH275979   1.649   0.677  14.179  0.3487  0.1299  0.9810
18163TIP3    H175980   1.694   0.604  14.136 -0.8854  0.1303 -0.4019
18163TIP3    H275981   1.717   0.742  14.193  1.6436 -1.5128  2.8914
18164TIP3   OH275982   3.762   2.989  13.748  0.0287  0.0548  0.5925
18164TIP3    H175983   3.789   3.045  13.675  0.7276  1.0913  1.6127
18164TIP3    H275984   3.812   2.909  13.737 -1.4929 -0.7194 -1.2823
18165TIP3   OH275985   6.126   2.357  16.347 -0.3950 -0.0925  0.2801
18165TIP3    H175986   6.072   2.355  16.426  0.6067 -1.4134  0.9661
18165TIP3    H275987   6.063   2.363  16.275 -1.3067  1.6967  1.1652
18166TIP3   OH275988   6.137   1.180  15.789  0.1610 -0.6219  0.3430
18166TIP3    H175989   6.194   1.255  15.806 -1.1713  0.2968  0.9021
18166TIP3    H275990   6.055   1.201  15.834 -0.2895 -2.3686  0.4121
18167TIP3   OH275991   4.999   6.684   5.019  0.0576  0.2031 -0.0731
18167TIP3    H175992   5.082   6.686   4.971 -0.0086 -0.1744 -0.2070
18167TIP3    H275993   4.932   6.685   4.951 -0.0353 -2.0329 -0.0972
18168TIP3   OH275994   4.917   0.465  13.211 -0.0746 -0.4505 -0.0386
18168TIP3    H175995   4.884   0.404  13.145 -1.9407 -0.1316  0.5299
18168TIP3    H275996   4.843   0.479  13.270  0.0339  2.8838 -0.5126
18169TIP3   OH275997   2.344   2.099  16.746 -0.1989 -0.1744 -0.8477
18169TIP3    H175998   2.405   2.172  16.733 -1.5072  1.2204  0.3597
18169TIP3    H275999   2.260   2.133  16.715 -0.9563 -0.9523  0.3058
18170TIP3   OH276000   5.943   5.820   2.645 -0.0831  0.2790 -0.0556
18170TIP3    H176001   5.972   5.763   2.574  1.3546  0.7396  0.1227
18170TIP3    H276002   6.024   5.858   2.680 -0.7714  0.3111  1.6189
18171TIP3   OH276003   2.299   3.923   1.626 -0.2285 -0.6097 -0.8082
18171TIP3    H176004   2.386   3.960   1.613 -0.1801 -0.6153 -0.5150
18171TIP3    H276005   2.295   3.904   1.720 -1.9585  2.9988  0.0289
18172TIP3   OH276006   2.332   2.413  16.663 -0.4048  0.0792  0.0372
18172TIP3    H176007   2.268   2.368  16.609  1.1379  0.0710 -1.8652
18172TIP3    H276008   2.283   2.436  16.743 -2.4010 -1.0175 -0.7902
18173TIP3   OH276009   2.276   6.014   2.968  0.3542 -0.0243 -0.2895
18173TIP3    H176010   2.358   6.007   2.919  0.6584  0.6776  0.0976
18173TIP3    H276011   2.273   6.106   2.995  0.5960 -0.5673  1.7007
18174TIP3   OH276012   3.914   4.665   3.556 -0.0279 -0.5163  0.1599
18174TIP3    H176013   3.898   4.610   3.633 -2.3368 -2.2429 -1.4082
18174TIP3    H276014   3.985   4.621   3.509 -0.2063 -0.7743  0.1319
18175TIP3   OH276015   3.492   3.526   0.772  0.1299  0.0492  0.3501
18175TIP3    H176016   3.435   3.453   0.751 -1.3692  1.3596 -0.3133
18175TIP3    H276017   3.454   3.565   0.851 -1.0292  1.9671 -1.0470
18176TIP3   OH276018   1.937   6.476   2.709  0.1921  0.3258  0.2516
18176TIP3    H176019   1.842   6.468   2.702  0.3380 -1.3636 -0.2399
18176TIP3    H276020   1.958   6.445   2.796  0.3419  0.1438  0.1516
18177TIP3   OH276021   4.032   0.748   0.587  0.1241 -0.7099 -0.0669
18177TIP3    H176022   4.118   0.727   0.551 -0.0753 -1.0976 -0.3240
18177TIP3    H276023   3.974   0.753   0.511  0.6251  3.5508 -0.4355
18178TIP3   OH276024   3.261   1.119  13.935  0.4132 -0.5420  0.4751
18178TIP3    H176025   3.173   1.152  13.953  1.6295  1.0612  4.9974
18178TIP3    H276026   3.266   1.038  13.987  1.5863 -0.5896  0.3119
18179TIP3   OH276027   0.398   2.943  11.393 -0.1338  0.0865  0.0167
18179TIP3    H176028   0.324   3.004  11.401  0.1552  0.3710  0.5109
18179TIP3    H276029   0.366   2.862  11.433  0.1664  0.5149  1.1628
18180TIP3   OH276030   5.295   3.821  11.593  0.3358  0.2241 -0.2486
18180TIP3    H176031   5.252   3.866  11.666 -0.0770  0.5050 -0.6553
18180TIP3    H276032   5.250   3.854  11.515  0.1226 -0.7852 -0.5703
18181TIP3   OH276033   4.259   6.198  14.781  0.5624 -0.3407  0.2004
18181TIP3    H176034   4.200   6.147  14.725  0.6506 -1.6643  1.2490
18181TIP3    H276035   4.325   6.233  14.720  0.5017 -1.5096 -0.5747
18182TIP3   OH276036   3.342   1.028   2.037 -0.1160  0.1909  0.2288
18182TIP3    H176037   3.321   0.989   1.952 -0.3831  0.8740 -0.0223
18182TIP3    H276038   3.418   0.978   2.067  0.0206 -0.0224 -0.4349
18183TIP3   OH276039   3.449   1.171   4.619 -0.7340 -0.0260 -0.1453
18183TIP3    H176040   3.503   1.175   4.540  1.2102 -1.6812  1.0219
18183TIP3    H276041   3.373   1.226   4.599 -0.8359 -1.1817 -3.5365
18184TIP3   OH276042   0.890   2.042  16.431  0.0043 -0.0865 -0.1829
18184TIP3    H176043   0.947   2.115  16.408  0.7527 -0.7696 -0.5459
18184TIP3    H276044   0.930   1.966  16.389 -0.4760 -0.7909  0.5939
18185TIP3   OH276045   4.410   2.900  15.149  0.4368 -0.2285  0.0218
18185TIP3    H176046   4.318   2.893  15.176  0.7599  0.3167  1.3887
18185TIP3    H276047   4.431   2.814  15.113 -0.7173 -0.2261 -0.7225
18186TIP3   OH276048   5.715   2.500  11.899 -0.3722 -0.2922 -0.1906
18186TIP3    H176049   5.785   2.483  11.837 -0.8016  0.1075 -0.7883
18186TIP3    H276050   5.726   2.591  11.925 -0.6711 -0.2303 -0.2806
18187TIP3   OH276051   1.054   1.201  15.497 -0.7400 -0.5026 -0.2234
18187TIP3    H176052   1.006   1.209  15.415  0.0326  0.0362 -0.6312
18187TIP3    H276053   1.020   1.121  15.537 -0.7696 -1.0392 -1.2953
18188TIP3   OH276054   0.266   2.878   1.588 -1.0203 -0.0767  0.2996
18188TIP3    H176055   0.303   2.809   1.534 -0.2077 -0.6106  1.4987
18188TIP3    H276056   0.202   2.833   1.644  0.2477 -0.0777  1.8068
18189TIP3   OH276057   1.120   0.229   4.102 -0.3293  0.5741 -0.3863
18189TIP3    H176058   1.065   0.255   4.176  0.2025 -0.7945  0.5300
18189TIP3    H276059   1.210   0.240   4.133 -0.0962 -0.3733 -0.6782
18190TIP3   OH276060   6.680   5.993   6.525 -0.1784  0.4508 -0.2585
18190TIP3    H176061   6.692   6.086   6.507  2.2641  0.2017 -0.2048
18190TIP3    H276062   6.612   5.965   6.463  0.6255  1.8119 -1.8227
18191TIP3   OH276063   3.561   5.695   2.208  0.6340  0.4826  0.2414
18191TIP3    H176064   3.573   5.618   2.262 -0.4178  1.4598  1.9713
18191TIP3    H276065   3.489   5.673   2.149  2.1812 -0.8049 -1.2636
18192TIP3   OH276066   6.722   0.467   3.337 -0.3012  0.1676  0.8494
18192TIP3    H176067   6.702   0.411   3.262 -2.1094  0.8596  0.7483
18192TIP3    H276068   6.718   0.556   3.303  4.0549  0.4830  0.6571
18193TIP3   OH276069   5.634   0.452   4.797 -0.0627  0.2337  0.5629
18193TIP3    H176070   5.604   0.381   4.854  1.9155 -2.1556 -1.1790
18193TIP3    H276071   5.582   0.444   4.717  0.0577  0.8890  0.4075
18194TIP3   OH276072   5.380   5.080  15.288 -0.8151  0.0811 -0.2075
18194TIP3    H176073   5.381   4.985  15.283 -1.3194 -0.0450  1.6509
18194TIP3    H276074   5.390   5.109  15.197 -0.8350 -1.7305 -0.8117
18195TIP3   OH276075   6.817   4.475  13.891  0.0713  0.1883  0.5425
18195TIP3    H176076   6.828   4.380  13.896  1.0065  0.1954 -0.8043
18195TIP3    H276077   6.723   4.489  13.890 -0.1046 -0.8750 -1.1150
18196TIP3   OH276078   2.188   5.171  13.655  0.5107  0.2837  1.0403
18196TIP3    H176079   2.179   5.224  13.734  1.0404  2.0947 -0.0606
18196TIP3    H276080   2.277   5.188  13.625 -0.4260  1.5895 -1.2375
18197TIP3   OH276081   4.611   2.024  15.969 -0.0711 -0.0101  0.0749
18197TIP3    H176082   4.681   2.087  15.950  0.0924 -0.2140 -0.0031
18197TIP3    H276083   4.654   1.939  15.965 -0.1559 -0.0904  0.8315
18198TIP3   OH276084   1.456   4.203   5.098 -0.3657  0.2056 -0.2269
18198TIP3    H176085   1.441   4.290   5.134 -0.6334  0.1294 -0.1501
18198TIP3    H276086   1.546   4.205   5.066 -0.0132  0.1882  0.7258
18199TIP3   OH276087   2.493   3.081   0.092 -0.3772 -0.2571 -0.1068
18199TIP3    H176088   2.453   3.113   0.012 -0.9655 -1.6907 -0.4228
18199TIP3    H276089   2.420   3.057   0.148  0.0135 -1.0504  0.0875
18200TIP3   OH276090   6.770   5.865   0.687 -0.2717 -0.0188  0.0419
18200TIP3    H176091   6.796   5.810   0.613 -0.1717 -0.7769  0.6300
18200TIP3    H276092   6.844   5.924   0.701 -1.2915  1.9357 -2.0945
18201TIP3   OH276093   3.976   2.574   0.531 -0.7937  0.2109  0.4043
18201TIP3    H176094   3.911   2.628   0.576  1.5998  3.3991  0.3773
18201TIP3    H276095   4.015   2.522   0.600 -1.8317 -0.0954  0.7845
18202TIP3   OH276096   0.894   3.687  16.027 -0.1781  0.0172 -0.2359
18202TIP3    H176097   0.967   3.670  15.968  0.6478  1.3719  0.3450
18202TIP3    H276098   0.921   3.648  16.110 -0.0696  0.5706 -0.0059
18203TIP3   OH276099   6.198   3.824   4.815  0.0152  0.1169  0.4088
18203TIP3    H176100   6.281   3.856   4.851 -0.1919  1.3420 -0.1270
18203TIP3    H276101   6.144   3.807   4.892 -0.2369  2.1958  0.7741
18204TIP3   OH276102   2.975   2.614  16.189 -0.0035 -0.9626  0.2881
18204TIP3    H176103   2.900   2.673  16.186  0.4325 -0.3419  1.1511
18204TIP3    H276104   3.041   2.657  16.134  1.0888  0.5311  2.5827
18205TIP3   OH276105   1.757   1.859  15.973  0.1400  0.3482 -0.5917
18205TIP3    H176106   1.704   1.932  15.943  0.4536  1.3386  1.1550
18205TIP3    H276107   1.696   1.802  16.020  0.3696  0.8819  0.3813
18206TIP3   OH276108   6.164   4.940  15.547 -0.2568  0.4617  0.2685
18206TIP3    H176109   6.140   4.912  15.636 -0.4069  2.1036  0.7741
18206TIP3    H276110   6.126   4.874  15.490 -1.3029  0.0921  1.3561
18207TIP3   OH276111   5.224   4.810  17.091  0.0794 -0.2365 -0.4960
18207TIP3    H176112   5.264   4.897  17.088 -0.2417 -0.0968 -0.9477
18207TIP3    H276113   5.131   4.825  17.072  0.0246 -0.6773 -0.6048
18208TIP3   OH276114   1.694   4.963   0.343 -0.0611 -0.2437  0.4377
18208TIP3    H176115   1.674   4.919   0.426  0.5732 -0.0660  0.6900
18208TIP3    H276116   1.610   5.001   0.316 -0.5545 -1.3429  0.3623
18209TIP3   OH276117   2.078   6.668  12.360 -0.1951  0.2097 -0.5629
18209TIP3    H176118   2.097   6.617  12.439 -0.3962  0.8995 -0.0552
18209TIP3    H276119   2.163   6.702  12.333 -0.2640  0.8352 -0.0250
18210TIP3   OH276120   5.939   4.853   4.585 -0.2821  0.2626  0.4638
18210TIP3    H176121   5.861   4.876   4.534 -0.8017 -2.5879 -0.2202
18210TIP3    H276122   5.912   4.863   4.676 -1.1887  0.1600  0.2187
18211TIP3   OH276123   0.942   1.173  14.728 -0.0185  0.5539 -0.0844
18211TIP3    H176124   0.905   1.091  14.760  0.2485  0.4131 -0.1398
18211TIP3    H276125   0.876   1.207  14.667  0.0178  0.2187 -0.3104
18212TIP3   OH276126   6.672   1.328   3.345 -0.3195  0.2994  0.2210
18212TIP3    H176127   6.734   1.376   3.290  0.6350 -1.3238 -0.1981
18212TIP3    H276128   6.668   1.378   3.427 -1.1190  2.2920 -0.9764
18213TIP3   OH276129   0.160   2.848  14.712  0.7175 -0.4744 -0.4439
18213TIP3    H176130   0.201   2.933  14.694  0.6472  0.0669  1.6753
18213TIP3    H276131   0.233   2.787  14.720  0.9315 -0.1499  0.1889
18214TIP3   OH276132   4.858   5.070   5.246  0.2348  0.3051 -0.2328
18214TIP3    H176133   4.876   5.153   5.291  0.3821 -0.1477  0.5587
18214TIP3    H276134   4.802   5.095   5.173  0.9045  1.2125 -0.4575
18215TIP3   OH276135   2.321   2.608   4.720 -0.5210 -0.3438 -0.8241
18215TIP3    H176136   2.397   2.565   4.681 -1.2766 -1.0989 -1.5159
18215TIP3    H276137   2.354   2.648   4.800  0.4854 -1.1460 -0.8217
18216TIP3   OH276138   3.372   3.845  10.569  0.3478  0.7188  0.1977
18216TIP3    H176139   3.311   3.771  10.571 -0.4113  1.3038 -0.6500
18216TIP3    H276140   3.326   3.915  10.615  0.5862  1.0047  0.0040
18217TIP3   OH276141   3.350   2.676   4.451  0.0765 -1.5218  0.2741
18217TIP3    H176142   3.259   2.649   4.437 -0.3700  0.1898 -0.3927
18217TIP3    H276143   3.366   2.742   4.383  0.2163  1.7454  3.1483
18218TIP3   OH276144   5.359   0.464  15.971  0.2989  0.0250 -0.5978
18218TIP3    H176145   5.284   0.491  15.918 -0.6662 -0.4280  0.4892
18218TIP3    H276146   5.356   0.369  15.971  0.0683  0.0127  0.5382
18219TIP3   OH276147   2.831   0.793   2.058 -0.1342  0.0086  0.3125
18219TIP3    H176148   2.805   0.701   2.064  0.5646 -0.2619 -0.7129
18219TIP3    H276149   2.924   0.793   2.080 -0.5180  0.7449  2.1841
18220TIP3   OH276150   6.284   0.774  14.395  0.5589 -0.3357  1.1219
18220TIP3    H176151   6.227   0.818  14.458  0.3538 -0.9444  1.3796
18220TIP3    H276152   6.349   0.729  14.449  0.5709 -0.6030  0.8882
18221TIP3   OH276153   5.248   0.083  12.900 -0.1811  0.2450 -0.1423
18221TIP3    H176154   5.231   0.150  12.966 -0.2191  0.0167  0.0819
18221TIP3    H276155   5.168   0.079  12.849  0.2816  1.3045 -1.0003
18222TIP3   OH276156   0.909   3.206   3.268  0.3822  0.0158 -0.2068
18222TIP3    H176157   0.823   3.167   3.251  0.0033  0.4741  0.5581
18222TIP3    H276158   0.908   3.288   3.219  0.3096  0.1098 -0.0478
18223TIP3   OH276159   0.387   4.006   3.727 -0.0508  0.8690  0.0934
18223TIP3    H176160   0.317   4.008   3.662 -1.5778  0.6045  1.6574
18223TIP3    H276161   0.461   3.965   3.682 -1.2360  0.1825 -1.2965
18224TIP3   OH276162   1.571   2.427   2.302  0.3081 -0.1541 -0.1253
18224TIP3    H176163   1.487   2.382   2.297  1.8186 -3.1721 -0.5989
18224TIP3    H276164   1.586   2.461   2.213 -0.2696  0.2089 -0.0902
18225TIP3   OH276165   0.179   2.192   2.673 -0.7352 -0.3130 -0.4460
18225TIP3    H176166   0.180   2.252   2.747 -1.2760 -1.2550  0.3515
18225TIP3    H276167   0.223   2.113   2.706  0.6808 -0.0917 -1.7152
18226TIP3   OH276168   6.393   6.205  11.565  0.2152 -0.5979 -0.2130
18226TIP3    H176169   6.376   6.123  11.521  1.4988 -1.2972  0.5104
18226TIP3    H276170   6.407   6.180  11.657 -1.8684  0.7357  0.5353
18227TIP3   OH276171   1.667   6.291  17.119  0.5467 -0.5298  0.6434
18227TIP3    H176172   1.735   6.352  17.146  0.5792 -0.6161  0.7615
18227TIP3    H276173   1.670   6.221  17.184  0.4276 -0.5950  0.5801
18228TIP3   OH276174   4.794   1.773   4.233 -0.4760 -0.0166 -0.4245
18228TIP3    H176175   4.767   1.828   4.306  0.9587  0.7333 -0.4205
18228TIP3    H276176   4.753   1.813   4.156 -0.8131  0.0418 -0.2163
18229TIP3   OH276177   4.876   0.672   5.827  0.3579 -0.7477 -0.0876
18229TIP3    H176178   4.940   0.682   5.897 -1.3616 -1.4335  1.7049
18229TIP3    H276179   4.915   0.609   5.767  2.1805  0.3783 -0.1646
18230TIP3   OH276180   2.934   5.456  13.491  0.2669 -0.1191  0.3351
18230TIP3    H176181   2.932   5.434  13.398  0.3710  1.6403 -0.1121
18230TIP3    H276182   2.977   5.541  13.495  0.1152 -0.0881  1.9910
18231TIP3   OH276183   6.169   2.007  16.264  0.2626  0.9267  0.0273
18231TIP3    H176184   6.093   2.041  16.217 -2.1868 -1.7132  1.7393
18231TIP3    H276185   6.193   1.928  16.216 -0.2579 -0.0588  1.3266
18232TIP3   OH276186   0.812   5.000   6.936  0.0556 -0.5266  0.5438
18232TIP3    H176187   0.734   5.046   6.966  1.4602  2.1976  0.3752
18232TIP3    H276188   0.882   5.031   6.993  1.2580 -1.8892 -0.1123
18233TIP3   OH276189   3.609   5.339   5.586  0.1346 -0.6488  0.0955
18233TIP3    H176190   3.519   5.365   5.566  0.0028 -0.2178  1.1482
18233TIP3    H276191   3.602   5.292   5.669  1.1151  1.3249  1.3673
18234TIP3   OH276192   5.506   0.786   1.719 -0.3902 -0.6706  0.1791
18234TIP3    H176193   5.587   0.739   1.704  0.0130  0.3265 -0.9885
18234TIP3    H276194   5.448   0.723   1.761  0.7849 -1.5723  0.4836
18235TIP3   OH276195   3.661   2.038  15.012 -0.7252 -0.3007  0.2030
18235TIP3    H176196   3.724   1.968  15.029  1.0480  1.0172 -0.6299
18235TIP3    H276197   3.643   2.075  15.099  1.9097  1.1008  0.2534
18236TIP3   OH276198   4.544   2.273  14.704 -0.4348 -0.1955 -0.3739
18236TIP3    H176199   4.463   2.309  14.667 -1.0415  0.0425  1.1335
18236TIP3    H276200   4.598   2.350  14.721 -0.6298 -0.2005  0.2965
18237TIP3   OH276201   2.066   6.471  14.412 -0.1163  0.5644  0.1835
18237TIP3    H176202   2.071   6.408  14.483 -1.3912 -1.5270 -1.4506
18237TIP3    H276203   1.995   6.531  14.438  0.6248  0.9266  1.4335
18238TIP3   OH276204   5.194   5.588   6.420  0.0540 -0.2301 -0.1045
18238TIP3    H176205   5.197   5.499   6.455 -1.1404  0.7061  2.6964
18238TIP3    H276206   5.113   5.592   6.370 -0.8097 -0.3048  1.2291
18239TIP3   OH276207   5.429   3.759  14.376  0.1262  0.1985 -0.1475
18239TIP3    H176208   5.387   3.845  14.376  0.9497  0.6079 -0.7584
18239TIP3    H276209   5.519   3.775  14.404  0.1481 -0.5520  0.2748
18240TIP3   OH276210   5.157   5.755   3.191 -0.0898  0.0778  0.4153
18240TIP3    H176211   5.167   5.662   3.169  2.8788  0.0414  1.4432
18240TIP3    H276212   5.153   5.799   3.107 -1.3782 -0.9177 -0.0911
18241TIP3   OH276213   5.941   0.384   3.123  0.6607  0.0340  0.1871
18241TIP3    H176214   6.026   0.411   3.156  0.8395  0.2836 -0.4529
18241TIP3    H276215   5.962   0.320   3.054  0.3370  0.1123  0.0132
18242TIP3   OH276216   0.915   0.644  15.325 -0.2959 -0.0939  0.1034
18242TIP3    H176217   0.895   0.592  15.403 -0.3574  1.7078  1.3728
18242TIP3    H276218   0.989   0.599  15.284  0.6713 -0.3647  2.0087
18243TIP3   OH276219   4.157   5.753  12.884  0.1947 -1.1125 -0.5227
18243TIP3    H176220   4.246   5.785  12.874  0.2387 -1.6296 -2.1106
18243TIP3    H276221   4.107   5.828  12.917  1.0379 -0.5631 -0.4757
18244TIP3   OH276222   1.682   4.920   4.986 -0.8397  0.2041  0.0338
18244TIP3    H176223   1.685   5.012   5.013  1.2674 -0.0002  0.7015
18244TIP3    H276224   1.731   4.874   5.054 -1.5861 -1.3996 -0.4577
18245TIP3   OH276225   4.340   4.830  15.663  0.9298 -0.6879 -0.1203
18245TIP3    H176226   4.366   4.891  15.731  0.0421 -0.7913  0.3331
18245TIP3    H276227   4.331   4.746  15.708 -0.7920 -0.5238 -0.0973
18246TIP3   OH276228   0.981   2.529   3.600 -0.4786 -0.7967  0.0883
18246TIP3    H176229   0.955   2.608   3.553 -0.1705  0.5739  2.1281
18246TIP3    H276230   1.010   2.469   3.531 -0.6145  0.8897 -1.5069
18247TIP3   OH276231   3.261   1.057   1.285  0.1927  0.4400 -0.6609
18247TIP3    H176232   3.202   1.048   1.360  0.7756 -1.5002 -0.3700
18247TIP3    H276233   3.341   1.092   1.322 -0.0636  1.0806 -0.6934
18248TIP3   OH276234   2.984   2.559   1.322  0.0300 -0.5500  0.2121
18248TIP3    H176235   2.920   2.562   1.394  1.4229  1.9529  1.4924
18248TIP3    H276236   3.069   2.554   1.366  0.8505 -1.0807 -1.3737
18249TIP3   OH276237   3.771   5.452  13.993  0.1122 -0.0316  0.0881
18249TIP3    H176238   3.843   5.455  13.931  0.9747  0.4335  1.0880
18249TIP3    H276239   3.707   5.515  13.959 -0.4158 -1.3503 -1.4713
18250TIP3   OH276240   5.593   1.885  11.682 -0.3346 -0.1395  0.1849
18250TIP3    H176241   5.526   1.820  11.704 -1.9498  0.8400 -1.5012
18250TIP3    H276242   5.655   1.837  11.627 -0.4602 -0.6997  0.5217
18251TIP3   OH276243   1.558   3.323  15.762 -0.0949  0.0912 -0.9708
18251TIP3    H176244   1.571   3.351  15.671 -2.0372 -0.2729 -1.3934
18251TIP3    H276245   1.570   3.228  15.759  0.9165  0.1919 -0.6072
18252TIP3   OH276246   3.231   4.473   4.374  0.3885 -0.2924  0.1137
18252TIP3    H176247   3.169   4.464   4.446  0.2222 -1.4674 -0.1494
18252TIP3    H276248   3.304   4.522   4.412  0.8157 -1.8521  1.4568
18253TIP3   OH276249   3.908   0.527  13.460  0.5377 -0.0321  0.5753
18253TIP3    H176250   3.939   0.569  13.380 -0.1237 -0.4933  0.0643
18253TIP3    H276251   3.897   0.599  13.523  1.0624  0.3302  0.2592
18254TIP3   OH276252   4.376   6.751   5.836 -0.0266 -0.3246 -0.2380
18254TIP3    H176253   4.413   6.673   5.795  1.6656  0.1824  0.2455
18254TIP3    H276254   4.444   6.817   5.828 -1.3329  1.0571 -0.4112
18255TIP3   OH276255   1.641   1.362   4.405 -0.4608 -0.1328  0.0699
18255TIP3    H176256   1.626   1.429   4.472  1.8848  0.4710  0.0958
18255TIP3    H276257   1.727   1.384   4.369 -0.5319 -1.9715 -1.3472
18256TIP3   OH276258   5.248   0.010  16.214 -0.4851 -0.4448 -0.0534
18256TIP3    H176259   5.217  -0.057  16.153 -0.1337  0.1715 -0.9394
18256TIP3    H276260   5.185   0.009  16.285 -2.2991  0.4310 -1.5515
18257TIP3   OH276261   1.804   5.000   4.312 -0.4063 -0.6787  0.0437
18257TIP3    H176262   1.785   4.911   4.343  1.2835 -1.3012 -0.6045
18257TIP3    H276263   1.860   5.037   4.381 -2.2383  0.4532  1.0179
18258TIP3   OH276264   5.610   3.576   1.376 -0.0150  0.3056 -0.5543
18258TIP3    H176265   5.676   3.594   1.310  0.3655  0.1254 -0.2243
18258TIP3    H276266   5.616   3.650   1.437  0.4584 -0.1331 -0.0657
18259TIP3   OH276267   4.318   6.226   5.624  0.7571  0.3943 -0.0203
18259TIP3    H176268   4.307   6.223   5.529  2.1607 -2.3744 -0.2003
18259TIP3    H276269   4.409   6.254   5.636  0.2147  1.9916  0.6053
18260TIP3   OH276270   2.555   6.817  13.309  0.4425  0.2766  0.4033
18260TIP3    H176271   2.586   6.820  13.219 -0.1815 -0.8375  0.1410
18260TIP3    H276272   2.471   6.863  13.307 -0.9798 -2.1476 -0.2169
18261TIP3   OH276273   6.045   6.592  11.533 -0.1065 -0.1730 -0.0942
18261TIP3    H176274   6.087   6.519  11.579 -0.3676 -1.5794 -1.9744
18261TIP3    H276275   5.965   6.554  11.497  0.4229  0.6546 -2.2689
18262TIP3   OH276276   5.734   5.899   4.761 -0.0986 -0.3499 -0.3927
18262TIP3    H176277   5.720   5.859   4.675  0.0480  1.0931 -1.1243
18262TIP3    H276278   5.709   5.991   4.749  1.5064  0.2676  0.6440
18263TIP3   OH276279   5.354   5.147  12.268 -0.0999  0.4516 -0.6686
18263TIP3    H176280   5.339   5.054  12.285 -0.0034  0.5350 -0.1234
18263TIP3    H276281   5.357   5.154  12.173  0.1329 -0.1395 -0.7028
18264TIP3   OH276282   5.842   1.060  12.406 -0.7220  0.1828  0.6678
18264TIP3    H176283   5.845   0.978  12.357 -1.6804  0.3347  0.3386
18264TIP3    H276284   5.890   1.042  12.487  0.8745 -0.0811 -0.2921
18265TIP3   OH276285   5.152   2.278   1.579 -0.8033  0.3418 -0.2315
18265TIP3    H176286   5.175   2.314   1.493 -0.7317 -0.7065 -0.6700
18265TIP3    H276287   5.198   2.333   1.642 -0.1858  0.6173 -0.9092
18266TIP3   OH276288   0.402   4.199  12.354  0.1254 -0.5939  0.4117
18266TIP3    H176289   0.419   4.292  12.341  0.1156 -0.6967 -0.3446
18266TIP3    H276290   0.455   4.155  12.288 -2.4590 -0.9477 -1.5957
18267TIP3   OH276291   0.196   5.628  14.331  0.2936 -0.4407 -0.6539
18267TIP3    H176292   0.251   5.550  14.333 -0.8280 -1.2474 -0.6255
18267TIP3    H276293   0.237   5.684  14.265  1.5675 -0.6938 -0.1053
18268TIP3   OH276294   6.489   2.739  13.462  0.5954  0.3004 -0.0354
18268TIP3    H176295   6.440   2.792  13.524  0.2737  0.4293 -0.3905
18268TIP3    H276296   6.537   2.802  13.409  2.5000  0.1165  1.3796
18269TIP3   OH276297   2.878   4.402  11.442  0.0605  0.0484 -0.6568
18269TIP3    H176298   2.841   4.397  11.354  1.6240 -1.7329 -1.2927
18269TIP3    H276299   2.972   4.418  11.428  0.0687  1.4581  0.7721
18270TIP3   OH276300   2.440   6.434  14.968  0.0606  0.2403  0.1760
18270TIP3    H176301   2.477   6.503  15.023 -1.1130  0.2688  0.9600
18270TIP3    H276302   2.416   6.479  14.887  0.7639  0.4202  0.0537
18271TIP3   OH276303   3.827   3.915  12.422  0.3405 -0.4127 -0.7462
18271TIP3    H176304   3.904   3.957  12.384 -0.4490  1.8940 -0.0359
18271TIP3    H276305   3.861   3.855  12.488  1.5472  0.2435 -0.7499
18272TIP3   OH276306   5.832   2.001  11.767 -0.0318  0.5241  0.0836
18272TIP3    H176307   5.748   1.993  11.722 -0.5333  0.4181  1.0321
18272TIP3    H276308   5.897   2.004  11.696 -0.5199 -2.7055 -0.6205
18273TIP3   OH276309   5.643   5.097   5.569 -0.4261 -0.2031 -0.5464
18273TIP3    H176310   5.623   5.048   5.490  1.2265  0.0607 -1.1494
18273TIP3    H276311   5.657   5.030   5.636 -1.6568 -0.4263 -0.4742
18274TIP3   OH276312   6.166   2.729   3.424  0.2969  0.6150 -0.3375
18274TIP3    H176313   6.208   2.779   3.494 -0.1900  1.1001 -0.3831
18274TIP3    H276314   6.088   2.691   3.466  0.8618 -0.4279 -0.2044
18275TIP3   OH276315   3.531   1.769   2.942 -0.3088 -0.0324 -0.1554
18275TIP3    H176316   3.608   1.812   2.904  0.8098 -1.1174  0.7916
18275TIP3    H276317   3.521   1.811   3.028 -0.3736 -0.3590 -0.0040
18276TIP3   OH276318   3.189   4.308  15.295 -0.3787  0.1841 -0.1406
18276TIP3    H176319   3.225   4.259  15.370 -0.5447 -0.1450 -0.2739
18276TIP3    H276320   3.250   4.381  15.284  1.4159 -1.3932 -1.5605
18277TIP3   OH276321   5.980   0.082  15.882  0.3253  0.1864 -0.8994
18277TIP3    H176322   5.956   0.140  15.810 -2.4177 -0.2015 -0.4239
18277TIP3    H276323   5.920   0.008  15.874  1.5791 -1.0347  0.3849
18278TIP3   OH276324   6.362   5.337   3.290  0.2877  0.0351 -0.1455
18278TIP3    H176325   6.312   5.377   3.361  0.5248 -1.3996  0.8553
18278TIP3    H276326   6.349   5.396   3.216  1.3088  2.4246  1.4636
18279TIP3   OH276327   6.245   5.794   5.636  0.3407  0.4134 -0.3294
18279TIP3    H176328   6.242   5.836   5.550  0.7122  3.1622  0.9012
18279TIP3    H276329   6.194   5.852   5.693  1.2426 -0.6052  1.5991
18280TIP3   OH276330   0.812   0.354  12.018  0.0983 -0.2305  0.4122
18280TIP3    H176331   0.751   0.290  11.983  1.4709 -1.4121  0.0683
18280TIP3    H276332   0.851   0.395  11.941  1.3353 -1.0885  0.5530
18281TIP3   OH276333   1.526   2.126   1.432  0.7024  0.2162  0.2433
18281TIP3    H176334   1.516   2.123   1.337  0.6858  0.1969  0.2457
18281TIP3    H276335   1.562   2.212   1.450  1.7448 -0.1781  0.1223
18282TIP3   OH276336   2.071   6.174   4.521  0.5580  0.7403 -0.9080
18282TIP3    H176337   2.106   6.242   4.579  0.6372 -0.2589  0.2678
18282TIP3    H276338   2.146   6.144   4.471  0.5344  1.4679 -1.3859
18283TIP3   OH276339   0.024   5.001  15.534  0.0400 -0.0768  0.3235
18283TIP3    H176340  -0.048   4.954  15.491  1.0891 -2.3150  0.8309
18283TIP3    H276341  -0.012   5.028  15.618 -0.6126  0.0524  0.0097
18284TIP3   OH276342   5.683   3.231   0.857 -0.8693 -0.5831 -0.6902
18284TIP3    H176343   5.764   3.199   0.818 -0.2639  0.0337  0.0511
18284TIP3    H276344   5.633   3.151   0.877  1.3856 -1.3072  2.8109
18285TIP3   OH276345   3.694   4.500  12.769 -0.0749  0.0414  0.1196
18285TIP3    H176346   3.658   4.588  12.757  0.6392  0.1713 -1.2510
18285TIP3    H276347   3.777   4.514  12.814  0.4723  0.1763 -0.8959
18286TIP3   OH276348   3.711   5.383  11.895  0.3764 -0.7110  0.0314
18286TIP3    H176349   3.631   5.435  11.889  0.6182 -0.2544  0.6662
18286TIP3    H276350   3.780   5.447  11.910  0.9934 -1.0193 -1.3501
18287TIP3   OH276351   2.524   3.424  14.334 -0.7771  0.2345 -0.4908
18287TIP3    H176352   2.508   3.448  14.425 -1.2345  0.1121 -0.5361
18287TIP3    H276353   2.487   3.497  14.284 -1.0659  0.0186 -0.5932
18288TIP3   OH276354   3.829   5.575   3.389  0.4970 -0.6633  0.1124
18288TIP3    H176355   3.917   5.537   3.392  1.1429  0.6183 -1.1039
18288TIP3    H276356   3.830   5.631   3.311 -1.3198 -0.3960  0.2304
18289TIP3   OH276357   1.967   6.692  10.695 -1.0439 -0.2346 -0.3546
18289TIP3    H176358   1.915   6.669  10.772  1.2457 -0.7078  1.1738
18289TIP3    H276359   1.970   6.787  10.695 -1.1548 -0.2279  0.0810
18290TIP3   OH276360   2.783   4.957  12.595 -0.0073  0.4142  0.4634
18290TIP3    H176361   2.818   5.026  12.651  1.4788 -0.4660  0.6833
18290TIP3    H276362   2.860   4.913  12.559 -0.8920 -1.1058  0.3041
18291TIP3   OH276363   6.500   4.811   2.147 -0.0299 -0.1280 -0.1306
18291TIP3    H176364   6.578   4.857   2.115  0.4820 -1.0700 -0.2660
18291TIP3    H276365   6.440   4.881   2.171 -0.4124  0.6578 -3.0246
18292TIP3   OH276366   0.836   3.626  12.333  0.0130 -0.1520 -0.2161
18292TIP3    H176367   0.871   3.690  12.394  0.5413  0.9711 -1.6278
18292TIP3    H276368   0.867   3.656  12.247 -1.8881 -0.8393 -1.1973
18293TIP3   OH276369   3.160   5.647   4.956 -0.7907  0.2592 -0.6721
18293TIP3    H176370   3.120   5.685   4.878 -1.5818  1.7851  0.4058
18293TIP3    H276371   3.204   5.721   4.998 -0.1393 -0.5871  0.1658
18294TIP3   OH276372   3.416   0.475  13.189 -0.0256  0.6067  0.2677
18294TIP3    H176373   3.488   0.529  13.154 -0.9051 -0.1500 -3.0656
18294TIP3    H276374   3.340   0.534  13.188 -0.2659  0.2927 -0.0649
18295TIP3   OH276375   3.010   2.090   6.199  0.0604 -0.1269 -0.0949
18295TIP3    H176376   3.075   2.056   6.137  0.7871 -1.6487  1.4372
18295TIP3    H276377   2.960   2.013   6.227 -1.3531  0.7774  0.0031
18296TIP3   OH276378   0.260   0.338   6.003  0.3433  0.1057 -0.4147
18296TIP3    H176379   0.341   0.334   6.055 -0.7836  0.6374  1.5101
18296TIP3    H276380   0.207   0.266   6.037 -0.8734  1.1744  0.0200
18297TIP3   OH276381   5.545   3.128  13.307  0.1318 -0.0510 -0.5621
18297TIP3    H176382   5.589   3.135  13.392 -0.0423 -0.6095 -0.4220
18297TIP3    H276383   5.564   3.038  13.278 -0.7084 -0.2155 -0.6137
18298TIP3   OH276384   0.162   2.520  17.160 -0.2625 -0.2015  0.1416
18298TIP3    H176385   0.138   2.538  17.069 -0.6633  2.5186  0.7169
18298TIP3    H276386   0.084   2.542  17.210 -0.2724 -2.3087  1.1520
18299TIP3   OH276387   5.713   0.374   5.733  0.0730 -0.9359 -0.0406
18299TIP3    H176388   5.784   0.318   5.764  0.7337 -1.2434 -1.9554
18299TIP3    H276389   5.729   0.459   5.774  1.3528 -1.0978 -0.1572
18300TIP3   OH276390   3.519   4.214  14.672  0.1928  0.4679 -0.6429
18300TIP3    H176391   3.499   4.146  14.607 -0.1547 -0.5978  0.5391
18300TIP3    H276392   3.608   4.241  14.651  0.8153 -1.2584 -0.4084
18301TIP3   OH276393   2.330   1.537  13.746 -0.4367  0.2685 -0.1744
18301TIP3    H176394   2.237   1.519  13.757 -0.1552 -0.4632  1.1399
18301TIP3    H276395   2.339   1.629  13.771 -0.8163  0.3807 -0.4323
18302TIP3   OH276396   1.134   6.367  15.014 -0.3868 -0.5500  0.2622
18302TIP3    H176397   1.180   6.319  14.945  1.0924 -0.8814  1.4062
18302TIP3    H276398   1.071   6.304  15.050 -2.0671  0.0142 -1.5547
18303TIP3   OH276399   3.387   3.168  15.295 -0.2684 -0.1532 -0.0216
18303TIP3    H176400   3.314   3.225  15.271 -0.4158 -0.7338 -1.0218
18303TIP3    H276401   3.402   3.185  15.388  0.6122  2.5500 -0.5854
18304TIP3   OH276402   3.935   1.612   5.405  0.1703 -0.0805 -0.6303
18304TIP3    H176403   3.847   1.576   5.409 -0.1645  0.7651 -0.1409
18304TIP3    H276404   3.934   1.686   5.466  1.0355  0.3245 -1.0830
18305TIP3   OH276405   6.049   6.074  11.522  0.1284  0.0063 -0.4977
18305TIP3    H176406   6.115   6.008  11.542  0.5281  0.2955 -0.8371
18305TIP3    H276407   5.973   6.023  11.490 -0.7266 -0.5043  2.1218
18306TIP3   OH276408   2.179   2.202  11.472  0.3953 -0.2760 -0.0980
18306TIP3    H176409   2.141   2.276  11.519 -1.1722 -0.4256 -1.0338
18306TIP3    H276410   2.212   2.240  11.390  0.8304 -0.4067  0.0149
18307TIP3   OH276411   3.123   0.172  12.216  0.1917  0.9239  0.1375
18307TIP3    H176412   3.177   0.158  12.293 -0.1543 -0.6418  0.1161
18307TIP3    H276413   3.076   0.253  12.234  0.6240  0.9334  1.2611
18308TIP3   OH276414   0.228   6.356   4.538 -0.3921 -0.5687  0.3429
18308TIP3    H176415   0.277   6.336   4.617  2.9527  0.8490 -1.1822
18308TIP3    H276416   0.236   6.450   4.527  0.3091 -0.8298 -2.2338
18309TIP3   OH276417   0.536   1.966  13.078  0.4718  0.5371 -0.5237
18309TIP3    H176418   0.521   2.034  13.012  0.4937  1.7245  0.6530
18309TIP3    H276419   0.473   1.986  13.148  1.5963  0.3484  0.5851
18310TIP3   OH276420   3.824   1.046  12.945 -0.1462 -0.3145 -0.3674
18310TIP3    H176421   3.886   1.019  12.878 -0.0470 -2.3784  0.4816
18310TIP3    H276422   3.877   1.060  13.023 -0.5307 -0.1534 -0.1273
18311TIP3   OH276423   1.785   0.181  11.800  0.0766  0.6960  0.2346
18311TIP3    H176424   1.719   0.198  11.732 -0.8729  0.4158  1.0660
18311TIP3    H276425   1.855   0.244  11.781 -0.3178  0.8431 -0.8066
18312TIP3   OH276426   3.729   5.679  12.213 -0.2316  0.3773 -0.4119
18312TIP3    H176427   3.762   5.766  12.193  0.7354  0.0172 -0.4260
18312TIP3    H276428   3.664   5.662  12.145  1.2866  0.1372 -1.8648
18313TIP3   OH276429   2.852   5.551  15.582 -0.9055 -0.6566 -0.1886
18313TIP3    H176430   2.917   5.621  15.576 -1.2023 -0.4363 -1.1145
18313TIP3    H276431   2.798   5.563  15.504 -2.0790 -0.8169  0.5894
18314TIP3   OH276432   5.041   6.143   4.142  0.1196  0.3294 -0.4141
18314TIP3    H176433   4.976   6.186   4.198  0.6297  0.9978 -0.3291
18314TIP3    H276434   4.988   6.101   4.073 -0.4848 -0.2161  0.3655
18315TIP3   OH276435   1.924   5.029  16.017 -0.0514  0.3613 -0.3656
18315TIP3    H176436   2.006   4.985  15.997 -0.2773  0.6437 -2.0188
18315TIP3    H276437   1.862   4.997  15.951 -0.8097  1.4483 -0.2130
18316TIP3   OH276438   2.352   5.532   4.426  1.0260  0.0670 -0.7918
18316TIP3    H176439   2.401   5.530   4.343  0.4294 -1.0541 -1.1306
18316TIP3    H276440   2.312   5.445   4.432 -1.5517  1.1594 -0.8944
18317TIP3   OH276441   6.513   3.056   1.982 -0.0474 -0.2802 -0.4854
18317TIP3    H176442   6.424   3.046   1.948  0.1936 -1.6293 -0.7617
18317TIP3    H276443   6.563   2.988   1.938  0.8666 -0.3024  0.5557
18318TIP3   OH276444   0.025   6.429  11.506 -0.3807 -0.4520 -0.2865
18318TIP3    H176445   0.077   6.458  11.581  0.6333 -1.9496 -0.3661
18318TIP3    H276446  -0.062   6.413  11.542  0.1037 -1.1927  0.5964
18319TIP3   OH276447   4.431   0.078  15.537  0.2800 -0.0241  0.3518
18319TIP3    H176448   4.500   0.144  15.547  0.3908 -0.0576 -0.1760
18319TIP3    H276449   4.474  -0.004  15.562  0.1206  0.1067  1.0830
18320TIP3   OH276450   3.260   1.579  13.624  0.2185  0.4175 -0.4060
18320TIP3    H176451   3.285   1.503  13.676 -1.9023 -0.5619 -0.7316
18320TIP3    H276452   3.336   1.596  13.568  1.2657 -0.5439  0.6804
18321TIP3   OH276453   3.152   1.558   0.835  0.0758  0.5020 -0.0007
18321TIP3    H176454   3.104   1.477   0.818 -0.9546  1.1380 -0.2386
18321TIP3    H276455   3.094   1.627   0.801  0.4498  1.4093  1.1512
18322TIP3   OH276456   3.470   2.190   2.611 -0.2679 -0.1670  0.3142
18322TIP3    H176457   3.497   2.138   2.535 -1.6351 -1.2875  0.5530
18322TIP3    H276458   3.454   2.278   2.576  2.2396  0.2122 -0.0712
18323TIP3   OH276459   1.774   2.719   1.448 -0.1848 -0.3853 -0.4740
18323TIP3    H176460   1.839   2.651   1.429  0.3556  0.1579 -0.5689
18323TIP3    H276461   1.765   2.768   1.367 -2.0329 -1.5324 -1.0303
18324TIP3   OH276462   6.386   5.570  15.988 -0.1934  0.0558  0.4607
18324TIP3    H176463   6.414   5.509  16.057  1.8102  0.4350  0.0529
18324TIP3    H276464   6.430   5.652  16.010 -1.0567  0.7250 -0.2509
18325TIP3   OH276465   0.867   1.994   5.114 -0.0624  0.3019 -0.5888
18325TIP3    H176466   0.780   2.003   5.074 -0.7022  1.1113  0.9055
18325TIP3    H276467   0.923   2.053   5.063 -0.5959  0.4932 -0.9655
18326TIP3   OH276468   6.583   0.523   2.418  0.3459  0.6429 -0.1704
18326TIP3    H176469   6.590   0.436   2.378 -1.9020  0.2183  0.2395
18326TIP3    H276470   6.506   0.518   2.474  0.5978  2.7028  0.4458
18327TIP3   OH276471   1.716   1.239   4.665  0.2197 -0.0941  0.2475
18327TIP3    H176472   1.632   1.282   4.681 -0.1067 -1.1229  1.5384
18327TIP3    H276473   1.711   1.208   4.575 -1.2825 -1.1313  0.6398
18328TIP3   OH276474   1.127   3.605  14.967  0.0577 -0.3827 -0.0115
18328TIP3    H176475   1.087   3.615  14.881  1.7753 -1.1448 -0.9572
18328TIP3    H276476   1.094   3.679  15.018  0.6869  1.3816 -2.0362
18329TIP3   OH276477   3.458   5.457   0.806 -0.2326  0.0162 -0.2846
18329TIP3    H176478   3.374   5.418   0.782 -0.6228  0.6827 -0.0228
18329TIP3    H276479   3.452   5.472   0.901 -0.8520  2.4518 -0.6534
18330TIP3   OH276480   6.333   2.544   3.628 -0.0428  0.3842  0.6166
18330TIP3    H176481   6.277   2.599   3.683 -0.9009  0.8788 -0.6953
18330TIP3    H276482   6.272   2.489   3.578  0.7817 -1.4284  1.5169
18331TIP3   OH276483   0.341   4.391   3.714  0.2924 -0.0356  0.0002
18331TIP3    H176484   0.350   4.333   3.638  1.8000 -0.2164  0.2936
18331TIP3    H276485   0.405   4.461   3.698 -1.6753  1.7521 -0.4869
18332TIP3   OH276486   3.665   6.027   0.175  0.1863 -0.3147  0.0949
18332TIP3    H176487   3.582   6.017   0.127 -0.1589  2.7843 -0.1176
18332TIP3    H276488   3.733   6.008   0.110 -0.3233 -1.0223 -0.2433
18333TIP3   OH276489   0.913   2.335  13.816 -0.1313 -0.4781 -0.0281
18333TIP3    H176490   0.907   2.294  13.902 -2.0941 -0.0202  0.1114
18333TIP3    H276491   0.868   2.274  13.757  1.5023 -0.9652 -0.8483
18334TIP3   OH276492   6.253   4.741   3.648  0.1565 -0.1398  0.1992
18334TIP3    H176493   6.237   4.785   3.731 -1.9170 -1.1249  0.4138
18334TIP3    H276494   6.167   4.740   3.605  0.8357 -1.0869 -1.2194
18335TIP3   OH276495   4.919   2.242  14.124  0.4341 -0.2797 -0.1159
18335TIP3    H176496   5.000   2.281  14.090  0.1287 -0.4257 -1.0319
18335TIP3    H276497   4.916   2.271  14.215  1.0903  0.4206 -0.2981
18336TIP3   OH276498   1.201   3.470   6.125  0.6316 -0.0207  0.0356
18336TIP3    H176499   1.292   3.482   6.153  0.5924 -0.4172  0.3357
18336TIP3    H276500   1.156   3.434   6.201  0.0369  0.9123  0.1373
18337TIP3   OH276501   5.731   1.392  11.927  0.0587  0.2308  1.1414
18337TIP3    H176502   5.821   1.404  11.957  0.4401  0.0030  0.1151
18337TIP3    H276503   5.683   1.465  11.967  0.2726 -0.6983  3.2730
18338TIP3   OH276504   4.975   0.011   3.383  0.5850  0.4766 -0.1401
18338TIP3    H176505   5.005  -0.038   3.306 -0.8989  2.3957 -2.0482
18338TIP3    H276506   5.002  -0.043   3.457  3.0035 -0.9639 -1.9303
18339TIP3   OH276507   3.415   0.795   4.272  0.1994 -0.3306 -0.1769
18339TIP3    H176508   3.358   0.738   4.325  0.2538 -0.9885 -0.8098
18339TIP3    H276509   3.355   0.853   4.226  0.1858  0.8380  1.2371
18340TIP3   OH276510   2.302   4.058  13.169 -0.2449 -0.0447 -0.4202
18340TIP3    H176511   2.248   4.106  13.232  0.2770  1.3205 -0.9916
18340TIP3    H276512   2.343   4.125  13.116  0.5051 -1.1343 -1.2606
18341TIP3   OH276513   0.087   4.694  11.174  0.1199  0.0691  0.0332
18341TIP3    H176514   0.104   4.781  11.211 -1.2330 -0.1461  1.2625
18341TIP3    H276515   0.103   4.704  11.080 -0.5191  1.7918  0.0664
18342TIP3   OH276516   2.293   2.064  13.208  0.6600  0.0550 -0.3665
18342TIP3    H176517   2.376   2.076  13.255  0.9051  1.0373 -1.0200
18342TIP3    H276518   2.256   1.984  13.245  1.8475 -0.3356  0.0173
18343TIP3   OH276519   1.067   1.769  15.683 -0.4122  0.2022 -0.2197
18343TIP3    H176520   1.039   1.736  15.598 -0.7801 -0.0817  0.0083
18343TIP3    H276521   1.015   1.719  15.747 -0.5393  0.7931  0.1512
18344TIP3   OH276522   5.811   4.750  13.178  0.8344 -0.0844  0.1242
18344TIP3    H176523   5.848   4.674  13.223  1.3919 -0.5899 -1.1440
18344TIP3    H276524   5.722   4.723  13.156  0.6901  0.0201  0.5608
18345TIP3   OH276525   3.947   6.168   5.130 -0.7501 -0.7022  0.5282
18345TIP3    H176526   3.924   6.094   5.074 -1.6051 -0.5521  0.6567
18345TIP3    H276527   3.942   6.132   5.219  2.7591 -1.5388  0.5208
18346TIP3   OH276528   4.254   3.701   2.451  0.7103 -0.1625  0.1946
18346TIP3    H176529   4.197   3.641   2.404 -0.8368  1.4684 -0.1308
18346TIP3    H276530   4.301   3.647   2.514 -2.1303 -1.4290  1.3698
18347TIP3   OH276531   3.028   3.542  10.816 -0.1131 -0.5648 -0.1064
18347TIP3    H176532   3.022   3.463  10.762  3.0491 -0.5237 -0.7028
18347TIP3    H276533   2.999   3.613  10.759  0.3563 -0.8811 -0.7423
18348TIP3   OH276534   6.168   5.685   1.973  0.3158 -0.9757  0.2205
18348TIP3    H176535   6.116   5.713   1.897 -0.8331 -0.3220  1.2260
18348TIP3    H276536   6.140   5.595   1.989  1.1084 -1.3802 -0.5652
18349TIP3   OH276537   1.670   1.676   2.616  0.6021  0.2329  0.1813
18349TIP3    H176538   1.633   1.596   2.653  2.1726 -0.6279 -0.0070
18349TIP3    H276539   1.646   1.672   2.523  1.8051 -0.7493 -0.1162
18350TIP3   OH276540   3.019   6.595  12.273  0.7898 -0.2180  0.5034
18350TIP3    H176541   2.968   6.582  12.353  0.3516 -1.2272  0.0736
18350TIP3    H276542   2.969   6.660  12.223  1.2763  0.7249  1.2122
18351TIP3   OH276543   3.139   0.454  16.630  0.3469 -0.7938 -0.2721
18351TIP3    H176544   3.141   0.399  16.708 -0.6221 -0.7047 -0.1752
18351TIP3    H276545   3.201   0.524  16.648 -0.5835 -0.2246  0.8302
18352TIP3   OH276546   1.707   4.852   3.847 -0.0056  0.2763  0.5214
18352TIP3    H176547   1.647   4.854   3.922  0.6232  0.8564  1.0134
18352TIP3    H276548   1.657   4.892   3.776 -0.6948 -0.5020  0.5451
18353TIP3   OH276549   2.388   0.720  16.076  0.4999  0.4184 -0.3166
18353TIP3    H176550   2.444   0.732  16.153 -0.0651  1.7881 -0.0776
18353TIP3    H276551   2.316   0.665  16.108  0.3422  0.8607  0.1073
18354TIP3   OH276552   3.390   4.481  12.701 -0.1855  0.5323  0.0418
18354TIP3    H176553   3.472   4.496  12.748  0.0711  0.0884 -0.2619
18354TIP3    H276554   3.400   4.531  12.619 -1.2924  2.6780  1.1378
18355TIP3   OH276555   5.239   0.231   3.831 -0.2725 -0.2184  0.7574
18355TIP3    H176556   5.200   0.319   3.826  1.4092  0.5204 -0.4723
18355TIP3    H276557   5.331   0.247   3.849 -0.3694 -1.8923  3.0138
18356TIP3   OH276558   4.751   2.084  16.866 -0.0988  0.0372  0.1438
18356TIP3    H176559   4.716   2.045  16.785  0.1260  0.5255 -0.1947
18356TIP3    H276560   4.840   2.110  16.843  1.2865 -2.9205  1.5171
18357TIP3   OH276561   4.365   6.720  15.053 -0.1584  0.1234  0.5697
18357TIP3    H176562   4.305   6.684  14.988 -0.5086  1.9239 -0.1697
18357TIP3    H276563   4.309   6.742  15.128 -0.7796  3.1213 -0.6510
18358TIP3   OH276564   1.112   4.825  12.642 -0.3156 -0.5293 -0.0607
18358TIP3    H176565   1.044   4.890  12.622 -0.2312 -0.2647  0.4917
18358TIP3    H276566   1.122   4.829  12.737 -0.8515 -1.9010  0.0782
18359TIP3   OH276567   0.235   4.147   0.638 -0.7062 -0.0171 -0.1305
18359TIP3    H176568   0.241   4.185   0.726 -1.1772 -0.3032  0.0269
18359TIP3    H276569   0.301   4.194   0.587 -1.2567  0.9820  0.0673
18360TIP3   OH276570   1.990   3.840  16.867  0.4966 -0.0106  0.3636
18360TIP3    H176571   1.961   3.928  16.844  3.4751  0.2676 -3.3493
18360TIP3    H276572   2.057   3.853  16.934 -0.2379  0.3292  1.0488
18361TIP3   OH276573   5.122   6.463   4.304  0.4856 -0.5234 -0.1421
18361TIP3    H176574   5.179   6.409   4.249 -1.0446  0.6342 -3.0872
18361TIP3    H276575   5.084   6.527   4.244  0.4211  2.4098  2.7185
18362TIP3   OH276576   1.788   1.368   5.646 -0.1332 -0.1951 -0.3594
18362TIP3    H176577   1.829   1.444   5.688  2.4846 -1.3584 -0.6411
18362TIP3    H276578   1.709   1.352   5.697  1.0548  0.6557  1.8616
18363TIP3   OH276579   2.937   5.416  15.884  0.1231  0.0702 -0.1843
18363TIP3    H176580   3.029   5.393  15.895  0.3257  1.2912  0.9167
18363TIP3    H276581   2.891   5.365  15.951  0.4340  1.8643  1.4811
18364TIP3   OH276582   6.675   2.149  17.068 -0.0674 -0.2221  0.4110
18364TIP3    H176583   6.591   2.184  17.040  0.6561 -0.9170 -3.1115
18364TIP3    H276584   6.734   2.224  17.067 -0.0351 -0.2529  0.0154
18365TIP3   OH276585   3.187   4.538   5.609  0.4501  0.7484 -0.4544
18365TIP3    H176586   3.092   4.551   5.615  0.1910 -1.4945  2.0910
18365TIP3    H276587   3.200   4.499   5.522 -1.2920 -0.8968 -0.0508
18366TIP3   OH276588   6.019   4.020   4.985 -0.5340  0.4799  0.1561
18366TIP3    H176589   6.106   4.014   5.024 -0.3799 -1.7459 -0.4199
18366TIP3    H276590   5.988   3.930   4.981 -2.0769  1.0183 -1.4473
18367TIP3   OH276591   4.338   4.456  16.271  0.2151  0.0410 -0.4466
18367TIP3    H176592   4.330   4.552  16.264  1.2949  0.0151 -3.0426
18367TIP3    H276593   4.302   4.423  16.188 -1.4128 -1.9419  0.9568
18368TIP3   OH276594   6.789   2.075  13.400  0.0537  0.3414  0.3682
18368TIP3    H176595   6.789   2.045  13.492 -0.5230 -1.7658 -0.2443
18368TIP3    H276596   6.802   2.169  13.405  0.7199  0.1854  2.5899
18369TIP3   OH276597   6.492   3.475   4.165 -0.6354 -0.4539 -0.2445
18369TIP3    H176598   6.476   3.402   4.225 -0.2238 -1.0794 -0.8743
18369TIP3    H276599   6.519   3.433   4.083  1.8724  0.4236  0.0275
18370TIP3   OH276600   6.605   1.371  13.603 -0.8157 -0.3593 -0.0674
18370TIP3    H176601   6.699   1.377  13.584 -0.4086 -0.2350  1.7971
18370TIP3    H276602   6.563   1.410  13.526  0.6264 -0.6826 -1.0701
18371TIP3   OH276603   3.095   2.339   1.134 -0.0916 -0.2535  0.2478
18371TIP3    H176604   3.072   2.334   1.041  3.8013 -0.9080 -0.8586
18371TIP3    H276605   3.102   2.433   1.151 -1.6065 -0.0942  0.2012
18372TIP3   OH276606   0.078   0.465   6.408 -0.3881  0.0461 -0.4640
18372TIP3    H176607   0.014   0.493   6.343 -1.0405  0.9686  0.5391
18372TIP3    H276608   0.042   0.495   6.492  1.0588  0.0389  0.1867
18373TIP3   OH276609   6.257   3.062  15.718 -0.1475 -0.4188 -0.2986
18373TIP3    H176610   6.219   3.040  15.633  0.0425 -0.2920 -0.4179
18373TIP3    H276611   6.262   2.978  15.765  1.9974 -0.9458 -1.3189
18374TIP3   OH276612   4.955   4.697  15.625  0.7568 -0.1034  0.1437
18374TIP3    H176613   4.992   4.762  15.685  0.0830  1.2012 -0.8023
18374TIP3    H276614   4.863   4.690  15.652  0.7282 -0.3535 -0.0232
18375TIP3   OH276615   3.769   0.952   6.125  0.1774 -0.2776 -0.1329
18375TIP3    H176616   3.730   1.034   6.155 -1.1956 -0.7978 -0.4101
18375TIP3    H276617   3.738   0.886   6.187  1.3948 -0.5720  0.1836
18376TIP3   OH276618   4.941   6.442  16.237 -0.1223  0.5625  1.1474
18376TIP3    H176619   4.982   6.358  16.255 -0.5971 -0.1366 -0.7533
18376TIP3    H276620   4.901   6.431  16.150 -1.2331  2.3579  1.3739
18377TIP3   OH276621   5.448   1.246   5.770  0.1975  0.6854 -0.0090
18377TIP3    H176622   5.506   1.253   5.846  2.3531 -0.1319 -1.4906
18377TIP3    H276623   5.399   1.328   5.769  1.8081  1.6953  0.9365
18378TIP3   OH276624   3.221   5.070  14.935  0.0721  0.4179  0.6128
18378TIP3    H176625   3.257   4.999  14.988 -1.7543 -0.6978  0.4434
18378TIP3    H276626   3.293   5.097  14.879  0.4250 -2.4681 -0.4904
18379TIP3   OH276627   5.388   2.150   1.919 -0.1017  0.8795  0.6045
18379TIP3    H176628   5.480   2.142   1.892 -0.5296 -0.3696 -0.5837
18379TIP3    H276629   5.388   2.120   2.010  0.4589 -0.5526  0.1575
18380TIP3   OH276630   2.050   2.722  17.121  0.0546  0.2448  0.0584
18380TIP3    H176631   1.968   2.749  17.161 -0.5454 -1.5645  0.1354
18380TIP3    H276632   2.071   2.638  17.162  0.5105 -0.6611 -1.9005
18381TIP3   OH276633   3.067   6.195  13.221  0.2856 -0.1684 -0.2543
18381TIP3    H176634   3.043   6.287  13.237 -1.6923 -0.7623  0.3965
18381TIP3    H276635   3.113   6.169  13.301 -0.2005 -0.0748  0.0592
18382TIP3   OH276636   3.352   4.983  12.496 -0.3815 -0.1387  0.4541
18382TIP3    H176637   3.392   5.067  12.518 -0.6265 -0.2816  1.4873
18382TIP3    H276638   3.276   5.005  12.442  0.1966  0.2276 -0.2212
18383TIP3   OH276639   3.556   4.925   0.038  0.2306  0.6348  0.4759
18383TIP3    H176640   3.607   4.844   0.042  1.7948  1.3888 -2.0101
18383TIP3    H276641   3.569   4.965   0.124 -1.8510 -2.3538  2.3535
18384TIP3   OH276642   4.170   2.263   3.896 -0.3782 -0.0803  0.2987
18384TIP3    H176643   4.261   2.247   3.922 -0.1616 -0.1872 -0.5028
18384TIP3    H276644   4.119   2.233   3.971  0.1834 -1.3310  0.2073
18385TIP3   OH276645   3.442   1.479   4.206  0.3218  0.6924 -0.9924
18385TIP3    H176646   3.495   1.509   4.131  0.3091  1.2209 -0.7929
18385TIP3    H276647   3.381   1.551   4.223  0.1987  0.4966 -0.5906
18386TIP3   OH276648   6.283   6.746  12.535 -0.3135 -0.2421  0.5693
18386TIP3    H176649   6.242   6.829  12.508  1.7367  0.9442  0.8827
18386TIP3    H276650   6.274   6.689  12.458 -0.3229  0.8481 -0.2644
18387TIP3   OH276651   4.479   5.290   4.790 -0.5010 -0.3904 -0.5647
18387TIP3    H176652   4.432   5.350   4.847 -1.4927 -0.7015 -1.0332
18387TIP3    H276653   4.556   5.339   4.761 -0.1888 -0.0860  0.6859
18388TIP3   OH276654   6.598   5.511  14.217  0.4991 -0.0446  0.4178
18388TIP3    H176655   6.595   5.469  14.131  2.7080 -0.8915  0.6860
18388TIP3    H276656   6.646   5.449  14.272  1.2982  1.5558  1.6128
18389TIP3   OH276657   1.764   4.588   2.271 -0.4722  0.0057 -0.0023
18389TIP3    H176658   1.678   4.549   2.256 -0.0819 -0.2981 -1.6803
18389TIP3    H276659   1.770   4.657   2.205  0.6338 -0.0797 -0.0012
18390TIP3   OH276660   6.604   2.915   3.076  0.1739  0.4896 -0.0508
18390TIP3    H176661   6.642   2.872   3.153 -0.9644 -1.5325 -0.5499
18390TIP3    H276662   6.619   2.854   3.004 -0.6279  1.3843 -1.0250
18391TIP3   OH276663   5.505   3.329  12.200  0.2564  0.0064 -0.2356
18391TIP3    H176664   5.530   3.393  12.266 -0.9530  1.6493 -1.3058
18391TIP3    H276665   5.561   3.253  12.218  0.4062  0.6216  2.2437
18392TIP3   OH276666   4.925   3.327   3.096  0.8117  0.1989 -0.2062
18392TIP3    H176667   4.949   3.320   3.188  0.6862  0.6806 -0.1366
18392TIP3    H276668   4.900   3.419   3.084  1.0193  0.1889 -0.7624
18393TIP3   OH276669   4.223   6.413  13.242 -0.0139 -0.7162  0.0634
18393TIP3    H176670   4.233   6.353  13.317 -0.2671  0.6494  1.2218
18393TIP3    H276671   4.129   6.426  13.234  0.0212 -0.7346 -0.4234
18394TIP3   OH276672   6.398   6.594  11.584  0.2552 -0.1831 -0.1992
18394TIP3    H176673   6.483   6.552  11.593 -0.2896 -1.2487  0.2167
18394TIP3    H276674   6.337   6.533  11.626 -0.7959  0.2612 -1.0372
18395TIP3   OH276675   5.569   2.255   5.507 -0.4237 -0.2097  0.1907
18395TIP3    H176676   5.534   2.265   5.596  2.5747  0.5860  1.3912
18395TIP3    H276677   5.603   2.166   5.504  0.7917  0.2333  0.3870
18396TIP3   OH276678   4.154   0.874  11.699  0.1431  0.1087  0.7676
18396TIP3    H176679   4.193   0.949  11.652 -0.8298  0.4911  0.5527
18396TIP3    H276680   4.143   0.807  11.632  0.7055 -0.1147  0.8927
18397TIP3   OH276681   5.548   5.720  13.194  0.0243  0.1339  0.2795
18397TIP3    H176682   5.469   5.667  13.198  0.1599 -0.0519  0.5662
18397TIP3    H276683   5.594   5.690  13.115 -0.0746  0.0765  0.2441
18398TIP3   OH276684   3.791   1.074   0.431  0.1921 -0.1968 -0.0836
18398TIP3    H176685   3.746   1.056   0.349 -0.7957  0.8083  0.2051
18398TIP3    H276686   3.748   1.153   0.465  0.9243 -0.2946  1.1368
18399TIP3   OH276687   5.879   3.899  14.117  0.0836  0.1627  0.3450
18399TIP3    H176688   5.911   3.913  14.028  0.7647  0.6920  0.6637
18399TIP3    H276689   5.851   3.986  14.146  2.7045  0.6471  1.7134
18400TIP3   OH276690   4.210   4.412  11.817  0.2049  0.4382 -0.8034
18400TIP3    H176691   4.272   4.352  11.775 -1.8521 -2.9340  0.5699
18400TIP3    H276692   4.137   4.419  11.755  0.3480  1.5138 -0.8812
18401TIP3   OH276693   1.886   2.343  11.900  0.2564  0.1621  0.0226
18401TIP3    H176694   1.824   2.305  11.839  0.3971 -0.0997  0.0391
18401TIP3    H276695   1.964   2.288  11.892  0.2948  0.1555  0.3976
18402TIP3   OH276696   4.255   0.367   3.614 -0.1970 -0.5038 -0.4765
18402TIP3    H176697   4.319   0.425   3.656 -1.2913  0.0191  0.5129
18402TIP3    H276698   4.267   0.383   3.520  1.8318 -1.2042 -0.3813
18403TIP3   OH276699   0.095   3.744  14.962  0.2020 -0.0801 -0.2753
18403TIP3    H176700   0.055   3.657  14.962 -2.0142  0.7957 -2.5967
18403TIP3    H276701   0.130   3.754  14.873  0.9785  1.1643  0.1463
18404TIP3   OH276702   2.607   6.445   0.573 -0.2170  0.2409  0.3904
18404TIP3    H176703   2.624   6.526   0.622  1.1547 -0.6349  1.4700
18404TIP3    H276704   2.518   6.421   0.597  0.4218 -0.1763  2.5673
18405TIP3   OH276705   0.803   5.168  13.209  0.4019  0.1071  0.9085
18405TIP3    H176706   0.856   5.213  13.143 -2.0600  1.9891  0.0464
18405TIP3    H276707   0.790   5.080  13.174 -2.4195  1.5719 -2.2810
18406TIP3   OH276708   2.169   2.376  15.226 -0.1465 -0.5385  0.4679
18406TIP3    H176709   2.212   2.389  15.142  0.3403 -0.5254  0.7200
18406TIP3    H276710   2.091   2.432  15.222 -1.4812 -2.3398 -0.9385
18407TIP3   OH276711   0.104   0.587  11.633 -0.5584 -0.0780  0.3774
18407TIP3    H176712   0.018   0.559  11.665 -0.8738  0.3019 -0.1147
18407TIP3    H276713   0.085   0.667  11.584  0.2908  0.9467  1.6473
18408TIP3   OH276714   1.458   5.503   6.359  0.0737 -0.3653  0.2081
18408TIP3    H176715   1.450   5.422   6.409 -1.7060  0.6276  1.6334
18408TIP3    H276716   1.491   5.567   6.421  1.6071  0.0124 -0.9411
18409TIP3   OH276717   6.147   0.332  13.214  0.1900  0.3996  0.1251
18409TIP3    H176718   6.086   0.349  13.143  0.0182  0.7958  0.3632
18409TIP3    H276719   6.183   0.246  13.195  0.4003  0.6456 -0.6287
18410TIP3   OH276720   2.812   3.940   5.164  0.1148 -0.6323 -0.1435
18410TIP3    H176721   2.738   3.993   5.192  0.7166 -0.1251  0.5339
18410TIP3    H276722   2.861   3.922   5.245  1.6820  0.5258 -0.7706
18411TIP3   OH276723   3.642   5.024   2.016  0.3248 -0.0375 -0.0829
18411TIP3    H176724   3.552   5.048   2.039  0.1250 -1.0089  0.1843
18411TIP3    H276725   3.632   4.959   1.947  0.8127 -0.4677  0.2535
18412TIP3   OH276726   6.176   3.296  14.064 -0.4113  0.7744 -0.0728
18412TIP3    H176727   6.083   3.320  14.064 -0.2130  1.5877 -0.3383
18412TIP3    H276728   6.183   3.228  13.996 -1.2632 -1.2766  1.7797
18413TIP3   OH276729   1.919   6.638   2.061 -0.6211 -0.4152  0.1067
18413TIP3    H176730   1.957   6.666   2.144  1.1010  1.0064 -1.0849
18413TIP3    H276731   1.825   6.653   2.072 -0.4172 -0.1464  1.7425
18414TIP3   OH276732   4.096   0.221  11.264  0.4420  0.2141  0.4738
18414TIP3    H176733   4.156   0.239  11.191 -2.1530  2.0031 -1.4009
18414TIP3    H276734   4.082   0.126  11.260  0.0440  0.3030 -1.7189
18415TIP3   OH276735   2.124   5.987  12.775 -0.8468  0.4114  0.0306
18415TIP3    H176736   2.179   5.924  12.822 -0.0641  0.1885 -1.1433
18415TIP3    H276737   2.185   6.035  12.719 -1.9005 -0.3913 -1.9182
18416TIP3   OH276738   2.501   3.300  13.650 -0.2409 -0.1527  0.2401
18416TIP3    H176739   2.569   3.366  13.636  1.3906 -1.6265  0.9023
18416TIP3    H276740   2.420   3.351  13.656  0.8891  1.7433  0.2966
18417TIP3   OH276741   0.239   3.467   1.344 -0.9194 -0.6963  0.5903
18417TIP3    H176742   0.252   3.561   1.354 -1.3271 -0.2307 -2.4829
18417TIP3    H276743   0.327   3.432   1.326 -1.1786 -0.3529 -1.5492
18418TIP3   OH276744   4.474   4.291   3.261  0.0111 -0.0981 -0.5476
18418TIP3    H176745   4.496   4.271   3.170 -0.6027 -0.1370 -0.6944
18418TIP3    H276746   4.383   4.262   3.270  0.0555 -0.0519  0.0660
18419TIP3   OH276747   6.216   2.170  16.006 -0.5316 -0.5455 -0.3185
18419TIP3    H176748   6.277   2.178  16.079 -2.9599 -1.2225  1.9838
18419TIP3    H276749   6.172   2.255  16.002 -0.5896 -0.5975 -0.8075
18420TIP3   OH276750   3.107   0.473  15.963  0.3784 -0.4839 -0.1572
18420TIP3    H176751   3.132   0.432  15.880 -0.2084 -1.5545  0.1700
18420TIP3    H276752   3.190   0.496  16.004  0.7624 -1.8476 -0.1231
18421TIP3   OH276753   2.053   1.843  12.227 -0.1233  0.0846  0.3599
18421TIP3    H176754   1.966   1.815  12.256 -0.2454  1.0664  1.0017
18421TIP3    H276755   2.055   1.822  12.134 -1.1632  0.3063  0.2780
18422TIP3   OH276756   2.674   4.369   2.060 -0.3872  0.3352  0.2197
18422TIP3    H176757   2.665   4.316   1.981  0.8087  1.4311 -0.7026
18422TIP3    H276758   2.727   4.315   2.119  1.5317  0.7545 -1.0260
18423TIP3   OH276759   0.154   0.079   0.413 -0.1768 -0.4933 -0.4035
18423TIP3    H176760   0.188  -0.006   0.441  0.2940 -0.0657  0.3760
18423TIP3    H276761   0.076   0.092   0.466  0.9236  0.4857  1.0580
18424TIP3   OH276762   2.233   3.147  17.158 -0.4346  0.0860 -0.2319
18424TIP3    H176763   2.218   3.186  17.244  0.8356  0.0267  0.0346
18424TIP3    H276764   2.157   3.090  17.144 -0.8728  0.4324  0.6473
18425TIP3   OH276765   4.263   6.679   4.392 -0.4708 -0.3752  0.2334
18425TIP3    H176766   4.326   6.617   4.355 -0.7731 -0.0029 -0.9492
18425TIP3    H276767   4.177   6.644   4.369 -0.7327 -0.9849  2.0187
18426TIP3   OH276768   5.899   3.979  17.110 -0.3232 -0.1418 -0.2377
18426TIP3    H176769   5.920   4.010  17.022 -0.6637  0.7729 -0.0113
18426TIP3    H276770   5.983   3.946  17.144  0.7856  3.0748  0.5027
18427TIP3   OH276771   4.597   6.066  16.896  0.2775  0.2946  0.2409
18427TIP3    H176772   4.544   5.996  16.934 -0.9338 -0.5146 -2.6358
18427TIP3    H276773   4.641   6.106  16.970 -0.0699 -2.6095  2.1887
18428TIP3   OH276774   0.539   2.848   5.990 -0.1321 -0.6624  0.3726
18428TIP3    H176775   0.545   2.938   6.021  0.4083 -0.8261  0.7513
18428TIP3    H276776   0.510   2.798   6.066 -2.9008 -0.4720 -0.4397
18429TIP3   OH276777   3.290   3.517  11.225  0.0904 -0.1702  0.3663
18429TIP3    H176778   3.366   3.521  11.283 -0.3998  1.1299  0.9522
18429TIP3    H276779   3.251   3.604  11.230 -1.1572 -0.6645 -0.3094
18430TIP3   OH276780   2.784   5.608  17.254 -0.0688  0.5183  0.5911
18430TIP3    H176781   2.731   5.623  17.175  0.3290  1.2418  0.4515
18430TIP3    H276782   2.728   5.556  17.311  0.2570 -1.5855 -0.8654
18431TIP3   OH276783   0.065   2.965   5.566 -0.4808  0.1374  0.4206
18431TIP3    H176784   0.006   2.895   5.593  0.3974 -0.5380  0.6285
18431TIP3    H276785   0.140   2.919   5.529  0.0369  0.9807  0.4123
18432TIP3   OH276786   0.985   1.802  16.323  0.0341 -0.1891 -0.2256
18432TIP3    H176787   0.918   1.802  16.255 -0.4513  0.4970  0.2384
18432TIP3    H276788   0.998   1.709  16.343 -1.4899 -0.3089  0.3509
18433TIP3   OH276789   3.381   0.964  12.381  0.1586  0.8478 -0.0855
18433TIP3    H176790   3.404   0.997  12.467  0.6189  0.9963 -0.2605
18433TIP3    H276791   3.313   0.899  12.397 -0.7924  1.9006  0.2579
18434TIP3   OH276792   2.395   2.070  13.653  0.1772 -0.3405  0.1287
18434TIP3    H176793   2.305   2.100  13.643  0.9585  2.0171 -0.4190
18434TIP3    H276794   2.436   2.137  13.708  1.7068 -1.1574  0.0259
18435TIP3   OH276795   1.154   0.054   1.452  0.1193  0.5463 -0.0043
18435TIP3    H176796   1.088   0.036   1.519  0.3500 -1.0034 -0.1690
18435TIP3    H276797   1.237   0.029   1.492  0.6932  2.6206  0.2582
18436TIP3   OH276798   4.030   3.227  12.560 -0.1667  0.3556  0.0609
18436TIP3    H176799   4.088   3.188  12.494 -2.2913 -0.0248 -1.7184
18436TIP3    H276800   4.071   3.206  12.644  2.4587  0.5005 -1.0824
18437TIP3   OH276801   6.254   3.179   1.476 -0.2938  0.1894  0.6563
18437TIP3    H176802   6.169   3.136   1.481 -0.0305 -0.3494  0.5831
18437TIP3    H276803   6.242   3.262   1.523 -0.8171  0.0495  0.7732
18438TIP3   OH276804   1.386   0.054  16.408 -0.5590  0.3479  0.7503
18438TIP3    H176805   1.400   0.081  16.499 -0.0246  2.5040  0.0867
18438TIP3    H276806   1.405   0.133  16.357  2.3676 -1.6175 -1.4924
18439TIP3   OH276807   5.566   0.739   3.615 -0.2896  0.0120 -0.1095
18439TIP3    H176808   5.619   0.669   3.575 -0.2750 -0.7105  1.1175
18439TIP3    H276809   5.589   0.736   3.708  0.9243  2.7406 -0.2214
18440TIP3   OH276810   0.517   2.802  16.972 -0.0839  0.8668  0.1777
18440TIP3    H176811   0.508   2.810  17.067 -1.3179  2.2439 -0.0176
18440TIP3    H276812   0.466   2.724  16.950 -1.4445  1.6476  0.4628
18441TIP3   OH276813   5.178   6.109  13.874  0.3783 -0.2041  0.2972
18441TIP3    H176814   5.105   6.092  13.934 -0.2038 -1.2968 -0.6711
18441TIP3    H276815   5.231   6.175  13.918 -1.1324  0.5230  1.0831
18442TIP3   OH276816   3.767   2.645   4.141 -0.2611 -0.1102  0.3729
18442TIP3    H176817   3.709   2.636   4.217 -0.0958 -0.8009  0.4206
18442TIP3    H276818   3.856   2.637   4.177 -0.1457  0.5157  0.2393
18443TIP3   OH276819   6.514   0.100   4.147  0.3103  0.2411 -0.5163
18443TIP3    H176820   6.498   0.013   4.111  0.0500  0.0875 -0.0383
18443TIP3    H276821   6.487   0.094   4.239  1.8967  0.3237 -0.0076
18444TIP3   OH276822   6.684   6.282   2.833  0.2062  0.3707 -0.4195
18444TIP3    H176823   6.589   6.286   2.821  0.2844  1.2852 -0.8269
18444TIP3    H276824   6.701   6.340   2.907  0.4102 -0.1177 -0.0780
18445TIP3   OH276825   0.513   4.844  13.959  0.2128 -0.0746 -0.3104
18445TIP3    H176826   0.547   4.781  14.023  1.6696  0.8064 -0.1751
18445TIP3    H276827   0.468   4.790  13.894  0.9498 -1.2070  0.0878
18446TIP3   OH276828   0.620   0.793   0.212 -0.0412  0.1260  0.1807
18446TIP3    H176829   0.589   0.868   0.161 -0.1465  1.3278  1.9015
18446TIP3    H276830   0.673   0.742   0.151  0.3244  1.7913 -0.9677
18447TIP3   OH276831   6.164   2.394  12.855  0.1923  0.8538 -0.4290
18447TIP3    H176832   6.221   2.468  12.872  1.6703 -0.1150 -0.9576
18447TIP3    H276833   6.223   2.320  12.842 -1.1840 -0.2028 -1.0341
18448TIP3   OH276834   4.720   3.837  12.749 -0.1171 -0.1526 -0.4698
18448TIP3    H176835   4.658   3.775  12.788 -1.4715 -0.0806 -2.3696
18448TIP3    H276836   4.667   3.915  12.731  1.3998  1.3776  1.2554
18449TIP3   OH276837   1.717   3.090   6.628  0.2249  0.2448 -0.1472
18449TIP3    H176838   1.653   3.154   6.658 -0.8142  0.0772 -1.8785
18449TIP3    H276839   1.797   3.141   6.612  0.5035  0.4873  1.8091
18450TIP3   OH276840   2.357   0.323  14.469 -0.1242 -0.3916 -0.1941
18450TIP3    H176841   2.262   0.314  14.468 -0.5017  2.3099  1.6120
18450TIP3    H276842   2.372   0.412  14.502  3.0393 -0.6984 -0.5518
18451TIP3   OH276843   5.471   1.847  12.634  0.1112  0.0827 -0.4007
18451TIP3    H176844   5.476   1.772  12.575 -0.0872  0.5241 -0.9874
18451TIP3    H276845   5.447   1.920  12.577  1.0869  0.7515  0.0188
18452TIP3   OH276846   3.648   5.499   5.343 -0.1258  0.3563  0.5022
18452TIP3    H176847   3.683   5.455   5.420  0.8259  1.3632  0.6734
18452TIP3    H276848   3.634   5.429   5.279 -0.8038 -0.4657  1.5329
18453TIP3   OH276849   2.264   2.302  11.236  0.1024  0.1871 -0.7979
18453TIP3    H176850   2.249   2.213  11.206 -1.1443 -0.4211  1.3569
18453TIP3    H276851   2.358   2.307  11.253  0.1167 -0.9071 -0.4667
18454TIP3   OH276852   6.282   5.546   3.153  0.2257 -0.7547  0.0262
18454TIP3    H176853   6.196   5.514   3.129 -1.0570  0.6224  2.3914
18454TIP3    H276854   6.268   5.594   3.235  3.0332  0.5178 -0.1077
18455TIP3   OH276855   0.280   5.253  16.358  0.1361  0.0843 -0.3255
18455TIP3    H176856   0.248   5.324  16.414  0.3241 -1.1223  1.4262
18455TIP3    H276857   0.201   5.221  16.313 -0.7988 -1.1611  1.9745
18456TIP3   OH276858   3.636   6.474   1.013  0.6048  0.0185 -0.7512
18456TIP3    H176859   3.721   6.440   1.040  0.9046  0.2115 -1.4554
18456TIP3    H276860   3.623   6.440   0.925 -0.6789 -1.1684 -0.1554
18457TIP3   OH276861   4.383   4.858   1.427 -0.4424  0.8239 -0.3271
18457TIP3    H176862   4.292   4.881   1.406  0.1655  1.4636 -2.4929
18457TIP3    H276863   4.412   4.926   1.487 -0.6279  2.1706 -1.7019
18458TIP3   OH276864   3.048   1.882   0.406 -0.7858  0.0017  0.6542
18458TIP3    H176865   3.082   1.952   0.462 -1.1411  0.1880  0.6399
18458TIP3    H276866   2.961   1.912   0.381 -0.0981  0.5961 -1.1783
18459TIP3   OH276867   0.617   2.955   5.052 -0.1514  0.5856 -0.3865
18459TIP3    H176868   0.573   2.877   5.087 -0.3381  0.0608 -1.7233
18459TIP3    H276869   0.552   3.024   5.056  0.0849  0.7462  1.0223
18460TIP3   OH276870   1.338   6.607   5.538 -0.2075 -0.2452  0.6272
18460TIP3    H176871   1.360   6.554   5.615  2.5420  3.1115  2.4001
18460TIP3    H276872   1.352   6.548   5.464 -0.8024 -2.9528  2.4992
18461TIP3   OH276873   5.693   2.427  13.916 -0.2111 -0.2433  0.2031
18461TIP3    H176874   5.605   2.390  13.905  0.0645 -0.7928 -0.2378
18461TIP3    H276875   5.741   2.360  13.966  0.0190 -0.0433  0.2508
18462TIP3   OH276876   3.045   0.537   5.160 -0.3675  0.0577 -0.3238
18462TIP3    H176877   3.126   0.545   5.210  0.4631 -0.9823 -1.4715
18462TIP3    H276878   2.987   0.485   5.216 -0.0092  0.2310  0.2125
18463TIP3   OH276879   2.300   3.906  14.730  0.1562 -0.2640  0.6302
18463TIP3    H176880   2.379   3.873  14.687 -0.6737  0.2154 -1.3439
18463TIP3    H276881   2.306   4.001  14.722  0.0034 -0.1584  1.6484
18464TIP3   OH276882   3.195   4.750  16.378  0.6808  0.4532 -0.2421
18464TIP3    H176883   3.107   4.770  16.345 -0.2280 -0.2814  1.5883
18464TIP3    H276884   3.227   4.681  16.320 -2.0230 -2.8565  1.8216
18465TIP3   OH276885   5.362   4.398   0.464 -0.3157 -0.1227 -0.7067
18465TIP3    H176886   5.302   4.466   0.492  0.3122  0.4936 -0.8248
18465TIP3    H276887   5.316   4.351   0.394 -1.6543 -1.2925  0.8877
18466TIP3   OH276888   2.378   6.714   4.695  0.4030 -0.4410 -0.0424
18466TIP3    H176889   2.317   6.783   4.722  1.5898  0.1342  1.3062
18466TIP3    H276890   2.399   6.735   4.604 -0.9703 -0.3428 -0.3573
18467TIP3   OH276891   3.512   1.704  14.474 -0.2781  0.3352  0.2927
18467TIP3    H176892   3.464   1.621  14.476 -0.3189  0.3039 -1.2222
18467TIP3    H276893   3.536   1.716  14.383  1.4044  1.0595  0.7948
18468TIP3   OH276894   6.674   4.949   2.904  0.3292  0.5775  0.4684
18468TIP3    H176895   6.634   4.895   2.837 -0.5771  1.5618  0.2006
18468TIP3    H276896   6.733   5.007   2.857 -0.1748  1.1497  0.5355
18469TIP3   OH276897   0.998   1.150  13.749 -0.0306 -0.1789 -0.0725
18469TIP3    H176898   1.073   1.129  13.693  0.2895 -1.4015  0.7731
18469TIP3    H276899   1.023   1.231  13.793  0.7522 -0.5132  0.1156
18470TIP3   OH276900   5.130   6.265  12.389  1.0127  0.0253 -0.0106
18470TIP3    H176901   5.095   6.204  12.454  0.3875  0.3999  0.0126
18470TIP3    H276902   5.135   6.214  12.308 -0.2076  0.1362 -0.1683
18471TIP3   OH276903   0.839   4.791   2.722  0.1360 -0.6116 -0.1648
18471TIP3    H176904   0.826   4.776   2.629 -0.7978  0.2698 -0.1964
18471TIP3    H276905   0.887   4.713   2.753  2.5259  0.1264 -1.7781
18472TIP3   OH276906   4.056   3.797   0.059  0.0863  0.1603  0.7741
18472TIP3    H176907   4.000   3.861   0.015 -0.3315  0.6558  1.9629
18472TIP3    H276908   4.109   3.849   0.119  0.3593 -0.5234  1.1337
18473TIP3   OH276909   1.648   4.270   3.400 -0.0773  0.1622 -0.1178
18473TIP3    H176910   1.667   4.292   3.309 -2.1443  0.2830 -0.5621
18473TIP3    H276911   1.629   4.353   3.442 -0.2205 -0.0090  0.1574
18474TIP3   OH276912   6.371   6.400   4.250 -0.2173  0.5664  0.0218
18474TIP3    H176913   6.391   6.354   4.331  1.1659  0.5961 -0.2723
18474TIP3    H276914   6.377   6.332   4.182 -0.5551  0.7027 -0.1450
18475TIP3   OH276915   1.365   3.048  16.934  0.3478  0.3842 -0.1414
18475TIP3    H176916   1.367   3.136  16.896  0.7894  1.1779  1.6053
18475TIP3    H276917   1.321   3.059  17.018 -0.4642 -1.2692 -0.3125
18476TIP3   OH276918   5.586   0.703   0.275 -0.1904 -0.3091  0.5429
18476TIP3    H176919   5.520   0.634   0.270  0.6389 -1.2394  1.7559
18476TIP3    H276920   5.603   0.728   0.184 -0.5823 -1.6479  0.0831
18477TIP3   OH276921   0.148   6.192  11.180 -0.1195 -0.6143  0.0755
18477TIP3    H176922   0.137   6.115  11.124 -1.3351  0.4199 -1.1928
18477TIP3    H276923   0.200   6.253  11.127  0.1274 -0.2349  0.7372
18478TIP3   OH276924   5.969   2.838   3.730  0.8088  0.3670  0.5402
18478TIP3    H176925   6.026   2.908   3.760 -1.5993  2.0671  1.5162
18478TIP3    H276926   5.910   2.879   3.667  0.2123 -1.1149  0.0695
18479TIP3   OH276927   0.304   5.208  16.714 -0.0861  0.5296  0.2153
18479TIP3    H176928   0.352   5.127  16.694 -0.4995  0.3533 -0.0730
18479TIP3    H276929   0.218   5.179  16.743 -0.5485  0.8921 -0.7671
18480TIP3   OH276930   2.899   0.472   0.460 -0.3664  0.0754  0.1635
18480TIP3    H176931   2.977   0.481   0.515 -0.5978 -0.9425  0.6857
18480TIP3    H276932   2.828   0.510   0.513 -0.8291 -2.0785  1.1675
18481TIP3   OH276933   4.839   5.692   5.447  0.4704  0.1905  0.1200
18481TIP3    H176934   4.780   5.676   5.373  0.2676 -1.0294  0.5207
18481TIP3    H276935   4.813   5.779   5.480  1.0916  1.1152 -1.6941
18482TIP3   OH276936   4.812   5.129  17.208 -0.1539 -0.2787  0.1345
18482TIP3    H176937   4.837   5.211  17.250 -1.3950  0.1591  0.0615
18482TIP3    H276938   4.812   5.065  17.280 -1.9035  0.3908  0.7793
18483TIP3   OH276939   1.087   0.102   4.398 -0.0616  0.2891  0.1417
18483TIP3    H176940   1.006   0.062   4.367 -0.1448  0.9311 -0.4987
18483TIP3    H276941   1.156   0.041   4.370 -0.4280 -1.4357  2.6563
18484TIP3   OH276942   0.019   1.453  12.222  0.1237 -0.2524  0.0603
18484TIP3    H176943  -0.015   1.481  12.137  1.1762 -0.9395 -0.6230
18484TIP3    H276944  -0.043   1.488  12.286  1.2132  3.5102 -0.6717
18485TIP3   OH276945   5.775   1.166   1.572 -0.1147 -0.3671 -0.2429
18485TIP3    H176946   5.751   1.187   1.481 -0.4069  0.2914 -0.0220
18485TIP3    H276947   5.692   1.144   1.614 -0.6038  2.8168  0.7612
18486TIP3   OH276948   2.970   1.340   6.028  0.0664 -0.0938 -0.0516
18486TIP3    H176949   3.021   1.288   5.967  0.3151 -1.0659  0.9630
18486TIP3    H276950   2.965   1.288   6.107 -2.4270 -0.0175 -0.0596
18487TIP3   OH276951   3.358   5.794   0.666  1.0946  0.0271  0.1065
18487TIP3    H176952   3.341   5.852   0.741  1.7710  0.5777 -0.1589
18487TIP3    H276953   3.286   5.810   0.606  0.9195  0.0899  0.3317
18488TIP3   OH276954   2.335   6.359   5.440  0.2124 -0.2854  0.2908
18488TIP3    H176955   2.371   6.275   5.414  0.2565 -0.8631  2.1201
18488TIP3    H276956   2.382   6.383   5.520 -0.1909  1.2137  0.1252
18489TIP3   OH276957   5.596   2.324   0.978  0.1535 -0.4221  0.1398
18489TIP3    H176958   5.618   2.407   0.936  1.5411 -0.4187  0.8123
18489TIP3    H276959   5.679   2.294   1.016 -0.3148 -2.1067 -0.0768
18490TIP3   OH276960   0.813   4.557   4.746 -0.2852  0.4011 -0.6676
18490TIP3    H176961   0.742   4.586   4.689 -0.4325 -0.7438 -1.1060
18490TIP3    H276962   0.779   4.567   4.834  0.0258  2.4176 -0.7341
18491TIP3   OH276963   5.850   0.610  11.932 -0.1539  0.0521  0.1533
18491TIP3    H176964   5.869   0.533  11.877  0.0897  1.4714 -1.8784
18491TIP3    H276965   5.765   0.641  11.901  0.4365  1.4473 -0.1470
18492TIP3   OH276966   0.360   3.875  15.017 -0.0912 -0.9793 -0.1031
18492TIP3    H176967   0.447   3.865  14.979  0.0108  0.5245 -0.3308
18492TIP3    H276968   0.326   3.955  14.977 -0.2632  0.3042  2.4446
18493TIP3   OH276969   0.020   1.622   3.012 -0.3982  0.5860  0.3043
18493TIP3    H176970   0.077   1.555   3.050 -0.2160 -0.0245 -0.9874
18493TIP3    H276971  -0.068   1.597   3.039 -0.1911  0.7950  1.2236
18494TIP3   OH276972   0.472   5.969   2.596  0.4723 -0.0215 -0.4655
18494TIP3    H176973   0.388   5.937   2.561 -0.5283 -0.7395  2.3421
18494TIP3    H276974   0.528   5.979   2.519 -1.9952 -0.0675 -2.3872
18495TIP3   OH276975   1.840   0.661   2.511 -0.0109 -0.3694 -0.3057
18495TIP3    H176976   1.755   0.692   2.543  0.4825 -0.3786  1.0694
18495TIP3    H276977   1.858   0.583   2.563  0.6364 -0.6254 -0.9034
18496TIP3   OH276978   6.001   4.123   1.076  0.4827  0.0143  0.6598
18496TIP3    H176979   6.071   4.159   1.021  0.5573  1.1345  1.4622
18496TIP3    H276980   5.932   4.190   1.074  0.1110 -0.3479  1.2000
18497TIP3   OH276981   1.595   2.766   3.867  0.0155  0.0637 -0.5744
18497TIP3    H176982   1.689   2.785   3.859  0.2454 -0.8630 -0.2418
18497TIP3    H276983   1.590   2.705   3.940 -0.8727  0.2054 -0.5114
18498TIP3   OH276984   5.863   3.880  11.760  0.0618 -0.1614  0.3313
18498TIP3    H176985   5.873   3.936  11.837 -0.2105 -0.0643  0.2962
18498TIP3    H276986   5.891   3.935  11.687 -0.0442 -0.1267  0.3169
18499TIP3   OH276987   1.353   5.627  16.932  0.2761  0.0697 -0.5770
18499TIP3    H176988   1.289   5.637  17.002  0.2712 -0.3050 -0.5239
18499TIP3    H276989   1.306   5.582  16.862  0.8325 -1.4810 -0.0099
18500TIP3   OH276990   5.536   6.619   5.442 -0.1506  0.1543  0.1596
18500TIP3    H176991   5.543   6.697   5.387 -1.2111  0.1315 -0.0380
18500TIP3    H276992   5.502   6.650   5.526  1.1678  0.1443  0.7108
18501TIP3   OH276993   2.530   0.002   1.302 -0.0974  0.3880 -0.4800
18501TIP3    H176994   2.528   0.074   1.239 -3.0906  2.7555  2.0008
18501TIP3    H276995   2.452   0.015   1.356  0.9586 -2.8977  2.2027
18502TIP3   OH276996   6.106   6.074   6.587 -0.0479  0.2918 -0.5286
18502TIP3    H176997   6.019   6.033   6.581  0.0863 -0.0708 -0.0436
18502TIP3    H276998   6.155   6.036   6.514 -0.3621  0.6635 -0.9383
18503TIP3   OH276999   1.218   6.678  15.594 -0.0997  0.4423  0.1668
18503TIP3    H177000   1.125   6.694  15.582 -0.1101  0.4670  0.2796
18503TIP3    H277001   1.228   6.660  15.688 -0.0845 -0.1822  0.0483
18504TIP3   OH277002   4.811   0.054  13.028 -0.4343  0.3560 -0.0830
18504TIP3    H177003   4.781  -0.010  13.094  0.5395  1.7516  1.8014
18504TIP3    H277004   4.899   0.024  13.005 -0.3423  0.5000  0.0859
18505TIP3   OH277005   0.706   4.927   4.613 -0.1647 -0.2657  0.0372
18505TIP3    H177006   0.646   5.000   4.599  0.9548  0.8667  0.9048
18505TIP3    H277007   0.676   4.885   4.693 -0.4010 -0.3379 -0.0888
18506TIP3   OH277008   5.993   3.699   3.686 -0.0616 -0.0621  0.1816
18506TIP3    H177009   6.061   3.641   3.718  0.1004  0.3228  0.5434
18506TIP3    H277010   5.912   3.649   3.693  0.2121 -0.6230 -0.5121
18507TIP3   OH277011   4.292   2.298  14.324  0.2084  0.2442 -0.0225
18507TIP3    H177012   4.310   2.370  14.384 -0.3621  0.2500  0.1436
18507TIP3    H277013   4.378   2.274  14.289  0.5651  0.1405  0.9013
18508TIP3   OH277014   1.525   4.406   4.786 -0.2579 -0.2761 -0.3746
18508TIP3    H177015   1.456   4.424   4.850  0.7382 -3.2609  1.8097
18508TIP3    H277016   1.567   4.490   4.771 -2.8302  1.1931  0.0480
18509TIP3   OH277017   0.937   0.700   2.072 -0.3500  0.3199  0.3423
18509TIP3    H177018   0.915   0.717   1.980 -0.5093  0.2937  0.3766
18509TIP3    H277019   1.010   0.760   2.090  0.5713 -0.6107 -0.1837
18510TIP3   OH277020   4.000   3.627  13.503 -0.7447 -0.3288 -0.2530
18510TIP3    H177021   3.923   3.667  13.463 -0.1552  1.6467  0.4658
18510TIP3    H277022   4.030   3.691  13.567 -0.2436 -2.3531  1.6539
18511TIP3   OH277023   5.602   3.005  11.571  0.1851  0.1437  0.3722
18511TIP3    H177024   5.696   3.020  11.587  0.2202  1.1589 -0.6439
18511TIP3    H277025   5.581   3.063  11.499 -0.6628 -1.9051 -1.1287
18512TIP3   OH277026   1.091   3.242   1.899  0.2241 -0.1051  0.0390
18512TIP3    H177027   1.124   3.267   1.813  0.0030  0.7267  0.1926
18512TIP3    H277028   1.166   3.254   1.957 -0.0401  0.7734  0.2093
18513TIP3   OH277029   1.891   2.992   2.506 -0.0511 -0.5769 -0.1325
18513TIP3    H177030   1.979   3.030   2.499  0.0406 -0.4496  1.4284
18513TIP3    H277031   1.841   3.036   2.439  0.8740 -0.0419 -0.4906
18514TIP3   OH277032   0.858   1.236   0.280 -0.0050 -0.0345 -0.5362
18514TIP3    H177033   0.890   1.169   0.340  2.0207  1.0961 -0.2414
18514TIP3    H277034   0.876   1.319   0.325 -2.7133  0.7466 -0.7513
18515TIP3   OH277035   1.005   4.650  16.247  0.8727 -0.1754 -0.0837
18515TIP3    H177036   0.957   4.584  16.198  0.9168 -0.2034 -0.0898
18515TIP3    H277037   1.074   4.679  16.187 -0.2262  1.1640 -0.7323
18516TIP3   OH277038   1.676   3.538   3.432  0.5132  0.0397  0.3634
18516TIP3    H177039   1.733   3.587   3.492  0.3281  1.0641 -0.2727
18516TIP3    H277040   1.589   3.574   3.446  0.6041  0.9093 -1.1151
18517TIP3   OH277041   0.595   0.106  12.698 -0.0273 -0.6019 -0.5291
18517TIP3    H177042   0.604   0.024  12.747 -0.7277 -0.2771  0.1534
18517TIP3    H277043   0.605   0.175  12.763 -0.8891 -0.1598 -0.8475
18518TIP3   OH277044   3.402   5.167   4.455 -0.2565 -0.1705 -0.1861
18518TIP3    H177045   3.422   5.261   4.459 -1.5561  0.1241 -0.1993
18518TIP3    H277046   3.448   5.137   4.376 -1.1502  0.8207 -1.1281
18519TIP3   OH277047   6.225   3.957   5.880  0.0707 -0.5913 -0.6288
18519TIP3    H177048   6.176   4.000   5.810  1.3858 -0.7203 -1.6505
18519TIP3    H277049   6.316   3.960   5.852  0.9186  0.9925  1.9229
18520TIP3   OH277050   2.802   3.960   3.058  0.5642  0.4462  0.3008
18520TIP3    H177051   2.735   3.903   3.096 -0.0283  0.6587 -0.4041
18520TIP3    H277052   2.880   3.905   3.053 -0.0797 -0.4343 -0.6660
18521TIP3   OH277053   0.582   3.634  14.418  0.1205 -0.2957 -0.5771
18521TIP3    H177054   0.597   3.672  14.505 -0.4790 -0.0475 -0.5763
18521TIP3    H277055   0.656   3.664  14.366  1.1353 -1.4290  0.1504
18522TIP3   OH277056   1.386   5.596   6.704 -0.2792 -0.3701 -0.1163
18522TIP3    H177057   1.477   5.607   6.733  0.3324 -0.3155 -1.9293
18522TIP3    H277058   1.357   5.516   6.748  0.0433  0.5089  1.8239
18523TIP3   OH277059   3.474   2.752  13.601 -0.6281 -0.2263  0.2751
18523TIP3    H177060   3.559   2.795  13.597  0.8052 -2.7752  1.1135
18523TIP3    H277061   3.415   2.818  13.638  1.2186  1.2450  0.7023
18524TIP3   OH277062   6.372   5.173   5.148  0.1974 -0.3840 -0.6922
18524TIP3    H177063   6.401   5.084   5.127  1.3918  0.1464 -1.4046
18524TIP3    H277064   6.322   5.201   5.071 -1.4488 -0.9273  0.1225
18525TIP3   OH277065   1.698   4.084  13.060 -0.0135  0.5485 -0.1263
18525TIP3    H177066   1.674   4.138  12.985 -0.0804  0.8452  0.1042
18525TIP3    H277067   1.619   4.081  13.113  0.7443  2.5577  1.2606
18526TIP3   OH277068   2.086   0.798  14.196 -1.1070 -0.2008 -0.0626
18526TIP3    H177069   2.149   0.869  14.207 -1.7219  0.3817 -0.2488
18526TIP3    H277070   2.114   0.731  14.258  0.9841 -0.8788 -1.6230
18527TIP3   OH277071   0.292   5.376  14.323 -0.0787  0.2036  0.4297
18527TIP3    H177072   0.381   5.340  14.320 -0.3984 -0.8241  1.9229
18527TIP3    H277073   0.238   5.308  14.282 -0.3123  0.3143  0.5538
18528TIP3   OH277074   0.591   1.470   3.108  0.1013  0.1733 -0.0586
18528TIP3    H177075   0.509   1.475   3.156 -1.1040 -2.8974 -1.5148
18528TIP3    H277076   0.593   1.549   3.054  0.0487  2.1875  2.6965
18529TIP3   OH277077   0.054   4.560   6.047 -0.5653 -0.5596  0.4787
18529TIP3    H177078   0.022   4.650   6.045 -0.3740 -0.4859 -1.1276
18529TIP3    H277079   0.142   4.565   6.009 -0.1229 -1.2752  1.3812
18530TIP3   OH277080   1.379   6.001  14.894  0.4115  0.6488  0.3177
18530TIP3    H177081   1.355   5.944  14.966  2.5232 -3.0662 -1.5835
18530TIP3    H277082   1.439   6.065  14.932  0.2860 -0.2456  2.0821
18531TIP3   OH277083   5.106   5.160   0.128 -0.1954  0.0306 -0.4129
18531TIP3    H177084   5.066   5.236   0.171  2.4370  0.0939  2.2336
18531TIP3    H277085   5.052   5.086   0.156  0.1603  0.3614  1.2523
18532TIP3   OH277086   1.101   4.290  15.442  0.2665  0.3467  0.1605
18532TIP3    H177087   1.026   4.334  15.404  1.8179  1.0994 -2.2462
18532TIP3    H277088   1.091   4.199  15.418 -0.2725  0.2881  0.5836
18533TIP3   OH277089   2.239   0.817   4.108  0.0795 -0.8564 -0.3652
18533TIP3    H177090   2.189   0.798   4.029 -0.2427  1.8589 -0.9151
18533TIP3    H277091   2.176   0.857   4.167  0.3598 -2.6832  1.2884
18534TIP3   OH277092   2.026   1.447  11.525 -0.3992 -0.0673  0.0290
18534TIP3    H177093   2.088   1.456  11.597 -0.0258  0.6581 -0.3608
18534TIP3    H277094   2.020   1.535  11.488 -0.1803 -0.5290 -1.1489
18535TIP3   OH277095   0.224   2.196  13.081 -0.6283  0.0808 -0.0420
18535TIP3    H177096   0.224   2.112  13.126 -2.2638 -0.5721 -1.1470
18535TIP3    H277097   0.280   2.182  13.004 -1.9264 -0.4389 -0.9198
18536TIP3   OH277098   6.136   0.295   2.041  0.1003 -0.1827 -0.1258
18536TIP3    H177099   6.053   0.326   2.004  0.2494  0.1595 -0.1718
18536TIP3    H277100   6.136   0.201   2.023 -0.4972 -0.2745  0.2828
18537TIP3   OH277101   0.993   0.602  13.958  0.1453 -1.2206 -0.0086
18537TIP3    H177102   1.038   0.662  13.899 -1.7429  0.6092  0.2681
18537TIP3    H277103   1.055   0.587  14.029  0.2865  1.4220  0.5106
18538TIP3   OH277104   3.077   3.822   4.215 -0.1128 -0.2392  0.0031
18538TIP3    H177105   3.113   3.739   4.247  0.6784 -0.1924 -0.7449
18538TIP3    H277106   3.003   3.796   4.160 -0.0133 -0.4302 -0.0395
18539TIP3   OH277107   3.195   5.023   5.640  0.1309  0.1758 -0.0762
18539TIP3    H177108   3.286   5.001   5.657  0.0480  1.5815  2.9400
18539TIP3    H277109   3.197   5.110   5.600  0.1207  0.0029 -0.4558
18540TIP3   OH277110   0.990   0.631   5.139  0.2139 -0.5368 -0.5065
18540TIP3    H177111   1.000   0.577   5.218 -1.2573 -1.5637 -0.9888
18540TIP3    H277112   1.043   0.586   5.073 -0.6369 -1.1589 -0.7821
18541TIP3   OH277113   5.403   0.899  16.971 -0.3339 -0.0197 -0.4102
18541TIP3    H177114   5.432   0.963  17.037 -0.4577 -1.2141  0.8377
18541TIP3    H277115   5.484   0.860  16.938 -0.2867  0.3762 -0.7718
18542TIP3   OH277116   4.063   4.063  14.111  0.0490 -0.0202  0.1864
18542TIP3    H177117   4.014   3.990  14.072  0.2706  0.4295 -0.9633
18542TIP3    H277118   3.996   4.120  14.148 -0.2828  0.2840 -0.8444
18543TIP3   OH277119   4.947   0.807  14.635 -0.4985  0.6237  0.1519
18543TIP3    H177120   4.898   0.847  14.706 -0.2346  0.7707  0.2534
18543TIP3    H277121   4.891   0.736  14.604 -0.0141 -0.3406  1.4353
18544TIP3   OH277122   0.525   4.783   1.189  0.7106  0.0546 -0.3744
18544TIP3    H177123   0.464   4.764   1.118  0.4526 -2.2192  0.3798
18544TIP3    H277124   0.472   4.831   1.253  0.3241  0.0953 -0.7177
18545TIP3   OH277125   5.160   1.886  13.517  0.2364  0.0978 -0.0665
18545TIP3    H177126   5.196   1.954  13.461 -0.8561  0.3872 -0.4443
18545TIP3    H277127   5.234   1.828  13.536  1.1566  1.3133  0.1746
18546TIP3   OH277128   2.578   0.907   1.065 -0.4375 -0.3185  0.0622
18546TIP3    H177129   2.601   0.925   0.974 -1.8696 -0.6168 -0.3807
18546TIP3    H277130   2.632   0.831   1.088 -1.0490 -1.1169 -1.0078
18547TIP3   OH277131   5.847   6.393  17.257  0.6958  0.2564 -0.7051
18547TIP3    H177132   5.823   6.364  17.345  0.6278 -0.1350 -0.8532
18547TIP3    H277133   5.900   6.323  17.222 -0.0463 -0.0083 -1.3191
18548TIP3   OH277134   2.162   2.450  13.658  0.7545  0.1835 -0.3583
18548TIP3    H177135   2.116   2.376  13.618  0.5463  0.4550 -0.6237
18548TIP3    H277136   2.237   2.410  13.702  0.3384 -0.2563 -0.0245
18549TIP3   OH277137   1.297   2.797   5.870  0.2889  0.3367  0.5199
18549TIP3    H177138   1.270   2.864   5.933  1.0304  1.0683  0.0854
18549TIP3    H277139   1.392   2.806   5.864  0.1154  1.3666 -1.8610
18550TIP3   OH277140   3.738   0.113  11.857  0.1611 -0.7108 -0.4219
18550TIP3    H177141   3.648   0.128  11.886 -0.3948 -3.6842 -0.3453
18550TIP3    H277142   3.792   0.167  11.915 -1.5087  1.0189 -0.3822
18551TIP3   OH277143   3.775   5.203  15.822  0.4118  0.1526 -0.4363
18551TIP3    H177144   3.766   5.134  15.887 -0.4305  0.4436 -0.2379
18551TIP3    H277145   3.864   5.192  15.787  1.2545  0.6081  1.4495
18552TIP3   OH277146   0.250   5.983   2.940 -0.2000 -0.3578 -0.6137
18552TIP3    H177147   0.252   5.890   2.917  0.6426 -0.1484 -1.4702
18552TIP3    H277148   0.162   6.012   2.915 -1.6093 -1.5407  2.4355
18553TIP3   OH277149   0.288   1.382   2.492 -0.0303  0.6828 -0.1539
18553TIP3    H177150   0.280   1.409   2.583  1.5922  0.2339  0.1565
18553TIP3    H277151   0.314   1.462   2.446 -3.0500  1.4683 -0.6788
18554TIP3   OH277152   4.490   1.428   1.180  0.0967  0.0570 -0.4276
18554TIP3    H177153   4.583   1.407   1.167  0.3408  1.8850 -2.1225
18554TIP3    H277154   4.477   1.418   1.274  1.8700 -0.7819 -0.2230
18555TIP3   OH277155   5.523   3.660  12.063 -0.2259  0.2257  0.1112
18555TIP3    H177156   5.544   3.674  12.156  0.4573  0.4731 -0.0802
18555TIP3    H277157   5.461   3.587  12.064 -1.5388  1.3088  0.8895
18556TIP3   OH277158   0.930   4.963   5.308 -0.1105 -0.3724  0.0743
18556TIP3    H177159   0.971   4.973   5.394  0.4827  0.0058 -0.2443
18556TIP3    H277160   0.983   4.896   5.264 -0.8711 -1.1141  0.2757
18557TIP3   OH277161   6.403   3.032   0.388  0.3609  0.4661  0.1819
18557TIP3    H177162   6.449   3.070   0.463 -0.5990  1.4525  0.2751
18557TIP3    H277163   6.335   3.095   0.366 -0.8663 -0.8932 -0.0569
18558TIP3   OH277164   2.700   3.779   3.851 -0.2649 -1.0255 -0.2064
18558TIP3    H177165   2.687   3.859   3.800 -0.7313 -1.0563 -0.1430
18558TIP3    H277166   2.795   3.775   3.866 -0.3640  0.2030  0.8932
18559TIP3   OH277167   5.789   3.834   0.765  0.0460  0.3257 -0.1557
18559TIP3    H177168   5.717   3.850   0.825 -0.5288  1.2234 -1.0481
18559TIP3    H277169   5.789   3.740   0.751  0.3490  0.0680  1.4224
18560TIP3   OH277170   1.189   4.839  11.221 -0.3419 -0.0251  0.4409
18560TIP3    H177171   1.249   4.783  11.270  0.9060 -0.4515 -1.4826
18560TIP3    H277172   1.229   4.926  11.224  0.1945 -0.2269 -0.4998
18561TIP3   OH277173   1.383   1.370  12.654 -0.0722  0.3663 -0.0483
18561TIP3    H177174   1.327   1.440  12.687 -0.0784  0.0334  0.6772
18561TIP3    H277175   1.347   1.291  12.694  1.0804  0.1838  0.6549
18562TIP3   OH277176   5.915   2.948  12.492  0.2810  0.0809  0.3681
18562TIP3    H177177   5.925   2.891  12.417  0.1797  0.3615  0.1394
18562TIP3    H277178   5.834   2.920  12.533  0.4147 -0.1721  0.4608
18563TIP3   OH277179   6.264   3.297  13.711 -0.2281  0.7061  0.9554
18563TIP3    H177180   6.176   3.259  13.711 -0.1410  0.2153 -2.3487
18563TIP3    H277181   6.250   3.390  13.694 -0.1795  1.5495  4.5697
18564TIP3   OH277182   0.453   6.083   4.156  0.3477 -0.3746 -0.4101
18564TIP3    H177183   0.496   6.131   4.086 -2.1498 -0.4924 -2.1051
18564TIP3    H277184   0.385   6.031   4.113 -3.1073  1.5380  2.2581
18565TIP3   OH277185   3.480   6.237   2.033  0.1586  0.1206 -0.5625
18565TIP3    H177186   3.479   6.159   2.089 -0.4141 -0.7723 -1.7598
18565TIP3    H277187   3.480   6.310   2.094 -3.5533 -0.7225  0.7044
18566TIP3   OH277188   6.275   0.516   1.270 -0.1010 -0.1185  0.3745
18566TIP3    H177189   6.236   0.595   1.233 -1.1900 -1.2384 -1.0259
18566TIP3    H277190   6.240   0.511   1.359 -1.3148  0.1395 -0.0732
18567TIP3   OH277191   3.666   0.986   3.020 -0.1756  0.0129 -0.1158
18567TIP3    H177192   3.572   0.988   2.999 -0.2990  1.6928  0.4326
18567TIP3    H277193   3.668   0.982   3.116  0.3577 -2.1004 -0.1673
18568TIP3   OH277194   3.144   4.291   0.212 -0.2862  0.3381  0.1233
18568TIP3    H177195   3.054   4.273   0.185 -0.1254  0.3081 -0.3961
18568TIP3    H277196   3.175   4.207   0.246  0.8562 -0.8648 -3.3933
18569TIP3   OH277197   0.831   6.157  13.155  0.0274 -0.2017  0.3422
18569TIP3    H177198   0.751   6.193  13.117  0.7388 -0.9390 -2.0132
18569TIP3    H277199   0.802   6.085  13.211 -0.9887  0.0353  0.1296
18570TIP3   OH277200   6.415   0.852  14.185  0.3640  0.5883  0.0814
18570TIP3    H177201   6.376   0.826  14.268  0.9895  0.4994  0.3555
18570TIP3    H277202   6.460   0.934  14.204  0.9452  0.3069 -0.0303
18571TIP3   OH277203   0.623   3.926  14.909 -0.5786  0.6813  0.2570
18571TIP3    H177204   0.618   4.017  14.938 -0.2416  1.3621 -1.7216
18571TIP3    H277205   0.710   3.897  14.938 -0.6665  0.9833  0.8508
18572TIP3   OH277206   3.945   0.949   5.213  0.3654 -0.1287 -0.3109
18572TIP3    H177207   3.987   0.899   5.283 -0.8697 -1.6523 -0.5957
18572TIP3    H277208   4.015   0.962   5.148  0.9192 -0.7947  0.1336
18573TIP3   OH277209   3.418   2.955  14.341  0.5292 -0.1698 -0.4040
18573TIP3    H177210   3.469   2.876  14.360  0.5773  0.0513  0.4298
18573TIP3    H277211   3.327   2.931  14.362  0.5351 -0.0224 -0.2087
18574TIP3   OH277212   4.866   0.995   0.902 -0.2474 -0.0369  0.0835
18574TIP3    H177213   4.903   1.060   0.962 -0.0381 -0.2407  0.1793
18574TIP3    H277214   4.834   0.925   0.959  0.0782 -0.2950 -0.0472
18575TIP3   OH277215   0.955   4.806  13.961 -0.3542  0.1779  0.1310
18575TIP3    H177216   0.907   4.884  13.987  0.6214  0.3294  1.6659
18575TIP3    H277217   1.030   4.839  13.911  0.0592  0.2436  0.7816
18576TIP3   OH277218   0.264   0.429  15.903  0.5378  0.7376 -0.8769
18576TIP3    H177219   0.246   0.515  15.866 -1.9550  0.2602 -0.9804
18576TIP3    H277220   0.197   0.372  15.865  0.0064 -0.5079  1.6854
18577TIP3   OH277221   5.485   2.700   2.096 -0.6459 -0.3164 -0.0917
18577TIP3    H177222   5.398   2.741   2.092 -0.7667 -0.6039 -3.4525
18577TIP3    H277223   5.523   2.718   2.010  1.7191 -2.1622  0.4725
18578TIP3   OH277224   0.624   1.354  15.291  0.6470 -0.8519 -0.2667
18578TIP3    H177225   0.597   1.399  15.372  0.6392 -1.2001 -0.0741
18578TIP3    H277226   0.546   1.352  15.237  1.1262  1.1463 -1.1168
18579TIP3   OH277227   2.993   0.583   3.280  0.5739 -0.0187 -0.1802
18579TIP3    H177228   2.972   0.676   3.273  1.1160  0.1731  0.5648
18579TIP3    H277229   3.003   0.568   3.374 -1.5900 -1.3005 -0.0710
18580TIP3   OH277230   1.905   3.095  14.296  0.4916 -0.0095 -0.2048
18580TIP3    H177231   1.828   3.095  14.352  1.3071 -1.7826  1.0185
18580TIP3    H277232   1.872   3.119  14.209 -1.6866 -1.8148  0.0230
18581TIP3   OH277233   1.598   2.006   0.765 -0.1600 -0.0733 -0.1858
18581TIP3    H177234   1.599   1.932   0.705 -0.2227 -1.4482  1.4229
18581TIP3    H277235   1.544   2.072   0.722 -2.5176 -2.0465 -0.4520
18582TIP3   OH277236   4.870   1.223  11.980  0.5765 -0.2762  0.4175
18582TIP3    H177237   4.923   1.262  12.049  0.5579 -0.2314  0.4065
18582TIP3    H277238   4.924   1.228  11.902  0.4667 -0.0209  0.3570
18583TIP3   OH277239   6.502   0.144  15.138  0.1459  0.2820 -0.0968
18583TIP3    H177240   6.594   0.160  15.156  0.7501  0.6117 -2.9692
18583TIP3    H277241   6.475   0.219  15.085 -1.7155  0.0429  0.4429
18584TIP3   OH277242   0.812   3.945  16.749  0.1564  0.3933  0.2990
18584TIP3    H177243   0.823   3.947  16.845  1.5541  0.8399  0.1601
18584TIP3    H277244   0.879   4.006  16.717  0.1837 -0.3044 -1.0036
18585TIP3   OH277245   4.083   5.055  12.883  0.0919  0.4272 -0.5064
18585TIP3    H177246   4.100   5.134  12.934 -0.8904  1.1432 -1.2365
18585TIP3    H277247   4.114   5.077  12.795  3.4180 -1.4036  0.0354
18586TIP3   OH277248   3.878   2.214  16.082  0.0444  0.1941  0.6210
18586TIP3    H177249   3.853   2.122  16.096  1.3493 -0.2083  0.4531
18586TIP3    H277250   3.903   2.245  16.169  1.1561 -0.1083  0.4192
18587TIP3   OH277251   2.756   5.326   4.299  0.2135 -0.2259  0.1720
18587TIP3    H177252   2.814   5.333   4.224  1.6183  0.4952  1.2890
18587TIP3    H277253   2.688   5.392   4.284 -0.7137 -1.4599 -1.4141
18588TIP3   OH277254   4.714   5.992   2.412 -0.1979  0.4287 -0.0101
18588TIP3    H177255   4.644   6.010   2.474 -0.8550  2.3228 -1.1929
18588TIP3    H277256   4.672   5.998   2.326  1.1809  0.4484 -0.7143
18589TIP3   OH277257   5.409   3.585  11.636 -0.2385 -0.3378 -0.0045
18589TIP3    H177258   5.479   3.591  11.700  2.2885 -0.1397 -2.5917
18589TIP3    H277259   5.388   3.676  11.615  1.1767 -0.3206 -1.5990
18590TIP3   OH277260   6.593   6.427   3.775  0.1565 -0.3892 -0.6368
18590TIP3    H177261   6.680   6.460   3.754 -0.4917  1.5120 -0.5260
18590TIP3    H277262   6.536   6.504   3.772 -1.5269 -1.5643 -0.6546
18591TIP3   OH277263   6.393   6.818   2.032  0.4376 -0.0582  0.0598
18591TIP3    H177264   6.454   6.834   1.959  0.3373  3.9198  0.5967
18591TIP3    H277265   6.307   6.838   1.996  0.4266  2.3613  1.2345
18592TIP3   OH277266   6.566   6.698   0.901 -0.6654  0.1413 -0.2049
18592TIP3    H177267   6.497   6.737   0.848  0.3181 -0.6658 -2.1874
18592TIP3    H277268   6.647   6.730   0.862  0.1214 -1.9982 -0.4403
18593TIP3   OH277269   2.821   1.906  12.877  0.1118  0.4802 -0.0570
18593TIP3    H177270   2.879   1.982  12.878  0.9374 -0.1394 -0.1398
18593TIP3    H277271   2.742   1.936  12.922  0.6605  1.1975  0.4562
18594TIP3   OH277272   5.407   2.941   4.014 -0.3354 -0.1435  0.1412
18594TIP3    H177273   5.414   2.903   4.102 -1.4341 -0.3434  0.1579
18594TIP3    H277274   5.443   3.029   4.024 -0.7832 -0.0333  0.8917
18595TIP3   OH277275   0.619   5.367   0.229  0.1175 -0.0336 -0.2227
18595TIP3    H177276   0.643   5.280   0.194  0.0794  0.3266 -1.1891
18595TIP3    H277277   0.675   5.428   0.181  0.5652  0.4461  0.8776
18596TIP3   OH277278   1.576   3.847   1.839  0.3402 -0.7510 -0.7230
18596TIP3    H177279   1.559   3.804   1.755  1.8331 -0.5641 -1.1590
18596TIP3    H277280   1.653   3.801   1.874  1.4872  1.0073 -0.8224
18597TIP3   OH277281   3.956   3.431  16.698 -0.1528  0.3407  0.3334
18597TIP3    H177282   3.900   3.414  16.623  1.4821 -1.2388 -0.6079
18597TIP3    H277283   3.896   3.433  16.773 -1.6379  0.4451 -0.8252
18598TIP3   OH277284   1.637   5.479   0.534 -0.2343  0.3455 -0.6226
18598TIP3    H177285   1.599   5.392   0.526 -2.0986  0.8341  1.5393
18598TIP3    H277286   1.678   5.479   0.621  1.7614  0.9539 -1.5166
18599TIP3   OH277287   5.418   1.261  16.515  0.4413 -0.3278 -0.5967
18599TIP3    H177288   5.453   1.240  16.601  2.3432 -0.3894 -1.3298
18599TIP3    H277289   5.487   1.313  16.473  0.5614 -2.1884 -2.8927
18600TIP3   OH277290   1.259   0.030   5.602 -1.0453  0.5316 -0.0285
18600TIP3    H177291   1.328   0.086   5.567 -1.4088  1.4407  0.6596
18600TIP3    H277292   1.285  -0.059   5.577 -0.4347  0.9945 -1.1107
18601TIP3   OH277293   5.729   2.693   4.156 -0.1663 -0.1317  0.5419
18601TIP3    H177294   5.692   2.730   4.235  0.3239  0.7214  0.3779
18601TIP3    H277295   5.655   2.651   4.112 -1.7369  4.0375 -1.2841
18602TIP3   OH277296   0.990   1.558   2.828  0.0203  0.5059 -0.1285
18602TIP3    H177297   1.049   1.580   2.900  0.7928 -0.8078 -0.3164
18602TIP3    H277298   1.032   1.483   2.785 -2.0745 -0.8865  0.1086
18603TIP3   OH277299   2.334   0.029   0.989  0.0210 -0.2274  0.0802
18603TIP3    H177300   2.380   0.095   1.040 -2.3596  2.0491 -0.5459
18603TIP3    H277301   2.300  -0.032   1.054  2.5825 -1.2185  0.6423
18604TIP3   OH277302   6.610   3.520   5.738  0.0409  0.0254 -1.0158
18604TIP3    H177303   6.589   3.600   5.689  0.2886  0.0273 -1.1222
18604TIP3    H277304   6.527   3.492   5.775  0.2653  1.5592  0.8446
18605TIP3   OH277305   2.776   1.434   5.723  0.1700  0.0456 -0.2348
18605TIP3    H177306   2.866   1.420   5.694  0.5692  0.2694  0.8494
18605TIP3    H277307   2.752   1.518   5.684  1.3135  1.2058  1.4375
18606TIP3   OH277308   4.522   2.692  12.459  0.4410  0.0426  0.0206
18606TIP3    H177309   4.484   2.636  12.391 -0.2916 -0.5340  0.8763
18606TIP3    H277310   4.446   2.725  12.507  0.9611  0.1230  0.7990
18607TIP3   OH277311   3.537   2.086   1.464 -0.6605  0.0056  0.6319
18607TIP3    H177312   3.619   2.047   1.434 -0.7422  0.1468  0.2178
18607TIP3    H277313   3.552   2.106   1.556  0.8494  2.7182 -0.0798
18608TIP3   OH277314   0.089   3.393  12.243  0.5178 -0.6486 -0.0896
18608TIP3    H177315   0.127   3.478  12.268  0.6806  0.0170 -2.3724
18608TIP3    H277316   0.108   3.385  12.150 -4.3447 -0.5271 -1.3700
18609TIP3   OH277317   5.924   5.136  16.155 -0.3673  0.2833 -0.2922
18609TIP3    H177318   5.863   5.209  16.151  0.1068  0.6665 -0.7514
18609TIP3    H277319   5.928   5.103  16.065  1.7330  1.6439 -0.7649
18610TIP3   OH277320   5.992   4.240   5.483  0.5865  0.2152 -0.0665
18610TIP3    H177321   5.938   4.319   5.491 -1.2601 -1.0477  0.5386
18610TIP3    H277322   6.008   4.213   5.574  0.3272 -0.6553 -0.2687
18611TIP3   OH277323   0.658   1.224  12.714  0.5544  0.6326  0.4606
18611TIP3    H177324   0.595   1.189  12.777  0.0394  1.1099  0.2236
18611TIP3    H277325   0.645   1.319  12.718  1.2942  0.7394  0.4387
18612TIP3   OH277326   0.937   3.972   1.435  0.5466  0.3433  0.2124
18612TIP3    H177327   0.971   3.892   1.475  0.2778 -0.3649 -0.9462
18612TIP3    H277328   0.844   3.953   1.419  0.5576  0.7558 -0.3824
18613TIP3   OH277329   6.217   1.802   5.769 -0.8223 -0.5157  0.2400
18613TIP3    H177330   6.132   1.845   5.771  0.3592  2.0539 -0.0992
18613TIP3    H277331   6.199   1.713   5.740 -3.1200  0.7439 -2.6795
18614TIP3   OH277332   4.317   6.207   2.991  0.2387 -0.0615  0.0411
18614TIP3    H177333   4.342   6.148   3.062 -1.5826 -2.1238 -0.9180
18614TIP3    H277334   4.388   6.271   2.987  2.1546 -1.9504  1.4090
18615TIP3   OH277335   1.208   0.164   0.582 -0.2741 -0.1405  0.4288
18615TIP3    H177336   1.204   0.223   0.506  1.3160  0.9423  1.1316
18615TIP3    H277337   1.215   0.076   0.544 -1.7431  0.1703 -0.6408
18616TIP3   OH277338   3.202   6.579   4.894 -0.5750  0.5667 -0.0778
18616TIP3    H177339   3.249   6.639   4.952  0.2469 -0.0139 -0.1247
18616TIP3    H277340   3.210   6.494   4.937  1.3491 -0.1738 -1.7237
18617TIP3   OH277341   1.846   1.598  15.673 -0.2220 -0.2929 -0.4685
18617TIP3    H177342   1.828   1.514  15.629 -2.2724  0.2641 -0.8028
18617TIP3    H277343   1.826   1.664  15.606  0.2190  0.4989  0.1699
18618TIP3   OH277344   0.553   1.653  14.530 -0.0297  0.2037 -0.2927
18618TIP3    H177345   0.642   1.647  14.496  0.1284  2.3600 -0.3651
18618TIP3    H277346   0.499   1.607  14.466  1.0241 -1.4193 -0.0841
18619TIP3   OH277347   6.014   2.475  13.246  0.7992 -0.7310  0.3809
18619TIP3    H177348   6.032   2.382  13.253 -0.0542 -0.7826  3.9113
18619TIP3    H277349   6.051   2.513  13.326  0.1298  1.7658 -0.4067
18620TIP3   OH277350   5.230   6.269  11.865  0.0613  0.7929 -0.4562
18620TIP3    H177351   5.236   6.188  11.814 -0.5073  1.4986 -1.6833
18620TIP3    H277352   5.320   6.302  11.869  0.2324  0.3183 -0.2928
18621TIP3   OH277353   0.547   6.604   4.841 -0.2663  0.0548  0.0358
18621TIP3    H177354   0.587   6.598   4.928 -2.7651 -1.5317  1.1991
18621TIP3    H277355   0.497   6.685   4.843  2.4120  1.8903 -1.3181
18622TIP3   OH277356   0.972   5.421   1.174  0.0677  0.0715 -0.0331
18622TIP3    H177357   1.052   5.427   1.122  0.2904  0.5261  0.3519
18622TIP3    H277358   0.913   5.367   1.122  0.5518 -0.0960 -0.4157
18623TIP3   OH277359   5.198   0.847   3.875 -0.2325  0.3777 -0.3924
18623TIP3    H177360   5.231   0.761   3.899 -0.5788  0.5478  0.7766
18623TIP3    H277361   5.111   0.852   3.916  0.3332  1.7796  0.7596
18624TIP3   OH277362   2.194   1.879  15.325 -0.2298  0.0173 -0.3956
18624TIP3    H177363   2.283   1.910  15.309 -0.0815  0.5024  1.1662
18624TIP3    H277364   2.206   1.797  15.373 -0.6413 -1.5355 -2.7846
18625TIP3   OH277365   1.273   3.024  17.175 -0.2871  0.0360 -0.3211
18625TIP3    H177366   1.330   3.076  17.233 -0.8448 -0.2077  0.4672
18625TIP3    H277367   1.272   2.937  17.214  2.0653 -1.1376 -2.6030
18626TIP3   OH277368   4.521   6.383   2.950 -0.0925  0.4752  0.7893
18626TIP3    H177369   4.560   6.411   2.868 -2.5651  1.7344 -0.0527
18626TIP3    H277370   4.539   6.454   3.011  1.0743 -0.1059  1.1377
18627TIP3   OH277371   3.391   5.801   3.136  0.0138  0.0974 -0.2212
18627TIP3    H177372   3.354   5.713   3.138 -2.3523  1.0406  0.2426
18627TIP3    H277373   3.394   5.828   3.228  1.0637  0.4102 -0.3267
18628TIP3   OH277374   5.502   6.809   1.283 -0.8951 -0.6987 -0.1823
18628TIP3    H177375   5.431   6.832   1.223 -0.8308  0.6725  0.2445
18628TIP3    H277376   5.539   6.892   1.310  0.5892 -1.3693 -0.0232
18629TIP3   OH277377   5.607   1.195   2.337  0.1649  0.1182 -0.4019
18629TIP3    H177378   5.697   1.227   2.345  0.3780  0.5757 -3.4137
18629TIP3    H277379   5.553   1.269   2.365  0.6971  0.2369  0.3471
18630TIP3   OH277380   3.258   1.212  16.281 -0.0928 -0.5312  0.2116
18630TIP3    H177381   3.255   1.184  16.372  0.9908  1.0752  0.7750
18630TIP3    H277382   3.166   1.229  16.258 -0.3417 -0.6805  1.0796
18631TIP3   OH277383   1.793   2.345  13.860  0.0356 -0.1377 -0.7178
18631TIP3    H177384   1.825   2.420  13.910  0.0238 -1.1230  0.8243
18631TIP3    H277385   1.709   2.324  13.900 -0.0466 -0.8615 -1.2501
18632TIP3   OH277386   6.248   3.535  15.114  0.2325 -0.6855 -0.5753
18632TIP3    H177387   6.335   3.500  15.133 -0.2318 -1.5358  0.0289
18632TIP3    H277388   6.237   3.608  15.175  0.3655 -0.8215 -0.3894
18633TIP3   OH277389   0.671   6.195   4.509  0.3276 -0.5330 -0.1456
18633TIP3    H177390   0.641   6.286   4.513  0.0869 -0.5479 -1.2814
18633TIP3    H277391   0.743   6.191   4.572  1.7047  0.9949 -1.5095
18634TIP3   OH277392   2.411   4.446   4.925 -0.4472 -0.6273  0.5373
18634TIP3    H177393   2.426   4.433   4.832  0.0996  0.4198  0.4629
18634TIP3    H277394   2.331   4.499   4.929 -0.0486 -0.0231  0.6225
18635TIP3   OH277395   0.014   1.221   2.830  0.2600  0.7943 -0.2218
18635TIP3    H177396   0.004   1.206   2.736  1.3982 -2.4913  0.0717
18635TIP3    H277397   0.074   1.153   2.859  0.5753  2.2109  2.7924
18636TIP3   OH277398   3.185   1.111  12.956 -0.3396  0.1353  0.1243
18636TIP3    H177399   3.264   1.161  12.937 -0.9369  2.0988  2.4062
18636TIP3    H277400   3.129   1.124  12.879  0.9377 -0.1268 -0.8962
18637TIP3   OH277401   2.536   1.011   4.272 -0.2165  0.3099  0.3536
18637TIP3    H177402   2.584   1.091   4.251  0.0589  0.4268  1.3688
18637TIP3    H277403   2.586   0.941   4.229  0.4474  0.5159  0.7660
18638TIP3   OH277404   5.021   5.890  12.888  0.4155 -0.1502  0.4999
18638TIP3    H177405   4.984   5.819  12.834 -0.2408 -1.1841  2.2387
18638TIP3    H277406   5.111   5.899  12.857 -0.0958 -0.3087 -1.1373
18639TIP3   OH277407   4.824   6.243  11.782 -0.2523  0.3358  0.3123
18639TIP3    H177408   4.903   6.298  11.782 -1.1054  1.6043 -0.4075
18639TIP3    H277409   4.842   6.176  11.716 -0.2610  1.3706 -0.7698
18640TIP3   OH277410   6.054   5.387   1.986  0.3716  0.1313 -0.5639
18640TIP3    H177411   6.007   5.369   2.067 -0.6523 -1.6784 -1.5151
18640TIP3    H277412   5.987   5.384   1.918  1.7596 -2.5133 -1.9657
18641TIP3   OH277413   2.887   5.631  11.138  0.2921 -0.0452  0.5521
18641TIP3    H177414   2.848   5.717  11.122 -2.9832 -1.2031  1.3803
18641TIP3    H277415   2.828   5.569  11.094  2.7699 -1.9013 -0.3749
18642TIP3   OH277416   5.600   0.067   1.664  0.0572 -0.0496 -0.1931
18642TIP3    H177417   5.584  -0.025   1.641  0.2203 -0.3788  0.9683
18642TIP3    H277418   5.529   0.090   1.724 -1.0131  1.1470 -1.8191
18643TIP3   OH277419   6.564   5.150  15.288 -0.5015 -0.1161 -0.3348
18643TIP3    H177420   6.607   5.235  15.294  0.7070 -0.8459  2.3219
18643TIP3    H277421   6.506   5.147  15.364 -1.1031 -1.4057 -0.8161
18644TIP3   OH277422   5.090   2.671   3.175 -0.4822 -0.2440 -0.0022
18644TIP3    H177423   5.094   2.576   3.166  2.3877 -0.2619  0.7215
18644TIP3    H277424   5.146   2.704   3.105  1.0341  0.7288  1.6027
18645TIP3   OH277425   3.005   4.830   5.300 -0.3665 -0.4986 -0.1766
18645TIP3    H177426   2.966   4.918   5.295 -1.6039 -0.8598  2.1073
18645TIP3    H277427   2.976   4.795   5.384  2.1274 -2.1720  0.0954
18646TIP3   OH277428   1.921   6.132  12.829 -0.3183 -0.0592  0.1455
18646TIP3    H177429   1.950   6.217  12.863 -1.1033  0.6176 -0.8364
18646TIP3    H277430   2.001   6.093  12.793  0.1138  0.1143  0.8926
18647TIP3   OH277431   1.626   3.703  16.359  0.1539 -0.3949 -0.0578
18647TIP3    H177432   1.652   3.677  16.271 -0.0956  0.0978 -0.2814
18647TIP3    H277433   1.658   3.793  16.369 -1.3241  0.1845 -0.3062
18648TIP3   OH277434   6.142   6.497  12.904 -0.1981  0.1694 -0.0793
18648TIP3    H177435   6.173   6.440  12.974  0.6500  2.4183  1.5051
18648TIP3    H277436   6.052   6.518  12.928  0.6984  2.5540  1.6076
18649TIP3   OH277437   2.507   5.481   3.481  0.2537 -0.2702 -0.1073
18649TIP3    H177438   2.493   5.391   3.510 -0.9102  0.6085  2.3660
18649TIP3    H277439   2.420   5.522   3.488  0.7085  0.9893 -1.4279
18650TIP3   OH277440   0.964   0.246  12.627 -0.0651 -0.8263  0.6775
18650TIP3    H177441   0.949   0.226  12.720  2.3255  0.5286  1.4585
18650TIP3    H277442   1.057   0.227  12.614  0.4742  2.1415 -0.5229
18651TIP3   OH277443   3.685   1.876  11.798  0.2134  0.0670  0.3851
18651TIP3    H177444   3.763   1.845  11.845  0.3947 -0.5985 -0.3293
18651TIP3    H277445   3.718   1.901  11.711 -0.3280  0.0438  0.1719
18652TIP3   OH277446   2.113   0.432  12.145 -0.4452  0.3207  0.1684
18652TIP3    H177447   2.128   0.355  12.199 -1.4022 -1.0357 -1.4175
18652TIP3    H277448   2.060   0.491  12.200  0.7064  0.0892  1.5608
18653TIP3   OH277449   2.952   3.882   5.384 -1.1228  0.4902  0.1966
18653TIP3    H177450   2.928   3.912   5.472 -0.0456  0.6534  0.4494
18653TIP3    H277451   3.034   3.927   5.365 -0.6187 -0.6060 -0.3197
18654TIP3   OH277452   3.047   5.641   0.069 -0.7034  0.4574 -0.2417
18654TIP3    H177453   2.954   5.631   0.088 -0.1910  0.1193  2.6099
18654TIP3    H277454   3.090   5.577   0.126  1.2888  0.3484 -1.7449
18655TIP3   OH277455   2.052   4.812   5.381  0.1719  0.0308 -0.5893
18655TIP3    H177456   2.029   4.864   5.458 -1.8536 -1.0762 -0.3817
18655TIP3    H277457   2.101   4.737   5.416  1.1133  0.6157 -0.6357
18656TIP3   OH277458   0.675   5.313   4.272 -0.1988  0.1340 -0.1501
18656TIP3    H177459   0.695   5.241   4.212 -0.3060  0.3694 -0.4669
18656TIP3    H277460   0.648   5.269   4.353  2.4061 -0.2279  0.6212
18657TIP3   OH277461   0.650   2.861   3.682 -0.1475 -0.2527 -0.6972
18657TIP3    H177462   0.622   2.844   3.772  0.0240 -0.6662 -0.7200
18657TIP3    H277463   0.654   2.774   3.641  0.8839 -0.1886 -0.7681
18658TIP3   OH277464   6.431   1.579  15.955 -0.0415 -0.1904  0.0706
18658TIP3    H177465   6.490   1.562  16.029  0.0677 -1.0593 -0.2129
18658TIP3    H277466   6.358   1.628  15.994  0.8944  0.9927  0.4038
18659TIP3   OH277467   4.722   4.136  15.871 -0.9112  0.6428  0.2626
18659TIP3    H177468   4.652   4.177  15.922 -2.1884 -1.0917  0.0050
18659TIP3    H277469   4.737   4.197  15.799 -3.1120  0.5059 -0.4091
18660TIP3   OH277470   2.200   4.041   2.617 -0.2875 -0.3919  0.2265
18660TIP3    H177471   2.277   4.075   2.662 -1.4229  1.2660  1.0714
18660TIP3    H277472   2.222   4.045   2.524  1.8100 -3.1068  0.4945
18661TIP3   OH277473   4.664   3.892  15.790 -0.3212  0.3152  0.2670
18661TIP3    H177474   4.708   3.923  15.711 -0.6966  0.0642 -0.0450
18661TIP3    H277475   4.643   3.971  15.840 -1.7335  0.6272 -0.7611
18662TIP3   OH277476   4.154   0.051  14.569 -0.0164  0.1491 -0.2392
18662TIP3    H177477   4.099   0.006  14.633 -0.2842 -0.0416 -0.6036
18662TIP3    H277478   4.097   0.065  14.493 -0.3709  2.3479  0.3567
18663TIP3   OH277479   1.560   3.332  14.080 -0.3309 -0.3198  0.0910
18663TIP3    H177480   1.632   3.306  14.023 -0.2063  1.6182 -0.7041
18663TIP3    H277481   1.602   3.363  14.160 -0.2201  1.2595 -0.5560
18664TIP3   OH277482   4.116   6.594   0.369  0.2357  0.3061 -0.1935
18664TIP3    H177483   4.174   6.670   0.381 -0.0108  0.7148 -1.4670
18664TIP3    H277484   4.029   6.632   0.360 -0.0207 -0.2037  0.0814
18665TIP3   OH277485   4.492   4.963   4.062 -0.3230  0.7340 -0.4645
18665TIP3    H177486   4.549   5.027   4.104  0.6140 -0.6170  0.4246
18665TIP3    H277487   4.452   5.010   3.989  3.2966  1.3353 -2.2734
18666TIP3   OH277488   4.053   6.789  13.371 -0.1302 -0.6936 -0.2464
18666TIP3    H177489   4.078   6.855  13.435 -2.4005 -1.7583  1.8962
18666TIP3    H277490   4.134   6.742  13.351  0.5575 -0.7516  2.4093
18667TIP3   OH277491   5.625   5.895   5.779 -0.4737 -0.2819  0.4757
18667TIP3    H177492   5.552   5.957   5.778  0.2840  0.6407  0.1328
18667TIP3    H277493   5.619   5.851   5.863 -0.9429  0.3863  0.7991
18668TIP3   OH277494   1.167   5.155   4.496  0.8009  0.0631 -0.4860
18668TIP3    H177495   1.121   5.239   4.507 -0.0137 -0.4162 -0.1271
18668TIP3    H277496   1.123   5.096   4.557  0.6985 -0.8869 -1.4463
18669TIP3   OH277497   3.439   1.065   3.536 -0.6238 -0.5904  0.2603
18669TIP3    H177498   3.381   1.017   3.597  0.0691  1.3729  2.6187
18669TIP3    H277499   3.379   1.114   3.481 -1.2748 -0.1079  1.3631
18670TIP3   OH277500   0.995   1.167   1.268  0.0967 -0.4261  0.2038
18670TIP3    H177501   1.080   1.123   1.260  0.3316 -0.1790  1.2328
18670TIP3    H277502   1.010   1.253   1.230 -0.5466 -1.3765 -2.4618
18671TIP3   OH277503   5.661   2.469   0.720  0.4009  0.0730 -0.5684
18671TIP3    H177504   5.679   2.536   0.654 -0.3569  0.0344 -0.8177
18671TIP3    H277505   5.584   2.423   0.688  0.4291 -0.3933  0.0087
18672TIP3   OH277506   3.615   2.777  12.937 -0.6366  0.0820 -0.2795
18672TIP3    H177507   3.534   2.759  12.890 -0.5764  0.9698 -0.7690
18672TIP3    H277508   3.589   2.792  13.027 -0.8927 -0.6112 -0.2408
18673TIP3   OH277509   0.154   3.137  15.703 -0.0510  0.5176 -0.4917
18673TIP3    H177510   0.108   3.053  15.696  0.9945 -0.1290  0.0904
18673TIP3    H277511   0.094   3.194  15.751  0.1344 -0.6215  1.1638
18674TIP3   OH277512   1.537   4.630  14.398 -0.2454  0.3576  0.3168
18674TIP3    H177513   1.614   4.666  14.356 -0.7942  0.9941 -0.1685
18674TIP3    H277514   1.477   4.610  14.326  0.0231 -1.5291  0.5543
18675TIP3   OH277515   5.220   0.440   3.001 -0.0431 -0.2772  0.2343
18675TIP3    H177516   5.183   0.529   3.007 -1.4103 -0.6695 -1.6154
18675TIP3    H277517   5.311   0.454   2.976 -0.0266  0.6159  0.7366
18676TIP3   OH277518   2.956   1.731   4.380 -0.4089 -0.0218  0.2741
18676TIP3    H177519   2.958   1.821   4.411 -4.0499 -0.2756  1.7761
18676TIP3    H277520   2.984   1.735   4.289 -2.3542  3.0113 -0.3129
18677TIP3   OH277521   2.882   3.163   4.377 -0.3711 -0.6725  0.3014
18677TIP3    H177522   2.889   3.098   4.446  0.1566 -0.6241  0.2985
18677TIP3    H277523   2.788   3.182   4.370 -0.4215 -0.6422  1.0378
18678TIP3   OH277524   5.780   3.530   5.405  0.9187 -0.0126 -0.5660
18678TIP3    H177525   5.721   3.472   5.358  0.2597  2.2201 -2.7090
18678TIP3    H277526   5.855   3.542   5.346  1.2515  0.9286  0.0186
18679TIP3   OH277527   1.603   4.329  14.235  0.4272  0.2111  0.8091
18679TIP3    H177528   1.563   4.299  14.154 -0.6564  1.4905  0.8469
18679TIP3    H277529   1.695   4.343  14.212  0.0501  0.9678 -0.3195
18680TIP3   OH277530   5.840   4.689   2.228 -0.1694 -0.1689  0.6929
18680TIP3    H177531   5.855   4.761   2.168 -0.0147  0.2671  1.2448
18680TIP3    H277532   5.920   4.636   2.223 -0.6914 -0.8772 -0.4760
18681TIP3   OH277533   6.124   0.866  15.904  0.3779 -0.4639  0.3280
18681TIP3    H177534   6.193   0.913  15.857  0.6728 -1.7842 -0.6372
18681TIP3    H277535   6.052   0.861  15.842 -0.9457  1.5510  1.5855
18682TIP3   OH277536   3.019   3.954  13.276 -0.0926 -0.0287 -0.6435
18682TIP3    H177537   3.028   4.044  13.309  1.0251  0.7958 -2.9349
18682TIP3    H277538   3.006   3.901  13.354 -0.2205  2.0494  0.8445
18683TIP3   OH277539   0.318   5.617   5.439 -0.7025 -0.1281 -0.1194
18683TIP3    H177540   0.237   5.632   5.487  0.2259 -0.0575  1.5222
18683TIP3    H277541   0.297   5.636   5.348 -2.9095 -1.5750  0.0169
18684TIP3   OH277542   5.607   4.109   5.107 -0.5252 -0.0061 -0.0807
18684TIP3    H177543   5.559   4.191   5.101  0.2347  0.5354  0.8673
18684TIP3    H277544   5.699   4.135   5.106 -0.2546 -0.9274 -0.7110
18685TIP3   OH277545   0.730   1.440  15.571  0.6108 -0.0801  0.0356
18685TIP3    H177546   0.743   1.347  15.589 -1.0690 -0.0018  2.0165
18685TIP3    H277547   0.814   1.470  15.536  2.1833 -1.7009  2.2011
18686TIP3   OH277548   3.546   1.774   1.210  0.1512 -0.4655 -0.5935
18686TIP3    H177549   3.523   1.867   1.211 -0.2541 -0.5613  0.4469
18686TIP3    H277550   3.590   1.760   1.126  0.4512  0.7224 -0.6421
18687TIP3   OH277551   4.480   4.515  16.946 -0.3713 -0.7644 -0.4740
18687TIP3    H177552   4.448   4.523  16.856  0.7987 -0.6937 -0.9021
18687TIP3    H277553   4.543   4.586  16.956 -0.1056 -1.0870  0.2253
18688TIP3   OH277554   0.979   0.541  13.542  0.1351 -0.0210  0.1707
18688TIP3    H177555   0.924   0.613  13.575 -0.7050 -0.5638 -0.0159
18688TIP3    H277556   0.973   0.474  13.610  3.1637  1.0967  1.7225
18689TIP3   OH277557   0.301   0.436  14.874 -0.3416 -0.4656  0.1403
18689TIP3    H177558   0.299   0.481  14.958 -1.7415  0.2887 -0.2544
18689TIP3    H277559   0.393   0.436  14.849  0.1438 -1.0028  1.8043
18690TIP3   OH277560   6.599   6.785   1.439  0.0479  0.2659  0.8157
18690TIP3    H177561   6.612   6.762   1.347 -0.9143  0.1934  0.6816
18690TIP3    H277562   6.523   6.844   1.438  0.6903  1.1376  1.4597
18691TIP3   OH277563   5.646   1.310   6.562  0.0261  0.1727 -0.1927
18691TIP3    H177564   5.608   1.336   6.646  0.5405  0.6687 -0.1014
18691TIP3    H277565   5.727   1.360   6.557  1.9265 -2.5740  0.7234
18692TIP3   OH277566   3.744   4.112   1.988  0.0032 -0.0993 -0.3440
18692TIP3    H177567   3.682   4.055   2.034  0.6717 -0.6090 -0.0595
18692TIP3    H277568   3.756   4.070   1.902 -1.2557  0.8584 -1.0290
18693TIP3   OH277569   3.277   1.391   6.182 -0.1762  0.3065  0.1773
18693TIP3    H177570   3.323   1.467   6.217 -1.7596  0.7681  1.3908
18693TIP3    H277571   3.307   1.384   6.092  0.3866  2.0669  0.1930
18694TIP3   OH277572   4.523   0.944   3.211  0.6174  0.1168 -0.4973
18694TIP3    H177573   4.612   0.930   3.243 -0.3217  0.3975  2.5246
18694TIP3    H277574   4.521   1.036   3.184  1.1112  0.2572 -0.0673
18695TIP3   OH277575   6.563   4.240  13.270 -0.7033  0.1868  0.3434
18695TIP3    H177576   6.545   4.183  13.344 -0.3947  0.0362  0.3027
18695TIP3    H277577   6.641   4.203  13.228 -1.6249 -0.4936 -0.8372
18696TIP3   OH277578   3.038   3.507   1.943  0.1581 -0.0540 -0.1549
18696TIP3    H177579   2.950   3.493   1.977 -0.3269  1.5762 -0.6185
18696TIP3    H277580   3.058   3.428   1.893 -0.1243 -1.3952  1.7825
18697TIP3   OH277581   5.850   2.757  13.184  0.3205 -0.1185 -0.3643
18697TIP3    H177582   5.900   2.743  13.264 -0.7634  0.8753  0.5166
18697TIP3    H277583   5.900   2.823  13.135 -0.8204  2.0502  1.2249
18698TIP3   OH277584   0.852   2.755   0.092  0.1485  0.0526 -0.3846
18698TIP3    H177585   0.882   2.846   0.091  1.1483 -0.1074  2.8815
18698TIP3    H277586   0.797   2.747   0.014  1.8998  2.7433 -2.0700
18699TIP3   OH277587   1.536   2.321  16.896 -0.2513  0.8667  0.3294
18699TIP3    H177588   1.481   2.400  16.897  0.3360  1.3334 -1.4840
18699TIP3    H277589   1.626   2.354  16.900 -0.0174  0.2287  0.5383
18700TIP3   OH277590   0.911   6.023  12.125  0.0785 -0.2789  0.5825
18700TIP3    H177591   0.971   6.091  12.095 -0.8891 -1.0521 -3.9520
18700TIP3    H277592   0.967   5.957  12.165  1.8200  0.5542 -0.3683
18701TIP3   OH277593   4.745   1.651  12.597  0.0482 -0.1154  0.1275
18701TIP3    H177594   4.706   1.573  12.557  0.2531  0.0910 -0.4931
18701TIP3    H277595   4.716   1.723  12.541 -0.5219  0.3189  0.9616
18702TIP3   OH277596   6.476   0.130  17.016 -0.4555 -0.0763  0.0232
18702TIP3    H177597   6.518   0.049  16.987 -2.8246 -1.3125 -0.2069
18702TIP3    H277598   6.519   0.151  17.099  0.2736 -1.5170  0.0387
18703TIP3   OH277599   6.330   1.484   3.090  0.0500 -0.2160  0.0867
18703TIP3    H177600   6.305   1.408   3.037  0.1220 -0.5528  0.5341
18703TIP3    H277601   6.322   1.454   3.180  0.7493  0.0987  0.2539
18704TIP3   OH277602   1.934   3.076  11.697 -0.3322 -0.3255  0.3895
18704TIP3    H177603   2.007   3.131  11.724 -1.5199  1.6723 -0.2869
18704TIP3    H277604   1.901   3.115  11.617 -1.8672 -1.4354  0.4159
18705TIP3   OH277605   6.753   1.023  12.798 -0.0598  0.3832 -0.3771
18705TIP3    H177606   6.700   1.040  12.720  2.0622  0.1280 -1.9959
18705TIP3    H277607   6.795   0.939  12.780  0.4521  0.3143  1.0736
18706TIP3   OH277608   4.964   6.196   4.588  0.1236  0.1581 -0.0904
18706TIP3    H177609   5.001   6.128   4.532  0.3362 -0.0065  0.2442
18706TIP3    H277610   4.930   6.148   4.664 -0.1760  0.3759 -0.0868
18707TIP3   OH277611   0.837   6.087  14.030  0.7284  0.4570  0.4754
18707TIP3    H177612   0.868   6.171  13.996  1.3854  0.2047  0.4380
18707TIP3    H277613   0.803   6.041  13.953  2.5348 -0.2558  0.0513
18708TIP3   OH277614   0.955   0.044  17.118  0.3339 -0.0179  0.1929
18708TIP3    H177615   0.906   0.021  17.040  0.3039 -0.0796  0.2301
18708TIP3    H277616   1.007  -0.035  17.138  0.4418  0.0442  0.1578
18709TIP3   OH277617   3.605   0.227   5.980 -0.1010  0.4082  0.8224
18709TIP3    H177618   3.683   0.278   5.959 -0.3295 -0.1781 -1.7364
18709TIP3    H277619   3.553   0.284   6.037  0.8756  1.9655  0.1927
18710TIP3   OH277620   3.146   6.422   3.098 -0.2028  0.8552  0.1513
18710TIP3    H177621   3.170   6.436   3.007 -1.4133  0.3393 -0.2696
18710TIP3    H277622   3.217   6.462   3.148  1.0071  0.2206 -1.0018
18711TIP3   OH277623   6.350   2.232  11.216 -0.3051  0.3886 -0.3805
18711TIP3    H177624   6.384   2.146  11.192  3.1586  1.3750  0.4585
18711TIP3    H277625   6.350   2.281  11.134  0.2813  0.3515 -0.4053
18712TIP3   OH277626   0.768   4.152   4.695  0.1586  0.2879  0.1426
18712TIP3    H177627   0.802   4.218   4.635 -0.0449  1.5424  1.3284
18712TIP3    H277628   0.754   4.200   4.777 -2.0000 -0.7394  0.4626
18713TIP3   OH277629   6.781   4.848   2.017 -0.3522 -0.3251  0.1421
18713TIP3    H177630   6.864   4.824   2.057  0.0126 -0.8589 -0.8944
18713TIP3    H277631   6.796   4.936   1.982 -0.4302 -0.1671  0.5009
18714TIP3   OH277632   0.344   5.517   1.703 -0.6907 -0.1079  0.0276
18714TIP3    H177633   0.325   5.584   1.637  1.1733  0.4732  0.0251
18714TIP3    H277634   0.408   5.558   1.761  1.7194 -2.3214 -0.8509
18715TIP3   OH277635   2.389   2.811   5.599  0.0951  0.1603  0.6763
18715TIP3    H177636   2.459   2.808   5.534  0.3100 -0.4602  0.9416
18715TIP3    H277637   2.432   2.835   5.681  0.1140 -0.9277  0.9944
18716TIP3   OH277638   4.547   6.608  17.004  0.7639  0.0459 -0.6594
18716TIP3    H177639   4.628   6.574  17.041 -0.0766 -3.0567 -1.3021
18716TIP3    H277640   4.480   6.581  17.067  0.0305  0.8001 -1.0997
18717TIP3   OH277641   0.359   0.969  13.414 -1.3202 -0.1817  0.2696
18717TIP3    H177642   0.360   0.878  13.443 -1.6775 -0.2654  0.0209
18717TIP3    H277643   0.285   0.975  13.355 -0.1536 -0.1944 -1.2601
18718TIP3   OH277644   5.633   0.199   0.257 -0.1317  0.0659  0.1566
18718TIP3    H177645   5.550   0.165   0.289  0.3740 -1.5939 -0.2096
18718TIP3    H277646   5.699   0.147   0.302  0.6715  0.3730 -0.6348
18719TIP3   OH277647   2.591   4.356  12.788 -0.2418 -0.0974 -0.0474
18719TIP3    H177648   2.678   4.350  12.748  0.7193  1.4809  1.6552
18719TIP3    H277649   2.549   4.430  12.744  0.0491  0.3887  0.4884
18720TIP3   OH277650   3.047   5.289  14.919  0.4499  0.1506 -0.4269
18720TIP3    H177651   3.005   5.280  14.834 -1.2849 -2.9648  0.5928
18720TIP3    H277652   3.106   5.213  14.925  1.0480  0.6905  0.8733
18721TIP3   OH277653   1.128   2.683  12.603 -0.2903  0.0627 -0.1902
18721TIP3    H177654   1.036   2.692  12.580 -0.0982  0.2577 -0.9005
18721TIP3    H277655   1.136   2.594  12.638 -0.2967 -0.8600 -2.3778
18722TIP3   OH277656   5.064   4.301   0.429  0.2377  0.0394 -0.6502
18722TIP3    H177657   5.112   4.268   0.353 -0.1819  0.0260 -0.9160
18722TIP3    H277658   5.077   4.235   0.497  2.1896  0.9479 -0.0781
18723TIP3   OH277659   1.493   0.965  14.129  0.1441 -0.9166  0.2077
18723TIP3    H177660   1.588   0.964  14.114  0.1717  0.9276  0.1342
18723TIP3    H277661   1.456   1.003  14.049 -0.3324  1.6637  1.5461
18724TIP3   OH277662   3.306   0.049   2.160  0.3733  0.1035 -0.1113
18724TIP3    H177663   3.390   0.088   2.137  0.4293  1.8614  2.6561
18724TIP3    H277664   3.327  -0.043   2.178  1.5974  0.3837 -0.0053
18725TIP3   OH277665   3.361   5.767  15.966  0.5722  0.1241 -0.0872
18725TIP3    H177666   3.335   5.687  15.919  1.9930  1.2543 -3.0358
18725TIP3    H277667   3.282   5.821  15.967  0.1055 -0.5531  0.2569
18726TIP3   OH277668   0.549   3.550   1.873  0.1145 -0.7177  0.1422
18726TIP3    H177669   0.611   3.623   1.881 -1.2281  0.3900  0.7508
18726TIP3    H277670   0.593   3.488   1.815  1.3470  0.5120 -0.2959
18727TIP3   OH277671   3.940   5.502   0.297  0.5861  0.3635  0.0008
18727TIP3    H177672   4.021   5.518   0.345  0.4718  0.5634  0.1274
18727TIP3    H277673   3.885   5.454   0.360  0.7794 -0.1778 -0.2412
18728TIP3   OH277674   6.741   4.158  16.352  0.5558  0.2148  0.4554
18728TIP3    H177675   6.709   4.208  16.277 -3.3159  0.5844  2.1585
18728TIP3    H277676   6.790   4.221  16.404 -0.4368  1.0917  0.3550
18729TIP3   OH277677   4.685   5.549  11.627 -0.0143 -0.1501 -0.0617
18729TIP3    H177678   4.752   5.482  11.612  0.2503  0.3376 -1.1049
18729TIP3    H277679   4.666   5.584  11.540 -0.8144  0.4990  0.3651
18730TIP3   OH277680   5.282   1.868  17.016 -0.1127  0.3101 -0.3931
18730TIP3    H177681   5.279   1.821  17.099  4.3276  0.2852  0.0150
18730TIP3    H277682   5.251   1.956  17.037  2.7753  0.9294  2.0105
18731TIP3   OH277683   4.030   3.262  13.204  0.1040 -0.3906  0.2043
18731TIP3    H177684   4.114   3.308  13.196  0.4768 -1.0194  0.4349
18731TIP3    H277685   4.036   3.191  13.140  0.4454 -1.4728  1.3985
18732TIP3   OH277686   2.904   4.519   1.052  0.8667 -0.0519  0.0609
18732TIP3    H177687   2.907   4.572   0.972 -1.2064  0.5578  0.3213
18732TIP3    H277688   2.812   4.493   1.060  1.1314 -0.5610  1.9379
18733TIP3   OH277689   2.061   0.985  11.543  0.0234  0.1967  0.2106
18733TIP3    H177690   1.992   1.049  11.529  0.5655  1.0872  1.4233
18733TIP3    H277691   2.139   1.037  11.564  0.3194 -0.8480  1.9122
18734TIP3   OH277692   3.670   4.016   5.983 -0.1951  0.5028  0.0413
18734TIP3    H177693   3.719   4.004   6.064 -0.7271  0.9533  0.4402
18734TIP3    H277694   3.604   3.947   5.985 -1.9530  2.1033  1.3473
18735TIP3   OH277695   5.779   5.489   5.059  0.3987  0.0937 -0.0894
18735TIP3    H177696   5.714   5.505   5.128  0.1020 -1.1595 -0.0475
18735TIP3    H277697   5.824   5.572   5.048 -1.3592  1.0724 -0.2711
18736TIP3   OH277698   0.573   5.763  15.508 -0.3237  0.2282 -0.2860
18736TIP3    H177699   0.554   5.834  15.570 -1.5605 -1.1261  0.9746
18736TIP3    H277700   0.629   5.703  15.557 -2.8520 -1.8297  0.3589
18737TIP3   OH277701   1.538   4.904  11.775  0.7473  0.0495  0.0944
18737TIP3    H177702   1.580   4.846  11.839  0.8335 -0.5295 -0.4784
18737TIP3    H277703   1.452   4.866  11.762  0.3197  0.7802  0.6590
18738TIP3   OH277704   3.493   5.500  14.610  0.2810 -0.0488  0.4017
18738TIP3    H177705   3.406   5.506  14.649 -0.1436  2.3932 -0.7331
18738TIP3    H277706   3.481   5.529  14.520  2.0122 -1.2005 -0.2530
18739TIP3   OH277707   2.854   2.908  11.810 -0.2259 -0.0839  0.0482
18739TIP3    H177708   2.759   2.924  11.809 -0.1483  0.4761  0.7502
18739TIP3    H277709   2.879   2.917  11.902  0.6036  0.3084 -0.2067
18740TIP3   OH277710   1.853   5.844  16.005 -0.4191  0.5606  0.1603
18740TIP3    H177711   1.812   5.771  16.051 -0.9815  1.2244  0.7324
18740TIP3    H277712   1.939   5.853  16.046  0.2976 -0.7391 -0.9431
18741TIP3   OH277713   6.759   2.734   5.559 -0.3226  0.0935  0.4761
18741TIP3    H177714   6.695   2.735   5.488 -0.6147  1.4204  0.7313
18741TIP3    H277715   6.750   2.647   5.598 -1.6508  0.0935  0.2138
18742TIP3   OH277716   2.075   4.108  14.991 -0.1523  0.0706  0.1316
18742TIP3    H177717   2.170   4.119  14.998 -0.3816  1.3991  1.9420
18742TIP3    H277718   2.042   4.195  14.968 -1.1351  0.5070  2.8447
18743TIP3   OH277719   4.646   1.134  12.380  0.1533 -0.1069 -0.2062
18743TIP3    H177720   4.667   1.193  12.307 -2.8474  4.4351  2.1036
18743TIP3    H277721   4.698   1.165  12.453  1.3779 -3.0704  0.3380
18744TIP3   OH277722   4.539   2.298  15.216 -0.2149  0.1454 -0.0777
18744TIP3    H177723   4.548   2.386  15.252 -3.5417 -1.1389  4.8684
18744TIP3    H277724   4.445   2.282  15.212  0.2253 -3.4005  0.0331
18745TIP3   OH277725   1.792   4.501  12.979  0.1112  0.4731  0.0737
18745TIP3    H177726   1.876   4.456  12.975  0.2283  0.7184 -0.2678
18745TIP3    H277727   1.731   4.443  12.934  0.1690  0.4477  0.0287
18746TIP3   OH277728   3.993   1.475  17.149 -0.1084 -0.1021  0.0604
18746TIP3    H177729   4.026   1.561  17.123 -1.2259  0.6381  0.9655
18746TIP3    H277730   4.023   1.416  17.080  0.8701  0.9651 -0.4727
18747TIP3   OH277731   6.790   5.669   2.254  0.3559  0.8673  0.1712
18747TIP3    H177732   6.777   5.610   2.328  0.3210  2.8044  1.7791
18747TIP3    H277733   6.713   5.725   2.254 -0.8592 -0.5878 -2.8979
18748TIP3   OH277734   3.243   5.951  12.204  1.0783 -0.1038 -0.3765
18748TIP3    H177735   3.295   6.008  12.262  2.2985 -0.9722 -0.5795
18748TIP3    H277736   3.202   6.012  12.143  0.7495  0.7280  0.6383
18749TIP3   OH277737   6.220   5.363  15.224 -0.5249 -0.0540  0.2880
18749TIP3    H177738   6.195   5.374  15.315 -0.1344 -0.1478  0.4070
18749TIP3    H277739   6.296   5.420  15.213 -0.1965 -0.5132  0.1775
18750TIP3   OH277740   5.720   1.526  14.565  0.3238  0.0990 -0.2731
18750TIP3    H177741   5.666   1.603  14.581  0.2656  0.1472 -0.6949
18750TIP3    H277742   5.778   1.552  14.493  0.9047  0.0460  0.1662
18751TIP3   OH277743   2.565   5.353  11.296  0.1928  0.7840  0.0428
18751TIP3    H177744   2.643   5.370  11.350  0.1691  2.2586 -0.3493
18751TIP3    H277745   2.493   5.392  11.345 -0.2217 -0.0697  0.1257
18752TIP3   OH277746   3.297   4.748  10.701 -0.5782  0.2161 -0.2438
18752TIP3    H177747   3.204   4.733  10.715 -0.4231 -0.0400  0.5331
18752TIP3    H277748   3.306   4.755  10.606 -1.5954  1.5913 -0.2792
18753TIP3   OH277749   1.721   1.129  14.983 -0.2707 -0.1620 -0.4672
18753TIP3    H177750   1.644   1.094  15.028 -0.8642 -2.1671 -2.8525
18753TIP3    H277751   1.780   1.054  14.973  0.9375  0.8020 -0.8173
18754TIP3   OH277752   1.400   5.507   3.472  0.2771  0.5043  0.4412
18754TIP3    H177753   1.403   5.417   3.438 -0.7422  0.8168 -0.5778
18754TIP3    H277754   1.382   5.497   3.565 -3.1929 -0.4018 -0.1637
18755TIP3   OH277755   1.739   5.926  12.052 -0.5577 -0.1160  0.0684
18755TIP3    H177756   1.728   5.995  12.118  0.6823  0.6094 -0.4520
18755TIP3    H277757   1.750   5.973  11.970 -0.3321 -0.9671 -0.3945
18756TIP3   OH277758   3.076   3.710  14.714  0.0126 -0.1172  0.2307
18756TIP3    H177759   3.049   3.666  14.633 -1.0547  0.7766  0.0763
18756TIP3    H277760   2.995   3.717  14.765  0.2123  1.3357  0.3845
18757TIP3   OH277761   1.823   2.207  13.562 -0.3160 -0.5342  0.8026
18757TIP3    H177762   1.766   2.224  13.487 -1.0237 -1.5611  1.0799
18757TIP3    H277763   1.810   2.282  13.619  0.0602  0.1493  0.0124
18758TIP3   OH277764   2.001   1.278  11.287 -0.6861  0.7175 -0.3312
18758TIP3    H177765   2.069   1.345  11.279  1.5531 -0.8850  3.0267
18758TIP3    H277766   1.929   1.323  11.331 -0.2267  1.5502 -0.4060
18759TIP3   OH277767   3.533   2.013  16.610 -0.5245 -0.2865 -0.2863
18759TIP3    H177768   3.590   2.089  16.600  1.3040 -1.1345  2.2435
18759TIP3    H277769   3.483   2.031  16.690 -1.9780 -0.6842 -1.0696
18760TIP3   OH277770   2.597   6.262  15.911  0.5614 -0.2911 -0.0676
18760TIP3    H177771   2.691   6.273  15.919  0.7499 -1.8215  0.1689
18760TIP3    H277772   2.577   6.185  15.964 -0.9338  0.3967  0.4256
18761TIP3   OH277773   0.971   3.760  14.399 -0.0074 -0.7101  0.1595
18761TIP3    H177774   0.987   3.811  14.479 -1.0600 -1.5981  0.9727
18761TIP3    H277775   0.926   3.820  14.340  0.3424 -0.1851  0.4213
18762TIP3   OH277776   3.432   0.084   0.413  0.5048  0.1892 -0.1312
18762TIP3    H177777   3.469   0.016   0.355  0.4965  0.1554 -0.0966
18762TIP3    H277778   3.493   0.157   0.405  0.6673  0.0736  0.0519
18763TIP3   OH277779   1.297   3.340   2.072  0.2655  0.5355 -0.1166
18763TIP3    H177780   1.281   3.371   2.161  1.5033  2.7352 -0.5831
18763TIP3    H277781   1.347   3.411   2.030  0.1730 -0.6467 -2.4071
18764TIP3   OH277782   0.935   4.097   4.053 -0.0825  0.1723  0.1192
18764TIP3    H177783   0.869   4.153   4.010  0.2603  0.4756 -0.0138
18764TIP3    H277784   0.963   4.147   4.130 -0.5778 -0.3007  0.6196
18765TIP3   OH277785   3.366   1.561  10.245  0.3086  0.1636 -0.3098
18765TIP3    H177786   3.398   1.473  10.222 -0.0957 -0.4692  1.3680
18765TIP3    H277787   3.443   1.617  10.237  0.8842 -0.5849 -0.2274
18766TIP3   OH277788   2.516   2.302   5.797 -0.5161  0.5536  0.3619
18766TIP3    H177789   2.529   2.389   5.834 -0.3138  0.7552 -0.1736
18766TIP3    H277790   2.599   2.256   5.812 -0.8064  0.2625  1.1325
18767TIP3   OH277791   2.625   5.424   0.878  0.5468  0.2473  0.0059
18767TIP3    H177792   2.560   5.484   0.842 -0.6886 -0.1563  1.4787
18767TIP3    H277793   2.660   5.469   0.955  1.0741 -0.0769 -0.0381
18768TIP3   OH277794   0.242   4.067   1.907  0.0160 -0.2590  0.5177
18768TIP3    H177795   0.208   4.135   1.967  0.2398 -1.0471  1.5681
18768TIP3    H277796   0.222   3.985   1.952  1.8800 -0.8057  0.3897
18769TIP3   OH277797   1.881   2.622  11.040  0.3123 -0.2235  0.8113
18769TIP3    H177798   1.877   2.535  11.001 -0.8644  0.3006 -0.3045
18769TIP3    H277799   1.897   2.682  10.967 -0.8862  0.6712  1.2336
18770TIP3   OH277800   2.483   3.730  15.774 -0.6724  0.4064  0.4170
18770TIP3    H177801   2.396   3.770  15.782 -0.8653  0.2219 -0.5627
18770TIP3    H277802   2.478   3.677  15.694  0.8517  1.7231 -0.6130
18771TIP3   OH277803   6.605   2.366   1.431 -0.1776  0.7591  0.6381
18771TIP3    H177804   6.678   2.403   1.482  0.4754  1.5451 -0.8093
18771TIP3    H277805   6.648   2.314   1.363 -0.9799  0.7860  0.1040
18772TIP3   OH277806   6.036   4.821  14.658 -0.2226  0.1477 -0.3873
18772TIP3    H177807   5.990   4.876  14.595 -1.2116 -1.5311 -1.2024
18772TIP3    H277808   6.058   4.881  14.730 -0.2544  1.8183 -1.6952
18773TIP3   OH277809   3.531   5.376  11.153  0.0028 -0.1073  0.4129
18773TIP3    H177810   3.578   5.346  11.075 -2.0282  1.0759 -1.3893
18773TIP3    H277811   3.557   5.468  11.162 -1.0528  0.2327  0.0843
18774TIP3   OH277812   6.122   4.240  14.620 -0.1228  0.0844  0.2018
18774TIP3    H177813   6.142   4.178  14.691  2.2709  0.4131 -0.1084
18774TIP3    H277814   6.111   4.185  14.543 -0.6508 -0.1200  0.4141
18775TIP3   OH277815   1.686   3.272   3.291  0.6853 -0.5162  0.2235
18775TIP3    H177816   1.626   3.209   3.332 -0.2179 -0.0871 -0.4131
18775TIP3    H277817   1.662   3.356   3.329  2.1514 -0.5695  1.3625
18776TIP3   OH277818   5.555   0.031  10.687 -0.0082  0.1043 -0.2169
18776TIP3    H177819   5.504   0.040  10.767 -0.1951 -2.2818  0.0060
18776TIP3    H277820   5.490   0.030  10.617  0.0193  0.4999 -0.2498
18777TIP3   OH277821   1.327   0.181  15.355 -0.0419 -0.0033  0.3029
18777TIP3    H177822   1.317   0.180  15.450 -0.2326  0.2471  0.2856
18777TIP3    H277823   1.247   0.138  15.323  0.1964 -0.4270  0.2697
18778TIP3   OH277824   1.087   1.938   4.601  0.1281 -1.1239 -0.4952
18778TIP3    H177825   1.029   1.962   4.529  1.9750  0.9245 -1.4294
18778TIP3    H277826   1.155   2.005   4.600 -0.2464 -0.3709  3.8040
18779TIP3   OH277827   1.165   5.241   2.115  0.5995 -0.6986 -0.0536
18779TIP3    H177828   1.224   5.174   2.149  0.2947 -1.9423 -1.8477
18779TIP3    H277829   1.078   5.204   2.125  0.3948 -0.3907 -0.6654
18780TIP3   OH277830   4.086   2.237  13.610  0.0264 -0.2867 -0.0949
18780TIP3    H177831   4.047   2.233  13.697  2.7747  1.4131  1.3860
18780TIP3    H277832   4.091   2.331  13.591  1.9022 -0.4948 -0.8239
18781TIP3   OH277833   5.133   2.462  14.042  0.3574 -0.7698 -0.1664
18781TIP3    H177834   5.102   2.534  14.097  0.2114 -0.5997 -0.4725
18781TIP3    H277835   5.213   2.432  14.085  1.9095  1.2805 -1.4370
18782TIP3   OH277836   4.866   3.220  16.798  0.7618 -0.7244  0.1214
18782TIP3    H177837   4.873   3.143  16.854 -1.6322 -0.6326  0.6721
18782TIP3    H277838   4.868   3.294  16.858 -0.6922 -0.5780  0.0370
18783TIP3   OH277839   3.141   1.803  16.290 -0.1476  0.1289  0.2475
18783TIP3    H177840   3.073   1.848  16.340 -0.3605  0.8860 -0.7049
18783TIP3    H277841   3.184   1.746  16.354 -3.6357 -2.7407  0.3488
18784TIP3   OH277842   4.602   4.722   5.832  0.4712  0.3469  0.2798
18784TIP3    H177843   4.613   4.782   5.758  0.4644 -0.9418 -0.8160
18784TIP3    H277844   4.586   4.779   5.907  0.2776  1.6965 -0.7386
18785TIP3   OH277845   5.640   6.806   1.980  0.1831 -0.2807 -0.0405
18785TIP3    H177846   5.558   6.856   1.973  0.5825  0.4130  0.1084
18785TIP3    H277847   5.650   6.791   2.074 -0.1484 -1.0081 -0.1204
18786TIP3   OH277848   6.271   0.370  13.635  0.7964 -0.3559 -0.4903
18786TIP3    H177849   6.321   0.377  13.717  0.4092 -3.3529  0.1012
18786TIP3    H277850   6.211   0.445  13.638  0.6841 -0.4507  2.0900
18787TIP3   OH277851   0.202   4.197   0.901  0.0609  0.3956 -0.2926
18787TIP3    H177852   0.221   4.108   0.932 -1.3885 -0.2338 -1.0857
18787TIP3    H277853   0.111   4.212   0.927  0.6718  2.1625  0.9239
18788TIP3   OH277854   3.370   2.011   5.018 -0.0955 -0.6035 -0.3845
18788TIP3    H177855   3.457   2.006   5.059 -1.0879 -1.3026  1.7673
18788TIP3    H277856   3.324   1.934   5.050 -1.4886 -0.3353 -1.6275
18789TIP3   OH277857   1.801   3.799   1.341 -0.3197 -0.1300 -0.4769
18789TIP3    H177858   1.810   3.789   1.246 -0.0968  0.9920 -0.5883
18789TIP3    H277859   1.834   3.887   1.359  2.6804 -1.4152  1.0498
18790TIP3   OH277860   0.088   5.262   4.778 -0.1141  0.3616  0.5340
18790TIP3    H177861   0.061   5.341   4.731  0.0317  1.2618  1.8939
18790TIP3    H277862   0.065   5.280   4.869  0.0718 -1.1142  0.8909
18791TIP3   OH277863   1.231   3.293  13.571 -0.1366  0.0578  0.6525
18791TIP3    H177864   1.295   3.240  13.523 -0.5296  0.3159 -0.1929
18791TIP3    H277865   1.156   3.298  13.511 -0.2084  1.3265  0.8334
18792TIP3   OH277866   5.351   4.666   1.752 -0.0605 -0.3876 -0.4320
18792TIP3    H177867   5.358   4.760   1.736  2.1079 -0.2637  0.9370
18792TIP3    H277868   5.260   4.653   1.779 -0.8726  1.0082 -2.2686
18793TIP3   OH277869   2.657   4.027   1.165 -0.4480 -0.1372  0.2232
18793TIP3    H177870   2.646   3.955   1.103 -1.1046  0.6118 -0.5565
18793TIP3    H277871   2.704   3.989   1.239  0.9425 -0.8946 -1.0174
18794TIP3   OH277872   6.257   5.429   3.515 -0.0920  0.1946  0.2189
18794TIP3    H177873   6.231   5.512   3.555  3.7957  1.6843  0.1783
18794TIP3    H277874   6.260   5.367   3.587  1.4269  1.4104  1.2836
18795TIP3   OH277875   0.845   5.644  16.874  0.1700  0.3040  0.3556
18795TIP3    H177876   0.891   5.727  16.877  1.3297 -0.2948 -0.1286
18795TIP3    H277877   0.852   5.609  16.964  0.4985  0.3072  0.3329
18796TIP3   OH277878   4.884   4.896  14.430  0.4681  0.1200  0.2326
18796TIP3    H177879   4.833   4.917  14.508  1.9018 -0.1602  1.2823
18796TIP3    H277880   4.819   4.874  14.364 -0.7736  0.2101  1.3893
18797TIP3   OH277881   4.421   2.898   0.671  0.3706  0.0063 -0.1102
18797TIP3    H177882   4.425   2.838   0.745  2.5271 -0.1707 -0.3008
18797TIP3    H277883   4.406   2.984   0.711 -1.1372 -0.4131  0.2829
18798TIP3   OH277884   1.146   2.961  15.768  0.2156 -0.1917 -0.1297
18798TIP3    H177885   1.184   3.016  15.836  0.8201  0.2410 -0.8035
18798TIP3    H277886   1.127   3.021  15.696 -0.7108 -0.5890 -0.2274
18799TIP3   OH277887   5.630   1.895  15.338  0.2672  0.4003 -0.0184
18799TIP3    H177888   5.609   1.803  15.348  0.3544  0.5356  1.8109
18799TIP3    H277889   5.721   1.897  15.308  0.2217 -0.1004 -0.1893
18800TIP3   OH277890   0.644   2.641   3.492  0.3918  0.4095 -0.1040
18800TIP3    H177891   0.729   2.641   3.448  0.4184  1.0880 -0.0640
18800TIP3    H277892   0.586   2.686   3.430  0.5265  1.7681  0.7190
18801TIP3   OH277893   0.826   2.063   5.513 -0.0610 -0.0841 -0.3383
18801TIP3    H177894   0.851   1.974   5.486  0.1193 -0.1641  0.0942
18801TIP3    H277895   0.909   2.106   5.535 -0.1937  0.0328 -0.0609
18802TIP3   OH277896   3.995   0.265  12.437 -0.0411  0.2530 -0.0700
18802TIP3    H177897   3.998   0.252  12.532  0.8706  0.4043 -0.0701
18802TIP3    H277898   4.019   0.180  12.401 -1.0255  0.0110 -0.1880
18803TIP3   OH277899   2.833   0.853  13.155 -0.3882  0.3275  0.0488
18803TIP3    H177900   2.841   0.896  13.070 -0.7840 -0.6447 -0.4900
18803TIP3    H277901   2.879   0.912  13.216  0.0108  0.9640 -0.8484
18804TIP3   OH277902   4.709   6.125   2.069 -0.4470  0.1320  0.2465
18804TIP3    H177903   4.768   6.161   2.002  0.6111 -2.7009 -0.5025
18804TIP3    H277904   4.626   6.113   2.023 -0.9999  2.0690  0.6771
18805TIP3   OH277905   3.427   2.920  16.285 -0.3881 -0.6303 -0.1853
18805TIP3    H177906   3.425   2.971  16.205 -2.9908 -1.1463 -0.5269
18805TIP3    H277907   3.387   2.836  16.261 -1.0994 -0.8454  1.6138
18806TIP3   OH277908   5.550   4.919  15.867  0.8207  0.4426 -0.7409
18806TIP3    H177909   5.503   4.859  15.809 -0.5288  0.1491  0.5920
18806TIP3    H277910   5.531   4.886  15.956 -0.0607  2.8601  0.0498
18807TIP3   OH277911   2.470   1.569  11.884 -0.2236 -0.2005  0.5928
18807TIP3    H177912   2.556   1.532  11.903  0.0202 -1.0423 -1.8189
18807TIP3    H277913   2.477   1.661  11.910  1.7350 -0.0218 -0.3943
18808TIP3   OH277914   1.349   0.026  14.147  0.7870  0.3750 -0.1278
18808TIP3    H177915   1.429  -0.026  14.157  0.4899 -0.4025 -1.4978
18808TIP3    H277916   1.377   0.117  14.158  2.1476  0.2222 -2.0395
18809TIP3   OH277917   4.117   4.608  15.920  0.1869 -0.0017  0.2002
18809TIP3    H177918   4.055   4.666  15.877  0.9909  1.4641  0.9570
18809TIP3    H277919   4.068   4.527  15.935 -1.0835  0.6175 -0.4881
18810TIP3   OH277920   4.643   6.566   5.883 -0.0176  0.7697 -0.2550
18810TIP3    H177921   4.629   6.631   5.952 -0.7030  0.1874  0.1634
18810TIP3    H277922   4.681   6.491   5.928  1.3517  1.0760 -0.8364
18811TIP3   OH277923   1.637   4.622  15.303 -0.3529  0.2709  0.6366
18811TIP3    H177924   1.631   4.619  15.207  1.7306  1.0672  0.4550
18811TIP3    H277925   1.545   4.625  15.331 -1.0473 -0.5691 -1.2830
18812TIP3   OH277926   4.209   0.077   4.543 -0.1508 -0.2824  0.0550
18812TIP3    H177927   4.233   0.119   4.460 -0.7723  1.1926  0.5983
18812TIP3    H277928   4.221  -0.017   4.526  0.8008  0.0586 -1.3462
18813TIP3   OH277929   6.058   5.587   2.803  0.2161  0.1019  0.3110
18813TIP3    H177930   6.044   5.514   2.743  0.2093  0.5369 -0.2262
18813TIP3    H277931   6.017   5.661   2.760 -0.2832  0.3044  1.1236
18814TIP3   OH277932   0.725   5.140  14.873 -0.5611 -0.3712  0.3702
18814TIP3    H177933   0.766   5.059  14.841 -1.4560 -0.8753  0.4817
18814TIP3    H277934   0.654   5.157  14.811 -0.1057  0.5946  0.0788
18815TIP3   OH277935   2.773   3.565   5.667 -0.4666  0.3310  0.3283
18815TIP3    H177936   2.743   3.568   5.758 -0.8722  2.4430  0.1538
18815TIP3    H277937   2.859   3.606   5.669  0.7006 -1.9063  0.1160
18816TIP3   OH277938   1.680   3.260  15.014 -0.5848  0.7121 -0.4418
18816TIP3    H177939   1.649   3.313  15.087 -0.5608  0.7398 -0.4523
18816TIP3    H277940   1.772   3.242  15.034 -0.9463 -0.4925  0.2683
18817TIP3   OH277941   3.962   5.493  13.781  0.7620  0.3181  0.0709
18817TIP3    H177942   4.054   5.510  13.801  1.3495 -2.0507 -0.3492
18817TIP3    H277943   3.957   5.493  13.686  0.3715  0.1731  0.0895
18818TIP3   OH277944   5.722   2.102   3.041  0.1923  0.1167  0.4638
18818TIP3    H177945   5.755   2.021   3.080 -2.4803 -1.6367 -0.5804
18818TIP3    H277946   5.716   2.083   2.947 -2.0010  0.8429  0.3873
18819TIP3   OH277947   5.785   3.133  14.754  0.4671 -0.1726 -0.4927
18819TIP3    H177948   5.809   3.211  14.804  1.4824 -0.5106 -0.4109
18819TIP3    H277949   5.754   3.166  14.670 -0.2962  0.3611 -0.0115
18820TIP3   OH277950   4.058   2.177   1.908  0.5151  0.0915 -0.0049
18820TIP3    H177951   4.137   2.224   1.880  1.5465 -0.6346  1.5384
18820TIP3    H277952   4.090   2.091   1.933 -0.9874 -0.6372 -0.5264
18821TIP3   OH277953   0.381   3.553  12.146  0.1094  0.1491 -0.0866
18821TIP3    H177954   0.315   3.574  12.212 -0.0918  2.4242 -0.9391
18821TIP3    H277955   0.462   3.542  12.195 -0.5424 -1.0228  0.7914
18822TIP3   OH277956   0.134   4.807  13.914 -0.3747 -0.2870  0.2019
18822TIP3    H177957   0.120   4.848  13.829  1.0857 -2.1942 -1.0443
18822TIP3    H277958   0.056   4.830  13.965 -0.1917  2.9304 -0.7501
18823TIP3   OH277959   6.628   6.565  16.499  0.4831  0.6848 -0.4035
18823TIP3    H177960   6.688   6.500  16.461  2.2725  1.6148  0.6841
18823TIP3    H277961   6.602   6.620  16.425 -0.3990 -0.7229 -1.1886
18824TIP3   OH277962   6.531   0.970   0.913 -0.9901 -0.3037 -0.9854
18824TIP3    H177963   6.436   0.973   0.909 -0.9404  1.0592 -1.6365
18824TIP3    H277964   6.551   0.943   1.003 -1.9809  0.4429 -0.5300
18825TIP3   OH277965   1.493   1.096   0.911  0.6227  0.3472  0.0753
18825TIP3    H177966   1.583   1.115   0.886  0.2103  1.7507 -0.4825
18825TIP3    H277967   1.441   1.160   0.863 -0.8301 -1.4497 -0.8613
18826TIP3   OH277968   0.043   1.150   2.569  0.2982 -0.4869  0.0194
18826TIP3    H177969  -0.046   1.150   2.533  0.4223 -0.1047 -0.2920
18826TIP3    H277970   0.089   1.218   2.520  0.4540  0.1122  0.9687
18827TIP3   OH277971   0.103   3.972  11.621 -0.2251 -0.0660 -0.2098
18827TIP3    H177972   0.089   4.066  11.616 -0.7591 -0.2222 -3.6498
18827TIP3    H277973   0.023   3.938  11.663 -1.1309  0.8310 -1.1607
18828TIP3   OH277974   0.894   5.603  11.516 -0.0751 -0.2512  0.0137
18828TIP3    H177975   0.883   5.552  11.436  0.0199 -0.3141  0.0400
18828TIP3    H277976   0.903   5.537  11.585  1.4726 -0.2295 -0.1388
18829TIP3   OH277977   3.557   2.335   2.234 -0.2494 -0.2561 -0.0689
18829TIP3    H177978   3.644   2.360   2.202 -1.2054  0.4521 -2.3328
18829TIP3    H277979   3.541   2.395   2.308  0.2893  1.1699 -1.0619
18830TIP3   OH277980   6.461   0.603  11.217 -0.2178  0.1363 -0.6472
18830TIP3    H177981   6.448   0.687  11.172  0.5536  0.2347 -0.7000
18830TIP3    H277982   6.380   0.555  11.202 -0.4731  0.6807 -1.0401
18831TIP3   OH277983   5.619   6.443  10.670  0.1098  0.1946 -0.4430
18831TIP3    H177984   5.678   6.517  10.672 -0.3128  0.5988  2.9819
18831TIP3    H277985   5.531   6.482  10.677 -0.1062 -0.5443  1.5700
18832TIP3   OH277986   6.143   2.192   1.146 -0.0451  0.4757  0.1296
18832TIP3    H177987   6.194   2.183   1.065 -1.5065  2.6993 -1.1569
18832TIP3    H277988   6.180   2.269   1.189 -1.1062  1.0252  0.0885
18833TIP3   OH277989   6.651   3.406   1.251 -0.0221  0.5128 -0.1787
18833TIP3    H177990   6.671   3.427   1.160  0.4297 -0.9880 -0.4425
18833TIP3    H277991   6.572   3.352   1.247  2.0435 -2.8116 -0.0903
18834TIP3   OH277992   1.597   5.176  16.590  0.2438 -0.1753  0.3019
18834TIP3    H177993   1.511   5.137  16.606  0.5357 -1.0474 -0.1617
18834TIP3    H277994   1.587   5.268  16.613 -0.7551 -0.3112  0.4475
18835TIP3   OH277995   0.237   0.998   6.339  0.4338 -0.1824  0.0199
18835TIP3    H177996   0.256   0.955   6.422 -0.0305  1.2677  0.9097
18835TIP3    H277997   0.177   0.939   6.294  1.4237 -1.4234  0.2782
18836TIP3   OH277998   3.887   5.158  13.444 -0.3120  0.0064 -0.5883
18836TIP3    H177999   3.928   5.078  13.411 -0.4365 -0.2303 -0.1745
18836TIP3    H278000   3.793   5.142  13.435 -0.3442 -0.0477 -0.1424
18837TIP3   OH278001   5.822   3.131   5.646  0.0465 -0.3715  0.4839
18837TIP3    H178002   5.833   3.222   5.671 -0.7851 -0.9269  3.1054
18837TIP3    H278003   5.727   3.118   5.642  0.1565 -1.1783  0.3605
18838TIP3   OH278004   3.049   4.064   0.544  0.1982 -0.8416  0.2579
18838TIP3    H178005   3.026   4.112   0.464  0.4773 -0.1174  0.6112
18838TIP3    H278006   2.975   4.005   0.558 -1.2139  1.0198  1.0395
18839TIP3   OH278007   0.996   1.731  14.919  0.2927  0.0056 -0.2520
18839TIP3    H178008   1.086   1.711  14.946  0.4470 -0.9618 -1.4043
18839TIP3    H278009   0.952   1.753  15.001  1.7652  1.3223  0.2326
18840TIP3   OH278010   5.806   4.389  12.261  0.2493  0.5540 -0.2747
18840TIP3    H178011   5.754   4.316  12.227  0.5328 -0.3794  1.2079
18840TIP3    H278012   5.743   4.459  12.275 -1.1749 -1.2519  3.5692
18841TIP3   OH278013   1.589   1.993   6.098  0.5001 -0.1787  0.1597
18841TIP3    H178014   1.614   2.032   6.015  0.3488  0.5591  0.4526
18841TIP3    H278015   1.572   2.068   6.156  1.1041 -0.6740  1.0045
18842TIP3   OH278016   3.664   1.950   5.520 -0.1733  0.5480  0.2151
18842TIP3    H178017   3.636   1.869   5.478  0.9738 -1.1026  2.4064
18842TIP3    H278018   3.586   2.004   5.522 -0.5039  0.3604 -3.0409
18843TIP3   OH278019   2.701   5.989  12.201 -0.7285 -0.7099 -0.4760
18843TIP3    H178020   2.622   5.955  12.243 -0.5000  1.5738  2.0651
18843TIP3    H278021   2.670   6.032  12.121 -2.3931  1.6567  1.3284
18844TIP3   OH278022   3.281   4.757  11.008 -0.1013  0.5355  0.0806
18844TIP3    H178023   3.292   4.674  10.963 -1.4893  0.7572 -0.7237
18844TIP3    H278024   3.351   4.812  10.974 -1.9306  1.1590 -3.0123
18845TIP3   OH278025   4.056   2.099  12.998 -0.1978 -0.3132  0.2992
18845TIP3    H178026   4.093   2.121  12.912  1.3445 -2.0871  0.4526
18845TIP3    H278027   4.114   2.140  13.061 -0.5200 -0.1790  0.5107
18846TIP3   OH278028   0.017   2.555  15.569 -0.0677  0.5435 -0.2531
18846TIP3    H178029   0.027   2.460  15.571 -1.6592  0.3385 -0.7356
18846TIP3    H278030  -0.041   2.575  15.643 -1.2399  0.9014 -1.2320
18847TIP3   OH278031   1.461   3.574  15.867  0.0728  0.0959 -0.1870
18847TIP3    H178032   1.493   3.484  15.874  0.4584  0.3096  1.0752
18847TIP3    H278033   1.428   3.581  15.777  2.4562 -0.5048 -1.1875
18848TIP3   OH278034   6.058   2.473  15.159 -0.3385  0.1940  0.2605
18848TIP3    H178035   6.065   2.509  15.071 -3.7000 -2.6850 -1.3896
18848TIP3    H278036   6.119   2.399  15.160 -0.1698  0.3307  0.4769
18849TIP3   OH278037   2.290   4.270   5.806 -0.0590 -0.2409 -0.1787
18849TIP3    H178038   2.243   4.239   5.884  0.4710  0.4764  0.4344
18849TIP3    H278039   2.250   4.354   5.785  1.9111  1.1385  1.2731
18850TIP3   OH278040   1.360   5.846  15.974 -0.4958 -0.0467 -0.1758
18850TIP3    H178041   1.357   5.813  16.064  2.9368 -1.7439 -0.5297
18850TIP3    H278042   1.287   5.803  15.930 -0.5144 -1.4510  1.1438
18851TIP3   OH278043   5.921   5.577  13.395  0.3191  0.0122  0.1012
18851TIP3    H178044   5.929   5.602  13.488  1.8900  2.3071 -0.5348
18851TIP3    H278045   5.855   5.637  13.360 -0.8842 -1.4077 -0.1350
18852TIP3   OH278046   1.045   5.265  14.888 -0.3473 -0.0561 -0.6472
18852TIP3    H178047   1.034   5.239  14.980 -0.4328 -2.3919 -1.2746
18852TIP3    H278048   0.958   5.252  14.849 -0.6103  1.9721 -0.8858
18853TIP3   OH278049   3.057   1.083  11.150 -0.2652  0.1653 -0.4194
18853TIP3    H178050   3.127   1.083  11.085  0.2428  0.0918  0.1150
18853TIP3    H278051   3.099   1.115  11.230 -0.4409 -1.3507  0.3099
18854TIP3   OH278052   4.764   5.748  14.775 -0.2987 -0.2126 -0.4168
18854TIP3    H178053   4.672   5.739  14.799  0.2551 -2.2615  1.1707
18854TIP3    H278054   4.785   5.840  14.795 -1.1130 -0.6017  2.7123
18855TIP3   OH278055   2.073   0.618   4.967 -0.0283 -0.2158  0.3787
18855TIP3    H178056   2.040   0.700   5.004 -0.8062 -0.0493 -0.6273
18855TIP3    H278057   2.120   0.645   4.888  0.9150 -0.6319  0.7810
18856TIP3   OH278058   2.594   1.253  13.939  0.6453 -0.2985 -0.1122
18856TIP3    H178059   2.509   1.275  13.977  0.5210  0.5619 -0.8616
18856TIP3    H278060   2.651   1.326  13.963  1.3269 -1.0993  0.7991
18857TIP3   OH278061   2.829   6.486  11.502  0.7561  0.4587 -0.5369
18857TIP3    H178062   2.786   6.537  11.571  1.6166  0.6279 -0.0980
18857TIP3    H278063   2.922   6.506  11.513  0.9722 -0.0912 -1.2854
18858TIP3   OH278064   5.657   5.764   3.089  0.1774 -0.4005  0.1744
18858TIP3    H178065   5.650   5.669   3.090 -0.3726 -0.3615  0.1427
18858TIP3    H278066   5.751   5.781   3.088  0.3243 -0.9755 -2.6784
18859TIP3   OH278067   6.614   1.802  13.415 -0.3636 -0.4940  0.3094
18859TIP3    H178068   6.563   1.784  13.494  0.0676 -0.0059  0.7121
18859TIP3    H278069   6.577   1.882  13.380 -0.9583 -1.0445 -0.3389
18860TIP3   OH278070   2.134   0.621   0.260  0.1669 -0.2202 -0.2934
18860TIP3    H178071   2.095   0.681   0.324  0.1317 -0.2863 -0.2536
18860TIP3    H278072   2.060   0.580   0.216  0.1745  0.5285 -1.0465
18861TIP3   OH278073   5.826   0.654   0.391  0.6283  0.0874  1.1610
18861TIP3    H178074   5.733   0.668   0.372  0.5409 -0.1526  1.3976
18861TIP3    H278075   5.852   0.730   0.443  0.9171  0.8437 -0.0553
18862TIP3   OH278076   0.862   0.754   6.608  0.2308  0.4962 -0.0868
18862TIP3    H178077   0.941   0.797   6.642 -0.1188  2.2669 -1.3687
18862TIP3    H278078   0.819   0.718   6.685  0.7856  2.0992  1.0291
18863TIP3   OH278079   3.076   1.957  16.786  0.2145  0.3111 -0.0383
18863TIP3    H178080   3.116   1.941  16.871 -0.8705  0.0696  0.4380
18863TIP3    H278081   3.068   2.052  16.781 -1.5901  0.2712  1.0530
18864TIP3   OH278082   2.836   5.204  16.651 -0.2019 -0.0787  0.3668
18864TIP3    H178083   2.921   5.166  16.672  1.2086  2.8860  0.5868
18864TIP3    H278084   2.826   5.276  16.713 -0.9839  2.1002 -2.0784
18865TIP3   OH278085   1.966   4.503  12.311 -0.2379 -0.4031  0.6663
18865TIP3    H178086   1.911   4.580  12.324  0.6463 -0.0925  2.8845
18865TIP3    H278087   2.038   4.514  12.372 -0.0927 -3.0065  1.0868
18866TIP3   OH278088   4.411   1.903  11.865 -0.1092 -0.1626  0.0228
18866TIP3    H178089   4.383   1.895  11.956 -0.9999 -1.4854 -0.3389
18866TIP3    H278090   4.442   1.816  11.842  1.3089  0.4699 -0.5798
18867TIP3   OH278091   1.169   6.795  11.536  0.3364  0.0298 -0.6969
18867TIP3    H178092   1.137   6.705  11.536  0.0977  0.1141 -0.5513
18867TIP3    H278093   1.091   6.849  11.551  0.4285  0.2782 -1.0744
18868TIP3   OH278094   5.171   1.906   1.363 -0.2166  0.2328  0.5664
18868TIP3    H178095   5.233   1.837   1.385 -2.3597 -2.4139 -1.0083
18868TIP3    H278096   5.185   1.923   1.270  0.0423  1.7273  0.8514
18869TIP3   OH278097   3.576   0.737   3.853  0.4357 -0.5000 -0.4739
18869TIP3    H178098   3.625   0.672   3.903 -0.3820  0.0470  1.1181
18869TIP3    H278099   3.641   0.776   3.794  1.6262 -0.6763  0.6746
18870TIP3   OH278100   4.937   5.206  12.105 -0.3456  0.3301 -0.4098
18870TIP3    H178101   4.896   5.240  12.184 -2.1622 -3.7377  0.6800
18870TIP3    H278102   5.026   5.183  12.132 -0.2687  0.9292 -0.1587
18871TIP3   OH278103   1.482   4.829   2.977 -0.1412  0.4484  0.5516
18871TIP3    H178104   1.506   4.894   3.042  0.6638  0.3784  0.3351
18871TIP3    H278105   1.486   4.745   3.024 -1.6144  0.5707  0.9490
18872TIP3   OH278106   5.443   1.234  11.738  0.4176 -0.0288 -0.9628
18872TIP3    H178107   5.377   1.180  11.695 -0.7734  1.1078 -0.6168
18872TIP3    H278108   5.499   1.172  11.784 -1.2966 -0.9292 -0.0191
18873TIP3   OH278109   1.252   2.492   2.022 -0.1908 -0.2660 -0.8580
18873TIP3    H178110   1.307   2.413   2.016  3.0399  1.8376 -1.4655
18873TIP3    H278111   1.246   2.524   1.932 -0.2741  0.9242 -0.4468
18874TIP3   OH278112   1.408   2.885   0.448  0.3961  0.1705  0.0854
18874TIP3    H178113   1.425   2.828   0.373  0.6547 -0.9274  0.9417
18874TIP3    H278114   1.359   2.830   0.509 -1.4315  1.6064 -0.0175
18875TIP3   OH278115   3.496   4.364   0.799 -0.4700 -0.3362 -0.5296
18875TIP3    H178116   3.497   4.451   0.758  0.7918  0.6829  1.5228
18875TIP3    H278117   3.588   4.338   0.804 -0.4482 -0.0338  2.2732
18876TIP3   OH278118   2.681   6.439   0.298 -0.9218  0.1919  0.0375
18876TIP3    H178119   2.632   6.419   0.378 -1.1748 -0.6426 -0.3249
18876TIP3    H278120   2.656   6.529   0.277 -0.2476  0.7076  1.3325
18877TIP3   OH278121   1.372   6.449  11.682  0.0693  0.3241 -0.4853
18877TIP3    H178122   1.328   6.510  11.741  0.6686 -0.4368  0.8016
18877TIP3    H278123   1.464   6.455  11.706 -0.0052 -2.1039  0.7093
18878TIP3   OH278124   1.394   4.657   2.367 -0.4150 -0.3835  0.1031
18878TIP3    H178125   1.389   4.562   2.371  0.2796 -0.4094  0.5311
18878TIP3    H278126   1.314   4.687   2.409 -0.6579 -0.7780 -0.0735
18879TIP3   OH278127   1.336   1.934   5.531  0.0218 -0.1629  0.6328
18879TIP3    H178128   1.251   1.977   5.541 -0.0949  1.4434 -4.3524
18879TIP3    H278129   1.315   1.845   5.504  0.0405 -0.5207  1.7550
18880TIP3   OH278130   6.429   5.272   6.314  0.6744 -0.5189 -0.4741
18880TIP3    H178131   6.335   5.262   6.328  0.7920 -0.0376  0.7358
18880TIP3    H278132   6.453   5.351   6.363  1.5529 -0.1227 -1.5017
18881TIP3   OH278133   4.427   5.395  10.997 -0.0060  0.3504  0.3056
18881TIP3    H178134   4.482   5.374  11.073  0.3095  1.7317  0.5005
18881TIP3    H278135   4.339   5.405  11.033  0.1497  1.0389  0.5087
18882TIP3   OH278136   6.039   6.554  14.276 -0.1195  0.3977  0.2432
18882TIP3    H178137   6.011   6.622  14.338  0.7680  1.0566 -0.0615
18882TIP3    H278138   5.962   6.539  14.221 -0.2105  1.4632  0.0519
18883TIP3   OH278139   2.493   0.750  13.907  0.6909 -0.2189  0.7205
18883TIP3    H178140   2.485   0.711  13.994 -0.5230  0.7631  1.0810
18883TIP3    H278141   2.553   0.823  13.919 -0.3511  0.6113  1.0079
18884TIP3   OH278142   0.261   2.820   4.717  0.5176  0.1471  0.4569
18884TIP3    H178143   0.178   2.868   4.711 -0.2768 -1.2357  0.0183
18884TIP3    H278144   0.238   2.736   4.755  1.8519 -0.0196  0.9730
18885TIP3   OH278145   1.214   0.682  15.827 -0.1184  0.4064  0.3075
18885TIP3    H178146   1.183   0.723  15.746 -0.9323 -0.3482  0.2221
18885TIP3    H278147   1.147   0.617  15.848  0.8579 -0.4749  0.7518
18886TIP3   OH278148   1.769   3.314   1.289 -0.6543 -0.0367  0.2933
18886TIP3    H178149   1.697   3.256   1.265 -1.5712  0.6707  1.2683
18886TIP3    H278150   1.727   3.393   1.322  0.5703  1.1638 -0.8787
18887TIP3   OH278151   1.980   6.796  14.316 -0.3102  0.6191 -0.8008
18887TIP3    H178152   1.941   6.763  14.397 -0.0902 -1.2896 -1.4186
18887TIP3    H278153   1.905   6.811  14.258 -0.3941  0.9826 -0.6029
18888TIP3   OH278154   1.805   5.267  13.365 -0.2073  0.5029  0.3140
18888TIP3    H178155   1.901   5.272  13.366 -0.2446  1.3730  0.2925
18888TIP3    H278156   1.784   5.204  13.433  0.3173  1.8139  1.7642
18889TIP3   OH278157   4.699   6.294  10.529 -0.2075 -0.3278 -0.0746
18889TIP3    H178158   4.618   6.253  10.498  0.5319 -2.5140  0.6870
18889TIP3    H278159   4.748   6.314  10.450 -1.7317  1.6798 -0.5829
18890TIP3   OH278160   5.971   3.604   0.918 -0.5812  0.2346  0.1121
18890TIP3    H178161   5.895   3.648   0.881 -1.3999 -0.9705  0.2903
18890TIP3    H278162   5.971   3.517   0.878  0.4046  0.0375  0.5020
18891TIP3   OH278163   5.392   5.623   4.080 -0.6056 -0.4549 -0.1649
18891TIP3    H178164   5.446   5.544   4.089  0.2051 -0.1157 -1.6848
18891TIP3    H278165   5.308   5.592   4.047 -0.9585 -0.8538  1.0425
18892TIP3   OH278166   4.281   0.167  13.465 -0.0667  0.0236  0.5599
18892TIP3    H178167   4.373   0.150  13.485  0.7330  1.0179 -1.9288
18892TIP3    H278168   4.265   0.257  13.494 -0.2739 -0.1350  0.9561
18893TIP3   OH278169   3.788   5.207  12.101  0.3677  0.2472 -0.3609
18893TIP3    H178170   3.718   5.260  12.063 -0.1246 -0.3747 -0.3307
18893TIP3    H278171   3.855   5.204  12.032 -0.0782 -0.0166 -0.7821
18894TIP3   OH278172   0.085   6.695   3.138 -0.6790 -0.7589 -0.3837
18894TIP3    H178173   0.041   6.648   3.067 -1.1324 -0.8316 -0.0600
18894TIP3    H278174   0.131   6.767   3.095 -1.5443 -0.3677 -0.6794
18895TIP3   OH278175   4.300   0.799   0.588  0.1730  0.1441  0.0246
18895TIP3    H178176   4.270   0.841   0.669 -0.4699 -0.3612  0.0598
18895TIP3    H278177   4.309   0.871   0.526  0.2068  0.4789  0.4118
18896TIP3   OH278178   4.332   4.517   4.887 -0.8455  0.0822  0.3616
18896TIP3    H178179   4.337   4.611   4.904  0.1330  0.2634 -0.8270
18896TIP3    H278180   4.405   4.499   4.828 -0.9561 -1.4506  0.6587
18897TIP3   OH278181   4.440   6.065   5.062  0.5408  0.1116  0.7955
18897TIP3    H178182   4.380   5.991   5.067 -1.4420  1.6332  0.9801
18897TIP3    H278183   4.402   6.123   4.996  2.5672  0.5600 -0.0731
18898TIP3   OH278184   6.016   0.349  17.149 -0.5655 -0.0401  0.7082
18898TIP3    H178185   5.945   0.389  17.099  1.3981  3.6743  0.6032
18898TIP3    H278186   5.985   0.351  17.240 -1.1881  0.1367  0.4982
18899TIP3   OH278187   1.902   5.549   2.895 -0.1401  0.3916  0.2047
18899TIP3    H178188   1.924   5.637   2.864  0.2046 -0.5360 -2.4710
18899TIP3    H278189   1.807   5.543   2.885  0.0312 -0.0920 -1.3412
18900TIP3   OH278190   5.081   5.989   4.415  0.0233 -0.3572  0.4628
18900TIP3    H178191   5.112   5.908   4.455 -0.7364 -1.0683 -0.3461
18900TIP3    H278192   5.099   5.979   4.321 -0.7375  0.0818  0.2549
18901TIP3   OH278193   5.964   0.407   1.053  0.0709  0.1078 -0.0225
18901TIP3    H178194   5.955   0.500   1.075 -1.0792  0.2467 -0.9701
18901TIP3    H278195   5.893   0.364   1.101 -0.8847  0.0667 -1.4462
18902TIP3   OH278196   5.180   4.793   4.089  0.1514  0.3031 -0.4691
18902TIP3    H178197   5.207   4.849   4.162  0.1825  1.3016 -1.2247
18902TIP3    H278198   5.262   4.766   4.047  0.0998  0.5923 -0.7604
18903TIP3   OH278199   0.672   4.488  13.838  0.5083 -0.1902 -0.0776
18903TIP3    H178200   0.707   4.408  13.799 -2.1349 -0.3609 -2.3760
18903TIP3    H278201   0.750   4.542  13.855  2.2538 -2.6849  0.3780
18904TIP3   OH278202   5.766   2.516  15.627  0.2616 -0.1914 -1.0644
18904TIP3    H178203   5.792   2.534  15.537 -1.1887 -3.8325 -2.3853
18904TIP3    H278204   5.704   2.586  15.648  0.0605  0.3394 -3.1660
18905TIP3   OH278205   0.529   4.345   6.029 -0.2482  0.4236 -0.2904
18905TIP3    H178206   0.599   4.299   6.074 -2.7189 -0.8075  2.6679
18905TIP3    H278207   0.517   4.297   5.947  1.1938 -0.3950 -0.0479
18906TIP3   OH278208   5.872   3.839   4.672  0.8752 -0.2746  0.0421
18906TIP3    H178209   5.871   3.933   4.654 -0.3620 -0.4091 -0.6680
18906TIP3    H278210   5.795   3.825   4.727  1.3503 -0.7992  0.5781
18907TIP3   OH278211   3.167   2.193   4.911  0.0558  0.3974 -0.4948
18907TIP3    H178212   3.204   2.251   4.845  0.4758  0.1134 -0.5146
18907TIP3    H278213   3.243   2.152   4.953 -0.2287 -0.0418 -0.3926
18908TIP3   OH278214   2.158   0.261   2.528 -0.3660  0.3956 -0.2212
18908TIP3    H178215   2.182   0.224   2.613 -0.5740  1.1543  0.1791
18908TIP3    H278216   2.162   0.356   2.542  1.6183  0.5713 -1.6192
18909TIP3   OH278217   6.747   6.053   0.353  0.2931  0.2622  0.4083
18909TIP3    H178218   6.757   5.964   0.317 -0.0838  0.7797 -1.0307
18909TIP3    H278219   6.753   6.110   0.277  1.6812  1.5804  1.4410
18910TIP3   OH278220   1.148   4.776   5.301  0.8436 -0.7491  0.5513
18910TIP3    H178221   1.160   4.734   5.386 -0.2851 -1.5751  0.3419
18910TIP3    H278222   1.215   4.737   5.245  0.2635 -1.7905  0.5468
18911TIP3   OH278223   1.499   1.690  11.816  0.7249 -0.5645  0.0464
18911TIP3    H178224   1.486   1.598  11.841  0.9247 -0.1465  1.7751
18911TIP3    H278225   1.495   1.689  11.720  0.0623 -2.2726  0.0524
18912TIP3   OH278226   3.161   4.177  13.849 -0.2584 -0.6425  0.2327
18912TIP3    H178227   3.147   4.141  13.936 -0.2907 -0.5182  0.2792
18912TIP3    H278228   3.121   4.264  13.852 -0.8714 -0.9092 -0.1201
18913TIP3   OH278229   2.078   4.695   6.144  0.5590 -0.0118  0.4203
18913TIP3    H178230   2.122   4.639   6.209 -1.0379 -0.6345  1.0220
18913TIP3    H278231   2.054   4.774   6.192 -0.8281 -0.5691  0.6781
18914TIP3   OH278232   0.573   1.226   0.258 -0.1206  0.9953  0.2082
18914TIP3    H178233   0.627   1.209   0.336  0.6222 -3.0594 -0.9484
18914TIP3    H278234   0.631   1.273   0.198  0.4764  1.0549  0.8251
18915TIP3   OH278235   1.927   0.838   5.747 -0.7758 -0.0576  0.1460
18915TIP3    H178236   1.923   0.891   5.667  0.3110  0.2994  0.3210
18915TIP3    H278237   1.900   0.750   5.719 -0.6502  0.1228 -0.5533
18916TIP3   OH278238   6.688   0.836  14.723  0.3834 -0.1226  0.0615
18916TIP3    H178239   6.760   0.774  14.732 -0.0618 -0.5838  0.5055
18916TIP3    H278240   6.726   0.911  14.676  0.6936 -1.1254 -1.3344
18917TIP3   OH278241   0.991   3.209  14.122  0.1064  0.0322 -0.1388
18917TIP3    H178242   0.918   3.175  14.174 -0.6036  0.9431 -0.4974
18917TIP3    H278243   0.995   3.151  14.046  0.0345 -0.2802  0.0937
18918TIP3   OH278244   3.064   3.521   1.267 -0.0700 -0.5991 -0.4955
18918TIP3    H178245   3.100   3.508   1.180  3.4723  0.2679  0.6912
18918TIP3    H278246   3.052   3.433   1.302  0.4084 -0.9274 -1.1563
18919TIP3   OH278247   0.864   2.718   6.037  0.1558  0.4830  0.1332
18919TIP3    H178248   0.898   2.670   6.113  0.8199  0.2260 -0.3098
18919TIP3    H278249   0.841   2.804   6.071 -2.8126 -0.6455  1.3596
18920TIP3   OH278250   5.702   0.030  12.508  0.1467 -0.2327  0.6172
18920TIP3    H178251   5.736  -0.058  12.527 -0.1223 -0.5444 -0.2991
18920TIP3    H278252   5.615   0.031  12.547 -0.0984 -0.5937  0.0806
18921TIP3   OH278253   4.431   2.913  16.809  0.1504 -0.2968 -0.1560
18921TIP3    H178254   4.459   2.876  16.893 -0.2174  0.6884  0.4185
18921TIP3    H278255   4.340   2.883  16.799  0.0092  0.0436  0.0782
18922TIP3   OH278256   1.502   5.891  17.111 -0.1394 -0.5656  0.2553
18922TIP3    H178257   1.431   5.867  17.171  1.3088 -1.3479  1.7525
18922TIP3    H278258   1.554   5.811  17.102 -0.2379 -0.4306 -2.0026
18923TIP3   OH278259   4.946   3.571   5.072  0.2697  0.0166  0.3101
18923TIP3    H178260   4.877   3.615   5.122  1.4951  0.1858  1.9520
18923TIP3    H278261   4.978   3.637   5.011  0.4486  0.6541  1.0761
18924TIP3   OH278262   4.608   1.958  13.085 -0.5668 -0.6645  0.3103
18924TIP3    H178263   4.640   2.030  13.138 -4.2067  1.8268 -0.5286
18924TIP3    H278264   4.525   1.933  13.125 -0.2593 -3.2654 -0.4689
18925TIP3   OH278265   1.982   1.082   5.570 -0.3602 -0.1836 -0.0323
18925TIP3    H178266   2.071   1.116   5.562 -0.6796  0.7698  0.3357
18925TIP3    H278267   1.944   1.129   5.644 -2.0540  1.4478 -1.8291
18926TIP3   OH278268   5.571   3.103   0.277 -0.4317 -0.5481  0.2904
18926TIP3    H178269   5.576   3.186   0.323  0.8860 -0.5083  0.1092
18926TIP3    H278270   5.526   3.044   0.338  0.6279 -0.2941  1.3511
18927TIP3   OH278271   3.814   0.732  11.507  0.5743 -0.6050 -0.2333
18927TIP3    H178272   3.808   0.793  11.433  1.9052 -0.7036 -0.4345
18927TIP3    H278273   3.826   0.789  11.583  0.5500 -0.5649 -0.2588
18928TIP3   OH278274   3.880   4.239   6.144 -0.0500 -0.1686  0.8312
18928TIP3    H178275   3.854   4.164   6.197 -0.5302  0.3861  1.3976
18928TIP3    H278276   3.965   4.213   6.106 -0.2667 -1.0375  0.9126
18929TIP3   OH278277   0.686   0.332   1.561  0.0799 -0.2277  0.1460
18929TIP3    H178278   0.604   0.362   1.522  1.6393  1.3460 -2.1870
18929TIP3    H278279   0.694   0.384   1.641 -0.7852  0.2510 -0.0630
18930TIP3   OH278280   0.122   3.456   6.062  0.4337  0.5086 -0.2826
18930TIP3    H178281   0.086   3.467   5.973  0.4611  0.8653 -0.2534
18930TIP3    H278282   0.110   3.363   6.081 -1.2329  0.7494  0.0507
18931TIP3   OH278283   4.013   2.540   2.338  0.1006  0.1269  0.2250
18931TIP3    H178284   4.087   2.526   2.279  0.1630 -1.3752  0.6106
18931TIP3    H278285   4.026   2.627   2.374  0.5426  0.7110 -1.2948
18932TIP3   OH278286   5.803   4.311  13.180  0.5163 -0.3968  0.0246
18932TIP3    H178287   5.732   4.249  13.197 -0.7247  0.5584 -1.3938
18932TIP3    H278288   5.852   4.273  13.108 -1.1741  0.8871 -1.9149
18933TIP3   OH278289   5.253   0.840   6.858 -0.6965  0.4892  0.4835
18933TIP3    H178290   5.336   0.795   6.873  0.0215  1.7758  0.5527
18933TIP3    H278291   5.190   0.794   6.913 -0.3696 -1.4352 -0.6838
18934TIP3   OH278292   5.569   0.234   1.353  0.5264  0.1029 -0.1903
18934TIP3    H178293   5.504   0.276   1.410  0.7464 -0.1061  0.2151
18934TIP3    H278294   5.649   0.283   1.367  1.2010 -1.3494  1.4463
18935TIP3   OH278295   1.743   2.692  11.514  0.6244 -0.5036  0.0211
18935TIP3    H178296   1.817   2.719  11.460  0.7868  1.2325  1.0434
18935TIP3    H278297   1.736   2.760  11.581 -0.9855 -1.4027  0.8233
18936TIP3   OH278298   3.417   0.717  15.874  0.4082 -0.2755 -0.6006
18936TIP3    H178299   3.487   0.658  15.905 -0.2139 -0.6963  0.0339
18936TIP3    H278300   3.424   0.793  15.932  0.4449 -0.2468 -0.6425
18937TIP3   OH278301   6.313   4.650   0.223  0.2005  0.2520 -0.1658
18937TIP3    H178302   6.222   4.621   0.230  0.6972 -0.9816  2.8380
18937TIP3    H278303   6.319   4.688   0.135 -2.9529 -0.3974 -0.8091
18938TIP3   OH278304   1.554   0.161   3.816  1.1321  0.6926 -0.2144
18938TIP3    H178305   1.625   0.172   3.879  1.1913 -2.4325  0.3765
18938TIP3    H278306   1.483   0.215   3.851  1.3657 -0.4583  2.2160
18939TIP3   OH278307   1.527   0.244  16.264 -0.2751 -0.0998  0.1602
18939TIP3    H178308   1.553   0.323  16.217  0.4704  0.6472  1.7567
18939TIP3    H278309   1.593   0.179  16.239 -0.8726 -0.2466 -1.1343
18940TIP3   OH278310   2.735   3.352  12.858 -0.5598  0.4584 -0.0426
18940TIP3    H178311   2.771   3.440  12.873  0.8240 -0.0073 -0.4484
18940TIP3    H278312   2.794   3.313  12.793 -0.2675 -1.2900  1.1864
18941TIP3   OH278313   1.396   0.709   0.468  0.2480  0.0570 -0.0499
18941TIP3    H178314   1.438   0.685   0.550 -3.5555  1.9376  2.7402
18941TIP3    H278315   1.344   0.632   0.444  0.7260 -0.2024 -0.2667
18942TIP3   OH278316   4.645   5.614  16.449 -0.2112  0.6161 -0.0155
18942TIP3    H178317   4.564   5.571  16.475 -0.5560  0.2433 -1.5660
18942TIP3    H278318   4.631   5.707  16.469 -0.5156  0.3890  0.8709
18943TIP3   OH278319   0.872   6.641   1.992  0.0243  0.2939  0.6056
18943TIP3    H178320   0.861   6.733   2.012 -0.0729  0.2764  0.6329
18943TIP3    H278321   0.966   6.630   1.978 -0.1767  0.8852 -1.7010
18944TIP3   OH278322   1.722   2.560   3.543  0.0972 -0.1065  0.6030
18944TIP3    H178323   1.780   2.585   3.615 -0.4169 -0.5679  1.1855
18944TIP3    H278324   1.634   2.579   3.576 -0.1642 -0.6702  0.2477
18945TIP3   OH278325   0.994   1.853  14.171  0.2446 -0.1236  0.2392
18945TIP3    H178326   0.922   1.802  14.209  0.9517 -0.8095  0.6834
18945TIP3    H278327   0.965   1.871  14.081 -0.7957  0.2416  0.6340
18946TIP3   OH278328   0.337   6.592  13.418 -0.3390  0.3897  0.4934
18946TIP3    H178329   0.270   6.634  13.472  0.1095  0.0011  1.3693
18946TIP3    H278330   0.408   6.655  13.414 -0.0280  0.0905  1.0769
18947TIP3   OH278331   1.436   1.040  15.808  0.0141  0.2862 -0.5740
18947TIP3    H178332   1.525   1.074  15.804  0.3357 -0.4807 -0.1362
18947TIP3    H278333   1.387   1.093  15.744  0.8239  0.5714 -0.9672
18948TIP3   OH278334   4.900   5.767   2.048  0.3805 -0.6173 -0.2940
18948TIP3    H178335   4.828   5.818   2.011  0.6307 -1.1589 -1.6207
18948TIP3    H278336   4.954   5.744   1.972 -0.4327 -3.9956 -0.0048
18949TIP3   OH278337   3.585   0.780   6.364 -0.1266  0.0778 -0.6232
18949TIP3    H178338   3.649   0.792   6.434 -1.7408  1.3319  0.7071
18949TIP3    H278339   3.623   0.711   6.308  2.1326  0.4628  0.3411
18950TIP3   OH278340   4.332   6.277  16.890 -0.4403  0.0154  0.8106
18950TIP3    H178341   4.322   6.229  16.971  0.2148  0.0550  0.9194
18950TIP3    H278342   4.426   6.277  16.873 -0.6515 -1.1234 -0.6333
18951TIP3   OH278343   2.896   2.839  15.924 -0.0325  0.1757  0.1509
18951TIP3    H178344   2.898   2.870  15.834  2.2874  0.0132  0.0873
18951TIP3    H278345   2.897   2.919  15.977 -1.9466  0.2876  0.0964
18952TIP3   OH278346   2.651   4.909   1.696 -0.5571 -0.2101 -0.0285
18952TIP3    H178347   2.726   4.870   1.741 -0.2361 -0.6290 -0.9140
18952TIP3    H278348   2.635   4.851   1.622 -0.6549  0.8430 -0.8447
18953TIP3   OH278349   0.985   4.485   0.767  0.9920  0.1598  0.2760
18953TIP3    H178350   1.028   4.426   0.705  0.5743 -0.9805  1.0573
18953TIP3    H278351   0.984   4.437   0.849  0.2210  1.0784  0.8127
18954TIP3   OH278352   2.446   1.318  16.567  0.2214 -0.0458  0.0224
18954TIP3    H178353   2.415   1.393  16.618 -0.2135  0.4033 -0.8677
18954TIP3    H278354   2.538   1.339  16.549  0.5929 -0.5741  1.2503
18955TIP3   OH278355   2.079   3.813  16.592  0.3756 -0.0931 -0.2715
18955TIP3    H178356   2.052   3.806  16.683  0.9975 -2.0610 -0.1910
18955TIP3    H278357   2.171   3.788  16.592  0.6477  0.8179 -1.3183
18956TIP3   OH278358   5.371   0.006   6.126 -0.4459 -0.2999 -0.0514
18956TIP3    H178359   5.390  -0.067   6.185 -1.0780 -0.6946 -0.3204
18956TIP3    H278360   5.343   0.077   6.184 -0.0375 -0.3448  0.2002
18957TIP3   OH278361   3.596   6.205  12.726 -0.1800  0.4189  0.3224
18957TIP3    H178362   3.573   6.273  12.789 -1.5880  0.8991 -0.6476
18957TIP3    H278363   3.622   6.253  12.647  3.2532 -0.1257  0.9539
18958TIP3   OH278364   5.896   1.602  13.390  0.0986  0.5665  0.0872
18958TIP3    H178365   5.871   1.511  13.375  3.0523 -0.6102  1.5198
18958TIP3    H278366   5.829   1.636  13.448 -1.6741 -0.2741 -1.3615
18959TIP3   OH278367   4.111   5.692  16.636 -0.0290 -0.5378 -0.6202
18959TIP3    H178368   4.198   5.729  16.656 -0.1186  0.7147 -2.3327
18959TIP3    H278369   4.116   5.670  16.543 -1.3686 -0.9754 -0.5972
18960TIP3   OH278370   1.335   0.871  15.995  0.1349 -0.0730 -0.2131
18960TIP3    H178371   1.286   0.820  15.930  0.8354 -0.4590 -0.4503
18960TIP3    H278372   1.405   0.913  15.944  0.5892 -0.2486  0.2537
18961TIP3   OH278373   5.709   0.342  13.391  0.3239  0.6538 -0.1270
18961TIP3    H178374   5.765   0.273  13.353  0.7234  1.1983 -0.5425
18961TIP3    H278375   5.760   0.375  13.465 -0.0788  0.1792  0.3656
18962TIP3   OH278376   1.249   2.800   0.059 -0.3093 -0.6006  0.7317
18962TIP3    H178377   1.326   2.768   0.106  0.7670  0.0133 -0.5473
18962TIP3    H278378   1.175   2.764   0.107  0.7813 -2.7753  0.9221
18963TIP3   OH278379   1.953   5.688   3.600  0.1410  0.0816  0.8338
18963TIP3    H178380   1.995   5.773   3.607 -0.3284  0.6169 -1.7938
18963TIP3    H278381   1.969   5.660   3.510 -1.7242 -1.5253  0.9248
18964TIP3   OH278382   0.918   2.718  11.062 -0.0310  0.4640  0.3416
18964TIP3    H178383   0.954   2.793  11.110  2.2751  1.8344 -3.0588
18964TIP3    H278384   0.954   2.728  10.973 -2.0201 -3.1104 -1.0681
18965TIP3   OH278385   0.425   5.096   0.125 -0.2546  0.0156  0.3897
18965TIP3    H178386   0.344   5.057   0.156  0.0744 -0.1593  1.0484
18965TIP3    H278387   0.407   5.120   0.034 -2.0593  2.8213  1.3831
18966TIP3   OH278388   1.808   3.229  13.130 -0.4531  0.1950  0.5321
18966TIP3    H178389   1.726   3.181  13.116 -0.2931  0.1601 -0.3230
18966TIP3    H278390   1.809   3.297  13.063  0.5144 -0.2014  0.1206
18967TIP3   OH278391   3.684   0.268   4.985  0.3331 -0.5658  0.4791
18967TIP3    H178392   3.632   0.231   4.914  1.9368 -0.9856 -0.5383
18967TIP3    H278393   3.750   0.201   5.003  1.8121  0.7590  0.2551
18968TIP3   OH278394   3.495   0.607   2.568  0.7370  0.0088  0.1393
18968TIP3    H178395   3.576   0.563   2.542  0.0022 -0.0298 -2.2847
18968TIP3    H278396   3.512   0.700   2.554 -0.0305 -0.0876 -1.8134
18969TIP3   OH278397   2.760   2.557  13.868 -0.3562 -0.2060 -0.1469
18969TIP3    H178398   2.747   2.463  13.858  1.9505 -0.4966 -1.0537
18969TIP3    H278399   2.830   2.578  13.806 -1.5489  2.3175 -0.7411
18970TIP3   OH278400   5.234   1.021   2.975  0.8231  0.4824  0.0106
18970TIP3    H178401   5.158   0.989   3.023  0.8497  0.1057 -0.2005
18970TIP3    H278402   5.257   0.950   2.915 -0.1493  1.5282 -1.6697
18971TIP3   OH278403   4.190   5.171   0.502  0.6839 -0.5363 -0.4364
18971TIP3    H178404   4.208   5.089   0.548  0.4800 -0.9315 -1.0486
18971TIP3    H278405   4.270   5.221   0.510  0.4864 -0.3722  0.8048
18972TIP3   OH278406   1.173   4.377  11.314  0.6858 -0.8187  0.3543
18972TIP3    H178407   1.266   4.398  11.327  0.4629 -0.7688  2.1954
18972TIP3    H278408   1.172   4.285  11.290  1.1829 -1.0908  1.3187
18973TIP3   OH278409   2.112   4.728  14.198  0.2578  0.4008 -0.6353
18973TIP3    H178410   2.130   4.783  14.274 -0.9628 -0.9551  0.7075
18973TIP3    H278411   2.191   4.734  14.144  3.0587 -1.8255  2.7429
18974TIP3   OH278412   0.569   0.142   4.979  0.3352  0.4147  0.2346
18974TIP3    H178413   0.500   0.149   5.045  0.4048  1.1229  0.2425
18974TIP3    H278414   0.624   0.219   4.993  0.8231  0.1397 -0.1188
18975TIP3   OH278415   3.136   6.810   3.221 -0.0049 -0.1227 -0.1707
18975TIP3    H178416   3.189   6.827   3.299 -1.4145 -0.6440  0.9624
18975TIP3    H278417   3.070   6.747   3.251 -1.8734  1.2442 -1.2332
18976TIP3   OH278418   4.035   0.572   3.896  0.3284 -0.3169 -0.5577
18976TIP3    H178419   4.076   0.612   3.973  0.4890 -0.0426 -0.7875
18976TIP3    H278420   4.056   0.630   3.824 -0.8470  0.0695 -0.6116
18977TIP3   OH278421   4.678   2.922  12.350 -0.4840 -0.7369 -0.4803
18977TIP3    H178422   4.638   2.838  12.371 -0.2151 -1.5222 -2.8287
18977TIP3    H278423   4.627   2.955  12.277  1.2951 -0.3691 -1.6326
18978TIP3   OH278424   1.902   3.285  12.551  0.8712  0.4649  0.0104
18978TIP3    H178425   1.985   3.240  12.568  1.0161  1.4087  2.1429
18978TIP3    H278426   1.907   3.366  12.602 -1.7348  0.0780  1.0806
18979TIP3   OH278427   0.257   5.307   0.529  1.1212  0.6004 -0.5912
18979TIP3    H178428   0.274   5.303   0.435 -1.3991  0.0687 -1.0873
18979TIP3    H278429   0.230   5.397   0.546 -2.5942 -0.2138 -1.3037
18980TIP3   OH278430   4.691   3.388   3.620 -0.5697  0.2498 -0.2753
18980TIP3    H178431   4.674   3.344   3.703 -1.2626  1.4054  0.2189
18980TIP3    H278432   4.778   3.427   3.631  0.6405 -1.9997 -1.1939
18981TIP3   OH278433   2.614   4.722  13.375 -0.1448 -0.2893  0.0929
18981TIP3    H178434   2.610   4.817  13.380  0.3711 -0.1748 -1.3690
18981TIP3    H278435   2.680   4.697  13.441  0.3719  0.4386 -0.1394
18982TIP3   OH278436   1.937   3.769  16.363 -0.1496 -0.0638  0.3510
18982TIP3    H178437   2.007   3.705  16.348 -0.5110 -0.1790 -0.9277
18982TIP3    H278438   1.949   3.797  16.454  2.1986  0.6894 -0.1361
18983TIP3   OH278439   5.035   6.178  11.483 -0.1328  0.4161  0.3090
18983TIP3    H178440   4.948   6.217  11.489  0.1552  0.9511  1.3710
18983TIP3    H278441   5.078   6.226  11.412 -0.5698  0.4108  0.0366
18984TIP3   OH278442   4.660   0.800   4.270  0.2728 -0.3963 -0.2313
18984TIP3    H178443   4.616   0.797   4.355  1.1032  2.6431  0.4259
18984TIP3    H278444   4.680   0.892   4.256  2.3062 -1.0674 -2.6454
18985TIP3   OH278445   1.472   0.457   2.294  0.2321  0.2917  0.2290
18985TIP3    H178446   1.538   0.520   2.264  0.3267  0.1639  0.1655
18985TIP3    H278447   1.522   0.391   2.342  0.1868  0.0557 -0.0389
18986TIP3   OH278448   0.141   5.334  11.957 -0.4636  0.2017 -0.1470
18986TIP3    H178449   0.100   5.290  11.883 -1.2266 -0.8447  0.8711
18986TIP3    H278450   0.175   5.264  12.012 -0.9431  0.8917  1.0820
18987TIP3   OH278451   0.500   6.119   1.789  0.1161  0.4994 -0.8041
18987TIP3    H178452   0.500   6.207   1.751 -0.1543  1.2108  0.7792
18987TIP3    H278453   0.427   6.075   1.746 -1.3303  1.8729  0.1349
18988TIP3   OH278454   6.177   2.982  16.316 -0.1757  0.3590  0.0237
18988TIP3    H178455   6.166   2.962  16.223 -0.5414 -0.9904  0.3295
18988TIP3    H278456   6.270   2.996  16.327  0.2043 -1.6227 -0.1991
18989TIP3   OH278457   1.336   3.649  13.692  0.2245  0.4439 -0.5722
18989TIP3    H178458   1.300   3.613  13.773  0.2664  0.2357 -0.6451
18989TIP3    H278459   1.371   3.573  13.646  2.7697  0.8606  0.4936
18990TIP3   OH278460   1.326   1.495   3.353  0.1666  0.2814 -0.4969
18990TIP3    H178461   1.308   1.530   3.266  0.7066  2.2421  0.1140
18990TIP3    H278462   1.347   1.573   3.406  0.9978 -0.9587  1.0885
18991TIP3   OH278463   5.319   6.486   3.945  0.5960  0.2339 -0.4321
18991TIP3    H178464   5.403   6.440   3.954  1.0326  1.1375  0.3087
18991TIP3    H278465   5.259   6.420   3.912  0.4858 -1.7689  3.2127
18992TIP3   OH278466   1.208   1.712  12.999  0.1135 -0.6394 -0.1405
18992TIP3    H178467   1.209   1.792  12.946  1.4799 -0.8671 -0.4925
18992TIP3    H278468   1.299   1.681  12.997  0.2761 -0.5849  2.4436
18993TIP3   OH278469   1.015   4.390   2.250 -0.0625  0.3269  0.2674
18993TIP3    H178470   1.079   4.337   2.202  1.5387  1.7054  0.7755
18993TIP3    H278471   1.001   4.342   2.332  0.1448 -0.0988  0.0614
18994TIP3   OH278472   4.775   4.660   1.020  0.8801 -0.2074 -0.1978
18994TIP3    H178473   4.865   4.689   1.006  1.2083 -1.1603 -0.1547
18994TIP3    H278474   4.745   4.631   0.933  0.0602  1.5523 -0.5408
18995TIP3   OH278475   3.251   5.994  13.817 -0.1633 -0.1307 -0.6968
18995TIP3    H178476   3.301   6.073  13.796 -0.0931 -0.1795 -0.7137
18995TIP3    H278477   3.173   6.026  13.862  1.8036 -0.2083  3.2108
18996TIP3   OH278478   3.311   4.567  17.202 -0.7241  0.6410  0.1461
18996TIP3    H178479   3.323   4.613  17.119 -3.5864  0.1173 -0.6453
18996TIP3    H278480   3.269   4.631  17.259 -0.9489  0.2596  0.4112
18997TIP3   OH278481   3.807   6.007  13.030  0.1602  0.1403  0.2231
18997TIP3    H178482   3.899   6.012  13.055  0.2218 -3.0907  1.1712
18997TIP3    H278483   3.807   5.949  12.953 -1.1088 -0.7751  0.8706
18998TIP3   OH278484   2.836   1.159   2.791 -0.5185 -0.0231 -0.1090
18998TIP3    H178485   2.867   1.194   2.708  0.9879  1.5021  1.0167
18998TIP3    H278486   2.753   1.204   2.807 -0.4320  0.2567 -0.4374
18999TIP3   OH278487   5.658   1.384   1.781 -0.6822  0.4280  0.1540
18999TIP3    H178488   5.729   1.445   1.800 -1.2405  1.5807 -1.2673
18999TIP3    H278489   5.624   1.358   1.866  1.8778 -0.7501  0.9164
19000TIP3   OH278490   4.972   3.725  15.710  0.3334 -0.4725 -0.7294
19000TIP3    H178491   5.025   3.784  15.657  1.2068 -0.7103 -0.1207
19000TIP3    H278492   4.882   3.744  15.683  0.6541  0.5837 -1.0940
19001TIP3   OH278493   0.569   3.211   4.152 -1.0744  0.4059  0.0878
19001TIP3    H178494   0.661   3.232   4.136 -1.0231  1.0456  1.1744
19001TIP3    H278495   0.562   3.118   4.134  0.2015 -0.0420  1.7485
19002TIP3   OH278496   4.896   5.169  11.843  0.0111 -0.6190  0.3420
19002TIP3    H178497   4.889   5.260  11.814 -0.1856  0.1478  2.6110
19002TIP3    H278498   4.914   5.175  11.936  1.0353 -2.9300  0.3509
19003TIP3   OH278499   4.973   1.795   1.564 -0.1937  0.6945  0.1301
19003TIP3    H178500   4.963   1.720   1.505  2.0033 -1.2471  1.9950
19003TIP3    H278501   5.051   1.840   1.533 -1.6269  2.4524 -1.1141
19004TIP3   OH278502   6.625   2.773  15.096  0.2125  0.1574 -0.3798
19004TIP3    H178503   6.683   2.826  15.041 -1.2402  1.3337 -0.8422
19004TIP3    H278504   6.545   2.825  15.103 -1.7615 -2.4329 -1.8479
19005TIP3   OH278505   4.120   2.267  11.970  0.3377 -0.0954  0.1570
19005TIP3    H178506   4.075   2.183  11.962  1.9648 -0.9509 -0.5508
19005TIP3    H278507   4.111   2.291  12.062 -3.7085  1.1064 -0.3527
19006TIP3   OH278508   6.746   0.524  15.894 -0.1897  0.9258  0.5177
19006TIP3    H178509   6.735   0.430  15.885  0.4527  0.8030  0.9864
19006TIP3    H278510   6.662   0.555  15.928 -0.2709  0.4685  0.7378
19007TIP3   OH278511   5.968   5.043   3.537  0.1282 -0.1436 -0.6885
19007TIP3    H178512   5.966   4.974   3.471 -0.6022  1.4506 -2.4220
19007TIP3    H278513   6.061   5.059   3.553  0.3064 -0.9116 -0.9532
19008TIP3   OH278514   2.691   1.953  16.677 -0.4425 -0.0671  0.1394
19008TIP3    H178515   2.671   1.961  16.584  0.0710 -0.6756 -0.0372
19008TIP3    H278516   2.726   2.038  16.701 -1.7667  0.5140  0.0971
19009TIP3   OH278517   0.693   3.246  14.846 -0.0039 -0.4746 -0.6296
19009TIP3    H178518   0.765   3.185  14.861  0.8503  0.7424  0.5005
19009TIP3    H278519   0.619   3.191  14.821  1.0680 -1.8361 -0.9281
19010TIP3   OH278520   5.179   0.808   1.238  0.2831  0.1073 -0.2465
19010TIP3    H178521   5.119   0.757   1.294  0.7817 -0.4368 -0.1956
19010TIP3    H278522   5.254   0.827   1.295  1.1581 -1.1321 -0.9265
19011TIP3   OH278523   1.789   5.871  16.930 -0.2551 -0.1956  0.0511
19011TIP3    H178524   1.737   5.850  17.008 -1.9529  1.2607 -0.6237
19011TIP3    H278525   1.752   5.952  16.897  1.1220 -0.2083 -1.6938
19012TIP3   OH278526   0.638   3.918   0.962  0.3834 -0.3164 -0.5074
19012TIP3    H178527   0.698   3.950   1.029  1.4325 -0.0385 -1.5324
19012TIP3    H278528   0.679   3.837   0.930 -1.3404 -1.8010  0.8319
19013TIP3   OH278529   0.150   2.766  15.419  0.1256 -0.3541  0.0229
19013TIP3    H178530   0.095   2.845  15.422 -1.4451 -1.3922 -0.0441
19013TIP3    H278531   0.095   2.698  15.458  2.2900 -0.9875  2.1476
19014TIP3   OH278532   0.455   3.827   4.536 -0.0975 -0.0941 -0.1388
19014TIP3    H178533   0.514   3.771   4.586 -0.6526 -2.1193 -1.6059
19014TIP3    H278534   0.464   3.796   4.446  0.1658  2.7788 -1.2127
19015TIP3   OH278535   6.510   0.285   0.028  0.0111 -0.1580 -0.2001
19015TIP3    H178536   6.458   0.365   0.032 -0.5575 -0.3779 -2.3593
19015TIP3    H278537   6.445   0.214   0.030  0.2075 -0.4458 -2.3131
19016TIP3   OH278538   2.576   0.890  13.581  0.6948 -0.2484 -0.0266
19016TIP3    H178539   2.509   0.916  13.518  0.3898  3.8453  1.6273
19016TIP3    H278540   2.610   0.807  13.547 -0.8601  0.5847 -4.3407
19017TIP3   OH278541   1.066   4.599   3.512 -0.7635  0.2499 -0.4757
19017TIP3    H178542   1.018   4.529   3.467  0.2604 -1.5784  1.1376
19017TIP3    H278543   0.998   4.658   3.543 -1.7908 -0.8197 -0.6021
19018TIP3   OH278544   4.184   1.545  14.633 -0.3234  0.3864 -0.3132
19018TIP3    H178545   4.242   1.473  14.609  1.1941  1.4944 -0.0600
19018TIP3    H278546   4.110   1.537  14.572 -0.0424 -1.1963 -0.4728
19019TIP3   OH278547   1.624   0.663   5.691  0.3187 -0.8099  0.3990
19019TIP3    H178548   1.667   0.738   5.733  0.1525  0.6078 -1.7626
19019TIP3    H278549   1.583   0.615   5.763 -1.5240  2.4713  1.7642
19020TIP3   OH278550   6.735   4.529  12.561 -0.5404 -1.0203 -0.4899
19020TIP3    H178551   6.739   4.493  12.650 -1.3376 -0.1422 -0.0804
19020TIP3    H278552   6.664   4.481  12.519 -3.5778  1.7650  0.9408
19021TIP3   OH278553   6.145   5.452  13.868 -0.0050  0.5018 -0.2470
19021TIP3    H178554   6.132   5.407  13.784 -0.5926  0.2803 -0.0374
19021TIP3    H278555   6.057   5.468  13.901  0.0956  3.2496 -1.0704
19022TIP3   OH278556   2.782   1.007  16.174 -0.0862 -0.2570 -0.3160
19022TIP3    H178557   2.689   0.997  16.151 -1.3908  1.9911  3.2244
19022TIP3    H278558   2.797   0.941  16.241  0.7554 -0.2759 -0.5178
19023TIP3   OH278559   5.947   4.501   5.601 -0.5953 -0.2652  0.1178
19023TIP3    H178560   6.013   4.570   5.610  0.9221 -1.2577 -2.3211
19023TIP3    H278561   5.876   4.528   5.659  1.4071  1.4982  1.9437
19024TIP3   OH278562   2.400   3.825   3.970 -0.3668  0.2722  0.5554
19024TIP3    H178563   2.492   3.800   3.960 -0.3495 -0.0750  1.4858
19024TIP3    H278564   2.396   3.916   3.942  0.0523 -0.0133 -0.4884
19025TIP3   OH278565   5.317   0.215   2.818  0.2679 -0.1593 -0.2504
19025TIP3    H178566   5.260   0.279   2.861  0.0527 -1.7726  1.9938
19025TIP3    H278567   5.258   0.163   2.763 -0.0804 -0.4802  0.4238
19026TIP3   OH278568   1.448   4.948  10.731 -0.1650  0.0648 -0.3113
19026TIP3    H178569   1.424   5.023  10.677  0.2763  0.6236  0.2493
19026TIP3    H278570   1.415   4.872  10.683  0.5978  0.5097 -1.5943
19027TIP3   OH278571   5.599   0.806  13.292 -0.4694  0.0081 -0.1872
19027TIP3    H178572   5.521   0.836  13.339 -0.7359  0.6485 -1.0216
19027TIP3    H278573   5.637   0.739  13.350 -0.8313  0.7095  0.9058
19028TIP3   OH278574   6.529   4.506   2.827 -0.2534  0.7845 -0.0909
19028TIP3    H178575   6.579   4.424   2.831 -0.6591  0.6026  1.7833
19028TIP3    H278576   6.463   4.498   2.896 -1.1582  2.1570 -0.7498
19029TIP3   OH278577   0.507   1.351  13.166 -0.3097  0.3481  0.2387
19029TIP3    H178578   0.573   1.420  13.159  0.3156 -0.2511  0.1357
19029TIP3    H278579   0.553   1.278  13.207 -1.2010  0.2914  1.1723
19030TIP3   OH278580   0.485   6.494  14.252 -0.1181  0.5005  0.3836
19030TIP3    H178581   0.578   6.513  14.265 -0.2073  1.8362 -0.7451
19030TIP3    H278582   0.478   6.399  14.265  1.8383 -0.0273 -1.8217
19031TIP3   OH278583   6.202   1.870  13.952  0.0306  0.1624  0.5930
19031TIP3    H178584   6.142   1.903  13.884  1.3994  2.2157  0.3227
19031TIP3    H278585   6.150   1.873  14.032 -0.9571 -0.3537  0.0088
19032TIP3   OH278586   3.668   5.947  11.512 -0.5586  0.0110  0.0174
19032TIP3    H178587   3.590   5.977  11.559 -0.6440 -0.7806  0.3869
19032TIP3    H278588   3.732   5.930  11.580 -0.4050 -0.3408 -0.2124
19033TIP3   OH278589   6.038   2.774  13.397  0.2021 -0.2504 -0.2181
19033TIP3    H178590   6.125   2.813  13.407 -0.4213  1.1036  0.1234
19033TIP3    H278591   6.041   2.695  13.451  2.0758 -1.7709 -2.3360
19034TIP3   OH278592   6.667   4.081  10.824  0.5118  0.3372 -0.6600
19034TIP3    H178593   6.608   4.011  10.797  1.1101 -0.5060  0.1758
19034TIP3    H278594   6.739   4.077  10.762  1.6797 -1.3274  0.7113
19035TIP3   OH278595   3.897   5.876   3.341 -0.2569 -0.3601 -0.2291
19035TIP3    H178596   3.815   5.907   3.379 -1.0456 -1.3779 -1.0147
19035TIP3    H278597   3.869   5.820   3.268  1.1351 -0.8311 -0.4271
19036TIP3   OH278598   4.186   1.718   1.715 -0.2444  0.0112 -0.2760
19036TIP3    H178599   4.183   1.671   1.798 -0.6724  1.3582  0.5078
19036TIP3    H278600   4.192   1.810   1.740  3.4109  0.3479 -1.6804
19037TIP3   OH278601   5.236   1.100  16.209  0.3747  0.2421  0.3257
19037TIP3    H178602   5.250   1.190  16.179  1.7140 -0.2302 -0.5724
19037TIP3    H278603   5.144   1.081  16.188  0.0479  1.4097  0.6204
19038TIP3   OH278604   1.675   2.547   1.677  0.1726 -0.1278 -0.4271
19038TIP3    H178605   1.727   2.591   1.609 -0.7010 -0.2240 -1.1730
19038TIP3    H278606   1.697   2.454   1.666 -0.3923 -0.2037 -0.9601
19039TIP3   OH278607   2.084   1.839   0.667 -0.0145 -0.1968  0.0112
19039TIP3    H178608   2.073   1.745   0.657  1.2615 -0.4084  0.3841
19039TIP3    H278609   2.090   1.853   0.761  0.1718  0.2044 -0.0566
19040TIP3   OH278610   2.143   0.621  14.375  0.1648  0.1689  0.4191
19040TIP3    H178611   2.109   0.534  14.397  0.8513  0.0893  1.2155
19040TIP3    H278612   2.226   0.627  14.423  0.2082  1.2013  0.2369
19041TIP3   OH278613   2.230   3.966   0.973 -0.3320  0.6328  0.0763
19041TIP3    H178614   2.171   4.026   1.020 -1.3042 -1.1062  1.1933
19041TIP3    H278615   2.277   3.921   1.043  0.3694  0.0881 -0.7407
19042TIP3   OH278616   2.372   6.115   5.339 -0.2659  0.6807 -0.1531
19042TIP3    H178617   2.390   6.058   5.413 -0.2459  0.8158 -0.0539
19042TIP3    H278618   2.414   6.072   5.265  0.6049  1.0704  0.1044
19043TIP3   OH278619   0.889   3.862  15.008 -0.1691  0.0528 -0.1774
19043TIP3    H178620   0.921   3.864  15.098 -0.8355  1.3861  0.0499
19043TIP3    H278621   0.941   3.928  14.962  0.3459 -0.8009 -0.8377
19044TIP3   OH278622   3.830   5.600  11.359 -0.0006 -0.3833  0.2496
19044TIP3    H178623   3.770   5.591  11.433  1.5372 -0.3630  1.5409
19044TIP3    H278624   3.808   5.685  11.321 -2.1442 -1.2396 -0.6133
19045TIP3   OH278625   1.722   5.422   4.811  0.7974 -0.3555  0.4516
19045TIP3    H178626   1.758   5.417   4.899  2.5342 -1.9102 -0.2564
19045TIP3    H278627   1.694   5.332   4.792 -1.7917  0.4284  0.2424
19046TIP3   OH278628   2.636   1.732   4.672  0.2957 -0.7688 -0.3460
19046TIP3    H178629   2.568   1.786   4.712  0.3786  0.3922 -1.6665
19046TIP3    H278630   2.588   1.672   4.614  0.3537 -0.2236 -0.9703
19047TIP3   OH278631   6.260   6.740   5.518 -0.6062  0.0595 -0.4526
19047TIP3    H178632   6.272   6.796   5.594 -2.7988  2.9439 -2.0252
19047TIP3    H278633   6.337   6.758   5.463 -0.2330 -0.1511 -0.0038
19048TIP3   OH278634   1.150   2.351  12.978 -0.7857 -0.4706  0.3049
19048TIP3    H178635   1.221   2.287  12.986 -1.0821 -0.7144  1.1078
19048TIP3    H278636   1.103   2.325  12.899  0.4484  0.1484 -0.6792
19049TIP3   OH278637   0.175   5.018  14.755  0.6212 -0.4745  0.3480
19049TIP3    H178638   0.237   4.945  14.759 -0.6421 -1.5357  1.9135
19049TIP3    H278639   0.122   5.008  14.834 -0.9302  0.9320 -0.4695
19050TIP3   OH278640   4.376   6.440   0.737 -0.0221 -0.3896 -0.0250
19050TIP3    H178641   4.361   6.479   0.823  0.1863  0.4446 -0.3590
19050TIP3    H278642   4.453   6.485   0.704  0.2931 -1.1702 -0.3845
19051TIP3   OH278643   4.513   0.555  11.251 -0.1777  0.0354 -0.0632
19051TIP3    H178644   4.439   0.493  11.255 -0.3562  0.0098 -2.2149
19051TIP3    H278645   4.575   0.523  11.315 -1.6867 -0.4187  1.2414
19052TIP3   OH278646   5.094   5.541   1.031 -0.0954  0.0076 -0.4498
19052TIP3    H178647   5.129   5.596   0.960  1.0869 -0.1246  0.0014
19052TIP3    H278648   5.042   5.474   0.986 -0.4360  0.6990 -1.0980
19053TIP3   OH278649   0.773   4.855  13.184 -0.5879 -0.8093  0.2034
19053TIP3    H178650   0.750   4.892  13.099  0.2319  1.3672  0.8675
19053TIP3    H278651   0.866   4.833  13.177 -0.4947 -0.5430  0.5466
19054TIP3   OH278652   5.479   4.603  11.022 -0.2870 -0.7758 -0.3993
19054TIP3    H178653   5.535   4.681  11.028 -0.2312 -0.8749  0.5238
19054TIP3    H278654   5.470   4.573  11.112 -0.9014 -1.4271 -0.6667
19055TIP3   OH278655   1.057   4.083  11.622 -0.1928 -0.0655  0.1995
19055TIP3    H178656   1.056   3.989  11.605 -0.7850  0.5322 -4.1929
19055TIP3    H278657   0.967   4.112  11.607  0.2276  1.3634  0.2256
19056TIP3   OH278658   1.673   6.267   4.718 -0.0261 -0.1178 -0.0800
19056TIP3    H178659   1.680   6.190   4.660  0.0320  0.1814 -0.4730
19056TIP3    H278660   1.756   6.269   4.765  0.3732  0.2629 -0.7775
19057TIP3   OH278661   5.974   2.663   1.378 -0.5780 -0.0151  0.0672
19057TIP3    H178662   5.914   2.685   1.449 -1.4420 -1.4075 -0.1934
19057TIP3    H278663   6.008   2.577   1.402 -2.7935 -1.6985 -2.3565
19058TIP3   OH278664   3.531   0.730   1.977 -0.2665  0.2794 -0.3514
19058TIP3    H178665   3.535   0.734   2.072 -0.5112 -0.1522 -0.3229
19058TIP3    H278666   3.606   0.782   1.948  0.9906 -1.2125  0.0932
19059TIP3   OH278667   3.645   4.209  12.340  0.5290  0.2234  0.1729
19059TIP3    H178668   3.694   4.250  12.269  0.7791 -0.7291 -0.2170
19059TIP3    H278669   3.669   4.259  12.418  1.3086  0.4296 -0.1916
19060TIP3   OH278670   3.443   4.682  12.062  0.1933  0.9564 -0.2538
19060TIP3    H178671   3.434   4.663  11.968  1.6247 -1.2732 -0.0371
19060TIP3    H278672   3.532   4.718  12.070  0.9265 -0.8682  0.4233
19061TIP3   OH278673   2.362   3.804  16.602  0.2790  0.0472 -0.2815
19061TIP3    H178674   2.435   3.864  16.582 -1.0774  1.2572 -1.8960
19061TIP3    H278675   2.377   3.729  16.545  1.4776 -0.8003  1.0761
19062TIP3   OH278676   3.359   4.742  12.861 -0.2755 -0.3256  0.0457
19062TIP3    H178677   3.296   4.670  12.871 -1.4910  0.7108  0.1402
19062TIP3    H278678   3.307   4.814  12.823  1.2622  0.0159 -1.5046
19063TIP3   OH278679   6.691   2.608  12.513 -1.2183  0.4083  0.3118
19063TIP3    H178680   6.642   2.629  12.434 -0.7038 -0.2189 -0.1864
19063TIP3    H278681   6.625   2.581  12.576 -1.5844  0.3392 -0.0997
19064TIP3   OH278682   6.459   5.608   4.762  0.1147 -0.3997  0.1201
19064TIP3    H178683   6.517   5.672   4.804 -0.3200 -0.0865  0.2507
19064TIP3    H278684   6.401   5.579   4.833  0.7201 -1.4185  0.2144
19065TIP3   OH278685   6.544   3.719  11.751 -0.2202  0.1769  0.1661
19065TIP3    H178686   6.575   3.802  11.788 -1.7502  1.5137 -1.3524
19065TIP3    H278687   6.614   3.692  11.692  0.4815  0.1516  0.9929
19066TIP3   OH278688   1.704   1.279   0.178 -0.2327 -1.0244 -0.0546
19066TIP3    H178689   1.727   1.187   0.190  0.0158 -0.8524  0.8949
19066TIP3    H278690   1.748   1.324   0.251 -1.1827 -0.2924  0.0812
19067TIP3   OH278691   6.576   5.465   1.251  0.5305 -0.0599 -0.0002
19067TIP3    H178692   6.549   5.373   1.246 -0.0509 -0.0251  1.6981
19067TIP3    H278693   6.564   5.499   1.162  1.1397 -1.7045 -0.7564
19068TIP3   OH278694   4.883   3.986  11.096 -0.2569  0.3431  0.4224
19068TIP3    H178695   4.971   3.997  11.132 -1.0664  3.0350  1.8651
19068TIP3    H278696   4.884   4.033  11.013 -0.3945  0.6646  0.5988
19069TIP3   OH278697   2.151   2.851   2.039 -0.1749  0.5037  0.1048
19069TIP3    H178698   2.228   2.798   2.023 -1.5747 -1.4045 -0.6702
19069TIP3    H278699   2.107   2.809   2.113 -1.5662  0.2472 -0.8352
19070TIP3   OH278700   0.336   0.076  13.515 -0.7475 -0.4944  0.5789
19070TIP3    H178701   0.287   0.154  13.492  0.9717 -0.0068 -1.7958
19070TIP3    H278702   0.270   0.015  13.548 -2.9596  0.2055 -2.1755
19071TIP3   OH278703   6.137   3.669   5.817  0.4621  0.4285  0.5419
19071TIP3    H178704   6.047   3.698   5.830  0.1930  0.3898 -1.1089
19071TIP3    H278705   6.191   3.743   5.846 -0.1711  1.6002 -1.1588
19072TIP3   OH278706   3.041   4.352   3.107 -0.3201 -0.4497 -0.0538
19072TIP3    H178707   3.050   4.389   3.195 -2.0535  0.1099 -0.0792
19072TIP3    H278708   2.950   4.368   3.084  0.1535 -0.4274 -2.0346
19073TIP3   OH278709   2.342   2.049   3.272  0.1690  0.0016 -0.1044
19073TIP3    H178710   2.281   2.032   3.201  1.0715  0.2665 -0.9724
19073TIP3    H278711   2.292   2.102   3.335 -0.1576  1.2610 -1.3681
19074TIP3   OH278712   6.629   6.200  16.516 -0.2529 -0.2603 -0.2489
19074TIP3    H178713   6.720   6.198  16.545 -0.6419 -0.2918  1.0104
19074TIP3    H278714   6.583   6.141  16.575 -0.8213 -1.5697 -1.9175
19075TIP3   OH278715   5.415   5.504  11.332 -0.0437 -0.1723  0.2430
19075TIP3    H178716   5.435   5.421  11.289 -1.0045 -0.5802  0.5350
19075TIP3    H278717   5.497   5.531  11.373  0.3886 -0.7541 -0.2296
19076TIP3   OH278718   6.027   2.115  12.578 -0.0954 -0.2222  0.1201
19076TIP3    H178719   6.012   2.066  12.659  0.2469  0.2828  0.4957
19076TIP3    H278720   5.969   2.074  12.514 -0.8431 -0.2140  0.7817
19077TIP3   OH278721   3.220   2.108  11.608  0.0907 -0.6706 -0.4779
19077TIP3    H178722   3.125   2.123  11.611  0.4647  2.9477 -1.9752
19077TIP3    H278723   3.258   2.190  11.638  2.8067 -2.1546  0.3901
19078TIP3   OH278724   5.547   0.187   3.645 -0.3394 -0.0176  0.0640
19078TIP3    H178725   5.619   0.220   3.591  0.4516  0.8186  1.5804
19078TIP3    H278726   5.541   0.094   3.622  0.8938  0.0108 -0.4432
19079TIP3   OH278727   5.712   2.249   2.712  0.0443 -0.9566  0.1064
19079TIP3    H178728   5.749   2.164   2.734  0.6343 -0.8700 -0.4936
19079TIP3    H278729   5.653   2.231   2.638 -0.7981 -1.0285  0.7845
19080TIP3   OH278730   4.524   4.885   5.236 -0.0803  0.0581  0.3748
19080TIP3    H178731   4.491   4.942   5.167  0.2168 -1.4605 -1.0663
19080TIP3    H278732   4.451   4.875   5.297 -0.8359  0.2151 -0.4966
19081TIP3   OH278733   0.640   5.641  15.898 -0.4041 -0.0392 -0.3655
19081TIP3    H178734   0.673   5.551  15.898  1.3069  0.5128  1.3983
19081TIP3    H278735   0.559   5.636  15.949  0.4901 -0.3775  1.0899
19082TIP3   OH278736   3.010   2.977  14.920 -0.0942  0.1230 -0.3448
19082TIP3    H178737   2.936   3.037  14.908 -0.9180 -0.7372  0.2174
19082TIP3    H278738   3.087   3.034  14.924 -0.6269  0.9931 -1.6603
19083TIP3   OH278739   4.483   3.179   4.921  0.2361 -0.3261  0.0627
19083TIP3    H178740   4.445   3.120   4.855 -0.7953 -0.7611  1.0220
19083TIP3    H278741   4.500   3.260   4.873 -0.8567 -0.5006 -0.6683
19084TIP3   OH278742   5.337   3.117   6.937  0.2016 -0.0655  0.1553
19084TIP3    H178743   5.266   3.140   6.878  0.7456  1.3731  0.0197
19084TIP3    H278744   5.356   3.197   6.984  1.4813 -0.5212  0.4575
19085TIP3   OH278745   4.724   6.188   0.360  0.1155 -0.2615  0.2613
19085TIP3    H178746   4.636   6.218   0.384  0.1912  0.0235  0.1845
19085TIP3    H278747   4.780   6.221   0.430  0.6565  2.2737 -1.2264
19086TIP3   OH278748   6.095   5.393  13.249 -0.1759 -0.1973  0.0462
19086TIP3    H178749   6.054   5.385  13.163 -0.0331 -0.7929  0.0325
19086TIP3    H278750   6.052   5.469  13.288 -1.1428 -0.6591 -0.0657
19087TIP3   OH278751   6.595   0.178  11.935 -0.3934 -0.2305 -0.0282
19087TIP3    H178752   6.604   0.116  11.862  0.5158 -0.8395  0.5867
19087TIP3    H278753   6.664   0.242  11.921  0.0483 -0.5807  0.5174
19088TIP3   OH278754   1.516   2.790  15.625  0.0880 -0.0988 -0.6103
19088TIP3    H178755   1.442   2.785  15.685  0.4447  2.1622  0.1350
19088TIP3    H278756   1.493   2.732  15.553 -2.4439  0.5655 -0.4253
19089TIP3   OH278757   6.666   4.997   1.054 -0.1687 -0.3496 -0.1425
19089TIP3    H178758   6.742   5.029   1.005  0.0314 -0.3767  0.1493
19089TIP3    H278759   6.703   4.959   1.134 -0.5519  0.3396  0.3669
19090TIP3   OH278760   3.732   3.179  13.047  0.3120  0.2123 -0.1473
19090TIP3    H178761   3.730   3.237  13.122 -2.3622 -2.3881  2.0132
19090TIP3    H278762   3.770   3.097  13.080 -2.7087 -1.6605 -0.9342
19091TIP3   OH278763   0.094   2.000  12.534  0.1780  0.5119  0.6906
19091TIP3    H178764   0.132   2.088  12.525 -0.0891  0.9485  3.0351
19091TIP3    H278765   0.002   2.017  12.557 -0.5313 -0.4601 -1.2758
19092TIP3   OH278766   2.741   6.459   5.836  0.3218 -0.2083  0.0358
19092TIP3    H178767   2.823   6.411   5.822  1.2371 -0.0175  3.6583
19092TIP3    H278768   2.765   6.551   5.828  0.3884 -0.1661  0.6585
19093TIP3   OH278769   1.737   0.711   3.034 -0.4254 -0.0438 -0.6322
19093TIP3    H178770   1.790   0.631   3.032  1.8518  1.2363  1.5542
19093TIP3    H278771   1.753   0.751   2.949  0.4137 -0.7426 -0.8273
19094TIP3   OH278772   0.986   1.526  16.311 -0.1402 -0.3133 -0.3829
19094TIP3    H178773   0.965   1.462  16.379  0.8041 -2.2704 -1.8166
19094TIP3    H278774   0.912   1.520  16.250 -1.0176  1.4819  0.4066
19095TIP3   OH278775   4.450   3.929   4.858  0.2601  0.0954  0.1115
19095TIP3    H178776   4.436   4.009   4.806 -1.4597  0.5782  1.2210
19095TIP3    H278777   4.365   3.886   4.858  0.9600 -1.3268  0.2520
19096TIP3   OH278778   2.323   2.048   2.051  1.0241 -0.2463  0.5003
19096TIP3    H178779   2.295   1.959   2.029  1.2184 -0.3709  0.7485
19096TIP3    H278780   2.243   2.100   2.049  1.2135  0.0909 -2.0737
19097TIP3   OH278781   5.132   3.590   2.623 -0.3801  0.7844 -0.1011
19097TIP3    H178782   5.197   3.579   2.691  0.2744  1.2771 -0.6318
19097TIP3    H278783   5.072   3.516   2.634  0.5901  0.0087  0.0352
19098TIP3   OH278784   4.921   6.772  16.883  0.0534  0.7164 -0.2651
19098TIP3    H178785   4.878   6.745  16.964  0.4102 -1.2342 -0.6523
19098TIP3    H278786   5.009   6.799  16.910  0.1519  0.1268  0.0238
19099TIP3   OH278787   0.777   2.942  11.747 -0.2782  0.2649  0.0877
19099TIP3    H178788   0.731   2.858  11.742 -1.1152  0.5580  1.8747
19099TIP3    H278789   0.708   3.008  11.737 -0.0154  0.7158  1.0616
19100TIP3   OH278790   5.132   1.303  13.789 -0.2519  0.3889 -0.6864
19100TIP3    H178791   5.052   1.266  13.753 -1.3980 -0.6797  2.6257
19100TIP3    H278792   5.190   1.228  13.800  0.4959  0.8656 -1.2831
19101TIP3   OH278793   6.750   3.897  16.354  0.5586 -0.0564 -0.1306
19101TIP3    H178794   6.756   3.992  16.362 -1.1197  0.0701 -0.1645
19101TIP3    H278795   6.726   3.882  16.262  2.0618 -0.6038 -0.4698
19102TIP3   OH278796   5.393   5.509  13.095 -0.2707  0.1001 -0.6028
19102TIP3    H178797   5.474   5.527  13.048 -0.5308  2.3026 -0.3292
19102TIP3    H278798   5.325   5.512  13.028 -0.4054  1.1180 -0.4424
19103TIP3   OH278799   1.623   1.011  17.252  0.1189 -0.1648 -0.4271
19103TIP3    H178800   1.550   0.993  17.312  1.3835 -1.6159  0.7967
19103TIP3    H278801   1.604   1.097  17.216 -2.2212 -0.5134 -0.2290
19104TIP3   OH278802   1.795   5.378  14.192  0.0156  0.3546  0.1116
19104TIP3    H178803   1.746   5.458  14.173 -0.3973 -0.0770 -0.6714
19104TIP3    H278804   1.739   5.307  14.161  0.6128 -0.2190  0.3099
19105TIP3   OH278805   4.329   0.469  16.592 -0.0596 -0.0593  0.6262
19105TIP3    H178806   4.291   0.504  16.512 -1.3081 -2.4985  0.0794
19105TIP3    H278807   4.422   0.456  16.571  0.2914  2.0389  0.6188
19106TIP3   OH278808   4.282   0.711   2.752 -0.7062  0.2342  0.2587
19106TIP3    H178809   4.205   0.665   2.785 -1.0420  0.2753 -0.4601
19106TIP3    H278810   4.356   0.667   2.795 -1.1712  0.8671  1.7430
19107TIP3   OH278811   2.188   6.541  16.607  0.5631  0.1541 -0.2627
19107TIP3    H178812   2.161   6.622  16.650  2.2121  0.5654  0.0910
19107TIP3    H278813   2.246   6.569  16.536  2.9790 -0.6934  1.2174
19108TIP3   OH278814   4.252   2.792   1.608 -0.2507  0.2082  0.4746
19108TIP3    H178815   4.238   2.780   1.514  1.7293 -1.5218  0.3236
19108TIP3    H278816   4.296   2.876   1.615 -3.0987  1.8661  0.2478
19109TIP3   OH278817   2.701   3.121   1.074  0.2956 -0.3083  0.6424
19109TIP3    H178818   2.696   3.205   1.119  1.3869 -0.5177  1.1902
19109TIP3    H278819   2.674   3.057   1.140  0.1565 -0.4490  0.4485
19110TIP3   OH278820   1.973   6.462  14.740 -0.1103  0.2218 -0.5504
19110TIP3    H178821   2.029   6.384  14.739 -0.7896 -0.3094  0.5897
19110TIP3    H278822   1.884   6.428  14.750 -0.3013  1.1365  1.4761
19111TIP3   OH278823   6.267   6.647   0.484 -0.0726 -0.2479  0.2790
19111TIP3    H178824   6.329   6.618   0.417  0.1166 -1.5340  0.9937
19111TIP3    H278825   6.261   6.574   0.545 -0.6596  0.6982  1.3835
19112TIP3   OH278826   3.831   3.261  12.360 -0.1853  0.4719  0.1236
19112TIP3    H178827   3.782   3.181  12.338  0.3251  0.3330 -0.5646
19112TIP3    H278828   3.856   3.249  12.451  0.9038 -0.7436 -0.2880
19113TIP3   OH278829   1.854   0.641  13.470  0.2321 -0.3117  0.5059
19113TIP3    H178830   1.925   0.701  13.494 -0.1241 -0.7039  2.7412
19113TIP3    H278831   1.861   0.569  13.532 -1.5634 -0.8137  0.1980
19114TIP3   OH278832   6.420   1.056   3.170  0.2351 -0.4902  0.2250
19114TIP3    H178833   6.467   1.138   3.155 -1.3259  0.2941 -0.5578
19114TIP3    H278834   6.370   1.071   3.250 -3.3572  1.0058 -2.0411
19115TIP3   OH278835   4.203   1.937   1.916  0.0782  0.2444  0.0651
19115TIP3    H178836   4.169   1.887   1.990 -0.9063  0.0921 -0.4762
19115TIP3    H278837   4.283   1.978   1.949 -0.5956  0.5600  1.3560
19116TIP3   OH278838   1.077   4.964  17.003  0.2297  0.2030 -0.0265
19116TIP3    H178839   1.109   4.875  16.985 -0.3254 -0.4910  2.1524
19116TIP3    H278840   0.982   4.957  16.996  0.0698  0.1929  1.6739
19117TIP3   OH278841   5.593   1.583  12.038 -0.2122 -0.3481 -0.0623
19117TIP3    H178842   5.544   1.546  12.112 -1.1654  0.4161 -0.2912
19117TIP3    H278843   5.559   1.672  12.029  1.5432  0.3758  0.0420
19118TIP3   OH278844   1.012   3.039  12.399 -0.0914  0.5896  0.2933
19118TIP3    H178845   1.082   2.975  12.408 -0.7721 -0.3117 -0.5634
19118TIP3    H278846   0.971   3.043  12.486  1.4400  1.6678  1.0027
19119TIP3   OH278847   4.266   4.227   4.394  0.3229 -0.1120  0.7825
19119TIP3    H178848   4.244   4.192   4.308  0.7099  0.0010  0.6366
19119TIP3    H278849   4.222   4.169   4.456 -0.3143  0.0644  0.4948
19120TIP3   OH278850   5.338   6.749   1.063  0.0569 -0.3565 -0.9528
19120TIP3    H178851   5.249   6.779   1.043  0.0590 -0.2221 -0.7638
19120TIP3    H278852   5.351   6.674   1.005 -0.2986 -0.5774 -0.7529
19121TIP3   OH278853   4.591   2.544   6.266 -0.6598  0.4098 -0.0156
19121TIP3    H178854   4.556   2.459   6.239  0.1116 -0.4171  1.4358
19121TIP3    H278855   4.514   2.599   6.280 -1.2207 -0.3474 -0.0746
19122TIP3   OH278856   4.823   2.144   0.940 -0.0956 -0.0035  0.1122
19122TIP3    H178857   4.781   2.107   0.863 -2.2861  0.2450  1.0948
19122TIP3    H278858   4.783   2.097   1.014  0.5750  1.0160  1.1549
19123TIP3   OH278859   4.913   2.984   0.528 -0.1014 -0.7994  0.4604
19123TIP3    H178860   4.845   2.917   0.528  0.2843 -1.2730 -2.2703
19123TIP3    H278861   4.882   3.051   0.467  1.8771 -1.0577 -0.9118
19124TIP3   OH278862   1.392   3.324  16.933  0.2289 -0.0786 -0.1215
19124TIP3    H178863   1.459   3.390  16.954  0.4256 -0.2435 -0.2249
19124TIP3    H278864   1.318   3.346  16.989  0.3393  0.1584 -0.0684
19125TIP3   OH278865   1.786   3.414  12.924  0.3270 -0.7755 -0.2490
19125TIP3    H178866   1.701   3.372  12.913  0.3777 -0.9860  0.1378
19125TIP3    H278867   1.820   3.423  12.835  0.3321 -1.5865 -0.3322
19126TIP3   OH278868   6.686   3.581  13.256  0.1065 -0.3053 -0.2748
19126TIP3    H178869   6.703   3.489  13.279 -1.3704  0.1002  2.9153
19126TIP3    H278870   6.711   3.630  13.334 -1.4747  1.7602 -0.9914
19127TIP3   OH278871   6.295   3.242   0.767  0.6606  0.1682  0.3650
19127TIP3    H178872   6.226   3.277   0.710 -1.5706 -1.2499  2.0188
19127TIP3    H278873   6.320   3.317   0.822 -1.0237  0.2684  1.0571
19128TIP3   OH278874   2.681   1.031   3.048  0.1352 -0.1113 -0.2895
19128TIP3    H178875   2.670   1.124   3.025  1.4634  0.1613  0.0873
19128TIP3    H278876   2.694   0.987   2.965  0.2991  0.1644 -0.4126
19129TIP3   OH278877   4.612   4.777   0.419  0.1008 -0.4832 -0.5520
19129TIP3    H178878   4.534   4.722   0.421 -1.2255  1.3062  2.0244
19129TIP3    H278879   4.682   4.719   0.450 -0.9582 -1.1581  0.6962
19130TIP3   OH278880   1.242   1.847   2.849 -0.0909  0.1390 -0.5852
19130TIP3    H178881   1.146   1.843   2.850 -0.1048 -0.0949  1.5483
19130TIP3    H278882   1.264   1.857   2.757 -2.2015  1.1207 -1.0589
19131TIP3   OH278883   6.654   2.325  15.850  0.4489 -0.3139  0.2446
19131TIP3    H178884   6.639   2.419  15.864  0.7955 -0.0365 -1.1154
19131TIP3    H278885   6.600   2.303  15.774  0.2835 -1.2531  0.6183
19132TIP3   OH278886   1.586   4.207  10.523  0.1568  0.0825 -0.1233
19132TIP3    H178887   1.630   4.237  10.444 -0.0725  0.9778  0.0855
19132TIP3    H278888   1.589   4.111  10.516 -0.6282  0.1281 -1.6485
19133TIP3   OH278889   4.012   0.163  10.866  0.6045 -0.5400  0.2639
19133TIP3    H178890   3.960   0.226  10.916 -1.1045 -1.1267 -0.6960
19133TIP3    H278891   4.059   0.113  10.932  0.2912  0.2959  1.1513
19134TIP3   OH278892   1.335   4.090  15.243 -0.0741  0.2752  0.2253
19134TIP3    H178893   1.272   4.108  15.174  0.4386  1.2899  0.0138
19134TIP3    H278894   1.407   4.044  15.199 -0.3322 -0.2543  0.3411
19135TIP3   OH278895   2.175   4.360   4.119 -0.3759  0.3074 -0.3298
19135TIP3    H178896   2.160   4.267   4.101 -1.7121  0.2594  0.8469
19135TIP3    H278897   2.168   4.367   4.214  1.5615  1.3232 -0.2127
19136TIP3   OH278898   2.544   5.962  16.808  0.2661 -0.4415  0.3800
19136TIP3    H178899   2.476   5.920  16.860  0.2474 -2.0735 -0.8969
19136TIP3    H278900   2.623   5.912  16.827  0.2934 -0.9565 -1.0211
19137TIP3   OH278901   4.743   1.843  16.316 -0.5017 -0.4041  0.3082
19137TIP3    H178902   4.815   1.903  16.298  0.0840 -0.5224  2.0166
19137TIP3    H278903   4.785   1.761  16.342 -1.2838 -1.1603 -0.7383
19138TIP3   OH278904   6.422   0.187  12.892 -0.1230  0.5926 -0.1699
19138TIP3    H178905   6.474   0.158  12.967 -0.5917 -0.4746 -0.2378
19138TIP3    H278906   6.354   0.120  12.882 -0.4685  1.0602 -1.1449
19139TIP3   OH278907   5.131   3.552  14.850 -0.0475 -0.4268 -0.1895
19139TIP3    H178908   5.088   3.508  14.777  0.1582 -0.2552 -0.4185
19139TIP3    H278909   5.224   3.555  14.824 -0.3480  2.1327 -1.2234
19140TIP3   OH278910   0.330   0.931   4.433 -0.4861 -0.1939  0.4998
19140TIP3    H178911   0.346   0.877   4.510  2.4968  0.2624  0.2927
19140TIP3    H278912   0.354   1.020   4.459 -1.6970  0.4021 -0.2899
19141TIP3   OH278913   2.271   1.597  16.607  0.2476 -0.0671 -0.8450
19141TIP3    H178914   2.340   1.662  16.618 -0.4330  0.6222 -0.5544
19141TIP3    H278915   2.191   1.643  16.631 -0.2623 -0.9861 -0.7325
19142TIP3   OH278916   3.777   3.723   2.333  0.0942 -0.3070 -0.0459
19142TIP3    H178917   3.861   3.677   2.330  1.1056  1.4798 -1.0634
19142TIP3    H278918   3.726   3.684   2.263  1.0110  0.2139 -1.0328
19143TIP3   OH278919   6.614   2.702  11.922  0.4372 -0.4988 -0.3983
19143TIP3    H178920   6.655   2.661  11.846  0.4938  0.5339 -0.9498
19143TIP3    H278921   6.584   2.629  11.976 -0.1880 -1.2622 -1.7254
19144TIP3   OH278922   1.873   1.135  17.003  0.0417 -0.2426 -0.3539
19144TIP3    H178923   1.968   1.149  17.004  0.1870 -0.8407 -2.1239
19144TIP3    H278924   1.861   1.050  17.045  0.3598 -0.5200 -0.8273
19145TIP3   OH278925   1.755   4.135  15.690  0.0085  0.2635  0.3197
19145TIP3    H178926   1.695   4.070  15.726  2.0001 -1.6156  0.4337
19145TIP3    H278927   1.737   4.136  15.596 -1.5686  1.2876  0.5849
19146TIP3   OH278928   4.495   2.158   1.810 -0.3380  1.0585  0.8219
19146TIP3    H178929   4.483   2.090   1.744 -0.1106  1.8975 -0.1112
19146TIP3    H278930   4.590   2.168   1.816 -0.3647  1.1357  1.1214
19147TIP3   OH278931   1.563   0.977  11.546  0.1064  0.4799  0.0761
19147TIP3    H178932   1.602   0.927  11.618 -2.0425 -2.2463 -0.4906
19147TIP3    H278933   1.601   0.940  11.467 -0.9376  0.2742 -0.3399
19148TIP3   OH278934   6.134   2.765  14.172 -0.5147  0.1350 -0.2010
19148TIP3    H178935   6.088   2.839  14.213  0.0404  0.2201  0.2825
19148TIP3    H278936   6.132   2.696  14.238  0.4826  0.3082  0.0218
19149TIP3   OH278937   4.010   4.852  11.564  0.8228  0.1325 -0.4463
19149TIP3    H178938   4.023   4.897  11.481  0.8325  1.4503  0.2418
19149TIP3    H278939   4.058   4.905  11.628  0.8757 -0.8920  0.3992
19150TIP3   OH278940   1.794   1.363   0.462 -0.9399 -0.3903 -0.5488
19150TIP3    H178941   1.858   1.310   0.509 -0.3267 -0.3566 -1.3259
19150TIP3    H278942   1.714   1.354   0.513 -0.2032 -0.0445  0.7184
19151TIP3   OH278943   5.346   4.547  16.216 -0.6878  0.3480 -0.6231
19151TIP3    H178944   5.283   4.581  16.279 -1.4256 -0.4117 -0.9303
19151TIP3    H278945   5.297   4.483  16.164  0.6544 -1.3001  0.0265
19152TIP3   OH278946   6.026   0.169   0.674 -0.0680 -0.1551  0.5734
19152TIP3    H178947   6.084   0.221   0.619 -0.3861 -0.6696 -0.2661
19152TIP3    H278948   6.059   0.080   0.667 -1.1380 -0.5190 -0.1973
19153TIP3   OH278949   4.021   5.546   0.612  0.3921 -0.1588 -0.7826
19153TIP3    H178950   3.983   5.631   0.638 -1.5976 -0.7873 -1.4328
19153TIP3    H278951   4.029   5.497   0.693 -1.0566 -0.3024 -0.6985
19154TIP3   OH278952   5.447   1.203   0.737 -0.6562 -0.0457  0.0018
19154TIP3    H178953   5.372   1.145   0.724  0.2428 -0.8635 -2.1173
19154TIP3    H278954   5.475   1.225   0.648  0.8848  1.2005  0.7473
19155TIP3   OH278955   4.099   2.967  11.789 -0.0766 -0.8556  0.1257
19155TIP3    H178956   4.051   2.965  11.707  0.7816  4.4132 -0.8038
19155TIP3    H278957   4.031   2.965  11.857 -1.3851  1.4703 -1.0121
19156TIP3   OH278958   4.920   6.564   0.575  0.5533 -0.1609  0.4532
19156TIP3    H178959   5.000   6.549   0.527  0.5237 -3.4472  1.2363
19156TIP3    H278960   4.914   6.660   0.583  1.9807  0.4206 -3.4574
19157TIP3   OH278961   3.105   6.468  14.405 -0.2311  0.8572  0.0763
19157TIP3    H178962   3.180   6.512  14.445 -1.9901  2.7698  1.4560
19157TIP3    H278963   3.118   6.482  14.311  0.8501  1.6145  0.3099
19158TIP3   OH278964   4.259   0.558  12.457  0.1986 -0.3474  0.0908
19158TIP3    H178965   4.177   0.592  12.491  0.0246 -0.9616  0.2953
19158TIP3    H278966   4.236   0.515  12.375  0.2172 -1.0372  0.4433
19159TIP3   OH278967   1.586   3.622   5.586  0.0241 -0.2009 -0.1792
19159TIP3    H178968   1.539   3.670   5.518  0.1400  0.2170  0.0378
19159TIP3    H278969   1.678   3.632   5.563  0.0540 -0.2114 -0.0603
19160TIP3   OH278970   3.471   1.218   1.305  0.3301  0.0637  0.2054
19160TIP3    H178971   3.488   1.218   1.211  0.3342 -0.3767  0.2056
19160TIP3    H278972   3.409   1.291   1.317  1.7366  1.3154  0.1362
19161TIP3   OH278973   4.120   1.706   6.124 -0.3293 -0.4403  0.0081
19161TIP3    H178974   4.144   1.666   6.208  1.3595  1.0594  0.2903
19161TIP3    H278975   4.024   1.711   6.127 -0.3331 -0.7047  1.7068
19162TIP3   OH278976   3.662   4.782   2.971 -0.1677 -0.2958  0.0138
19162TIP3    H178977   3.581   4.832   2.973 -1.3334 -2.1456  1.2440
19162TIP3    H278978   3.715   4.825   2.903 -2.9525 -0.2579 -2.2976
19163TIP3   OH278979   4.543   5.585  10.331 -0.2459 -0.0957  0.1667
19163TIP3    H178980   4.493   5.518  10.377  0.0017 -0.7851 -0.5553
19163TIP3    H278981   4.614   5.537  10.288  0.2607  0.7005  0.0954
19164TIP3   OH278982   3.148   0.516   0.617  0.9183 -0.4651 -0.7793
19164TIP3    H178983   3.147   0.485   0.708 -0.1520  0.8099 -0.3240
19164TIP3    H278984   3.236   0.550   0.605  0.7641  0.3015  0.1397
19165TIP3   OH278985   3.838   1.958   4.784 -0.6879 -0.8838 -0.2370
19165TIP3    H178986   3.826   1.965   4.690 -0.3643 -0.3482 -0.2473
19165TIP3    H278987   3.924   1.918   4.795 -0.0997  0.3327 -0.1858
19166TIP3   OH278988   0.464   1.134  12.918 -0.3472 -0.2360 -0.2024
19166TIP3    H178989   0.493   1.188  12.992  2.2532 -0.3370 -1.0713
19166TIP3    H278990   0.523   1.059  12.918 -2.7871 -2.3248 -0.0808
19167TIP3   OH278991   6.155   6.754   3.111 -0.3021 -0.2243 -0.1713
19167TIP3    H178992   6.094   6.680   3.105 -0.9553  0.3706 -1.3123
19167TIP3    H278993   6.198   6.743   3.195 -1.6584 -0.9308  0.4604
19168TIP3   OH278994   5.721   5.167  13.657 -0.1889  1.1367 -0.0075
19168TIP3    H178995   5.815   5.154  13.651 -0.1893  1.2867 -0.4374
19168TIP3    H278996   5.685   5.081  13.679 -0.1148  0.6045 -1.7860
19169TIP3   OH278997   4.921   6.002  14.402 -0.0918  0.4671 -0.1296
19169TIP3    H178998   4.933   5.969  14.491 -1.7073  0.3050  0.0581
19169TIP3    H278999   5.009   6.028  14.374  0.6320 -0.5270  1.0868
19170TIP3   OH279000   2.071   1.849   0.091  0.0960  0.2021 -0.2681
19170TIP3    H179001   2.045   1.940   0.108 -0.0053  0.0872  0.1978
19170TIP3    H279002   2.058   1.838  -0.003 -1.5814  0.1343 -0.0618
19171TIP3   OH279003   0.770   4.011   5.715 -0.5508 -0.3260  0.6153
19171TIP3    H179004   0.695   4.010   5.655  0.5782  0.2537 -0.8869
19171TIP3    H279005   0.742   3.957   5.789 -3.7654  2.6376  1.8347
19172TIP3   OH279006   3.917   5.316   5.307 -0.5840 -0.3160  0.0748
19172TIP3    H179007   3.902   5.334   5.400 -0.1744  0.2476  0.0362
19172TIP3    H279008   3.965   5.392   5.275 -1.3220 -0.1865 -0.7688
19173TIP3   OH279009   5.408   4.763   5.140  0.1034 -0.3600 -0.2125
19173TIP3    H179010   5.418   4.849   5.181  0.4535 -0.6324  0.2802
19173TIP3    H279011   5.411   4.780   5.046  2.0283 -0.0329 -0.1354
19174TIP3   OH279012   5.345   6.017  13.640  0.3928  0.2613 -0.0612
19174TIP3    H179013   5.391   6.099  13.653 -1.2529  1.6510 -2.3422
19174TIP3    H279014   5.258   6.031  13.678 -0.9492  0.7910 -3.0070
19175TIP3   OH279015   5.275   1.869  13.206 -0.1382 -0.5066  0.2137
19175TIP3    H179016   5.367   1.854  13.225 -0.2940 -1.0656  0.5246
19175TIP3    H279017   5.234   1.783  13.213 -0.7164 -0.2322  0.2544
19176TIP3   OH279018   6.220   5.290   2.409  0.1359  0.4747  0.1797
19176TIP3    H179019   6.138   5.329   2.441  0.2090  0.8842 -0.1243
19176TIP3    H279020   6.276   5.365   2.388 -0.4428  0.2959 -2.3346
19177TIP3   OH279021   6.693   2.920  14.771 -0.4715 -0.3374  0.5070
19177TIP3    H179022   6.741   2.970  14.705 -1.1354  1.0190  1.0318
19177TIP3    H279023   6.747   2.926  14.850  0.5897 -2.3965  0.0218
19178TIP3   OH279024   2.732   1.126  13.386 -0.4792 -0.4064  0.2560
19178TIP3    H179025   2.736   1.102  13.478 -2.4971  0.4298  0.6090
19178TIP3    H279026   2.664   1.070  13.349  0.0334 -0.4550 -0.6549
19179TIP3   OH279027   0.060   3.119   4.504  0.2996 -0.1221  0.1933
19179TIP3    H179028   0.065   3.182   4.576  0.8156 -0.8339  0.7832
19179TIP3    H279029   0.004   3.049   4.537  0.8381 -0.6291  0.0392
19180TIP3   OH279030   5.141   4.088  11.464 -0.3363  0.4303 -0.0607
19180TIP3    H179031   5.144   4.142  11.385 -2.4815  1.6665  0.6136
19180TIP3    H279032   5.146   4.151  11.536  0.4313 -0.5745  0.7843
19181TIP3   OH279033   0.576   4.949  13.608  0.3352 -0.2521 -0.0305
19181TIP3    H179034   0.487   4.969  13.577 -0.1602 -0.6046  1.1097
19181TIP3    H279035   0.595   4.863  13.571  1.6081  1.2269 -3.1316
19182TIP3   OH279036   3.970   1.867  13.612 -0.1792 -0.2032 -0.3403
19182TIP3    H179037   3.983   1.821  13.529 -0.1597  1.8790 -1.5665
19182TIP3    H279038   4.056   1.903  13.633 -0.5655  0.7645 -0.3692
19183TIP3   OH279039   5.210   4.899   6.268  0.1051  0.2271 -0.0443
19183TIP3    H179040   5.275   4.883   6.336 -0.5052 -0.3640  0.4220
19183TIP3    H279041   5.177   4.987   6.287  1.4778  0.9602 -0.9076
19184TIP3   OH279042   1.124   0.502  15.174  0.3593  0.4717  0.8668
19184TIP3    H179043   1.203   0.525  15.222  2.3201  0.5350 -2.1340
19184TIP3    H279044   1.142   0.528  15.084 -1.7971 -2.4507 -0.5751
19185TIP3   OH279045   2.664   1.860  13.496 -0.2171  0.1061  0.4249
19185TIP3    H179046   2.605   1.785  13.488 -1.1874  0.9610 -0.9774
19185TIP3    H279047   2.740   1.836  13.443 -1.2903  0.7672 -1.5062
19186TIP3   OH279048   5.323   4.896  15.592  0.6354  0.1867 -0.2086
19186TIP3    H179049   5.419   4.894  15.584  0.5534  1.0388 -1.6613
19186TIP3    H279050   5.305   4.977  15.639  0.5836  0.5763 -0.8906
19187TIP3   OH279051   3.135   0.136  14.066 -0.2631  0.2023 -0.0877
19187TIP3    H179052   3.100   0.185  14.141 -1.4123  0.6981 -0.9360
19187TIP3    H279053   3.134   0.199  13.994 -2.5412 -1.2494 -1.4207
19188TIP3   OH279054   3.249   1.826  15.284  0.4258  0.3187  0.1839
19188TIP3    H179055   3.248   1.776  15.202  2.1262  1.5168 -0.6417
19188TIP3    H279056   3.160   1.858  15.294 -0.4805 -2.0351  0.2502
19189TIP3   OH279057   0.478   0.266  15.589 -0.6674  0.1197 -0.4041
19189TIP3    H179058   0.402   0.321  15.568 -2.1755 -2.4455 -2.2475
19189TIP3    H279059   0.469   0.249  15.683 -3.4544 -1.4434 -0.8264
19190TIP3   OH279060   4.512   3.440  15.993 -0.3955 -0.5893 -0.4035
19190TIP3    H179061   4.488   3.373  15.929 -1.5485  0.2439 -0.8726
19190TIP3    H279062   4.568   3.500  15.944 -1.8733  0.4499 -0.8775
19191TIP3   OH279063   0.209   1.995   3.566 -0.0563  0.1994 -0.1447
19191TIP3    H179064   0.258   1.960   3.639  0.5746  0.4802 -0.4311
19191TIP3    H279065   0.238   1.943   3.490 -0.5109  0.0816 -0.2420
19192TIP3   OH279066   6.784   2.557   0.100  0.3304 -0.2214  0.1719
19192TIP3    H179067   6.735   2.613   0.039  1.1216 -0.2498 -0.5064
19192TIP3    H279068   6.777   2.602   0.184 -3.9672 -2.0095  1.0588
19193TIP3   OH279069   1.226   5.819   5.639 -0.1196 -0.7331 -0.1888
19193TIP3    H179070   1.309   5.772   5.647 -0.5151 -1.5362 -0.6858
19193TIP3    H279071   1.242   5.903   5.683  0.6761 -1.2267  0.5080
19194TIP3   OH279072   1.008   6.345  10.585  0.2477 -0.1185 -0.6276
19194TIP3    H179073   1.085   6.290  10.596  0.6389  0.2062 -1.6187
19194TIP3    H279074   1.039   6.434  10.604  0.4681  0.1950 -2.3133
19195TIP3   OH279075   1.774   6.102  16.231  0.2836 -0.3781 -0.3002
19195TIP3    H179076   1.744   6.046  16.159  0.3728 -0.4361 -0.2933
19195TIP3    H279077   1.774   6.044  16.307 -1.9846  0.2347  0.2352
19196TIP3   OH279078   0.043   0.155  13.830  0.5526  0.0628  0.1948
19196TIP3    H179079   0.102   0.080  13.844  0.5894  0.2099  0.8304
19196TIP3    H279080   0.051   0.207  13.909 -1.8785 -0.8860  1.1566
19197TIP3   OH279081   2.201   3.802   2.716  0.1787 -0.2457  0.4614
19197TIP3    H179082   2.196   3.893   2.688  0.5144  0.4194  2.4151
19197TIP3    H279083   2.270   3.763   2.661 -0.1152  0.5919 -0.5306
19198TIP3   OH279084   2.551   5.931   2.309  0.3091 -0.3108 -0.0258
19198TIP3    H179085   2.543   5.902   2.219 -0.6306  0.2817 -0.1510
19198TIP3    H279086   2.496   6.009   2.314 -1.9792 -1.8996  1.7365
19199TIP3   OH279087   5.213   4.676   1.000 -0.0883  0.5166  0.3692
19199TIP3    H179088   5.174   4.710   1.081  1.1166  1.7866  0.4456
19199TIP3    H279089   5.306   4.695   1.008  0.1680 -0.0687 -0.9734
19200TIP3   OH279090   2.103   2.480   6.139 -0.7988 -0.3840 -0.1427
19200TIP3    H179091   2.188   2.523   6.137 -0.4805 -1.0184 -0.5322
19200TIP3    H279092   2.115   2.406   6.199 -0.8138 -1.0051 -0.8989
19201TIP3   OH279093   5.125   4.080   5.016 -0.1799 -0.0099 -0.0849
19201TIP3    H179094   5.185   4.126   4.958 -1.3970  1.4595 -0.2315
19201TIP3    H279095   5.179   4.057   5.092  0.5796  1.2242 -0.2287
19202TIP3   OH279096   6.331   5.156   0.726 -0.3538  0.1747  0.0925
19202TIP3    H179097   6.308   5.165   0.818 -1.3379 -1.0266 -0.0053
19202TIP3    H279098   6.286   5.076   0.697  1.5131 -0.5871 -0.9285
19203TIP3   OH279099   4.047   1.806   3.764  0.6841 -0.2047  1.0203
19203TIP3    H179100   4.142   1.800   3.752  0.5594 -1.8121  0.5265
19203TIP3    H279101   4.011   1.754   3.692 -0.6584  1.7062  0.2269
19204TIP3   OH279102   5.385   4.994  11.286 -0.2281 -0.3325 -0.2739
19204TIP3    H179103   5.389   5.077  11.238  3.3433 -1.4822 -2.3415
19204TIP3    H279104   5.314   4.946  11.245 -1.8565  1.3211  0.4548
19205TIP3   OH279105   5.062   2.627  14.563  0.3918  0.2053  0.0147
19205TIP3    H179106   4.992   2.691  14.573  0.6368  0.7168 -1.3608
19205TIP3    H279107   5.142   2.674  14.590  0.3010 -0.2067  1.0533
19206TIP3   OH279108   3.728   5.064  16.522  0.0590 -0.4863 -0.6293
19206TIP3    H179109   3.695   4.996  16.582  2.0416  0.8506  2.1927
19206TIP3    H279110   3.649   5.101  16.483 -1.2264 -2.6664 -0.2911
19207TIP3   OH279111   3.110   1.481  15.766  0.3370 -0.1515 -0.3914
19207TIP3    H179112   3.049   1.477  15.692  1.4414  0.2205 -1.3444
19207TIP3    H279113   3.192   1.446  15.731  1.6379  2.4651 -0.1310
19208TIP3   OH279114   6.351   6.346   2.871  0.3168 -0.0154  0.5759
19208TIP3    H179115   6.397   6.417   2.827 -1.5984 -0.4405 -2.4411
19208TIP3    H279116   6.329   6.380   2.957  0.4494  2.6122 -0.3559
19209TIP3   OH279117   1.836   1.420  15.998 -0.4109 -0.1207  0.3702
19209TIP3    H179118   1.796   1.391  15.916 -1.6458  0.7970  0.6094
19209TIP3    H279119   1.763   1.454  16.050  0.5960  1.0674  1.0838
19210TIP3   OH279120   0.020   6.343  13.067  0.2532  0.1473  0.2170
19210TIP3    H179121   0.020   6.253  13.099 -0.1175  0.5892  1.5465
19210TIP3    H279122  -0.067   6.377  13.091  0.7201  1.1288  0.5627
19211TIP3   OH279123   0.214   6.529  14.360 -0.9622  0.3660  0.2222
19211TIP3    H179124   0.293   6.495  14.401 -1.8161 -1.4603  0.4388
19211TIP3    H279125   0.246   6.582  14.286  0.4744  0.8292  1.1332
19212TIP3   OH279126   4.772   6.674   1.302 -0.3590  0.2936 -0.0972
19212TIP3    H179127   4.760   6.609   1.372  0.1419  1.3273  0.9919
19212TIP3    H279128   4.683   6.698   1.277 -0.6102  1.3113  1.5763
19213TIP3   OH279129   0.741   5.739  11.202 -0.2282 -0.2189 -0.1267
19213TIP3    H179130   0.677   5.671  11.185  0.1833 -0.6039 -0.1338
19213TIP3    H279131   0.815   5.694  11.243  0.2111  0.1545 -0.4901
19214TIP3   OH279132   3.325   5.860  15.011 -0.0905  0.2263  0.0792
19214TIP3    H179133   3.315   5.779  15.060  2.4675 -0.9403 -1.1253
19214TIP3    H279134   3.254   5.916  15.043 -2.2602 -2.5878  0.6169
19215TIP3   OH279135   2.275   0.396   1.074  0.3856 -0.4083 -0.6979
19215TIP3    H179136   2.318   0.443   1.145  1.8772 -0.4720 -1.4988
19215TIP3    H279137   2.248   0.465   1.013  2.2462 -0.5026 -1.6980
19216TIP3   OH279138   5.161   5.636   1.287 -0.0023 -0.2289  0.1714
19216TIP3    H179139   5.218   5.573   1.331 -0.4531 -0.4233  0.4878
19216TIP3    H279140   5.148   5.600   1.200 -0.6611 -0.8426  0.5126
19217TIP3   OH279141   3.943   2.943   6.854  0.1650  0.1185 -0.3776
19217TIP3    H179142   3.962   3.031   6.886  0.0925 -0.7454  2.3083
19217TIP3    H279143   3.854   2.949   6.819  0.8520  1.4902 -2.0209
19218TIP3   OH279144   6.209   3.379   4.780 -0.5088 -0.2567 -0.3713
19218TIP3    H179145   6.156   3.427   4.716  0.2291  0.8594 -0.1833
19218TIP3    H279146   6.283   3.438   4.798 -0.9797 -0.2813  1.9173
19219TIP3   OH279147   6.087   3.799   2.671  0.2629  0.3018 -0.3139
19219TIP3    H179148   6.133   3.851   2.736 -0.7847 -0.5798  1.2030
19219TIP3    H279149   5.995   3.824   2.681 -0.3280 -2.0048  0.7143
19220TIP3   OH279150   6.340   0.946   3.640  0.1179 -0.5806 -0.2591
19220TIP3    H179151   6.247   0.955   3.624  0.2859  0.8132 -0.5685
19220TIP3    H279152   6.371   0.886   3.572 -0.1531  0.8200 -1.6585
19221TIP3   OH279153   2.095   2.894  13.765  0.3396  0.1001 -0.3329
19221TIP3    H179154   2.031   2.824  13.751 -0.0809  0.2050  0.9816
19221TIP3    H279155   2.114   2.891  13.859  2.3328  0.0205 -0.7017
19222TIP3   OH279156   2.578   6.595  15.540  0.4564  0.0069 -0.0497
19222TIP3    H179157   2.555   6.522  15.598  0.0279 -1.0686 -1.5075
19222TIP3    H279158   2.517   6.664  15.562 -1.6279 -1.3914 -1.0999
19223TIP3   OH279159   3.751   3.796   5.374  0.0784  0.9938 -0.1833
19223TIP3    H179160   3.734   3.884   5.408  0.3343  0.4648  1.4221
19223TIP3    H279161   3.847   3.792   5.366  0.2996  0.0682  2.1962
19224TIP3   OH279162   0.528   2.818   0.019  0.6017 -0.0924  0.3948
19224TIP3    H179163   0.541   2.872   0.097 -1.3948 -0.6153  1.1489
19224TIP3    H279164   0.552   2.730   0.047 -0.0462 -0.2681  0.4010
19225TIP3   OH279165   1.218   1.412  12.089  0.0519 -0.5373  0.3331
19225TIP3    H179166   1.160   1.483  12.062 -1.2955 -1.4711  0.6832
19225TIP3    H279167   1.230   1.424  12.183 -1.1868 -1.4572  0.6277
19226TIP3   OH279168   1.959   2.029  12.734 -0.8074  0.0318 -0.0936
19226TIP3    H179169   1.904   2.052  12.809  0.6806 -0.0285  1.0479
19226TIP3    H279170   2.045   2.065  12.755  0.1379 -1.6554 -0.8537
19227TIP3   OH279171   4.489   1.541   6.251 -0.1247 -0.0981  0.2574
19227TIP3    H179172   4.524   1.582   6.331 -0.3843 -0.2581  0.4547
19227TIP3    H279173   4.409   1.497   6.280  1.0653 -2.2808  0.4290
19228TIP3   OH279174   0.731   1.582  16.519 -0.3178  0.1362 -0.0507
19228TIP3    H179175   0.740   1.536  16.435 -0.0240 -0.8907  0.5357
19228TIP3    H279176   0.809   1.636  16.525  0.4119 -0.9313  0.2438
19229TIP3   OH279177   1.880   2.715   2.563  0.1640 -0.0309  0.2601
19229TIP3    H179178   1.790   2.707   2.595  0.8404 -1.0483  2.0347
19229TIP3    H279179   1.890   2.808   2.541 -1.1008  0.2234  0.6865
19230TIP3   OH279180   5.148   0.709   3.059  0.2878 -0.4871 -0.1750
19230TIP3    H179181   5.153   0.748   2.972 -0.4140  3.5752  1.4048
19230TIP3    H279182   5.056   0.715   3.083  0.3833 -2.0250  0.7231
19231TIP3   OH279183   2.856   3.318  11.017  0.2617 -0.0441  0.0894
19231TIP3    H179184   2.950   3.333  11.007 -0.1194  2.4843 -0.1412
19231TIP3    H279185   2.836   3.251  10.951  1.6645  0.2961 -0.7212
19232TIP3   OH279186   5.147   6.547   2.779 -0.6333  0.2246 -0.2371
19232TIP3    H179187   5.185   6.460   2.766 -0.6148  0.2703 -0.4948
19232TIP3    H279188   5.222   6.606   2.780 -0.4560  0.0359  1.9084
19233TIP3   OH279189   3.320   3.682  16.841 -0.6768  0.3759 -0.1216
19233TIP3    H179190   3.365   3.695  16.924 -1.2485  0.2155  0.2179
19233TIP3    H279191   3.227   3.688  16.863 -0.8249  0.6193 -0.7980
19234TIP3   OH279192   4.263   5.470  11.367  0.1615  0.3296  0.5694
19234TIP3    H179193   4.227   5.550  11.330 -0.7012  0.4060  1.5253
19234TIP3    H279194   4.358   5.484  11.369  0.0609  1.0995  0.2281
19235TIP3   OH279195   2.925   1.416   1.643  0.1135  0.2742 -0.6697
19235TIP3    H179196   2.947   1.446   1.555 -1.5700  1.2175 -0.8137
19235TIP3    H279197   2.988   1.461   1.700  0.8870  0.0502 -1.3326
19236TIP3   OH279198   5.256   1.262  14.531  0.7051 -0.0723  0.0225
19236TIP3    H179199   5.180   1.257  14.474 -0.0927  1.4995  0.8776
19236TIP3    H279200   5.239   1.337  14.588  2.8547  0.2827  0.3075
19237TIP3   OH279201   0.967   1.547  15.460 -0.0173  0.2441  0.0273
19237TIP3    H179202   1.061   1.552  15.444  0.3629 -0.6494  1.7479
19237TIP3    H279203   0.931   1.625  15.417  1.6801  1.3413  0.5100
19238TIP3   OH279204   3.902   0.719  13.251 -0.2757  0.2268 -0.5322
19238TIP3    H179205   3.991   0.752  13.238 -0.3943  0.0516 -2.0165
19238TIP3    H279206   3.879   0.745  13.340  0.5578  1.9565 -0.7771
19239TIP3   OH279207   1.345   5.685  14.980  0.3603  0.1311  0.1932
19239TIP3    H179208   1.250   5.672  14.991  0.6637 -1.7177  1.1499
19239TIP3    H279209   1.364   5.650  14.893 -0.0378  2.0762 -0.7292
19240TIP3   OH279210   4.908   0.874   3.982 -0.0552  0.2330  0.2032
19240TIP3    H179211   4.913   0.937   4.053  0.0282  0.7960 -0.2939
19240TIP3    H279212   4.852   0.804   4.015  0.7054  0.0523  1.1479
19241TIP3   OH279213   3.680   0.471   5.712  0.1047 -0.5775  0.4392
19241TIP3    H179214   3.768   0.485   5.678 -0.0655 -2.1928 -0.7795
19241TIP3    H279215   3.692   0.467   5.807  1.1889  0.1888  0.3491
19242TIP3   OH279216   2.460   3.900   5.088 -0.3520 -0.3262  0.2105
19242TIP3    H179217   2.391   3.949   5.132 -0.4814 -0.3522  0.0368
19242TIP3    H279218   2.466   3.939   5.001  0.0056 -0.1775  0.2996
19243TIP3   OH279219   2.244   6.032  16.892  0.2331 -0.2242 -0.2009
19243TIP3    H179220   2.170   5.974  16.908 -0.8665  1.2921  0.4248
19243TIP3    H279221   2.222   6.077  16.810 -0.6034  1.7303  1.0149
19244TIP3   OH279222   6.491   5.475  14.804 -0.8125 -0.2694  0.1966
19244TIP3    H179223   6.430   5.419  14.852 -0.3601  0.8214  2.1174
19244TIP3    H279224   6.577   5.455  14.842 -0.3055 -0.0099 -0.7822
19245TIP3   OH279225   5.260   4.326   3.871 -0.3668  0.5922  0.1857
19245TIP3    H179226   5.181   4.273   3.882  0.4379 -0.2260  2.7908
19245TIP3    H279227   5.331   4.268   3.899  1.0062  1.7739 -0.7518
19246TIP3   OH279228   5.073   4.392  14.623 -0.0092  0.3813 -0.1365
19246TIP3    H179229   5.161   4.377  14.659  0.4616 -1.0258 -1.7436
19246TIP3    H279230   5.046   4.476  14.661  1.0041 -0.3117  2.2980
19247TIP3   OH279231   5.134   0.585  14.540  0.1869 -0.3944  0.0606
19247TIP3    H179232   5.101   0.672  14.517  0.2054 -0.5122 -0.4234
19247TIP3    H279233   5.209   0.602  14.596  0.0821 -0.1021  0.1162
19248TIP3   OH279234   4.302   6.765   3.447 -0.1633  0.8094 -0.0126
19248TIP3    H179235   4.237   6.817   3.492  0.7362 -0.5266  3.0769
19248TIP3    H279236   4.364   6.829   3.411 -0.1761  1.9674  1.9111
19249TIP3   OH279237   0.412   3.038   5.736 -0.0443 -0.0854 -0.1208
19249TIP3    H179238   0.445   2.955   5.700 -1.8785  0.1663 -2.6881
19249TIP3    H279239   0.334   3.014   5.785  0.7632 -0.0816  1.2180
19250TIP3   OH279240   5.122   6.737   5.592  0.1118  0.6810 -0.0246
19250TIP3    H179241   5.150   6.691   5.671 -0.1481  0.7331  0.0964
19250TIP3    H279242   5.185   6.709   5.525  0.0312  0.2453  0.0787
19251TIP3   OH279243   0.491   2.324   6.535 -0.1219 -0.0255  0.2587
19251TIP3    H179244   0.518   2.240   6.572 -1.3807 -0.2861  0.6374
19251TIP3    H279245   0.404   2.339   6.571  0.6671  2.2193  1.4730
19252TIP3   OH279246   2.369   4.772  13.799 -0.1908  0.3084  0.1377
19252TIP3    H179247   2.413   4.759  13.715 -0.7284  1.0790 -0.2737
19252TIP3    H279248   2.287   4.724  13.792 -0.2976  0.4821  0.1639
19253TIP3   OH279249   2.184   5.695   0.872 -0.2420 -0.4092 -0.1835
19253TIP3    H179250   2.147   5.661   0.953  0.3926 -2.1010 -0.5616
19253TIP3    H279251   2.108   5.727   0.823 -0.6048  0.8734  1.1413
19254TIP3   OH279252   0.267   0.900  13.110 -0.9501  0.3260  0.0524
19254TIP3    H179253   0.208   0.962  13.067 -0.9655 -0.1982 -0.7170
19254TIP3    H279254   0.354   0.939  13.102 -1.1052  0.8112  0.6468
19255TIP3   OH279255   6.801   6.576  11.898  0.5152  0.8237  0.2846
19255TIP3    H179256   6.858   6.581  11.821 -2.1425  2.2376 -1.7150
19255TIP3    H279257   6.723   6.531  11.867  0.1358 -0.3683  2.7470
19256TIP3   OH279258   1.080   5.203   3.656  0.0079 -0.2322 -0.2302
19256TIP3    H179259   1.040   5.118   3.639  1.6675 -0.6300 -2.7038
19256TIP3    H279260   1.122   5.195   3.741 -0.0269 -1.8233 -0.3442
19257TIP3   OH279261   1.408   3.494  11.711  0.1886  0.1132 -0.0075
19257TIP3    H179262   1.475   3.551  11.748 -0.8726  0.8064  0.9061
19257TIP3    H279263   1.451   3.410  11.698  1.3888  0.7174 -0.0149
19258TIP3   OH279264   2.266   4.513  13.331  0.2276 -0.3123  0.2475
19258TIP3    H179265   2.204   4.442  13.315  0.1015 -0.4928  1.4301
19258TIP3    H279266   2.352   4.472  13.326  0.1584 -0.5350  0.8325
19259TIP3   OH279267   2.492   4.239   0.219  1.1507 -0.8416  0.4935
19259TIP3    H179268   2.418   4.180   0.223  1.4543 -1.2922 -0.2375
19259TIP3    H279269   2.461   4.320   0.260  0.5695 -1.3307  1.0322
19260TIP3   OH279270   2.639   1.833   4.057 -0.3345  0.3162 -0.1001
19260TIP3    H179271   2.690   1.754   4.040 -0.9711 -0.2268  0.3787
19260TIP3    H279272   2.560   1.822   4.004 -0.1114  0.9791 -0.5757
19261TIP3   OH279273   5.469   2.648   5.613  0.0005 -0.4511  0.0654
19261TIP3    H179274   5.425   2.589   5.675  0.5833 -0.7148  0.2356
19261TIP3    H279275   5.497   2.591   5.542 -0.5098 -0.1748 -0.3670
19262TIP3   OH279276   5.802   2.746  12.012  0.3136  0.4437  0.0899
19262TIP3    H179277   5.864   2.765  12.083  0.9031  1.2879 -0.6163
19262TIP3    H279278   5.716   2.746  12.054  0.8338 -1.6209  1.2585
19263TIP3   OH279279   1.332   6.299   2.981 -0.0760 -0.2125 -0.3194
19263TIP3    H179280   1.245   6.335   2.964 -0.5613 -1.7701 -1.3079
19263TIP3    H279281   1.317   6.208   3.008  1.1619 -0.0125  1.2356
19264TIP3   OH279282   3.692   3.137   0.004  0.1722  0.5696  0.1145
19264TIP3    H179283   3.749   3.066   0.031  0.7452  0.4538 -1.3094
19264TIP3    H279284   3.749   3.214  -0.001 -0.1809  0.8580  0.4507
19265TIP3   OH279285   1.785   3.771   1.063 -0.1175 -0.5646  0.3029
19265TIP3    H179286   1.858   3.713   1.040 -0.8038 -1.0450 -0.7674
19265TIP3    H279287   1.750   3.801   0.978  0.0334  1.2015  0.8219
19266TIP3   OH279288   6.459   4.475  12.091 -0.2214 -0.5011  0.1441
19266TIP3    H179289   6.371   4.443  12.110 -0.9702  0.9430 -0.7047
19266TIP3    H279290   6.454   4.569  12.108  1.1781 -0.3999  0.1114
19267TIP3   OH279291   4.190   1.994  13.675 -0.4066 -0.2391  0.4003
19267TIP3    H179292   4.238   1.998  13.758  0.8633 -0.5659 -0.3056
19267TIP3    H279293   4.174   2.085  13.652  1.7871  0.0031 -0.4102
19268TIP3   OH279294   0.447   6.021   3.192 -0.2259 -0.3840 -0.3834
19268TIP3    H179295   0.428   5.978   3.275 -3.4470  1.5698  0.0939
19268TIP3    H279296   0.380   5.989   3.132  0.2052  0.4296 -1.3412
19269TIP3   OH279297   4.565   4.157  15.241  0.0107 -0.4011  0.1287
19269TIP3    H179298   4.601   4.166  15.329 -0.6855 -2.2558  0.6678
19269TIP3    H279299   4.641   4.144  15.185  0.3933 -0.9155  0.7389
19270TIP3   OH279300   3.597   5.919   5.849 -0.6532  0.0355  0.0975
19270TIP3    H179301   3.527   5.863   5.883  0.4453 -0.7414  1.1368
19270TIP3    H279302   3.665   5.858   5.820  0.1097  0.7887  0.2559
19271TIP3   OH279303   0.835   6.412  12.124  0.2965  0.0130  0.3816
19271TIP3    H179304   0.841   6.384  12.033 -0.8568 -0.8414  0.5534
19271TIP3    H279305   0.753   6.460  12.130 -0.2176 -0.9271  1.2125
19272TIP3   OH279306   3.096   4.020   1.199  0.1248 -0.1425  0.1217
19272TIP3    H179307   3.182   4.001   1.237  0.3749  0.3415 -0.1882
19272TIP3    H279308   3.097   4.114   1.182 -0.7565 -0.0001  0.7934
19273TIP3   OH279309   0.243   4.138  14.408  0.2135 -0.0322 -0.1631
19273TIP3    H179310   0.220   4.200  14.339 -0.8057  2.0970  1.9385
19273TIP3    H279311   0.162   4.090  14.425 -0.2223  1.0923  1.0792
19274TIP3   OH279312   4.519   4.219   2.185  0.3273 -0.2886  0.3874
19274TIP3    H179313   4.508   4.134   2.227  2.5543 -1.3023 -0.9091
19274TIP3    H279314   4.499   4.205   2.093  1.6636  0.3225 -0.0244
19275TIP3   OH279315   2.625   0.978  13.958  0.4086 -0.2564 -0.1542
19275TIP3    H179316   2.689   0.989  14.028  0.7508  1.4409 -0.6709
19275TIP3    H279317   2.590   1.067  13.944 -1.2883 -0.9513 -0.6014
19276TIP3   OH279318   3.090   1.678  13.813  0.1513  0.0317 -0.0704
19276TIP3    H179319   3.152   1.634  13.755  1.2867  1.1841  0.2033
19276TIP3    H279320   3.129   1.671  13.900 -1.0285 -0.7951  0.4139
19277TIP3   OH279321   6.290   2.679  12.885  0.0643  0.3679 -0.1885
19277TIP3    H179322   6.272   2.694  12.978  1.7923  0.0018  0.2419
19277TIP3    H279323   6.223   2.729  12.839 -3.0695 -2.2220  1.2050
19278TIP3   OH279324   4.167   5.185   5.380  0.2484  0.4368 -0.0826
19278TIP3    H179325   4.074   5.190   5.357 -0.5874 -0.9457  2.5025
19278TIP3    H279326   4.182   5.262   5.435 -0.1512 -0.6972  1.6922
19279TIP3   OH279327   2.637   5.471   6.427 -0.1816 -0.4096 -0.0568
19279TIP3    H179328   2.667   5.439   6.512 -0.1462  1.8976  0.8734
19279TIP3    H279329   2.555   5.424   6.411 -1.9932  1.4259  2.9206
19280TIP3   OH279330   5.102   6.560  15.612  0.3671 -0.4379  0.6540
19280TIP3    H179331   5.032   6.618  15.642  1.2403  0.4071  1.1064
19280TIP3    H279332   5.100   6.566  15.517 -0.9101 -1.3322  0.5843
19281TIP3   OH279333   6.362   4.275   0.610 -0.0772  0.1494  0.2208
19281TIP3    H179334   6.422   4.214   0.653 -1.2804 -0.4299  1.1462
19281TIP3    H279335   6.321   4.324   0.682 -0.4121  0.8311 -0.4114
19282TIP3   OH279336   5.339   3.499  16.780  0.0077  0.1328 -0.0924
19282TIP3    H179337   5.388   3.417  16.780  0.3903  0.3587  0.1115
19282TIP3    H279338   5.352   3.535  16.868 -2.8890 -1.1969  0.9934
19283TIP3   OH279339   1.602   0.172  14.975 -0.1586  0.1347  0.5878
19283TIP3    H179340   1.650   0.139  14.899  0.5063  1.4683  0.3971
19283TIP3    H279341   1.660   0.238  15.013 -1.3370  0.9257  1.0697
19284TIP3   OH279342   3.638   5.234  16.154 -0.5178 -0.7220 -0.8877
19284TIP3    H179343   3.728   5.226  16.186 -0.4820  2.5993  0.2693
19284TIP3    H279344   3.586   5.250  16.232 -2.0570 -1.9165 -1.6143
19285TIP3   OH279345   3.533   3.439  15.146  0.0218  0.0925 -0.1804
19285TIP3    H179346   3.512   3.371  15.082 -1.1161 -0.0550  0.3405
19285TIP3    H279347   3.567   3.511  15.094  0.0056 -0.3826 -0.8589
19286TIP3   OH279348   1.738   2.641   5.842 -0.1871  0.1200  0.2327
19286TIP3    H179349   1.680   2.663   5.770 -0.8903 -1.2675  0.3394
19286TIP3    H279350   1.742   2.721   5.895 -1.9342  0.2800  0.1739
19287TIP3   OH279351   2.823   4.011  14.146  0.2504 -0.3822  0.7732
19287TIP3    H179352   2.804   3.919  14.164 -0.1388 -0.0212  2.3660
19287TIP3    H279353   2.779   4.059  14.216 -0.3836  1.1034 -0.5811
19288TIP3   OH279354   2.880   4.095  16.430 -0.1574  0.0956 -0.0156
19288TIP3    H179355   2.867   4.002  16.446  1.3141 -0.0991  0.2031
19288TIP3    H279356   2.881   4.134  16.518  3.2911 -0.3153  0.2685
19289TIP3   OH279357   2.956   0.946  16.567  0.4846 -0.1741 -0.0183
19289TIP3    H179358   2.925   0.865  16.526  1.0023  0.3660 -1.5607
19289TIP3    H279359   2.888   1.010  16.546  0.2613 -0.1073  0.8730
19290TIP3   OH279360   3.403   4.973   1.363  0.0787  0.2598  0.6855
19290TIP3    H179361   3.400   5.010   1.452  0.5679 -0.1585  0.8822
19290TIP3    H279362   3.495   4.981   1.338 -0.2850  1.6197 -0.3271
19291TIP3   OH279363   2.142   5.245  14.379 -0.1209 -0.4952  0.2663
19291TIP3    H179364   2.175   5.185  14.313  1.1147  0.5307 -0.0722
19291TIP3    H279365   2.139   5.330  14.336  2.8039  0.6532  2.0756
19292TIP3   OH279366   5.681   6.674  15.245 -0.3047  0.1152 -0.0257
19292TIP3    H179367   5.774   6.654  15.233 -0.1435  1.4340 -1.2784
19292TIP3    H279368   5.677   6.724  15.327 -0.0492 -0.7283  0.5096
19293TIP3   OH279369   2.115   2.226   6.299  0.1017 -0.1222  0.4201
19293TIP3    H179370   2.041   2.166   6.297  0.1693 -0.2201  0.7888
19293TIP3    H279371   2.183   2.182   6.249  0.5081 -0.8347  1.5704
19294TIP3   OH279372   4.133   6.808   5.726 -0.5246  0.2284  0.3599
19294TIP3    H179373   4.221   6.786   5.757 -0.5154  0.1202  0.2618
19294TIP3    H279374   4.139   6.799   5.631 -0.4424  0.9543  0.2951
19295TIP3   OH279375   6.538   4.315  12.668  0.1340  0.3129 -0.3574
19295TIP3    H179376   6.529   4.270  12.753 -2.6116 -0.5710 -1.0000
19295TIP3    H279377   6.613   4.273  12.627  0.5886 -0.3116  1.0224
19296TIP3   OH279378   4.750   2.527  11.394  0.1540  0.1865 -0.2184
19296TIP3    H179379   4.736   2.587  11.321 -1.5039 -1.0513 -0.9745
19296TIP3    H279380   4.720   2.576  11.471  0.1862  0.8561 -0.6274
19297TIP3   OH279381   3.982   5.843   3.612  0.5012 -0.0648  0.6705
19297TIP3    H179382   3.952   5.845   3.521 -1.2147  0.7408  1.2122
19297TIP3    H279383   4.045   5.914   3.619  1.8222 -1.1048 -0.2386
19298TIP3   OH279384   2.529   1.052   1.557  0.0851  0.0717  0.0857
19298TIP3    H179385   2.503   1.074   1.467 -0.3942  1.0204  0.4406
19298TIP3    H279386   2.609   1.104   1.571  1.7098 -2.0916 -0.6725
19299TIP3   OH279387   3.748   3.487   4.653  0.3848  0.2243 -0.3784
19299TIP3    H179388   3.686   3.472   4.725  2.0646  3.2264  1.9500
19299TIP3    H279389   3.713   3.562   4.606  1.2986  0.7959 -0.1730
19300TIP3   OH279390   2.807   0.169   4.447  0.0208  0.1139  0.4809
19300TIP3    H179391   2.790   0.179   4.353 -1.7402 -0.8030  0.6635
19300TIP3    H279392   2.822   0.258   4.478  1.7138  0.3443 -0.8303
19301TIP3   OH279393   0.881   6.009   0.998 -0.5271  0.1655  0.2827
19301TIP3    H179394   0.916   6.008   1.087  2.2246 -0.2984 -0.7159
19301TIP3    H279395   0.906   5.924   0.962 -1.7499  0.2769 -0.9102
19302TIP3   OH279396   6.035   3.832  15.637 -0.0137 -0.2666  1.3024
19302TIP3    H179397   5.967   3.829  15.570  1.0017  2.0022  0.0755
19302TIP3    H279398   6.004   3.897  15.700  1.4306  1.6146  0.1568
19303TIP3   OH279399   4.598   4.844  17.240  0.0002  0.8885  0.1998
19303TIP3    H179400   4.550   4.778  17.289 -0.2477  2.5110  2.2801
19303TIP3    H279401   4.684   4.805  17.225 -0.4042 -0.2076  0.6321
19304TIP3   OH279402   1.357   0.559   1.266 -0.4396 -0.4386  0.0809
19304TIP3    H179403   1.368   0.532   1.357  1.5206 -0.5842 -0.1750
19304TIP3    H279404   1.411   0.638   1.257  0.5838 -1.2583 -1.3085
19305TIP3   OH279405   4.209   0.516  15.460 -0.0571 -0.3154 -0.4650
19305TIP3    H179406   4.213   0.577  15.533  0.1546 -0.5640 -0.2701
19305TIP3    H279407   4.189   0.571  15.384  2.2174  0.2960 -0.6713
19306TIP3   OH279408   2.998   1.252  12.804 -0.3635 -0.3540  0.3172
19306TIP3    H179409   2.968   1.317  12.868 -1.8806 -1.4834  0.8022
19306TIP3    H279410   2.993   1.299  12.720 -2.9523 -0.2289  0.4475
19307TIP3   OH279411   2.929   1.821   6.262  0.1071 -0.1916  0.4695
19307TIP3    H179412   2.953   1.766   6.188  1.2889  0.3024  0.4805
19307TIP3    H279413   2.922   1.760   6.336  0.6695 -0.4289  0.3256
19308TIP3   OH279414   0.392   6.540  11.525  0.1030  0.6572 -0.0574
19308TIP3    H179415   0.404   6.501  11.438 -0.6593 -0.7025  0.4126
19308TIP3    H279416   0.435   6.625  11.519  1.0404  0.1340 -1.4280
19309TIP3   OH279417   0.525   5.182   3.580  0.0429 -0.0555  0.5845
19309TIP3    H179418   0.477   5.125   3.520  0.9830 -0.3385  0.0923
19309TIP3    H279419   0.593   5.126   3.618 -1.2509 -0.2216  2.8410
19310TIP3   OH279420   1.478   4.565   3.087  0.3654 -0.4763  0.0697
19310TIP3    H179421   1.543   4.500   3.115  0.5077 -0.2551  0.2634
19310TIP3    H279422   1.402   4.549   3.142 -0.3728 -1.8134 -1.2674
19311TIP3   OH279423   5.608   3.255  11.408  0.1318  0.1311  0.1553
19311TIP3    H179424   5.600   3.336  11.358  0.8359  1.1341  1.6019
19311TIP3    H279425   5.565   3.273  11.492 -1.0639 -1.5228 -0.0257
19312TIP3   OH279426   1.759   2.120   2.668 -0.3097  0.1099  0.8185
19312TIP3    H179427   1.728   2.051   2.609 -1.8239  1.7549 -0.4525
19312TIP3    H279428   1.854   2.106   2.675 -0.4121 -1.3524 -0.3748
19313TIP3   OH279429   4.013   6.416  14.790 -0.1663  0.1436 -0.2264
19313TIP3    H179430   3.935   6.471  14.783 -1.0499 -1.1031 -0.5686
19313TIP3    H279431   4.038   6.421  14.882 -2.2021 -1.4458  0.4674
19314TIP3   OH279432   4.785   5.503  17.097  0.0534  0.0749 -0.1755
19314TIP3    H179433   4.725   5.430  17.108 -0.8498  0.4523 -2.1284
19314TIP3    H279434   4.734   5.580  17.122 -0.2906  0.3893 -1.7624
19315TIP3   OH279435   5.097   6.763   2.511 -0.0322  0.0570 -0.6244
19315TIP3    H179436   5.142   6.700   2.454 -0.8384 -2.2261  1.0886
19315TIP3    H279437   5.010   6.772   2.472 -0.4617 -1.2208 -0.0255
19316TIP3   OH279438   0.243   1.244  12.219  0.3278 -0.0220  0.0512
19316TIP3    H179439   0.183   1.310  12.255  1.2957 -0.2847  2.3167
19316TIP3    H279440   0.204   1.220  12.135 -1.2963  1.7263  0.2206
19317TIP3   OH279441   4.439   1.529   0.616 -0.1995 -0.3596  0.2063
19317TIP3    H179442   4.408   1.613   0.651 -0.2688 -0.3015  0.0032
19317TIP3    H279443   4.446   1.473   0.693  0.1645 -0.0684  0.3915
19318TIP3   OH279444   5.622   1.063  11.469  0.1563 -0.0348 -0.2439
19318TIP3    H179445   5.528   1.067  11.456 -0.2023 -0.0238  1.9490
19318TIP3    H279446   5.636   0.982  11.518  1.4734 -0.7378 -1.6874
19319TIP3   OH279447   5.685   4.820   0.315 -0.1568  0.4911  0.3343
19319TIP3    H179448   5.639   4.748   0.357 -0.8305  1.5051  1.3919
19319TIP3    H279449   5.618   4.862   0.260  0.4888 -0.2774 -1.0999
19320TIP3   OH279450   2.583   3.376   5.800 -0.0278 -0.3027 -0.5772
19320TIP3    H179451   2.600   3.287   5.768 -0.1493 -1.2722  1.8999
19320TIP3    H279452   2.667   3.406   5.834 -0.7449 -0.9233  1.8845
19321TIP3   OH279453   3.636   0.846   4.448  0.2642  0.2937 -0.0344
19321TIP3    H179454   3.582   0.866   4.372  0.7882  1.0768 -0.2194
19321TIP3    H279455   3.577   0.857   4.523  0.5349  2.8876 -0.0992
19322TIP3   OH279456   0.474   6.347   1.608  0.0202 -0.1436  0.6484
19322TIP3    H179457   0.561   6.364   1.573  0.7663 -0.9039  2.0572
19322TIP3    H279458   0.419   6.416   1.570  1.3349  0.6567  0.1296
19323TIP3   OH279459   5.052   0.430   2.643 -0.4027 -0.3452  0.1527
19323TIP3    H179460   5.050   0.342   2.679  0.8164  0.1039  1.4172
19323TIP3    H279461   5.145   0.453   2.641 -0.6716  0.7581 -0.5445
19324TIP3   OH279462   2.821   0.028   2.831  0.3785 -0.7386  0.1286
19324TIP3    H179463   2.834   0.068   2.917  1.3227  0.3736 -0.5057
19324TIP3    H279464   2.726   0.032   2.817  0.2278 -0.8048  1.0491
19325TIP3   OH279465   5.407   0.482   0.311 -0.6767  0.0737  0.1919
19325TIP3    H179466   5.388   0.416   0.244  0.7118  1.1140 -1.3034
19325TIP3    H279467   5.470   0.439   0.369  0.3927  0.1212 -0.8994
19326TIP3   OH279468   2.009   0.329   1.900  0.1437 -0.5614  0.1825
19326TIP3    H179469   1.931   0.380   1.924  1.3400  1.5893 -0.1665
19326TIP3    H279470   1.977   0.241   1.886 -2.3249  0.3557 -0.4876
19327TIP3   OH279471   2.295   2.827  17.177  0.4067 -0.3180  0.2109
19327TIP3    H179472   2.225   2.801  17.118  0.0124  1.9354 -0.4326
19327TIP3    H279473   2.256   2.822  17.265 -0.0916 -0.4731 -0.0178
19328TIP3   OH279474   4.978   5.802  14.589 -0.4155  0.2255  0.4570
19328TIP3    H179475   5.054   5.814  14.647 -1.1600  0.3087  1.4513
19328TIP3    H279476   4.904   5.796  14.649 -1.1742 -0.0589 -0.4914
19329TIP3   OH279477   1.027   5.155   6.138 -0.5665 -0.8820 -0.8113
19329TIP3    H179478   1.019   5.171   6.231  1.1937 -3.3018 -0.1258
19329TIP3    H279479   0.960   5.209   6.097 -0.6603  1.0559  1.7343
19330TIP3   OH279480   0.501   0.479  17.252 -0.5105 -0.5583  0.4852
19330TIP3    H179481   0.447   0.495  17.174 -0.2831 -2.4150 -0.0964
19330TIP3    H279482   0.442   0.435  17.313 -0.4136 -0.0009  0.9925
19331TIP3   OH279483   6.310   1.296  13.631 -0.5556 -0.2252 -0.9194
19331TIP3    H179484   6.316   1.364  13.564 -2.3616  0.6843 -0.2422
19331TIP3    H279485   6.329   1.215  13.584 -0.0011  0.5676 -2.1250
19332TIP3   OH279486   5.844   1.411   5.779 -0.4310  0.6763 -0.1066
19332TIP3    H179487   5.838   1.391   5.685 -2.2195  0.3183  0.0531
19332TIP3    H279488   5.929   1.456   5.788  0.0313  0.2322 -1.7879
19333TIP3   OH279489   6.516   5.726  16.592 -0.3467  0.9981 -0.3188
19333TIP3    H179490   6.436   5.681  16.621 -0.1704  1.4143  0.8444
19333TIP3    H279491   6.487   5.815  16.571 -0.2052  1.1179 -0.0023
19334TIP3   OH279492   0.712   6.013  15.411  0.3026 -0.2038  0.0170
19334TIP3    H179493   0.736   5.985  15.322  0.4416  1.9329 -0.6801
19334TIP3    H279494   0.753   5.948  15.468  1.4171 -0.8438 -1.4388
19335TIP3   OH279495   6.064   0.752  15.169 -0.1833 -0.6174  0.0482
19335TIP3    H179496   6.027   0.839  15.184  0.5359 -0.5007  1.3494
19335TIP3    H279497   6.132   0.766  15.103 -0.1098 -0.2057  0.2067
19336TIP3   OH279498   4.482   5.755   3.116  0.0435  0.3723 -0.3101
19336TIP3    H179499   4.576   5.765   3.131 -0.2518  1.6873  0.9087
19336TIP3    H279500   4.449   5.711   3.194 -0.5209  1.0126 -0.1777
19337TIP3   OH279501   1.037   5.061  12.471  0.0259 -0.8177 -0.3023
19337TIP3    H179502   1.026   5.102  12.385  1.2131 -0.4155 -0.2868
19337TIP3    H279503   1.048   5.134  12.531 -1.0090 -1.0918  0.2403
19338TIP3   OH279504   2.098   3.894   1.457  0.0924 -0.2655 -0.2524
19338TIP3    H179505   2.022   3.896   1.515 -0.0650 -0.4844 -0.4450
19338TIP3    H279506   2.174   3.900   1.515  0.0083 -2.3618  0.1532
19339TIP3   OH279507   0.711   4.491   5.597 -0.1571  0.4829  0.1599
19339TIP3    H179508   0.740   4.412   5.552 -1.0672 -0.0351  0.4611
19339TIP3    H279509   0.727   4.473   5.689 -3.6935 -0.9103  0.6621
19340TIP3   OH279510   0.155   0.267  13.497 -0.2870 -0.2979 -0.0576
19340TIP3    H179511   0.176   0.311  13.415  1.0390 -0.0002  0.4098
19340TIP3    H279512   0.097   0.328  13.543 -2.0225 -0.9993 -1.2644
19341TIP3   OH279513   6.575   1.306   5.413 -0.0071  0.3968 -0.9085
19341TIP3    H179514   6.512   1.310   5.341 -0.6265  0.9455 -0.3502
19341TIP3    H279515   6.528   1.262   5.484  0.1211  1.0978 -0.3752
19342TIP3   OH279516   6.297   1.617  12.352 -0.3576  0.1044 -0.2533
19342TIP3    H179517   6.347   1.576  12.422 -0.1314  1.4163  0.3772
19342TIP3    H279518   6.207   1.592  12.368 -0.1508 -0.6848 -0.2734
19343TIP3   OH279519   4.018   6.242  14.582 -0.2275  0.1203  0.1305
19343TIP3    H179520   4.038   6.310  14.647 -0.4962  0.9366 -0.6280
19343TIP3    H279521   3.926   6.254  14.562 -0.0774  0.0586 -0.6211
19344TIP3   OH279522   1.827   2.864  14.066  0.3510  0.1507  0.9364
19344TIP3    H179523   1.914   2.861  14.027  0.4091 -2.1738  1.1449
19344TIP3    H279524   1.837   2.822  14.151 -1.1830 -1.2161  0.4886
19345TIP3   OH279525   6.403   6.569   4.707 -0.5232  0.0365 -0.1108
19345TIP3    H179526   6.408   6.577   4.612  1.3632 -0.1840 -0.0690
19345TIP3    H279527   6.399   6.660   4.739  1.1459  0.2087 -0.3362
19346TIP3   OH279528   6.015   1.840   2.864 -0.3133 -0.2535 -0.7650
19346TIP3    H179529   6.080   1.813   2.929 -0.9993  0.1652  0.1089
19346TIP3    H279530   6.057   1.823   2.780  0.8445 -0.1934 -0.2126
19347TIP3   OH279531   6.796   3.341  16.401  0.1826 -0.2438 -0.5986
19347TIP3    H179532   6.782   3.279  16.328 -1.9234 -0.4922 -0.0501
19347TIP3    H279533   6.754   3.422  16.371 -0.6299 -0.3263  0.2787
19348TIP3   OH279534   2.088   6.485  15.657 -0.9133 -0.8481 -0.3329
19348TIP3    H179535   2.061   6.523  15.573  0.0015 -1.7963 -1.1013
19348TIP3    H279536   2.027   6.412  15.671  0.2534 -2.0748 -1.3308
19349TIP3   OH279537   6.791   5.799   1.672  0.2637 -0.3780  0.6052
19349TIP3    H179538   6.780   5.783   1.578  1.1819  0.7064  0.2913
19349TIP3    H279539   6.753   5.886   1.685 -0.1004 -0.6367  1.2974
19350TIP3   OH279540   4.051   3.589   4.628  0.1407  0.3237  0.0920
19350TIP3    H179541   4.005   3.553   4.552 -0.1139  4.3042 -1.9149
19350TIP3    H279542   3.984   3.593   4.697 -1.4062  1.9192 -1.3844
19351TIP3   OH279543   3.630   3.243   0.392  0.3538  0.3876 -0.0663
19351TIP3    H179544   3.700   3.223   0.330  0.3605  0.7594 -0.1847
19351TIP3    H279545   3.554   3.263   0.337 -0.3634 -1.7292  0.0682
19352TIP3   OH279546   3.465   6.643   4.664 -0.1403  0.0753  0.1710
19352TIP3    H179547   3.406   6.613   4.733 -0.1456 -2.8994 -0.9825
19352TIP3    H279548   3.552   6.612   4.691 -0.0716 -0.7209 -0.8958
19353TIP3   OH279549   5.460   1.513   3.343  0.4371  0.4640 -0.5272
19353TIP3    H179550   5.394   1.582   3.354 -0.3978 -0.4236  0.1296
19353TIP3    H279551   5.481   1.515   3.250 -2.4820 -0.9640 -1.3370
19354TIP3   OH279552   4.360   0.955  11.169  0.2691 -0.1628 -0.3050
19354TIP3    H179553   4.343   0.865  11.142 -0.2429  0.3105 -1.6546
19354TIP3    H279554   4.435   0.981  11.116  0.7669  0.0385  0.4857
19355TIP3   OH279555   0.675   1.603  13.651  0.2742 -0.4267  0.0335
19355TIP3    H179556   0.728   1.586  13.573  1.1558 -0.8687  0.7177
19355TIP3    H279557   0.612   1.670  13.622 -1.2033 -2.4629 -1.8205
19356TIP3   OH279558   2.378   6.710   0.462  0.0352 -0.3773 -0.7376
19356TIP3    H179559   2.397   6.717   0.555  0.6541  1.2097 -0.9630
19356TIP3    H279560   2.284   6.690   0.458  0.3272 -2.1788  0.2298
19357TIP3   OH279561   6.651   5.675  17.195  0.5801  0.0538 -0.0873
19357TIP3    H179562   6.590   5.749  17.197 -0.0496 -0.4427  1.9257
19357TIP3    H279563   6.646   5.643  17.105 -0.3409  1.4729 -0.5884
19358TIP3   OH279564   3.866   2.923   0.223  0.1765 -0.7793 -0.2815
19358TIP3    H179565   3.910   2.894   0.143  0.8074  1.0023 -0.6250
19358TIP3    H279566   3.921   2.993   0.257 -1.1381 -0.1265  0.6085
19359TIP3   OH279567   6.757   4.037  13.211  0.2551  0.0193  0.7379
19359TIP3    H179568   6.845   4.067  13.188 -0.5637  0.6821 -1.9206
19359TIP3    H279569   6.738   3.968  13.147 -0.9153 -0.5979  1.7088
19360TIP3   OH279570   6.693   4.330   2.195 -0.0056 -0.9492  0.4772
19360TIP3    H179571   6.784   4.322   2.167 -0.0191 -0.7529  0.3813
19360TIP3    H279572   6.659   4.406   2.148  0.5526  0.6766  2.5361
19361TIP3   OH279573   1.110   3.913   5.843 -0.3839  0.6755  0.2874
19361TIP3    H179574   1.121   3.984   5.906 -0.5692  1.2636 -0.3189
19361TIP3    H279575   1.197   3.903   5.803 -0.6195  1.3556 -0.4280
19362TIP3   OH279576   6.239   5.365   5.589 -0.4572  0.2512  0.0517
19362TIP3    H179577   6.163   5.343   5.643 -0.8726 -0.0428 -0.6285
19362TIP3    H279578   6.210   5.348   5.499 -0.0382  1.4142 -0.3326
19363TIP3   OH279579   4.866   2.169  15.993  0.2259 -0.0107 -0.4348
19363TIP3    H179580   4.919   2.232  16.043  1.5918 -0.8036 -0.8297
19363TIP3    H279581   4.862   2.206  15.905  0.4903 -0.1387 -0.5043
19364TIP3   OH279582   0.935   1.804   5.965  0.0930 -0.2592 -0.1955
19364TIP3    H179583   0.963   1.713   5.956 -0.0760 -0.5230  1.6568
19364TIP3    H279584   1.016   1.851   5.986 -0.1826 -0.3956  1.2629
19365TIP3   OH279585   3.568   2.283   4.830  0.3017 -0.1079 -0.2288
19365TIP3    H179586   3.529   2.201   4.800  0.0374 -0.1443  0.2115
19365TIP3    H279587   3.541   2.347   4.763  0.2859 -0.3240 -0.4308
19366TIP3   OH279588   0.493   4.576  14.101  0.1033  0.5544  0.2714
19366TIP3    H179589   0.410   4.563  14.055  0.2570  1.4422 -0.2667
19366TIP3    H279590   0.469   4.631  14.176  0.5207  2.6237 -1.0377
19367TIP3   OH279591   3.526   3.213  11.754  0.3261  0.7014 -0.3093
19367TIP3    H179592   3.433   3.200  11.734  0.1127  2.1829 -0.4528
19367TIP3    H279593   3.526   3.283  11.820  1.2830 -0.3491  0.8465
19368TIP3   OH279594   6.430   1.397   0.821  0.4793 -0.9882  0.6406
19368TIP3    H179595   6.493   1.465   0.844 -0.2325  0.7401 -2.0640
19368TIP3    H279596   6.478   1.341   0.758 -0.4566  0.1120 -1.1303
19369TIP3   OH279597   1.661   6.681   0.680  0.2568 -0.2344  0.0557
19369TIP3    H179598   1.681   6.703   0.771 -2.0448  0.8609  0.3842
19369TIP3    H279599   1.585   6.622   0.687  1.1864 -1.6417 -1.1341
19370TIP3   OH279600   4.512   5.396   1.593  0.1346 -0.0600 -0.7656
19370TIP3    H179601   4.551   5.345   1.663 -0.8934  0.9953  0.6583
19370TIP3    H279602   4.426   5.357   1.580 -1.3343  2.0700  1.4522
19371TIP3   OH279603   3.737   5.899  10.673  0.0395  0.5389  0.6284
19371TIP3    H179604   3.664   5.875  10.730  0.9833  0.8215  2.0077
19371TIP3    H279605   3.707   5.978  10.628 -0.6287  0.4553  0.9153
19372TIP3   OH279606   6.696   5.390  15.315  0.9236 -0.1376 -0.4218
19372TIP3    H179607   6.661   5.471  15.352  0.3418 -0.8726  0.7229
19372TIP3    H279608   6.766   5.364  15.376  1.7935  0.0268 -1.3361
19373TIP3   OH279609   0.938   4.043   5.335 -0.2794  0.2782 -0.0340
19373TIP3    H179610   1.027   4.073   5.355  0.8299 -1.6556 -1.6794
19373TIP3    H279611   0.934   3.955   5.371 -0.9712 -0.2537 -1.3591
19374TIP3   OH279612   2.210   5.895  14.921  0.2535 -0.1514  0.0260
19374TIP3    H179613   2.165   5.827  14.971 -0.3473  0.9338  1.0248
19374TIP3    H279614   2.243   5.955  14.987  3.4350 -0.9836 -0.6617
19375TIP3   OH279615   3.318   2.058   3.571  0.0710 -0.2170  0.9075
19375TIP3    H179616   3.353   2.146   3.558 -1.3718  0.3647  0.6865
19375TIP3    H279617   3.388   1.999   3.543  0.6223  0.8794 -0.0944
19376TIP3   OH279618   2.748   4.680  14.734 -0.1326 -0.4075  0.1542
19376TIP3    H179619   2.688   4.618  14.775  1.3809 -1.9204  0.1615
19376TIP3    H279620   2.748   4.756  14.793 -3.1038  0.3325 -0.5814
19377TIP3   OH279621   1.886   4.925   1.826  0.4797  0.2923  0.1109
19377TIP3    H179622   1.889   5.019   1.809 -1.7379  0.8513  2.2187
19377TIP3    H279623   1.794   4.907   1.846  1.3618 -1.6391  3.0749
19378TIP3   OH279624   4.390   1.043   1.478 -0.6341  0.0732  0.6424
19378TIP3    H179625   4.381   1.018   1.386 -0.7565  0.8024  0.4425
19378TIP3    H279626   4.419   0.964   1.523 -0.5067 -0.2704 -0.0384
19379TIP3   OH279627   1.289   6.104   4.759  0.1668 -0.1923 -0.7484
19379TIP3    H179628   1.208   6.155   4.761 -0.6177 -1.3079 -1.9285
19379TIP3    H279629   1.334   6.127   4.840 -1.2224  0.6367 -0.1697
19380TIP3   OH279630   1.268   3.763  10.823 -0.4326 -0.1794  0.0709
19380TIP3    H179631   1.352   3.717  10.814  0.3939  1.0298  1.3172
19380TIP3    H279632   1.224   3.748  10.739  1.8643  0.7715 -1.3976
19381TIP3   OH279633   4.786   1.291  16.412 -0.4114  0.2302  0.0321
19381TIP3    H179634   4.753   1.380  16.426 -1.1256  0.2400 -1.4750
19381TIP3    H279635   4.717   1.234  16.446 -0.1787  0.2513  0.5417
19382TIP3   OH279636   1.369   6.232  12.514 -0.2784  0.4014  0.1283
19382TIP3    H179637   1.292   6.186  12.481 -1.4809  2.3110  0.0987
19382TIP3    H279638   1.389   6.296  12.446  0.9955  0.3093  0.4021
19383TIP3   OH279639   6.816   6.543   2.319  0.5700  0.2661  0.7509
19383TIP3    H179640   6.887   6.497   2.274  0.0592  0.1440  0.0497
19383TIP3    H279641   6.769   6.588   2.249 -1.9236 -2.1522  0.6820
19384TIP3   OH279642   2.056   6.137  14.218 -0.1130  0.1477 -0.3856
19384TIP3    H179643   2.052   6.179  14.132  0.4559 -0.8190 -0.8985
19384TIP3    H279644   2.147   6.110  14.228 -0.5219 -1.2448 -0.2218
19385TIP3   OH279645   2.781   2.205   6.305  0.2065  0.3938 -0.3781
19385TIP3    H179646   2.809   2.259   6.379  0.1393 -0.6345  0.4312
19385TIP3    H279647   2.861   2.192   6.254  0.3369  0.8198 -0.2837
19386TIP3   OH279648   5.522   6.130  10.703  0.2245 -0.5168  0.1367
19386TIP3    H179649   5.436   6.095  10.728  0.2998 -0.6693  0.1843
19386TIP3    H279650   5.503   6.192  10.633 -0.0958  0.6234  1.1901
19387TIP3   OH279651   6.349   4.353   3.020 -0.1986  0.0977 -0.4568
19387TIP3    H179652   6.322   4.316   3.104 -0.1981 -0.4810 -0.7091
19387TIP3    H279653   6.325   4.287   2.956  0.0118  0.4398 -0.8899
19388TIP3   OH279654   1.475   2.967  11.904 -0.1762  0.3076  0.3540
19388TIP3    H179655   1.443   2.879  11.920 -0.3838  0.0552 -1.3096
19388TIP3    H279656   1.399   3.024  11.917 -0.2971  0.1414  0.3687
19389TIP3   OH279657   5.179   6.688   1.927 -0.2744 -0.0915 -0.4402
19389TIP3    H179658   5.084   6.681   1.929 -0.2788 -0.1343 -0.7362
19389TIP3    H279659   5.206   6.677   2.018 -0.6982  2.3293  0.0313
19390TIP3   OH279660   1.534   1.716   2.366  0.5408  0.2203 -0.3189
19390TIP3    H179661   1.576   1.652   2.309 -0.3463 -0.4881 -0.1948
19390TIP3    H279662   1.464   1.753   2.313 -0.6326 -0.8214  0.4458
19391TIP3   OH279663   5.214   5.454   3.278 -0.1050 -0.7980 -0.2333
19391TIP3    H179664   5.155   5.378   3.276  0.1177 -1.0153  1.0706
19391TIP3    H279665   5.210   5.486   3.368  0.4654  0.2231 -0.5577
19392TIP3   OH279666   4.649   3.766  13.928 -0.3891 -0.0970 -0.2795
19392TIP3    H179667   4.612   3.771  14.016  1.5653 -1.0817  0.6347
19392TIP3    H279668   4.580   3.725  13.875 -1.8902  1.2400  0.5697
19393TIP3   OH279669   2.514   5.757  13.241  0.6691 -0.6880  0.1021
19393TIP3    H179670   2.549   5.793  13.159  0.0219 -0.7348 -0.1997
19393TIP3    H279671   2.428   5.721  13.217  1.4775 -2.8897  0.2891
19394TIP3   OH279672   2.338   6.005   1.411 -0.0228  0.1223  0.8982
19394TIP3    H179673   2.351   5.966   1.325 -0.4940  2.1858 -0.1736
19394TIP3    H279674   2.408   5.967   1.466  0.5660 -0.8764 -0.4863
19395TIP3   OH279675   0.964   6.675   0.598 -0.0188  0.1966 -0.2282
19395TIP3    H179676   0.909   6.733   0.650  0.2122  0.3558 -0.1627
19395TIP3    H279677   0.991   6.728   0.523  0.6028  0.3300  0.0892
19396TIP3   OH279678   1.115   3.665   2.899  0.6933  0.5150 -0.1099
19396TIP3    H179679   1.064   3.584   2.902 -0.1245  1.0398  1.7010
19396TIP3    H279680   1.113   3.692   2.807 -0.5238 -0.5851 -0.4384
19397TIP3   OH279681   0.255   0.234  16.442 -1.0535  0.4773 -0.1618
19397TIP3    H179682   0.256   0.260  16.535  1.6228 -0.5950  0.1963
19397TIP3    H279683   0.253   0.139  16.444 -0.6474  0.4348 -1.2041
19398TIP3   OH279684   6.088   1.888   2.579 -0.0134  0.4648  0.0911
19398TIP3    H179685   6.041   1.966   2.550  0.1633  0.8662  0.8577
19398TIP3    H279686   6.175   1.921   2.603  1.0736 -0.4023 -2.2921
19399TIP3   OH279687   0.841   5.924  16.933  0.0087 -0.1264 -0.2567
19399TIP3    H179688   0.864   5.989  16.866 -0.7020  0.7918  0.3681
19399TIP3    H279689   0.759   5.956  16.970 -0.6223 -1.6527 -0.2684
19400TIP3   OH279690   5.006   1.401  12.850 -0.1395 -0.8050  0.5138
19400TIP3    H179691   5.041   1.404  12.761  1.4049 -0.4079  1.1078
19400TIP3    H279692   4.941   1.471  12.853  1.3920  0.6808  0.3146
19401TIP3   OH279693   5.045   3.140  15.762  0.1449  0.0111 -0.2846
19401TIP3    H179694   5.099   3.068  15.731 -0.3968 -0.9677  0.9865
19401TIP3    H279695   4.963   3.099  15.788 -0.6848  1.2786 -0.7980
19402TIP3   OH279696   1.565   4.878   4.078 -0.1292  0.4161 -0.3588
19402TIP3    H179697   1.484   4.930   4.080 -0.7368 -0.2680 -2.9795
19402TIP3    H279698   1.627   4.927   4.132 -1.7918  1.8683  0.3066
19403TIP3   OH279699   1.041   6.111  10.918  0.7400 -0.3875  0.6464
19403TIP3    H179700   1.030   6.026  10.877  0.1737  0.1062 -0.2392
19403TIP3    H279701   1.086   6.164  10.853 -0.1349  0.3969  0.6643
19404TIP3   OH279702   4.179   6.551   3.983  0.6897 -0.1885  0.0184
19404TIP3    H179703   4.214   6.468   4.016  2.3002  0.6454  0.5386
19404TIP3    H279704   4.122   6.526   3.911  0.5731 -1.7886  0.6164
19405TIP3   OH279705   4.568   0.600  12.935  0.0951  0.0007 -0.1937
19405TIP3    H179706   4.499   0.666  12.925  0.4115  0.8907  2.7099
19405TIP3    H279707   4.529   0.532  12.991 -0.0171 -2.0959 -2.6212
19406TIP3   OH279708   1.430   1.700   3.521  0.4040 -0.4638 -0.3643
19406TIP3    H179709   1.406   1.664   3.607 -0.4182 -1.6303 -1.0427
19406TIP3    H279710   1.424   1.795   3.532  1.3635 -0.5566  1.1490
19407TIP3   OH279711   4.547   1.159  15.364  0.2396  0.0012 -0.8979
19407TIP3    H179712   4.523   1.222  15.295 -1.8423 -0.9824 -1.1475
19407TIP3    H279713   4.591   1.088  15.317 -2.0623 -1.1481 -1.4758
19408TIP3   OH279714   2.241   4.849  13.323 -0.3671  0.3324  0.0594
19408TIP3    H179715   2.305   4.811  13.382 -3.5918 -2.8486  1.8888
19408TIP3    H279716   2.180   4.897  13.380 -1.2541  0.7458 -1.1807
19409TIP3   OH279717   4.186   2.187  13.229  0.1679  0.1371 -0.3862
19409TIP3    H179718   4.103   2.157  13.267  0.2926 -1.3467 -1.2100
19409TIP3    H279719   4.252   2.160  13.292  0.0371  1.4341  0.3320
19410TIP3   OH279720   1.479   1.734   6.541 -0.6128 -0.4540 -0.4352
19410TIP3    H179721   1.455   1.808   6.484  1.9138  0.2298 -0.7140
19410TIP3    H279722   1.489   1.660   6.481 -1.3375 -0.5955 -0.3936
19411TIP3   OH279723   3.592   5.250  13.383  0.0941  0.1332  0.5709
19411TIP3    H179724   3.624   5.325  13.332 -0.8146 -0.3981 -0.8464
19411TIP3    H279725   3.557   5.190  13.317 -6.0906  1.6399  1.9167
19412TIP3   OH279726   0.644   5.644  16.615  0.3394  0.7940  0.3830
19412TIP3    H179727   0.606   5.561  16.644 -2.2734  1.7763  0.0649
19412TIP3    H279728   0.731   5.647  16.655  0.5014 -2.0490  0.4024
19413TIP3   OH279729   1.203   6.122  12.093 -0.2092  0.2956  0.6958
19413TIP3    H179730   1.199   6.026  12.102 -1.3931  0.1703 -0.6319
19413TIP3    H279731   1.295   6.141  12.080 -0.1109 -0.8824 -0.6343
19414TIP3   OH279732   0.983   0.446   4.314  0.3178 -0.3260 -0.1008
19414TIP3    H179733   1.049   0.496   4.266  2.0273 -0.5856  1.8159
19414TIP3    H279734   1.005   0.460   4.406 -1.4704 -1.5806  0.5718
19415TIP3   OH279735   1.272   1.645  14.921 -0.6503 -0.3033  0.1137
19415TIP3    H179736   1.361   1.620  14.946  0.1221  0.2466 -1.9101
19415TIP3    H279737   1.241   1.575  14.865 -0.8149  0.3324 -0.6087
19416TIP3   OH279738   1.454   2.062  16.830 -0.3124 -0.0584 -0.4391
19416TIP3    H179739   1.388   2.063  16.899  1.0906 -0.0645  0.9605
19416TIP3    H279740   1.506   2.141  16.845  1.1897 -1.0337 -0.2676
19417TIP3   OH279741   3.099   5.223  15.669 -0.0202  0.3863 -0.3213
19417TIP3    H179742   3.173   5.173  15.634 -1.1378 -1.8037  0.2964
19417TIP3    H279743   3.130   5.255  15.754  0.3760 -0.1069 -0.2732
19418TIP3   OH279744   5.802   2.439   1.940 -0.2036 -0.3537 -0.4315
19418TIP3    H179745   5.794   2.515   1.997  0.0787 -1.3253  0.9520
19418TIP3    H279746   5.858   2.469   1.868 -0.0889  0.7394  0.0883
19419TIP3   OH279747   0.670   4.459  17.106 -0.0920  0.0272  0.1005
19419TIP3    H179748   0.697   4.439  17.016 -0.7428  0.1645 -0.1261
19419TIP3    H279749   0.682   4.553  17.114 -1.7556  0.3148 -0.4402
19420TIP3   OH279750   4.173   0.027  10.351 -0.1647 -0.3053  0.7227
19420TIP3    H179751   4.086  -0.011  10.366 -0.3694  0.2729  1.0438
19420TIP3    H279752   4.233  -0.036  10.389 -0.3042 -1.5512 -1.0035
19421TIP3   OH279753   1.710   4.308  15.335  0.3950 -0.1669  0.2267
19421TIP3    H179754   1.651   4.350  15.273 -0.5232 -0.8847  0.5961
19421TIP3    H279755   1.741   4.380  15.390 -0.6052  0.1521  0.3969
19422TIP3   OH279756   4.722   4.137   0.655  0.6207 -0.0830 -0.0798
19422TIP3    H179757   4.790   4.160   0.719  0.6485 -0.5967  0.0801
19422TIP3    H279758   4.672   4.067   0.697  1.0614 -0.9033 -0.8972
19423TIP3   OH279759   2.776   4.440  13.145  0.5676  0.3215  0.5072
19423TIP3    H179760   2.842   4.488  13.197 -0.0046  3.8065 -1.6354
19423TIP3    H279761   2.814   4.436  13.058  0.3105 -2.9005  0.4420
19424TIP3   OH279762   5.790   0.051   6.335 -0.0254  0.0314  0.3163
19424TIP3    H179763   5.704   0.091   6.349  0.4397  1.0134  0.4572
19424TIP3    H279764   5.802  -0.007   6.410 -1.9665 -2.7343 -1.3244
19425TIP3   OH279765   3.529   1.635  16.075  0.1112 -0.1396  1.1046
19425TIP3    H179766   3.489   1.672  16.153 -1.8741 -0.7683  0.4330
19425TIP3    H279767   3.507   1.542  16.078  1.3445 -0.4791  0.5732
19426TIP3   OH279768   3.688   5.170   1.315 -0.3952  0.0524 -0.1869
19426TIP3    H179769   3.635   5.248   1.328 -0.2507 -0.0855  1.4088
19426TIP3    H279770   3.695   5.161   1.220 -0.7055  1.7640 -0.3918
19427TIP3   OH279771   4.726   4.925   6.068 -0.4696 -0.8369 -0.7355
19427TIP3    H179772   4.632   4.914   6.057 -0.6512  0.4992 -0.7519
19427TIP3    H279773   4.737   5.019   6.086  0.9164 -0.8377 -1.4302
19428TIP3   OH279774   3.385   5.750   5.958  0.5128  0.3795 -0.2967
19428TIP3    H179775   3.307   5.720   5.911  0.3049 -0.8784  0.7887
19428TIP3    H279776   3.373   5.718   6.047  0.8219  2.8671  0.6878
19429TIP3   OH279777   5.245   0.908   1.840  0.1290 -0.1089 -0.2535
19429TIP3    H179778   5.150   0.910   1.841  0.0446 -1.0085 -2.4766
19429TIP3    H279779   5.268   0.820   1.811  1.6162  0.3862 -0.6875
19430TIP3   OH279780   3.731   6.599  15.684 -0.1748  0.5690  0.0044
19430TIP3    H179781   3.643   6.585  15.720  0.7916  1.3157  2.9446
19430TIP3    H279782   3.758   6.512  15.654 -1.0944 -0.1444  1.1411
19431TIP3   OH279783   0.343   4.573   2.210 -0.3497 -0.2115  0.5510
19431TIP3    H179784   0.406   4.597   2.277  1.8767 -2.7405 -0.4439
19431TIP3    H279785   0.382   4.497   2.167 -2.6432  0.0207 -2.2330
19432TIP3   OH279786   5.546   5.898   1.599 -0.0593  0.1280 -0.3365
19432TIP3    H179787   5.574   5.907   1.690  1.6431 -0.2965 -0.7999
19432TIP3    H279788   5.541   5.988   1.567  6.5871  0.4151 -1.8669
19433TIP3   OH279789   1.284   6.429  11.069 -0.2582 -0.2407 -0.0096
19433TIP3    H179790   1.267   6.486  10.994 -2.8990  1.2481  1.5737
19433TIP3    H279791   1.376   6.444  11.090 -0.4998  2.4409 -0.5011
19434TIP3   OH279792   1.868   2.994  15.804 -0.6107  0.3130  0.5011
19434TIP3    H179793   1.825   2.920  15.847 -1.2390  0.7435  0.6271
19434TIP3    H279794   1.957   2.964  15.788 -0.1709  0.3102  2.6007
19435TIP3   OH279795   2.151   4.411  14.578 -0.6321  0.0157 -0.1919
19435TIP3    H179796   2.148   4.418  14.673  1.2344 -1.8138  0.0921
19435TIP3    H279797   2.060   4.400  14.552 -1.0703 -0.8791  1.5575
19436TIP3   OH279798   0.220   5.686   5.176  0.3984  0.0573  0.0150
19436TIP3    H179799   0.185   5.771   5.149  0.6802 -0.3776 -1.9344
19436TIP3    H279800   0.206   5.630   5.099 -0.7297 -1.9745  1.5869
19437TIP3   OH279801   6.445   6.433   5.675  0.1715  0.0460  0.6258
19437TIP3    H179802   6.415   6.351   5.713 -1.0261  0.7567  1.2862
19437TIP3    H279803   6.505   6.469   5.740  1.9191 -0.9877 -0.3363
19438TIP3   OH279804   4.070   5.952  11.291 -0.0522 -0.0285  0.6874
19438TIP3    H179805   4.026   6.030  11.257  0.7690  1.3269  2.5479
19438TIP3    H279806   4.163   5.973  11.287  0.2824 -1.5667 -0.2129
19439TIP3   OH279807   6.437   0.188  14.048 -0.4364  0.0487 -0.3927
19439TIP3    H179808   6.500   0.255  14.073  0.8337 -0.5581 -1.7525
19439TIP3    H279809   6.468   0.108  14.092  1.0597 -0.7283 -2.6625
19440TIP3   OH279810   2.599   6.552   6.319 -0.6437 -0.1142  0.2631
19440TIP3    H179811   2.521   6.599   6.348 -0.2596  0.7221 -0.0246
19440TIP3    H279812   2.648   6.616   6.268  0.3989 -0.5200  0.7258
19441TIP3   OH279813   6.748   2.301   1.181 -0.0984  0.4603  0.3544
19441TIP3    H179814   6.833   2.314   1.223  0.8307  1.5066 -1.6747
19441TIP3    H279815   6.731   2.384   1.136 -2.7238  0.6412  1.5144
19442TIP3   OH279816   5.470   0.418   2.468  0.8605  0.0102  0.3235
19442TIP3    H179817   5.386   0.453   2.496  0.5041  0.3320 -1.0914
19442TIP3    H279818   5.534   0.458   2.528  0.2524  1.6159 -0.0384
19443TIP3   OH279819   6.112   4.374   2.651 -0.1736  0.1214  0.5110
19443TIP3    H179820   6.092   4.461   2.618  0.8513  0.2422  0.1702
19443TIP3    H279821   6.026   4.337   2.674 -0.5663  1.4291  1.2444
19444TIP3   OH279822   0.169   2.050   0.091  0.0987 -0.6335  0.1808
19444TIP3    H179823   0.097   2.026   0.149 -0.5117 -2.6185 -1.2685
19444TIP3    H279824   0.133   2.119   0.035  0.1481  0.0972  1.0294
19445TIP3   OH279825   0.178   2.923   1.105 -0.1208 -0.0264  0.1552
19445TIP3    H179826   0.245   2.857   1.085  0.3036  0.1767  0.8474
19445TIP3    H279827   0.228   3.004   1.118 -0.4804  0.0911  0.8605
19446TIP3   OH279828   1.529   2.957   2.066 -0.4984  0.0407 -0.1509
19446TIP3    H179829   1.463   2.887   2.076  1.7138 -2.2378 -0.4617
19446TIP3    H279830   1.581   2.930   1.991  0.1300  2.3768 -0.6103
19447TIP3   OH279831   3.335   6.070   0.122  0.1816 -0.3086  0.4890
19447TIP3    H179832   3.335   6.081   0.027 -0.4065  0.5143  0.5673
19447TIP3    H279833   3.293   5.985   0.136 -0.2453 -0.1801  0.0304
19448TIP3   OH279834   2.692   1.053  12.709  0.0241 -0.1482 -0.0380
19448TIP3    H179835   2.653   0.966  12.699  1.4803 -0.6299 -2.5670
19448TIP3    H279836   2.620   1.114  12.695 -0.5149 -0.9910 -1.0623
19449TIP3   OH279837   2.775   2.983  16.990  0.0354 -0.6405 -0.2725
19449TIP3    H179838   2.699   2.924  16.994  0.1742 -0.7670  0.8013
19449TIP3    H279839   2.850   2.928  17.013  0.0451  0.1180  1.7770
19450TIP3   OH279840   6.436   1.500  15.087 -0.4288 -0.0862  0.1513
19450TIP3    H179841   6.476   1.443  15.021 -2.4717 -1.1772 -0.2391
19450TIP3    H279842   6.506   1.561  15.112  1.6275 -2.2674  0.0355
19451TIP3   OH279843   6.722   3.186   1.032  0.1244 -0.7229  0.0527
19451TIP3    H179844   6.735   3.159   1.123  0.1207 -1.2973 -0.1119
19451TIP3    H279845   6.627   3.189   1.021  0.0923  0.7201  0.4540
19452TIP3   OH279846   4.439   1.882  16.724 -0.1136  0.1579  0.6082
19452TIP3    H179847   4.489   1.861  16.803 -1.3768 -1.8510  0.9409
19452TIP3    H279848   4.505   1.893  16.656  0.9193  0.5060  1.6186
19453TIP3   OH279849   6.822   2.914   0.112  0.0651 -0.1901  0.0871
19453TIP3    H179850   6.915   2.894   0.098  0.7919  1.7359  1.7551
19453TIP3    H279851   6.776   2.845   0.064  2.3425 -2.1214  0.4614
19454TIP3   OH279852   5.262   5.732   6.192 -0.3491 -0.6906 -0.3862
19454TIP3    H179853   5.168   5.713   6.186 -0.2122 -1.5557  0.0959
19454TIP3    H279854   5.291   5.685   6.271  0.8527 -2.0040 -1.5551
19455TIP3   OH279855   5.371   6.271   3.074 -0.2314  0.1730 -0.0379
19455TIP3    H179856   5.428   6.214   3.022 -0.0159 -0.2381  0.6394
19455TIP3    H279857   5.429   6.339   3.107 -0.5797  1.0838 -1.2483
19456TIP3   OH279858   4.510   5.962  16.152 -0.1203 -0.1876  0.1956
19456TIP3    H179859   4.475   6.045  16.120  0.5998 -0.3063 -0.9729
19456TIP3    H279860   4.467   5.896  16.099 -0.2451 -0.5234  0.7116
19457TIP3   OH279861   2.944   6.444  10.755  0.0019 -0.6143  0.0659
19457TIP3    H179862   2.915   6.520  10.703 -0.4288 -0.1389  0.9758
19457TIP3    H279863   3.038   6.454  10.762  0.1365 -0.9709 -1.0603
19458TIP3   OH279864   1.717   3.319   5.312 -0.0121  0.4812 -0.3256
19458TIP3    H179865   1.779   3.294   5.243  1.7084  1.3287  0.8531
19458TIP3    H279866   1.632   3.323   5.267  1.0865  1.2576 -2.4650
19459TIP3   OH279867   6.155   4.623   6.256 -0.5017  0.1301  0.5727
19459TIP3    H179868   6.187   4.542   6.216 -1.8880  0.1609 -0.6670
19459TIP3    H279869   6.085   4.595   6.315 -2.9592  0.5247 -1.9259
19460TIP3   OH279870   4.482   2.495  11.629 -0.3700 -0.1426 -0.2721
19460TIP3    H179871   4.506   2.410  11.592 -0.6437 -0.0003 -0.7787
19460TIP3    H279872   4.388   2.503  11.612 -1.0236 -1.0897  2.4465
19461TIP3   OH279873   4.501   5.644   1.756 -0.5383  0.4702 -0.0968
19461TIP3    H179874   4.510   5.558   1.715  0.2113  0.1775  0.6491
19461TIP3    H279875   4.528   5.630   1.847  0.7548  1.7193 -0.2509
19462TIP3   OH279876   2.757   3.187  15.656  0.0888 -0.2070  0.4072
19462TIP3    H179877   2.767   3.192  15.561 -1.5332 -1.3047  0.1377
19462TIP3    H279878   2.809   3.260  15.690 -1.3301  1.7936 -1.4757
19463TIP3   OH279879   6.656   6.473  11.267  0.4273  0.0675 -0.1744
19463TIP3    H179880   6.694   6.462  11.354  0.4432 -0.0047 -0.1895
19463TIP3    H279881   6.676   6.391  11.222 -1.3894 -0.7475  0.4352
19464TIP3   OH279882   4.785   3.253  13.374 -0.4707  0.0289  0.0686
19464TIP3    H179883   4.775   3.177  13.431 -0.5511  1.3197  1.8273
19464TIP3    H279884   4.858   3.302  13.411 -0.1206  0.6062 -1.3078
19465TIP3   OH279885   4.996   6.385   3.505  0.3288 -0.3258  0.9004
19465TIP3    H179886   4.931   6.412   3.440  1.3237 -0.5023 -0.1872
19465TIP3    H279887   4.953   6.403   3.589 -1.0338 -0.2202  0.2197
19466TIP3   OH279888   4.673   2.195   0.086 -0.2179  0.1485 -0.1646
19466TIP3    H179889   4.637   2.124   0.032 -0.1411 -0.5807  0.7323
19466TIP3    H279890   4.765   2.200   0.061  0.1544 -1.1109  0.8415
19467TIP3   OH279891   4.617   0.800  16.573 -0.0585  0.3128  0.1862
19467TIP3    H179892   4.587   0.888  16.551  0.1172  0.3522  0.1007
19467TIP3    H279893   4.712   0.804  16.561  0.1376  0.5331  1.5772
19468TIP3   OH279894   1.130   6.160   6.126 -0.2894 -0.2642  0.2691
19468TIP3    H179895   1.206   6.217   6.117  0.0626 -0.6449  0.7573
19468TIP3    H279896   1.087   6.191   6.206 -0.2831 -0.4653  0.3511
19469TIP3   OH279897   1.399   6.611  13.866 -0.1149  0.5209  0.5237
19469TIP3    H179898   1.460   6.659  13.810 -0.5485  1.8188  1.1087
19469TIP3    H279899   1.445   6.601  13.949  0.3782 -1.0549  0.0843
19470TIP3   OH279900   4.321   1.741   5.307  0.1606 -0.3778  0.3467
19470TIP3    H179901   4.340   1.683   5.233 -1.4592  0.1622 -0.5430
19470TIP3    H279902   4.384   1.813   5.297  0.9631 -1.0530  0.4056
19471TIP3   OH279903   4.372   0.300   1.768 -0.2945  0.0944  0.8391
19471TIP3    H179904   4.338   0.363   1.831 -1.7659  0.7902 -0.5638
19471TIP3    H279905   4.467   0.305   1.777 -0.4386  1.3285  1.8911
19472TIP3   OH279906   0.796   0.324   3.636  0.1883  0.3862  0.6282
19472TIP3    H179907   0.891   0.321   3.631  0.1782 -0.7175  0.8885
19472TIP3    H279908   0.777   0.329   3.730 -0.0124  0.5736  0.5786
19473TIP3   OH279909   5.259   1.666   4.161 -0.0530  0.5541 -0.6611
19473TIP3    H179910   5.201   1.741   4.141  0.5555  0.8481 -1.3837
19473TIP3    H279911   5.332   1.676   4.100  0.0728 -0.6041 -0.7222
19474TIP3   OH279912   4.438   0.873   5.926  0.1845  0.1869  0.4660
19474TIP3    H179913   4.363   0.873   5.985  0.6622  0.3951  1.0875
19474TIP3    H279914   4.497   0.939   5.963  0.8250 -0.2161  0.1841
19475TIP3   OH279915   4.187   1.968   0.699 -0.0939  0.2281  0.2521
19475TIP3    H179916   4.138   1.888   0.719 -2.6700  1.7582  0.5084
19475TIP3    H279917   4.188   1.972   0.603 -1.9970  0.9874  0.2283
19476TIP3   OH279918   6.537   5.862  12.699  0.5264  0.1309  0.4007
19476TIP3    H179919   6.484   5.786  12.722  1.9324 -1.1435 -0.3753
19476TIP3    H279920   6.622   5.825  12.674  0.7400  1.8118 -1.6142
19477TIP3   OH279921   1.744   0.878  12.056 -0.0876 -0.1400 -0.4642
19477TIP3    H179922   1.744   0.965  12.097  1.7491 -0.9412  1.4205
19477TIP3    H279923   1.655   0.844  12.072  0.5434 -0.4926  3.2819
19478TIP3   OH279924   5.422   4.011   3.031 -0.4314 -0.2416 -0.1998
19478TIP3    H179925   5.455   4.087   2.983  1.3299  0.0986  1.4214
19478TIP3    H279926   5.500   3.957   3.045 -0.3811  0.5863  3.8110
19479TIP3   OH279927   1.696   1.077  15.374 -0.1598  1.0537 -0.2376
19479TIP3    H179928   1.748   1.110  15.301  1.3564 -0.1134  0.2517
19479TIP3    H279929   1.613   1.051  15.335  1.0269 -0.6283 -1.8159
19480TIP3   OH279930   0.290   6.058  10.813 -0.0777 -0.0877  0.1288
19480TIP3    H179931   0.234   5.994  10.768 -1.1477  0.6280  0.3953
19480TIP3    H279932   0.283   6.036  10.906  0.9901 -0.6771  0.0854
19481TIP3   OH279933   0.290   3.727   1.373  0.8130 -0.5842 -0.9375
19481TIP3    H179934   0.344   3.788   1.323 -0.9047  0.0862 -2.0598
19481TIP3    H279935   0.256   3.780   1.446 -1.0287 -0.0003 -2.1536
19482TIP3   OH279936   4.818   6.598   2.152  0.7017 -0.0755 -0.1457
19482TIP3    H179937   4.802   6.509   2.182  3.1944  0.6507  4.1533
19482TIP3    H279938   4.740   6.646   2.178  1.2476 -0.2333  1.9742
19483TIP3   OH279939   1.678   1.987  11.406  0.0139  0.3611  0.0108
19483TIP3    H179940   1.765   2.026  11.419 -0.1245  0.6964 -0.0462
19483TIP3    H279941   1.678   1.908  11.460  0.4200  0.2618 -0.1335
19484TIP3   OH279942   2.551   0.237  15.126 -0.6743  0.0026  0.2335
19484TIP3    H179943   2.578   0.254  15.036  0.8051  1.8400  0.9410
19484TIP3    H279944   2.586   0.151  15.147 -0.0129  0.0640 -0.5933
19485TIP3   OH279945   6.637   4.407   0.675 -0.7316 -0.3746  0.5291
19485TIP3    H179946   6.642   4.432   0.583  2.5866  0.3554  0.7797
19485TIP3    H279947   6.649   4.312   0.675  0.8951 -0.1870  0.2531
19486TIP3   OH279948   6.773   0.271  16.946  0.4007 -0.2255 -0.1679
19486TIP3    H179949   6.775   0.215  17.023  0.9296 -1.5630 -1.1074
19486TIP3    H279950   6.690   0.318  16.952  1.3157  1.2431  2.2270
19487TIP3   OH279951   1.535   3.947  11.856 -0.7972 -0.4810  0.0854
19487TIP3    H179952   1.486   3.986  11.928 -1.1229 -3.6877  1.7665
19487TIP3    H279953   1.607   4.008  11.840 -1.6054  1.0948  2.0099
19488TIP3   OH279954   1.161   0.555  14.175 -0.1677 -0.2769 -0.2040
19488TIP3    H179955   1.192   0.570  14.265 -1.1561 -2.2313  0.5044
19488TIP3    H279956   1.241   0.535  14.126  0.2420 -0.4948  0.5236
19489TIP3   OH279957   4.641   3.017   5.071  0.1294 -0.2909  0.2845
19489TIP3    H179958   4.602   3.087   5.019 -0.3868 -0.3230  0.6224
19489TIP3    H279959   4.589   2.940   5.050 -1.3786  0.0973  2.3102
19490TIP3   OH279960   3.357   2.394   0.045  0.4342  0.2362  0.5133
19490TIP3    H179961   3.361   2.310  -0.002  3.3512  0.2437  0.5598
19490TIP3    H279962   3.441   2.436   0.026 -1.5110  3.9862 -0.8814
19491TIP3   OH279963   6.801   5.175   3.656  0.4440 -0.1602 -0.1105
19491TIP3    H179964   6.891   5.150   3.677  0.3488 -1.9360 -1.5395
19491TIP3    H279965   6.810   5.249   3.596  1.0095 -0.8533 -0.9022
19492TIP3   OH279966   5.114   4.600  13.660 -0.1536  0.2007  0.3961
19492TIP3    H179967   5.107   4.514  13.619 -0.3459  0.2135  0.3985
19492TIP3    H279968   5.172   4.586  13.735 -2.0524 -0.4722  1.8208
19493TIP3   OH279969   6.812   0.712  13.260  0.2008  0.2049 -0.3449
19493TIP3    H179970   6.717   0.705  13.268  0.3564 -0.1679  1.6779
19493TIP3    H279971   6.828   0.713  13.166 -1.6152 -2.7361 -0.8017
19494TIP3   OH279972   2.536   1.887  11.756 -0.3680  1.0433 -0.6703
19494TIP3    H179973   2.529   1.982  11.750 -0.6316  1.0236 -0.7111
19494TIP3    H279974   2.627   1.868  11.735 -0.3352  1.2804 -0.7486
19495TIP3   OH279975   4.973   5.012   1.270 -0.3242  1.0026  0.1310
19495TIP3    H179976   4.952   4.966   1.351 -0.1152  0.7195  0.0308
19495TIP3    H279977   4.911   4.977   1.206 -0.1566  0.8447  0.0517
19496TIP3   OH279978   3.450   6.669   2.443  0.8055 -0.2874 -0.2896
19496TIP3    H179979   3.469   6.762   2.450 -0.7450  0.0068  0.4797
19496TIP3    H279980   3.514   6.627   2.501  1.0435  0.3660 -0.0764
19497TIP3   OH279981   2.664   4.968   2.877 -0.3912 -0.3439  0.7628
19497TIP3    H179982   2.598   4.994   2.812 -0.1499  1.3027  1.1434
19497TIP3    H279983   2.742   4.950   2.825 -0.5823 -0.3659  0.4797
19498TIP3   OH279984   6.739   3.511  14.287 -0.2675  0.2162  0.3705
19498TIP3    H179985   6.772   3.591  14.327 -0.6395 -0.1660  1.4741
19498TIP3    H279986   6.669   3.540  14.228  0.0496  0.7525  0.2546
19499TIP3   OH279987   1.737   0.325  12.089 -0.0167  1.0126 -0.0333
19499TIP3    H179988   1.738   0.343  11.995  3.6209 -1.7031 -0.7460
19499TIP3    H279989   1.765   0.407  12.130 -0.3953  1.8542 -1.3923
19500TIP3   OH279990   2.811   6.254  12.206  0.3057 -0.2080 -0.6363
19500TIP3    H179991   2.795   6.160  12.192  1.2234 -0.5240  0.2755
19500TIP3    H279992   2.903   6.258  12.232  0.8972  1.1843 -2.7012
19501TIP3   OH279993   3.407   5.410  14.275 -0.3377  0.4042  0.3402
19501TIP3    H179994   3.432   5.395  14.184 -2.3732 -0.4691 -0.1322
19501TIP3    H279995   3.426   5.503  14.290 -0.6790  0.7532 -1.2262
19502TIP3   OH279996   5.578   3.827   5.204 -0.2464 -0.2129 -0.2348
19502TIP3    H179997   5.616   3.909   5.174 -0.7414  0.5463  1.1296
19502TIP3    H279998   5.617   3.760   5.147 -1.0703  1.0952 -2.4467
19503TIP3   OH279999   2.341   6.484  13.991 -0.1300  0.1060 -0.6080
19503TIP3    H180000   2.255   6.515  14.019  0.1580  0.6787 -0.3413
19503TIP3    H280001   2.399   6.503  14.065  0.2754 -0.0443 -0.8841
19504TIP3   OH280002   6.542   3.129  16.074  0.1411 -0.0539  0.2020
19504TIP3    H180003   6.626   3.166  16.104  0.2229 -1.6496  2.1288
19504TIP3    H280004   6.506   3.196  16.016  2.0577  1.3201  0.4958
19505TIP3   OH280005   0.131   5.573   0.936  0.0503  0.5690 -0.5863
19505TIP3    H180006   0.059   5.587   0.998  0.0121  0.5925 -0.6364
19505TIP3    H280007   0.089   5.572   0.850 -0.0352 -0.4467 -0.5501
19506TIP3   OH280008   3.617   6.414   4.306  0.6039 -0.6386  0.2519
19506TIP3    H180009   3.634   6.446   4.218 -1.5891 -0.7485 -0.2676
19506TIP3    H280010   3.607   6.320   4.296 -0.7565 -0.5273  0.3970
19507TIP3   OH280011   3.911   1.518   0.514  0.2500 -0.4616  0.5314
19507TIP3    H180012   3.886   1.561   0.432  1.6797  2.2676  1.4131
19507TIP3    H280013   3.831   1.473   0.542 -0.3903 -1.1411 -2.0920
19508TIP3   OH280014   4.771   5.373   1.133  0.1156 -0.4270  0.2723
19508TIP3    H180015   4.693   5.373   1.188 -0.0889 -1.3599  0.0030
19508TIP3    H280016   4.836   5.423   1.182 -0.7306  0.6019  0.3716
19509TIP3   OH280017   5.479   0.055   5.361 -0.4003  0.0764  0.0926
19509TIP3    H180018   5.511   0.098   5.282 -0.4226  0.9611  0.5516
19509TIP3    H280019   5.523   0.101   5.433 -0.0342 -1.0095  0.5844
19510TIP3   OH280020   2.647   1.928  12.488 -0.1403  0.2838 -0.3385
19510TIP3    H180021   2.646   1.860  12.556  1.2511  0.4583 -0.1069
19510TIP3    H280022   2.656   1.879  12.406  0.1663  0.1495 -0.2274
19511TIP3   OH280023   5.191   1.583   0.144 -0.1415  0.0089  0.4284
19511TIP3    H180024   5.168   1.491   0.148 -1.3374  0.3432  3.2630
19511TIP3    H280025   5.131   1.626   0.205  1.0248  2.5412 -0.0653
19512TIP3   OH280026   5.050   4.267  10.979  0.2270 -0.0661 -0.7102
19512TIP3    H180027   4.973   4.324  10.976  0.0575 -0.2096  0.3721
19512TIP3    H280028   5.122   4.326  11.003  0.5143  0.1116 -1.9540
19513TIP3   OH280029   3.591   3.707  12.343 -0.4836 -0.0173  0.3335
19513TIP3    H180030   3.531   3.650  12.296  1.4879 -1.8149 -0.1755
19513TIP3    H280031   3.573   3.691  12.436 -0.0345 -1.4337  0.1960
19514TIP3   OH280032   2.363   3.193  14.386  0.3411 -0.1821 -0.6733
19514TIP3    H180033   2.436   3.254  14.379  0.3838  0.1681  1.9426
19514TIP3    H280034   2.285   3.246  14.370  0.5776 -0.5862 -3.6244
19515TIP3   OH280035   6.794   5.453  11.613  0.6376 -0.2339  0.0825
19515TIP3    H180036   6.889   5.469  11.618  0.1576  2.9973  1.1694
19515TIP3    H280037   6.783   5.397  11.536  3.5313 -2.1948  0.9225
19516TIP3   OH280038   4.592   0.501   1.554 -0.4950  0.1363  0.3438
19516TIP3    H180039   4.624   0.451   1.629  0.3545  1.6005  0.9790
19516TIP3    H280040   4.625   0.452   1.478  1.0432  0.1570  0.9618
19517TIP3   OH280041   0.076   5.447   1.833  0.3162  0.2886  0.2737
19517TIP3    H180042   0.162   5.467   1.796  0.3694 -0.0122  0.2307
19517TIP3    H280043   0.089   5.451   1.928  0.4096  0.1156  0.2685
19518TIP3   OH280044   4.429   2.211   0.411 -0.3511 -0.5196 -0.0552
19518TIP3    H180045   4.397   2.209   0.321  1.5120 -1.6394 -0.7602
19518TIP3    H280046   4.466   2.298   0.422  1.0158 -0.9376 -1.0311
19519TIP3   OH280047   3.105   6.274  16.365  0.5449 -0.4539 -0.0809
19519TIP3    H180048   3.030   6.254  16.309  0.1157  0.6524  0.0732
19519TIP3    H280049   3.075   6.252  16.453  1.5982 -3.2607 -0.3250
19520TIP3   OH280050   6.386   2.173   1.615 -0.0017  0.4192  0.3420
19520TIP3    H180051   6.293   2.178   1.639  0.0413  1.0441  0.4151
19520TIP3    H280052   6.432   2.205   1.693  0.1511  2.2496 -0.4433
19521TIP3   OH280053   5.016   1.680   3.367  0.8468  0.5307 -0.7667
19521TIP3    H180054   4.954   1.751   3.382  1.5226  0.8711  0.4541
19521TIP3    H280055   5.102   1.722   3.366  1.1926 -0.1605 -0.8298
19522TIP3   OH280056   6.337   5.432  13.514  0.2754  0.3172  0.4034
19522TIP3    H180057   6.296   5.346  13.523  1.5402 -0.3524 -0.0860
19522TIP3    H280058   6.430   5.414  13.502  1.2552  1.8484  4.0673
19523TIP3   OH280059   4.803   0.782  16.203 -0.1084  0.3495 -0.1565
19523TIP3    H180060   4.740   0.847  16.235  1.1960  2.0665 -0.9551
19523TIP3    H280061   4.767   0.754  16.119 -0.4439  0.3500 -0.0183
19524TIP3   OH280062   2.599   3.978  15.850 -0.7088 -0.5650 -0.4425
19524TIP3    H180063   2.559   3.898  15.816 -0.5075 -0.5125 -0.8131
19524TIP3    H280064   2.677   3.948  15.898 -1.4104 -0.7027  0.6482
19525TIP3   OH280065   0.345   2.073   4.348  0.8992  0.1156 -0.1121
19525TIP3    H180066   0.271   2.020   4.317 -0.6124  2.0630 -0.0209
19525TIP3    H280067   0.387   2.105   4.268  0.3032  0.7579 -0.1749
19526TIP3   OH280068   1.774   0.611  12.135 -0.2658 -0.1689 -0.4718
19526TIP3    H180069   1.801   0.694  12.095  0.1686 -1.4179 -2.9255
19526TIP3    H280070   1.679   0.609  12.124 -0.4362  0.5243  0.7201
19527TIP3   OH280071   6.057   6.664   3.939 -0.4648 -0.1184 -0.3342
19527TIP3    H180072   6.054   6.640   4.032 -0.0924  1.7055  0.1785
19527TIP3    H280073   5.975   6.631   3.904 -1.8100  1.3749  1.2301
19528TIP3   OH280074   5.814   6.621  14.808 -0.2021 -0.2087 -0.3354
19528TIP3    H180075   5.814   6.547  14.869 -0.8016  0.1330  0.0908
19528TIP3    H280076   5.789   6.696  14.862 -0.7901  0.0865 -1.0091
19529TIP3   OH280077   2.716   2.965  15.186  0.5917  0.4778 -0.6840
19529TIP3    H180078   2.701   2.880  15.228  1.4142  0.1210 -1.0704
19529TIP3    H280079   2.729   2.943  15.094  1.8338  0.8916 -0.6251
19530TIP3   OH280080   5.053   3.729  13.564  0.4693 -0.1773 -0.1159
19530TIP3    H180081   5.095   3.643  13.559 -0.4056 -0.5619 -1.5335
19530TIP3    H280082   4.962   3.712  13.538 -0.1329  0.9238  1.1685
19531TIP3   OH280083   3.064   3.290   2.586  0.4252 -0.5047  0.3466
19531TIP3    H180084   3.153   3.254   2.591  1.3017  1.6528  1.9139
19531TIP3    H280085   3.075   3.383   2.605 -2.2989 -0.3269  1.4353
19532TIP3   OH280086   3.788   6.311   2.640 -0.4485  0.4175 -0.3565
19532TIP3    H180087   3.789   6.335   2.548 -0.2558 -1.1778 -0.8012
19532TIP3    H280088   3.695   6.309   2.663 -0.5615 -0.2730 -0.8367
19533TIP3   OH280089   1.205   1.798  16.952  0.5019 -0.4105 -0.1123
19533TIP3    H180090   1.231   1.886  16.979 -3.8844  0.4669  2.2780
19533TIP3    H280091   1.148   1.812  16.876 -0.4156 -1.0524  0.4220
19534TIP3   OH280092   0.365   6.649  12.083  0.1068  0.2510 -0.6963
19534TIP3    H180093   0.302   6.681  12.148  0.1072 -0.0879 -0.5279
19534TIP3    H280094   0.321   6.575  12.042  0.5174 -0.1857 -0.3599
19535TIP3   OH280095   1.248   6.549  12.745  0.1175  0.6540  0.5001
19535TIP3    H180096   1.311   6.621  12.747  0.7374  0.1067  1.3989
19535TIP3    H280097   1.282   6.489  12.679 -0.0363  0.8533  0.2361
19536TIP3   OH280098   6.246   3.657   6.875 -0.7079  0.3382  0.2550
19536TIP3    H180099   6.296   3.724   6.921 -0.1782  0.3475 -0.3287
19536TIP3    H280100   6.258   3.677   6.782 -1.2515 -0.0553  0.0909
19537TIP3   OH280101   5.399   6.329   1.227 -0.1801 -0.3097 -0.5010
19537TIP3    H180102   5.359   6.258   1.278  2.1642 -1.0353  0.4329
19537TIP3    H280103   5.334   6.349   1.160 -1.1816 -2.9136 -0.4283
19538TIP3   OH280104   1.384   4.081  12.041  0.3293 -0.0465 -0.0285
19538TIP3    H180105   1.395   4.147  12.110 -3.3577 -0.7047  1.4162
19538TIP3    H280106   1.332   4.125  11.974  3.3245  0.3728 -2.2583
19539TIP3   OH280107   0.917   3.821   2.408 -0.2636 -0.2379 -0.3705
19539TIP3    H180108   0.835   3.774   2.392 -0.8107  0.9096 -1.0381
19539TIP3    H280109   0.935   3.865   2.325  1.1764 -0.6699 -0.3102
19540TIP3   OH280110   6.802   1.464  15.643  0.3646 -0.3883  0.1281
19540TIP3    H180111   6.734   1.531  15.652 -0.5211 -1.3814  1.0965
19540TIP3    H280112   6.783   1.421  15.559 -1.5136 -2.0027  1.2895
19541TIP3   OH280113   5.628   3.845   1.284  0.1716  0.2024  0.2496
19541TIP3    H180114   5.645   3.933   1.318 -1.3252 -0.3579  2.7423
19541TIP3    H280115   5.543   3.853   1.240 -0.2117 -0.0947  0.9320
19542TIP3   OH280116   6.273   5.604   1.515 -0.3150 -0.1487  0.5237
19542TIP3    H180117   6.368   5.596   1.508 -0.3298 -1.6357  1.5456
19542TIP3    H280118   6.253   5.691   1.479  1.5722  0.7644  1.5381
19543TIP3   OH280119   4.698   4.452  17.249 -0.1290  0.0538  0.0651
19543TIP3    H180120   4.619   4.417  17.208 -0.3087 -0.1148  0.5584
19543TIP3    H280121   4.687   4.435  17.342  0.1773  0.6516  0.2149
19544TIP3   OH280122   1.964   3.820   6.513  0.2587  0.1477 -0.0927
19544TIP3    H180123   2.031   3.837   6.578  1.2416  0.0958 -1.0568
19544TIP3    H280124   1.902   3.893   6.521 -0.1282 -0.3265  1.4720
19545TIP3   OH280125   2.072   1.085   3.727 -0.2104  0.5374 -0.3720
19545TIP3    H180126   2.126   1.094   3.648 -0.0394  0.7483 -0.2295
19545TIP3    H280127   2.115   1.140   3.792  0.1426 -0.3107  0.1276
19546TIP3   OH280128   2.694   1.213   4.152 -0.3796 -0.5087  0.4376
19546TIP3    H180129   2.781   1.253   4.160  0.9306 -2.8118 -0.8094
19546TIP3    H280130   2.698   1.167   4.068 -3.1321 -0.0590 -0.0081
19547TIP3   OH280131   6.751   3.170   1.331  0.0883  0.7771 -0.7936
19547TIP3    H180132   6.690   3.242   1.323 -0.4559  0.3497 -0.5600
19547TIP3    H280133   6.779   3.172   1.423 -1.1795 -0.2853 -0.3484
19548TIP3   OH280134   6.209   3.092  14.543 -0.1672  0.1794 -0.5020
19548TIP3    H180135   6.156   3.048  14.609 -1.2596 -0.4122 -1.7084
19548TIP3    H280136   6.195   3.185  14.559  0.5495  0.0869  0.8149
19549TIP3   OH280137   2.335   2.536   4.312 -0.1016  0.3115  0.4594
19549TIP3    H180138   2.424   2.571   4.299 -0.7567  2.3224  0.9967
19549TIP3    H280139   2.322   2.477   4.238  1.8859 -0.5218  0.6976
19550TIP3   OH280140   6.140   0.626  14.210  0.2896  0.6789 -0.7453
19550TIP3    H180141   6.190   0.660  14.283 -1.2529 -0.4075  0.8912
19550TIP3    H280142   6.182   0.542  14.188  1.0582  1.2363 -1.4928
19551TIP3   OH280143   4.357   4.231   1.081  0.0852 -1.0764 -0.4267
19551TIP3    H180144   4.449   4.229   1.055 -0.1922 -1.6197 -1.4010
19551TIP3    H280145   4.355   4.288   1.158  1.2775 -1.2852 -0.2241
19552TIP3   OH280146   4.823   2.242  11.511 -0.3869 -0.1117  0.1878
19552TIP3    H180147   4.737   2.283  11.519 -0.8621 -1.1973  0.7883
19552TIP3    H280148   4.813   2.178  11.441  0.1168  0.1853 -0.1636
19553TIP3   OH280149   0.465   4.632  13.533 -0.3823 -0.0667 -0.0606
19553TIP3    H180150   0.410   4.573  13.481 -1.2879  0.2439  0.5115
19553TIP3    H280151   0.418   4.640  13.616  1.1656 -0.7521  0.9202
19554TIP3   OH280152   5.974   3.554  12.823  0.4981 -0.3147 -0.0566
19554TIP3    H180153   5.909   3.583  12.886  1.4034  0.2334  0.6548
19554TIP3    H280154   6.041   3.510  12.876  1.7718  1.0427 -0.4825
19555TIP3   OH280155   4.609   6.243  12.561  0.4067 -0.2389  0.0030
19555TIP3    H180156   4.691   6.259  12.514  0.0856 -0.8834 -0.7973
19555TIP3    H280157   4.599   6.148  12.560 -0.9659 -0.1267 -1.0251
19556TIP3   OH280158   2.745   3.907  13.735  0.0182 -0.6534 -0.2560
19556TIP3    H180159   2.809   3.850  13.777  0.7990 -0.3234 -0.9484
19556TIP3    H280160   2.719   3.969  13.803  0.4222 -0.8063  0.0402
19557TIP3   OH280161   0.173   5.233   1.504 -0.1709 -0.1843 -0.0419
19557TIP3    H180162   0.114   5.221   1.578 -1.3429 -0.0433 -0.9266
19557TIP3    H280163   0.190   5.144   1.473  2.5994 -0.5106  2.0542
19558TIP3   OH280164   5.802   6.149  10.968 -0.6814  0.4171  0.0656
19558TIP3    H180165   5.782   6.187  11.054 -0.6752  0.4017  0.0742
19558TIP3    H280166   5.897   6.143  10.966 -0.7562 -2.1171  1.1477
19559TIP3   OH280167   2.624   3.405   5.354 -0.0969 -0.3733  0.5002
19559TIP3    H180168   2.616   3.316   5.388  1.1986 -1.9583 -2.9502
19559TIP3    H280169   2.586   3.402   5.266  0.6547  2.2901 -0.0352
19560TIP3   OH280170   6.309   4.624   5.969 -0.1073 -0.1669 -0.4542
19560TIP3    H180171   6.380   4.667   6.017 -0.4164  1.0787 -1.0846
19560TIP3    H280172   6.319   4.531   5.991  0.7371  0.1740  0.7260
19561TIP3   OH280173   1.781   2.942  13.811 -0.3974  0.1603  0.2201
19561TIP3    H180174   1.689   2.949  13.787 -0.0217  0.3553 -1.2671
19561TIP3    H280175   1.780   2.917  13.904 -1.9336 -0.0848  0.1633
19562TIP3   OH280176   0.467   2.739  14.601  0.0779 -0.3025 -0.2423
19562TIP3    H180177   0.486   2.783  14.518  4.8414  0.6063  1.0055
19562TIP3    H280178   0.437   2.652  14.576  2.1636 -0.3731 -3.0328
19563TIP3   OH280179   0.780   5.599   5.449 -0.1064 -0.2909  0.8678
19563TIP3    H180180   0.713   5.533   5.463 -0.9795  0.9100  2.6481
19563TIP3    H280181   0.850   5.553   5.403 -0.5665 -2.5239  2.2757
19564TIP3   OH280182   1.503   6.106   1.444  0.2373  0.1302  0.0916
19564TIP3    H180183   1.420   6.151   1.427  0.9062  1.4285  0.1663
19564TIP3    H280184   1.480   6.038   1.507 -0.6171  1.0576  0.8168
19565TIP3   OH280185   1.987   1.719  10.690  0.4820 -0.0456 -0.1499
19565TIP3    H180186   1.955   1.805  10.718 -2.1397 -1.2307  0.8346
19565TIP3    H280187   2.041   1.738  10.613 -2.3031  2.3074 -1.7337
19566TIP3   OH280188   4.169   5.350  14.800  0.6446 -0.2860  0.0016
19566TIP3    H180189   4.230   5.414  14.836  1.8831 -1.6306  0.3776
19566TIP3    H280190   4.179   5.273  14.856  0.3794 -1.3701 -1.3879
19567TIP3   OH280191   5.105   3.712   3.250  0.0890 -0.1901  0.0125
19567TIP3    H180192   5.076   3.747   3.334  1.1296 -0.9066  0.6994
19567TIP3    H280193   5.024   3.690   3.204 -0.4956 -0.6029  1.1946
19568TIP3   OH280194   1.403   3.579   1.369 -0.1148  0.3938  0.4505
19568TIP3    H180195   1.390   3.670   1.395 -1.0611  0.7463 -1.1066
19568TIP3    H280196   1.321   3.535   1.392  0.3204 -0.0735  1.1527
19569TIP3   OH280197   3.519   1.886   3.554  0.2810  0.3437 -0.0694
19569TIP3    H180198   3.606   1.847   3.565 -0.5624 -1.2774  1.1065
19569TIP3    H280199   3.482   1.841   3.478  0.4009  0.9749 -0.5171
19570TIP3   OH280200   3.868   5.425  13.039 -0.3399  0.2916  0.2426
19570TIP3    H180201   3.873   5.518  13.016 -0.0520  0.1264 -0.3781
19570TIP3    H280202   3.887   5.379  12.958 -0.5419 -0.3162  0.5340
19571TIP3   OH280203   1.289   4.391   2.365  0.0772 -0.0556  0.3157
19571TIP3    H180204   1.337   4.328   2.418  0.0912  0.3260  0.7685
19571TIP3    H280205   1.197   4.372   2.384  0.0802  1.3885  2.1038
19572TIP3   OH280206   4.255   1.735  14.439  0.5715  0.3193 -0.2432
19572TIP3    H180207   4.214   1.806  14.487  0.8317  2.1218 -2.5291
19572TIP3    H280208   4.278   1.670  14.506 -1.6630  1.3604  1.6448
19573TIP3   OH280209   3.794   0.582  15.354  0.0736  0.2411 -0.1043
19573TIP3    H180210   3.752   0.652  15.304 -0.2293  0.4807  0.4670
19573TIP3    H280211   3.862   0.626  15.405 -0.0007  0.0907  0.1266
19574TIP3   OH280212   6.318   4.014  16.674  0.6359  0.0764  0.6242
19574TIP3    H180213   6.330   3.932  16.723 -0.4315 -0.8337 -0.5670
19574TIP3    H280214   6.356   3.996  16.588  0.5453  0.8939  0.4052
19575TIP3   OH280215   2.481   0.291  11.228 -0.2902  0.4449  0.0150
19575TIP3    H180216   2.414   0.358  11.239 -0.8033  0.0482 -0.6806
19575TIP3    H280217   2.513   0.302  11.138  2.1480  2.0607  0.9631
19576TIP3   OH280218   3.086   5.742  10.240  0.2408  0.1847 -0.2545
19576TIP3    H180219   3.088   5.835  10.215  2.1320  0.1259 -0.4621
19576TIP3    H280220   3.165   5.705  10.201 -0.1061 -1.3580  0.4394
19577TIP3   OH280221   6.673   0.413  14.230  0.3917  0.1072  0.6244
19577TIP3    H180222   6.699   0.344  14.170  0.3037  0.3006  0.3615
19577TIP3    H280223   6.634   0.480  14.174  0.7978  0.5260  0.8359
19578TIP3   OH280224   2.488   3.294  11.779 -0.5258  0.1165  0.2992
19578TIP3    H180225   2.576   3.312  11.814 -0.1549  0.9799 -0.9995
19578TIP3    H280226   2.485   3.199  11.771  0.5595  0.1135 -0.2625
19579TIP3   OH280227   5.242   5.867  12.088 -0.2026  0.2787 -0.7370
19579TIP3    H180228   5.321   5.885  12.037  1.4699  0.5958  1.8077
19579TIP3    H280229   5.215   5.780  12.059  2.5095 -0.9111 -0.0563
19580TIP3   OH280230   5.620   1.411   3.889  0.6682  0.1379 -0.1831
19580TIP3    H180231   5.602   1.446   3.976  0.7984  1.3216 -0.6188
19580TIP3    H280232   5.561   1.458   3.831  1.9459  0.8015 -1.0023
19581TIP3   OH280233   1.028   2.341   3.403  0.0835  0.1625  0.3965
19581TIP3    H180234   1.086   2.277   3.444  1.8432  1.6531  0.3889
19581TIP3    H280235   1.050   2.338   3.310 -0.3496  0.2486  0.2889
19582TIP3   OH280236   0.747   1.610   3.402  0.1714  0.3591 -0.3249
19582TIP3    H180237   0.694   1.617   3.482 -2.1637 -0.8466 -1.6421
19582TIP3    H280238   0.685   1.629   3.331  1.9398  0.4635 -1.9095
19583TIP3   OH280239   2.194   3.317   3.362 -0.0012  0.2546 -0.2034
19583TIP3    H180240   2.271   3.277   3.404 -0.1856  1.3570  1.2929
19583TIP3    H280241   2.219   3.408   3.348 -1.1339  0.7149  0.6317
19584TIP3   OH280242   1.663   1.095  14.592  0.2234 -0.0340  0.0587
19584TIP3    H180243   1.714   1.153  14.536 -0.4617  0.9434  0.4312
19584TIP3    H280244   1.598   1.056  14.533  0.6330 -0.3802 -0.1747
19585TIP3   OH280245   0.958   1.784  10.726 -0.2339  0.0655  0.2560
19585TIP3    H180246   1.034   1.842  10.722 -0.2147  0.0090 -0.3219
19585TIP3    H280247   0.995   1.696  10.730 -0.2183  0.1223  3.1850
19586TIP3   OH280248   6.345   0.508   0.037 -0.5786 -0.4190 -1.2578
19586TIP3    H180249   6.376   0.541  -0.047 -2.4663 -0.9296 -2.2070
19586TIP3    H280250   6.259   0.472   0.018 -0.9851 -0.6915  0.8855
19587TIP3   OH280251   4.560   5.388  12.479 -0.3756  0.7414  0.8372
19587TIP3    H180252   4.530   5.432  12.559  1.5992  2.8754  0.5128
19587TIP3    H280253   4.510   5.429  12.409  0.4270  1.5052  0.6824
19588TIP3   OH280254   3.320   2.974  13.635 -0.4248 -0.1148  0.6987
19588TIP3    H180255   3.237   2.955  13.679 -1.0406  0.7409 -0.0487
19588TIP3    H280256   3.295   3.021  13.556  0.7904  0.2303  0.4943
19589TIP3   OH280257   1.798   1.766   3.842 -0.1408  0.3956 -0.0708
19589TIP3    H180258   1.791   1.859   3.862 -0.6289  0.3026  0.2182
19589TIP3    H280259   1.790   1.761   3.747 -0.6947  0.6086 -0.0421
19590TIP3   OH280260   3.718   1.640  12.397 -0.0937  0.1197 -0.0297
19590TIP3    H180261   3.802   1.663  12.357  0.9289 -0.7155  1.5336
19590TIP3    H280262   3.680   1.724  12.423  1.8205  0.3944  2.1721
19591TIP3   OH280263   1.918   4.525   4.633  0.3840  0.4070 -0.2540
19591TIP3    H180264   1.946   4.593   4.694  0.7760 -0.5799  0.6957
19591TIP3    H280265   1.822   4.533   4.631  0.0557 -1.2867  2.7058
19592TIP3   OH280266   4.418   5.805  12.286 -0.4855  0.5644 -0.3351
19592TIP3    H180267   4.350   5.738  12.287  0.2234 -0.1739 -0.7500
19592TIP3    H280268   4.491   5.765  12.239  0.0554  1.5272 -0.3445
19593TIP3   OH280269   2.599   1.092   5.205 -0.0515  0.1817 -0.1030
19593TIP3    H180270   2.683   1.138   5.209 -0.3909  0.8066 -0.0645
19593TIP3    H280271   2.621   1.000   5.221  1.0285 -0.1443 -2.8006
19594TIP3   OH280272   2.485   2.207   1.881 -0.3955 -0.6865  0.4605
19594TIP3    H180273   2.482   2.302   1.878 -1.1004 -0.7285 -0.6917
19594TIP3    H280274   2.413   2.182   1.939 -1.8560 -0.5744 -1.2315
19595TIP3   OH280275   4.479   3.768  16.089 -0.2955 -0.3664  0.0215
19595TIP3    H180276   4.412   3.775  16.022 -0.0486 -1.3327 -0.3393
19595TIP3    H280277   4.561   3.757  16.041 -0.0651 -0.6631  0.4702
19596TIP3   OH280278   2.415   3.181   2.481 -0.9318  0.3520  0.5550
19596TIP3    H180279   2.339   3.200   2.536 -1.4217 -2.0986  0.8404
19596TIP3    H280280   2.482   3.150   2.541 -1.3273 -1.9461 -0.1141
19597TIP3   OH280281   4.440   3.257  11.956 -0.1407 -0.4869 -0.2509
19597TIP3    H180282   4.370   3.245  11.891  0.1419  1.0918 -0.9105
19597TIP3    H280283   4.519   3.271  11.904  0.4934 -1.2958  0.4791
19598TIP3   OH280284   5.610   4.603   2.671 -0.2048  0.4122  0.4759
19598TIP3    H180285   5.686   4.590   2.729 -0.9151  1.6381  1.7383
19598TIP3    H280286   5.649   4.626   2.586  0.8424  0.8690  1.0579
19599TIP3   OH280287   5.393   1.137   5.147  0.1116 -0.4396 -0.2661
19599TIP3    H180288   5.426   1.172   5.064 -1.1417  0.6194 -0.3595
19599TIP3    H280289   5.435   1.192   5.214  1.1230 -1.2939 -0.1654
19600TIP3   OH280290   3.406   1.329   2.857  0.4392  1.0130 -0.0183
19600TIP3    H180291   3.485   1.276   2.846  1.7246  3.1305 -1.6365
19600TIP3    H280292   3.427   1.388   2.930  0.1823  1.2961 -0.1731
19601TIP3   OH280293   3.431   5.630   1.691  0.4574 -0.0098 -0.5129
19601TIP3    H180294   3.420   5.591   1.778  1.0692  0.3481 -0.2694
19601TIP3    H280295   3.342   5.639   1.657  0.1913  0.1858  0.2249
19602TIP3   OH280296   0.459   5.319   2.379 -0.3199 -0.2272  0.0947
19602TIP3    H180297   0.458   5.240   2.432 -0.2415  0.5183  1.2369
19602TIP3    H280298   0.443   5.390   2.441  5.0935  1.3235  0.2679
19603TIP3   OH280299   6.563   6.705  12.614 -0.0906  0.6479 -0.2249
19603TIP3    H180300   6.526   6.649  12.682 -0.7950  1.1006 -0.2228
19603TIP3    H280301   6.488   6.753  12.579  0.2214  0.2370 -1.4990
19604TIP3   OH280302   1.697   5.578   2.304  0.1764  1.0690  0.1941
19604TIP3    H180303   1.761   5.512   2.332  0.1558  1.4145  1.0932
19604TIP3    H280304   1.622   5.564   2.361 -0.3860  0.9639 -0.5513
19605TIP3   OH280305   5.024   6.651   1.635 -0.0387  0.3167  0.4946
19605TIP3    H180306   4.958   6.720   1.638 -0.9325 -0.4775 -0.1059
19605TIP3    H280307   5.101   6.689   1.678 -0.7252  1.4307  0.7851
19606TIP3   OH280308   0.499   3.154  15.087  0.5565 -0.2994  0.2254
19606TIP3    H180309   0.572   3.094  15.100 -1.7269 -3.5594 -0.5800
19606TIP3    H280310   0.481   3.150  14.993  1.2342  3.0155 -0.1575
19607TIP3   OH280311   1.858   2.209   2.272  0.1151  0.1716  0.1125
19607TIP3    H180312   1.906   2.181   2.349  1.9267  1.3419 -0.5093
19607TIP3    H280313   1.809   2.286   2.301  1.9600  1.5386 -0.1525
19608TIP3   OH280314   1.458   0.626   1.661  0.5307 -0.5038 -0.3935
19608TIP3    H180315   1.392   0.651   1.725  0.6983 -0.3329 -0.2865
19608TIP3    H280316   1.413   0.565   1.603  0.6177 -1.3093  0.3791
19609TIP3   OH280317   0.676   0.196   2.405  0.2703  0.1494 -0.5654
19609TIP3    H180318   0.594   0.237   2.380 -1.2601 -3.1296 -1.4850
19609TIP3    H280319   0.653   0.139   2.479  1.7034 -0.7180 -0.7408
19610TIP3   OH280320   4.268   4.464  13.869 -0.4709  0.4736  0.6468
19610TIP3    H180321   4.332   4.489  13.936  0.0514  0.5299  0.1277
19610TIP3    H280322   4.230   4.547  13.840 -1.8101  0.3653  1.9408
19611TIP3   OH280323   3.673   0.813  16.803  0.4299 -0.4600  0.2886
19611TIP3    H180324   3.713   0.728  16.819 -1.5926 -1.5042  0.0367
19611TIP3    H280325   3.623   0.802  16.722 -0.9562  0.5535  0.9617
19612TIP3   OH280326   0.187   0.683  13.465 -0.1953  0.0866 -0.7349
19612TIP3    H180327   0.126   0.718  13.399 -2.1148 -1.4436  0.1188
19612TIP3    H280328   0.134   0.674  13.544  1.1321 -1.4325  0.0310
19613TIP3   OH280329   0.154   5.436  13.234  0.9459  0.5615  0.5896
19613TIP3    H180330   0.145   5.350  13.192 -1.7392  1.0332 -0.0149
19613TIP3    H280331   0.246   5.441  13.259  1.3395 -2.2217  0.0863
19614TIP3   OH280332   3.947   5.042   3.931  0.4778 -0.0514  0.0677
19614TIP3    H180333   3.898   5.002   4.003  0.4725 -0.4125 -0.1355
19614TIP3    H280334   3.893   5.025   3.854  1.5552 -1.6418 -0.3833
19615TIP3   OH280335   6.687   1.007  17.215 -0.1573  0.8306  0.6059
19615TIP3    H180336   6.703   1.097  17.243  1.8616  0.5260  0.5525
19615TIP3    H280337   6.770   0.978  17.176 -0.5906 -1.2064  1.0610
19616TIP3   OH280338   0.202   5.988  15.264  0.0015 -0.2507  0.1028
19616TIP3    H180339   0.258   5.911  15.260  1.0745  0.5657 -1.1319
19616TIP3    H280340   0.150   5.975  15.344  1.2276 -1.5021  0.7425
19617TIP3   OH280341   0.550   1.003   0.059 -0.5071  0.0220 -0.2923
19617TIP3    H180342   0.554   1.034  -0.032  0.6563  0.2567 -0.1716
19617TIP3    H280343   0.559   1.083   0.112 -0.4136 -0.2006  0.0275
19618TIP3   OH280344   2.870   5.181   0.324  0.1814  0.3338  0.0492
19618TIP3    H180345   2.895   5.208   0.235 -0.0837  2.1103  0.4859
19618TIP3    H280346   2.880   5.260   0.377 -1.0980 -0.3123  1.3171
19619TIP3   OH280347   5.708   1.644  13.618 -0.3533 -0.4748  0.0067
19619TIP3    H180348   5.670   1.557  13.608 -0.4293 -0.5101  0.5894
19619TIP3    H280349   5.680   1.673  13.705  1.1941 -0.6255  0.5813
19620TIP3   OH280350   1.433   6.085  16.263  0.1612  0.9003  0.5998
19620TIP3    H180351   1.342   6.069  16.239  0.1498  0.6225  0.8334
19620TIP3    H280352   1.475   5.999  16.258  0.5513  1.1261 -0.1081
19621TIP3   OH280353   5.198   0.797  12.689 -0.4273 -0.0184  0.5228
19621TIP3    H180354   5.195   0.727  12.624 -0.2236  0.3507  0.1087
19621TIP3    H280355   5.109   0.802  12.724 -0.0496 -1.6654  1.8366
19622TIP3   OH280356   5.549   4.202   4.659  0.3786  0.5831  0.0147
19622TIP3    H180357   5.514   4.191   4.748 -0.5684  0.3760 -0.3662
19622TIP3    H280358   5.594   4.286   4.661  0.7705  0.3594  0.8180
19623TIP3   OH280359   6.561   3.791   4.946  0.6385  0.1669  0.2623
19623TIP3    H180360   6.525   3.819   5.030 -1.2843  1.1347 -0.8229
19623TIP3    H280361   6.645   3.836   4.939 -0.2543  1.9746  0.6570
19624TIP3   OH280362   0.899   0.073  16.671 -0.5272  0.1359  0.1196
19624TIP3    H180363   0.970   0.136  16.687 -1.3681  1.2883 -0.5271
19624TIP3    H280364   0.824   0.109  16.719 -0.7751 -0.8813  0.5086
19625TIP3   OH280365   3.678   6.439   0.490  0.0025 -0.1577 -0.5378
19625TIP3    H180366   3.702   6.370   0.429 -1.1752 -0.7174 -0.3890
19625TIP3    H280367   3.596   6.410   0.530  1.0002 -0.0782  1.7520
19626TIP3   OH280368   5.569   1.267   6.044  1.1749 -0.4799  0.3229
19626TIP3    H180369   5.579   1.251   6.138  0.5086  1.1380  0.7073
19626TIP3    H280370   5.478   1.244   6.025  0.7621  0.9370  0.4903
19627TIP3   OH280371   0.667   1.082  13.163  0.2674 -0.1608  0.1618
19627TIP3    H180372   0.740   1.142  13.153  0.7761 -1.0865 -2.7330
19627TIP3    H280373   0.708   0.997  13.182 -0.0800 -0.4841 -0.4829
19628TIP3   OH280374   2.606   5.603   1.646 -0.3610 -0.0110  0.0777
19628TIP3    H180375   2.535   5.557   1.692 -0.7879 -1.4462 -1.8975
19628TIP3    H280376   2.609   5.563   1.560  0.8101  2.1836 -0.9859
19629TIP3   OH280377   4.762   2.382   2.834  0.3345  0.3453 -0.3014
19629TIP3    H180378   4.681   2.423   2.804  0.0566  0.8028  0.9970
19629TIP3    H280379   4.823   2.455   2.844  0.6780  0.0943 -0.5926
19630TIP3   OH280380   3.463   3.009   0.120  0.5137  0.5556 -0.7718
19630TIP3    H180381   3.498   3.076   0.061  0.2950  0.1360 -1.3895
19630TIP3    H280382   3.528   2.939   0.119  0.3540  0.4044 -0.7724
19631TIP3   OH280383   0.892   4.096   0.232  0.0864  0.4895 -0.0244
19631TIP3    H180384   0.823   4.158   0.208  1.7500  1.2228 -3.5994
19631TIP3    H280385   0.913   4.050   0.151  2.8472 -0.6767  1.2073
19632TIP3   OH280386   1.864   5.025  13.856 -0.0776  0.0352  0.0738
19632TIP3    H180387   1.871   4.966  13.782 -0.9404  0.3637 -0.2755
19632TIP3    H280388   1.845   4.968  13.931 -2.4499 -0.0256 -0.5146
19633TIP3   OH280389   3.225   2.081   2.783  0.7962  0.0042 -0.0810
19633TIP3    H180390   3.207   2.065   2.691  0.5949 -0.4274  0.0246
19633TIP3    H280391   3.244   2.174   2.789  1.1717 -0.0343 -0.6118
19634TIP3   OH280392   5.307   2.692   2.985  0.5676  0.4441 -0.1021
19634TIP3    H180393   5.289   2.714   2.894 -2.1307 -1.4886 -0.1527
19634TIP3    H280394   5.376   2.627   2.981  0.6205  0.5380 -0.7402
19635TIP3   OH280395   1.474   1.100   1.888  0.6344 -0.9950 -0.2181
19635TIP3    H180396   1.568   1.094   1.903  1.3411  1.7956 -2.5703
19635TIP3    H280397   1.465   1.112   1.793 -1.8218  1.3592  0.1643
19636TIP3   OH280398   3.953   1.965  15.321 -0.0624 -0.4748 -0.0501
19636TIP3    H180399   3.864   1.981  15.291 -0.3884 -1.0562  0.5681
19636TIP3    H280400   3.948   1.973  15.416  0.8157  0.7014 -0.0850
19637TIP3   OH280401   0.681   4.118   5.269  0.0013  0.0318 -0.7143
19637TIP3    H180402   0.770   4.132   5.300  0.3721 -1.0027 -1.2794
19637TIP3    H280403   0.691   4.085   5.180 -1.0150  2.0420 -1.6378
19638TIP3   OH280404   6.628   5.215  16.592 -0.1276  0.9008  0.4299
19638TIP3    H180405   6.631   5.138  16.534 -0.2399  0.2546  1.2547
19638TIP3    H280406   6.552   5.264  16.562  0.4535  1.1531 -0.6671
19639TIP3   OH280407   5.317   2.986   4.987  0.2684  0.0980  0.2107
19639TIP3    H180408   5.296   3.079   4.981  1.2143  0.3658  0.9098
19639TIP3    H280409   5.248   2.943   4.937 -0.8704  1.0808  0.8901
19640TIP3   OH280410   0.996   5.391  10.366  0.0529  0.3648 -0.4893
19640TIP3    H180411   1.089   5.392  10.387 -0.4534 -0.1155  2.0890
19640TIP3    H280412   0.952   5.407  10.450 -2.2035  0.1306 -1.5487
19641TIP3   OH280413   0.448   3.534  15.010  0.0044 -0.1679 -0.0312
19641TIP3    H180414   0.401   3.456  14.981  0.5403 -0.2810 -0.6389
19641TIP3    H280415   0.382   3.589  15.051 -0.4571 -0.7618  0.0286
19642TIP3   OH280416   1.867   6.618  11.134  0.4011 -0.3286 -0.1683
19642TIP3    H180417   1.944   6.672  11.153  2.0845 -2.3821 -0.7974
19642TIP3    H280418   1.836   6.650  11.049  1.5001 -0.4586 -0.6365
19643TIP3   OH280419   4.371   5.001  13.504 -0.2197 -0.5574 -0.4530
19643TIP3    H180420   4.423   5.035  13.431 -1.0808  0.9430 -0.4101
19643TIP3    H280421   4.344   5.079  13.553 -0.0683 -1.5104  1.2038
19644TIP3   OH280422   2.075   1.048  15.724  0.5767 -0.5276  0.5618
19644TIP3    H180423   2.072   0.979  15.790  1.1747 -0.6378  0.4852
19644TIP3    H280424   2.061   1.129  15.773 -0.4291 -0.7165  0.6099
19645TIP3   OH280425   6.701   6.766   3.879 -0.0910 -0.3714 -0.2390
19645TIP3    H180426   6.614   6.739   3.850  0.0722  0.5213 -1.7119
19645TIP3    H280427   6.760   6.729   3.813  0.3503  1.3253 -0.8699
19646TIP3   OH280428   1.406   6.320   4.626  0.2786  0.1328  0.3144
19646TIP3    H180429   1.492   6.314   4.666  0.6275 -1.1073 -0.5660
19646TIP3    H280430   1.354   6.253   4.671 -0.9402  2.3113  2.3923
19647TIP3   OH280431   6.339   4.180  14.329 -0.0792  0.0089  0.3155
19647TIP3    H180432   6.381   4.097  14.350 -0.0311 -0.5915 -1.8830
19647TIP3    H280433   6.258   4.179  14.380  0.7778 -0.4971  1.7451
19648TIP3   OH280434   5.254   0.298   1.224 -0.1072 -0.3307 -0.0188
19648TIP3    H180435   5.228   0.287   1.132 -0.0884  0.4282 -0.1184
19648TIP3    H280436   5.340   0.339   1.220  0.1342 -0.7957  0.3388
19649TIP3   OH280437   3.991   1.588  16.209  0.1027 -0.4759  0.3755
19649TIP3    H180438   4.021   1.636  16.286  0.6987 -0.6917  0.2792
19649TIP3    H280439   3.932   1.649  16.165  0.6349  0.0708  0.4034
19650TIP3   OH280440   0.297   6.067   4.513  0.1055  0.5378 -0.3035
19650TIP3    H180441   0.237   6.136   4.483 -0.8276 -0.0936  0.0468
19650TIP3    H280442   0.310   6.012   4.435 -0.1396  0.4282 -0.2701
19651TIP3   OH280443   1.468   5.190  10.546 -0.4098 -0.3803  0.6754
19651TIP3    H180444   1.468   5.271  10.596  0.6389  0.0753 -0.0406
19651TIP3    H280445   1.401   5.202  10.479  1.0041  0.6704 -0.6104
19652TIP3   OH280446   3.145   6.519  14.127  0.5229 -0.6016 -0.6187
19652TIP3    H180447   3.158   6.590  14.065 -0.0493 -0.0944 -0.1733
19652TIP3    H280448   3.130   6.441  14.073 -1.7756  0.1484 -1.1613
19653TIP3   OH280449   1.837   2.853   3.133 -0.4669  0.9441 -0.1990
19653TIP3    H180450   1.772   2.869   3.202 -0.0603 -1.5243  0.8434
19653TIP3    H280451   1.789   2.869   3.051 -2.0725  0.2589  0.5701
19654TIP3   OH280452   2.692   6.749  12.692  0.1624  0.8383 -0.2847
19654TIP3    H180453   2.703   6.687  12.764  0.3125  1.2021  0.0062
19654TIP3    H280454   2.760   6.814  12.705  0.8272  0.3856 -1.3126
19655TIP3   OH280455   3.858   6.606  10.947 -0.2492  0.2269 -0.3668
19655TIP3    H180456   3.953   6.621  10.951  0.0478 -1.5742  1.7182
19655TIP3    H280457   3.820   6.694  10.948  1.3953  0.9806 -0.3180
19656TIP3   OH280458   0.105   2.809  16.468  0.2702  0.7165 -0.2993
19656TIP3    H180459   0.050   2.808  16.547  0.6304 -1.5875 -0.0091
19656TIP3    H280460   0.042   2.806  16.396 -0.0541 -0.2990  0.0021
19657TIP3   OH280461   3.246   0.503  12.187 -0.1108  0.6000  0.3606
19657TIP3    H180462   3.276   0.466  12.104  0.8068  0.3922  0.7754
19657TIP3    H280463   3.239   0.597  12.170 -0.2765  0.5170 -0.0521
19658TIP3   OH280464   0.312   1.838   1.379 -0.5124 -0.3325  0.0719
19658TIP3    H180465   0.240   1.872   1.432 -0.4938 -2.7912  1.8078
19658TIP3    H280466   0.278   1.837   1.289 -1.5767  1.1668  0.4214
19659TIP3   OH280467   3.073   1.911  14.991  0.4907 -0.1003 -0.2419
19659TIP3    H180468   3.020   1.952  14.922  0.9657 -0.3758 -0.7840
19659TIP3    H280469   3.111   1.984  15.039  0.4040  0.0968 -0.4707
19660TIP3   OH280470   1.802   4.888   4.712 -0.1282  0.0518  0.3957
19660TIP3    H180471   1.773   4.890   4.804  0.8166 -0.1098  0.7126
19660TIP3    H280472   1.768   4.806   4.677  1.1112 -0.8480  1.1807
19661TIP3   OH280473   3.488   3.589   3.037  0.2921  0.4340 -0.3525
19661TIP3    H180474   3.452   3.667   2.994  1.4348  0.6641 -0.9638
19661TIP3    H280475   3.470   3.602   3.130 -2.0698  0.0236 -0.6891
19662TIP3   OH280476   3.106   3.371   3.448 -0.1598  0.2433 -0.2083
19662TIP3    H180477   3.165   3.432   3.492  2.1332 -1.7539 -0.3574
19662TIP3    H280478   3.105   3.401   3.357  0.9730  0.0537 -0.2917
19663TIP3   OH280479   4.415   4.308   0.092 -0.2287 -0.1551  0.0722
19663TIP3    H180480   4.458   4.237   0.045 -0.2127 -0.5716  0.6960
19663TIP3    H280481   4.486   4.351   0.140 -0.3503 -0.2114  0.3064
19664TIP3   OH280482   5.092   0.155  17.156  0.3816  0.4993  0.4791
19664TIP3    H180483   5.134   0.115  17.080  1.3636 -1.0396  1.7590
19664TIP3    H280484   5.097   0.249  17.139  0.4534  0.1937 -1.3962
19665TIP3   OH280485   3.759   0.942  11.678  0.0868 -0.2653 -1.2246
19665TIP3    H180486   3.828   1.007  11.690 -0.6100  0.2352  0.2738
19665TIP3    H280487   3.685   0.992  11.642 -0.9287  0.1409  1.2208
19666TIP3   OH280488   0.740   5.256  14.138 -0.1233 -0.1034  0.1844
19666TIP3    H180489   0.729   5.287  14.048 -0.6078 -0.8035 -0.0092
19666TIP3    H280490   0.813   5.308  14.173 -2.0526  2.5519  0.4970
19667TIP3   OH280491   2.936   5.657  13.210  0.4449 -0.1366 -0.1128
19667TIP3    H180492   2.935   5.750  13.185  0.9567  0.4477  1.8888
19667TIP3    H280493   2.884   5.614  13.142  2.0778  1.2403 -2.3727
19668TIP3   OH280494   2.436   1.839   6.263  0.1580  0.2905  0.1045
19668TIP3    H180495   2.480   1.757   6.243 -0.4532 -0.0713  0.2059
19668TIP3    H280496   2.493   1.883   6.325 -1.2275 -1.7569  3.0363
19669TIP3   OH280497   6.062   2.414  12.613 -0.2127 -0.3473 -0.1010
19669TIP3    H180498   6.087   2.438  12.702  3.7488 -2.1645 -0.5047
19669TIP3    H280499   6.085   2.322  12.605 -2.6324 -0.8747 -2.3855
19670TIP3   OH280500   4.773   1.439  17.131 -0.3318  0.1738 -0.3196
19670TIP3    H180501   4.863   1.468  17.120 -0.7395  0.7814 -2.3596
19670TIP3    H280502   4.732   1.454  17.046 -1.8161 -2.0269 -0.0782
19671TIP3   OH280503   3.949   0.922  12.452 -0.0279  0.1856  0.1842
19671TIP3    H180504   3.956   0.849  12.390 -0.0679  0.6181 -0.3423
19671TIP3    H280505   3.869   0.904  12.501  0.0335 -0.1924  0.1452
19672TIP3   OH280506   2.925   6.665   2.081 -0.2705  0.0915  0.0589
19672TIP3    H180507   2.836   6.638   2.061 -0.1929 -0.2393  0.1588
19672TIP3    H280508   2.914   6.740   2.141 -0.4859  0.5334 -0.5223
19673TIP3   OH280509   2.512   6.715  13.899  0.1272 -0.2209 -0.6989
19673TIP3    H180510   2.482   6.626  13.919  0.2817 -0.1135  0.0235
19673TIP3    H280511   2.546   6.709  13.809 -0.3929 -0.7550 -0.8618
19674TIP3   OH280512   3.982   4.244   1.292 -0.4070  0.1471  0.0621
19674TIP3    H180513   4.014   4.266   1.380  0.1871  0.9020 -0.3390
19674TIP3    H280514   4.051   4.192   1.253  0.6508  2.2199 -0.9991
19675TIP3   OH280515   5.932   0.202  15.642  0.1110  0.6973 -0.2833
19675TIP3    H180516   5.976   0.279  15.606  0.2182  0.3999 -0.8010
19675TIP3    H280517   5.973   0.127  15.598 -2.4899  0.4794 -2.6700
19676TIP3   OH280518   4.698   3.610   5.198  0.1758 -0.4457 -0.1641
19676TIP3    H180519   4.658   3.696   5.190 -1.4885 -0.9317  2.0413
19676TIP3    H280520   4.646   3.554   5.140 -0.5898 -0.5081  0.5661
19677TIP3   OH280521   4.553   1.425  11.592  0.0922  0.3059 -0.3829
19677TIP3    H180522   4.643   1.426  11.559  0.4069 -0.1619  0.4334
19677TIP3    H280523   4.512   1.350  11.549  0.6064 -0.5173  0.5423
19678TIP3   OH280524   0.427   2.485  14.463 -0.0715 -0.1797  1.0180
19678TIP3    H180525   0.392   2.498  14.375  1.8038 -1.7766 -0.0419
19678TIP3    H280526   0.478   2.404  14.457  1.9085  0.8033  3.0148
19679TIP3   OH280527   4.393   1.173  12.936 -0.0192  0.5134  0.8859
19679TIP3    H180528   4.427   1.211  12.855 -1.0237 -0.8927 -0.2446
19679TIP3    H280529   4.456   1.104  12.958 -1.6568 -1.6772 -0.8701
19680TIP3   OH280530   6.522   6.304   0.580 -0.3718 -0.3420  0.2970
19680TIP3    H180531   6.499   6.214   0.605 -0.0447 -1.1637 -2.1127
19680TIP3    H280532   6.617   6.301   0.568 -0.5162 -0.0324 -1.0237
19681TIP3   OH280533   5.082   4.470  15.935  0.2384 -0.0232  0.3195
19681TIP3    H180534   5.128   4.553  15.935 -1.7646  1.1660 -0.1410
19681TIP3    H280535   5.118   4.421  16.008  2.5093  0.6142 -0.3131
19682TIP3   OH280536   2.694   5.117  17.156  0.4186 -0.4911  0.2621
19682TIP3    H180537   2.688   5.117  17.060  0.4814  1.7133  0.2039
19682TIP3    H280538   2.712   5.208  17.178  0.7376 -1.0287  2.3710
19683TIP3   OH280539   6.385   5.235  12.686 -0.3850  0.4859  0.4576
19683TIP3    H180540   6.475   5.242  12.718 -0.1805 -0.7007  0.1707
19683TIP3    H280541   6.360   5.144  12.702 -1.2668  0.5994 -0.1899
19684TIP3   OH280542   2.754   0.130   0.214  0.1816  0.1758  0.4325
19684TIP3    H180543   2.787   0.042   0.229  2.0679  1.1993  2.9996
19684TIP3    H280544   2.664   0.128   0.249 -0.6830 -1.2110 -1.6256
19685TIP3   OH280545   0.747   2.990   2.700  0.2476 -0.4201 -0.1655
19685TIP3    H180546   0.803   3.059   2.664 -0.2339  0.1510  0.1596
19685TIP3    H280547   0.799   2.911   2.694  1.7030  0.3408  1.5533
19686TIP3   OH280548   4.418   2.156  13.929 -0.7442 -0.0264  0.3836
19686TIP3    H180549   4.354   2.086  13.941 -1.5221  0.8990  1.9663
19686TIP3    H280550   4.493   2.131  13.984 -0.9809  0.3024  0.8698
19687TIP3   OH280551   6.291   5.197   2.729 -0.7363 -0.3422  0.1466
19687TIP3    H180552   6.248   5.190   2.644 -0.4838 -3.3255  0.1611
19687TIP3    H280553   6.335   5.112   2.741  0.5481  0.5587  2.5675
19688TIP3   OH280554   1.322   2.930   3.387  0.0504  1.0437 -0.2817
19688TIP3    H180555   1.285   2.890   3.465 -0.5745  0.4371 -0.8779
19688TIP3    H280556   1.395   2.983   3.420  0.4426 -0.0083  0.5996
19689TIP3   OH280557   4.619   1.216   2.718  0.3152  0.1665 -0.1611
19689TIP3    H180558   4.524   1.208   2.716  0.1268  0.6367  2.5683
19689TIP3    H280559   4.638   1.295   2.669 -1.1741  2.3193  2.4593
19690TIP3   OH280560   3.301   6.686  13.935  0.4471  0.2258 -0.2514
19690TIP3    H180561   3.337   6.611  13.887  0.1086  1.0119 -1.7902
19690TIP3    H280562   3.307   6.759  13.874 -1.7538  0.8591  0.2049
19691TIP3   OH280563   0.783   1.490   4.604  0.2803 -0.7582 -0.2344
19691TIP3    H180564   0.709   1.490   4.543  1.5529 -0.9849 -1.8525
19691TIP3    H280565   0.846   1.551   4.565  0.5995  0.1525  1.5873
19692TIP3   OH280566   3.055   6.018  11.975  0.2193  0.2470  0.3618
19692TIP3    H180567   3.104   6.099  11.986 -1.2819  1.2428 -0.0388
19692TIP3    H280568   3.027   6.019  11.884  2.2537 -1.9864 -0.4222
19693TIP3   OH280569   3.142   6.463  11.859 -0.5940 -0.2038 -0.6079
19693TIP3    H180570   3.218   6.475  11.917 -0.7351 -2.3069  0.0983
19693TIP3    H280571   3.109   6.551  11.845  1.9247  0.7947 -0.8750
19694TIP3   OH280572   0.843   0.360   1.155 -0.3455  0.4017 -0.4225
19694TIP3    H180573   0.927   0.401   1.131 -0.0681  0.3651  0.4386
19694TIP3    H280574   0.860   0.321   1.241 -0.8417 -0.8440 -0.8713
19695TIP3   OH280575   3.416   4.488  10.820  0.6500  0.2833  0.3240
19695TIP3    H180576   3.480   4.536  10.768 -0.7795  1.8932 -0.0331
19695TIP3    H280577   3.332   4.506  10.778 -0.1293 -1.4056  1.0387
19696TIP3   OH280578   6.441   3.955  13.732  0.0827 -0.4110 -0.3538
19696TIP3    H180579   6.391   3.877  13.756  1.7324 -1.5013 -0.3188
19696TIP3    H280580   6.387   3.999  13.667 -1.1632 -1.2427  0.0796
19697TIP3   OH280581   3.205   1.395  14.071 -0.1228  0.4392 -0.3788
19697TIP3    H180582   3.214   1.406  13.976 -0.3600  0.4395 -0.4018
19697TIP3    H280583   3.291   1.418  14.106 -0.7473  3.1232 -0.3664
19698TIP3   OH280584   4.983   3.349   2.677 -0.4886 -0.2409 -0.1367
19698TIP3    H180585   4.898   3.314   2.707  0.0357 -0.0249  1.7233
19698TIP3    H280586   5.046   3.282   2.704 -0.0111 -0.2045 -1.1446
19699TIP3   OH280587   6.128   4.180   6.216  0.0289  0.0874  0.4517
19699TIP3    H180588   6.053   4.126   6.192  0.9804 -0.4678 -1.4525
19699TIP3    H280589   6.189   4.120   6.258  0.6172 -0.1203 -0.6628
19700TIP3   OH280590   1.674   2.203  16.304  0.3881 -0.0787  0.3793
19700TIP3    H180591   1.586   2.166  16.298  0.7044 -0.7583 -0.1772
19700TIP3    H280592   1.684   2.254  16.223  0.7060 -0.4390  0.1934
19701TIP3   OH280593   2.039   6.109   1.016 -0.0339 -0.1333 -0.4092
19701TIP3    H180594   2.107   6.161   1.059  0.6779 -2.2109  1.1301
19701TIP3    H280595   2.075   6.092   0.929  0.0574  1.2417 -0.6670
19702TIP3   OH280596   5.901   3.402   3.461 -0.2062 -0.2877  0.3688
19702TIP3    H180597   5.837   3.473   3.467 -0.5904 -0.5047 -0.8962
19702TIP3    H280598   5.848   3.325   3.441  0.4577 -0.4463 -0.8238
19703TIP3   OH280599   6.641   5.109  12.176  0.6112 -0.8198  0.8850
19703TIP3    H180600   6.644   5.198  12.138 -0.3393 -1.1861 -0.1170
19703TIP3    H280601   6.659   5.051  12.102 -0.1115 -1.5169  1.2426
19704TIP3   OH280602   5.049   0.437   3.758  0.7857 -0.1251  0.0340
19704TIP3    H180603   4.971   0.401   3.717  1.2716 -0.1641 -0.8701
19704TIP3    H280604   5.016   0.488   3.832 -0.2992  1.8861 -1.7299
19705TIP3   OH280605   2.351   0.613  12.827  0.6779  0.3503 -0.4627
19705TIP3    H180606   2.282   0.671  12.794 -0.3092 -0.5626 -0.0318
19705TIP3    H280607   2.354   0.631  12.921 -0.3278 -0.9761 -0.1479
19706TIP3   OH280608   2.982   1.817  15.544 -0.4013  0.1252 -0.0961
19706TIP3    H180609   2.939   1.809  15.629  0.6650  3.1530  0.8562
19706TIP3    H280610   3.033   1.736  15.536 -1.4524 -0.7615  1.5808
19707TIP3   OH280611   1.900   1.438   4.728  0.3538  0.0229  0.0789
19707TIP3    H180612   1.866   1.357   4.691  1.4976 -0.8640  0.9028
19707TIP3    H280613   1.899   1.424   4.823  0.1713  1.1395  0.2648
19708TIP3   OH280614   6.558   6.502  12.867 -0.3752 -0.0289  0.2361
19708TIP3    H180615   6.522   6.559  12.934  0.5946 -1.3066  1.9445
19708TIP3    H280616   6.646   6.537  12.851 -0.8729  0.7316 -0.9968
19709TIP3   OH280617   3.277   5.643   3.817 -0.4007  0.2326 -0.0240
19709TIP3    H180618   3.240   5.710   3.875 -0.6646 -0.2736  0.3983
19709TIP3    H280619   3.336   5.592   3.873 -0.5931 -0.2113 -0.2197
19710TIP3   OH280620   2.054   5.108   5.242 -0.4590  0.5427  0.5169
19710TIP3    H180621   2.079   5.187   5.195  0.1685 -0.3103 -0.6489
19710TIP3    H280622   2.048   5.040   5.174 -0.6023 -0.4981  1.5273
19711TIP3   OH280623   2.487   5.136  11.096 -0.3653 -0.2354 -0.0889
19711TIP3    H180624   2.412   5.132  11.155 -0.4848  1.6394 -0.0485
19711TIP3    H280625   2.542   5.206  11.132  1.3594 -1.4667 -0.2000
19712TIP3   OH280626   6.501   6.727   2.509 -0.7904 -0.0069 -0.5972
19712TIP3    H180627   6.406   6.738   2.520 -0.6001  0.1521  1.3693
19712TIP3    H280628   6.512   6.701   2.418 -2.7656 -0.4420 -0.7679
19713TIP3   OH280629   4.297   5.896   2.341 -0.2969 -0.3583 -0.2717
19713TIP3    H180630   4.211   5.866   2.312 -0.1163 -0.4284 -0.7319
19713TIP3    H280631   4.336   5.938   2.264 -0.8034  1.6627  0.4879
19714TIP3   OH280632   6.679   6.241   6.005  0.0447  0.1200  0.0391
19714TIP3    H180633   6.691   6.163   6.059 -0.6515 -0.0929 -0.0988
19714TIP3    H280634   6.636   6.304   6.063 -0.2132  0.0817 -0.1097
19715TIP3   OH280635   4.783   0.039  12.562  0.5114 -0.7684 -0.2353
19715TIP3    H180636   4.718   0.034  12.632 -0.9094 -0.9292 -1.5010
19715TIP3    H280637   4.778   0.130  12.532  1.6431 -0.5074  0.3449
19716TIP3   OH280638   2.972   5.789  15.532  0.6710 -0.6009 -0.3941
19716TIP3    H180639   2.967   5.861  15.469  0.2977 -0.7199 -0.5009
19716TIP3    H280640   2.978   5.832  15.618 -0.5048 -0.4366 -0.3807
19717TIP3   OH280641   3.999   1.315   3.377 -0.4202  0.4400 -0.4177
19717TIP3    H180642   3.990   1.328   3.283  0.5770  0.3656 -0.5316
19717TIP3    H280643   4.002   1.404   3.413 -0.4789  0.4700 -0.4861
19718TIP3   OH280644   1.831   5.575   1.250 -0.0215 -0.1786  0.4378
19718TIP3    H180645   1.871   5.492   1.275  0.3423 -0.5726 -1.3235
19718TIP3    H280646   1.750   5.579   1.302  0.3003 -1.2779  1.0643
19719TIP3   OH280647   0.744   2.248   2.358 -0.1112  0.2271  0.1189
19719TIP3    H180648   0.745   2.166   2.310  0.0039 -0.2898  0.9924
19719TIP3    H280649   0.768   2.314   2.293  0.8057 -0.5577 -0.3495
19720TIP3   OH280650   2.908   1.976  14.497 -0.7955 -0.1244  0.5891
19720TIP3    H180651   2.899   1.902  14.557 -1.0281 -1.5166 -1.0950
19720TIP3    H280652   2.989   1.958  14.449 -2.5142 -1.1141 -2.1470
19721TIP3   OH280653   5.344   0.294   0.149  0.0053  0.4528 -0.2950
19721TIP3    H180654   5.357   0.211   0.196 -0.3964  0.2355 -0.5628
19721TIP3    H280655   5.251   0.296   0.130 -0.5241  2.2689  2.0851
19722TIP3   OH280656   2.220   5.980  11.014  0.4943 -0.2820 -0.0342
19722TIP3    H180657   2.312   5.978  10.989  0.6806 -0.3162  0.6351
19722TIP3    H280658   2.193   5.888  11.009  0.3003 -0.1837 -0.9188
19723TIP3   OH280659   1.763   3.792   2.666 -0.0289 -0.6119 -0.2462
19723TIP3    H180660   1.826   3.862   2.682  1.3682 -1.7262 -0.6755
19723TIP3    H280661   1.719   3.779   2.750  0.4485  0.0592  0.1143
19724TIP3   OH280662   0.267   6.024  11.766 -0.6964  0.1937  0.0770
19724TIP3    H180663   0.228   6.054  11.684 -0.0325 -0.0149 -0.3256
19724TIP3    H280664   0.311   5.942  11.744  0.1938  0.5559  0.4386
19725TIP3   OH280665   6.086   2.707  12.687 -0.2766 -0.0320  0.7943
19725TIP3    H180666   6.081   2.632  12.627 -0.6759 -0.8256  1.7898
19725TIP3    H280667   5.999   2.710  12.727 -1.3027  2.7724 -1.3121
19726TIP3   OH280668   1.271   1.572  16.403  0.3818  0.2174  0.1554
19726TIP3    H180669   1.321   1.491  16.391  1.5586  0.8129  0.8413
19726TIP3    H280670   1.183   1.542  16.424  0.6288 -0.8761 -0.2576
19727TIP3   OH280671   1.130   3.218   4.567 -0.6869  0.0341 -0.1323
19727TIP3    H180672   1.160   3.274   4.639 -0.3834 -2.3078  1.6775
19727TIP3    H280673   1.189   3.143   4.569 -2.0080 -1.0844 -1.4549
19728TIP3   OH280674   5.178   1.080  17.216 -0.5405  0.9416  1.0708
19728TIP3    H180675   5.268   1.103  17.192 -0.3728  0.1639  0.9202
19728TIP3    H280676   5.124   1.113  17.143 -0.0719 -1.0717 -0.2856
19729TIP3   OH280677   4.341   6.605   5.294  0.4834 -0.0327 -0.2437
19729TIP3    H180678   4.257   6.630   5.254 -0.2064 -1.2133  0.4146
19729TIP3    H280679   4.403   6.605   5.222  0.0546  1.4082 -0.6478
19730TIP3   OH280680   4.721   0.414  11.407 -0.4781  0.3301 -0.2615
19730TIP3    H180681   4.814   0.411  11.429 -0.0842 -1.8953 -1.8866
19730TIP3    H280682   4.679   0.358  11.472 -0.6422  0.9720  0.1966
19731TIP3   OH280683   4.656   4.644   3.546  0.0274  0.0219 -0.2460
19731TIP3    H180684   4.719   4.606   3.608 -1.0066 -1.3397  0.0397
19731TIP3    H280685   4.586   4.678   3.602 -1.6145 -2.4954 -0.5980
19732TIP3   OH280686   1.795   2.107   1.574  0.2326  0.1431 -0.5021
19732TIP3    H180687   1.713   2.112   1.524 -0.3553  2.2618  0.5572
19732TIP3    H280688   1.767   2.098   1.665  1.2842 -2.8315 -0.3670
19733TIP3   OH280689   5.092   6.170   0.050  0.0762  0.1607  0.2808
19733TIP3    H180690   4.999   6.190   0.053  0.1737  0.5720  2.1697
19733TIP3    H280691   5.096   6.074   0.053 -0.2872  0.0929 -1.0759
19734TIP3   OH280692   4.505   0.563   2.853  0.7178 -0.1363 -0.5312
19734TIP3    H180693   4.510   0.525   2.941 -0.1882 -0.4448 -0.5989
19734TIP3    H280694   4.595   0.562   2.821  1.0067 -0.3366  0.2613
19735TIP3   OH280695   5.401   6.244  14.007 -0.2714  0.0004  0.2984
19735TIP3    H180696   5.427   6.203  14.089  0.0651  0.6456  0.5246
19735TIP3    H280697   5.479   6.292  13.979 -0.3160 -0.3874 -0.5109
19736TIP3   OH280698   1.526   1.386   2.975 -0.4885 -0.5781  0.1321
19736TIP3    H180699   1.555   1.463   3.024  1.2231 -0.7544 -0.5360
19736TIP3    H280700   1.592   1.320   2.992 -1.7375 -1.8010  0.3775
19737TIP3   OH280701   0.479   2.626   0.481  0.5593 -0.0152  0.0349
19737TIP3    H180702   0.552   2.594   0.428  0.2790  0.7152 -0.8229
19737TIP3    H280703   0.447   2.702   0.433  0.4995  0.8706  1.4318
19738TIP3   OH280704   0.384   6.287   3.351 -0.1568 -0.2187 -0.4716
19738TIP3    H180705   0.442   6.211   3.345  1.3140  0.7047  1.2247
19738TIP3    H280706   0.381   6.308   3.444 -2.3675  0.4669 -0.6376
19739TIP3   OH280707   4.887   0.324   3.347 -0.2959 -0.4542 -0.2527
19739TIP3    H180708   4.919   0.243   3.388 -0.2425 -0.0435  0.5309
19739TIP3    H280709   4.931   0.327   3.262 -0.1365 -1.1427 -0.1995
19740TIP3   OH280710   6.104   1.847   4.998  0.1194  0.2466 -0.4812
19740TIP3    H180711   6.113   1.753   5.012  1.7038  0.2060 -1.4837
19740TIP3    H280712   6.195   1.879   4.992 -0.3951  1.7022 -0.9729
19741TIP3   OH280713   6.406   5.894  16.920 -0.6914  0.2147  0.2848
19741TIP3    H180714   6.335   5.859  16.866 -2.5435 -0.5519  3.0062
19741TIP3    H280715   6.485   5.854  16.884 -1.9095 -0.8446 -1.3730
19742TIP3   OH280716   2.031   1.718  11.557  0.0113 -0.0124 -0.0742
19742TIP3    H180717   2.112   1.769  11.553  0.1892 -0.3052 -0.2008
19742TIP3    H280718   1.987   1.737  11.473  0.5960 -0.9203 -0.6030
19743TIP3   OH280719   1.870   3.874  13.032 -0.0904 -0.1361 -0.3267
19743TIP3    H180720   1.949   3.890  12.981  0.0026  1.5815  0.3015
19743TIP3    H280721   1.816   3.952  13.017 -0.4786 -0.0418  1.4056
19744TIP3   OH280722   5.823   2.700   2.009 -0.4720 -0.1792 -0.3122
19744TIP3    H180723   5.874   2.763   1.960 -0.1659 -1.6044 -1.9146
19744TIP3    H280724   5.844   2.718   2.101 -0.0021  1.6627 -0.7450
19745TIP3   OH280725   4.986   1.131  13.593 -0.0900  0.5392  0.0922
19745TIP3    H180726   4.948   1.046  13.618  1.6617 -0.2796  0.1356
19745TIP3    H280727   5.021   1.117  13.506 -2.4097  2.1545 -1.2055
19746TIP3   OH280728   5.811   0.104   0.456  0.1722 -0.2331  0.1281
19746TIP3    H180729   5.868   0.042   0.502 -0.3646 -0.8615 -0.0378
19746TIP3    H280730   5.850   0.190   0.473  1.7044 -0.7167 -0.7539
19747TIP3   OH280731   2.973   5.837   3.069 -0.1650  0.0053 -0.5378
19747TIP3    H180732   2.879   5.839   3.088 -0.0429 -0.5833  0.1827
19747TIP3    H280733   2.995   5.744   3.064  0.3385  0.1403 -0.9474
19748TIP3   OH280734   1.862   6.648  14.916  0.2013 -0.5218  0.0634
19748TIP3    H180735   1.875   6.739  14.887 -0.9873 -0.3411  0.0482
19748TIP3    H280736   1.924   6.597  14.863  1.8644  0.4172  1.0380
19749TIP3   OH280737   5.163   6.130   3.182 -0.2646 -0.1235  0.5241
19749TIP3    H180738   5.102   6.123   3.109 -0.0966 -3.3082  0.5618
19749TIP3    H280739   5.213   6.210   3.164 -2.5140  1.0604 -0.9556
19750TIP3   OH280740   6.820   2.851  12.463 -0.0281  0.6811 -0.0115
19750TIP3    H180741   6.820   2.918  12.532 -0.9215 -0.5706  1.2812
19750TIP3    H280742   6.738   2.864  12.416 -2.2123 -1.7983  2.7339
19751TIP3   OH280743   4.238   5.893   4.012  0.0156  0.0079  0.3720
19751TIP3    H180744   4.184   5.850   3.946  1.2984 -0.2578 -0.5593
19751TIP3    H280745   4.218   5.986   4.003 -0.2386 -0.0815 -0.0000
19752TIP3   OH280746   4.969   2.557   2.765  0.0939  0.5799 -0.3340
19752TIP3    H180747   4.939   2.566   2.674 -0.1886  0.8050 -0.2214
19752TIP3    H280748   4.955   2.644   2.803 -0.4356  0.3055  0.1180
19753TIP3   OH280749   6.571   3.213  13.992 -0.4807  0.0086  0.6791
19753TIP3    H180750   6.604   3.137  13.944  1.3836  1.3599 -0.3436
19753TIP3    H280751   6.550   3.180  14.079 -0.8593 -1.8835 -0.0874
19754TIP3   OH280752   5.041   1.205  16.994 -0.1508  0.0406 -0.3250
19754TIP3    H180753   4.977   1.179  16.928 -0.3992  1.5180 -0.7137
19754TIP3    H280754   5.125   1.200  16.948 -0.2197  0.1596 -0.4647
19755TIP3   OH280755   0.240   0.796   3.079 -0.1906  0.0917  0.0284
19755TIP3    H180756   0.243   0.869   3.018  0.3652 -1.0643 -1.3667
19755TIP3    H280757   0.304   0.819   3.147  1.4729  0.0163 -1.4418
19756TIP3   OH280758   6.544   3.700   4.341  0.1232  0.4116  0.3713
19756TIP3    H180759   6.627   3.668   4.307 -0.3561  0.1840 -0.6349
19756TIP3    H280760   6.478   3.660   4.284 -0.6650  0.7284  1.0386
19757TIP3   OH280761   3.531   4.742  13.048  0.4895 -0.2868  0.5525
19757TIP3    H180762   3.473   4.748  12.972  0.8665 -1.3292  0.1698
19757TIP3    H280763   3.537   4.648  13.067  0.8178 -0.0801  1.5496
19758TIP3   OH280764   2.054   3.209   6.094 -0.2058 -0.0418  0.1271
19758TIP3    H180765   2.061   3.151   6.169 -1.4920 -1.3488 -0.6963
19758TIP3    H280766   2.128   3.185   6.038 -0.5922 -0.7649 -0.0957
19759TIP3   OH280767   3.378   5.589  12.581 -0.5105  0.1240 -0.5749
19759TIP3    H180768   3.337   5.636  12.653 -2.1416 -0.8181 -0.8458
19759TIP3    H280769   3.420   5.657  12.529 -1.3714  1.0794 -0.0605
19760TIP3   OH280770   6.467   6.420   6.103  0.3416 -0.0019  0.1930
19760TIP3    H180771   6.536   6.405   6.168  1.8788  2.8349 -0.6173
19760TIP3    H280772   6.397   6.462   6.152  0.9472  0.9087  0.3106
19761TIP3   OH280773   1.692   0.666   0.091 -0.0426 -0.5881  0.2690
19761TIP3    H180774   1.713   0.729   0.161 -0.5155 -0.8633  0.6621
19761TIP3    H280775   1.706   0.715   0.010  2.6828 -0.8962  0.4528
19762TIP3   OH280776   4.702   2.440  13.243 -0.0688  0.3663  0.1075
19762TIP3    H180777   4.686   2.496  13.166  2.2693  1.4516  0.3146
19762TIP3    H280778   4.795   2.452  13.262 -0.2970 -0.8858  2.3569
19763TIP3   OH280779   1.347   1.913  14.889 -0.0482 -0.3725 -0.7730
19763TIP3    H180780   1.263   1.947  14.859 -0.8179  0.5911  2.1645
19763TIP3    H280781   1.336   1.818  14.887 -0.9817 -0.2691 -0.9522
19764TIP3   OH280782   3.079   6.713   2.408 -0.3525  0.2332  0.0932
19764TIP3    H180783   3.101   6.793   2.455 -1.8371 -0.0287  1.3454
19764TIP3    H280784   3.009   6.739   2.347  0.3462  0.2096 -0.7434
19765TIP3   OH280785   1.808   6.813   4.998 -0.0713 -0.5162 -0.8975
19765TIP3    H180786   1.758   6.868   5.059  0.3524 -0.3040 -0.7420
19765TIP3    H280787   1.741   6.762   4.953 -0.3394 -1.7954  0.8199
19766TIP3   OH280788   0.889   1.247  11.656 -0.1737 -0.2494 -0.1385
19766TIP3    H180789   0.831   1.172  11.642 -1.1026  0.0540  1.8316
19766TIP3    H280790   0.867   1.279  11.743  2.3130  0.4761  0.3003
19767TIP3   OH280791   1.848   3.832   3.332  0.4756  0.2076  0.1018
19767TIP3    H180792   1.803   3.842   3.248  0.9461 -0.2165 -0.2098
19767TIP3    H280793   1.840   3.918   3.374 -0.3426  0.2243 -0.0820
19768TIP3   OH280794   0.274   5.427   2.772  0.1829  0.3298  0.0801
19768TIP3    H180795   0.292   5.460   2.684 -0.6347  0.3147 -0.0973
19768TIP3    H280796   0.222   5.349   2.759  1.7773 -0.8651  0.5215
19769TIP3   OH280797   0.155   2.692   3.523 -0.1538 -0.8393  0.1171
19769TIP3    H180798   0.146   2.611   3.573 -0.1726 -2.0404 -1.7162
19769TIP3    H280799   0.213   2.746   3.576  0.2043 -2.2231  1.2074
19770TIP3   OH280800   0.165   3.287   1.552 -0.4807 -0.5730  0.1099
19770TIP3    H180801   0.152   3.345   1.478 -1.5175 -1.1467 -0.1901
19770TIP3    H280802   0.214   3.213   1.517 -1.8570 -1.3312 -0.2802
19771TIP3   OH280803   2.074   0.808  13.521  0.2064  0.0331 -0.1620
19771TIP3    H180804   2.164   0.838  13.532  0.6357 -0.7685 -1.2800
19771TIP3    H280805   2.022   0.864  13.578  1.4230  0.4615  0.5476
19772TIP3   OH280806   4.593   2.263  16.393 -0.1873  0.5878 -0.5761
19772TIP3    H180807   4.600   2.316  16.472 -1.1256  1.1349 -0.8423
19772TIP3    H280808   4.673   2.282  16.344  0.3613  0.3064  0.1893
19773TIP3   OH280809   1.808   6.751   0.939 -0.0362  1.3341  0.1522
19773TIP3    H180810   1.781   6.678   0.994 -1.9788  0.0131 -2.3537
19773TIP3    H280811   1.902   6.738   0.926 -0.4357 -1.2263 -0.7892
19774TIP3   OH280812   2.892   3.424   3.162  0.1351  0.5000  0.9945
19774TIP3    H180813   2.853   3.436   3.249 -0.4213 -1.9361  1.1510
19774TIP3    H280814   2.977   3.466   3.168 -0.5356  1.7816  2.1860
19775TIP3   OH280815   2.476   5.912  13.789  0.2169  0.2687 -0.6136
19775TIP3    H180816   2.478   5.869  13.704  0.2571 -1.1698  0.0873
19775TIP3    H280817   2.540   5.864  13.842 -0.8609  0.1794  0.6578
19776TIP3   OH280818   4.164   4.623  10.269 -0.4714  0.1483 -0.2905
19776TIP3    H180819   4.203   4.563  10.205  0.4424  1.9321 -1.4880
19776TIP3    H280820   4.228   4.630  10.339  0.1288  0.8758 -0.8919
19777TIP3   OH280821   4.236   6.245   4.810  0.5862 -0.2289  0.6628
19777TIP3    H180822   4.195   6.316   4.762 -0.1791 -1.0026  0.1427
19777TIP3    H280823   4.175   6.172   4.802  2.2015 -1.5519 -0.5026
19778TIP3   OH280824   1.484   2.630  13.750 -0.1972  1.1933 -0.4746
19778TIP3    H180825   1.566   2.667  13.783  0.7172 -0.0943 -1.1957
19778TIP3    H280826   1.500   2.616  13.656  0.1311 -2.3466 -0.0363
19779TIP3   OH280827   3.498   1.791  15.817  0.1437 -0.0220 -0.2934
19779TIP3    H180828   3.496   1.756  15.906  1.1739  1.2612  0.2578
19779TIP3    H280829   3.424   1.851  15.812 -0.7642 -1.1444 -0.7831
19780TIP3   OH280830   4.584   6.630   3.722  0.7723  0.3080 -0.1189
19780TIP3    H180831   4.656   6.611   3.782  0.4529  0.7862  0.4277
19780TIP3    H280832   4.620   6.693   3.660  0.5348  1.3540  0.7841
19781TIP3   OH280833   0.490   5.349   6.782  0.5184  0.8511  0.2408
19781TIP3    H180834   0.460   5.263   6.752  0.5323  0.9726 -0.1226
19781TIP3    H280835   0.569   5.366   6.730 -0.0884  1.5620 -0.4575
19782TIP3   OH280836   5.389   5.420   3.721  0.4727 -0.4168 -0.0180
19782TIP3    H180837   5.433   5.358   3.663  0.2498 -0.3268 -0.2838
19782TIP3    H280838   5.411   5.389   3.809  1.0806 -0.3563 -0.1461
19783TIP3   OH280839   6.685   3.824  13.055  0.0049  0.4577 -0.0221
19783TIP3    H180840   6.697   3.760  13.126 -1.8437  0.5254  0.3877
19783TIP3    H280841   6.729   3.784  12.979  0.4222 -0.4598  0.6828
19784TIP3   OH280842   6.497   3.807   2.786  0.0636  0.2645 -0.2149
19784TIP3    H180843   6.535   3.781   2.870  2.1446  0.8060 -0.9281
19784TIP3    H280844   6.415   3.759   2.781  0.0911 -0.0935  1.9417
19785TIP3   OH280845   3.988   3.010  13.963  0.1189  0.0971  0.2863
19785TIP3    H180846   3.997   2.950  14.038 -0.2483 -0.1974  0.0988
19785TIP3    H280847   4.048   2.974  13.897 -2.7234 -2.3180 -1.2568
19786TIP3   OH280848   3.073   2.723   6.254  0.0522 -0.7338 -0.4759
19786TIP3    H180849   3.162   2.724   6.289 -0.3650  0.5276  0.6185
19786TIP3    H280850   3.033   2.647   6.296  0.4250 -0.9491 -0.4977
19787TIP3   OH280851   3.325   6.184  14.177  0.1263 -0.0101 -0.2711
19787TIP3    H180852   3.258   6.131  14.135 -1.0200  1.4962 -0.4213
19787TIP3    H280853   3.311   6.173  14.271 -1.2555  1.3404 -0.2797
19788TIP3   OH280854   3.133   2.106   4.520 -0.0208  0.1154 -0.7729
19788TIP3    H180855   3.135   2.198   4.495  0.0600  1.4282  3.2692
19788TIP3    H280856   3.040   2.084   4.523 -0.3172  1.2858  1.5012
19789TIP3   OH280857   6.009   6.257   6.939 -0.2127 -0.0046 -0.3776
19789TIP3    H180858   6.043   6.168   6.931  0.6466  0.2939 -0.0940
19789TIP3    H280859   5.999   6.287   6.849  0.6399  0.0402 -0.4618
19790TIP3   OH280860   0.562   5.817  13.190 -0.0989 -0.1972  0.5890
19790TIP3    H180861   0.533   5.796  13.279  0.0139 -0.0343  0.6659
19790TIP3    H280862   0.557   5.913  13.186  0.2689 -0.1794  0.5499
19791TIP3   OH280863   3.510   4.500  12.267  0.0889  0.0084  0.5064
19791TIP3    H180864   3.528   4.534  12.355 -1.2922 -1.4213  1.3832
19791TIP3    H280865   3.473   4.575  12.220  0.6858  0.7464  1.1783
19792TIP3   OH280866   0.920   5.588   2.860  0.3666  0.4427  0.5500
19792TIP3    H180867   0.889   5.618   2.945 -1.1584 -1.5414  0.7701
19792TIP3    H280868   1.014   5.573   2.872 -0.0572 -1.1882  2.3668
19793TIP3   OH280869   6.730   3.982   0.205  0.2981  0.5732 -0.1311
19793TIP3    H180870   6.807   3.925   0.208 -1.2367 -1.6344 -0.7520
19793TIP3    H280871   6.694   3.969   0.117 -2.1957 -0.4678  0.9427
19794TIP3   OH280872   5.655   6.811   4.187 -0.0239 -0.5469  0.0762
19794TIP3    H180873   5.634   6.849   4.272  1.0235 -0.6875  0.4094
19794TIP3    H280874   5.598   6.734   4.180 -0.0915 -0.5492  0.6619
19795TIP3   OH280875   0.246   3.888   0.847  0.0644 -0.4083 -0.4774
19795TIP3    H180876   0.154   3.888   0.822 -0.4123 -0.3817  1.1798
19795TIP3    H280877   0.245   3.879   0.942  1.7407  0.9042 -0.2982
19796TIP3   OH280878   2.356   1.235  14.070 -0.5976 -0.3193 -0.1711
19796TIP3    H180879   2.371   1.300  14.139  0.1006  1.3854 -1.8427
19796TIP3    H280880   2.283   1.271  14.019  1.6582  0.8192 -2.8815
19797TIP3   OH280881   4.790   0.105   2.751  0.1144  0.1778  0.1041
19797TIP3    H180882   4.855   0.062   2.806  1.5692  2.3204  0.1635
19797TIP3    H280883   4.707   0.092   2.798  0.6527 -1.5204  0.6583
19798TIP3   OH280884   2.406   1.496   3.580 -0.6188 -0.5956 -0.0035
19798TIP3    H180885   2.428   1.403   3.576 -0.8111 -0.6516  0.2072
19798TIP3    H280886   2.345   1.503   3.654 -0.1184 -0.2063  0.3792
19799TIP3   OH280887   6.453   0.491   5.195  0.2514 -0.1223 -0.2480
19799TIP3    H180888   6.445   0.434   5.272  0.4108  1.5025  1.0453
19799TIP3    H280889   6.363   0.512   5.172  0.1473 -1.6497 -1.3706
19800TIP3   OH280890   5.637   4.625  11.517  0.2330  0.1092  0.2133
19800TIP3    H180891   5.613   4.558  11.453 -1.7206 -0.3261  1.3041
19800TIP3    H280892   5.616   4.708  11.474  0.5211 -0.0910 -0.3154
19801TIP3   OH280893   4.099   1.939  12.276 -0.0589  0.0280 -0.7535
19801TIP3    H180894   4.096   1.988  12.194  1.1687 -1.9885 -2.0844
19801TIP3    H280895   4.166   1.872  12.262  0.8066  0.1118  2.1994
19802TIP3   OH280896   5.239   1.175   4.072 -0.2645 -0.5762  0.2917
19802TIP3    H180897   5.198   1.254   4.037  2.0775  0.8587  0.5180
19802TIP3    H280898   5.278   1.132   3.995 -0.7667 -1.0220  0.2857
19803TIP3   OH280899   3.937   1.664   1.505 -0.4155  0.4786 -0.1296
19803TIP3    H180900   4.002   1.671   1.574 -1.6136 -1.5684  1.3241
19803TIP3    H280901   3.905   1.753   1.492 -0.0020  0.9496  1.8065
19804TIP3   OH280902   6.063   1.191   4.175 -0.0732 -0.2504 -0.4027
19804TIP3    H180903   6.133   1.128   4.157 -1.1199 -1.0032 -2.0582
19804TIP3    H280904   6.046   1.182   4.269  1.1343 -1.0048 -0.2372
19805TIP3   OH280905   1.011   5.918   3.459  0.0121 -0.2665  0.7472
19805TIP3    H180906   0.984   5.839   3.414 -0.3746  0.6900 -0.7766
19805TIP3    H280907   0.943   5.933   3.525 -1.7917  0.6217 -1.2295
19806TIP3   OH280908   6.183   5.704  17.016  0.3281 -0.4319  0.4073
19806TIP3    H180909   6.181   5.758  16.936  2.0875 -0.0464  0.5784
19806TIP3    H280910   6.249   5.637  16.998 -0.0261 -0.9892  1.1518
19807TIP3   OH280911   4.753   0.398   2.206  0.1525 -0.4378 -0.0293
19807TIP3    H180912   4.691   0.468   2.224  1.7260  1.2747 -0.8256
19807TIP3    H280913   4.716   0.351   2.132 -0.9933 -0.5359  0.5946
19808TIP3   OH280914   5.904   5.469   0.374 -0.3053  0.0812  0.9141
19808TIP3    H180915   5.810   5.456   0.382 -0.4195  0.8871  1.0591
19808TIP3    H280916   5.922   5.461   0.281 -0.6098  0.4157  0.8230
19809TIP3   OH280917   2.460   4.814   3.809 -0.1015  0.4931 -0.8126
19809TIP3    H180918   2.415   4.745   3.761  0.7874 -0.9012  0.2630
19809TIP3    H280919   2.390   4.862   3.854 -0.6479 -0.7767 -0.2516
19810TIP3   OH280920   6.372   4.069   2.140  0.2632  0.3314  0.0786
19810TIP3    H180921   6.455   4.028   2.161 -0.1005 -0.2820  0.3414
19810TIP3    H280922   6.372   4.150   2.190  0.6687  0.2965  0.1389
19811TIP3   OH280923   6.014   1.053   1.519  0.0895 -0.2897 -0.3755
19811TIP3    H180924   6.036   1.093   1.435  2.0612  1.8751  1.0373
19811TIP3    H280925   5.938   1.102   1.550 -0.4961 -0.9359 -0.7589
19812TIP3   OH280926   3.515   6.748  10.927 -0.1579  0.6191  0.4464
19812TIP3    H180927   3.538   6.676  10.868 -0.8359  0.0935  0.8110
19812TIP3    H280928   3.449   6.711  10.985 -0.2793  1.4483  0.8471
19813TIP3   OH280929   0.627   6.477  11.714 -0.0222 -0.3435  0.6343
19813TIP3    H180930   0.677   6.556  11.692  1.4892 -1.0065  1.4986
19813TIP3    H280931   0.541   6.491  11.676  0.0256  1.9665  1.2644
19814TIP3   OH280932   6.140   5.173  11.405 -0.0210  0.2040 -1.1189
19814TIP3    H180933   6.072   5.213  11.458  0.5338 -1.2121  0.7710
19814TIP3    H280934   6.207   5.241  11.396  0.3473  0.1666  0.9573
19815TIP3   OH280935   3.474   0.343  15.873 -0.3245  0.0129  0.0423
19815TIP3    H180936   3.448   0.310  15.959 -0.3318 -0.1342 -0.0161
19815TIP3    H280937   3.559   0.385  15.888 -1.0247  1.3132  0.4099
19816TIP3   OH280938   0.202   5.980   0.883  0.3901 -0.2705  0.5248
19816TIP3    H180939   0.140   5.987   0.956 -0.7961 -1.3118 -0.3368
19816TIP3    H280940   0.254   5.902   0.904  2.4903  1.3748  1.9643
19817TIP3   OH280941   2.576   5.576  11.686  0.4529 -0.0730  0.2694
19817TIP3    H180942   2.531   5.600  11.767 -0.7828 -0.6554 -0.2100
19817TIP3    H280943   2.603   5.659  11.648 -0.2603  0.3108  0.5681
19818TIP3   OH280944   0.963   0.041   1.648  0.1670 -0.2633 -0.2225
19818TIP3    H180945   1.005   0.052   1.733 -0.4128 -0.1855  0.0630
19818TIP3    H280946   0.902  -0.031   1.662 -0.9639  0.6714 -0.1575
19819TIP3   OH280947   0.634   5.943   0.222 -0.0221 -0.0648 -0.4254
19819TIP3    H180948   0.618   6.022   0.169  0.9438  0.9074  0.6743
19819TIP3    H280949   0.546   5.912   0.244 -0.4380  1.1440 -0.2718
19820TIP3   OH280950   6.485   1.033  16.719  0.3628 -0.5076  0.6976
19820TIP3    H180951   6.437   0.973  16.662  1.5976 -1.0319  0.1860
19820TIP3    H280952   6.457   1.008  16.807 -0.0832 -0.9962  0.4293
19821TIP3   OH280953   2.993   4.998  11.385 -0.6598 -0.6240  0.1022
19821TIP3    H180954   3.072   4.944  11.395 -0.6763 -0.7728 -0.4987
19821TIP3    H280955   2.988   5.015  11.291 -0.4861  0.6984  0.3169
19822TIP3   OH280956   2.090   0.507  10.862  0.9337 -0.1524 -0.1074
19822TIP3    H180957   2.134   0.424  10.841  0.4386 -0.5050  0.2227
19822TIP3    H280958   2.038   0.526  10.783 -1.1203 -1.6085  0.8117
19823TIP3   OH280959   4.872   1.170  13.270  0.1077 -0.2871 -0.3564
19823TIP3    H180960   4.936   1.209  13.329  0.6524 -1.8731  0.1524
19823TIP3    H280961   4.878   1.222  13.190 -0.0336  1.3637  0.6650
19824TIP3   OH280962   1.519   6.205   5.221  0.3904  0.2277 -0.5040
19824TIP3    H180963   1.525   6.115   5.188 -0.7843  0.3436 -1.0730
19824TIP3    H280964   1.587   6.211   5.288  0.3673 -1.1420 -0.3403
19825TIP3   OH280965   0.449   2.546   0.765  0.0523  0.1895  0.2079
19825TIP3    H180966   0.486   2.604   0.698 -0.6528  1.9633  1.2721
19825TIP3    H280967   0.515   2.479   0.777  1.1953  1.1045 -0.6652
19826TIP3   OH280968   1.666   4.470   0.059  0.3662  0.2620 -0.6452
19826TIP3    H180969   1.720   4.397   0.090 -0.6279 -0.1584  0.1537
19826TIP3    H280970   1.703   4.547   0.103 -0.7359 -0.2637  1.3034
19827TIP3   OH280971   1.807   4.447  11.045  0.0902  0.0674 -0.5433
19827TIP3    H180972   1.816   4.480  11.135 -2.1341  1.8433 -0.8890
19827TIP3    H280973   1.723   4.482  11.015  1.2301  0.3909 -3.6744
19828TIP3   OH280974   5.506   3.801   3.983 -0.0246 -0.0010 -0.2840
19828TIP3    H180975   5.470   3.880   4.024  0.8479  0.1306  0.2560
19828TIP3    H280976   5.492   3.732   4.048  1.4648  0.2315  0.3086
19829TIP3   OH280977   6.693   4.354   5.213 -0.4181  0.7395 -0.0527
19829TIP3    H180978   6.739   4.378   5.132 -1.1061  2.5038  0.0457
19829TIP3    H280979   6.702   4.431   5.269 -1.7937  0.3502  0.7345
19830TIP3   OH280980   2.394   2.161   0.382 -0.0997  0.1446 -0.2581
19830TIP3    H180981   2.334   2.089   0.404 -0.2067  0.5476  0.8406
19830TIP3    H280982   2.459   2.121   0.324 -0.3523 -0.7553  0.0640
19831TIP3   OH280983   4.471   2.341   2.892  0.7787  0.0047 -0.4495
19831TIP3    H180984   4.441   2.388   2.970  2.6646 -0.3701  0.5756
19831TIP3    H280985   4.496   2.411   2.831 -0.5199  0.2996 -0.6718
19832TIP3   OH280986   5.902   3.829  12.240 -0.1258 -0.1512 -0.1903
19832TIP3    H180987   5.872   3.833  12.331 -1.0952  0.8605 -0.5252
19832TIP3    H280988   5.994   3.805  12.246 -0.2284 -0.3080  1.0472
19833TIP3   OH280989   3.059   3.407   4.778  0.1720 -0.4260  0.2682
19833TIP3    H180990   3.014   3.341   4.726  0.1848 -0.2043 -0.0301
19833TIP3    H280991   2.999   3.428   4.849  0.3955 -1.1572  0.6829
19834TIP3   OH280992   2.950   2.529   2.821  0.3844 -0.0891 -0.3902
19834TIP3    H180993   2.863   2.516   2.858  0.1315 -0.5322 -1.1108
19834TIP3    H280994   2.978   2.615   2.851 -0.4031  0.1525 -0.3526
19835TIP3   OH280995   2.707   0.306   0.810  0.3406  0.3598 -0.1928
19835TIP3    H180996   2.662   0.390   0.801  4.2380  2.7065  0.0584
19835TIP3    H280997   2.771   0.320   0.879  1.7758 -2.5697 -0.7671
19836TIP3   OH280998   4.683   1.056  11.307  0.2793  0.4313  0.0010
19836TIP3    H180999   4.645   1.031  11.223  1.6289  2.2973 -1.2652
19836TIP3    H281000   4.761   1.107  11.283  1.5743 -0.2786  2.4164
19837TIP3   OH281001   3.508   3.947  12.512 -0.3406  0.4918  1.0003
19837TIP3    H181002   3.425   3.995  12.511 -0.6706 -0.0582  0.1016
19837TIP3    H281003   3.558   3.985  12.584 -1.2112  1.1120  1.2870
19838TIP3   OH281004   3.372   0.830   4.890 -0.3825  0.6313  0.1377
19838TIP3    H181005   3.447   0.861   4.940  1.1742 -1.9989 -0.3601
19838TIP3    H281006   3.365   0.737   4.913 -0.9886 -0.1490 -2.7755
19839TIP3   OH281007   3.483   4.739  11.796 -0.5021 -0.5610  0.2050
19839TIP3    H181008   3.427   4.793  11.740 -0.9435 -1.0238  0.1915
19839TIP3    H281009   3.551   4.706  11.737 -1.0024 -1.1003 -0.0862
19840TIP3   OH281010   5.361   5.023  14.043 -0.1050  0.3095  0.0414
19840TIP3    H181011   5.383   5.088  13.976 -1.0735  1.0877  0.4446
19840TIP3    H281012   5.266   5.033  14.055 -0.3303 -1.3615 -0.0646
19841TIP3   OH281013   5.144   5.829   3.901  0.4745  0.3762  0.2881
19841TIP3    H181014   5.140   5.906   3.845 -1.4115  0.9973  1.2116
19841TIP3    H281015   5.193   5.764   3.849  4.5039  2.9226  0.4915
19842TIP3   OH281016   5.490   6.415  14.830 -0.3197 -0.5336  0.2170
19842TIP3    H181017   5.502   6.327  14.866  0.6560 -0.6099 -0.2452
19842TIP3    H281018   5.484   6.472  14.907 -1.1594 -1.0195  0.5178
19843TIP3   OH281019   3.686   6.248  14.668 -0.2304  0.6553  0.0108
19843TIP3    H181020   3.618   6.238  14.735  0.1856  2.4602  0.7805
19843TIP3    H281021   3.658   6.192  14.596 -0.8110 -1.1958  1.5924
19844TIP3   OH281022   6.212   5.681  11.818 -0.0387  0.4037 -0.4101
19844TIP3    H181023   6.280   5.614  11.831 -0.2527  0.3470  0.4680
19844TIP3    H281024   6.165   5.684  11.901 -0.0671  1.6215 -0.4607
19845TIP3   OH281025   3.155   1.625   0.360 -0.0114  0.3604 -0.0626
19845TIP3    H181026   3.224   1.639   0.295 -1.0354  1.0131 -1.0518
19845TIP3    H281027   3.119   1.713   0.376 -0.4905  0.0597  0.5791
19846TIP3   OH281028   4.249   3.352   0.546  0.8734  0.3941  0.5088
19846TIP3    H181029   4.198   3.410   0.490 -0.3130  0.8920  2.0268
19846TIP3    H281030   4.184   3.312   0.604  2.1416  0.7952  2.3025
19847TIP3   OH281031   6.746   3.036   3.371 -0.2110 -0.3938 -0.7261
19847TIP3    H181032   6.661   3.067   3.339  0.2641  0.4244 -1.2142
19847TIP3    H281033   6.810   3.072   3.310  0.8999  2.5990  1.9499
19848TIP3   OH281034   2.822   0.936   1.251  0.1968 -0.0329  0.3148
19848TIP3    H181035   2.819   0.938   1.346  0.0058  1.8061  0.2984
19848TIP3    H281036   2.780   1.017   1.223  2.5201  0.7610 -1.2675
19849TIP3   OH281037   1.870   1.345   3.854  0.6192 -0.2772  0.4599
19849TIP3    H181038   1.924   1.341   3.775  1.0586 -2.3010  0.7850
19849TIP3    H281039   1.932   1.359   3.925  0.3466  0.4681  0.5566
19850TIP3   OH281040   2.396   2.746   3.692  0.9448  0.0964 -0.3260
19850TIP3    H181041   2.438   2.758   3.777  0.9687 -0.6807 -0.2185
19850TIP3    H281042   2.461   2.699   3.640  1.7705  2.3395 -1.4840
19851TIP3   OH281043   2.628   4.855  10.428  0.0940  0.2612  0.3530
19851TIP3    H181044   2.600   4.887  10.342 -0.0248 -0.3426  0.1579
19851TIP3    H281045   2.566   4.893  10.490  0.3509  0.9278  0.2090
19852TIP3   OH281046   1.553   2.325  13.467 -0.3596  0.7122 -0.1080
19852TIP3    H181047   1.514   2.370  13.392  1.2080 -0.7041 -1.8357
19852TIP3    H281048   1.494   2.252  13.484 -0.3041  0.5813 -0.4731
19853TIP3   OH281049   2.576   3.603   3.662 -0.3836 -0.3885 -0.2274
19853TIP3    H181050   2.640   3.656   3.708  2.3591 -2.5757 -1.2260
19853TIP3    H281051   2.530   3.664   3.604  1.9116  1.0631 -0.6106
19854TIP3   OH281052   0.522   4.767  10.516  0.7000  0.3936 -0.6224
19854TIP3    H181053   0.575   4.702  10.471  0.3321  0.8349 -1.7161
19854TIP3    H281054   0.573   4.848  10.510  0.5715  0.4920 -0.3963
19855TIP3   OH281055   2.794   3.758   4.957 -0.1574 -0.2269 -0.3667
19855TIP3    H181056   2.779   3.811   5.035  2.7686 -1.2564  1.0265
19855TIP3    H281057   2.844   3.814   4.898  0.3519 -0.4642 -0.1618
19856TIP3   OH281058   0.283   0.262   6.395 -0.8603 -0.4186 -0.0433
19856TIP3    H181059   0.378   0.258   6.407 -1.1301 -0.9954  2.6593
19856TIP3    H281060   0.262   0.355   6.400 -0.4969 -0.3454  0.2169
19857TIP3   OH281061   0.236   1.445  13.809  0.1220  0.2474  0.1385
19857TIP3    H181062   0.205   1.498  13.735 -1.1628  0.5297  0.8414
19857TIP3    H281063   0.288   1.376  13.769 -0.6386  0.3265 -1.0391
19858TIP3   OH281064   3.772   0.360   0.979  0.1824 -1.2311 -0.5021
19858TIP3    H181065   3.809   0.298   1.041  1.0932  0.1856  0.4476
19858TIP3    H281066   3.692   0.392   1.022  1.8198  1.2096  0.9796
19859TIP3   OH281067   0.895   0.057  11.231  0.5671 -0.3187 -0.1757
19859TIP3    H181068   0.935   0.060  11.144 -1.8706  1.1657 -1.3452
19859TIP3    H281069   0.911   0.143  11.269  0.0212 -0.3132  0.0600
19860TIP3   OH281070   3.377   6.132   5.545  0.9768 -0.3259  0.2513
19860TIP3    H181071   3.320   6.202   5.514 -1.2224 -1.5679  1.3098
19860TIP3    H281072   3.382   6.071   5.472  0.9417 -0.2444  0.1806
19861TIP3   OH281073   2.135   2.384   2.744  0.4634  0.1321  0.3359
19861TIP3    H181074   2.218   2.343   2.717  0.7445  0.8024  0.1647
19861TIP3    H281075   2.148   2.477   2.727 -0.4007  0.2196  0.1426
19862TIP3   OH281076   1.507   3.200   1.569 -0.1252 -0.4103 -0.2226
19862TIP3    H181077   1.579   3.142   1.542 -0.3906 -0.1310 -1.6385
19862TIP3    H281078   1.493   3.180   1.661  1.3959 -0.8729 -0.0624
19863TIP3   OH281079   1.451   1.390   0.237  0.8205  0.0267  0.7554
19863TIP3    H181080   1.431   1.427   0.151  0.4249 -2.4437 -0.3071
19863TIP3    H281081   1.542   1.360   0.229  1.0252  0.4508  1.4527
19864TIP3   OH281082   2.281   0.925   1.615  0.1763  0.6199  0.8383
19864TIP3    H181083   2.370   0.949   1.641  1.3443  0.0191 -2.1657
19864TIP3    H281084   2.272   0.958   1.525 -3.0127  1.4474  1.3141
19865TIP3   OH281085   2.112   6.045   0.189  0.0178  0.0680  0.1150
19865TIP3    H181086   2.103   6.112   0.122 -1.0249 -0.1737 -0.0106
19865TIP3    H281087   2.026   6.003   0.192 -0.0239  0.2017  1.7387
19866TIP3   OH281088   1.615   2.470   0.621  0.0515  0.1020  0.1223
19866TIP3    H181089   1.654   2.548   0.583  0.5542 -0.6825 -1.0100
19866TIP3    H281090   1.612   2.488   0.715 -1.1923  2.0660 -0.2451
19867TIP3   OH281091   5.597   3.603   1.778 -0.3041  0.0234  0.3759
19867TIP3    H181092   5.536   3.673   1.756 -1.6856 -0.4476  2.3736
19867TIP3    H281093   5.673   3.618   1.722 -1.4652  1.7852 -0.8200
19868TIP3   OH281094   4.907   3.395  14.450  0.0807  0.1118  0.2979
19868TIP3    H181095   4.855   3.411  14.528 -0.2162  0.1401  0.0940
19868TIP3    H281096   4.989   3.443  14.465 -0.3943  0.9919  0.1361
19869TIP3   OH281097   6.103   3.473  16.528  0.1220  0.2157  0.1924
19869TIP3    H181098   6.176   3.484  16.590 -0.1620  0.8656  0.4250
19869TIP3    H281099   6.078   3.381  16.535  1.2149 -0.1394 -0.2264
19870TIP3   OH281100   4.667   6.232  16.100 -0.3768  0.3170 -0.1705
19870TIP3    H181101   4.647   6.186  16.182 -0.6876  0.6996 -0.0288
19870TIP3    H281102   4.610   6.190  16.035  1.5850 -1.6490 -0.7313
19871TIP3   OH281103   5.721   0.203  15.175  0.0756 -0.0121  0.2392
19871TIP3    H181104   5.798   0.156  15.205  0.2789  0.1497 -0.0218
19871TIP3    H281105   5.745   0.296  15.184 -0.1133  0.0384  0.2271
19872TIP3   OH281106   2.633   4.550   0.268 -0.7015  0.1863  0.0287
19872TIP3    H181107   2.580   4.545   0.188  0.2206 -2.3188 -0.5271
19872TIP3    H281108   2.714   4.592   0.239  0.0453 -1.6250 -0.6985
19873TIP3   OH281109   3.878   5.194   2.549  0.3514 -0.2990  0.1734
19873TIP3    H181110   3.899   5.264   2.487  1.1479  0.3510  1.1356
19873TIP3    H281111   3.830   5.238   2.619  0.1653 -0.8687  0.4043
19874TIP3   OH281112   1.581   0.482   2.591  0.7781 -0.1099 -0.3665
19874TIP3    H181113   1.490   0.469   2.562 -0.3648 -0.5831  2.9414
19874TIP3    H281114   1.631   0.419   2.541 -1.4230 -2.7003  0.4146
19875TIP3   OH281115   3.342   4.163  12.786  0.1992 -0.7526 -0.0498
19875TIP3    H181116   3.435   4.173  12.766 -0.0005  0.9450 -0.2404
19875TIP3    H281117   3.341   4.124  12.873  1.1266  1.2722  0.9197
19876TIP3   OH281118   6.066   5.680   3.322 -0.0765 -0.4430  0.6105
19876TIP3    H181119   6.007   5.605   3.314 -0.9909  0.1094  1.8023
19876TIP3    H281120   6.076   5.693   3.416  0.6274  0.5012  0.4190
19877TIP3   OH281121   0.965   1.580   1.986 -0.5277 -0.0727  0.1687
19877TIP3    H181122   0.936   1.607   1.899 -1.9837 -0.0162  0.6380
19877TIP3    H281123   0.883   1.565   2.035  0.2558 -0.3194  1.4538
19878TIP3   OH281124   6.795   5.882  13.456 -0.1387 -0.2303  0.8507
19878TIP3    H181125   6.868   5.822  13.441  0.5384  0.7986 -0.1283
19878TIP3    H281126   6.801   5.904  13.549  0.2383 -0.8400  0.9810
19879TIP3   OH281127   0.471   3.116   1.797 -0.0769  0.2039 -0.7473
19879TIP3    H181128   0.379   3.090   1.809 -0.5462  1.7218 -0.7667
19879TIP3    H281129   0.466   3.193   1.740  1.3187 -0.4313 -1.7666
19880TIP3   OH281130   6.229   0.115  15.525  0.3991  0.0432  0.5267
19880TIP3    H181131   6.296   0.062  15.482  0.3791  0.3977  0.0411
19880TIP3    H281132   6.243   0.204  15.491  0.0007  0.2156  0.7978
19881TIP3   OH281133   5.232   3.992   3.874 -0.5537 -0.1939  0.6992
19881TIP3    H181134   5.299   4.050   3.910  0.4802 -0.5529 -0.5788
19881TIP3    H281135   5.208   3.934   3.946  0.0207  0.3634  1.3495
19882TIP3   OH281136   2.850   6.777   4.624  0.3883 -0.1344  0.4031
19882TIP3    H181137   2.881   6.721   4.553  2.6660  0.6325  0.7238
19882TIP3    H281138   2.825   6.859   4.581  1.4432  0.2087  0.4189
19883TIP3   OH281139   5.617   1.942  16.345 -0.1551  0.1759 -0.4401
19883TIP3    H181140   5.526   1.916  16.335 -0.5878  0.8227  1.5119
19883TIP3    H281141   5.619   2.034  16.319 -0.0301  0.1375 -0.5714
19884TIP3   OH281142   4.150   4.776  13.759 -0.0210  0.0890  0.3096
19884TIP3    H181143   4.076   4.832  13.783  1.1123  1.7776  0.0424
19884TIP3    H281144   4.152   4.780  13.663  0.8731  0.7171  0.3438
19885TIP3   OH281145   1.915   1.095   1.352  0.3068  0.4528  0.3581
19885TIP3    H181146   1.844   1.145   1.310  0.1383  0.4401  0.6244
19885TIP3    H281147   1.995   1.137   1.320  0.2194 -0.2707 -0.8689
19886TIP3   OH281148   4.626   0.970  13.319 -0.0267 -0.4478  0.2437
19886TIP3    H181149   4.650   1.048  13.368  0.6477 -1.1789  1.0990
19886TIP3    H281150   4.692   0.905  13.342 -0.5673 -1.2796 -0.4616
19887TIP3   OH281151   1.808   1.601  11.781 -0.1948  0.7039 -0.0922
19887TIP3    H181152   1.761   1.518  11.791  0.9810  0.2371  2.4374
19887TIP3    H281153   1.888   1.577  11.733 -0.6370  0.7284 -0.8584
19888TIP3   OH281154   1.029   3.324  16.987 -0.1164  0.1360 -0.2685
19888TIP3    H181155   1.100   3.350  17.045  1.6388  1.4662 -2.8326
19888TIP3    H281156   1.046   3.232  16.968 -0.1407 -0.0376  0.5147
19889TIP3   OH281157   6.404   4.056   4.676 -0.0578 -0.3953 -0.3841
19889TIP3    H181158   6.320   4.020   4.647  0.7275 -3.3705  0.6654
19889TIP3    H281159   6.382   4.110   4.752 -1.1709  0.4080 -1.2428
19890TIP3   OH281160   4.504   5.374  15.146  0.0379  0.1528  0.1739
19890TIP3    H181161   4.458   5.327  15.215 -0.1674  0.8235  0.4995
19890TIP3    H281162   4.587   5.400  15.186  0.6412 -0.8875 -0.3528
19891TIP3   OH281163   3.905   5.848   1.620 -0.7083  0.4178  0.3158
19891TIP3    H181164   3.887   5.888   1.705  1.4981  0.6496  0.7470
19891TIP3    H281165   3.851   5.769   1.619 -0.7265  0.3736  1.9723
19892TIP3   OH281166   1.354   3.279  14.662  0.1164 -0.1730 -0.2898
19892TIP3    H181167   1.300   3.306  14.589 -2.1557 -0.1644  1.2798
19892TIP3    H281168   1.320   3.194  14.687  1.2944 -0.4830  0.3649
19893TIP3   OH281169   5.270   6.205   1.850  0.0651 -0.0173  0.4403
19893TIP3    H181170   5.270   6.144   1.776  0.3240 -0.1311  0.5358
19893TIP3    H281171   5.280   6.291   1.810 -6.2120  0.8347 -0.4305
19894TIP3   OH281172   5.890   0.782   5.686  0.1913  0.1418  0.0208
19894TIP3    H181173   5.960   0.791   5.621  0.3085 -0.5831  0.0406
19894TIP3    H281174   5.863   0.872   5.705  1.3708  0.4635  0.2758
19895TIP3   OH281175   4.088   5.076   6.509 -0.3633  0.6638  0.2180
19895TIP3    H181176   4.012   5.104   6.560 -1.0526  0.6891 -0.7917
19895TIP3    H281177   4.052   5.057   6.422  0.6331 -0.2445 -0.0068
19896TIP3   OH281178   3.291   5.420   5.028  0.1868 -0.3420  0.4110
19896TIP3    H181179   3.243   5.502   5.015 -0.1743 -0.6388 -0.2009
19896TIP3    H281180   3.366   5.427   4.969  0.6151 -0.1068  0.9716
19897TIP3   OH281181   0.690   2.701   5.829  0.2717 -0.2808 -0.2927
19897TIP3    H181182   0.618   2.761   5.849  1.5989  2.1364 -2.1842
19897TIP3    H281183   0.755   2.717   5.897  0.8097  0.7990 -1.0463
19898TIP3   OH281184   5.349   2.528   0.974 -0.1939 -0.1670  0.6142
19898TIP3    H181185   5.431   2.558   1.012  0.8915 -1.9440 -0.1643
19898TIP3    H281186   5.314   2.604   0.927  1.1520  0.5455  0.7328
19899TIP3   OH281187   1.475   6.240   4.947  0.0652 -0.3274 -0.2852
19899TIP3    H181188   1.508   6.262   5.034  0.4457 -1.7096 -0.0654
19899TIP3    H281189   1.540   6.276   4.887 -0.8568  1.8087 -0.1004
19900TIP3   OH281190   6.431   3.688  12.823 -0.4991 -0.3868  0.0907
19900TIP3    H181191   6.463   3.646  12.743 -2.5290 -1.3276 -0.2784
19900TIP3    H281192   6.337   3.699  12.809 -1.0291 -1.0951  2.5810
19901TIP3   OH281193   5.404   4.765  14.857 -0.3224  0.2019 -0.3408
19901TIP3    H181194   5.385   4.846  14.810 -1.2580  0.1723 -0.0285
19901TIP3    H281195   5.489   4.736  14.823 -0.6808  0.5227 -1.5195
19902TIP3   OH281196   2.434   1.802  16.695 -0.1599 -0.2164  0.1440
19902TIP3    H181197   2.382   1.880  16.676  0.9028  0.1668 -1.3067
19902TIP3    H281198   2.525   1.833  16.696  0.1775 -1.1561  1.1468
19903TIP3   OH281199   5.105   3.411   4.542  0.3980 -0.1250  0.1901
19903TIP3    H181200   5.095   3.435   4.634 -0.1839 -0.7628  0.3033
19903TIP3    H281201   5.051   3.474   4.495 -2.1156 -1.8287  0.5807
19904TIP3   OH281202   3.407   0.017   3.362  0.7930 -0.4962  0.2667
19904TIP3    H181203   3.420   0.091   3.421 -1.0029  0.6333 -0.6494
19904TIP3    H281204   3.453   0.042   3.282  1.1087 -0.8879  0.3224
19905TIP3   OH281205   3.338   5.953   3.636  0.3017  0.0347  0.0710
19905TIP3    H181206   3.248   5.961   3.605 -0.1428 -0.7713  1.0787
19905TIP3    H281207   3.338   5.996   3.722  0.5216 -1.1397  0.6837
19906TIP3   OH281208   1.401   2.413   3.143 -0.8167  0.1959  0.7888
19906TIP3    H181209   1.472   2.477   3.142  0.3461 -0.9784 -1.8290
19906TIP3    H281210   1.444   2.330   3.126 -2.3721 -1.2675  3.4001
19907TIP3   OH281211   0.608   5.441   3.572 -0.5341 -0.0603 -1.0890
19907TIP3    H181212   0.702   5.426   3.582 -0.3156  0.9980 -1.4099
19907TIP3    H281213   0.572   5.354   3.554  0.2740 -0.5860 -0.2358
19908TIP3   OH281214   0.111   5.794   3.685 -0.9248  0.0024  0.6480
19908TIP3    H181215   0.023   5.767   3.713 -2.0686  1.0620 -1.7257
19908TIP3    H281216   0.124   5.880   3.726 -0.5855 -0.5443  1.7256
19909TIP3   OH281217   0.527   0.489   4.101  0.1588  0.3727 -0.2248
19909TIP3    H181218   0.459   0.451   4.157  0.8231 -0.6609 -0.0881
19909TIP3    H281219   0.585   0.416   4.081  0.6111  0.9946 -1.2690
19910TIP3   OH281220   6.170   4.015  11.958  0.0931 -0.1731  0.2653
19910TIP3    H181221   6.177   4.069  11.879 -0.6768 -1.6878 -0.8989
19910TIP3    H281222   6.246   4.039  12.010  1.4639 -0.1751 -1.6213
19911TIP3   OH281223   5.587   2.247   2.280  0.1505 -0.1653  0.0301
19911TIP3    H181224   5.606   2.330   2.236  1.4746 -0.4318  0.0556
19911TIP3    H281225   5.672   2.204   2.289 -0.3048 -0.8722  1.3474
19912TIP3   OH281226   3.747   3.506  12.647 -0.2217  0.2514 -0.7281
19912TIP3    H181227   3.684   3.579  12.653  0.1797  0.6823 -1.6352
19912TIP3    H281228   3.818   3.532  12.706 -1.5204 -0.9277  1.4839
19913TIP3   OH281229   3.300   2.316  13.669  0.8445  0.3313  0.3478
19913TIP3    H181230   3.331   2.401  13.697 -0.6255  0.5816  1.3548
19913TIP3    H281231   3.379   2.263  13.659  1.6797  1.3981  1.1121
19914TIP3   OH281232   4.241   0.378   3.324 -0.1506  0.5103  0.2164
19914TIP3    H181233   4.223   0.450   3.264 -0.8275 -0.1954 -0.4563
19914TIP3    H281234   4.167   0.318   3.312  0.6485 -0.5356  0.3980
19915TIP3   OH281235   5.031   5.955   2.232  0.0995 -0.3021 -0.2214
19915TIP3    H181236   4.975   5.896   2.182 -0.5506  0.7326 -0.7450
19915TIP3    H281237   5.030   6.038   2.183 -0.2757  0.6348  1.2973
19916TIP3   OH281238   1.403   0.609   4.703 -0.2379 -0.0137 -0.2812
19916TIP3    H181239   1.468   0.645   4.763  1.1301  0.0172 -1.7113
19916TIP3    H281240   1.423   0.516   4.699 -0.0689  0.0452 -0.9638
19917TIP3   OH281241   2.417   4.698   0.973  0.0380 -0.1541  0.3072
19917TIP3    H181242   2.485   4.736   1.029 -0.5465 -2.8896  3.1342
19917TIP3    H281243   2.460   4.624   0.931 -0.7151 -0.8162  0.6959
19918TIP3   OH281244   0.559   0.167  13.829 -0.1137  0.1022 -0.8087
19918TIP3    H181245   0.556   0.263  13.827  1.5915  0.1965 -0.2965
19918TIP3    H281246   0.630   0.144  13.768 -0.7453 -0.8621 -1.1985
19919TIP3   OH281247   0.171   4.574  14.075 -0.9783 -0.1437  0.8089
19919TIP3    H181248   0.212   4.657  14.051 -1.0020  0.0168  1.3174
19919TIP3    H281249   0.104   4.560  14.008 -3.8171  2.2997  2.9500
19920TIP3   OH281250   4.716   2.831  16.784 -0.2274  0.2281 -0.4724
19920TIP3    H181251   4.679   2.749  16.816 -0.3223  0.6348  0.5121
19920TIP3    H281252   4.667   2.899  16.830 -1.2514  0.9048 -2.4608
19921TIP3   OH281253   0.200   5.137   4.026  0.0717  0.6889 -0.2640
19921TIP3    H181254   0.254   5.089   4.089  0.5625  0.6028 -0.7455
19921TIP3    H281255   0.262   5.176   3.965 -0.3439  1.6991 -0.0520
19922TIP3   OH281256   1.955   5.634  12.984 -0.6142 -0.5519  0.7623
19922TIP3    H181257   1.887   5.699  13.004 -2.2826 -1.5581 -1.2811
19922TIP3    H281258   1.960   5.634  12.888 -0.5289 -3.2765  0.7062
19923TIP3   OH281259   0.385   0.665  13.145  0.5227  0.1989  0.1487
19923TIP3    H181260   0.321   0.734  13.129  1.6560  1.2132 -0.1482
19923TIP3    H281261   0.451   0.706  13.201  1.6389 -0.3889 -0.6934
19924TIP3   OH281262   5.776   4.985  15.512  0.5454  0.0764 -0.2246
19924TIP3    H181263   5.787   5.007  15.604  0.0702  0.1953 -0.1919
19924TIP3    H281264   5.848   5.029  15.468  1.0421 -0.3552  0.1418
19925TIP3   OH281265   4.199   6.317   0.262 -0.6813  0.0587  0.0440
19925TIP3    H181266   4.187   6.410   0.280  2.1059  0.6459 -0.8020
19925TIP3    H281267   4.199   6.310   0.167  1.3847 -0.4153  0.0412
19926TIP3   OH281268   1.026   3.534  14.637  0.4376 -0.3188  0.2237
19926TIP3    H181269   0.962   3.585  14.686  0.6351  0.9696 -0.8052
19926TIP3    H281270   0.976   3.461  14.600 -0.9508  1.6204 -2.0660
19927TIP3   OH281271   1.349   3.907  16.846  0.1305  0.0062 -0.0680
19927TIP3    H181272   1.375   3.815  16.847  1.7372  0.4377 -0.1612
19927TIP3    H281273   1.384   3.942  16.765 -0.7412  0.6502 -0.1946
19928TIP3   OH281274   1.808   4.523   1.126 -0.1875  0.3244 -0.6577
19928TIP3    H181275   1.824   4.458   1.057 -0.2467  0.8165 -1.1332
19928TIP3    H281276   1.713   4.529   1.132 -0.3085 -1.7795  1.4117
19929TIP3   OH281277   2.584   2.116  10.828 -0.3551  0.1389  0.2488
19929TIP3    H181278   2.503   2.160  10.855 -1.0891  0.0245 -1.6258
19929TIP3    H281279   2.640   2.187  10.796 -0.4366  0.0209 -0.1579
19930TIP3   OH281280   2.604   4.347  12.087  0.0507 -0.0483 -0.2407
19930TIP3    H181281   2.605   4.313  12.177  1.7025  0.5104 -0.0127
19930TIP3    H281282   2.670   4.295  12.041 -1.6877 -1.2403 -1.5392
19931TIP3   OH281283   3.910   0.237  17.109 -0.5710  0.0127  0.3863
19931TIP3    H181284   3.855   0.294  17.163 -0.1136 -0.8452  1.8342
19931TIP3    H281285   3.875   0.149  17.124 -1.1917 -0.1556 -1.7170
19932TIP3   OH281286   3.448   1.494  14.859 -0.2644 -0.3434 -0.1658
19932TIP3    H181287   3.423   1.561  14.923 -0.4267 -1.4801  1.0023
19932TIP3    H281288   3.381   1.500  14.791  0.0773  1.0835 -0.4057
19933TIP3   OH281289   5.397   3.012   3.386  0.6267  0.2932  0.0620
19933TIP3    H181290   5.350   2.955   3.447 -0.4812  1.0526 -0.0479
19933TIP3    H281291   5.470   3.047   3.437  0.7539 -0.4571  0.4100
19934TIP3   OH281292   0.273   0.399  11.544  0.3033 -0.7805  0.4302
19934TIP3    H181293   0.199   0.453  11.570 -0.4461 -0.1152 -2.6913
19934TIP3    H281294   0.234   0.313  11.524  0.1641 -0.2568 -1.8109
19935TIP3   OH281295   1.363   3.405  12.627 -0.3638  0.8421 -0.0361
19935TIP3    H181296   1.289   3.405  12.566 -1.9851  1.1005  1.8263
19935TIP3    H281297   1.387   3.498  12.636 -0.5790  0.8723  0.2328
19936TIP3   OH281298   5.702   2.386  12.177 -0.1310 -0.0099 -0.1524
19936TIP3    H181299   5.784   2.337  12.181 -0.0155  0.1709 -0.2740
19936TIP3    H281300   5.705   2.429  12.092 -0.3970 -0.0801 -0.1976
19937TIP3   OH281301   0.397   0.242  12.074  0.5495 -0.2824 -0.0634
19937TIP3    H181302   0.470   0.280  12.123  0.7043  1.4373 -1.4973
19937TIP3    H281303   0.439   0.197  12.000  0.2025  0.3459 -0.6569
19938TIP3   OH281304   3.237   6.768   0.824 -0.0381 -0.1656  0.0129
19938TIP3    H181305   3.207   6.714   0.897 -1.3461  0.1902 -0.2189
19938TIP3    H281306   3.219   6.858   0.853 -2.8346 -0.0900 -1.6145
19939TIP3   OH281307   3.426   1.124   6.134  0.3862  0.1417  0.1334
19939TIP3    H181308   3.517   1.153   6.145  0.4007  0.2267 -0.1980
19939TIP3    H281309   3.413   1.060   6.204  1.3102 -1.3344 -0.9966
19940TIP3   OH281310   5.988   1.556  10.905 -0.3111  0.0420 -0.2191
19940TIP3    H181311   6.017   1.539  10.815  1.3139 -1.6872  0.5698
19940TIP3    H281312   5.913   1.498  10.918  0.1089 -0.4794 -0.1268
19941TIP3   OH281313   6.753   5.467   4.661  0.5379  0.0955  0.8666
19941TIP3    H181314   6.671   5.455   4.708  0.0081  1.5976  0.3933
19941TIP3    H281315   6.784   5.554   4.689  1.9707 -0.4301  1.0330
19942TIP3   OH281316   1.107   0.781   6.278 -0.0262  0.4649  0.1274
19942TIP3    H181317   1.115   0.779   6.373 -0.0466 -2.2151  0.1453
19942TIP3    H281318   1.045   0.711   6.258  0.0423  0.9201 -1.8758
19943TIP3   OH281319   3.295   1.382  13.794 -0.0205  0.1003 -0.6105
19943TIP3    H181320   3.347   1.322  13.740  0.5736 -0.4176  0.5116
19943TIP3    H281321   3.360   1.441  13.832 -0.4266  0.3889 -0.3678
19944TIP3   OH281322   0.166   1.960  14.416  0.5528  0.5550 -0.5290
19944TIP3    H181323   0.170   2.019  14.341 -0.2232  1.2214 -0.0631
19944TIP3    H281324   0.240   1.985  14.471 -0.6653  2.2283  0.4527
19945TIP3   OH281325   6.663   1.464  16.392  0.4482 -0.3445 -0.4070
19945TIP3    H181326   6.630   1.397  16.452  0.4501  0.0676  0.0675
19945TIP3    H281327   6.732   1.508  16.441 -0.3734  0.8021 -0.2358
19946TIP3   OH281328   3.673   0.784   1.551 -0.4726 -0.0580 -0.7792
19946TIP3    H181329   3.709   0.823   1.471  0.1165  0.6715 -0.1795
19946TIP3    H281330   3.607   0.722   1.520  0.4594 -0.5522 -1.8699
19947TIP3   OH281331   5.848   1.817  16.242  0.2592 -0.1588 -0.2394
19947TIP3    H181332   5.768   1.861  16.269  1.5495  0.5996  2.8373
19947TIP3    H281333   5.897   1.884  16.194 -0.0319  0.0803 -0.2056
19948TIP3   OH281334   3.914   0.634  14.496 -0.0565  0.1362  0.0311
19948TIP3    H181335   3.903   0.640  14.591  1.4295 -0.8898  0.2963
19948TIP3    H281336   3.869   0.554  14.471 -1.6000  1.0786 -0.3701
19949TIP3   OH281337   6.713   2.287  12.724  0.2973  0.2632 -0.2452
19949TIP3    H181338   6.707   2.193  12.712 -0.4361  0.2426  0.2452
19949TIP3    H281339   6.655   2.306  12.798  0.9445  1.0127  0.0780
19950TIP3   OH281340   1.440   2.090   5.726 -0.3619  0.2378 -0.7218
19950TIP3    H181341   1.519   2.056   5.768 -1.0845 -0.3358  0.2147
19950TIP3    H281342   1.402   2.015   5.680 -0.3778  0.5051 -1.1548
19951TIP3   OH281343   0.406   3.533  16.956 -0.2783 -0.2954  0.0280
19951TIP3    H181344   0.421   3.626  16.939  1.4230 -0.9350 -2.5213
19951TIP3    H281345   0.492   3.493  16.942 -1.3014 -2.4402 -0.4422
19952TIP3   OH281346   1.434   3.454   0.219 -0.1331  0.2816 -0.7335
19952TIP3    H181347   1.385   3.535   0.206 -0.2988  0.3285  0.0995
19952TIP3    H281348   1.431   3.440   0.314 -0.4816 -0.9357 -0.9141
19953TIP3   OH281349   4.889   6.782   4.126 -0.2502 -0.4942  0.2222
19953TIP3    H181350   4.834   6.832   4.066 -0.4832 -0.1909  0.6822
19953TIP3    H281351   4.835   6.707   4.152  0.9635 -2.4279 -2.4017
19954TIP3   OH281352   3.324   4.339  11.701  0.0846  0.3455 -0.8048
19954TIP3    H181353   3.377   4.262  11.718  0.4056  0.4984 -1.1028
19954TIP3    H281354   3.357   4.374  11.618 -0.9110  0.0788 -1.3267
19955TIP3   OH281355   6.749   1.065  12.269 -0.0935  0.0603 -0.3396
19955TIP3    H181356   6.753   1.035  12.178  0.6811 -0.2795 -0.2015
19955TIP3    H281357   6.767   0.987  12.321  0.8725  0.5277  0.0541
19956TIP3   OH281358   0.279   4.877   1.053 -0.5167 -0.6514 -0.6819
19956TIP3    H181359   0.266   4.968   1.026  1.0048 -0.3418 -0.4651
19956TIP3    H281360   0.203   4.830   1.018 -1.5395  0.7654 -0.4310
19957TIP3   OH281361   1.269   2.313  14.417  0.8995  0.7145  0.4701
19957TIP3    H181362   1.336   2.324  14.349  0.2246  2.7216  0.0670
19957TIP3    H281363   1.208   2.250  14.379 -0.1515  2.7298 -1.4394
19958TIP3   OH281364   1.289   1.720  16.163 -0.3269 -0.3916 -0.3624
19958TIP3    H181365   1.266   1.649  16.103 -0.0390 -0.7827 -0.0196
19958TIP3    H281366   1.285   1.680  16.250  1.0875 -0.3514 -0.2485
19959TIP3   OH281367   3.639   4.096   3.302 -0.2105 -0.0319  0.1085
19959TIP3    H181368   3.619   4.157   3.231  1.2502  0.1368 -0.1832
19959TIP3    H281369   3.734   4.100   3.311  0.0832 -3.1460 -0.7003
19960TIP3   OH281370   6.199   0.970   5.723  0.6130  0.7773  0.1137
19960TIP3    H181371   6.209   1.063   5.740 -1.0535  0.9260  0.4370
19960TIP3    H281372   6.229   0.927   5.803  2.4058  0.9279 -0.4163
19961TIP3   OH281373   2.758   4.726  17.140 -0.2385 -0.5348  0.1264
19961TIP3    H181374   2.771   4.650  17.196 -1.3073 -1.0248 -0.2833
19961TIP3    H281375   2.707   4.787  17.193 -0.9987 -0.8789 -0.2038
19962TIP3   OH281376   5.862   3.936  16.233  0.3339  0.6175 -0.0130
19962TIP3    H181377   5.877   3.860  16.176  0.6985 -0.4786  1.4609
19962TIP3    H281378   5.827   3.898  16.313 -0.3754  2.1348  0.4221
19963TIP3   OH281379   6.239   0.415  16.162 -0.2706  0.0224 -0.4906
19963TIP3    H181380   6.179   0.348  16.128  0.3466  1.1327 -4.2278
19963TIP3    H281381   6.188   0.496  16.160  0.5138  0.5181 -1.0936
19964TIP3   OH281382   0.218   5.948   4.080 -0.0732  0.4118 -0.4591
19964TIP3    H181383   0.148   5.994   4.033 -0.6471  0.2764  0.2490
19964TIP3    H281384   0.209   5.857   4.054  0.9172  0.6353 -1.6798
19965TIP3   OH281385   1.253   6.508  11.347 -0.3610 -0.2213  0.2433
19965TIP3    H181386   1.245   6.496  11.252 -0.7574  3.2484 -0.2682
19965TIP3    H281387   1.168   6.482  11.382  0.0236 -2.2491 -0.1736
19966TIP3   OH281388   0.441   0.585   0.343  0.1330  0.0275  0.4554
19966TIP3    H181389   0.417   0.506   0.294 -1.2062  0.8177 -0.2063
19966TIP3    H281390   0.495   0.635   0.283  2.5740 -1.1771  1.5161
19967TIP3   OH281391   4.508   2.595  17.159 -0.2102  0.5159  0.7129
19967TIP3    H181392   4.412   2.592  17.162 -0.2722  1.7571  0.7364
19967TIP3    H281393   4.535   2.605  17.250  0.0137 -0.8720  0.8148
19968TIP3   OH281394   0.151   0.284   3.004  0.3148  0.0530 -0.0495
19968TIP3    H181395   0.180   0.375   2.996 -0.0404  0.0830 -1.3156
19968TIP3    H281396   0.103   0.267   2.922 -0.8811 -0.8256  0.7898
19969TIP3   OH281397   2.965   0.703   1.110 -0.2389 -0.5043 -0.2044
19969TIP3    H181398   3.048   0.680   1.151  1.1218  0.7277 -2.1035
19969TIP3    H281399   2.936   0.781   1.157  0.8673  0.3851 -0.9287
19970TIP3   OH281400   3.015   1.597   1.164 -0.1254 -0.0237  0.2948
19970TIP3    H181401   2.962   1.674   1.145 -1.7581 -1.9627 -5.0102
19970TIP3    H281402   3.097   1.612   1.117 -0.8951 -1.7285 -1.7777
19971TIP3   OH281403   1.483   5.947   2.660  0.0545  0.1258  0.0505
19971TIP3    H181404   1.469   6.031   2.617  1.5059 -0.3769 -1.4921
19971TIP3    H281405   1.541   5.968   2.734 -0.7429  0.6711  0.5408
19972TIP3   OH281406   3.685   5.318  17.137 -0.3577 -0.2161 -0.1605
19972TIP3    H181407   3.653   5.241  17.090 -1.5423 -0.6229  1.2429
19972TIP3    H281408   3.654   5.392  17.085  1.0588 -0.6378 -1.6933
19973TIP3   OH281409   0.835   1.054  17.195 -0.3331  0.1670 -0.4583
19973TIP3    H181410   0.745   1.078  17.173 -0.5011 -0.6362 -0.7015
19973TIP3    H281411   0.873   1.133  17.234 -1.2157  0.4407 -0.1369
19974TIP3   OH281412   2.772   1.240   3.272 -0.1698  0.6146 -0.4240
19974TIP3    H181413   2.751   1.158   3.317 -2.0474  0.3374 -1.6802
19974TIP3    H281414   2.838   1.216   3.207  0.8749  0.5599  0.6435
19975TIP3   OH281415   1.334   3.959   4.292  0.5293 -0.2114 -0.3577
19975TIP3    H181416   1.266   4.022   4.271 -0.7333 -1.4859 -0.2299
19975TIP3    H281417   1.412   4.012   4.307 -0.4834  1.3056 -0.2716
19976TIP3   OH281418   2.805   2.355   6.532 -0.4776  0.2781  0.4051
19976TIP3    H181419   2.859   2.392   6.602 -0.3319  0.7837  0.0337
19976TIP3    H281420   2.721   2.335   6.574 -0.3657  0.5083  0.7421
19977TIP3   OH281421   6.810   5.148   2.328 -0.1999 -0.0416  0.4573
19977TIP3    H181422   6.869   5.212   2.367 -0.1414 -0.7909  1.6264
19977TIP3    H281423   6.738   5.140   2.391 -1.4322  0.6375 -0.7994
19978TIP3   OH281424   1.268   4.237  14.104 -0.4025  0.0356  0.1389
19978TIP3    H181425   1.314   4.172  14.051 -0.2086  0.5507 -0.3320
19978TIP3    H281426   1.192   4.262  14.052  0.6265  1.7030 -0.6289
19979TIP3   OH281427   4.584   2.701   1.825  1.0146  0.3390  0.8960
19979TIP3    H181428   4.672   2.685   1.790  0.8387 -1.7006  1.2832
19979TIP3    H281429   4.529   2.637   1.781 -0.0900  0.8914  1.4501
19980TIP3   OH281430   1.687   4.048  12.696  0.2265 -0.2279  0.4166
19980TIP3    H181431   1.781   4.065  12.690  0.3176 -1.2457 -2.3105
19980TIP3    H281432   1.646   4.120  12.647 -0.2217 -1.1178 -0.5400
19981TIP3   OH281433   2.110   1.517  14.109  0.1262  0.1472 -0.1176
19981TIP3    H181434   2.134   1.483  14.022 -0.8547  0.4772 -0.5328
19981TIP3    H281435   2.025   1.559  14.095 -1.2491 -1.8633  1.4885
19982TIP3   OH281436   0.183   0.853  12.002  0.0066 -0.4621 -0.2074
19982TIP3    H181437   0.268   0.828  11.966 -0.9350 -0.5475 -2.6199
19982TIP3    H281438   0.122   0.789  11.964 -1.1979 -0.1777  1.1518
19983TIP3   OH281439   1.112   0.518  16.651 -0.1137  0.7431  0.5808
19983TIP3    H181440   1.104   0.495  16.744 -0.1675  2.1245  0.9511
19983TIP3    H281441   1.144   0.608  16.652 -0.5275  0.9251 -0.7368
19984TIP3   OH281442   4.676   0.036   0.426  0.5894 -0.6011  0.1005
19984TIP3    H181443   4.615   0.015   0.497  0.8393  0.4200  0.6394
19984TIP3    H281444   4.648   0.123   0.395  0.6734 -0.8994 -0.8532
19985TIP3   OH281445   4.460   5.713  12.589 -0.2244 -0.1895 -0.9750
19985TIP3    H181446   4.477   5.624  12.620 -0.7762 -0.3761 -1.2061
19985TIP3    H281447   4.365   5.719  12.583 -0.4119  1.4493  2.0724
19986TIP3   OH281448   2.825   4.024   4.383  0.6234  0.2478  0.0024
19986TIP3    H181449   2.845   4.081   4.309  0.5863  0.8630  0.4620
19986TIP3    H281450   2.910   4.009   4.425  1.1727 -2.4452 -1.7797
19987TIP3   OH281451   5.221   0.464  11.734 -0.1091  0.3255 -0.0089
19987TIP3    H181452   5.164   0.392  11.759 -0.7495  0.7809 -0.1437
19987TIP3    H281453   5.205   0.477  11.641 -0.9637  1.4686  0.2742
19988TIP3   OH281454   6.372   0.924   0.161  0.2322  0.6470 -0.1567
19988TIP3    H181455   6.365   0.939   0.067  0.6107  0.0560 -0.2901
19988TIP3    H281456   6.288   0.885   0.185  0.4995 -0.1576 -0.4595
19989TIP3   OH281457   4.846   4.949   4.228  0.0913  0.3275 -0.1132
19989TIP3    H181458   4.848   4.900   4.147 -0.9212 -1.4157  0.8593
19989TIP3    H281459   4.887   4.891   4.293  0.5170  1.5054  0.7101
19990TIP3   OH281460   2.583   6.305  15.182 -0.5730  0.4721 -0.0475
19990TIP3    H181461   2.508   6.342  15.136 -1.6537 -0.6109  0.7770
19990TIP3    H281462   2.631   6.381  15.214 -1.7734  1.1894  0.1110
19991TIP3   OH281463   4.763   0.909  14.303  0.1886 -0.0977 -0.5621
19991TIP3    H181464   4.777   0.955  14.386 -1.0525  1.0568 -0.9445
19991TIP3    H281465   4.740   0.979  14.241 -3.7435 -1.3021 -0.7307
19992TIP3   OH281466   5.171   5.461  13.347 -0.1095 -0.4491 -0.0807
19992TIP3    H181467   5.237   5.471  13.415 -0.7776  0.1513  0.5033
19992TIP3    H281468   5.100   5.413  13.389  0.3462 -1.9997 -0.9921
19993TIP3   OH281469   5.651   3.333  17.116 -0.3395  0.1574 -0.0696
19993TIP3    H181470   5.642   3.269  17.186  3.0114 -0.6840 -0.2437
19993TIP3    H281471   5.638   3.282  17.036 -0.1386  0.2302 -0.1492
19994TIP3   OH281472   0.163   5.906   1.861  0.3642  0.5529 -0.6184
19994TIP3    H181473   0.221   5.928   1.788  1.4674  0.8579  0.3265
19994TIP3    H281474   0.103   5.841   1.824  0.8170  0.7864 -1.8297
19995TIP3   OH281475   4.292   3.068  14.137 -0.0708  0.1578 -0.0104
19995TIP3    H181476   4.221   3.125  14.109  0.4131  1.5282  1.4083
19995TIP3    H281477   4.279   3.060  14.232  0.0234 -1.9221 -0.1349
19996TIP3   OH281478   6.410   3.943   2.472 -0.3610  0.2153 -0.4150
19996TIP3    H181479   6.444   4.007   2.409  0.8564  0.5218  0.4990
19996TIP3    H281480   6.353   3.994   2.529  1.0302  0.6506  0.6436
19997TIP3   OH281481   0.586   2.856  14.353 -0.5212 -0.1303 -0.1464
19997TIP3    H181482   0.498   2.855  14.316 -0.7833 -0.0094  0.4452
19997TIP3    H281483   0.637   2.911  14.294 -0.9542  0.1490 -0.2651
19998TIP3   OH281484   4.518   5.595   4.686  0.5875  0.4055 -0.3010
19998TIP3    H181485   4.461   5.599   4.609  0.6106 -1.4059 -0.4399
19998TIP3    H281486   4.457   5.594   4.760  0.4542 -0.6579 -0.4161
19999TIP3   OH281487   4.572   3.578   4.460  0.1124  0.2901 -0.1625
19999TIP3    H181488   4.513   3.565   4.385 -1.7396 -0.8550  1.3894
19999TIP3    H281489   4.522   3.635   4.519  1.2606  0.6339  0.4915
20000TIP3   OH281490   3.020   2.494   3.573  0.4770 -0.0653 -0.4224
20000TIP3    H181491   3.050   2.585   3.570  0.4612  0.0258  1.1940
20000TIP3    H281492   2.960   2.486   3.500 -1.8027  2.0796  1.0488
20001TIP3   OH281493   5.420   5.871   6.025 -0.3020 -0.2870 -0.2276
20001TIP3    H181494   5.352   5.838   6.083 -1.2172  0.2286 -0.9760
20001TIP3    H281495   5.476   5.796   6.008 -1.0515 -0.8838 -0.1079
20002TIP3   OH281496   5.940   0.915   3.066 -0.5858  0.0243  0.2836
20002TIP3    H181497   6.028   0.877   3.062 -0.1272  1.0518  0.3669
20002TIP3    H281498   5.882   0.839   3.074  0.3687 -0.6325  1.3427
20003TIP3   OH281499   3.475   0.887  16.966  0.3225  0.4596  0.1062
20003TIP3    H181500   3.555   0.873  16.915  0.9157 -2.6837  1.6967
20003TIP3    H281501   3.505   0.899  17.056 -0.9322 -0.7448  0.7346
20004TIP3   OH281502   0.281   5.848  12.478  0.3275 -0.2242 -0.6682
20004TIP3    H181503   0.240   5.780  12.426  0.7048 -1.0459  0.0902
20004TIP3    H281504   0.370   5.855  12.442  0.8428 -1.3399  0.3486
20005TIP3   OH281505   2.145   6.287  12.393 -0.2027  0.3146  0.2461
20005TIP3    H181506   2.123   6.324  12.307  1.0016  1.4824  0.4027
20005TIP3    H281507   2.222   6.234  12.378 -0.9063 -0.7623  0.3469
20006TIP3   OH281508   4.888   4.243   3.911 -0.2711  0.2684 -0.5125
20006TIP3    H181509   4.927   4.241   3.824  0.6266  0.1187 -0.1184
20006TIP3    H281510   4.962   4.247   3.971 -0.8637  0.0041  0.2666
20007TIP3   OH281511   2.401   4.406   2.566 -0.0993 -0.0219 -0.2829
20007TIP3    H181512   2.342   4.432   2.494 -2.2599  0.8889  1.6908
20007TIP3    H281513   2.423   4.488   2.610 -0.8400 -0.7442  1.5378
20008TIP3   OH281514   1.670   0.888   4.202 -0.6948  0.1321 -0.2640
20008TIP3    H181515   1.712   0.938   4.131 -0.3675  0.2239 -0.0086
20008TIP3    H281516   1.634   0.955   4.260  0.4542  0.1109  0.5132
20009TIP3   OH281517   5.752   1.726  13.176  0.0669 -0.1536 -0.0956
20009TIP3    H181518   5.822   1.786  13.153  0.2057  0.4077  1.7177
20009TIP3    H281519   5.795   1.652  13.218 -0.1417 -1.4094 -1.9474
20010TIP3   OH281520   0.669   5.486   2.804  0.4893 -0.1449 -0.6747
20010TIP3    H181521   0.743   5.542   2.830 -0.7302  2.2173 -2.0189
20010TIP3    H281522   0.604   5.499   2.872 -0.2116  0.9686 -1.5321
20011TIP3   OH281523   2.374   5.384  11.603 -0.5764  0.1135  0.3811
20011TIP3    H181524   2.431   5.443  11.652 -0.7194  1.6607 -1.2261
20011TIP3    H281525   2.289   5.429  11.600 -1.6693 -1.6940  1.8842
20012TIP3   OH281526   2.185   4.601   1.397 -0.1584  0.2248  0.5206
20012TIP3    H181527   2.228   4.655   1.463  3.6548 -1.0005 -0.6926
20012TIP3    H281528   2.212   4.512   1.418 -2.5810 -0.7676 -0.1741
20013TIP3   OH281529   3.258   4.032  13.499 -0.6294 -0.5274 -0.0971
20013TIP3    H181530   3.194   4.094  13.464 -2.6783 -2.3552  0.2070
20013TIP3    H281531   3.210   3.983  13.566  1.9155 -0.0727  2.2536
20014TIP3   OH281532   1.765   2.018   3.804 -0.0023 -0.6096 -0.1536
20014TIP3    H181533   1.684   2.065   3.822  0.0003 -1.3689  2.1533
20014TIP3    H281534   1.830   2.087   3.790 -0.9723  0.0038 -1.9955
20015TIP3   OH281535   3.762   6.727  12.441 -0.6327 -0.0408 -0.1046
20015TIP3    H181536   3.849   6.722  12.402 -0.8258  1.4525 -0.8074
20015TIP3    H281537   3.773   6.691  12.529  0.0896 -2.3335 -1.0456
20016TIP3   OH281538   2.264   0.332  12.511  0.0139 -0.0267 -0.5013
20016TIP3    H181539   2.203   0.402  12.490 -0.8535 -0.8683 -0.8324
20016TIP3    H281540   2.334   0.376  12.560 -0.2318  1.1607 -1.1636
20017TIP3   OH281541   1.752   0.920  16.865 -0.1488 -0.7386 -0.0603
20017TIP3    H181542   1.671   0.930  16.815  0.7362  0.4808 -1.3487
20017TIP3    H281543   1.771   1.009  16.897  0.9772 -0.8815 -0.3055
20018TIP3   OH281544   0.471   4.809  14.276 -0.0490 -0.1495  0.1978
20018TIP3    H181545   0.452   4.902  14.262 -0.5274 -0.1317  0.8835
20018TIP3    H281546   0.537   4.809  14.346  1.8230 -0.2480 -1.4704
20019TIP3   OH281547   5.460   6.060   2.684 -0.1948  0.2695  0.1389
20019TIP3    H181548   5.478   5.983   2.738  1.1254  0.8353  0.5255
20019TIP3    H281549   5.369   6.049   2.657  0.0578 -1.5825 -0.0646
20020TIP3   OH281550   5.999   1.116   5.073 -0.4379 -0.2688  0.1862
20020TIP3    H181551   6.033   1.068   4.996 -0.4507 -1.2499  0.7781
20020TIP3    H281552   5.914   1.149   5.044 -0.2011 -0.1542 -0.4072
20021TIP3   OH281553   1.127   0.776   5.971 -0.1266  0.0960  0.8695
20021TIP3    H181554   1.169   0.786   6.057 -1.1155 -2.3593  1.7493
20021TIP3    H281555   1.092   0.862   5.951  0.0877  0.7291  2.9838
20022TIP3   OH281556   4.167   4.427  15.566 -0.0524 -0.3288  0.2629
20022TIP3    H181557   4.080   4.429  15.605 -0.2038 -1.4860  0.0198
20022TIP3    H281558   4.177   4.513  15.525 -0.0909  0.7335  2.3731
20023TIP3   OH281559   1.726   3.882   3.041  0.0392  0.4840 -0.6392
20023TIP3    H181560   1.764   3.798   3.016 -2.8289 -0.6503 -1.6649
20023TIP3    H281561   1.797   3.945   3.028  1.3672 -1.3300 -3.0673
20024TIP3   OH281562   0.433   5.772   3.784  0.0299 -0.5602  0.0698
20024TIP3    H181563   0.361   5.722   3.824 -0.6790 -0.3218 -0.8539
20024TIP3    H281564   0.398   5.799   3.699  2.6196 -4.0302 -2.3900
20025TIP3   OH281565   5.567   2.712   4.402  0.1088  0.3612  0.0413
20025TIP3    H181566   5.617   2.761   4.467  0.7474 -1.7941  1.2748
20025TIP3    H281567   5.536   2.635   4.449 -1.2300 -0.2114 -1.6872
20026TIP3   OH281568   5.963   5.171   1.449 -0.8341 -0.0785 -0.1029
20026TIP3    H181569   5.891   5.146   1.507 -0.3719 -3.1631 -0.6477
20026TIP3    H281570   5.920   5.209   1.373 -1.8256 -0.6370  0.1560
20027TIP3   OH281571   2.479   1.965   1.765 -0.8238  0.6721  0.1997
20027TIP3    H181572   2.407   1.923   1.813  0.9151 -0.5828  1.8473
20027TIP3    H281573   2.492   2.048   1.809  0.4002 -0.2374  1.6457
20028TIP3   OH281574   5.575   5.187   0.650 -0.2138 -0.0529  0.0555
20028TIP3    H181575   5.495   5.158   0.695  0.4900 -0.8214  0.8615
20028TIP3    H281576   5.600   5.267   0.697  0.2554 -0.5905  0.7428
20029TIP3   OH281577   0.448   6.545  11.275  0.0912  0.0240 -0.1466
20029TIP3    H181578   0.388   6.490  11.224 -1.6528  0.1733  1.6228
20029TIP3    H281579   0.408   6.633  11.272  0.3837  0.1992  0.7774
20030TIP3   OH281580   3.379   2.674  15.836  0.1957 -0.0789 -0.0983
20030TIP3    H181581   3.318   2.682  15.762  0.7667  2.1368 -0.4162
20030TIP3    H281582   3.462   2.649  15.796  0.2505  0.0972 -0.0991
20031TIP3   OH281583   5.957   1.675   5.588  0.1887 -0.1651 -0.7174
20031TIP3    H181584   5.941   1.651   5.497 -1.6985 -2.3037  0.0739
20031TIP3    H281585   5.872   1.704   5.620  1.0840  1.7530  0.1091
20032TIP3   OH281586   0.438   1.156   3.315  0.8392  0.1333 -0.3784
20032TIP3    H181587   0.365   1.199   3.271  0.1795 -1.0911 -0.5500
20032TIP3    H281588   0.410   1.064   3.322  2.1337 -0.2497  0.0404
20033TIP3   OH281589   3.762   1.369  11.527 -0.3589 -0.1197 -0.2738
20033TIP3    H181590   3.691   1.432  11.514  0.6172  0.7048 -1.9029
20033TIP3    H281591   3.731   1.314  11.599 -2.1346  0.9276 -0.1542
20034TIP3   OH281592   0.416   5.327   2.993  0.2345 -0.1851  0.1553
20034TIP3    H181593   0.434   5.241   2.955 -2.3361 -0.9644  0.5536
20034TIP3    H281594   0.385   5.380   2.920 -0.6459 -0.4037  0.3576
20035TIP3   OH281595   6.342   2.520   5.190 -0.0877  0.0613  0.3621
20035TIP3    H181596   6.258   2.474   5.186 -0.2895  0.3934  0.8441
20035TIP3    H281597   6.324   2.607   5.154  0.9150 -1.0836 -3.4105
20036TIP3   OH281598   4.337   0.249  15.005  0.0448  0.1478 -0.0979
20036TIP3    H181599   4.373   0.265  15.093 -0.0904  0.5715 -0.1181
20036TIP3    H281600   4.255   0.202  15.021  0.4813 -0.6066 -0.0406
20037TIP3   OH281601   4.419   1.469  11.303  0.2178  0.2927 -0.0256
20037TIP3    H181602   4.494   1.514  11.264  1.6058 -1.5332  0.4423
20037TIP3    H281603   4.418   1.499  11.394  2.3140 -1.9291  0.8176
20038TIP3   OH281604   3.545   4.630  16.393  0.2331 -0.2358 -0.2510
20038TIP3    H181605   3.455   4.606  16.371  0.0698  0.6027 -0.5200
20038TIP3    H281606   3.538   4.677  16.476  0.7359 -2.4912  1.1815
20039TIP3   OH281607   5.245   0.240  16.700  0.1651 -0.8341 -0.2035
20039TIP3    H181608   5.242   0.333  16.678  1.2324 -0.2691  1.8067
20039TIP3    H281609   5.154   0.212  16.697 -0.0418 -0.1802 -2.3968
20040TIP3   OH281610   5.793   0.619   5.455 -0.0803  0.3136  0.0704
20040TIP3    H181611   5.713   0.644   5.409  0.3115  2.1651  0.3243
20040TIP3    H281612   5.807   0.689   5.519  0.7468 -0.9315  1.3105
20041TIP3   OH281613   1.491   3.008   5.406 -0.1881 -0.1938 -0.4751
20041TIP3    H181614   1.433   2.957   5.462 -1.4264  0.7208 -0.8628
20041TIP3    H281615   1.559   2.947   5.379  0.0992 -0.8075  1.5094
20042TIP3   OH281616   4.297   6.731   1.561 -0.2687 -0.1765  0.3821
20042TIP3    H181617   4.230   6.770   1.505 -0.9198  0.9245  1.8695
20042TIP3    H281618   4.320   6.649   1.517 -0.9754  0.4783 -1.3092
20043TIP3   OH281619   5.907   5.983   1.454 -0.3801 -0.1226  0.7031
20043TIP3    H181620   5.872   5.991   1.542  0.9824  0.7426  1.2057
20043TIP3    H281621   5.865   6.054   1.405 -1.4381 -0.8475  0.5193
20044TIP3   OH281622   3.137   6.655  13.669 -0.4017  0.6634  0.4494
20044TIP3    H181623   3.129   6.559  13.669  0.3489  0.5815 -0.6484
20044TIP3    H281624   3.072   6.684  13.732 -1.2034 -0.5343  0.2168
20045TIP3   OH281625   0.966   0.610   3.071 -0.0169 -0.4783  0.0288
20045TIP3    H181626   0.882   0.655   3.083 -0.2760 -0.5869 -1.1743
20045TIP3    H281627   1.031   0.671   3.104 -0.5470 -0.2298  0.6317
20046TIP3   OH281628   2.456   2.530  12.288 -0.4479  0.1655 -0.2956
20046TIP3    H181629   2.428   2.615  12.322 -3.9152 -0.5037 -1.1415
20046TIP3    H281630   2.375   2.487  12.261  1.4420 -2.2553 -2.6264
20047TIP3   OH281631   5.358   0.390   4.686  0.1477 -0.0949  0.6486
20047TIP3    H181632   5.351   0.486   4.685 -1.1230 -0.1703 -0.8938
20047TIP3    H281633   5.287   0.362   4.743 -0.6849 -0.1608 -0.3881
20048TIP3   OH281634   0.483   1.636   3.877  0.0144  0.0890 -0.3419
20048TIP3    H181635   0.493   1.684   3.960  0.8626 -2.0473  0.8824
20048TIP3    H281636   0.408   1.677   3.834  0.6160  2.4033  0.6423
20049TIP3   OH281637   4.839   2.303   5.595 -0.2905  0.2987 -0.3459
20049TIP3    H181638   4.812   2.345   5.513 -1.0358  0.7838  0.1329
20049TIP3    H281639   4.874   2.218   5.569 -1.7205 -0.0973 -1.0590
20050TIP3   OH281640   6.031   2.170   1.826 -0.2118  0.0400 -0.0908
20050TIP3    H181641   5.984   2.154   1.908 -0.3435 -0.0831 -0.1896
20050TIP3    H281642   6.048   2.264   1.826  0.1153 -0.0191  0.2523
20051TIP3   OH281643   5.791   1.507   5.451  0.0891  0.2229  0.1374
20051TIP3    H181644   5.749   1.591   5.429  0.2823  1.2518  3.1242
20051TIP3    H281645   5.720   1.455   5.488  0.2818 -0.3421 -0.2838
20052TIP3   OH281646   4.067   4.474   5.004  0.2333  0.1732 -0.0856
20052TIP3    H181647   4.152   4.495   4.965  1.1227 -0.7007  1.2524
20052TIP3    H281648   4.004   4.526   4.955  1.5581  0.9510 -1.0370
20053TIP3   OH281649   5.647   4.489   1.873 -0.1995  0.0477 -0.1720
20053TIP3    H181650   5.690   4.404   1.881 -0.1261 -0.0342 -1.2824
20053TIP3    H281651   5.585   4.493   1.946 -1.9042 -1.9759 -1.3860
20054TIP3   OH281652   6.676   5.618  16.846 -0.0857 -0.3251 -0.0580
20054TIP3    H181653   6.668   5.636  16.752  0.8551  0.3968 -0.0209
20054TIP3    H281654   6.660   5.524  16.854 -0.3534 -0.3607 -0.9182
20055TIP3   OH281655   5.787   0.656  16.220  0.1610  0.0719 -0.4671
20055TIP3    H181656   5.761   0.732  16.170  1.4591 -0.4521 -2.0230
20055TIP3    H281657   5.710   0.599  16.220 -0.1695  0.5162 -1.0164
20056TIP3   OH281658   5.593   5.135   2.734  0.2127  0.2236  0.2101
20056TIP3    H181659   5.628   5.045   2.734  0.7179  0.4004 -0.6157
20056TIP3    H281660   5.592   5.160   2.826 -1.4563 -1.1938  0.6284
20057TIP3   OH281661   4.747   5.498  10.841  0.3556 -0.2259  0.1639
20057TIP3    H181662   4.812   5.499  10.771 -0.3603 -0.8329 -0.5289
20057TIP3    H281663   4.665   5.478  10.797 -0.3155  0.5357  1.0215
20058TIP3   OH281664   3.922   4.934  13.772 -0.1360 -0.0931  0.0396
20058TIP3    H181665   3.849   4.997  13.779 -1.1541 -1.1549 -0.6718
20058TIP3    H281666   3.936   4.924  13.678 -2.4065 -3.5235 -0.1124
20059TIP3   OH281667   3.149   0.169   0.947  0.3931 -0.0070  0.3417
20059TIP3    H181668   3.103   0.241   0.904 -0.4030 -2.1328 -2.7332
20059TIP3    H281669   3.085   0.131   1.007 -0.0931  0.2258 -0.0256
20060TIP3   OH281670   1.537   2.192   6.284 -0.7935  0.2574  0.1779
20060TIP3    H181671   1.594   2.224   6.354  1.0372  0.0597 -1.1436
20060TIP3    H281672   1.454   2.237   6.298  0.7399  3.3118  0.1578
20061TIP3   OH281673   5.477   2.452   0.164  0.2349 -0.2083 -0.0220
20061TIP3    H181674   5.421   2.512   0.214  1.3554  0.3034  0.6563
20061TIP3    H281675   5.539   2.418   0.228  0.2595 -1.3238 -0.6204
20062TIP3   OH281676   1.200   6.637   2.917  0.7424 -0.9931  0.0785
20062TIP3    H181677   1.237   6.608   3.000  2.9973 -2.3145 -1.2541
20062TIP3    H281678   1.127   6.577   2.901  0.1225 -0.5578  1.1948
20063TIP3   OH281679   4.644   0.782   5.338  0.0042  0.0580  0.0042
20063TIP3    H181680   4.615   0.723   5.408  0.8446 -0.6704 -0.2549
20063TIP3    H281681   4.739   0.771   5.334  0.4040  2.5381  0.9499
20064TIP3   OH281682   6.799   4.762   4.898 -0.0739 -0.1713 -0.2351
20064TIP3    H181683   6.760   4.821   4.833  0.2469  0.2988 -0.0051
20064TIP3    H281684   6.797   4.811   4.980 -1.2073 -1.0749  0.2909
20065TIP3   OH281685   6.544   6.822  11.707 -0.2401 -0.0221 -0.2215
20065TIP3    H181686   6.620   6.837  11.652 -0.0218  0.0034  0.0863
20065TIP3    H281687   6.502   6.744  11.670 -0.3290  0.2372 -0.6751
20066TIP3   OH281688   0.161   4.395   1.657 -0.3475 -0.1017  0.2966
20066TIP3    H181689   0.142   4.362   1.570  0.0493 -1.2416  0.6235
20066TIP3    H281690   0.229   4.461   1.643  1.2343 -1.7322 -0.0971
20067TIP3   OH281691   3.982   3.882   2.784 -0.3789  0.3615 -0.3728
20067TIP3    H181692   4.011   3.791   2.794 -3.2598 -0.5582  0.9744
20067TIP3    H281693   4.017   3.909   2.699  0.9101 -1.8654 -0.6369
20068TIP3   OH281694   5.823   4.297  15.422  0.5573  0.4474  0.2915
20068TIP3    H181695   5.879   4.346  15.362  0.8944 -0.6419 -0.3248
20068TIP3    H281696   5.813   4.212  15.380 -0.5126  0.1933  1.0259
20069TIP3   OH281697   0.497   1.013  15.162  0.0483  0.0354 -0.5945
20069TIP3    H181698   0.424   0.975  15.211  1.0801 -1.8571 -0.4302
20069TIP3    H281699   0.487   1.107  15.173 -2.8510 -0.1195 -1.3299
20070TIP3   OH281700   0.464   2.761   3.304  0.1881 -0.4305  0.0244
20070TIP3    H181701   0.388   2.756   3.245 -0.0375 -2.6617  0.3930
20070TIP3    H281702   0.532   2.805   3.253 -0.5168 -0.8507 -1.3204
20071TIP3   OH281703   2.644   5.146  11.530  0.0455  0.0359  0.0196
20071TIP3    H181704   2.690   5.216  11.577  1.0875  1.2162 -2.5665
20071TIP3    H281705   2.710   5.078  11.517 -0.0373  0.0100 -0.2781
20072TIP3   OH281706   0.363   2.147   4.708 -0.1845 -0.5627 -0.2729
20072TIP3    H181707   0.328   2.230   4.742  1.0114 -0.1701  0.0533
20072TIP3    H281708   0.302   2.081   4.738  1.2362 -0.3761  3.5384
20073TIP3   OH281709   0.289   1.842  15.528 -0.0558 -0.3259  0.4588
20073TIP3    H181710   0.212   1.812  15.576  0.7707 -0.7351  1.5743
20073TIP3    H281711   0.357   1.852  15.596  1.0624 -0.6236 -0.5807
20074TIP3   OH281712   4.088   0.064   0.878 -0.1408  0.3115 -0.0922
20074TIP3    H181713   4.081   0.140   0.935 -0.6607 -0.5708  1.0627
20074TIP3    H281714   3.999   0.031   0.870  0.4177 -1.9879  2.0315
20075TIP3   OH281715   2.922   4.622   1.507 -0.0204 -0.0079  0.1052
20075TIP3    H181716   2.939   4.615   1.601  0.0214  1.6342  0.2461
20075TIP3    H281717   2.984   4.688   1.476 -0.6934  0.1744 -0.8963
20076TIP3   OH281718   1.941   1.695  12.006  0.1110  0.0443 -0.5735
20076TIP3    H181719   1.913   1.616  12.052  0.2256 -0.8900 -2.0325
20076TIP3    H281720   1.915   1.681  11.915 -0.2653  1.8989 -0.8016
20077TIP3   OH281721   0.268   5.345  12.548  0.5127 -0.0109 -0.0308
20077TIP3    H181722   0.340   5.396  12.511 -0.5953  1.0137 -0.8611
20077TIP3    H281723   0.202   5.411  12.572 -1.1413 -1.0444 -1.5126
20078TIP3   OH281724   1.742   5.601  16.066  0.4885  0.1165  0.0683
20078TIP3    H181725   1.744   5.521  16.120 -1.9522  0.1357  0.3234
20078TIP3    H281726   1.670   5.586  16.005  0.9387  1.5678 -0.8560
20079TIP3   OH281727   0.735   3.174  10.992 -0.1297  0.2556 -0.2871
20079TIP3    H181728   0.822   3.139  11.009  0.2797 -0.2903 -3.0629
20079TIP3    H281729   0.751   3.262  10.958 -0.6598  0.0958 -0.9524
20080TIP3   OH281730   1.971   4.098   5.452 -0.1233 -0.4434 -0.9205
20080TIP3    H181731   2.021   4.019   5.468  1.5554  0.6512 -0.5056
20080TIP3    H281732   1.880   4.073   5.468  0.4706 -2.0225  0.1605
20081TIP3   OH281733   6.363   4.081  13.487 -0.3396 -0.4039 -0.2076
20081TIP3    H181734   6.290   4.136  13.516  0.8691  0.8080  0.7019
20081TIP3    H281735   6.326   4.025  13.420 -1.8767  0.8855 -0.4950
20082TIP3   OH281736   1.032   5.081   0.535 -0.2612 -0.2696 -0.5979
20082TIP3    H181737   1.086   5.006   0.562  0.7329  0.0012 -1.7291
20082TIP3    H281738   0.942   5.051   0.547  0.1203 -1.1587  0.2412
20083TIP3   OH281739   5.970   2.800   2.230  0.2101 -0.1260  0.3073
20083TIP3    H181740   5.947   2.877   2.178 -1.6812 -1.6941 -1.3363
20083TIP3    H281741   6.066   2.798   2.229  0.2640  1.1786 -1.1429
20084TIP3   OH281742   5.969   2.988   6.087 -0.4656 -0.2557  0.1921
20084TIP3    H181743   5.952   2.933   6.164 -2.3164  0.6915  0.5014
20084TIP3    H281744   5.894   2.973   6.029  0.2363  0.0731 -0.8404
20085TIP3   OH281745   0.483   5.638   1.207 -0.0657 -0.4454 -0.1918
20085TIP3    H181746   0.492   5.614   1.299 -0.0155  4.9768  1.5905
20085TIP3    H281747   0.572   5.662   1.181 -0.3040 -0.6791 -1.2511
20086TIP3   OH281748   1.931   6.667   3.398  0.3403  0.3532 -0.0942
20086TIP3    H181749   1.943   6.644   3.306  0.6864  1.3954 -0.3211
20086TIP3    H281750   2.013   6.709   3.423  0.1982  0.2035  0.6646
20087TIP3   OH281751   5.995   2.519  12.365  0.3335 -0.0903 -0.2072
20087TIP3    H181752   6.019   2.485  12.451  0.3075  0.9696  0.2311
20087TIP3    H281753   5.983   2.441  12.311  1.7316 -0.7359  0.3668
20088TIP3   OH281754   5.369   5.899  14.137  0.2754 -0.7148  0.9039
20088TIP3    H181755   5.460   5.907  14.167 -0.0489 -1.8556  2.2959
20088TIP3    H281756   5.327   5.979  14.168  0.6795 -0.4172  0.6982
20089TIP3   OH281757   4.262   3.141  14.415 -0.0493 -0.3126  0.2710
20089TIP3    H181758   4.345   3.187  14.429 -0.2569 -0.1129  0.8585
20089TIP3    H281759   4.197   3.195  14.459 -0.7864  0.4717 -1.6674
20090TIP3   OH281760   4.086   6.346   2.392 -0.5923  0.1637 -0.2869
20090TIP3    H181761   4.068   6.252   2.397 -1.1235  0.1086 -2.3333
20090TIP3    H281762   3.999   6.387   2.392 -0.4342  0.5227 -0.9055
20091TIP3   OH281763   5.832   3.317   2.723  0.1108  0.3748 -0.2354
20091TIP3    H181764   5.755   3.262   2.712 -0.0456  0.5412  0.0131
20091TIP3    H281765   5.882   3.274   2.793 -0.3556  0.9178  0.4523
20092TIP3   OH281766   2.058   1.253  16.672  0.2150  0.5636  0.1343
20092TIP3    H181767   2.103   1.301  16.742  1.1144  0.7919 -0.5728
20092TIP3    H281768   2.128   1.204  16.628 -0.3762  0.2269 -0.4392
20093TIP3   OH281769   6.256   0.594   2.505 -1.0150  0.2122  0.1404
20093TIP3    H181770   6.239   0.607   2.598 -0.7024 -1.7183  0.5116
20093TIP3    H281771   6.234   0.678   2.464 -1.3688  1.0202  1.9135
20094TIP3   OH281772   5.901   1.607  16.602  0.0073 -0.4703  0.3213
20094TIP3    H181773   5.957   1.545  16.647 -0.4778 -1.5147 -0.4791
20094TIP3    H281774   5.862   1.660  16.672  1.2797 -0.3115  0.9340
20095TIP3   OH281775   6.596   2.768  11.216  0.2445  0.2514 -0.0824
20095TIP3    H181776   6.609   2.679  11.250 -3.6913 -2.0451 -3.6871
20095TIP3    H281777   6.660   2.776  11.145 -2.2180 -1.7967 -2.7644
20096TIP3   OH281778   1.902   2.816   3.448  0.3074 -0.5176  0.3015
20096TIP3    H181779   1.813   2.791   3.422  0.1847  0.9848 -0.8190
20096TIP3    H281780   1.903   2.911   3.445  2.1284 -0.5081 -0.3057
20097TIP3   OH281781   5.309   2.183   4.600  0.0112 -0.4619 -0.4897
20097TIP3    H181782   5.348   2.115   4.656 -0.1962 -1.2996 -1.3250
20097TIP3    H281783   5.236   2.217   4.651  0.6735 -0.2174  0.3148
20098TIP3   OH281784   6.443   2.478  12.532  0.1947 -0.3732 -0.3042
20098TIP3    H181785   6.419   2.385  12.526 -2.7172  0.1865  0.7704
20098TIP3    H281786   6.431   2.511  12.443  1.6585 -1.0690 -0.7865
20099TIP3   OH281787   3.342   1.001  15.034 -0.1393 -0.1684  0.6591
20099TIP3    H181788   3.405   1.050  14.981 -1.1038  2.0874  1.4840
20099TIP3    H281789   3.308   0.934  14.975  2.3450 -0.9070 -0.0634
20100TIP3   OH281790   0.531   2.903   0.269 -0.6326 -0.7863 -0.0866
20100TIP3    H181791   0.450   2.953   0.278  0.2280  0.8794 -1.1162
20100TIP3    H281792   0.569   2.902   0.357 -0.5020  0.7217 -0.0998
20101TIP3   OH281793   3.327   2.151  16.040 -0.0257  0.1242  0.1852
20101TIP3    H181794   3.350   2.244  16.051 -1.0246  0.6114 -1.4228
20101TIP3    H281795   3.267   2.150  15.965  1.5772 -2.0560 -1.1895
20102TIP3   OH281796   0.221   3.201  13.395 -0.1530  0.4099 -0.1755
20102TIP3    H181797   0.307   3.204  13.437 -0.1764  1.1083 -0.1590
20102TIP3    H281798   0.172   3.136  13.445  0.6219 -0.5961 -0.7006
20103TIP3   OH281799   5.385   6.511   4.712 -0.6832 -0.5283  0.3664
20103TIP3    H181800   5.296   6.507   4.676  0.1611  0.9175 -2.1037
20103TIP3    H281801   5.433   6.445   4.663 -0.2878 -1.1096  1.4982
20104TIP3   OH281802   4.631   1.578   0.109  0.9659 -0.0707  0.3451
20104TIP3    H181803   4.548   1.531   0.113  1.7305 -1.4062  1.1511
20104TIP3    H281804   4.691   1.517   0.066  2.0147  0.0978  1.5109
20105TIP3   OH281805   2.777   1.511   3.862 -0.0414 -0.5232 -0.4942
20105TIP3    H181806   2.766   1.575   3.791  1.6850 -2.2640 -2.4770
20105TIP3    H281807   2.689   1.474   3.874 -0.6307  0.7228 -0.7743
20106TIP3   OH281808   1.324   3.135   4.090 -0.2113  0.7895  0.6879
20106TIP3    H181809   1.356   3.211   4.140 -0.4663  2.0268 -0.9431
20106TIP3    H281810   1.278   3.174   4.016 -1.5100 -0.9890  0.5173
20107TIP3   OH281811   5.984   1.557   1.089  0.2888 -0.5539  0.2576
20107TIP3    H181812   5.919   1.574   1.157  0.1694  0.2100 -0.0408
20107TIP3    H281813   5.933   1.520   1.017 -0.4700  3.0218 -1.2681
20108TIP3   OH281814   2.478   5.305  16.209 -0.1900 -0.1004 -0.0750
20108TIP3    H181815   2.394   5.261  16.223 -0.1881 -1.1257 -2.8130
20108TIP3    H281816   2.466   5.355  16.128  1.3953  0.9785  0.3052
20109TIP3   OH281817   6.735   2.958  11.888 -0.2339  0.1374  0.5551
20109TIP3    H181818   6.708   2.971  11.796  0.3147 -1.1322  0.1896
20109TIP3    H281819   6.728   2.863  11.901 -0.0601  0.2795  1.7640
20110TIP3   OH281820   6.042   2.257  13.583 -0.1339  0.2938  0.1303
20110TIP3    H181821   5.973   2.192  13.599 -1.0788  0.9570 -1.0343
20110TIP3    H281822   6.072   2.237  13.495 -0.5698  1.5331 -0.3123
20111TIP3   OH281823   0.032   2.902  15.717 -0.5321 -0.0673 -0.0850
20111TIP3    H181824   0.029   2.857  15.801 -0.8049  1.4849  0.7813
20111TIP3    H281825   0.086   2.846  15.661  0.4756 -0.6490  1.4209
20112TIP3   OH281826   3.172   5.102  12.008 -0.3024  0.1458  0.0010
20112TIP3    H181827   3.251   5.072  12.052  1.9353  2.8376 -1.7885
20112TIP3    H281828   3.125   5.153  12.074  2.1414  2.7321 -0.0476
20113TIP3   OH281829   5.509   0.947   2.951  0.4739  0.5637 -0.1216
20113TIP3    H181830   5.595   0.983   2.971 -0.0827  0.1456  3.8871
20113TIP3    H281831   5.448   0.999   3.003 -1.0208 -2.3787  1.3583
20114TIP3   OH281832   0.552   4.374   1.160 -0.1091  0.2705  0.2884
20114TIP3    H181833   0.559   4.416   1.074 -0.5339  1.7739  0.9576
20114TIP3    H281834   0.518   4.287   1.142 -1.5926  1.0717 -0.9566
20115TIP3   OH281835   6.575   0.321   0.671 -0.9510  0.3520  0.5680
20115TIP3    H181836   6.491   0.296   0.632 -0.5058  1.6085 -1.2834
20115TIP3    H281837   6.589   0.411   0.643  1.2882 -0.0091  0.3611
20116TIP3   OH281838   5.444   4.162   4.068 -0.7382  0.0341 -0.0941
20116TIP3    H181839   5.460   4.247   4.108 -0.0505 -0.0224 -0.2391
20116TIP3    H281840   5.489   4.100   4.124  1.1373  0.0558 -1.4840
20117TIP3   OH281841   5.296   3.896   4.508 -0.0483 -0.1962 -0.0618
20117TIP3    H181842   5.383   3.924   4.536  0.5325 -0.8242 -1.2032
20117TIP3    H281843   5.303   3.802   4.496 -1.5739 -0.7185  2.2500
20118TIP3   OH281844   4.361   2.729   0.924 -0.5979 -0.2808 -0.3066
20118TIP3    H181845   4.395   2.739   1.013  0.4265 -1.1254 -0.5774
20118TIP3    H281846   4.282   2.783   0.922  0.5770  1.5785  0.4427
20119TIP3   OH281847   6.454   3.723  12.464 -0.6387 -0.1503  0.0950
20119TIP3    H181848   6.518   3.671  12.415  0.3057  2.3009 -1.4340
20119TIP3    H281849   6.369   3.698  12.428 -0.1801 -0.3838 -0.8412
20120TIP3   OH281850   3.714   2.009  14.108  0.0593 -0.4772 -0.1523
20120TIP3    H181851   3.705   2.054  14.192 -1.8469  0.0549 -0.5987
20120TIP3    H281852   3.659   2.059  14.048  1.2015 -0.9751 -1.6997
20121TIP3   OH281853   0.612   2.385   3.622  0.0103  0.1004 -0.2269
20121TIP3    H181854   0.646   2.355   3.538  1.2037 -0.7182  0.5020
20121TIP3    H281855   0.592   2.477   3.609  0.9635  0.1914 -1.1854
20122TIP3   OH281856   4.609   0.441   1.835 -0.4691  0.3246 -0.0262
20122TIP3    H181857   4.532   0.495   1.818  0.8909  2.7837  0.9919
20122TIP3    H281858   4.668   0.500   1.883  1.0075 -2.2239  1.4755
20123TIP3   OH281859   4.379   0.985   2.811 -0.2721  0.1303  0.1657
20123TIP3    H181860   4.413   0.998   2.723  1.5916  0.6499  0.9208
20123TIP3    H281861   4.360   0.892   2.816  0.4836 -0.0651 -0.4872
20124TIP3   OH281862   3.312   2.973  12.591 -0.3376 -0.8075  0.0921
20124TIP3    H181863   3.407   2.979  12.579 -0.1526 -2.0883  0.6863
20124TIP3    H281864   3.275   3.000  12.508  0.5993 -1.3886 -0.5370
20125TIP3   OH281865   3.586   5.616  13.884  0.5064 -0.1156  0.0640
20125TIP3    H181866   3.589   5.599  13.790  2.3792 -0.0700  0.0850
20125TIP3    H281867   3.537   5.697  13.893 -1.8077 -1.3489 -0.6457
20126TIP3   OH281868   2.706   1.338   2.278 -0.2240  0.0341 -0.1905
20126TIP3    H181869   2.637   1.280   2.247 -1.1944  0.2997  1.3596
20126TIP3    H281870   2.782   1.281   2.290 -1.0579 -0.8860  0.9573
20127TIP3   OH281871   0.298   1.743  14.294  1.0723  0.2018 -0.9438
20127TIP3    H181872   0.387   1.775  14.279  0.9886  0.8391 -0.1433
20127TIP3    H281873   0.261   1.804  14.357 -0.5408  0.9771 -2.5656
20128TIP3   OH281874   1.517   3.088   3.460 -0.1365  0.0942  0.5942
20128TIP3    H181875   1.584   3.080   3.528  1.3126  0.3509 -0.7471
20128TIP3    H281876   1.474   3.172   3.478  0.8103  0.5617  0.6882
20129TIP3   OH281877   5.560   0.951   2.520  0.2458  0.5163 -0.3821
20129TIP3    H181878   5.615   0.875   2.504 -0.8911 -0.4190  0.0154
20129TIP3    H281879   5.585   1.014   2.452  1.0535 -0.2950 -0.8459
20130TIP3   OH281880   6.774   1.376  16.736 -0.3612  0.3645 -0.0635
20130TIP3    H181881   6.744   1.316  16.803 -0.5659  0.7504  0.1946
20130TIP3    H281882   6.783   1.322  16.657  1.8068 -0.5428  0.7122
20131TIP3   OH281883   6.014   3.970  16.613  0.0985  0.2880 -0.2982
20131TIP3    H181884   6.086   3.957  16.552  0.2502 -1.9717  0.2764
20131TIP3    H281885   6.051   3.950  16.699 -0.4552  2.1322  0.4193
20132TIP3   OH281886   4.256   5.884   3.168  0.1522 -0.0582  0.1260
20132TIP3    H181887   4.193   5.876   3.097  0.1765 -2.3938  0.2956
20132TIP3    H281888   4.335   5.842   3.135  1.3961  2.0577  0.2399
20133TIP3   OH281889   1.503   2.048  15.053 -0.1927  0.3594 -0.0132
20133TIP3    H181890   1.448   2.023  14.978 -1.3631  2.0630  0.2073
20133TIP3    H281891   1.470   1.995  15.125  0.3633 -0.6666 -0.4883
20134TIP3   OH281892   1.641   0.671   4.011 -0.0120  0.2874  0.4975
20134TIP3    H181893   1.567   0.701   3.959  0.1610 -0.6420 -0.3358
20134TIP3    H281894   1.663   0.745   4.068  0.0970  1.5212 -1.0900
20135TIP3   OH281895   4.011   5.346  14.346  0.6306  0.4767 -0.5682
20135TIP3    H181896   3.934   5.369  14.294 -0.8506 -2.1240  0.2840
20135TIP3    H281897   4.040   5.429  14.383 -2.9300  1.3891  0.5934
20136TIP3   OH281898   2.791   0.888   2.479  0.0872  0.0971  0.9600
20136TIP3    H181899   2.794   0.927   2.392 -0.1337  2.6806  2.0235
20136TIP3    H281900   2.698   0.888   2.502  0.1163 -0.8260  1.1100
20137TIP3   OH281901   4.490   6.730  16.420 -0.2280 -0.4516 -0.2891
20137TIP3    H181902   4.538   6.686  16.490 -0.0168  1.1362  0.6209
20137TIP3    H281903   4.557   6.778  16.370 -0.5875 -0.0846 -0.4308
20138TIP3   OH281904   6.205   4.498   5.312  0.0986 -0.1338  0.9337
20138TIP3    H181905   6.271   4.469   5.375  1.3629  0.7793  0.0755
20138TIP3    H281906   6.178   4.584   5.343 -0.5798 -0.4141  1.1637
20139TIP3   OH281907   1.914   3.498  11.554  0.1974 -0.4699  0.2472
20139TIP3    H181908   2.001   3.487  11.592  0.3638 -0.6504 -0.1825
20139TIP3    H281909   1.880   3.578  11.595  0.0821 -1.0462  1.3068
20140TIP3   OH281910   5.989   5.313  13.618  0.1945 -0.3585 -0.3159
20140TIP3    H181911   5.985   5.305  13.523  0.0022 -2.3478 -0.1874
20140TIP3    H281912   6.064   5.260  13.644  0.7305  0.7974  0.6121
20141TIP3   OH281913   3.554   1.711  13.070 -0.1122 -0.1489  0.3794
20141TIP3    H181914   3.534   1.663  13.150  2.3184 -2.3155 -0.1701
20141TIP3    H281915   3.470   1.721  13.026 -1.1941 -0.7767  2.1980
20142TIP3   OH281916   6.073   3.354   5.701 -0.2739  0.2282  0.2184
20142TIP3    H181917   6.054   3.293   5.772  0.8803  1.5379  1.7251
20142TIP3    H281918   6.163   3.336   5.677 -0.2549  0.6390 -0.0363
20143TIP3   OH281919   4.849   5.273  11.524 -0.6859 -0.1071 -0.2498
20143TIP3    H181920   4.886   5.207  11.465 -0.3145 -0.7960  0.7160
20143TIP3    H281921   4.817   5.222  11.599  0.1709  0.8590  0.7978
20144TIP3   OH281922   3.040   6.252   2.187 -0.3862 -0.6952 -0.6993
20144TIP3    H181923   3.121   6.201   2.180 -0.5247 -0.7488 -2.3817
20144TIP3    H281924   2.972   6.186   2.201 -0.2929 -0.7515 -0.4960
20145TIP3   OH281925   2.165   5.149   5.682 -0.3193  0.5188  0.6095
20145TIP3    H181926   2.136   5.068   5.639  2.3116  0.6542 -1.7050
20145TIP3    H281927   2.215   5.119   5.758  2.1693 -0.2757 -1.2033
20146TIP3   OH281928   0.891   3.896   2.848 -0.0806 -0.1716  0.4875
20146TIP3    H181929   0.821   3.834   2.829 -0.6538  0.6264 -0.1289
20146TIP3    H281930   0.909   3.938   2.763  0.6624  0.1283  0.7811
20147TIP3   OH281931   3.168   3.736   1.855 -0.2044  0.1458  0.2408
20147TIP3    H181932   3.130   3.660   1.898  0.8283 -0.1822  0.6185
20147TIP3    H281933   3.094   3.784   1.819 -0.8403 -1.4689 -0.7107
20148TIP3   OH281934   5.993   6.642  14.579 -0.4462  0.4198 -0.4085
20148TIP3    H181935   6.054   6.646  14.653 -1.8640  1.7534  0.7688
20148TIP3    H281936   5.907   6.630  14.619 -1.2127  0.6982 -1.8854
20149TIP3   OH281937   3.977   0.251  16.337 -0.3123 -0.5269  0.1974
20149TIP3    H181938   3.882   0.258  16.348 -0.1271 -0.8786  2.6389
20149TIP3    H281939   4.002   0.182  16.398  1.6742  0.4180  0.5092
20150TIP3   OH281940   3.079   3.934  15.143  0.4226  0.2844 -0.8020
20150TIP3    H181941   3.102   3.979  15.062  0.9330  1.7083  0.1149
20150TIP3    H281942   3.163   3.909  15.181  0.2381  0.8151 -0.0462
20151TIP3   OH281943   4.268   5.524  15.214 -0.4602  0.2682 -0.2312
20151TIP3    H181944   4.345   5.481  15.177 -0.8578 -0.7726  0.1067
20151TIP3    H281945   4.302   5.579  15.284  0.0642  0.4954 -0.6648
20152TIP3   OH281946   6.484   5.939  13.096 -0.1760  0.3556  0.2476
20152TIP3    H181947   6.389   5.929  13.095 -0.4171  1.9720  1.4049
20152TIP3    H281948   6.500   6.020  13.046  0.5033  0.5224  0.7140
20153TIP3   OH281949   5.971   0.400   4.433  0.6625  0.0789 -0.1006
20153TIP3    H181950   6.066   0.396   4.420  0.7460  1.1197  0.0424
20153TIP3    H281951   5.955   0.492   4.455 -0.7089  0.5755 -2.7871
20154TIP3   OH281952   0.257   5.567  12.066 -0.1718  0.1991  0.0184
20154TIP3    H181953   0.239   5.477  12.036 -0.2694  0.3690 -0.4422
20154TIP3    H281954   0.351   5.568  12.081 -0.2665 -0.1765  0.6976
20155TIP3   OH281955   3.169   0.381  13.461  0.2336 -0.1972 -0.1461
20155TIP3    H181956   3.246   0.436  13.466  0.3746 -0.2305 -1.4030
20155TIP3    H281957   3.196   0.297  13.497  1.0055 -0.4045 -1.1531
20156TIP3   OH281958   5.474   0.894   4.093  0.4455  0.7928  1.0626
20156TIP3    H181959   5.506   0.928   4.009  0.5102 -0.1178  0.7096
20156TIP3    H281960   5.397   0.842   4.070  1.9789 -1.6559  1.2276
20157TIP3   OH281961   6.624   0.603  12.339  0.0305  0.5840  0.0818
20157TIP3    H181962   6.643   0.652  12.259 -1.1516  0.8124 -0.0684
20157TIP3    H281963   6.536   0.630  12.364 -1.3380 -2.5901 -0.8653
20158TIP3   OH281964   0.217   5.253   3.388  0.4318 -0.6943  0.1427
20158TIP3    H181965   0.140   5.207   3.356 -0.5559  0.7944  0.3016
20158TIP3    H281966   0.216   5.239   3.482 -0.9079  1.0962  0.4388
20159TIP3   OH281967   1.284   6.220  11.592  0.5615  0.5431  0.6192
20159TIP3    H181968   1.309   6.292  11.650  1.8876  0.0563  0.6915
20159TIP3    H281969   1.323   6.243  11.508  0.3599  0.2645  0.4482
20160TIP3   OH281970   3.621   4.493   3.681 -0.2114 -0.3746  0.4562
20160TIP3    H181971   3.699   4.507   3.735 -1.1944  1.3599  1.5307
20160TIP3    H281972   3.614   4.398   3.673  1.2180 -0.5981  1.5207
20161TIP3   OH281973   3.267   2.484  12.980  0.2366  0.4931  0.3181
20161TIP3    H181974   3.317   2.404  12.995 -1.0090 -0.2964  0.4821
20161TIP3    H281975   3.279   2.535  13.060  0.6511  0.2470  0.4158
20162TIP3   OH281976   4.462   6.662   0.068  0.0818 -0.3601 -0.8154
20162TIP3    H181977   4.469   6.572   0.099 -0.4531  0.8751  3.4934
20162TIP3    H281978   4.548   6.699   0.082 -0.4206  0.5012  0.0703
20163TIP3   OH281979   4.710   1.990   1.438 -0.4399  0.2019  0.0249
20163TIP3    H181980   4.671   1.931   1.503 -2.4565  2.7324  1.3319
20163TIP3    H281981   4.796   2.012   1.474  0.2237 -1.5966 -0.3432
20164TIP3   OH281982   1.178   5.588  15.288  0.2467 -0.7236 -0.0828
20164TIP3    H181983   1.216   5.502  15.271 -1.8059 -1.8231  0.5394
20164TIP3    H281984   1.137   5.579  15.374  0.8874  1.2325  0.4730
20165TIP3   OH281985   6.490   1.802  12.241 -0.1510 -0.1127  0.0031
20165TIP3    H181986   6.513   1.843  12.325  0.4680 -0.0794 -0.1773
20165TIP3    H281987   6.463   1.713  12.265  0.5464 -0.2838  0.1958
20166TIP3   OH281988   6.700   0.276  11.464 -0.4103 -0.2738  0.3777
20166TIP3    H181989   6.609   0.266  11.491 -0.6287 -1.7233 -0.7518
20166TIP3    H281990   6.698   0.338  11.392 -0.3792  0.2945  0.8536
20167TIP3   OH281991   3.701   4.588   3.200 -0.0645  0.2686 -0.2019
20167TIP3    H181992   3.675   4.676   3.175 -1.6990  0.2074  1.1268
20167TIP3    H281993   3.651   4.569   3.280  0.3091 -1.8125 -0.3921
20168TIP3   OH281994   0.243   6.279   4.191 -0.3915  0.1314 -0.3943
20168TIP3    H181995   0.331   6.241   4.190  0.4086  1.8486  0.2269
20168TIP3    H281996   0.189   6.215   4.238  0.5544 -0.8783 -0.6484
20169TIP3   OH281997   0.651   2.964  16.788 -0.5218 -0.0304  0.0553
20169TIP3    H181998   0.620   3.050  16.815  0.7597 -0.1411  2.1378
20169TIP3    H281999   0.611   2.903  16.851  0.7303 -0.5975  0.3536
20170TIP3   OH282000   1.971   2.638  16.842  0.8128 -0.8081  0.0291
20170TIP3    H182001   1.967   2.684  16.926  0.9643 -0.2697 -0.2516
20170TIP3    H282002   1.936   2.701  16.779  0.3125 -1.3660 -0.2486
20171TIP3   OH282003   2.720   4.158   2.472 -0.5651  0.0973 -0.2336
20171TIP3    H182004   2.787   4.151   2.541 -0.7712  0.2438 -0.0163
20171TIP3    H282005   2.728   4.248   2.440 -0.2555 -0.0666 -0.6224
20172TIP3   OH282006   6.031   6.637  11.896 -0.3780  0.1651  0.0669
20172TIP3    H182007   6.012   6.544  11.883  2.8765 -0.8138  1.3931
20172TIP3    H282008   5.981   6.682  11.827 -2.6409 -2.4495 -0.1328
20173TIP3   OH282009   4.089   4.921  14.240  0.3179 -0.1749 -0.1936
20173TIP3    H182010   4.176   4.896  14.272  0.3220  0.2503  0.1396
20173TIP3    H282011   4.048   4.965  14.314 -1.1529 -2.5584  0.5160
20174TIP3   OH282012   4.626   3.532   1.011  0.4082  0.3536 -0.0649
20174TIP3    H182013   4.720   3.523   0.993  1.0337  0.8889  2.5178
20174TIP3    H282014   4.619   3.521   1.106 -2.1201  0.6596 -0.1582
20175TIP3   OH282015   4.326   0.619   0.945  0.0650 -0.1668 -0.4481
20175TIP3    H182016   4.413   0.597   0.912  0.0014  0.5885 -1.1635
20175TIP3    H282017   4.342   0.678   1.018  0.2495 -2.6333  1.6715
20176TIP3   OH282018   0.235   4.458   0.963 -0.4489 -0.4969  0.4625
20176TIP3    H182019   0.221   4.367   0.939 -0.8085 -0.3991  0.2814
20176TIP3    H282020   0.330   4.469   0.967 -0.4030 -0.8082  0.2167
20177TIP3   OH282021   1.960   4.996   3.820 -0.3105  0.3516  0.3492
20177TIP3    H182022   1.952   4.981   3.914 -1.0125  0.5150  0.3247
20177TIP3    H282023   1.872   4.980   3.786  0.0064  0.0057 -0.3223
20178TIP3   OH282024   2.035   4.462  15.252  0.2330 -0.2523 -0.0033
20178TIP3    H182025   1.969   4.420  15.196  2.8471  0.5621 -4.1454
20178TIP3    H282026   2.117   4.420  15.227  2.1500  3.1598  0.0287
20179TIP3   OH282027   3.597   2.631  12.482  0.2872  0.2035  0.1662
20179TIP3    H182028   3.594   2.561  12.416 -1.5898 -0.5831  1.0353
20179TIP3    H282029   3.510   2.670  12.480  0.0505 -0.1014  2.4285
20180TIP3   OH282030   5.835   1.134  12.980 -0.3003  0.3035  0.2613
20180TIP3    H182031   5.745   1.139  12.945 -0.8139 -0.9308  1.3280
20180TIP3    H282032   5.849   1.041  12.996  0.0211  0.7304  2.9586
20181TIP3   OH282033   0.083   4.330   3.983 -0.1430  0.0783  0.2398
20181TIP3    H182034   0.033   4.409   4.002 -0.5678 -0.2086  0.3471
20181TIP3    H282035   0.174   4.355   3.994 -0.2130  0.8374 -0.7775
20182TIP3   OH282036   6.172   3.439   3.561  0.0449  0.0597 -0.1841
20182TIP3    H182037   6.080   3.430   3.536  0.2970  1.0809 -1.6097
20182TIP3    H282038   6.220   3.390   3.495  0.5248 -0.7258  0.7331
20183TIP3   OH282039   4.503   3.876   2.180  0.2820 -0.3110  0.5006
20183TIP3    H182040   4.504   3.869   2.275  1.2282  0.0751  0.5381
20183TIP3    H282041   4.439   3.811   2.151 -0.0334 -0.4087  1.3986
20184TIP3   OH282042   3.750   3.991  13.175 -0.1356  0.1643 -0.1800
20184TIP3    H182043   3.793   3.910  13.145 -1.0921  0.4406 -2.5162
20184TIP3    H282044   3.782   4.003  13.264  0.3448 -2.5729  0.1161
20185TIP3   OH282045   0.386   0.690   2.256  0.1362 -0.2481 -0.7462
20185TIP3    H182046   0.437   0.736   2.189 -1.3957 -0.5655 -2.1856
20185TIP3    H282047   0.340   0.760   2.303  0.4655 -0.0937 -0.6479
20186TIP3   OH282048   1.195   1.027   2.960  0.5692 -0.2404  0.7289
20186TIP3    H182049   1.207   1.117   2.990 -0.8245 -0.0679  0.8399
20186TIP3    H282050   1.121   1.031   2.900 -0.1707 -1.4448  1.5029
20187TIP3   OH282051   3.027   1.024   0.830 -0.0461 -0.1992 -0.2913
20187TIP3    H182052   3.079   0.951   0.865 -0.9133 -0.5157  0.3667
20187TIP3    H282053   2.969   0.983   0.766 -0.3936 -0.0598 -0.0680
20188TIP3   OH282054   6.353   5.094   3.794 -0.3572 -0.0555 -0.2962
20188TIP3    H182055   6.320   5.004   3.795 -0.3276 -0.0877  1.7288
20188TIP3    H282056   6.324   5.132   3.877  0.1311  1.6353 -0.8445
20189TIP3   OH282057   4.357   0.844  15.198  0.1297  0.1672 -0.3103
20189TIP3    H182058   4.439   0.805  15.230 -0.1768  0.5723  1.0069
20189TIP3    H282059   4.289   0.800  15.248 -0.4623  0.0392 -1.2040
20190TIP3   OH282060   0.449   1.407   1.005  0.2134 -0.0328 -0.1763
20190TIP3    H182061   0.484   1.319   0.995  1.1355  0.1512  1.1572
20190TIP3    H282062   0.425   1.434   0.916  0.2776 -1.4666 -0.6443
20191TIP3   OH282063   1.241   4.781   2.803 -0.5043  0.0550  0.1369
20191TIP3    H182064   1.184   4.755   2.875 -2.6799  4.2479  0.2311
20191TIP3    H282065   1.300   4.846   2.842  1.2326 -0.7168 -1.0460
20192TIP3   OH282066   2.823   4.472   0.019  0.5658  0.4779 -0.5878
20192TIP3    H182067   2.790   4.387   0.046 -1.2909  1.2781 -0.2125
20192TIP3    H282068   2.865   4.456  -0.066 -0.5533 -0.6522 -0.9451
20193TIP3   OH282069   1.757   6.334  15.147 -0.3531 -0.0594 -0.3196
20193TIP3    H182070   1.699   6.384  15.091  0.0790  2.8489  1.6097
20193TIP3    H282071   1.840   6.382  15.146  0.1135 -0.7002  1.5975
20194TIP3   OH282072   4.085   0.971   4.773  0.1041  0.1521  0.1436
20194TIP3    H182073   4.056   0.880   4.782 -0.2973  0.2726  0.0879
20194TIP3    H282074   4.054   0.997   4.686 -2.0572  1.1506  1.1461
20195TIP3   OH282075   4.222   5.081   2.355 -0.2266  0.1408  0.2597
20195TIP3    H182076   4.301   5.046   2.313 -1.8279  0.3126 -3.1787
20195TIP3    H282077   4.251   5.163   2.395  1.2288  0.5489 -1.5011
20196TIP3   OH282078   1.406   0.869  14.908 -0.2521 -0.1858 -0.0269
20196TIP3    H182079   1.484   0.879  14.854  1.3736 -1.7542  1.8254
20196TIP3    H282080   1.355   0.948  14.894  1.5410  0.7553 -1.5356
20197TIP3   OH282081   1.359   4.960   3.586 -0.1029  0.5136 -0.1232
20197TIP3    H182082   1.381   5.045   3.548 -0.8635  0.5784 -0.4345
20197TIP3    H282083   1.318   4.911   3.514 -0.9165  0.3812  0.4122
20198TIP3   OH282084   3.505   1.712   4.026  0.5237 -1.0106 -0.0167
20198TIP3    H182085   3.594   1.748   4.025  1.1066 -2.3215  1.2286
20198TIP3    H282086   3.478   1.714   3.934  1.5414  0.0979 -0.3263
20199TIP3   OH282087   1.663   2.838  16.322  0.0510  0.1522 -0.0675
20199TIP3    H182088   1.710   2.906  16.274  0.6139  1.0163  1.6407
20199TIP3    H282089   1.601   2.885  16.377 -0.8132 -0.8298 -0.1576
20200TIP3   OH282090   6.305   0.871   5.440 -0.2686 -0.2593  0.1518
20200TIP3    H182091   6.221   0.829   5.458  0.0742 -0.9414  0.1591
20200TIP3    H282092   6.306   0.948   5.497 -1.1652  0.1216 -0.3179
20201TIP3   OH282093   2.097   6.773  16.711  0.1847 -0.4937  0.1000
20201TIP3    H182094   2.037   6.829  16.760 -0.5539 -1.9505  0.9381
20201TIP3    H282095   2.152   6.834  16.662 -0.9863  0.9310  0.4741
20202TIP3   OH282096   2.198   1.576  15.228  0.1705 -0.1257 -0.0810
20202TIP3    H182097   2.119   1.533  15.196  0.2020 -0.8608  0.7989
20202TIP3    H282098   2.187   1.579  15.323  0.1946  1.7688 -0.1007
20203TIP3   OH282099   5.953   6.541   0.801 -0.9108 -0.4485 -0.1277
20203TIP3    H182100   5.868   6.586   0.798 -0.6453  0.0980  0.2541
20203TIP3    H282101   6.007   6.597   0.857 -1.1058 -2.1645  1.9012
20204TIP3   OH282102   4.824   4.592   3.078  0.1866 -0.2598  0.6450
20204TIP3    H182103   4.885   4.537   3.127  0.6744 -0.6422 -0.3747
20204TIP3    H282104   4.738   4.571   3.114  0.4339 -1.2582  0.6581
20205TIP3   OH282105   5.053   1.752  15.535 -0.2290 -0.5198  0.3296
20205TIP3    H182106   4.980   1.777  15.592  0.1685 -0.5097  0.8411
20205TIP3    H282107   5.130   1.757  15.591 -0.0023 -1.8738  0.1601
20206TIP3   OH282108   6.074   6.754  16.464  0.4298 -0.7904  0.2544
20206TIP3    H182109   6.073   6.795  16.550 -3.4576 -0.1476  0.1073
20206TIP3    H282110   6.080   6.827  16.402 -1.5602 -0.7565  0.0312
20207TIP3   OH282111   0.878   4.801  15.669  0.3471  0.3369  0.2666
20207TIP3    H182112   0.872   4.750  15.749 -1.7496  0.9379  0.5532
20207TIP3    H282113   0.867   4.737  15.598  1.7453 -0.1268  0.4448
20208TIP3   OH282114   0.064   2.524   2.298 -0.7636  0.0907  0.2154
20208TIP3    H182115   0.096   2.516   2.387 -1.7657  1.5754  0.7406
20208TIP3    H282116   0.041   2.616   2.288 -2.2942 -0.3764 -1.0002
20209TIP3   OH282117   0.653   5.850   5.630 -0.1669 -0.3467  0.3155
20209TIP3    H182118   0.694   5.810   5.553  1.1978  0.8979  0.3664
20209TIP3    H282119   0.714   5.918   5.658 -1.0710 -0.1529  1.9616
20210TIP3   OH282120   0.015   6.225  12.463 -0.1206  0.6077 -0.0859
20210TIP3    H182121  -0.062   6.234  12.520  0.2929 -0.0418  0.5926
20210TIP3    H282122  -0.004   6.147  12.410  0.9380 -0.8475  1.5457
20211TIP3   OH282123   3.223   0.995  15.780  0.2921 -0.0668 -0.4481
20211TIP3    H182124   3.268   1.027  15.701 -0.4493  2.1561 -0.0325
20211TIP3    H282125   3.244   1.061  15.847 -1.5613 -0.2937  0.3917
20212TIP3   OH282126   5.853   5.005   6.122 -0.0966  0.1442  0.2875
20212TIP3    H182127   5.892   5.029   6.038 -0.1728  0.1123  0.2436
20212TIP3    H282128   5.823   5.089   6.159 -0.6450  0.0795 -0.0059
20213TIP3   OH282129   4.034   4.247  14.775 -0.3232 -0.3948 -0.2166
20213TIP3    H182130   4.003   4.251  14.865 -2.1707  1.8605 -0.8521
20213TIP3    H282131   4.109   4.307  14.773  1.3159 -2.3358  0.2997
20214TIP3   OH282132   0.088   3.362   3.356 -0.2406  0.0233  0.0043
20214TIP3    H182133   0.046   3.324   3.433 -1.1492 -0.7216 -0.8338
20214TIP3    H282134   0.061   3.305   3.283 -0.2449  1.2950 -1.0264
20215TIP3   OH282135   3.314   4.858  11.603  0.0620 -0.3621  0.4252
20215TIP3    H182136   3.297   4.880  11.511 -1.1800  1.9308  1.1159
20215TIP3    H282137   3.231   4.824  11.635  0.5990 -1.5134  0.6316
20216TIP3   OH282138   0.708   6.767   6.675 -0.9099 -0.6739  0.1208
20216TIP3    H182139   0.709   6.675   6.648  0.5181 -0.2822 -1.3136
20216TIP3    H282140   0.630   6.803   6.634 -1.2297 -1.1485  0.3116
20217TIP3   OH282141   0.869   5.685   6.515 -0.0039 -0.0855 -0.0113
20217TIP3    H182142   0.893   5.597   6.485  0.0268 -0.0807 -0.0014
20217TIP3    H282143   0.783   5.701   6.477  0.8509  0.6937 -1.7496
20218TIP3   OH282144   2.169   3.304  12.260 -0.4038  0.4242  0.2391
20218TIP3    H182145   2.168   3.396  12.234  0.0866  0.6075  0.8273
20218TIP3    H282146   2.260   3.276  12.246 -0.2446  0.3925  1.2447
20219TIP3   OH282147   0.910   5.521   3.846 -0.3736 -0.0653  0.0737
20219TIP3    H182148   0.832   5.500   3.897 -0.6039 -0.8252 -0.5572
20219TIP3    H282149   0.918   5.616   3.852 -0.4728 -0.1265  1.3795
20220TIP3   OH282150   6.322   3.559   5.554 -0.3500  0.4593 -0.0680
20220TIP3    H182151   6.404   3.608   5.552 -0.2704  0.3005 -1.3695
20220TIP3    H282152   6.265   3.609   5.612 -0.6978  2.8497 -2.2915
20221TIP3   OH282153   3.891   4.924   5.601  0.1064 -0.1028 -0.1033
20221TIP3    H182154   3.845   4.850   5.639 -2.2991  0.0510 -2.3980
20221TIP3    H282155   3.826   4.965   5.544  2.1367  2.2503 -0.8766
20222TIP3   OH282156   5.391   3.690   4.712 -0.2207  0.0821  0.0766
20222TIP3    H182157   5.411   3.782   4.730 -2.6418  0.8006 -0.6124
20222TIP3    H282158   5.411   3.679   4.619 -0.0520 -0.0680  0.1294
20223TIP3   OH282159   0.924   2.526   3.008  0.1835 -0.2580 -0.0931
20223TIP3    H182160   0.834   2.545   3.038  0.4978 -2.9055  3.0697
20223TIP3    H282161   0.915   2.449   2.953  0.2649  1.4424 -2.6452
20224TIP3   OH282162   6.054   3.854   1.090  0.2045 -0.2115  0.2016
20224TIP3    H182163   6.033   3.947   1.077  1.0722  0.0889  0.8668
20224TIP3    H282164   6.026   3.812   1.008 -1.4741  0.4011  0.4176
20225TIP3   OH282165   0.254   0.172  12.300 -0.1561  0.2969  0.6356
20225TIP3    H182166   0.315   0.173  12.226  2.6054  0.6398  2.7724
20225TIP3    H282167   0.227   0.081  12.307 -2.5632  0.5926 -2.2103
20226TIP3   OH282168   2.917   5.293  14.686  0.0694 -0.1997 -0.1052
20226TIP3    H182169   2.840   5.348  14.672 -0.8584 -0.9122  1.8277
20226TIP3    H282170   2.905   5.220  14.625 -1.3118 -0.7598  0.7638
20227TIP3   OH282171   4.182   4.096   5.487  0.5046  0.2734 -0.1658
20227TIP3    H182172   4.177   4.005   5.458 -2.7269  0.2105  0.2163
20227TIP3    H282173   4.273   4.107   5.515  0.7966 -3.1139  0.6840
20228TIP3   OH282174   3.248   0.152  12.447 -0.2147  0.9225 -0.2345
20228TIP3    H182175   3.311   0.109  12.505 -1.8179 -0.6148  0.4328
20228TIP3    H282176   3.286   0.239  12.431  2.5641 -0.2806 -0.7047
20229TIP3   OH282177   0.069   1.793  15.663 -0.3342 -0.5501 -0.5556
20229TIP3    H182178   0.028   1.711  15.688 -2.3671  0.3957 -0.5379
20229TIP3    H282179   0.098   1.832  15.745 -4.0080  1.0256  0.1942
20230TIP3   OH282180   3.359   6.167   0.427  0.2797 -0.5935  0.4053
20230TIP3    H182181   3.357   6.163   0.331 -2.5196  0.3200  0.3223
20230TIP3    H282182   3.286   6.112   0.455 -1.2317  1.9198  1.7657
20231TIP3   OH282183   2.050   6.165   4.210 -0.3305 -0.1345 -0.4558
20231TIP3    H182184   2.108   6.241   4.219 -2.2328  1.3711 -0.4214
20231TIP3    H282185   2.050   6.125   4.297  0.5969 -0.1367 -0.4431
20232TIP3   OH282186   5.877   0.020   1.892 -0.0987 -0.6235  0.0546
20232TIP3    H182187   5.792   0.003   1.932 -0.3019 -0.8637 -0.4701
20232TIP3    H282188   5.878  -0.033   1.812  0.4286 -0.4061 -0.0938
20233TIP3   OH282189   1.517   0.054   1.522 -0.3968  0.1046  0.6494
20233TIP3    H182190   1.482  -0.021   1.570  1.0888 -0.0446  1.5871
20233TIP3    H282191   1.513   0.027   1.430  0.6169 -1.3929  0.9963
20234TIP3   OH282192   1.411   6.455  15.017  0.0165 -0.1845 -0.0982
20234TIP3    H182193   1.487   6.505  15.047 -1.6425 -0.3132  5.3342
20234TIP3    H282194   1.449   6.374  14.982  2.3982  0.8011  0.0251
20235TIP3   OH282195   5.036   4.061  13.275 -0.3355 -0.1387  0.4097
20235TIP3    H182196   5.079   3.977  13.292  0.5722  0.5829  1.8814
20235TIP3    H282197   5.030   4.103  13.361 -1.0850  1.1571 -0.2486
20236TIP3   OH282198   2.287   0.304  16.690 -0.2529 -0.9044  0.7192
20236TIP3    H182199   2.337   0.327  16.768 -1.7576 -0.5781  1.6376
20236TIP3    H282200   2.338   0.339  16.617 -0.8657  2.7373  1.8191
20237TIP3   OH282201   2.109   4.137   0.145 -0.1933  0.7555 -0.5742
20237TIP3    H182202   2.020   4.133   0.110  0.5156 -0.4290 -2.4217
20237TIP3    H282203   2.159   4.184   0.078  1.1613 -1.3447 -1.1413
20238TIP3   OH282204   0.029   1.781  11.361 -0.2988  0.2819 -0.6309
20238TIP3    H182205   0.013   1.814  11.273  0.4907  0.6719 -0.6364
20238TIP3    H282206   0.099   1.716  11.350 -0.1064  0.4256 -0.2776
20239TIP3   OH282207   3.460   0.595   1.580 -0.6363 -0.2935 -0.1032
20239TIP3    H182208   3.421   0.616   1.665  0.9258  0.3512  0.5045
20239TIP3    H282209   3.464   0.499   1.578  1.3824 -0.3297  1.6212
20240TIP3   OH282210   1.997   1.408   3.161  0.3074  0.5294 -0.0041
20240TIP3    H182211   2.055   1.338   3.130  2.3464  1.3487  1.6929
20240TIP3    H282212   1.978   1.460   3.083  1.4777 -0.0702 -0.7182
20241TIP3   OH282213   4.958   2.383  14.640 -0.3748  0.2031  0.1086
20241TIP3    H182214   4.996   2.468  14.619  0.5936 -0.5579 -1.3515
20241TIP3    H282215   5.014   2.348  14.709 -0.7537  0.7100  0.6874
20242TIP3   OH282216   6.336   3.392  14.263  0.2958  0.2147 -0.3097
20242TIP3    H182217   6.314   3.484  14.246  2.1009  0.5584 -1.0286
20242TIP3    H282218   6.299   3.344  14.189 -2.5654 -0.0016  1.1432
20243TIP3   OH282219   4.647   3.614   0.171 -0.7429  0.2052 -0.3278
20243TIP3    H182220   4.653   3.610   0.075  1.0130 -2.8217 -0.2418
20243TIP3    H282221   4.727   3.658   0.198 -0.6278 -0.0678 -0.2247
20244TIP3   OH282222   2.811   1.067  10.519 -0.5879 -0.2462  0.6596
20244TIP3    H182223   2.716   1.076  10.521 -0.5555  0.2218  0.1782
20244TIP3    H282224   2.831   1.039  10.430 -0.1649  0.9965  0.3459
20245TIP3   OH282225   1.037   3.295   6.279 -0.5382 -0.0672  0.0144
20245TIP3    H182226   1.076   3.215   6.314 -0.9243 -0.2013  0.1493
20245TIP3    H282227   0.951   3.268   6.246  0.2671 -0.1813 -2.1500
20246TIP3   OH282228   3.566   4.964  10.350  0.5304 -0.2156  0.5018
20246TIP3    H182229   3.556   4.975  10.445 -0.7067 -0.0998  0.3674
20246TIP3    H282230   3.653   5.000  10.331  0.6331  0.1139  1.5291
20247TIP3   OH282231   0.038   3.396   5.452  0.5457  0.0182  0.5855
20247TIP3    H182232   0.071   3.351   5.529  0.7556 -1.6669 -0.4418
20247TIP3    H282233   0.095   3.473   5.443  2.3799 -1.2923  0.5062
20248TIP3   OH282234   0.490   2.256  14.797  0.1432  0.1707  0.1061
20248TIP3    H182235   0.523   2.305  14.872 -1.5715  0.2367  0.8624
20248TIP3    H282236   0.496   2.164  14.824 -1.1759  0.2244  0.6761
20249TIP3   OH282237   6.028   6.785   3.596 -0.1208  0.1025 -0.1029
20249TIP3    H182238   5.977   6.798   3.675  1.3324 -1.5832  1.1834
20249TIP3    H282239   6.092   6.856   3.597  1.2487 -1.0903  1.4181
20250LIG     O182240   3.375   3.491   1.460 -0.0723 -0.0659  0.2592
20250LIG     O282241   3.542   3.358   1.309  0.2858  0.1211  1.0579
20250LIG     O382242   3.541   3.749   1.412  1.1301  0.2346  0.6999
20250LIG     O482243   3.467   3.314   1.087  0.2646 -0.2519 -0.2052
20250LIG     O582244   3.506   3.616   1.051  0.5841 -0.7576 -0.0085
20250LIG     O682245   3.815   3.540   1.117 -0.0246 -0.1579  0.6209
20250LIG     O782246   3.812   3.281   0.979 -0.0041  0.3031 -0.0767
20250LIG     O882247   3.478   3.041   1.041  0.0814 -0.4440 -0.5417
20250LIG     O982248   3.677   3.048   1.141 -0.2203  0.0464  0.0575
20250LIG      N82249   3.461   3.267   1.897 -0.2607  1.0044  0.0723
20250LIG     C182250   3.425   3.351   1.629  0.1329  0.4962 -0.0219
20250LIG     C282251   3.501   3.218   1.662 -0.0635  0.5687 -0.2038
20250LIG     C382252   3.367   3.351   1.485 -0.1249  0.6924  0.1755
20250LIG     C482253   3.567   3.246   1.796  0.6222  0.4690 -0.5618
20250LIG     C582254   3.326   3.389   1.733  0.4240 -0.5452  0.6640
20250LIG     C682255   3.527   3.458   1.630  0.1569 -0.4601  0.6054
20250LIG     C782256   3.677   3.355   1.798  0.5992 -0.1490  0.1210
20250LIG     C882257   3.388   3.384   1.878  0.2722  0.4302 -0.1180
20250LIG     C982258   3.456   3.271   1.378  0.2754 -0.3817 -0.2367
20250LIG    C1082259   3.651   3.456   1.691  0.1606  0.3025  0.1080
20250LIG    C1182260   3.588   3.149   1.550 -0.2201 -0.1546  0.1315
20250LIG    C1282261   3.496   3.535   1.521 -0.4012  0.5467 -0.2039
20250LIG    C1382262   3.565   3.180   1.425 -0.0048 -0.3515 -0.5163
20250LIG    C1482263   3.390   3.143   1.940  0.0120 -0.4663 -0.0568
20250LIG    C1582264   3.738   3.558   1.662  0.3436  0.5747  0.4306
20250LIG    C1682265   3.579   3.649   1.498  0.0277 -0.6965 -0.5352
20250LIG    C1782266   3.697   3.664   1.572 -0.1491 -0.1420  0.1140
20250LIG    C1882267   3.485   3.411   1.188 -0.7344 -0.1004 -0.8333
20250LIG    C1982268   3.575   3.523   1.135  0.2356  0.6521 -0.9419
20250LIG    C2082269   3.695   3.474   1.062 -0.8617  0.2849 -0.0836
20250LIG    C2182270   3.715   3.322   1.073 -0.3421  0.2892 -0.0900
20250LIG    C2282271   3.583   3.249   1.033  0.4608 -0.1096 -0.4185
20250LIG    C2382272   3.590   3.105   1.078 -0.2515 -0.1089 -0.9968
20250LIG     H182273   3.420   3.145   1.681  0.5055 -0.1439 -0.4274
20250LIG     H282274   3.261   3.319   1.475  0.6857 -1.9038 -0.7299
20250LIG     H382275   3.625   3.156   1.826  0.4303  0.8863  1.1883
20250LIG     H482276   3.252   3.307   1.740  0.8687 -1.0989 -0.8104
20250LIG     H582277   3.262   3.478   1.716 -2.0090 -2.0682  1.4573
20250LIG     H682278   3.768   3.297   1.769  0.4987  0.0243 -0.5644
20250LIG     H782279   3.682   3.396   1.901  1.5755 -0.2298  0.1158
20250LIG     H882280   3.450   3.473   1.903  2.2701  0.2837 -3.7865
20250LIG     H982281   3.303   3.380   1.950  0.0344  0.2992 -0.4061
20250LIG    H1082282   3.390   3.222   1.304 -1.0654  1.9113 -0.6664
20250LIG    H1182283   3.655   3.069   1.582  0.5046  0.8540  1.2294
20250LIG    H1282284   3.629   3.130   1.351 -0.6086 -1.0300 -0.5905
20250LIG    H1382285   3.411   3.054   1.877  0.1813 -0.8378  0.5204
20250LIG    H1482286   3.282   3.167   1.930  0.2605  0.5480 -0.4169
20250LIG    H1582287   3.414   3.114   2.044 -1.0895  0.5260  0.4988
20250LIG    H1682288   3.835   3.554   1.710 -0.0620 -1.6903  1.1982
20250LIG    H1782289   3.761   3.748   1.550 -0.9519  0.4692  0.0486
20250LIG    H1882290   3.388   3.460   1.211 -0.6732 -0.1116 -0.5460
20250LIG    H1982291   3.612   3.578   1.224 -0.4098  0.2406 -0.4113
20250LIG    H2082292   3.678   3.502   0.955 -2.5621 -1.8817 -0.4468
20250LIG    H2182293   3.575   3.835   1.438  0.3701  0.4064  1.1663
20250LIG    H2282294   3.751   3.290   1.173  1.4375  1.3970 -0.3337
20250LIG    H2382295   3.579   3.259   0.923 -0.6761  1.1111 -0.2897
20250LIG    H2482296   3.531   3.701   1.086  1.3484 -0.3827 -1.3882
20250LIG    H2582297   3.798   3.635   1.116 -0.9919 -0.2699  2.3672
20250LIG    H2682298   3.892   3.320   1.016  1.2130 -3.3426  1.5685
20250LIG    H2782299   3.470   2.957   1.087 -1.4984  0.0164  0.1026
   6.82528   6.82528  17.25819
