Title
42773
    1SAPS     N    1   2.048   5.754   7.595  0.4284  0.7056  0.3585
    1SAPS   HN1    2   1.974   5.751   7.667 -0.3511 -2.7678 -0.4161
    1SAPS   HN2    3   2.128   5.802   7.641  0.6269  0.6708  0.0592
    1SAPS   HN3    4   2.021   5.816   7.515 -1.0204  1.3198  1.2862
    1SAPS   C12    5   2.079   5.618   7.545  0.0372  0.1194 -1.0838
    1SAPS  H12A    6   2.074   5.561   7.636 -0.8825  3.4744  1.1716
    1SAPS   C13    7   1.967   5.566   7.459 -0.3553 -0.4410 -0.7261
    1SAPS  O13A    8   1.855   5.627   7.446  0.1901  1.0512 -0.0904
    1SAPS  O13B    9   1.975   5.444   7.440  0.1484 -0.0318 -0.4857
    1SAPS   C11   10   2.218   5.614   7.470 -0.4358  0.1691  0.1229
    1SAPS  H11A   11   2.215   5.677   7.379 -0.7510  1.7287  1.1750
    1SAPS  H11B   12   2.239   5.507   7.447 -1.3634  0.3669 -1.8495
    1SAPS     P   13   2.464   5.624   7.551  0.1979  0.0088 -0.6251
    1SAPS   O13   14   2.547   5.741   7.595  0.5090 -0.1825 -0.0948
    1SAPS   O14   15   2.481   5.496   7.619 -0.0851  0.1591  0.0509
    1SAPS   O12   16   2.317   5.671   7.557  0.0636 -0.0824 -0.7383
    1SAPS   O11   17   2.497   5.592   7.397 -0.1814 -0.2455 -0.6015
    1SAPS    C1   18   2.549   5.693   7.309  0.2917  0.1655 -0.1392
    1SAPS    HA   19   2.508   5.795   7.322 -1.3049 -0.3005 -1.1385
    1SAPS    HB   20   2.660   5.699   7.320  0.3281 -1.1963  0.4729
    1SAPS    C2   21   2.529   5.652   7.162  0.2597  0.2588 -0.1753
    1SAPS    HS   22   2.577   5.725   7.094  0.1782  2.0091  1.5647
    1SAPS   O21   23   2.388   5.649   7.137 -0.3472  0.0149 -0.3590
    1SAPS   C21   24   2.329   5.768   7.115 -0.4030 -0.4005  0.1429
    1SAPS   O22   25   2.383   5.878   7.128 -0.4341  0.0537 -0.2852
    1SAPS   C22   26   2.179   5.746   7.081 -0.7446  0.0694 -0.1881
    1SAPS   H2R   27   2.163   5.636   7.071 -0.1905 -0.1478  1.0439
    1SAPS   H2S   28   2.125   5.796   7.164  0.1555 -1.3157  1.3095
    1SAPS    C3   29   2.591   5.508   7.130 -0.5669 -0.0135 -0.0287
    1SAPS    HX   30   2.530   5.427   7.176  0.2008 -1.1336 -0.9432
    1SAPS    HY   31   2.689   5.500   7.184  2.1294  3.2788 -3.8173
    1SAPS   O31   32   2.623   5.482   6.997 -0.1006 -0.4919  0.1845
    1SAPS   C31   33   2.530   5.418   6.925 -0.2863 -0.1172 -0.3517
    1SAPS   O32   34   2.429   5.364   6.974 -0.8955 -0.8495 -0.1820
    1SAPS   C32   35   2.579   5.408   6.782  0.1897 -0.5720 -0.1941
    1SAPS   H2X   36   2.518   5.327   6.736  0.0936 -0.4182 -0.3345
    1SAPS   H2Y   37   2.687   5.380   6.780  0.1470 -0.7111 -0.5242
    1SAPS   C23   38   2.133   5.818   6.953 -0.8375 -0.1272  0.2415
    1SAPS   H3R   39   2.168   5.923   6.948 -1.8442  0.1706 -0.9528
    1SAPS   H3S   40   2.024   5.837   6.958 -0.7614 -0.0058  2.5018
    1SAPS   C24   41   2.169   5.751   6.819  0.1777  0.3413 -0.0961
    1SAPS   H4R   42   2.279   5.732   6.823 -0.2964 -4.1209 -2.2525
    1SAPS   H4S   43   2.139   5.822   6.739 -0.8883 -2.3446 -2.2304
    1SAPS   C25   44   2.116   5.609   6.805 -0.3410 -0.1818  0.3185
    1SAPS   H5R   45   2.119   5.546   6.894  2.1256  1.9302  1.8787
    1SAPS   C26   46   2.076   5.559   6.687 -0.2183 -0.2325  0.6352
    1SAPS   H6R   47   2.059   5.450   6.680 -2.3393  0.1688 -1.5694
    1SAPS   C27   48   2.079   5.626   6.550  0.1602 -0.5731  0.0825
    1SAPS   H7R   49   2.017   5.718   6.557 -0.7756 -1.1188 -0.6976
    1SAPS   H7S   50   2.014   5.559   6.489 -0.7610  0.0630  0.3400
    1SAPS   C28   51   2.212   5.666   6.496  0.6930  0.1655  0.4259
    1SAPS   H8R   52   2.295   5.687   6.566  1.8863  0.4457 -1.0099
    1SAPS   C29   53   2.241   5.686   6.362  0.1639  0.0848  0.7344
    1SAPS   H9R   54   2.343   5.716   6.334  0.5871 -0.7063  1.3852
    1SAPS  C210   55   2.146   5.666   6.242  0.5793 -0.1863 -0.4789
    1SAPS  H10R   56   2.182   5.735   6.163  0.6034  1.5106  0.9445
    1SAPS  H10S   57   2.043   5.699   6.268  0.8993  1.0269 -0.7090
    1SAPS  C211   58   2.122   5.524   6.211  0.5048 -0.1212 -0.4814
    1SAPS  H11R   59   2.095   5.456   6.294 -0.6141  0.7277 -0.1149
    1SAPS  C212   60   2.131   5.467   6.094  0.2648  0.7222  0.5668
    1SAPS  H12R   61   2.093   5.366   6.073 -1.2600  1.3975 -0.1304
    1SAPS  C213   62   2.182   5.546   5.972  0.0982 -0.5949 -0.7980
    1SAPS  H13R   63   2.177   5.656   5.983  0.4545 -0.5116 -1.4910
    1SAPS  H13S   64   2.108   5.516   5.895 -1.6388 -1.3232  1.0419
    1SAPS  C214   65   2.319   5.512   5.941  0.2839 -0.0842 -0.3522
    1SAPS  H14R   66   2.396   5.516   6.019 -0.8942  1.5602  0.7919
    1SAPS  C215   67   2.357   5.481   5.818 -0.9323  0.3012  0.4529
    1SAPS  H15R   68   2.466   5.463   5.811 -0.9175 -0.2901  1.7907
    1SAPS  C216   69   2.285   5.467   5.684  0.8935 -0.6370 -0.4143
    1SAPS  H16R   70   2.191   5.526   5.690  1.2135  0.0702 -1.8847
    1SAPS  H16S   71   2.241   5.366   5.669 -1.2433  0.1511  0.1819
    1SAPS  C217   72   2.367   5.536   5.578 -0.1941 -0.2829 -0.3835
    1SAPS  H17R   73   2.403   5.638   5.605  1.0921 -0.8528  0.1323
    1SAPS  H17S   74   2.301   5.539   5.489 -0.2995 -1.3995 -0.3620
    1SAPS  C218   75   2.489   5.458   5.529 -0.4768 -0.6225  0.5023
    1SAPS  H18R   76   2.454   5.353   5.545  0.4127 -0.7072  2.1314
    1SAPS  H18S   77   2.579   5.477   5.591  0.2894  0.0666 -0.7857
    1SAPS  C219   78   2.505   5.483   5.378 -0.0231 -0.1939  0.2718
    1SAPS  H19R   79   2.412   5.478   5.317  0.7815  0.5268 -1.0600
    1SAPS  H19S   80   2.566   5.403   5.332 -1.1893 -1.3868  0.7412
    1SAPS  C220   81   2.581   5.617   5.349  0.3884 -0.1790  0.1255
    1SAPS  H20R   82   2.568   5.639   5.240 -1.5028 -0.2511  0.2900
    1SAPS  H20S   83   2.686   5.607   5.382 -0.1521 -0.6917  1.8110
    1SAPS  H20T   84   2.531   5.699   5.406  3.1482  0.4133  1.8526
    1SAPS   C33   85   2.556   5.540   6.704 -0.5006  0.0913  0.3909
    1SAPS   H3X   86   2.644   5.607   6.719  0.0752 -0.3982 -0.7227
    1SAPS   H3Y   87   2.468   5.599   6.736 -0.0363  2.5840 -2.5318
    1SAPS   C34   88   2.545   5.539   6.541 -0.0848 -0.0030 -0.3265
    1SAPS   H4X   89   2.538   5.640   6.495  2.7419  0.1570 -0.6119
    1SAPS   H4Y   90   2.456   5.476   6.521 -0.1983 -0.3195  1.0433
    1SAPS   C35   91   2.660   5.467   6.469 -0.6465  0.9956  0.1728
    1SAPS   H5X   92   2.665   5.361   6.503  1.9395  0.1606 -2.4021
    1SAPS   H5Y   93   2.760   5.506   6.495  0.7961 -2.7492  0.9512
    1SAPS   C36   94   2.654   5.473   6.319  0.5068  0.0049 -0.0834
    1SAPS   H6X   95   2.664   5.579   6.285  0.3487  0.0313 -0.0540
    1SAPS   H6Y   96   2.556   5.425   6.299  0.3359  0.2127  0.2371
    1SAPS   C37   97   2.766   5.390   6.250 -0.2989  0.2873  0.0780
    1SAPS   H7X   98   2.747   5.282   6.270  1.3474 -0.0627 -0.1115
    1SAPS   H7Y   99   2.861   5.410   6.304 -1.9339 -0.7474  3.6382
    1SAPS   C38  100   2.781   5.423   6.107  0.0962 -0.4324  0.3641
    1SAPS   H8X  101   2.814   5.528   6.100 -1.1862  0.0261  0.9168
    1SAPS   H8Y  102   2.687   5.408   6.050  0.6412  2.3046 -1.4147
    1SAPS   C39  103   2.892   5.337   6.044 -0.1459  0.1443  0.4046
    1SAPS   H9X  104   2.862   5.233   6.066  1.5806 -0.7051 -1.0080
    1SAPS   H9Y  105   2.996   5.349   6.080  0.5858  0.4690 -1.6359
    1SAPS  C310  106   2.881   5.341   5.889 -1.1781  0.2349  0.0050
    1SAPS  H10X  107   2.970   5.290   5.847 -1.7711  1.5440 -3.1100
    1SAPS  H10Y  108   2.901   5.442   5.849 -2.6671  0.6355  0.2071
    1SAPS  C311  109   2.748   5.299   5.811 -0.0878  0.3866 -0.2888
    1SAPS  H11X  110   2.664   5.370   5.830 -0.6119 -0.4229  0.4887
    1SAPS  H11Y  111   2.707   5.203   5.850 -2.3472  1.6504  0.6751
    1SAPS  C312  112   2.771   5.281   5.662  0.0893  0.1220 -0.5877
    1SAPS  H12X  113   2.676   5.270   5.605 -0.4647  1.6892 -0.0293
    1SAPS  H12Y  114   2.823   5.183   5.657  1.0382  0.6335 -0.9597
    1SAPS  C313  115   2.845   5.388   5.592 -0.6476  0.0411  0.7779
    1SAPS  H13X  116   2.945   5.401   5.639 -0.6795  0.9593  0.6178
    1SAPS  H13Y  117   2.798   5.488   5.597 -3.0426 -0.7844 -2.3229
    1SAPS  C314  118   2.878   5.355   5.450 -0.0449  0.4408 -0.3491
    1SAPS  H14X  119   2.780   5.337   5.401  0.1264 -1.1606 -0.1465
    1SAPS  H14Y  120   2.935   5.260   5.444 -1.1327 -0.2706  0.3067
    1SAPS  C315  121   2.943   5.476   5.381 -0.1347 -0.3258 -0.4393
    1SAPS  H15X  122   3.046   5.482   5.422 -0.0534  0.9440 -0.7924
    1SAPS  H15Y  123   2.889   5.564   5.420 -0.7595 -1.6614  1.9447
    1SAPS  C316  124   2.953   5.485   5.224 -0.4941  0.2721  0.2805
    1SAPS  H16X  125   3.001   5.580   5.192 -2.0643  0.8102 -0.6029
    1SAPS  H16Y  126   2.852   5.495   5.178 -0.8042 -0.8246  0.7077
    1SAPS  C317  127   3.009   5.358   5.169  0.4326  0.0805 -0.6836
    1SAPS  H17X  128   2.956   5.265   5.199  1.5929  0.0157  1.3357
    1SAPS  H17Y  129   3.114   5.342   5.202 -0.1867 -0.7515  1.0504
    1SAPS  C318  130   3.021   5.367   5.020  0.3566  0.5081 -0.1945
    1SAPS  H18X  131   3.111   5.430   5.001  1.1386 -1.1658 -2.5487
    1SAPS  H18Y  132   2.938   5.411   4.961  1.6095  2.1142 -0.8373
    1SAPS  H18Z  133   3.060   5.285   4.955  0.0848 -0.7897  1.2263
    2SAPS     N  134   3.310   6.565   7.230  0.1994 -0.2026  0.6348
    2SAPS   HN1  135   3.410   6.546   7.206 -0.0469 -0.2488 -0.3569
    2SAPS   HN2  136   3.248   6.483   7.235 -0.1978  0.1235  1.2170
    2SAPS   HN3  137   3.284   6.631   7.154 -1.0225 -3.3240 -1.8677
    2SAPS   C12  138   3.284   6.630   7.357 -0.1300 -0.1883 -0.5036
    2SAPS  H12A  139   3.182   6.663   7.369  0.7181  2.7633 -0.6169
    2SAPS   C13  140   3.325   6.550   7.487  0.2740  0.0833 -0.8139
    2SAPS  O13A  141   3.397   6.446   7.479  0.0543 -0.3525 -0.2711
    2SAPS  O13B  142   3.305   6.602   7.598  0.3344 -1.1228  0.2077
    2SAPS   C11  143   3.367   6.762   7.355  0.2201  0.0846  0.7136
    2SAPS  H11A  144   3.475   6.734   7.350 -0.3362 -2.4804  1.7210
    2SAPS  H11B  145   3.361   6.796   7.460 -0.7624 -3.1829  1.8405
    2SAPS     P  146   3.376   7.003   7.265  0.0911  0.1648  0.2225
    2SAPS   O13  147   3.273   7.103   7.234 -0.0265  0.0113  0.2864
    2SAPS   O14  148   3.451   7.033   7.391 -0.0427  0.4067 -0.4021
    2SAPS   O12  149   3.316   6.858   7.263 -0.4060  0.1340  0.3717
    2SAPS   O11  150   3.494   6.998   7.155  0.4374 -0.4678  0.1305
    2SAPS    C1  151   3.503   6.901   7.056 -0.5299  0.0183  0.0283
    2SAPS    HA  152   3.599   6.908   7.001 -1.7795 -0.7707 -2.3817
    2SAPS    HB  153   3.502   6.799   7.101  1.0897 -1.0810 -2.2385
    2SAPS    C2  154   3.390   6.926   6.953  0.4718  0.2959 -0.7605
    2SAPS    HS  155   3.297   6.904   7.010  1.9316  0.1551  1.7008
    2SAPS   O21  156   3.397   6.837   6.839 -0.4000  0.6149 -0.2408
    2SAPS   C21  157   3.387   6.709   6.878  0.5485 -0.2938  0.8559
    2SAPS   O22  158   3.322   6.663   6.972  0.3780  0.2212  0.1675
    2SAPS   C22  159   3.453   6.614   6.774 -0.4287  0.7862 -0.2297
    2SAPS   H2R  160   3.528   6.665   6.709  0.5818 -1.2019 -0.7205
    2SAPS   H2S  161   3.514   6.545   6.836 -1.5292  0.3845  0.4324
    2SAPS    C3  162   3.386   7.072   6.900  0.1156  0.2705  0.4750
    2SAPS    HX  163   3.476   7.097   6.839  0.2830 -3.3192 -1.0337
    2SAPS    HY  164   3.375   7.145   6.982 -1.9516  0.5714 -0.0274
    2SAPS   O31  165   3.265   7.081   6.816 -0.5462 -0.2448 -0.1427
    2SAPS   C31  166   3.249   7.197   6.764  0.9326 -0.4383 -0.1101
    2SAPS   O32  167   3.317   7.294   6.782 -0.3877 -0.4709  0.0639
    2SAPS   C32  168   3.141   7.190   6.660 -0.1435 -0.0543 -0.3431
    2SAPS   H2X  169   3.081   7.283   6.668 -1.9441 -1.2347  0.7462
    2SAPS   H2Y  170   3.086   7.094   6.672  0.8677 -0.3404  2.5507
    2SAPS   C23  171   3.368   6.524   6.684 -0.1087 -0.0037 -0.2915
    2SAPS   H3R  172   3.311   6.456   6.750 -0.5798  1.8725  1.3707
    2SAPS   H3S  173   3.429   6.450   6.629  1.1251  0.4803  0.3730
    2SAPS   C24  174   3.289   6.607   6.590  0.3646 -0.4924  0.1707
    2SAPS   H4R  175   3.225   6.685   6.637  3.7808  2.8247 -0.2167
    2SAPS   H4S  176   3.219   6.537   6.538 -0.3582  0.3855 -0.0584
    2SAPS   C25  177   3.372   6.660   6.474 -0.2381 -0.4334  0.4517
    2SAPS   H5R  178   3.420   6.758   6.489 -1.3967  0.4983 -1.5830
    2SAPS   C26  179   3.383   6.607   6.351 -0.0350 -0.0982  0.1819
    2SAPS   H6R  180   3.428   6.665   6.269  1.8398 -1.0425  0.4959
    2SAPS   C27  181   3.351   6.469   6.294 -0.2218  0.6229 -0.3389
    2SAPS   H7R  182   3.322   6.411   6.384 -2.0776 -0.4938 -1.6039
    2SAPS   H7S  183   3.443   6.419   6.256  1.0718  1.7435  1.1659
    2SAPS   C28  184   3.252   6.491   6.193  0.6530 -0.0326  0.1226
    2SAPS   H8R  185   3.149   6.491   6.230  0.0199  1.2455 -1.5364
    2SAPS   C29  186   3.273   6.507   6.059  0.0218 -0.3354 -0.6109
    2SAPS   H9R  187   3.184   6.522   5.996 -0.3781 -2.3691 -0.6085
    2SAPS  C210  188   3.401   6.515   5.992  0.7412  0.5744 -0.6269
    2SAPS  H10R  189   3.483   6.558   6.053  0.7302 -1.6005  1.0184
    2SAPS  H10S  190   3.399   6.589   5.909  1.2830 -1.1873 -2.2571
    2SAPS  C211  191   3.437   6.378   5.940 -0.3961 -0.4563 -0.5131
    2SAPS  H11R  192   3.453   6.301   6.017 -1.2500 -1.2249 -1.0859
    2SAPS  C212  193   3.466   6.339   5.813  0.1536 -0.6708 -0.2614
    2SAPS  H12R  194   3.498   6.236   5.795 -0.2821 -0.3150 -3.7282
    2SAPS  C213  195   3.454   6.430   5.699 -0.3467  0.3857  1.0530
    2SAPS  H13R  196   3.538   6.502   5.701 -0.4447  0.5036  0.8729
    2SAPS  H13S  197   3.361   6.486   5.723 -0.7682 -0.5533  1.6951
    2SAPS  C214  198   3.441   6.376   5.557  0.1894  0.1075  0.1456
    2SAPS  H14R  199   3.359   6.303   5.551  0.7557 -0.5135 -0.1300
    2SAPS  C215  200   3.512   6.403   5.447 -0.7823  0.2909 -0.5330
    2SAPS  H15R  201   3.479   6.352   5.355  0.5634 -1.1437 -0.2803
    2SAPS  C216  202   3.625   6.498   5.424  0.9520 -0.1355  0.3334
    2SAPS  H16R  203   3.664   6.535   5.521  0.3832 -3.1430  1.8329
    2SAPS  H16S  204   3.603   6.580   5.353  2.8222  1.7382  1.7846
    2SAPS  C217  205   3.745   6.425   5.363 -0.4361 -0.1350  0.3158
    2SAPS  H17R  206   3.763   6.330   5.418  0.0953 -0.3768 -0.2691
    2SAPS  H17S  207   3.834   6.488   5.383  0.1240 -0.2766 -1.5299
    2SAPS  C218  208   3.731   6.411   5.214  0.2504 -0.3946  0.0706
    2SAPS  H18R  209   3.723   6.517   5.181  0.1071  0.1648  1.7861
    2SAPS  H18S  210   3.632   6.362   5.221 -0.0487  0.3734  1.5764
    2SAPS  C219  211   3.832   6.325   5.134 -0.0033 -0.4176 -0.2708
    2SAPS  H19R  212   3.851   6.231   5.191 -0.1910 -0.1201  0.2883
    2SAPS  H19S  213   3.906   6.408   5.134 -1.9144  1.3645 -0.3035
    2SAPS  C220  214   3.785   6.282   4.987  0.2644  0.0612  0.0331
    2SAPS  H20R  215   3.689   6.229   5.002  0.3330 -0.0221  0.1799
    2SAPS  H20S  216   3.860   6.219   4.935  0.5789  0.0514  0.4935
    2SAPS  H20T  217   3.762   6.379   4.938 -0.2922 -0.0241  0.1237
    2SAPS   C33  218   3.211   7.167   6.527 -0.5666  0.0244  0.1579
    2SAPS   H3X  219   3.295   7.238   6.516  0.0232 -0.7002 -0.0768
    2SAPS   H3Y  220   3.139   7.176   6.443  0.5851  0.8121 -0.7830
    2SAPS   C34  221   3.286   7.033   6.508 -0.4645 -0.2252 -0.5271
    2SAPS   H4X  222   3.214   6.950   6.523 -1.5274  0.7665  0.0769
    2SAPS   H4Y  223   3.351   7.029   6.599  0.2676 -2.1132 -1.0843
    2SAPS   C35  224   3.376   7.019   6.380  0.6607  0.6896  0.7031
    2SAPS   H5X  225   3.446   6.936   6.403  0.8787  0.5939 -0.2635
    2SAPS   H5Y  226   3.438   7.112   6.381  2.1511 -0.2016 -1.3204
    2SAPS   C36  227   3.293   7.007   6.257 -0.0280 -0.4276  0.7525
    2SAPS   H6X  228   3.245   7.105   6.234  0.4080 -0.2617  0.5410
    2SAPS   H6Y  229   3.217   6.926   6.253 -0.1388 -0.3104 -2.7911
    2SAPS   C37  230   3.381   6.971   6.134 -0.5901 -0.1703  0.1745
    2SAPS   H7X  231   3.432   6.875   6.157  1.0038  0.6245  0.1090
    2SAPS   H7Y  232   3.466   7.042   6.121  0.9372 -1.9401  0.0283
    2SAPS   C38  233   3.298   6.954   6.001  0.3017 -0.0521  0.3922
    2SAPS   H8X  234   3.253   7.052   5.975 -0.5020 -0.4686  0.1682
    2SAPS   H8Y  235   3.218   6.879   6.018 -1.2165  1.2880 -0.5152
    2SAPS   C39  236   3.398   6.912   5.889 -0.3337  0.2846 -0.0413
    2SAPS   H9X  237   3.449   6.820   5.925  0.9205  1.2496  0.7277
    2SAPS   H9Y  238   3.476   6.991   5.877 -2.0929  2.1589  0.3059
    2SAPS  C310  239   3.335   6.893   5.753  0.0932  0.1942 -0.2029
    2SAPS  H10X  240   3.251   6.820   5.758 -0.7762  1.2182  0.9808
    2SAPS  H10Y  241   3.400   6.837   5.683 -1.6668 -0.6986 -1.1952
    2SAPS  C311  242   3.284   7.023   5.686 -0.6381  0.2064 -0.0898
    2SAPS  H11X  243   3.359   7.104   5.677 -1.3255  0.7750 -0.8526
    2SAPS  H11Y  244   3.203   7.062   5.750 -0.6515  0.5739 -0.3257
    2SAPS  C312  245   3.234   7.013   5.536 -0.6681  0.0409 -0.0128
    2SAPS  H12X  246   3.166   7.093   5.501 -0.6341  1.3460  2.6671
    2SAPS  H12Y  247   3.188   6.913   5.521 -0.2109 -0.4705  1.7572
    2SAPS  C313  248   3.352   7.015   5.432 -0.7296 -0.7799 -0.3497
    2SAPS  H13X  249   3.420   6.928   5.448  1.7631  0.6960 -2.2687
    2SAPS  H13Y  250   3.423   7.098   5.450  0.2211 -1.4430 -0.9328
    2SAPS  C314  251   3.301   7.010   5.287  0.0682  0.3469 -0.3656
    2SAPS  H14X  252   3.233   7.097   5.277  2.4409  2.0514 -3.8344
    2SAPS  H14Y  253   3.251   6.912   5.272  0.6416  0.1627 -1.1458
    2SAPS  C315  254   3.418   7.026   5.189  0.2974  0.2486  0.6967
    2SAPS  H15X  255   3.511   6.971   5.217  1.1391  2.2635  2.0579
    2SAPS  H15Y  256   3.451   7.132   5.189  2.5397 -0.3725 -0.6338
    2SAPS  C316  257   3.368   6.971   5.048  0.9930 -0.3266 -0.0014
    2SAPS  H16X  258   3.284   7.036   5.015  0.8872 -0.8262 -0.7350
    2SAPS  H16Y  259   3.317   6.875   5.069 -1.8317  1.2315  0.7644
    2SAPS  C317  260   3.484   6.965   4.950  0.9743  0.4386  0.2220
    2SAPS  H17X  261   3.545   7.057   4.956  0.4779  0.7842  0.0351
    2SAPS  H17Y  262   3.438   6.980   4.849  0.3326  3.0090  0.8391
    2SAPS  C318  263   3.568   6.836   4.967  1.3840  0.2967  0.0984
    2SAPS  H18X  264   3.629   6.839   5.060  0.5614 -0.9021  0.7037
    2SAPS  H18Y  265   3.641   6.822   4.884  1.6266  0.0293  0.3573
    2SAPS  H18Z  266   3.493   6.755   4.964  2.1261 -0.4844  1.6628
    3SAPS     N  267   4.075   4.891   7.167  0.0801 -0.6946  0.3193
    3SAPS   HN1  268   4.166   4.937   7.185 -1.4139  2.5313  0.3830
    3SAPS   HN2  269   4.084   4.787   7.165  0.0782 -0.8340  3.3666
    3SAPS   HN3  270   4.055   4.926   7.071 -0.4562  0.2821  0.7694
    3SAPS   C12  271   3.973   4.929   7.262 -0.1954  0.4315 -0.2300
    3SAPS  H12A  272   4.005   4.893   7.359  0.5193 -2.2920 -1.3663
    3SAPS   C13  273   3.945   5.074   7.287 -0.7225 -0.9347 -0.5994
    3SAPS  O13A  274   3.998   5.166   7.222  0.0408  0.9878  0.5923
    3SAPS  O13B  275   3.871   5.107   7.384  0.4646  0.6924 -0.1345
    3SAPS   C11  276   3.840   4.850   7.222 -0.3956 -0.1427 -0.1123
    3SAPS  H11A  277   3.807   4.879   7.120 -0.9416  1.4088  0.4755
    3SAPS  H11B  278   3.757   4.883   7.289  0.4890 -0.9430  1.4329
    3SAPS     P  279   3.740   4.611   7.201 -0.2594 -0.3230  0.2780
    3SAPS   O13  280   3.693   4.556   7.328 -0.1480  0.4162  0.1636
    3SAPS   O14  281   3.644   4.683   7.111  0.3102  0.0417 -0.1982
    3SAPS   O12  282   3.861   4.708   7.234  0.0339 -0.3936 -0.1054
    3SAPS   O11  283   3.816   4.502   7.120  0.2220  0.4541 -0.2689
    3SAPS    C1  284   3.930   4.524   7.042 -0.4723  0.2185  0.3787
    3SAPS    HA  285   3.959   4.630   7.027  1.1652 -0.5233 -2.4132
    3SAPS    HB  286   4.015   4.483   7.102  0.2199  0.9452 -0.1014
    3SAPS    C2  287   3.921   4.460   6.905  0.0809  0.3035  1.3950
    3SAPS    HS  288   4.001   4.499   6.839 -0.1501  0.5113  1.2315
    3SAPS   O21  289   3.791   4.487   6.837 -0.3132 -0.0056  0.3052
    3SAPS   C21  290   3.771   4.609   6.804  0.0480 -0.7166 -0.1029
    3SAPS   O22  291   3.848   4.700   6.804 -0.3872  0.2810  0.1752
    3SAPS   C22  292   3.620   4.618   6.763  0.2798  0.1681 -0.4623
    3SAPS   H2R  293   3.586   4.512   6.763 -0.7290  0.4734 -1.1064
    3SAPS   H2S  294   3.568   4.673   6.844  2.5010  2.1695 -0.3008
    3SAPS    C3  295   3.949   4.302   6.906  0.2685 -0.2463  0.2055
    3SAPS    HX  296   3.867   4.259   6.967 -1.1009 -0.3608 -1.6098
    3SAPS    HY  297   4.043   4.289   6.964 -0.0901  0.3725  0.9452
    3SAPS   O31  298   3.947   4.237   6.773  0.4720 -0.0703  0.2177
    3SAPS   C31  299   4.050   4.272   6.696  0.3989 -0.6573 -0.3669
    3SAPS   O32  300   4.136   4.348   6.729 -0.1087 -0.3600 -0.3739
    3SAPS   C32  301   4.039   4.199   6.567 -0.2339  0.6482 -0.2611
    3SAPS   H2X  302   3.938   4.218   6.526 -0.4266 -0.4140 -0.3017
    3SAPS   H2Y  303   4.044   4.089   6.584 -0.1376  0.0437 -3.4775
    3SAPS   C23  304   3.595   4.681   6.625  0.6311 -0.2716 -0.7812
    3SAPS   H3R  305   3.653   4.775   6.627 -0.1945  0.2810  2.1794
    3SAPS   H3S  306   3.491   4.721   6.618  1.0749  1.3145  0.8871
    3SAPS   C24  307   3.625   4.585   6.509 -0.2133 -0.0753  0.3065
    3SAPS   H4R  308   3.562   4.495   6.524  0.9376 -0.6279  1.9835
    3SAPS   H4S  309   3.731   4.556   6.523 -0.1777 -0.5740 -0.8246
    3SAPS   C25  310   3.588   4.659   6.386 -0.1587  0.1688 -0.3470
    3SAPS   H5R  311   3.660   4.740   6.367  2.4340 -1.7634  0.5905
    3SAPS   C26  312   3.482   4.632   6.307  0.3738 -0.3103 -1.0034
    3SAPS   H6R  313   3.472   4.689   6.214  0.4931 -0.4724 -1.1174
    3SAPS   C27  314   3.396   4.511   6.311  0.0644 -0.4459  0.4093
    3SAPS   H7R  315   3.457   4.422   6.284  0.5991 -0.5769  1.9247
    3SAPS   H7S  316   3.328   4.517   6.224 -0.8292 -0.7811  1.0718
    3SAPS   C28  317   3.308   4.485   6.432 -0.1223 -0.0992  0.1519
    3SAPS   H8R  318   3.329   4.541   6.524 -0.4911 -1.0883  0.8489
    3SAPS   C29  319   3.208   4.396   6.433  0.9703 -0.8468 -0.3229
    3SAPS   H9R  320   3.151   4.374   6.525  0.7284 -1.1227 -0.5351
    3SAPS  C210  321   3.167   4.315   6.322 -0.1975  0.1574 -0.2084
    3SAPS  H10R  322   3.231   4.225   6.330  0.2158  0.5169  0.6259
    3SAPS  H10S  323   3.203   4.363   6.229 -0.0469 -2.0684 -1.3671
    3SAPS  C211  324   3.021   4.304   6.303  0.2566 -1.1253  0.0449
    3SAPS  H11R  325   2.959   4.345   6.384 -0.0019 -0.4386 -0.4910
    3SAPS  C212  326   2.962   4.274   6.181 -0.3448 -0.1154  0.0651
    3SAPS  H12R  327   2.853   4.266   6.181 -0.2532 -1.5507  0.0536
    3SAPS  C213  328   3.025   4.219   6.058  0.3252  0.3095  0.7396
    3SAPS  H13R  329   3.109   4.148   6.076  0.9857  1.5194  2.8312
    3SAPS  H13S  330   3.081   4.304   6.012 -0.4782  0.9002  0.8438
    3SAPS  C214  331   2.918   4.166   5.962  0.3651 -0.1356 -0.5278
    3SAPS  H14R  332   2.856   4.084   6.002 -0.9473  1.8516  1.7570
    3SAPS  C215  333   2.886   4.209   5.841  1.0162 -0.0941 -0.2706
    3SAPS  H15R  334   2.808   4.163   5.780  0.1680 -0.3741  0.9859
    3SAPS  C216  335   2.960   4.321   5.769  0.1799 -0.5454 -0.2291
    3SAPS  H16R  336   3.067   4.319   5.797 -0.3930 -2.1571  2.1056
    3SAPS  H16S  337   2.921   4.424   5.785  2.7913  0.7848 -1.7553
    3SAPS  C217  338   2.950   4.295   5.617 -0.4205 -0.1416  0.0509
    3SAPS  H17R  339   2.999   4.383   5.571  3.3352 -1.1705  1.7280
    3SAPS  H17S  340   2.847   4.305   5.577 -0.4001  1.8101  0.4177
    3SAPS  C218  341   3.007   4.160   5.568 -0.2581 -0.0706  0.6990
    3SAPS  H18R  342   2.943   4.079   5.609  1.7232  0.2537  4.9161
    3SAPS  H18S  343   3.110   4.162   5.608 -0.4682 -1.0517  1.3332
    3SAPS  C219  344   3.007   4.161   5.414 -0.3459  0.0395 -0.8148
    3SAPS  H19R  345   2.900   4.165   5.384  0.0581  0.0620 -2.3245
    3SAPS  H19S  346   3.061   4.254   5.388 -0.2087  0.2540  0.2276
    3SAPS  C220  347   3.069   4.039   5.345 -0.1290  0.3356  0.5467
    3SAPS  H20R  348   3.070   4.049   5.234 -0.9444  0.2311  0.5240
    3SAPS  H20S  349   3.004   3.953   5.369 -2.7420  1.9710 -0.3024
    3SAPS  H20T  350   3.175   4.029   5.379  0.5016  1.8973 -0.7965
    3SAPS   C33  351   4.141   4.235   6.456 -1.0776 -0.5426  0.8061
    3SAPS   H3X  352   4.241   4.197   6.483 -0.2277  0.7494 -0.3813
    3SAPS   H3Y  353   4.150   4.345   6.443  0.7660 -0.7842 -0.3536
    3SAPS   C34  354   4.100   4.173   6.317 -0.5833 -0.4625 -0.4860
    3SAPS   H4X  355   3.998   4.208   6.291  0.9837  2.3138 -3.5538
    3SAPS   H4Y  356   4.114   4.062   6.316  2.4536 -0.1780  0.1132
    3SAPS   C35  357   4.194   4.219   6.203  0.5101 -1.0596  0.6904
    3SAPS   H5X  358   4.198   4.330   6.201 -3.5487 -0.7286  2.2616
    3SAPS   H5Y  359   4.296   4.177   6.221  1.2931  0.6174  0.2995
    3SAPS   C36  360   4.133   4.168   6.069 -0.1812  0.0220  0.4463
    3SAPS   H6X  361   4.040   4.225   6.052 -0.9312 -1.1118  0.5855
    3SAPS   H6Y  362   4.106   4.061   6.082 -1.4961 -0.0502 -2.3417
    3SAPS   C37  363   4.230   4.199   5.950  0.4942 -0.0648 -0.2329
    3SAPS   H7X  364   4.331   4.163   5.977  0.6213  1.0550  0.8697
    3SAPS   H7Y  365   4.246   4.308   5.940 -1.1246  0.4493  1.9201
    3SAPS   C38  366   4.191   4.125   5.821  0.1184 -0.0844 -0.7333
    3SAPS   H8X  367   4.088   4.161   5.797  0.3830  0.6778 -0.7364
    3SAPS   H8Y  368   4.172   4.019   5.848  0.2487 -0.2991 -1.4629
    3SAPS   C39  369   4.288   4.132   5.704  0.4426  1.0926  0.4799
    3SAPS   H9X  370   4.384   4.079   5.725  1.0023  1.2686 -1.3787
    3SAPS   H9Y  371   4.318   4.237   5.682 -0.5400  1.0679 -1.1518
    3SAPS  C310  372   4.218   4.062   5.588  0.7706 -0.5473  0.7531
    3SAPS  H10X  373   4.121   4.114   5.578  1.0408 -0.1078  0.3960
    3SAPS  H10Y  374   4.188   3.959   5.617 -1.1128 -0.5338 -0.9578
    3SAPS  C311  375   4.296   4.074   5.459  0.1644 -0.2206 -0.1824
    3SAPS  H11X  376   4.387   4.013   5.476  0.2126 -0.1828 -0.3040
    3SAPS  H11Y  377   4.304   4.185   5.457  0.7231 -0.2645 -0.4350
    3SAPS  C312  378   4.209   4.013   5.342 -0.0828  1.0353 -0.0880
    3SAPS  H12X  379   4.140   4.089   5.299  0.5568  1.3974 -0.5060
    3SAPS  H12Y  380   4.139   3.929   5.363  0.9430  0.1170 -0.2517
    3SAPS  C313  381   4.299   3.961   5.228 -0.2267  0.5243  0.4114
    3SAPS  H13X  382   4.241   3.925   5.140  0.1703  1.4472 -0.2486
    3SAPS  H13Y  383   4.361   3.877   5.264  1.6973  1.6091 -0.2485
    3SAPS  C314  384   4.393   4.062   5.156  0.1093  0.0504 -0.7390
    3SAPS  H14X  385   4.483   4.083   5.218 -1.4701 -1.0981  2.1611
    3SAPS  H14Y  386   4.348   4.163   5.146 -0.1549  0.0115  0.0151
    3SAPS  C315  387   4.434   4.010   5.023  0.4716 -0.3777 -0.1342
    3SAPS  H15X  388   4.339   3.986   4.972  0.8841  0.9051 -1.5735
    3SAPS  H15Y  389   4.480   3.911   5.043  0.8602  0.2359  2.4171
    3SAPS  C316  390   4.517   4.100   4.942 -0.1810  0.3602  0.1608
    3SAPS  H16X  391   4.598   4.135   5.009 -1.3570 -2.1196  3.1205
    3SAPS  H16Y  392   4.454   4.187   4.913  1.0162  1.4277  0.6330
    3SAPS  C317  393   4.580   4.045   4.809 -0.2432  0.2602 -0.0302
    3SAPS  H17X  394   4.500   4.026   4.734  0.8174 -0.2237 -1.0712
    3SAPS  H17Y  395   4.634   3.954   4.843 -0.2362  0.1332 -0.3793
    3SAPS  C318  396   4.684   4.140   4.738  0.0109  0.1353 -0.8451
    3SAPS  H18X  397   4.620   4.219   4.692 -0.7029  0.6661  0.9708
    3SAPS  H18Y  398   4.746   4.091   4.660  1.0166  0.0100  0.0012
    3SAPS  H18Z  399   4.742   4.189   4.820 -2.4468  1.5618  0.1486
    4SAPS     N  400   1.948   4.708   7.426 -0.4055 -0.3675 -0.1234
    4SAPS   HN1  401   1.877   4.700   7.350  2.2616 -0.6470 -2.7438
    4SAPS   HN2  402   1.960   4.811   7.432 -0.8192 -0.3041 -0.3252
    4SAPS   HN3  403   2.033   4.662   7.388 -0.6149 -1.6434  0.8827
    4SAPS   C12  404   1.920   4.654   7.568 -0.3769 -0.7412 -0.4068
    4SAPS  H12A  405   1.941   4.548   7.570  1.9057 -0.3636 -1.2162
    4SAPS   C13  406   2.016   4.718   7.671  0.5554 -0.9126 -0.0108
    4SAPS  O13A  407   2.069   4.826   7.632 -0.0136  0.9724 -0.2123
    4SAPS  O13B  408   2.027   4.664   7.787  0.1871 -0.2047  0.2131
    4SAPS   C11  409   1.774   4.701   7.607  0.0625  0.6198 -0.0531
    4SAPS  H11A  410   1.749   4.809   7.611 -2.1255  0.1325  0.4338
    4SAPS  H11B  411   1.761   4.680   7.715 -1.2850 -1.5476 -0.5635
    4SAPS     P  412   1.567   4.681   7.451  0.1268  0.0016 -0.1771
    4SAPS   O13  413   1.526   4.593   7.339  0.2838 -0.4913 -0.1824
    4SAPS   O14  414   1.464   4.736   7.548  0.0462 -0.1808 -0.3005
    4SAPS   O12  415   1.682   4.620   7.536 -0.3264  0.3918  0.3891
    4SAPS   O11  416   1.651   4.800   7.383 -0.0401  0.5784  0.2335
    4SAPS    C1  417   1.626   4.837   7.248 -0.2002  0.5010  0.0584
    4SAPS    HA  418   1.721   4.843   7.190  0.9339  1.4145  1.8965
    4SAPS    HB  419   1.558   4.773   7.189  0.9271 -1.2083  0.5304
    4SAPS    C2  420   1.565   4.980   7.221  0.0960 -0.4593 -0.4866
    4SAPS    HS  421   1.462   4.969   7.182 -0.7831 -2.4298  2.1125
    4SAPS   O21  422   1.660   5.054   7.143 -0.4340  0.1687 -0.0121
    4SAPS   C21  423   1.637   5.039   7.011  0.7069 -0.7974  0.0141
    4SAPS   O22  424   1.550   4.965   6.973  0.1290 -0.3022  0.9628
    4SAPS   C22  425   1.712   5.145   6.932 -0.6112  0.2003  0.1896
    4SAPS   H2R  426   1.671   5.244   6.962 -0.9052  0.1306  0.0239
    4SAPS   H2S  427   1.817   5.132   6.968 -0.8500 -1.2935  0.4084
    4SAPS    C3  428   1.554   5.050   7.351 -0.8025 -0.6161  0.1145
    4SAPS    HX  429   1.655   5.049   7.397 -0.7969 -0.0360  0.1254
    4SAPS    HY  430   1.486   5.001   7.424  0.3833 -3.2202 -0.4382
    4SAPS   O31  431   1.510   5.189   7.337  0.4987 -0.1278 -0.4454
    4SAPS   C31  432   1.382   5.200   7.327 -0.5618 -0.4417  0.7600
    4SAPS   O32  433   1.299   5.112   7.334 -0.2691  0.8339  0.0868
    4SAPS   C32  434   1.353   5.343   7.294 -0.0382 -0.6676  0.2019
    4SAPS   H2X  435   1.447   5.402   7.292 -0.4734  0.0239 -0.8839
    4SAPS   H2Y  436   1.283   5.380   7.372 -1.8504  0.2899 -1.7496
    4SAPS   C23  437   1.712   5.139   6.777 -0.4878  0.2848 -0.1468
    4SAPS   H3R  438   1.614   5.156   6.727  0.3828  3.3799 -1.0457
    4SAPS   H3S  439   1.746   5.035   6.759  1.3908  0.8876 -0.3258
    4SAPS   C24  440   1.823   5.231   6.715 -0.4411  0.0868 -0.1189
    4SAPS   H4R  441   1.876   5.173   6.637  0.1204  1.3187 -0.6758
    4SAPS   H4S  442   1.885   5.240   6.807  0.0752 -0.1818 -0.4340
    4SAPS   C25  443   1.787   5.370   6.672 -0.1390 -0.2275  0.4296
    4SAPS   H5R  444   1.756   5.432   6.757 -2.0345 -1.4107  0.6667
    4SAPS   C26  445   1.784   5.415   6.549  0.0192  0.1444 -0.1900
    4SAPS   H6R  446   1.751   5.519   6.533 -1.0134 -0.1202  0.0982
    4SAPS   C27  447   1.821   5.338   6.421 -0.3274  0.6927  1.0235
    4SAPS   H7R  448   1.931   5.321   6.430 -0.7976 -3.6943  0.4197
    4SAPS   H7S  449   1.815   5.409   6.335  0.6688  0.9884  1.1776
    4SAPS   C28  450   1.761   5.202   6.388 -0.8320 -0.3978 -0.2547
    4SAPS   H8R  451   1.705   5.151   6.468  0.2066 -2.2148 -0.6385
    4SAPS   C29  452   1.766   5.142   6.272  0.5054 -0.1697  0.4724
    4SAPS   H9R  453   1.718   5.045   6.251  0.1861  0.1074 -0.0832
    4SAPS  C210  454   1.839   5.197   6.145 -0.5020 -1.2209 -0.2653
    4SAPS  H10R  455   1.916   5.270   6.177 -1.0661  0.3033 -2.1295
    4SAPS  H10S  456   1.775   5.268   6.087  0.2126 -0.3457 -0.0068
    4SAPS  C211  457   1.893   5.085   6.064  0.2773  0.7591  0.4416
    4SAPS  H11R  458   1.924   4.991   6.111  1.0658 -0.4481 -2.2956
    4SAPS  C212  459   1.914   5.086   5.934 -0.2462 -0.4926  0.6992
    4SAPS  H12R  460   1.953   4.999   5.879  0.6266  1.3216 -1.7677
    4SAPS  C213  461   1.871   5.202   5.845 -0.3560  0.1854  0.4504
    4SAPS  H13R  462   1.961   5.256   5.811  0.2864 -1.0836  0.0658
    4SAPS  H13S  463   1.807   5.275   5.899 -3.0942 -1.1269 -0.8275
    4SAPS  C214  464   1.783   5.142   5.743 -0.4383 -0.2585  0.3132
    4SAPS  H14R  465   1.679   5.143   5.781  0.0601 -0.4169  1.7510
    4SAPS  C215  466   1.808   5.097   5.618  0.0641  0.1669 -0.2193
    4SAPS  H15R  467   1.723   5.060   5.558 -0.2537  0.1483  0.2387
    4SAPS  C216  468   1.948   5.081   5.560 -0.1191  0.1986  0.3900
    4SAPS  H16R  469   1.949   4.999   5.486 -1.3735 -2.1847  2.8500
    4SAPS  H16S  470   2.023   5.056   5.638 -1.4901 -1.4607  1.2375
    4SAPS  C217  471   1.986   5.214   5.485  0.5009  0.0625 -0.0467
    4SAPS  H17R  472   1.964   5.305   5.544 -1.4353  0.4858 -1.3248
    4SAPS  H17S  473   1.925   5.223   5.393  2.6053  1.2192 -1.4067
    4SAPS  C218  474   2.133   5.224   5.438  0.3318  0.3642 -0.5434
    4SAPS  H18R  475   2.203   5.209   5.523  0.1085  0.0098 -0.4200
    4SAPS  H18S  476   2.146   5.333   5.419 -1.8437  0.8307  0.3743
    4SAPS  C219  477   2.172   5.148   5.306  0.3558 -0.6387  0.5431
    4SAPS  H19R  478   2.092   5.140   5.230 -0.4391  0.1395  1.2795
    4SAPS  H19S  479   2.177   5.041   5.337 -1.9822 -0.1756  2.7845
    4SAPS  C220  480   2.300   5.208   5.253  0.1966  0.3258 -0.1947
    4SAPS  H20R  481   2.367   5.226   5.340 -1.6280  1.1447  1.0999
    4SAPS  H20S  482   2.287   5.313   5.217 -0.3036  0.1732 -0.4653
    4SAPS  H20T  483   2.361   5.149   5.182 -2.8111 -1.1796 -1.7161
    4SAPS   C33  484   1.279   5.340   7.154 -0.4160  0.6685  1.3599
    4SAPS   H3X  485   1.262   5.448   7.133  2.1529  0.8979  0.1323
    4SAPS   H3Y  486   1.181   5.288   7.166  1.3899 -3.5356 -0.3090
    4SAPS   C34  487   1.366   5.283   7.035  0.6405 -0.0114  0.4930
    4SAPS   H4X  488   1.384   5.174   7.049  2.5227  0.1076 -0.6158
    4SAPS   H4Y  489   1.466   5.332   7.035 -0.1108  1.6994  2.6808
    4SAPS   C35  490   1.294   5.299   6.898  0.2306 -0.3077 -0.2583
    4SAPS   H5X  491   1.272   5.405   6.871  2.7022  0.5317  0.6982
    4SAPS   H5Y  492   1.193   5.255   6.912  0.1638  0.6462  3.1182
    4SAPS   C36  493   1.372   5.229   6.787 -0.1206 -0.7831  0.0274
    4SAPS   H6X  494   1.396   5.126   6.821 -1.0466 -1.3092 -0.8492
    4SAPS   H6Y  495   1.461   5.291   6.765  0.3206 -0.8337  1.5922
    4SAPS   C37  496   1.296   5.215   6.654 -0.1998 -0.3203 -0.4719
    4SAPS   H7X  497   1.202   5.275   6.651 -0.1926 -0.3426 -2.2425
    4SAPS   H7Y  498   1.241   5.119   6.646 -2.2179  0.5936  1.2583
    4SAPS   C38  499   1.380   5.246   6.529  0.0445 -0.1911  0.0778
    4SAPS   H8X  500   1.475   5.188   6.524  0.5303  0.6935 -2.1230
    4SAPS   H8Y  501   1.412   5.352   6.540  1.0560 -0.4893  0.0604
    4SAPS   C39  502   1.300   5.238   6.396  0.2347  0.5222  0.1950
    4SAPS   H9X  503   1.206   5.296   6.404 -1.4608 -2.2481  2.4713
    4SAPS   H9Y  504   1.273   5.132   6.380  2.0933 -0.1249  0.9826
    4SAPS  C310  505   1.379   5.291   6.272 -0.3570 -0.5553 -0.2549
    4SAPS  H10X  506   1.480   5.245   6.271  0.3513  0.8204  1.8417
    4SAPS  H10Y  507   1.399   5.400   6.281 -4.4988  0.5468 -2.1141
    4SAPS  C311  508   1.294   5.282   6.145 -0.4732  0.1479  0.1044
    4SAPS  H11X  509   1.223   5.367   6.156  2.0942  2.3679  0.5410
    4SAPS  H11Y  510   1.236   5.188   6.159 -0.2801  0.0067 -0.0343
    4SAPS  C312  511   1.376   5.300   6.014 -0.7504 -0.1265 -0.8320
    4SAPS  H12X  512   1.463   5.231   6.011 -1.2403 -0.7828 -0.1883
    4SAPS  H12Y  513   1.416   5.404   6.018 -0.6171 -0.2152  2.0510
    4SAPS  C313  514   1.287   5.273   5.892 -0.4539  0.4686 -0.1184
    4SAPS  H13X  515   1.184   5.310   5.911 -0.8683 -0.1803 -1.0213
    4SAPS  H13Y  516   1.281   5.162   5.892 -0.1029  0.3967  2.3836
    4SAPS  C314  517   1.332   5.339   5.757 -0.2453  0.7370 -0.0660
    4SAPS  H14X  518   1.358   5.446   5.767 -0.9311  1.3921 -3.9173
    4SAPS  H14Y  519   1.253   5.334   5.680  1.2789  0.0693 -1.6723
    4SAPS  C315  520   1.443   5.268   5.675 -0.7982 -0.2198 -0.2110
    4SAPS  H15X  521   1.425   5.159   5.666 -1.0575 -0.4327  2.1430
    4SAPS  H15Y  522   1.537   5.285   5.732 -0.9186 -1.8218  0.5045
    4SAPS  C316  523   1.452   5.329   5.537 -0.0439 -0.0934  0.2573
    4SAPS  H16X  524   1.473   5.435   5.559  0.0424 -0.3277  1.3331
    4SAPS  H16Y  525   1.364   5.318   5.471  1.0127  0.3630 -1.2908
    4SAPS  C317  526   1.574   5.275   5.466  0.5351 -0.0470  0.3695
    4SAPS  H17X  527   1.569   5.164   5.466  0.6144 -0.0562 -0.2119
    4SAPS  H17Y  528   1.668   5.292   5.522 -0.6836  1.4287  2.0890
    4SAPS  C318  529   1.616   5.325   5.328 -0.3174  0.8401 -0.9295
    4SAPS  H18X  530   1.660   5.426   5.337 -1.3692  1.3350 -1.1162
    4SAPS  H18Y  531   1.518   5.323   5.276 -0.4259 -1.9813 -0.7763
    4SAPS  H18Z  532   1.690   5.254   5.285 -4.1194 -3.8783 -0.6136
    5SAPS     N  533   3.868   5.396   7.331  0.3396 -0.6712 -0.5962
    5SAPS   HN1  534   3.831   5.401   7.428  1.7352  0.0169 -0.0722
    5SAPS   HN2  535   3.872   5.293   7.318 -2.4489 -1.2741  2.0406
    5SAPS   HN3  536   3.964   5.435   7.326  0.1312 -0.2878 -1.7419
    5SAPS   C12  537   3.798   5.463   7.222  0.3772  0.0872 -0.2344
    5SAPS  H12A  538   3.739   5.392   7.165 -1.1786  0.6587  0.6316
    5SAPS   C13  539   3.702   5.575   7.257 -0.4259  0.1085 -0.1980
    5SAPS  O13A  540   3.709   5.620   7.375 -0.0670 -0.0245  0.3729
    5SAPS  O13B  541   3.620   5.610   7.174  0.1509 -0.4871  0.0842
    5SAPS   C11  542   3.908   5.522   7.124 -0.4553 -0.2072 -0.1157
    5SAPS  H11A  543   3.859   5.570   7.036  1.7810  0.6930 -0.9364
    5SAPS  H11B  544   3.968   5.434   7.092 -1.0600  0.1657 -2.4725
    5SAPS     P  545   4.137   5.602   7.228 -0.0543  0.2151  0.0492
    5SAPS   O13  546   4.177   5.728   7.292  0.3518 -0.0061 -0.3410
    5SAPS   O14  547   4.138   5.476   7.311  0.2967  0.0454  0.2884
    5SAPS   O12  548   3.996   5.618   7.177  0.5189  0.0067 -0.2777
    5SAPS   O11  549   4.228   5.576   7.098  0.4691  0.1115  0.2870
    5SAPS    C1  550   4.248   5.688   7.008 -0.0057  0.0560 -0.1616
    5SAPS    HA  551   4.150   5.741   7.003 -0.4714 -0.5753  1.6250
    5SAPS    HB  552   4.323   5.761   7.043 -0.9419  0.3131  1.3656
    5SAPS    C2  553   4.276   5.652   6.858  0.0723 -0.1246  0.3173
    5SAPS    HS  554   4.254   5.740   6.795  1.3419 -0.3004 -0.4234
    5SAPS   O21  555   4.196   5.537   6.821  0.1024  0.6145 -0.9453
    5SAPS   C21  556   4.064   5.556   6.806  0.4097 -0.3708  0.0387
    5SAPS   O22  557   4.006   5.666   6.807 -0.3747  0.2476 -0.3426
    5SAPS   C22  558   4.006   5.423   6.781  0.1656 -0.7867  0.3279
    5SAPS   H2R  559   4.084   5.345   6.778 -0.6449 -1.9386  4.1254
    5SAPS   H2S  560   3.932   5.393   6.859 -3.1889  0.5733 -2.1083
    5SAPS    C3  561   4.430   5.619   6.831  0.9125  0.1611 -0.1845
    5SAPS    HX  562   4.471   5.550   6.908  1.0343  1.3353  0.8513
    5SAPS    HY  563   4.483   5.716   6.843  2.7128 -0.9026  1.0280
    5SAPS   O31  564   4.451   5.569   6.700 -0.1833 -0.8071 -0.1951
    5SAPS   C31  565   4.460   5.435   6.680  0.0726  0.3343  0.5022
    5SAPS   O32  566   4.455   5.346   6.767  0.3790 -0.1194  0.2288
    5SAPS   C32  567   4.502   5.413   6.534  0.3281 -0.2184  1.1507
    5SAPS   H2X  568   4.611   5.434   6.527  0.3642 -0.5424  0.6931
    5SAPS   H2Y  569   4.451   5.490   6.473  0.4114 -0.3436  0.9216
    5SAPS   C23  570   3.920   5.430   6.650 -0.9059 -0.5987 -0.1047
    5SAPS   H3R  571   3.980   5.402   6.561 -0.0698  1.3303 -0.1904
    5SAPS   H3S  572   3.889   5.535   6.631 -0.1792 -0.2821  0.3938
    5SAPS   C24  573   3.797   5.336   6.659 -0.7111  0.1887  0.1138
    5SAPS   H4R  574   3.733   5.387   6.584 -0.4322  1.2188  0.5534
    5SAPS   H4S  575   3.742   5.356   6.753 -0.3731  1.3363  0.0821
    5SAPS   C25  576   3.838   5.183   6.659  0.1143  0.0716 -0.0025
    5SAPS   H5R  577   3.878   5.145   6.754 -1.0627 -1.1642  0.0267
    5SAPS   C26  578   3.838   5.101   6.554  0.0774 -0.1259 -0.4873
    5SAPS   H6R  579   3.885   5.003   6.573  0.4065  0.1183 -0.0094
    5SAPS   C27  580   3.791   5.147   6.412 -0.0419 -0.2802 -0.1080
    5SAPS   H7R  581   3.786   5.258   6.410 -0.2252 -0.2933 -0.5662
    5SAPS   H7S  582   3.687   5.107   6.404 -0.0525 -1.0071  2.6567
    5SAPS   C28  583   3.877   5.091   6.306  0.1367  0.2623  0.5213
    5SAPS   H8R  584   3.985   5.089   6.325  0.0697 -0.4824  0.8508
    5SAPS   C29  585   3.844   5.044   6.180 -0.1578  0.3061 -0.7498
    5SAPS   H9R  586   3.919   5.011   6.106  0.2236 -0.6347  0.0362
    5SAPS  C210  587   3.706   5.024   6.131  0.0500 -0.2655 -0.8148
    5SAPS  H10R  588   3.692   5.112   6.065  0.7135  0.3992 -0.0972
    5SAPS  H10S  589   3.633   5.038   6.214  0.8031 -1.6365  0.1262
    5SAPS  C211  590   3.674   4.898   6.062  0.3065 -0.2440 -0.5550
    5SAPS  H11R  591   3.619   4.821   6.119  1.6075 -0.6162  0.2420
    5SAPS  C212  592   3.705   4.861   5.939 -1.1230  0.9262  0.0592
    5SAPS  H12R  593   3.653   4.770   5.904 -1.2416  0.6442  0.9469
    5SAPS  C213  594   3.797   4.920   5.838 -0.3671  0.3892 -0.6153
    5SAPS  H13R  595   3.818   5.026   5.864  1.0747  0.4209 -1.7690
    5SAPS  H13S  596   3.746   4.928   5.739  0.5840 -1.5145 -1.3153
    5SAPS  C214  597   3.929   4.839   5.825  0.1584  0.5772  0.0055
    5SAPS  H14R  598   3.958   4.780   5.913  0.2513  0.3032 -0.2077
    5SAPS  C215  599   4.005   4.836   5.715  0.3732 -0.3020  0.2980
    5SAPS  H15R  600   4.106   4.793   5.719  0.7771  0.0327 -3.0520
    5SAPS  C216  601   3.978   4.897   5.580  0.8563 -0.6379  0.0507
    5SAPS  H16R  602   3.883   4.956   5.584  0.4922 -1.1512 -0.7166
    5SAPS  H16S  603   3.951   4.817   5.508  0.0244  0.0845 -0.4607
    5SAPS  C217  604   4.093   4.996   5.533  0.0319 -0.6250  0.5933
    5SAPS  H17R  605   4.192   4.947   5.526  1.1878  1.7411 -0.4925
    5SAPS  H17S  606   4.108   5.087   5.596  2.5203  0.1355 -0.9841
    5SAPS  C218  607   4.071   5.057   5.392 -0.4243 -0.9815 -0.3171
    5SAPS  H18R  608   3.973   5.024   5.351 -0.9647 -0.2796  0.3863
    5SAPS  H18S  609   4.157   5.035   5.325 -1.0552 -0.2770 -1.3780
    5SAPS  C219  610   4.074   5.211   5.400  0.4111 -0.1679  0.2715
    5SAPS  H19R  611   4.167   5.247   5.449  0.1777  0.3848  0.3204
    5SAPS  H19S  612   3.987   5.238   5.464 -1.4391 -1.5171 -1.5334
    5SAPS  C220  613   4.080   5.283   5.262  0.5149 -0.1126 -0.4288
    5SAPS  H20R  614   4.057   5.391   5.274  2.4630  0.2068  0.7916
    5SAPS  H20S  615   3.999   5.238   5.200 -0.9801  2.9531 -0.8897
    5SAPS  H20T  616   4.176   5.267   5.208 -0.3672 -2.1309 -1.5135
    5SAPS   C33  617   4.468   5.280   6.464  0.4537  0.3285 -0.8570
    5SAPS   H3X  618   4.512   5.197   6.523 -1.4206  0.2200  0.4850
    5SAPS   H3Y  619   4.517   5.273   6.365  0.4618 -0.4050 -0.8072
    5SAPS   C34  620   4.317   5.243   6.456 -0.2557  0.5693 -0.6280
    5SAPS   H4X  621   4.264   5.319   6.395  1.4319  3.0382  0.8051
    5SAPS   H4Y  622   4.271   5.232   6.556  1.4546  1.7604  0.3303
    5SAPS   C35  623   4.292   5.105   6.401  0.5914  0.5153 -0.4799
    5SAPS   H5X  624   4.182   5.090   6.400  0.8988 -2.3496 -0.5458
    5SAPS   H5Y  625   4.322   5.025   6.473  0.6143  0.7276 -0.2506
    5SAPS   C36  626   4.353   5.070   6.266 -0.4721 -0.0673 -0.1627
    5SAPS   H6X  627   4.443   5.008   6.283  1.4363  1.7512 -2.8209
    5SAPS   H6Y  628   4.380   5.164   6.213  0.0628 -0.0262  0.1749
    5SAPS   C37  629   4.262   4.978   6.179  0.2807  0.1970 -0.0287
    5SAPS   H7X  630   4.162   5.017   6.152  0.9183  1.6281 -0.4130
    5SAPS   H7Y  631   4.244   4.883   6.234 -0.7184  0.5414  0.2524
    5SAPS   C38  632   4.334   4.959   6.046  0.8658  0.2881  0.8777
    5SAPS   H8X  633   4.279   4.878   5.993 -0.0959  1.3922  0.1343
    5SAPS   H8Y  634   4.439   4.924   6.057  0.7502  0.0657  1.2897
    5SAPS   C39  635   4.324   5.080   5.956 -0.0939 -0.3202  0.3944
    5SAPS   H9X  636   4.392   5.167   5.976  1.2894 -0.3992 -3.2489
    5SAPS   H9Y  637   4.221   5.119   5.968 -0.2726 -0.1163 -1.4962
    5SAPS  C310  638   4.335   5.051   5.808  0.2675 -0.3194 -0.0280
    5SAPS  H10X  639   4.275   5.120   5.745  3.0546  3.5713  1.1693
    5SAPS  H10Y  640   4.285   4.953   5.792  0.4661 -0.2540 -1.1041
    5SAPS  C311  641   4.476   5.035   5.762 -0.5089  0.5897  0.2154
    5SAPS  H11X  642   4.476   4.996   5.658 -1.0549  0.2146  0.3505
    5SAPS  H11Y  643   4.525   4.958   5.825 -1.4976  1.2211  1.8300
    5SAPS  C312  644   4.559   5.169   5.755 -0.4467  0.5892  0.2221
    5SAPS  H12X  645   4.541   5.228   5.847 -0.1595  0.0295  0.6497
    5SAPS  H12Y  646   4.525   5.226   5.667  0.2380 -0.9839 -1.1163
    5SAPS  C313  647   4.707   5.130   5.745  0.0748  0.0584  0.0144
    5SAPS  H13X  648   4.765   5.219   5.713 -0.1325  0.8032  1.6402
    5SAPS  H13Y  649   4.717   5.045   5.674  1.0801  0.7140 -0.6537
    5SAPS  C314  650   4.764   5.078   5.880  0.2859 -0.5538 -0.0233
    5SAPS  H14X  651   4.873   5.085   5.862  0.2043 -0.1953 -0.4071
    5SAPS  H14Y  652   4.724   4.974   5.886 -0.6646 -0.3217 -1.6311
    5SAPS  C315  653   4.722   5.146   6.011 -0.1035 -0.4357 -0.0401
    5SAPS  H15X  654   4.613   5.139   6.032 -0.9018 -3.3832 -3.9239
    5SAPS  H15Y  655   4.756   5.252   6.010 -2.8905  0.5928  1.4330
    5SAPS  C316  656   4.796   5.072   6.126  0.5146 -0.0330 -0.1532
    5SAPS  H16X  657   4.902   5.100   6.111  0.7264 -0.6983  0.0645
    5SAPS  H16Y  658   4.780   4.963   6.116 -1.7387  0.2541 -0.3739
    5SAPS  C317  659   4.738   5.115   6.259 -0.3787 -0.2050  0.1210
    5SAPS  H17X  660   4.779   5.041   6.331  0.6217 -0.2861 -0.5195
    5SAPS  H17Y  661   4.628   5.122   6.272 -0.5596 -1.4294 -0.6709
    5SAPS  C318  662   4.794   5.251   6.303 -0.3916  0.2347 -0.1985
    5SAPS  H18X  663   4.744   5.271   6.400 -1.4249 -4.0869  0.3977
    5SAPS  H18Y  664   4.754   5.329   6.235 -2.4692 -0.9233 -0.3844
    5SAPS  H18Z  665   4.903   5.259   6.323 -0.5641  3.2417 -0.1223
    6SAPS     N  666   0.091   5.876   6.926 -0.3977 -0.3824  0.2697
    6SAPS   HN1  667   0.085   5.782   6.970  0.9039 -1.8355 -2.3725
    6SAPS   HN2  668   0.040   5.862   6.836  1.4401  2.0137 -1.2753
    6SAPS   HN3  669   0.190   5.898   6.903 -0.8526  1.0624 -0.4805
    6SAPS   C12  670   0.045   5.970   7.025 -0.4038 -0.0087 -0.2342
    6SAPS  H12A  671  -0.053   5.939   7.058  0.9589 -0.0128  4.4976
    6SAPS   C13  672   0.116   5.970   7.163  0.3398 -0.1546  0.3590
    6SAPS  O13A  673   0.228   5.910   7.172  0.1129  0.4456 -0.1942
    6SAPS  O13B  674   0.063   6.031   7.264  0.0769  0.0472  0.6166
    6SAPS   C11  675   0.056   6.118   6.963 -0.6800  0.0782  0.3840
    6SAPS  H11A  676   0.165   6.135   6.949 -0.2475 -2.5339  0.0650
    6SAPS  H11B  677  -0.000   6.180   7.035 -1.0661  0.3510 -0.1484
    6SAPS     P  678  -0.152   6.177   6.800 -0.0545  0.8580 -0.0104
    6SAPS   O13  679  -0.242   6.073   6.844 -0.3386 -0.1496 -0.1628
    6SAPS   O14  680  -0.174   6.309   6.870  0.0932  0.3171  0.2155
    6SAPS   O12  681  -0.000   6.134   6.832  0.0748 -0.2879  0.3013
    6SAPS   O11  682  -0.158   6.186   6.644 -0.0314  0.1385  0.4226
    6SAPS    C1  683  -0.033   6.202   6.566  1.1446  0.0093 -0.0670
    6SAPS    HA  684   0.017   6.295   6.602  0.9854  1.2672 -2.8228
    6SAPS    HB  685   0.034   6.114   6.582  1.1699  0.1197  0.4403
    6SAPS    C2  686  -0.056   6.236   6.417 -0.5197 -0.2745 -0.2108
    6SAPS    HS  687   0.043   6.222   6.367 -0.1485  0.0836  0.4238
    6SAPS   O21  688  -0.102   6.371   6.402 -0.6570 -0.3532  0.4943
    6SAPS   C21  689  -0.056   6.444   6.305  0.6558 -0.0262  0.1280
    6SAPS   O22  690   0.037   6.414   6.235 -0.2666 -0.4075  0.3390
    6SAPS   C22  691  -0.131   6.580   6.303 -0.5822  0.3378  0.2946
    6SAPS   H2R  692  -0.241   6.564   6.302 -0.7549  1.4075 -1.7806
    6SAPS   H2S  693  -0.105   6.639   6.394  0.7026 -1.4250  1.1249
    6SAPS    C3  694  -0.155   6.137   6.351 -0.4609  0.4189  0.4214
    6SAPS    HX  695  -0.254   6.175   6.384 -0.0817  2.6166 -0.7593
    6SAPS    HY  696  -0.132   6.037   6.392 -0.3469  0.9122  1.5906
    6SAPS   O31  697  -0.146   6.151   6.206  0.3721  0.3846 -0.5876
    6SAPS   C31  698  -0.055   6.070   6.150  0.2868 -0.2546 -0.7158
    6SAPS   O32  699   0.012   5.989   6.213 -0.3247  0.0156 -0.2824
    6SAPS   C32  700  -0.037   6.108   6.002  0.1633  1.0054  0.4914
    6SAPS   H2X  701   0.014   6.206   5.989  2.2959 -0.1868 -0.5578
    6SAPS   H2Y  702  -0.133   6.102   5.946  1.1585 -0.4353 -1.1411
    6SAPS   C23  703  -0.090   6.663   6.182 -0.5195  1.0969  0.7842
    6SAPS   H3R  704   0.016   6.650   6.152 -0.5303  1.8041  0.3986
    6SAPS   H3S  705  -0.118   6.770   6.191 -3.0567  0.5653  0.0926
    6SAPS   C24  706  -0.182   6.622   6.064  0.6790 -0.2994  0.8430
    6SAPS   H4R  707  -0.284   6.640   6.105 -0.6633  0.5852 -2.5021
    6SAPS   H4S  708  -0.162   6.514   6.044 -0.1066 -0.4845  0.9887
    6SAPS   C25  709  -0.182   6.712   5.945 -0.0538 -0.3049  0.1030
    6SAPS   H5R  710  -0.258   6.791   5.934  2.5011  2.2086 -0.7753
    6SAPS   C26  711  -0.088   6.708   5.852  0.9823  0.1286 -0.1507
    6SAPS   H6R  712  -0.104   6.779   5.770  1.0304  0.4669  0.1288
    6SAPS   C27  713   0.032   6.619   5.838  0.6723  0.3482 -0.4846
    6SAPS   H7R  714   0.080   6.597   5.936  2.2998 -0.2077 -1.3713
    6SAPS   H7S  715   0.113   6.671   5.784  0.1888 -0.5281 -2.1058
    6SAPS   C28  716   0.004   6.489   5.770 -1.2800 -0.5540 -0.2631
    6SAPS   H8R  717  -0.056   6.420   5.830  1.7130 -1.9186  1.3810
    6SAPS   C29  718   0.059   6.452   5.652  0.2343 -0.5433 -0.8089
    6SAPS   H9R  719   0.028   6.350   5.629 -0.4373 -0.9768  1.7520
    6SAPS  C210  720   0.147   6.531   5.562 -0.9661 -0.2163  0.6464
    6SAPS  H10R  721   0.214   6.594   5.624 -1.1672  0.6264  0.0236
    6SAPS  H10S  722   0.088   6.596   5.494 -0.7003  0.1670  0.7757
    6SAPS  C211  723   0.256   6.446   5.493 -0.2476  0.4303 -0.0289
    6SAPS  H11R  724   0.297   6.365   5.555 -2.9943 -1.3291 -0.3077
    6SAPS  C212  725   0.303   6.469   5.369 -0.0688 -0.0550 -0.3549
    6SAPS  H12R  726   0.389   6.408   5.335  2.5772  3.6399 -0.8639
    6SAPS  C213  727   0.265   6.576   5.270  0.2332 -0.2902 -0.3468
    6SAPS  H13R  728   0.246   6.664   5.335  0.0540 -1.5182  1.3415
    6SAPS  H13S  729   0.168   6.553   5.221 -0.2466 -0.8766  0.8213
    6SAPS  C214  730   0.385   6.604   5.183  0.7668  0.3448 -0.2019
    6SAPS  H14R  731   0.470   6.648   5.238  0.8349  1.4643 -1.1615
    6SAPS  C215  732   0.396   6.576   5.052 -0.1627 -0.1668 -0.1646
    6SAPS  H15R  733   0.488   6.598   4.996  0.2588 -1.9834 -0.2378
    6SAPS  C216  734   0.294   6.519   4.961  0.2096 -0.9029  0.5537
    6SAPS  H16R  735   0.217   6.459   5.015 -2.7558  2.5184  0.4798
    6SAPS  H16S  736   0.347   6.464   4.880 -0.4768  0.3210 -0.7583
    6SAPS  C217  737   0.227   6.632   4.891 -0.2698 -0.5991  0.1173
    6SAPS  H17R  738   0.298   6.699   4.837 -1.1681  1.7536  1.6819
    6SAPS  H17S  739   0.185   6.703   4.965 -0.0934  0.1157 -0.4489
    6SAPS  C218  740   0.116   6.574   4.805 -0.4998 -0.3372 -0.0315
    6SAPS  H18R  741   0.069   6.488   4.856 -3.3651  0.9480 -0.3083
    6SAPS  H18S  742   0.157   6.541   4.707 -0.0548 -2.6982  0.8838
    6SAPS  C219  743   0.011   6.678   4.779  0.6380 -0.1010 -0.1651
    6SAPS  H19R  744  -0.064   6.640   4.706 -1.3303  1.3601  0.9656
    6SAPS  H19S  745   0.053   6.770   4.733  0.8627 -0.4217 -0.6074
    6SAPS  C220  746  -0.072   6.708   4.905 -0.5928  0.0858  0.1818
    6SAPS  H20R  747  -0.160   6.771   4.883  1.4083  3.0085  0.0646
    6SAPS  H20S  748  -0.013   6.751   4.988 -1.3086 -2.7077  2.2867
    6SAPS  H20T  749  -0.116   6.613   4.943  0.7828 -0.2731  0.9506
    6SAPS   C33  750   0.059   6.013   5.928 -0.0023 -0.0589 -0.0487
    6SAPS   H3X  751   0.012   5.916   5.951 -0.4158 -0.0278 -0.7287
    6SAPS   H3Y  752   0.154   6.015   5.986 -1.1547  1.7178  1.9415
    6SAPS   C34  753   0.083   6.041   5.779  0.0295  0.4572  0.2141
    6SAPS   H4X  754   0.151   6.129   5.777  1.1150 -0.3666 -0.8789
    6SAPS   H4Y  755  -0.013   6.066   5.728  0.0707 -1.4494 -0.8827
    6SAPS   C35  756   0.159   5.929   5.705  0.2815  0.0765  0.1329
    6SAPS   H5X  757   0.092   5.840   5.707 -0.4356  0.5616 -1.4470
    6SAPS   H5Y  758   0.246   5.903   5.770 -0.3043 -2.0647  0.1403
    6SAPS   C36  759   0.201   5.957   5.561  0.3790 -0.1341  0.2086
    6SAPS   H6X  760   0.290   6.021   5.579  0.9346 -1.3783  2.1546
    6SAPS   H6Y  761   0.115   6.014   5.520 -2.7084 -3.5712  1.3896
    6SAPS   C37  762   0.236   5.840   5.471  0.0358 -0.2780  0.5807
    6SAPS   H7X  763   0.150   5.771   5.456 -0.4092  0.5803 -1.0150
    6SAPS   H7Y  764   0.315   5.793   5.533 -2.3835 -2.4863  2.1986
    6SAPS   C38  765   0.296   5.876   5.336 -0.2047  0.7994 -0.3540
    6SAPS   H8X  766   0.291   5.787   5.269 -1.8828  0.6049 -0.0168
    6SAPS   H8Y  767   0.404   5.902   5.349 -0.3237  0.4739  1.7345
    6SAPS   C39  768   0.214   5.986   5.261 -0.0854  0.3000  0.0744
    6SAPS   H9X  769   0.215   6.084   5.313 -0.9072  0.4185 -0.1299
    6SAPS   H9Y  770   0.110   5.949   5.247  0.2784  0.0302 -2.4906
    6SAPS  C310  771   0.273   6.001   5.116 -0.4650  0.5060  0.5864
    6SAPS  H10X  772   0.265   5.911   5.051  1.0805 -0.3544  1.5110
    6SAPS  H10Y  773   0.383   6.006   5.134 -0.4574 -2.0517  1.8807
    6SAPS  C311  774   0.219   6.122   5.036 -0.1368  0.1227  0.2381
    6SAPS  H11X  775   0.211   6.220   5.087 -0.4334  1.1905 -1.7618
    6SAPS  H11Y  776   0.113   6.090   5.024  0.4069 -1.1776 -1.3653
    6SAPS  C312  777   0.289   6.137   4.896 -0.3891  0.2049 -0.6482
    6SAPS  H12X  778   0.359   6.052   4.882  0.5814  0.7152  0.8428
    6SAPS  H12Y  779   0.350   6.230   4.904  2.8175 -1.9035  4.6468
    6SAPS  C313  780   0.195   6.151   4.780  0.1730 -0.4758  0.5626
    6SAPS  H13X  781   0.141   6.245   4.804  2.8043  0.8312  1.7611
    6SAPS  H13Y  782   0.117   6.072   4.778 -1.0075  0.6556 -1.2516
    6SAPS  C314  783   0.281   6.171   4.652  0.1470 -0.2934  0.3334
    6SAPS  H14X  784   0.352   6.253   4.673 -0.0914  0.0565 -0.2079
    6SAPS  H14Y  785   0.209   6.198   4.571 -0.5668  1.6702  1.5519
    6SAPS  C315  786   0.371   6.055   4.604  0.0103  0.1227 -0.0693
    6SAPS  H15X  787   0.373   6.048   4.494  0.1866 -0.8242 -0.0099
    6SAPS  H15Y  788   0.320   5.962   4.636 -1.5840  0.8623 -0.3463
    6SAPS  C316  789   0.525   6.064   4.640  0.4903  0.6644  0.1559
    6SAPS  H16X  790   0.526   6.075   4.751 -0.1007 -0.8547  0.3401
    6SAPS  H16Y  791   0.566   6.157   4.597  0.5320  0.0541 -1.1707
    6SAPS  C317  792   0.624   5.950   4.608  0.7954  0.2284 -0.2352
    6SAPS  H17X  793   0.616   5.927   4.499  2.5086  0.2904 -0.4010
    6SAPS  H17Y  794   0.592   5.858   4.662  2.6332 -0.4433 -0.2098
    6SAPS  C318  795   0.772   5.993   4.631  0.1099 -0.0136  0.4748
    6SAPS  H18X  796   0.841   5.917   4.588 -0.7572  0.0777 -1.1622
    6SAPS  H18Y  797   0.790   6.019   4.737 -0.8101  2.7287  0.0352
    6SAPS  H18Z  798   0.791   6.087   4.576  0.5453  0.4797  1.4633
    7SAPS     N  799   3.083   1.484   7.659  0.2623  0.0492 -0.5131
    7SAPS   HN1  800   3.037   1.547   7.591 -0.7773 -0.5717 -0.4025
    7SAPS   HN2  801   3.006   1.458   7.724 -0.0437  0.2006 -0.8132
    7SAPS   HN3  802   3.162   1.520   7.717 -0.2839  1.3325 -0.5146
    7SAPS   C12  803   3.127   1.355   7.592 -0.8994 -0.0337 -0.4371
    7SAPS  H12A  804   3.217   1.384   7.539 -1.8373  3.2489 -0.4583
    7SAPS   C13  805   3.154   1.253   7.705  0.7844 -0.0454  0.4889
    7SAPS  O13A  806   3.114   1.276   7.821 -0.6665  0.3778 -0.0090
    7SAPS  O13B  807   3.227   1.160   7.679  0.2555  0.3827  0.3047
    7SAPS   C11  808   3.018   1.311   7.499 -0.9828  0.4844 -0.0938
    7SAPS  H11A  809   2.929   1.299   7.564  0.8778 -1.9657  2.2092
    7SAPS  H11B  810   3.031   1.208   7.459  1.7946  0.5303  0.5058
    7SAPS     P  811   3.074   1.400   7.256 -0.1247 -0.6784 -0.0106
    7SAPS   O13  812   3.110   1.535   7.206  0.3296  0.3697  0.2312
    7SAPS   O14  813   3.194   1.319   7.276 -0.1108 -0.2065 -0.4529
    7SAPS   O12  814   2.989   1.403   7.391 -0.5678 -0.3943 -0.5685
    7SAPS   O11  815   2.982   1.322   7.149 -0.5018  0.1735 -0.3706
    7SAPS    C1  816   2.922   1.198   7.173  0.6551 -0.7520 -0.2880
    7SAPS    HA  817   2.931   1.154   7.274 -1.9445 -0.7401  0.0158
    7SAPS    HB  818   2.812   1.203   7.158  0.6822 -1.5462 -0.7855
    7SAPS    C2  819   2.961   1.092   7.066  0.0196 -0.4655  0.7351
    7SAPS    HS  820   3.069   1.073   7.084  0.2131 -0.9926 -0.8181
    7SAPS   O21  821   2.928   1.138   6.934 -0.6534  0.0816  0.2931
    7SAPS   C21  822   3.032   1.193   6.865 -0.2477  0.4116  0.0281
    7SAPS   O22  823   3.152   1.196   6.902  0.0949 -0.5886 -0.1628
    7SAPS   C22  824   2.981   1.248   6.728 -0.6088 -0.8770  0.4429
    7SAPS   H2R  825   2.880   1.208   6.704 -0.8023 -0.8828  1.2400
    7SAPS   H2S  826   2.969   1.358   6.741 -0.1106 -0.7935  0.1915
    7SAPS    C3  827   2.887   0.958   7.081 -0.7246 -0.4550  0.4992
    7SAPS    HX  828   2.777   0.977   7.084 -0.5189  0.8980  0.1131
    7SAPS    HY  829   2.915   0.919   7.181  1.0326 -0.0406  0.1980
    7SAPS   O31  830   2.924   0.861   6.978  0.3052 -0.0346 -0.8052
    7SAPS   C31  831   2.831   0.787   6.932 -0.3099  0.5183  0.0741
    7SAPS   O32  832   2.718   0.776   6.976  0.2448 -0.5375  0.3053
    7SAPS   C32  833   2.886   0.723   6.800  0.1929 -0.0861  0.3200
    7SAPS   H2X  834   2.880   0.614   6.818  1.5308 -0.5062 -1.4867
    7SAPS   H2Y  835   2.988   0.763   6.780 -1.2918  2.5746 -2.8917
    7SAPS   C23  836   3.083   1.215   6.615  0.2560  0.0949  0.4678
    7SAPS   H3R  837   3.097   1.104   6.614  1.2983  0.2140 -1.6056
    7SAPS   H3S  838   3.183   1.251   6.645  0.0699  1.0536 -0.0497
    7SAPS   C24  839   3.039   1.266   6.484  0.0980 -0.4942 -0.6136
    7SAPS   H4R  840   3.003   1.370   6.496  1.3856 -0.1534  0.5961
    7SAPS   H4S  841   2.950   1.209   6.451 -2.5541  2.9501  0.0612
    7SAPS   C25  842   3.143   1.267   6.381  0.0908  0.0955 -0.2469
    7SAPS   H5R  843   3.226   1.333   6.409 -0.7660  1.0541  0.0898
    7SAPS   C26  844   3.130   1.207   6.258  0.5301  0.5098  0.4917
    7SAPS   H6R  845   3.215   1.217   6.189  1.2012  0.1873  1.2586
    7SAPS   C27  846   3.019   1.121   6.205 -0.1388  0.2802  0.1312
    7SAPS   H7R  847   2.961   1.183   6.133  2.7609  0.8619 -1.9209
    7SAPS   H7S  848   2.950   1.091   6.286  1.4301 -1.0375  1.0388
    7SAPS   C28  849   3.062   0.994   6.130 -0.8211 -0.2619 -0.0729
    7SAPS   H8R  850   3.038   0.901   6.182 -2.3158 -1.1310 -2.1604
    7SAPS   C29  851   3.101   0.994   6.001 -0.5528  0.0721  0.6529
    7SAPS   H9R  852   3.111   0.899   5.947 -2.8480  0.9682 -1.4867
    7SAPS  C210  853   3.122   1.129   5.930 -0.1923 -0.2417  0.5878
    7SAPS  H10R  854   3.230   1.123   5.906 -0.5673 -0.3637 -1.2179
    7SAPS  H10S  855   3.123   1.219   5.995  2.1989 -1.1815  1.9859
    7SAPS  C211  856   3.051   1.139   5.797  0.2069 -0.2347 -0.4368
    7SAPS  H11R  857   2.951   1.185   5.802  0.5510  0.4110  1.5384
    7SAPS  C212  858   3.095   1.097   5.678 -0.6569  0.2011  0.7983
    7SAPS  H12R  859   3.030   1.083   5.590  1.2900  0.3278 -0.7546
    7SAPS  C213  860   3.230   1.033   5.659  0.5785 -0.5927  0.5048
    7SAPS  H13R  861   3.223   0.953   5.582  0.5550  2.4085 -2.9166
    7SAPS  H13S  862   3.253   0.969   5.747 -0.6843  0.7505  1.8572
    7SAPS  C214  863   3.348   1.116   5.631  0.0211 -0.2399 -0.1971
    7SAPS  H14R  864   3.343   1.208   5.690  0.1930 -0.8225  0.7324
    7SAPS  C215  865   3.429   1.100   5.520 -0.6182  0.5834 -0.0851
    7SAPS  H15R  866   3.525   1.155   5.520  0.5413 -1.3622  0.2749
    7SAPS  C216  867   3.441   0.980   5.423 -0.3021  0.1508  0.3425
    7SAPS  H16R  868   3.414   0.893   5.487  1.4948 -0.0163  0.9322
    7SAPS  H16S  869   3.549   0.967   5.400 -0.1451 -0.9336  1.5853
    7SAPS  C217  870   3.375   0.978   5.277  0.1826 -0.2772 -0.0031
    7SAPS  H17R  871   3.433   0.892   5.236  1.6249  0.8426 -0.4286
    7SAPS  H17S  872   3.409   1.067   5.220  2.0331 -0.7011  0.3565
    7SAPS  C218  873   3.224   0.954   5.276 -0.0352  0.1993 -0.4593
    7SAPS  H18R  874   3.163   1.026   5.334 -0.0242  0.0767 -0.2969
    7SAPS  H18S  875   3.203   0.852   5.315 -3.1999  0.5573 -0.9612
    7SAPS  C219  876   3.175   0.954   5.125  0.2013  0.0477 -0.1383
    7SAPS  H19R  877   3.220   0.868   5.071  0.4209  0.9197 -1.3586
    7SAPS  H19S  878   3.216   1.044   5.077  2.5329 -0.5404  0.6176
    7SAPS  C220  879   3.024   0.940   5.109 -0.1090  0.0660  0.0551
    7SAPS  H20R  880   2.969   1.022   5.160  1.5490 -0.4953  3.0010
    7SAPS  H20S  881   2.992   0.839   5.145  0.0648 -0.0208 -0.0332
    7SAPS  H20T  882   2.988   0.937   5.004 -0.4148 -0.0758  0.1612
    7SAPS   C33  883   2.798   0.758   6.677  0.1412 -0.3692 -0.2749
    7SAPS   H3X  884   2.688   0.744   6.692  0.1836 -1.6821 -1.0530
    7SAPS   H3Y  885   2.827   0.682   6.601 -1.5549 -2.3677  0.9515
    7SAPS   C34  886   2.825   0.903   6.628 -0.5386 -0.8567 -0.3453
    7SAPS   H4X  887   2.933   0.918   6.611 -0.7993  1.7915 -0.1284
    7SAPS   H4Y  888   2.793   0.970   6.711 -0.0963 -2.4614  1.1907
    7SAPS   C35  889   2.742   0.943   6.499 -0.6884 -0.3909  0.3674
    7SAPS   H5X  890   2.746   1.053   6.485  0.2773 -0.5967 -1.0620
    7SAPS   H5Y  891   2.640   0.913   6.532 -0.7110 -1.2260 -0.4414
    7SAPS   C36  892   2.769   0.861   6.372 -0.5582  0.3101  1.2260
    7SAPS   H6X  893   2.771   0.758   6.413 -1.5017  0.5984  2.0372
    7SAPS   H6Y  894   2.860   0.882   6.313 -1.7552 -0.1905 -0.8976
    7SAPS   C37  895   2.646   0.865   6.275  0.2422 -0.7219 -0.1191
    7SAPS   H7X  896   2.634   0.968   6.235  0.0765 -0.9483 -0.6594
    7SAPS   H7Y  897   2.558   0.843   6.340  0.8278 -1.9419  0.3093
    7SAPS   C38  898   2.652   0.766   6.157 -0.3456 -0.2586 -1.0013
    7SAPS   H8X  899   2.548   0.748   6.120 -0.7802  0.1537 -0.0228
    7SAPS   H8Y  900   2.685   0.667   6.195 -0.1507  1.0195  2.4822
    7SAPS   C39  901   2.735   0.809   6.044 -0.5254 -0.8030  1.0250
    7SAPS   H9X  902   2.838   0.771   6.064 -0.9303 -1.6158  1.6090
    7SAPS   H9Y  903   2.743   0.920   6.033  0.5745 -0.9008  0.6711
    7SAPS  C310  904   2.684   0.774   5.900  0.0464 -0.0525  0.2385
    7SAPS  H10X  905   2.588   0.829   5.883 -0.3142 -1.0099 -0.9968
    7SAPS  H10Y  906   2.656   0.667   5.901  1.3884 -0.6175 -3.6528
    7SAPS  C311  907   2.777   0.809   5.783 -0.2920 -0.1827  0.1412
    7SAPS  H11X  908   2.879   0.772   5.806  0.4775  1.7411 -0.0076
    7SAPS  H11Y  909   2.787   0.919   5.774  1.0420 -0.1544  1.4934
    7SAPS  C312  910   2.722   0.741   5.652  0.0400 -0.0045  0.1850
    7SAPS  H12X  911   2.613   0.764   5.654  0.5720  2.7376  0.9470
    7SAPS  H12Y  912   2.727   0.630   5.659 -3.3069 -0.3375 -0.6897
    7SAPS  C313  913   2.806   0.795   5.539 -0.1391 -0.8267  0.1821
    7SAPS  H13X  914   2.911   0.799   5.573 -0.5307 -0.2702  1.3644
    7SAPS  H13Y  915   2.782   0.902   5.520 -0.5775 -0.8310  0.7095
    7SAPS  C314  916   2.801   0.727   5.407  0.1683  0.6369 -0.4533
    7SAPS  H14X  917   2.858   0.633   5.424 -1.7354 -0.5706 -0.4222
    7SAPS  H14Y  918   2.861   0.787   5.335  0.9141  0.4742  0.0180
    7SAPS  C315  919   2.670   0.691   5.345  0.1306 -0.0063 -0.1359
    7SAPS  H15X  920   2.611   0.784   5.333 -0.8414  0.0394  3.6832
    7SAPS  H15Y  921   2.609   0.610   5.392 -0.8561  0.2560 -0.9405
    7SAPS  C316  922   2.679   0.650   5.203 -0.4642 -0.1840 -0.0661
    7SAPS  H16X  923   2.706   0.739   5.142  0.6866 -0.9012 -0.6505
    7SAPS  H16Y  924   2.581   0.614   5.165 -0.5096 -1.3669  1.1091
    7SAPS  C317  925   2.776   0.544   5.173 -0.0725  0.4156  0.7382
    7SAPS  H17X  926   2.746   0.454   5.230  0.5031 -0.9932 -1.1022
    7SAPS  H17Y  927   2.875   0.586   5.202 -0.7173  3.3415 -0.9043
    7SAPS  C318  928   2.777   0.529   5.020  0.1090 -0.6044  0.5314
    7SAPS  H18X  929   2.680   0.487   4.985  0.5458 -1.8983  0.8260
    7SAPS  H18Y  930   2.858   0.456   4.999 -1.4807 -1.9316 -1.3326
    7SAPS  H18Z  931   2.796   0.626   4.970 -2.2927 -0.9292 -1.2172
    8SAPS     N  932   2.548   2.072   7.278  0.3318  0.0856  0.6602
    8SAPS   HN1  933   2.469   2.139   7.271 -0.5513 -1.1319 -2.8424
    8SAPS   HN2  934   2.640   2.121   7.283 -0.0067  1.0750 -1.6422
    8SAPS   HN3  935   2.539   2.006   7.198 -0.3191  1.0145 -0.0558
    8SAPS   C12  936   2.531   1.993   7.405  0.2678 -1.0154  0.8916
    8SAPS  H12A  937   2.617   1.928   7.418 -0.1266 -2.1961 -1.7031
    8SAPS   C13  938   2.526   2.086   7.525 -0.9372  0.1389 -0.3253
    8SAPS  O13A  939   2.557   2.203   7.517  0.1348  0.3723  0.1617
    8SAPS  O13B  940   2.492   2.038   7.636  0.1969 -0.7296 -0.4008
    8SAPS   C11  941   2.403   1.910   7.389  0.1181 -0.4827  0.5060
    8SAPS  H11A  942   2.325   1.988   7.378  1.5598  0.7647 -1.6322
    8SAPS  H11B  943   2.396   1.847   7.480 -0.2541 -1.2378 -0.0345
    8SAPS     P  944   2.296   1.726   7.226  0.0121 -0.2794  0.0193
    8SAPS   O13  945   2.353   1.609   7.154 -0.3041  0.8599  0.7280
    8SAPS   O14  946   2.200   1.698   7.330 -0.1509 -0.0476 -0.2512
    8SAPS   O12  947   2.414   1.815   7.280  0.2021 -0.0304 -0.0715
    8SAPS   O11  948   2.234   1.824   7.120 -0.2055  0.4586 -0.2448
    8SAPS    C1  949   2.309   1.924   7.043  0.9311 -0.1606 -0.4475
    8SAPS    HA  950   2.401   1.960   7.095  1.2166 -0.4180 -0.7727
    8SAPS    HB  951   2.338   1.883   6.944  1.4984  0.2033 -0.4351
    8SAPS    C2  952   2.231   2.057   7.038  0.4955  0.0828  0.4298
    8SAPS    HS  953   2.228   2.105   7.138 -0.8251  1.5746 -0.2941
    8SAPS   O21  954   2.097   2.017   7.004 -0.0444 -0.1354  0.4378
    8SAPS   C21  955   2.012   2.005   7.101  0.9399  0.0803  0.3487
    8SAPS   O22  956   2.015   2.046   7.212  0.4041  0.2694 -0.1953
    8SAPS   C22  957   1.890   1.911   7.057  0.2780 -0.3386  0.8624
    8SAPS   H2R  958   1.843   1.953   6.966  1.6829  0.2967  0.3964
    8SAPS   H2S  959   1.936   1.814   7.028  0.1175  0.1378 -1.1118
    8SAPS    C3  960   2.293   2.147   6.929 -0.1201 -0.4081 -0.0189
    8SAPS    HX  961   2.254   2.249   6.951  1.1691  0.3791 -1.1824
    8SAPS    HY  962   2.242   2.131   6.831 -0.6455 -0.6252  0.2888
    8SAPS   O31  963   2.438   2.147   6.927  0.0450  0.1203 -0.2573
    8SAPS   C31  964   2.501   2.257   6.903  0.0779  0.4518 -1.1493
    8SAPS   O32  965   2.455   2.357   6.861  0.5368 -0.5453  0.0527
    8SAPS   C32  966   2.649   2.226   6.939  0.3084  0.1181 -0.3838
    8SAPS   H2X  967   2.684   2.135   6.886  0.8088 -0.6313  1.1724
    8SAPS   H2Y  968   2.660   2.205   7.047  0.4461  2.4609  0.1096
    8SAPS   C23  969   1.793   1.900   7.175  0.2057  0.7152 -0.4486
    8SAPS   H3R  970   1.772   2.002   7.216  0.6411  0.7688 -0.3535
    8SAPS   H3S  971   1.837   1.835   7.254  0.6039  0.6045 -0.7587
    8SAPS   C24  972   1.652   1.841   7.145 -0.4794  0.3105 -0.3723
    8SAPS   H4R  973   1.602   1.816   7.241  3.5690  0.2623  1.9373
    8SAPS   H4S  974   1.672   1.740   7.101  0.0356 -0.3152  1.2086
    8SAPS   C25  975   1.574   1.940   7.060  0.0831 -0.1267  0.0979
    8SAPS   H5R  976   1.563   2.038   7.109 -0.0231  1.0560 -2.1743
    8SAPS   C26  977   1.514   1.923   6.944 -0.4053 -0.2798 -0.0901
    8SAPS   H6R  978   1.456   2.010   6.910  1.7814  0.7602 -1.3238
    8SAPS   C27  979   1.485   1.787   6.883 -0.6754  0.0756  0.5755
    8SAPS   H7R  980   1.390   1.789   6.825 -0.1607  0.1211 -0.2878
    8SAPS   H7S  981   1.484   1.704   6.957  0.5679  0.4023  0.9807
    8SAPS   C28  982   1.595   1.742   6.787  0.4241  0.1431 -0.9190
    8SAPS   H8R  983   1.683   1.693   6.831 -0.1263  0.2922  0.4287
    8SAPS   C29  984   1.584   1.762   6.656 -0.0218 -0.0680  0.3958
    8SAPS   H9R  985   1.665   1.721   6.594  0.2011 -0.7198  1.1068
    8SAPS  C210  986   1.479   1.826   6.569  0.0217 -0.1969 -0.3226
    8SAPS  H10R  987   1.512   1.930   6.552 -0.2332  0.1611  1.2542
    8SAPS  H10S  988   1.384   1.828   6.627  0.7643  0.1755  0.9170
    8SAPS  C211  989   1.448   1.765   6.434 -0.4259  0.7918  0.0788
    8SAPS  H11R  990   1.375   1.683   6.443 -1.0615  1.4493  0.9566
    8SAPS  C212  991   1.514   1.780   6.322 -0.2357  0.5974  0.3006
    8SAPS  H12R  992   1.510   1.706   6.242 -0.5990  0.2862  0.6049
    8SAPS  C213  993   1.616   1.890   6.301 -0.3671  0.5023  0.6788
    8SAPS  H13R  994   1.710   1.872   6.357  2.2718  1.5866 -3.0237
    8SAPS  H13S  995   1.565   1.983   6.333 -3.0266  1.3417 -4.7891
    8SAPS  C214  996   1.658   1.918   6.154  0.1716 -0.3354  0.4523
    8SAPS  H14R  997   1.590   1.886   6.074 -1.6017  3.3543  0.2802
    8SAPS  C215  998   1.739   2.017   6.119 -0.6756 -1.0966 -0.0746
    8SAPS  H15R  999   1.764   2.028   6.012  0.0682 -0.9609  0.1108
    8SAPS  C216 1000   1.831   2.107   6.202 -0.1739  1.0382  0.3257
    8SAPS  H16R 1001   1.804   2.086   6.307  0.2167 -0.3760  0.1634
    8SAPS  H16S 1002   1.803   2.214   6.187 -1.5485  0.6281 -0.0836
    8SAPS  C217 1003   1.985   2.091   6.180  0.3095  0.1140  0.0802
    8SAPS  H17R 1004   2.007   2.114   6.073 -0.8064  1.2548  0.0771
    8SAPS  H17S 1005   2.007   1.984   6.197  1.6267 -0.3837 -3.7387
    8SAPS  C218 1006   2.079   2.181   6.260 -0.3690  0.7565 -0.2873
    8SAPS  H18R 1007   2.034   2.205   6.359 -0.3999  2.7367 -0.7289
    8SAPS  H18S 1008   2.084   2.276   6.202  0.6238 -0.2290 -1.8943
    8SAPS  C219 1009   2.216   2.126   6.278  0.3232  0.1323 -0.9055
    8SAPS  H19R 1010   2.257   2.094   6.179 -2.3673 -1.4086 -1.6276
    8SAPS  H19S 1011   2.206   2.027   6.328  1.3537 -0.6658 -2.1988
    8SAPS  C220 1012   2.326   2.210   6.343 -0.3076 -0.4514  0.4245
    8SAPS  H20R 1013   2.424   2.159   6.349  0.9020  1.4989 -1.3009
    8SAPS  H20S 1014   2.293   2.237   6.446 -2.2455  1.7093 -0.6649
    8SAPS  H20T 1015   2.334   2.315   6.306 -3.5013 -0.2086  0.1794
    8SAPS   C33 1016   2.754   2.326   6.890  0.0063  0.0070 -0.2931
    8SAPS   H3X 1017   2.852   2.325   6.943  1.3228  2.1722 -2.4249
    8SAPS   H3Y 1018   2.714   2.429   6.901 -1.3565 -0.3188 -1.8071
    8SAPS   C34 1019   2.796   2.286   6.750  0.0040 -0.1581 -0.0351
    8SAPS   H4X 1020   2.823   2.179   6.738  1.0757 -0.0173  0.9540
    8SAPS   H4Y 1021   2.895   2.327   6.722  0.1183 -1.9713 -2.6448
    8SAPS   C35 1022   2.703   2.324   6.638 -0.2041  0.0652  0.1859
    8SAPS   H5X 1023   2.678   2.432   6.653 -0.6130 -0.2598  2.1037
    8SAPS   H5Y 1024   2.608   2.267   6.647  0.3386 -0.8868  0.0260
    8SAPS   C36 1025   2.763   2.295   6.500 -0.0082 -0.6711  0.5100
    8SAPS   H6X 1026   2.758   2.185   6.484 -0.7023 -0.6657  0.6276
    8SAPS   H6Y 1027   2.865   2.337   6.494 -0.7760  1.2850  0.5992
    8SAPS   C37 1028   2.676   2.369   6.395 -0.3299  0.0070  0.3595
    8SAPS   H7X 1029   2.675   2.479   6.403 -0.8604 -0.0621  1.3946
    8SAPS   H7Y 1030   2.573   2.331   6.411 -1.6717  2.8380 -1.0023
    8SAPS   C38 1031   2.732   2.342   6.252  0.2381  0.3327  1.0006
    8SAPS   H8X 1032   2.840   2.368   6.252  0.8270 -1.8347  2.0171
    8SAPS   H8Y 1033   2.687   2.410   6.178  4.0527  2.1776  0.1090
    8SAPS   C39 1034   2.714   2.191   6.216 -0.1373 -0.4239 -0.2117
    8SAPS   H9X 1035   2.605   2.174   6.225 -0.5253  1.1453 -1.5145
    8SAPS   H9Y 1036   2.771   2.122   6.282  0.3997 -0.1576 -0.3923
    8SAPS  C310 1037   2.759   2.171   6.068 -0.6399 -0.2572 -0.4939
    8SAPS  H10X 1038   2.868   2.193   6.068 -0.2125 -2.1873 -0.1541
    8SAPS  H10Y 1039   2.711   2.250   6.007  0.1067 -0.3500 -1.2260
    8SAPS  C311 1040   2.743   2.028   6.016  0.4179  0.8520  0.1438
    8SAPS  H11X 1041   2.636   2.021   5.984  0.4821 -0.2660  0.1240
    8SAPS  H11Y 1042   2.763   1.951   6.094  0.7237 -0.3284 -1.0636
    8SAPS  C312 1043   2.836   1.990   5.893  0.1986 -0.4465  0.6792
    8SAPS  H12X 1044   2.798   1.894   5.853  1.2622 -0.2241 -0.9676
    8SAPS  H12Y 1045   2.938   1.970   5.933  0.1096 -0.6943  0.7832
    8SAPS  C313 1046   2.840   2.085   5.768  0.2810 -0.0471 -0.3276
    8SAPS  H13X 1047   2.948   2.079   5.741  0.2710 -2.8964 -0.0483
    8SAPS  H13Y 1048   2.823   2.190   5.797 -0.5413  0.4696 -2.5292
    8SAPS  C314 1049   2.746   2.042   5.649  0.8449 -0.4848  0.7696
    8SAPS  H14X 1050   2.640   2.029   5.681 -0.7117  1.2836 -3.0177
    8SAPS  H14Y 1051   2.777   1.939   5.622 -2.0611 -1.4324  0.6265
    8SAPS  C315 1052   2.735   2.137   5.531  0.1616 -0.0371  0.2363
    8SAPS  H15X 1053   2.836   2.151   5.487 -0.2998  0.0081 -0.8355
    8SAPS  H15Y 1054   2.711   2.237   5.575  0.7697  0.1590  0.1340
    8SAPS  C316 1055   2.633   2.102   5.429  0.9450  0.7495  0.3283
    8SAPS  H16X 1056   2.555   2.178   5.409  0.9356  1.1163  1.6907
    8SAPS  H16Y 1057   2.585   2.005   5.455 -0.0387  0.6855 -1.5456
    8SAPS  C317 1058   2.695   2.081   5.287 -0.1170  0.8054 -0.4816
    8SAPS  H17X 1059   2.626   2.022   5.222  0.6568  0.4672 -1.0147
    8SAPS  H17Y 1060   2.784   2.016   5.303 -0.1219  0.5331 -1.4655
    8SAPS  C318 1061   2.741   2.210   5.227  0.0680 -0.4918  0.1632
    8SAPS  H18X 1062   2.791   2.275   5.301 -2.7758  1.2422  0.7303
    8SAPS  H18Y 1063   2.653   2.268   5.190 -0.5522 -1.3096  0.3205
    8SAPS  H18Z 1064   2.800   2.186   5.135 -0.4837 -2.4533  0.2646
    9SAPS     N 1065   0.163   0.129   7.231 -0.7405 -0.3547 -0.1283
    9SAPS   HN1 1066   0.266   0.131   7.218 -0.9209  2.0327 -1.8866
    9SAPS   HN2 1067   0.127   0.032   7.229  0.6961 -0.8992 -1.6360
    9SAPS   HN3 1068   0.122   0.179   7.150 -1.9267 -3.6865 -1.7540
    9SAPS   C12 1069   0.129   0.177   7.375  0.5886  0.1791 -0.2261
    9SAPS  H12A 1070   0.172   0.276   7.380  1.3528 -0.0880 -1.1604
    9SAPS   C13 1071  -0.025   0.197   7.402  0.5153 -0.5501 -0.5380
    9SAPS  O13A 1072  -0.100   0.225   7.299 -0.7454  0.5336 -0.0904
    9SAPS  O13B 1073  -0.059   0.249   7.516  0.3814 -0.0868  0.0208
    9SAPS   C11 1074   0.206   0.088   7.482 -0.4921  0.1169 -0.2276
    9SAPS  H11A 1075   0.142  -0.003   7.489  0.6833 -0.8854 -1.9496
    9SAPS  H11B 1076   0.208   0.130   7.585  1.7778  1.6811 -0.8511
    9SAPS     P 1077   0.467   0.147   7.446 -0.0084  0.1259 -0.1796
    9SAPS   O13 1078   0.448   0.245   7.557  0.4832 -0.4696 -0.3614
    9SAPS   O14 1079   0.593   0.071   7.440 -0.0490  0.3913 -0.2575
    9SAPS   O12 1080   0.336   0.056   7.437 -0.0809 -1.2889 -0.1438
    9SAPS   O11 1081   0.449   0.226   7.317 -0.3931 -0.7952  0.3942
    9SAPS    C1 1082   0.540   0.327   7.258  0.4326 -1.4936 -0.3458
    9SAPS    HA 1083   0.508   0.432   7.273 -1.8675 -2.0714 -0.8094
    9SAPS    HB 1084   0.634   0.325   7.318 -1.6239 -1.1547  3.1429
    9SAPS    C2 1085   0.565   0.301   7.114  0.6902  0.4054  0.1946
    9SAPS    HS 1086   0.467   0.310   7.063 -0.4378 -0.1962  2.1629
    9SAPS   O21 1087   0.617   0.165   7.095 -0.5183 -0.2121 -0.5297
    9SAPS   C21 1088   0.523   0.070   7.090 -0.1721  0.1820  0.3243
    9SAPS   O22 1089   0.403   0.091   7.094 -0.6372 -0.7211  0.2826
    9SAPS   C22 1090   0.593  -0.066   7.067  0.1200  0.1509  0.4138
    9SAPS   H2R 1091   0.700  -0.052   7.041  0.2310  0.2960  0.9384
    9SAPS   H2S 1092   0.595  -0.115   7.167  0.8383 -2.5902 -0.8271
    9SAPS    C3 1093   0.650   0.417   7.053  0.7452  0.5198 -0.3695
    9SAPS    HX 1094   0.749   0.422   7.103  0.7651  1.6617 -0.5172
    9SAPS    HY 1095   0.600   0.515   7.066 -0.3784 -0.1509  0.6220
    9SAPS   O31 1096   0.664   0.398   6.913 -0.1228  0.0038 -0.0952
    9SAPS   C31 1097   0.716   0.499   6.834  0.6364  0.7688  0.1245
    9SAPS   O32 1098   0.748   0.608   6.874 -0.5473  0.6779 -0.4180
    9SAPS   C32 1099   0.742   0.443   6.692 -0.0070 -0.4318  0.0939
    9SAPS   H2X 1100   0.673   0.359   6.672  1.3080 -2.2452  2.6123
    9SAPS   H2Y 1101   0.849   0.412   6.699 -0.4736 -2.0354  0.4666
    9SAPS   C23 1102   0.529  -0.158   6.959  0.3288  0.5619 -0.2466
    9SAPS   H3R 1103   0.424  -0.126   6.948 -0.0373 -0.5100  0.0123
    9SAPS   H3S 1104   0.529  -0.261   7.000 -0.5746  0.3635 -0.7316
    9SAPS   C24 1105   0.604  -0.141   6.830  1.2293 -0.6324  0.3376
    9SAPS   H4R 1106   0.563  -0.215   6.757  0.2070  0.1964  0.0406
    9SAPS   H4S 1107   0.713  -0.161   6.835  1.1238 -0.9310  1.4966
    9SAPS   C25 1108   0.593  -0.001   6.779  0.1059 -0.1038 -0.7630
    9SAPS   H5R 1109   0.493   0.041   6.763 -0.2025 -0.7109 -0.4673
    9SAPS   C26 1110   0.697   0.068   6.727  0.0740 -0.3186  0.1943
    9SAPS   H6R 1111   0.680   0.175   6.711  0.0019 -0.6580 -2.6813
    9SAPS   C27 1112   0.843   0.026   6.712  0.4652  0.1896  0.2890
    9SAPS   H7R 1113   0.840  -0.071   6.658 -2.7586  0.2169  0.2093
    9SAPS   H7S 1114   0.899   0.006   6.806  0.2122 -2.6711 -0.0705
    9SAPS   C28 1115   0.919   0.135   6.642 -0.6989  0.5321  0.5302
    9SAPS   H8R 1116   0.944   0.220   6.707  0.1901  0.1788  0.6687
    9SAPS   C29 1117   0.954   0.146   6.510 -0.2801 -0.4077 -0.5997
    9SAPS   H9R 1118   1.024   0.227   6.483 -1.1344 -0.0581 -1.8545
    9SAPS  C210 1119   0.919   0.042   6.401 -0.3071 -0.3136 -0.1619
    9SAPS  H10R 1120   0.906  -0.057   6.452  0.5258 -0.1176  0.4481
    9SAPS  H10S 1121   1.000   0.040   6.325  0.6501  0.8528  0.7972
    9SAPS  C211 1122   0.783   0.068   6.340 -0.4337 -0.3734  0.2826
    9SAPS  H11R 1123   0.702   0.049   6.412  2.2581 -2.5080  3.0514
    9SAPS  C212 1124   0.760   0.107   6.211  0.1133 -0.6706 -0.6681
    9SAPS  H12R 1125   0.657   0.111   6.175  0.0339 -2.1947 -0.6594
    9SAPS  C213 1126   0.861   0.148   6.106 -0.5655 -0.1868 -0.0518
    9SAPS  H13R 1127   0.955   0.163   6.164  0.2380  0.4552 -1.4681
    9SAPS  H13S 1128   0.835   0.250   6.071  0.4890 -0.5665 -2.1419
    9SAPS  C214 1129   0.882   0.053   5.986  0.8161  0.1626 -0.1659
    9SAPS  H14R 1130   0.877  -0.055   6.004 -0.4679  0.3712  0.8683
    9SAPS  C215 1131   0.889   0.092   5.858 -0.6811 -0.1200 -0.0166
    9SAPS  H15R 1132   0.914   0.013   5.786  1.1717  1.1167 -0.8100
    9SAPS  C216 1133   0.884   0.229   5.810  0.1469  0.2825  0.0139
    9SAPS  H16R 1134   0.954   0.241   5.725  0.8139  0.8953  0.6355
    9SAPS  H16S 1135   0.916   0.305   5.885  0.8153  1.7269 -1.6593
    9SAPS  C217 1136   0.744   0.263   5.758 -0.2418 -0.2536  0.7748
    9SAPS  H17R 1137   0.660   0.262   5.832  0.2314  3.8788  1.6215
    9SAPS  H17S 1138   0.724   0.192   5.675 -2.4668  1.5959 -0.3749
    9SAPS  C218 1139   0.741   0.404   5.700 -0.3459  0.5171  0.5600
    9SAPS  H18R 1140   0.786   0.392   5.599  0.2763  1.9025  0.6459
    9SAPS  H18S 1141   0.815   0.463   5.758 -0.5164  1.2209  0.0612
    9SAPS  C219 1142   0.600   0.465   5.682  0.2725 -0.2465  0.3530
    9SAPS  H19R 1143   0.563   0.506   5.779  1.9661  2.4956 -0.0607
    9SAPS  H19S 1144   0.534   0.383   5.648 -1.7351  1.7717 -0.8617
    9SAPS  C220 1145   0.597   0.569   5.575 -0.0855 -0.8357 -0.3702
    9SAPS  H20R 1146   0.624   0.522   5.478  0.0603 -1.2019 -0.1554
    9SAPS  H20S 1147   0.674   0.642   5.607  0.1836 -2.0991  2.1316
    9SAPS  H20T 1148   0.498   0.620   5.570  0.8645  1.1665  0.1461
    9SAPS   C33 1149   0.718   0.555   6.583 -0.4131  0.1017 -0.6197
    9SAPS   H3X 1150   0.779   0.641   6.618  0.0493 -0.1463 -0.7981
    9SAPS   H3Y 1151   0.610   0.576   6.572 -0.3273  0.5292 -0.6640
    9SAPS   C34 1152   0.786   0.520   6.452  0.2682 -0.3539 -0.1703
    9SAPS   H4X 1153   0.734   0.433   6.406  0.5296  0.6616 -2.5291
    9SAPS   H4Y 1154   0.894   0.505   6.472  0.8220  1.8047 -1.3092
    9SAPS   C35 1155   0.771   0.635   6.347 -0.2713  0.0250 -0.3444
    9SAPS   H5X 1156   0.829   0.721   6.387  0.7778 -1.0256  0.4902
    9SAPS   H5Y 1157   0.664   0.664   6.343 -0.4170 -0.6289 -2.5943
    9SAPS   C36 1158   0.825   0.594   6.207  0.9486  0.3884  0.5781
    9SAPS   H6X 1159   0.766   0.510   6.164  0.6046  0.8965  0.0437
    9SAPS   H6Y 1160   0.927   0.552   6.215  1.2600  0.6008 -1.6305
    9SAPS   C37 1161   0.829   0.714   6.109 -0.0814 -0.4985  0.1109
    9SAPS   H7X 1162   0.892   0.790   6.160  1.7982 -0.6758 -1.7826
    9SAPS   H7Y 1163   0.731   0.760   6.084  0.6113  2.1740  1.8885
    9SAPS   C38 1164   0.902   0.676   5.979  0.1212  0.0293 -0.2957
    9SAPS   H8X 1165   0.837   0.591   5.949 -0.0868  0.0976 -0.0421
    9SAPS   H8Y 1166   1.005   0.635   5.988  0.2127 -0.0034 -1.3657
    9SAPS   C39 1167   0.916   0.780   5.867  0.4043 -0.3778 -0.3214
    9SAPS   H9X 1168   0.978   0.864   5.904  0.8900 -0.6357 -0.5469
    9SAPS   H9Y 1169   0.814   0.822   5.853  0.3132  0.1104  1.4638
    9SAPS  C310 1170   0.975   0.728   5.736  0.3074  0.2930 -0.6071
    9SAPS  H10X 1171   0.935   0.626   5.716  1.4837 -0.4453  0.6599
    9SAPS  H10Y 1172   1.086   0.726   5.745  0.2918 -1.2373 -0.3871
    9SAPS  C311 1173   0.942   0.809   5.615 -0.2641 -0.2198 -0.1408
    9SAPS  H11X 1174   1.005   0.900   5.615  0.6533 -0.8500 -0.2443
    9SAPS  H11Y 1175   0.835   0.837   5.630 -0.2265 -0.4040  0.4861
    9SAPS  C312 1176   0.955   0.745   5.478 -0.1083 -0.2695  0.7007
    9SAPS  H12X 1177   0.900   0.649   5.472 -1.3236  0.4785 -1.0065
    9SAPS  H12Y 1178   1.063   0.729   5.459  0.0617  0.3472  1.1270
    9SAPS  C313 1179   0.910   0.843   5.355 -0.4827  0.3503  0.2370
    9SAPS  H13X 1180   0.926   0.793   5.257  1.1298  0.7205  0.2792
    9SAPS  H13Y 1181   0.976   0.932   5.347 -0.4463  0.1807 -2.1981
    9SAPS  C314 1182   0.767   0.893   5.373  0.7661 -0.0446 -0.1063
    9SAPS  H14X 1183   0.766   0.970   5.453  0.5443  1.1765 -1.2600
    9SAPS  H14Y 1184   0.699   0.807   5.390 -1.6147  1.8303  0.4667
    9SAPS  C315 1185   0.705   0.944   5.243 -1.3035 -0.2130  0.7677
    9SAPS  H15X 1186   0.602   0.974   5.272 -1.4584 -0.0291  0.0502
    9SAPS  H15Y 1187   0.688   0.872   5.160 -0.8467 -0.6410  1.0434
    9SAPS  C316 1188   0.782   1.059   5.167  0.2901  0.7274 -0.0601
    9SAPS  H16X 1189   0.718   1.082   5.079 -0.2953  1.7882  0.6314
    9SAPS  H16Y 1190   0.888   1.030   5.150  0.3230 -0.8096  2.3315
    9SAPS  C317 1191   0.791   1.178   5.262 -0.0374  0.0951  0.0718
    9SAPS  H17X 1192   0.835   1.261   5.202 -1.1363  1.3919  0.9971
    9SAPS  H17Y 1193   0.863   1.163   5.345 -0.1514  0.0561  0.1639
    9SAPS  C318 1194   0.661   1.235   5.309  0.0642 -0.3058  0.6731
    9SAPS  H18X 1195   0.623   1.175   5.394 -0.8089 -0.0877  0.4512
    9SAPS  H18Y 1196   0.582   1.239   5.230 -1.6005  1.1705  2.3329
    9SAPS  H18Z 1197   0.679   1.336   5.350 -0.9772 -0.5062  1.6882
   10SAPS     N 1198   6.271   6.451   7.184 -0.0606 -0.5818  0.1266
   10SAPS   HN1 1199   6.178   6.432   7.227  0.0247  0.4262  0.7637
   10SAPS   HN2 1200   6.252   6.468   7.083 -0.1923 -1.5371 -0.0194
   10SAPS   HN3 1201   6.344   6.377   7.183  0.8125  0.2471  1.0305
   10SAPS   C12 1202   6.324   6.580   7.242  0.1142 -0.5560  0.0242
   10SAPS  H12A 1203   6.248   6.654   7.264  0.8650 -0.0416  1.0148
   10SAPS   C13 1204   6.408   6.553   7.368 -0.6208  0.3981  0.0191
   10SAPS  O13A 1205   6.444   6.434   7.386 -0.2932  0.1797 -0.6465
   10SAPS  O13B 1206   6.452   6.644   7.442  0.5677  0.4586  0.5976
   10SAPS   C11 1207   6.424   6.656   7.149 -0.2314 -0.1299 -1.0753
   10SAPS  H11A 1208   6.502   6.581   7.125  2.1002  0.5284  3.5208
   10SAPS  H11B 1209   6.468   6.739   7.208 -1.2570  1.2819 -2.2260
   10SAPS     P 1210   6.417   6.851   6.970 -0.2240  0.0553  0.3171
   10SAPS   O13 1211   6.321   6.889   6.864  0.0474 -0.2057 -0.1334
   10SAPS   O14 1212   6.441   6.963   7.068  0.6463  0.0071 -0.2671
   10SAPS   O12 1213   6.362   6.723   7.038 -0.0874 -0.0535  0.4361
   10SAPS   O11 1214   6.558   6.818   6.902  0.2905 -0.4799 -0.1505
   10SAPS    C1 1215   6.602   6.689   6.849 -0.3524  0.4763 -0.1777
   10SAPS    HA 1216   6.661   6.631   6.923 -1.3134  0.0094  0.2419
   10SAPS    HB 1217   6.517   6.619   6.833  0.6039 -1.8709  3.6309
   10SAPS    C2 1218   6.696   6.715   6.727  0.2013 -0.3061 -0.1927
   10SAPS    HS 1219   6.785   6.775   6.757 -1.0621  0.9994  1.0953
   10SAPS   O21 1220   6.634   6.790   6.618  0.4745 -0.2433  0.2380
   10SAPS   C21 1221   6.655   6.921   6.615 -0.4763 -0.7105  0.2932
   10SAPS   O22 1222   6.725   6.987   6.688 -0.1795  0.4344  0.1902
   10SAPS   C22 1223   6.580   6.973   6.494  0.3082  0.0584  0.7871
   10SAPS   H2R 1224   6.561   6.907   6.407  2.9897 -1.6480  1.3736
   10SAPS   H2S 1225   6.480   6.977   6.541  0.8656 -1.6831  2.1782
   10SAPS    C3 1226   6.744   6.570   6.678 -0.9292 -0.2461  0.0799
   10SAPS    HX 1227   6.657   6.514   6.639 -1.6286  1.2350 -0.5449
   10SAPS    HY 1228   6.790   6.518   6.765  2.9117  0.3553 -1.3937
   10SAPS   O31 1229   6.848   6.586   6.579 -0.6065 -0.1361  0.2290
   10SAPS   C31 1230   6.969   6.583   6.628  0.4026 -0.6045 -0.3437
   10SAPS   O32 1231   7.007   6.569   6.740 -0.5104 -0.6436 -0.0602
   10SAPS   C32 1232   7.067   6.610   6.516  0.6343 -0.2765 -0.6266
   10SAPS   H2X 1233   7.060   6.527   6.443  0.4788  0.1355 -1.0828
   10SAPS   H2Y 1234   7.163   6.635   6.566 -0.5160  1.7671  0.7103
   10SAPS   C23 1235   6.617   7.124   6.463 -0.6177  0.3350 -0.2858
   10SAPS   H3R 1236   6.613   7.186   6.555  1.2563 -1.6734  1.2566
   10SAPS   H3S 1237   6.544   7.159   6.387 -1.8567  0.8261  1.0963
   10SAPS   C24 1238   6.754   7.139   6.390  0.3068 -0.3887 -0.7228
   10SAPS   H4R 1239   6.831   7.141   6.470 -1.2830  2.0190  0.9305
   10SAPS   H4S 1240   6.763   7.243   6.352  0.2152  0.2661  0.9619
   10SAPS   C25 1241   6.772   7.039   6.282 -0.4383  0.1908  0.4698
   10SAPS   H5R 1242   6.822   6.946   6.311  1.8791  1.3640  0.4144
   10SAPS   C26 1243   6.757   7.057   6.150 -0.5401 -0.2013  0.5000
   10SAPS   H6R 1244   6.771   6.974   6.079  1.0062  0.4799 -0.0285
   10SAPS   C27 1245   6.684   7.176   6.084 -0.8364 -0.5071 -0.7455
   10SAPS   H7R 1246   6.745   7.197   5.993 -0.1125 -2.3774 -0.7207
   10SAPS   H7S 1247   6.688   7.263   6.154  0.8242 -0.5642 -0.7267
   10SAPS   C28 1248   6.544   7.139   6.040  0.3832  0.4310  0.5479
   10SAPS   H8R 1249   6.457   7.166   6.102 -0.2198  0.9059 -0.4762
   10SAPS   C29 1250   6.511   7.098   5.914  0.2033 -0.2364 -0.7677
   10SAPS   H9R 1251   6.405   7.081   5.891 -0.2048 -0.3510  1.1130
   10SAPS  C210 1252   6.611   7.071   5.807  0.4699 -0.7111 -0.4735
   10SAPS  H10R 1253   6.576   6.985   5.746  0.0433 -0.6026 -0.3843
   10SAPS  H10S 1254   6.709   7.040   5.850  1.5295 -0.1059 -2.3079
   10SAPS  C211 1255   6.657   7.179   5.714  0.3526 -0.3072  0.7860
   10SAPS  H11R 1256   6.730   7.250   5.756  0.2223 -0.4991  1.3512
   10SAPS  C212 1257   6.622   7.178   5.580  0.2561 -0.4138  0.6014
   10SAPS  H12R 1258   6.654   7.264   5.520 -1.6904 -0.8421 -1.1493
   10SAPS  C213 1259   6.511   7.096   5.515  0.4528  0.2785 -0.0053
   10SAPS  H13R 1260   6.448   7.160   5.448  0.3445  0.2597  0.0792
   10SAPS  H13S 1261   6.441   7.057   5.591  0.2933 -3.5882 -1.8978
   10SAPS  C214 1262   6.560   6.972   5.443 -0.1057  0.0872  0.4687
   10SAPS  H14R 1263   6.563   6.881   5.505  3.7724 -2.0723 -2.4201
   10SAPS  C215 1264   6.616   6.964   5.317 -0.9498 -0.1036 -0.0675
   10SAPS  H15R 1265   6.642   6.864   5.280  1.3286  0.4596 -0.1660
   10SAPS  C216 1266   6.645   7.079   5.218 -0.4824 -0.1801 -0.5225
   10SAPS  H16R 1267   6.718   7.063   5.135 -0.4807  0.2584 -0.6080
   10SAPS  H16S 1268   6.687   7.162   5.278  0.9975 -0.1957 -1.4843
   10SAPS  C217 1269   6.522   7.133   5.155  0.0214 -1.3644  0.6278
   10SAPS  H17R 1270   6.456   7.178   5.232  0.8801 -0.1156  0.6531
   10SAPS  H17S 1271   6.463   7.062   5.093  0.0092  0.5235 -1.6621
   10SAPS  C218 1272   6.546   7.249   5.052  0.2255 -0.6288 -0.1641
   10SAPS  H18R 1273   6.604   7.203   4.969 -0.8984 -2.2366 -0.1163
   10SAPS  H18S 1274   6.600   7.335   5.097  2.1746 -1.5585 -0.6249
   10SAPS  C219 1275   6.421   7.294   4.976  0.6638 -0.4675 -0.3175
   10SAPS  H19R 1276   6.337   7.321   5.043  1.5969 -1.7342  1.4323
   10SAPS  H19S 1277   6.379   7.213   4.913  1.0068 -0.8717 -0.0322
   10SAPS  C220 1278   6.451   7.413   4.887 -0.0106 -0.0823  0.0056
   10SAPS  H20R 1279   6.549   7.404   4.836  0.4007  0.5807  0.6489
   10SAPS  H20S 1280   6.457   7.504   4.951  0.5665 -0.8201  1.0395
   10SAPS  H20T 1281   6.368   7.421   4.813  1.1719  1.6146 -1.2187
   10SAPS   C33 1282   7.032   6.743   6.460  0.6479 -0.4471  0.3021
   10SAPS   H3X 1283   7.036   6.821   6.539  0.8005  1.6278 -1.6449
   10SAPS   H3Y 1284   6.931   6.747   6.413 -0.0819 -2.5621  1.5898
   10SAPS   C34 1285   7.128   6.789   6.350 -0.3736  0.6215  0.5975
   10SAPS   H4X 1286   7.220   6.811   6.408  0.0713  2.3128 -0.6543
   10SAPS   H4Y 1287   7.087   6.882   6.304 -0.6757 -1.3701 -3.6551
   10SAPS   C35 1288   7.151   6.699   6.228  0.1373 -0.0801  0.1610
   10SAPS   H5X 1289   7.052   6.660   6.197  0.2061 -0.0523 -0.1004
   10SAPS   H5Y 1290   7.206   6.610   6.265 -1.7771 -1.0880  0.7266
   10SAPS   C36 1291   7.212   6.770   6.110  0.1545 -0.2993  0.8063
   10SAPS   H6X 1292   7.304   6.830   6.128  0.1436 -0.5121  1.6497
   10SAPS   H6Y 1293   7.142   6.846   6.069 -1.5569 -0.7538  2.7101
   10SAPS   C37 1294   7.246   6.686   5.991  0.3127  0.5360 -0.4047
   10SAPS   H7X 1295   7.160   6.620   5.964 -0.2644  1.8675 -1.9728
   10SAPS   H7Y 1296   7.335   6.625   6.018  0.0093  0.1714 -0.2135
   10SAPS   C38 1297   7.319   6.752   5.870 -0.8190 -0.4259 -0.1748
   10SAPS   H8X 1298   7.420   6.792   5.892  0.1240 -1.3819 -2.4955
   10SAPS   H8Y 1299   7.255   6.839   5.843 -2.3604 -1.3689  0.3167
   10SAPS   C39 1300   7.349   6.657   5.757  0.1434 -0.2920  0.2911
   10SAPS   H9X 1301   7.255   6.608   5.723  0.7014 -0.7023 -0.7234
   10SAPS   H9Y 1302   7.419   6.575   5.783 -2.0598 -3.0781 -1.7982
   10SAPS  C310 1303   7.410   6.736   5.637 -0.0595 -0.9447  0.2251
   10SAPS  H10X 1304   7.476   6.816   5.677 -1.4483 -0.4126  1.5471
   10SAPS  H10Y 1305   7.342   6.772   5.556 -1.3271 -0.6239  1.4051
   10SAPS  C311 1306   7.485   6.639   5.559 -0.1207  0.4793  0.4420
   10SAPS  H11X 1307   7.409   6.581   5.502 -0.7463  3.0157 -1.5052
   10SAPS  H11Y 1308   7.557   6.576   5.615 -0.0327 -0.8920 -1.1196
   10SAPS  C312 1309   7.577   6.708   5.445 -0.2886  0.3439  0.7703
   10SAPS  H12X 1310   7.519   6.776   5.380 -0.5196 -0.7812 -0.2413
   10SAPS  H12Y 1311   7.618   6.633   5.375  0.7919  0.3265  1.3921
   10SAPS  C313 1312   7.689   6.790   5.506  0.6675  0.5252  0.2007
   10SAPS  H13X 1313   7.743   6.723   5.577  2.0510  0.0010 -1.3051
   10SAPS  H13Y 1314   7.658   6.877   5.568  0.2932 -0.1154  0.9298
   10SAPS  C314 1315   7.796   6.821   5.399  0.8076 -1.1505 -0.3924
   10SAPS  H14X 1316   7.745   6.872   5.315  1.0653 -1.6213 -0.8348
   10SAPS  H14Y 1317   7.816   6.722   5.353 -1.5882 -1.6022 -0.6329
   10SAPS  C315 1318   7.919   6.903   5.441 -0.2905  0.6935  0.3145
   10SAPS  H15X 1319   7.881   6.986   5.505  0.4761 -0.6680  2.6880
   10SAPS  H15Y 1320   7.968   6.948   5.352 -1.4697 -1.6556 -1.6103
   10SAPS  C316 1321   8.032   6.823   5.514 -0.0564  0.1034  0.7474
   10SAPS  H16X 1322   7.987   6.769   5.600  0.9751  1.9199  2.5148
   10SAPS  H16Y 1323   8.106   6.892   5.560 -0.9609  0.7512  1.2574
   10SAPS  C317 1324   8.098   6.721   5.414  0.1624  0.2776 -0.0493
   10SAPS  H17X 1325   8.145   6.781   5.333  0.6892  1.2871  0.9663
   10SAPS  H17Y 1326   8.033   6.640   5.374  1.1339 -0.2422 -0.6237
   10SAPS  C318 1327   8.210   6.650   5.490 -0.6860  0.0322 -0.2155
   10SAPS  H18X 1328   8.298   6.716   5.507 -0.4382 -0.1828 -0.6779
   10SAPS  H18Y 1329   8.241   6.564   5.428 -0.4421 -1.7584  2.2620
   10SAPS  H18Z 1330   8.174   6.616   5.590  2.3959 -1.7794  0.3882
   11SAPS     N 1331   3.238   4.299   2.971 -0.7483  0.4204 -0.2215
   11SAPS   HN1 1332   3.279   4.208   3.001  0.2927  1.0234  0.2380
   11SAPS   HN2 1333   3.265   4.374   3.037  0.4902  0.6338 -0.9254
   11SAPS   HN3 1334   3.137   4.314   2.951 -0.4953  0.2311 -1.7909
   11SAPS   C12 1335   3.315   4.349   2.849 -0.9349 -0.3380  0.0087
   11SAPS  H12A 1336   3.327   4.267   2.778 -2.0917  0.6458 -1.3783
   11SAPS   C13 1337   3.253   4.476   2.783  0.5886 -0.0754  0.4814
   11SAPS  O13A 1338   3.158   4.540   2.838 -0.8523 -0.1288  0.2762
   11SAPS  O13B 1339   3.305   4.525   2.681 -0.4320  0.3581 -0.3175
   11SAPS   C11 1340   3.460   4.377   2.888  0.0604  0.2338  0.6846
   11SAPS  H11A 1341   3.449   4.459   2.962 -0.2806  0.5929  0.2388
   11SAPS  H11B 1342   3.515   4.419   2.800 -0.2403  0.5449  0.6432
   11SAPS     P 1343   3.569   4.267   3.098  0.0810 -0.0930  0.1760
   11SAPS   O13 1344   3.669   4.159   3.121 -0.5130 -0.2448 -0.2810
   11SAPS   O14 1345   3.609   4.399   3.144  0.1548  0.5904  0.4618
   11SAPS   O12 1346   3.534   4.270   2.945  0.8645  0.2006  0.7281
   11SAPS   O11 1347   3.432   4.236   3.164 -0.0854  0.1638  0.3021
   11SAPS    C1 1348   3.404   4.102   3.211 -0.4369 -0.2093 -0.0699
   11SAPS    HA 1349   3.297   4.076   3.194 -0.3101  0.7058 -2.6778
   11SAPS    HB 1350   3.465   4.027   3.156  1.1000 -0.2053  1.5630
   11SAPS    C2 1351   3.427   4.093   3.369 -0.3691 -0.2923  0.1730
   11SAPS    HS 1352   3.534   4.108   3.395 -0.0618 -1.6608 -0.2087
   11SAPS   O21 1353   3.390   3.961   3.403  0.1477  0.4185  0.0149
   11SAPS   C21 1354   3.456   3.919   3.510  0.5689  0.7487  0.0507
   11SAPS   O22 1355   3.519   3.987   3.589  0.1466  0.5361 -0.1744
   11SAPS   C22 1356   3.424   3.775   3.528 -0.1091  0.6069 -0.7712
   11SAPS   H2R 1357   3.315   3.770   3.553  0.3123  0.2634  1.1633
   11SAPS   H2S 1358   3.437   3.722   3.431 -2.0020 -2.0320  0.3120
   11SAPS    C3 1359   3.335   4.193   3.439  0.8269  0.7372  0.4232
   11SAPS    HX 1360   3.236   4.152   3.408  1.8062 -1.8995  0.4928
   11SAPS    HY 1361   3.343   4.294   3.394  0.3743 -0.7102 -3.2516
   11SAPS   O31 1362   3.333   4.198   3.584  0.2531 -0.0537 -0.0621
   11SAPS   C31 1363   3.437   4.275   3.632  0.0672  0.3933  0.0687
   11SAPS   O32 1364   3.517   4.329   3.562  0.1830  0.1001 -0.2423
   11SAPS   C32 1365   3.443   4.258   3.781  0.7177 -0.0568 -0.3318
   11SAPS   H2X 1366   3.377   4.172   3.806 -0.7016  1.3928  1.0745
   11SAPS   H2Y 1367   3.391   4.345   3.825  0.0544 -1.2783  1.4001
   11SAPS   C23 1368   3.506   3.707   3.642  0.5786 -0.2584  0.1344
   11SAPS   H3R 1369   3.457   3.612   3.671 -1.7014  1.4112  2.1845
   11SAPS   H3S 1370   3.495   3.764   3.737  0.0371  0.3774 -0.3050
   11SAPS   C24 1371   3.652   3.674   3.587 -0.1383  0.3330  0.0869
   11SAPS   H4R 1372   3.711   3.652   3.678  0.5034  0.8530 -0.1848
   11SAPS   H4S 1373   3.691   3.774   3.555 -5.3459  1.9709 -2.2040
   11SAPS   C25 1374   3.652   3.569   3.485  0.0119  0.1693  0.1263
   11SAPS   H5R 1375   3.644   3.607   3.382  0.1550 -0.8047 -0.2520
   11SAPS   C26 1376   3.662   3.440   3.508 -0.0417  0.3593 -0.3344
   11SAPS   H6R 1377   3.672   3.368   3.426  1.5721  0.2730 -0.1011
   11SAPS   C27 1378   3.662   3.371   3.644 -0.4906  0.4210  0.5249
   11SAPS   H7R 1379   3.675   3.442   3.729 -0.7566  0.0639  0.8685
   11SAPS   H7S 1380   3.748   3.302   3.652 -0.3311  0.7801  2.4995
   11SAPS   C28 1381   3.543   3.284   3.671  0.4622 -0.3206  0.0132
   11SAPS   H8R 1382   3.472   3.268   3.588  0.4073  2.3466 -0.5575
   11SAPS   C29 1383   3.530   3.218   3.789 -0.0712  0.9465  0.6482
   11SAPS   H9R 1384   3.455   3.137   3.796  0.2793  0.6397  0.8968
   11SAPS  C210 1385   3.628   3.216   3.904  0.2455  0.5004  0.2899
   11SAPS  H10R 1386   3.673   3.315   3.924 -0.0563  0.4517  1.2178
   11SAPS  H10S 1387   3.715   3.154   3.873 -0.1268 -0.5233  1.2515
   11SAPS  C211 1388   3.575   3.159   4.040 -0.7935 -0.0449  0.3621
   11SAPS  H11R 1389   3.539   3.055   4.029 -0.4488 -0.1612  0.3052
   11SAPS  C212 1390   3.564   3.226   4.156 -0.5712 -0.1622 -0.1399
   11SAPS  H12R 1391   3.512   3.184   4.243 -0.0142  2.8753  1.8115
   11SAPS  C213 1392   3.619   3.360   4.190  0.2591  0.3729  0.1162
   11SAPS  H13R 1393   3.532   3.426   4.211  0.4021  1.6142 -2.7564
   11SAPS  H13S 1394   3.689   3.400   4.114  1.0089  0.0803  0.6375
   11SAPS  C214 1395   3.700   3.347   4.321 -0.2187 -0.1653 -0.1538
   11SAPS  H14R 1396   3.810   3.352   4.318 -0.1114 -1.0687  1.3078
   11SAPS  C215 1397   3.642   3.329   4.444 -0.6804 -0.3564  0.4512
   11SAPS  H15R 1398   3.718   3.319   4.523 -1.6129  1.0192  1.5380
   11SAPS  C216 1399   3.498   3.312   4.476  0.7599  0.1378  0.6500
   11SAPS  H16R 1400   3.455   3.227   4.419  0.0337  2.0527 -1.8716
   11SAPS  H16S 1401   3.438   3.397   4.437 -0.6313 -1.4128 -0.7854
   11SAPS  C217 1402   3.492   3.291   4.622  0.1415 -0.1425 -0.6779
   11SAPS  H17R 1403   3.547   3.371   4.676  0.5434  0.0464 -1.3559
   11SAPS  H17S 1404   3.545   3.195   4.639 -1.9924 -1.4539 -1.0167
   11SAPS  C218 1405   3.348   3.268   4.668 -0.2457 -0.7188  0.0924
   11SAPS  H18R 1406   3.297   3.203   4.593 -0.3215 -0.5121 -0.0371
   11SAPS  H18S 1407   3.299   3.367   4.659 -0.1657 -0.3984  2.6718
   11SAPS  C219 1408   3.334   3.216   4.812 -0.0053 -0.0948 -0.9811
   11SAPS  H19R 1409   3.393   3.288   4.872 -1.0114  0.6686 -0.8700
   11SAPS  H19S 1410   3.392   3.122   4.812 -1.0774 -0.8607 -3.6859
   11SAPS  C220 1411   3.191   3.203   4.857  0.9040 -0.3747  0.0329
   11SAPS  H20R 1412   3.143   3.125   4.794 -0.0945  1.0256 -0.9732
   11SAPS  H20S 1413   3.140   3.301   4.851  0.9437 -0.3766 -0.3285
   11SAPS  H20T 1414   3.183   3.163   4.961  1.3140 -1.6350 -0.4032
   11SAPS   C33 1415   3.587   4.233   3.837  0.2420  0.2076 -0.1140
   11SAPS   H3X 1416   3.672   4.301   3.817  0.8088 -0.4832 -0.1051
   11SAPS   H3Y 1417   3.620   4.137   3.791 -1.2552 -1.3568  1.8623
   11SAPS   C34 1418   3.584   4.211   3.995 -0.4434 -0.9287 -0.1718
   11SAPS   H4X 1419   3.688   4.193   4.029 -0.0214  0.7215 -0.4975
   11SAPS   H4Y 1420   3.522   4.120   4.010 -1.8319  0.1575  0.9488
   11SAPS   C35 1421   3.514   4.320   4.068 -0.9074  0.0548 -1.0822
   11SAPS   H5X 1422   3.421   4.357   4.020 -1.9194 -0.5425  0.3396
   11SAPS   H5Y 1423   3.572   4.414   4.079  2.2065 -1.8756  0.4685
   11SAPS   C36 1424   3.479   4.277   4.212 -0.3772  0.4345 -0.2393
   11SAPS   H6X 1425   3.480   4.166   4.208  2.1768  0.4344 -2.1287
   11SAPS   H6Y 1426   3.378   4.321   4.229 -0.8391  0.0129 -1.7323
   11SAPS   C37 1427   3.583   4.313   4.317  0.2444 -0.3749 -0.3531
   11SAPS   H7X 1428   3.601   4.422   4.320  0.4478 -0.3653 -1.4651
   11SAPS   H7Y 1429   3.685   4.277   4.292  1.4856  1.3952  1.8557
   11SAPS   C38 1430   3.549   4.259   4.457 -0.1742  0.5068  0.0610
   11SAPS   H8X 1431   3.526   4.152   4.440 -3.2787  1.2885 -1.3437
   11SAPS   H8Y 1432   3.452   4.308   4.479  0.3315  1.0409  1.1503
   11SAPS   C39 1433   3.662   4.272   4.555 -1.0794  0.2047 -0.5352
   11SAPS   H9X 1434   3.699   4.376   4.553 -0.7252  0.1110  0.4090
   11SAPS   H9Y 1435   3.738   4.198   4.522 -0.9881 -0.8548  1.8198
   11SAPS  C310 1436   3.633   4.237   4.706 -0.1159  0.4234 -0.5242
   11SAPS  H10X 1437   3.592   4.136   4.726 -1.5411  1.0232 -0.2311
   11SAPS  H10Y 1438   3.550   4.304   4.737 -0.6219 -1.5333  2.8427
   11SAPS  C311 1439   3.755   4.251   4.801 -0.0777 -0.4417  0.2571
   11SAPS  H11X 1440   3.825   4.330   4.767  2.7821 -1.9453  2.2228
   11SAPS  H11Y 1441   3.814   4.158   4.816  0.4025 -0.1809  0.0334
   11SAPS  C312 1442   3.719   4.289   4.955  0.0878  0.0331  0.4975
   11SAPS  H12X 1443   3.632   4.229   4.988 -0.2424 -0.0226 -0.4291
   11SAPS  H12Y 1444   3.691   4.397   4.953 -0.2371 -0.0198  1.6882
   11SAPS  C313 1445   3.841   4.266   5.049 -0.0758 -0.2605  0.3649
   11SAPS  H13X 1446   3.933   4.298   4.996 -0.2109  1.0748  0.8921
   11SAPS  H13Y 1447   3.862   4.158   5.067  1.1643 -0.3765 -1.5678
   11SAPS  C314 1448   3.830   4.353   5.181 -0.0585 -0.5309 -0.6750
   11SAPS  H14X 1449   3.736   4.318   5.230 -0.5301  1.0365 -0.4053
   11SAPS  H14Y 1450   3.811   4.456   5.145  0.5264  0.5225  1.8357
   11SAPS  C315 1451   3.948   4.342   5.275 -0.0430 -0.2616 -0.9314
   11SAPS  H15X 1452   4.036   4.375   5.216  0.9952  0.0448  0.7438
   11SAPS  H15Y 1453   3.976   4.239   5.307  1.8807 -0.6660 -3.5503
   11SAPS  C316 1454   3.920   4.443   5.394 -0.2412  0.0818  0.1986
   11SAPS  H16X 1455   3.842   4.517   5.365 -0.0741  0.7754  1.4371
   11SAPS  H16Y 1456   4.012   4.498   5.425 -0.1255 -0.4937  0.8921
   11SAPS  C317 1457   3.861   4.367   5.518 -0.0031  0.1805  0.1209
   11SAPS  H17X 1458   3.860   4.256   5.509 -4.0135  0.0963 -0.0030
   11SAPS  H17Y 1459   3.754   4.397   5.522  0.5672  2.4194 -0.3331
   11SAPS  C318 1460   3.933   4.406   5.646  0.1824  0.1480  0.3345
   11SAPS  H18X 1461   3.892   4.347   5.730 -0.9102 -0.0624 -0.3207
   11SAPS  H18Y 1462   3.913   4.515   5.660  0.6987  0.0480  1.9792
   11SAPS  H18Z 1463   4.043   4.398   5.634  0.4330 -0.6282  2.6957
   12SAPS     N 1464   5.602   2.397   2.576  0.3890 -0.1428  0.9575
   12SAPS   HN1 1465   5.540   2.467   2.530  1.5910 -0.0774 -0.6480
   12SAPS   HN2 1466   5.597   2.431   2.674 -0.0673  3.8467 -0.2606
   12SAPS   HN3 1467   5.702   2.411   2.550  0.6019  0.4375  2.0450
   12SAPS   C12 1468   5.573   2.257   2.552  0.3846 -0.0478  0.0810
   12SAPS  H12A 1469   5.467   2.240   2.564  0.0322  0.0860 -2.2602
   12SAPS   C13 1470   5.612   2.204   2.414  0.1755  0.3430 -0.2243
   12SAPS  O13A 1471   5.656   2.281   2.328 -0.3345 -0.3580 -0.0142
   12SAPS  O13B 1472   5.599   2.078   2.396 -0.0004  0.4471  0.2532
   12SAPS   C11 1473   5.655   2.175   2.654  0.4622 -0.6879 -0.4289
   12SAPS  H11A 1474   5.761   2.164   2.621  0.8854 -1.4115  1.0674
   12SAPS  H11B 1475   5.605   2.076   2.660  0.1288 -0.4536  3.7110
   12SAPS     P 1476   5.766   2.187   2.884 -0.2435 -0.5103  0.0982
   12SAPS   O13 1477   5.760   2.045   2.913 -0.5506  0.2513  0.4036
   12SAPS   O14 1478   5.893   2.237   2.821 -0.1033  0.3460  0.1870
   12SAPS   O12 1479   5.653   2.230   2.784 -0.1634  0.9559 -0.3891
   12SAPS   O11 1480   5.740   2.262   3.022 -0.5326 -0.5580 -0.0648
   12SAPS    C1 1481   5.704   2.403   3.007 -0.3619  0.8790 -0.1239
   12SAPS    HA 1482   5.771   2.460   2.939  2.0586  1.4545  2.5273
   12SAPS    HB 1483   5.595   2.398   2.988 -0.4082 -0.0251  0.3162
   12SAPS    C2 1484   5.725   2.475   3.139 -0.3619  0.2260 -0.0741
   12SAPS    HS 1485   5.834   2.464   3.157 -0.1392  1.7315 -0.3643
   12SAPS   O21 1486   5.649   2.421   3.244  0.6063 -0.0829 -0.3592
   12SAPS   C21 1487   5.706   2.345   3.343  0.0685  0.3564  0.7765
   12SAPS   O22 1488   5.820   2.303   3.340  0.1095 -0.1643 -0.0927
   12SAPS   C22 1489   5.613   2.329   3.460  0.0774  0.0858 -0.6885
   12SAPS   H2R 1490   5.610   2.419   3.525  0.6128 -0.2433 -0.1886
   12SAPS   H2S 1491   5.511   2.333   3.419  0.0226 -2.0887 -0.8741
   12SAPS    C3 1492   5.695   2.628   3.137 -0.2514 -0.9472 -0.9623
   12SAPS    HX 1493   5.593   2.635   3.094  0.2277  1.9252 -1.8519
   12SAPS    HY 1494   5.766   2.679   3.068 -0.9747  0.1667 -0.9125
   12SAPS   O31 1495   5.694   2.688   3.267 -0.3798 -0.1407  0.2794
   12SAPS   C31 1496   5.589   2.757   3.313  0.5992  0.1466 -0.3478
   12SAPS   O32 1497   5.491   2.799   3.253 -0.6390  0.1037  0.0914
   12SAPS   C32 1498   5.622   2.786   3.465 -0.4832  0.0822 -0.1110
   12SAPS   H2X 1499   5.722   2.833   3.460  0.1435 -1.1983  0.1155
   12SAPS   H2Y 1500   5.631   2.681   3.499 -0.7240 -0.0101 -0.3271
   12SAPS   C23 1501   5.643   2.194   3.540  0.1262 -0.4821  0.1219
   12SAPS   H3R 1502   5.663   2.101   3.483 -0.9001 -1.2568  0.9962
   12SAPS   H3S 1503   5.552   2.173   3.599  1.5165 -2.1051  1.8334
   12SAPS   C24 1504   5.753   2.217   3.648  0.1798  0.5314 -0.4255
   12SAPS   H4R 1505   5.723   2.305   3.709 -0.8811  1.7864 -2.6107
   12SAPS   H4S 1506   5.856   2.235   3.612  0.7342 -0.6586  0.5128
   12SAPS   C25 1507   5.761   2.098   3.742 -0.2179  0.4970 -0.2966
   12SAPS   H5R 1508   5.757   2.001   3.688 -1.0705 -0.0687  0.7280
   12SAPS   C26 1509   5.784   2.102   3.875  0.0250 -0.2835 -0.4984
   12SAPS   H6R 1510   5.766   2.007   3.927 -1.3794  0.8873  1.2536
   12SAPS   C27 1511   5.803   2.225   3.966  0.2835  0.6963  0.4796
   12SAPS   H7R 1512   5.715   2.240   4.032  0.4879 -0.2197  0.9897
   12SAPS   H7S 1513   5.802   2.316   3.904 -1.2254  1.1508  1.1242
   12SAPS   C28 1514   5.938   2.218   4.026  0.4932  0.4810 -0.5648
   12SAPS   H8R 1515   6.022   2.231   3.956  1.4330 -0.1310  0.4319
   12SAPS   C29 1516   5.966   2.222   4.158 -0.3654 -0.0817 -0.2283
   12SAPS   H9R 1517   6.071   2.219   4.191  1.0103 -0.4469 -4.1860
   12SAPS  C210 1518   5.863   2.225   4.275 -0.5659 -0.2703  0.6943
   12SAPS  H10R 1519   5.835   2.121   4.305  2.6694 -1.3141  0.4612
   12SAPS  H10S 1520   5.774   2.276   4.231  0.3710 -0.2323 -1.2969
   12SAPS  C211 1521   5.909   2.304   4.394  0.3578  0.4823  0.2818
   12SAPS  H11R 1522   5.988   2.378   4.379  0.1994  0.5187 -0.4130
   12SAPS  C212 1523   5.855   2.305   4.523  0.8293  0.3307 -0.4391
   12SAPS  H12R 1524   5.905   2.377   4.590  0.4991  1.3415 -1.2458
   12SAPS  C213 1525   5.732   2.233   4.575 -0.0964  0.3988  0.3809
   12SAPS  H13R 1526   5.766   2.134   4.612 -1.3852  0.2861  1.3100
   12SAPS  H13S 1527   5.664   2.217   4.488  0.0466  1.5510  0.0386
   12SAPS  C214 1528   5.662   2.314   4.685  0.6786  0.1454 -0.1274
   12SAPS  H14R 1529   5.584   2.384   4.652 -0.9884 -0.0120  3.0892
   12SAPS  C215 1530   5.682   2.294   4.819 -0.1566 -0.0280  0.7217
   12SAPS  H15R 1531   5.624   2.358   4.887 -1.2072  0.1300 -0.3076
   12SAPS  C216 1532   5.780   2.201   4.877  0.2062  0.5407  0.0492
   12SAPS  H16R 1533   5.788   2.111   4.812  1.1835  0.6947 -0.0558
   12SAPS  H16S 1534   5.752   2.172   4.981 -1.6021  1.0624 -0.2555
   12SAPS  C217 1535   5.918   2.258   4.895  0.4515  0.6822  0.3695
   12SAPS  H17R 1536   5.963   2.268   4.794  4.2749 -2.3802  1.4902
   12SAPS  H17S 1537   5.985   2.184   4.944 -0.2607 -3.3665 -3.9785
   12SAPS  C218 1538   5.928   2.394   4.973 -0.1575  0.2309 -0.4056
   12SAPS  H18R 1539   5.912   2.373   5.081  0.3829 -1.2935 -0.5968
   12SAPS  H18S 1540   5.844   2.453   4.931 -0.1971  0.3611 -0.1458
   12SAPS  C219 1541   6.058   2.478   4.973  0.6785 -0.0735 -0.4018
   12SAPS  H19R 1542   6.064   2.507   4.866 -1.8699 -0.0622 -0.5868
   12SAPS  H19S 1543   6.150   2.420   4.995  1.0663  0.7208  0.1245
   12SAPS  C220 1544   6.059   2.606   5.057 -0.0435 -0.2314  0.1428
   12SAPS  H20R 1545   5.996   2.673   4.994  0.1549  0.4916  0.6924
   12SAPS  H20S 1546   6.158   2.651   5.076  1.0625 -2.0878 -0.9653
   12SAPS  H20T 1547   6.007   2.586   5.153 -1.7342  3.0229  0.0349
   12SAPS   C33 1548   5.522   2.876   3.537  0.5802  0.0462 -0.2960
   12SAPS   H3X 1549   5.418   2.840   3.526  0.4856 -0.4734  1.9184
   12SAPS   H3Y 1550   5.536   2.981   3.503  1.1888 -0.0257 -0.2748
   12SAPS   C34 1551   5.539   2.863   3.691 -0.0053 -0.3625 -0.6393
   12SAPS   H4X 1552   5.635   2.913   3.714 -1.1726  1.5936  0.2768
   12SAPS   H4Y 1553   5.536   2.754   3.713 -0.1901 -0.5313 -1.4665
   12SAPS   C35 1554   5.430   2.932   3.778  0.8407 -0.5708  0.0262
   12SAPS   H5X 1555   5.337   2.923   3.718  0.5025 -2.7661  0.7868
   12SAPS   H5Y 1556   5.452   3.040   3.782 -1.8852  0.1228 -1.1632
   12SAPS   C36 1557   5.424   2.886   3.926  0.1760  0.2357  0.2735
   12SAPS   H6X 1558   5.519   2.855   3.974 -0.2673 -0.2516  0.8392
   12SAPS   H6Y 1559   5.369   2.790   3.931 -0.0750  0.4573  3.9050
   12SAPS   C37 1560   5.346   2.985   4.003 -0.1613 -0.0338 -0.1478
   12SAPS   H7X 1561   5.241   2.975   3.968 -0.5107  0.1783  0.8084
   12SAPS   H7Y 1562   5.381   3.090   3.989 -1.1648  0.3965  0.4359
   12SAPS   C38 1563   5.347   2.945   4.149 -0.2992 -0.2696  0.2691
   12SAPS   H8X 1564   5.450   2.946   4.190  0.2633  1.3537 -1.0453
   12SAPS   H8Y 1565   5.306   2.842   4.157 -0.6104 -0.5642 -3.3399
   12SAPS   C39 1566   5.262   3.039   4.232 -0.6780  0.2272 -0.3148
   12SAPS   H9X 1567   5.162   2.997   4.255 -1.0522  1.0871 -0.3436
   12SAPS   H9Y 1568   5.245   3.139   4.187 -1.3815  0.3267  0.1537
   12SAPS  C310 1569   5.330   3.060   4.374 -0.4098  0.0469 -0.0887
   12SAPS  H10X 1570   5.432   3.104   4.367  0.5226 -1.6616  1.9811
   12SAPS  H10Y 1571   5.351   2.961   4.419 -3.3948  0.0369  1.5788
   12SAPS  C311 1572   5.248   3.152   4.467 -0.3392  0.0908  0.2814
   12SAPS  H11X 1573   5.142   3.118   4.469 -0.6812  1.0992  0.1210
   12SAPS  H11Y 1574   5.230   3.253   4.423 -1.8364  1.1306  3.0679
   12SAPS  C312 1575   5.287   3.149   4.615  0.2218 -1.0889 -0.1179
   12SAPS  H12X 1576   5.390   3.186   4.633  0.5503 -1.7412 -0.6161
   12SAPS  H12Y 1577   5.296   3.043   4.648  0.8126 -1.2996 -0.9333
   12SAPS  C313 1578   5.181   3.218   4.708  0.0072  0.0453 -0.2724
   12SAPS  H13X 1579   5.220   3.207   4.812  3.2956  3.8378 -0.8625
   12SAPS  H13Y 1580   5.084   3.167   4.693  0.3511 -0.2461 -1.6543
   12SAPS  C314 1581   5.156   3.367   4.675  0.2996 -0.5078  0.2272
   12SAPS  H14X 1582   5.103   3.369   4.578  0.9811 -1.0702 -0.1589
   12SAPS  H14Y 1583   5.253   3.417   4.653  0.8401 -2.1619 -1.3959
   12SAPS  C315 1584   5.078   3.445   4.784  0.5070  0.6410 -0.0809
   12SAPS  H15X 1585   5.148   3.458   4.869  0.0541 -1.4697  0.6866
   12SAPS  H15Y 1586   4.990   3.385   4.817  1.9609 -0.9637  1.0016
   12SAPS  C316 1587   5.009   3.580   4.742 -0.6049 -0.2600  0.0814
   12SAPS  H16X 1588   4.938   3.561   4.659  2.0730 -1.0157 -2.1674
   12SAPS  H16Y 1589   5.085   3.634   4.682 -3.0664  1.7658 -1.3991
   12SAPS  C317 1590   4.962   3.667   4.864  0.1768  0.6110 -0.3652
   12SAPS  H17X 1591   5.051   3.708   4.917 -0.7024 -0.6250  2.2135
   12SAPS  H17Y 1592   4.921   3.601   4.943 -1.6544  1.4049 -0.6030
   12SAPS  C318 1593   4.871   3.777   4.820  0.2579  0.3144  0.1930
   12SAPS  H18X 1594   4.873   3.869   4.883 -0.1116  1.8077 -1.8616
   12SAPS  H18Y 1595   4.768   3.735   4.823  0.9677 -1.5004  1.7527
   12SAPS  H18Z 1596   4.898   3.827   4.725  1.3410  1.6664  1.1617
   13SAPS     N 1597   5.624   1.089   2.632 -0.4005  0.1542  0.2023
   13SAPS   HN1 1598   5.554   1.093   2.554  1.4843  0.9311 -1.5380
   13SAPS   HN2 1599   5.628   0.995   2.675  1.3498  0.0626 -0.1248
   13SAPS   HN3 1600   5.587   1.159   2.700  0.6716 -0.4316  1.4165
   13SAPS   C12 1601   5.747   1.115   2.554 -0.1583  0.7420  0.8267
   13SAPS  H12A 1602   5.826   1.093   2.624  1.5066 -0.6047 -1.3488
   13SAPS   C13 1603   5.776   1.008   2.439  0.3880 -0.8601 -0.2143
   13SAPS  O13A 1604   5.697   0.920   2.423  0.4491  0.1088  0.0688
   13SAPS  O13B 1605   5.894   1.004   2.393  0.4902 -0.1980 -0.0246
   13SAPS   C11 1606   5.737   1.251   2.487  0.0604  0.3682  0.5690
   13SAPS  H11A 1607   5.639   1.267   2.437 -0.2739 -0.7536  0.8250
   13SAPS  H11B 1608   5.811   1.260   2.405 -0.9176  0.8254 -0.2880
   13SAPS     P 1609   5.903   1.410   2.633 -0.0088  0.3353 -0.3858
   13SAPS   O13 1610   6.013   1.393   2.530 -0.1245  0.5688  0.2380
   13SAPS   O14 1611   5.886   1.551   2.685 -0.2128 -0.2491 -0.1168
   13SAPS   O12 1612   5.759   1.355   2.578 -0.0982 -0.2145  0.1911
   13SAPS   O11 1613   5.931   1.313   2.755  0.5398 -0.2415  0.5545
   13SAPS    C1 1614   5.848   1.327   2.872  0.6839 -0.2656  0.4430
   13SAPS    HA 1615   5.750   1.375   2.849  1.4370  0.5458 -1.2772
   13SAPS    HB 1616   5.832   1.220   2.898  1.7144 -1.4802 -3.2364
   13SAPS    C2 1617   5.917   1.407   2.978 -0.4561 -0.3957 -0.0393
   13SAPS    HS 1618   5.954   1.502   2.934 -0.1629 -0.8326 -0.7439
   13SAPS   O21 1619   6.035   1.327   3.025 -0.0619  0.1935  0.7149
   13SAPS   C21 1620   6.138   1.404   3.061  0.0443  0.8232 -0.7872
   13SAPS   O22 1621   6.158   1.522   3.044  0.2184  0.1342  0.1324
   13SAPS   C22 1622   6.241   1.307   3.121  0.6415 -0.7920 -0.0747
   13SAPS   H2R 1623   6.244   1.337   3.228 -1.0726  3.3364 -0.9692
   13SAPS   H2S 1624   6.211   1.203   3.098  2.3350 -1.5084  0.7525
   13SAPS    C3 1625   5.823   1.445   3.099  0.4988  0.5575 -0.1283
   13SAPS    HX 1626   5.791   1.346   3.139  2.7623 -0.7131 -1.2557
   13SAPS    HY 1627   5.732   1.498   3.063  0.3634  0.7965  0.5669
   13SAPS   O31 1628   5.905   1.528   3.183  0.3382  0.6069  0.5149
   13SAPS   C31 1629   5.835   1.584   3.281  0.4097  0.4810 -0.7661
   13SAPS   O32 1630   5.715   1.571   3.289  0.4633 -0.2194  0.0846
   13SAPS   C32 1631   5.931   1.665   3.362 -0.4924  0.0483  0.5735
   13SAPS   H2X 1632   5.936   1.760   3.305  1.3715 -0.3292  0.0524
   13SAPS   H2Y 1633   6.030   1.616   3.356  0.3414  1.7474 -0.0015
   13SAPS   C23 1634   6.381   1.340   3.073  0.0290  0.7028  0.6928
   13SAPS   H3R 1635   6.400   1.449   3.075  0.3326  0.6406  1.8938
   13SAPS   H3S 1636   6.405   1.308   2.969  0.4493  0.4537  0.8621
   13SAPS   C24 1637   6.490   1.284   3.164 -0.4863  0.4595  0.0825
   13SAPS   H4R 1638   6.486   1.310   3.272 -0.8789 -0.5542  0.3185
   13SAPS   H4S 1639   6.589   1.321   3.128 -0.2236 -0.9325 -0.6922
   13SAPS   C25 1640   6.496   1.137   3.130 -0.4416 -0.2413 -0.3943
   13SAPS   H5R 1641   6.483   1.108   3.024  0.6429 -3.4330  0.2680
   13SAPS   C26 1642   6.510   1.036   3.225 -0.0352  0.2924  0.0871
   13SAPS   H6R 1643   6.518   0.935   3.183 -1.2994  0.6447 -1.0899
   13SAPS   C27 1644   6.540   1.052   3.368  0.2558 -0.1728 -0.7689
   13SAPS   H7R 1645   6.540   1.158   3.400 -2.2941 -0.1800 -0.5444
   13SAPS   H7S 1646   6.637   1.010   3.403  0.1233 -0.9436 -1.3067
   13SAPS   C28 1647   6.424   1.003   3.461  0.3806 -0.0081 -0.0037
   13SAPS   H8R 1648   6.346   0.947   3.407  0.1629  1.2537 -1.0580
   13SAPS   C29 1649   6.411   1.036   3.592  0.0549 -0.0640  0.1989
   13SAPS   H9R 1650   6.327   0.993   3.649 -0.0289  0.2133  0.2866
   13SAPS  C210 1651   6.509   1.120   3.677  0.1817  0.5158 -0.2046
   13SAPS  H10R 1652   6.458   1.208   3.721 -0.5148 -0.6741  1.5014
   13SAPS  H10S 1653   6.586   1.160   3.608 -0.1198 -1.3022 -1.6720
   13SAPS  C211 1654   6.579   1.041   3.785 -0.9719 -0.4015  0.9179
   13SAPS  H11R 1655   6.583   0.932   3.772  2.0510 -0.0005 -4.6128
   13SAPS  C212 1656   6.632   1.088   3.891 -0.0756 -0.0030  0.2404
   13SAPS  H12R 1657   6.681   1.016   3.958 -0.0794 -0.2772 -0.0540
   13SAPS  C213 1658   6.631   1.227   3.944 -0.1258  0.8133  0.1935
   13SAPS  H13R 1659   6.597   1.302   3.869  2.1427  0.5124 -1.2212
   13SAPS  H13S 1660   6.734   1.268   3.943  0.6218 -0.9450  1.3383
   13SAPS  C214 1661   6.563   1.233   4.077  0.4205  0.1466  0.1204
   13SAPS  H14R 1662   6.473   1.297   4.074  1.0654  1.0615 -2.4171
   13SAPS  C215 1663   6.609   1.188   4.197 -0.1733 -0.2317 -0.2982
   13SAPS  H15R 1664   6.540   1.194   4.282 -1.2727 -0.7711 -1.1289
   13SAPS  C216 1665   6.742   1.130   4.233  0.2771  0.7919  0.1199
   13SAPS  H16R 1666   6.792   1.190   4.312  1.2597 -0.0055  0.1300
   13SAPS  H16S 1667   6.812   1.133   4.147 -0.2302  0.8215 -0.2961
   13SAPS  C217 1668   6.735   0.978   4.274 -0.0817  0.5152 -0.3352
   13SAPS  H17R 1669   6.838   0.942   4.296  0.3849  1.9318 -0.1263
   13SAPS  H17S 1670   6.697   0.913   4.193  1.8213 -1.9969  0.6625
   13SAPS  C218 1671   6.657   0.936   4.397  0.6180 -0.0290  0.0712
   13SAPS  H18R 1672   6.567   1.001   4.398  1.1438  0.7073  0.1796
   13SAPS  H18S 1673   6.713   0.968   4.488  0.5105  0.8929 -0.1729
   13SAPS  C219 1674   6.609   0.793   4.386 -0.0168  0.3594  0.1651
   13SAPS  H19R 1675   6.689   0.716   4.390 -0.6558 -0.2527  1.9327
   13SAPS  H19S 1676   6.570   0.783   4.282  0.4038  2.1891 -0.2096
   13SAPS  C220 1677   6.509   0.743   4.489  1.0976 -0.1741 -0.3241
   13SAPS  H20R 1678   6.526   0.808   4.578  1.5653 -2.1033  1.0552
   13SAPS  H20S 1679   6.518   0.636   4.518 -3.0927 -0.7760 -0.5494
   13SAPS  H20T 1680   6.404   0.769   4.463  0.6235 -0.9676  0.6880
   13SAPS   C33 1681   5.885   1.680   3.508 -0.3181 -0.0539  0.2547
   13SAPS   H3X 1682   5.885   1.576   3.549  0.6195 -0.1174  0.1226
   13SAPS   H3Y 1683   5.783   1.721   3.520 -0.0020  1.1064 -0.8532
   13SAPS   C34 1684   5.978   1.770   3.589 -0.0022  0.2001 -0.1654
   13SAPS   H4X 1685   5.976   1.875   3.553 -0.7647  0.2593  0.0314
   13SAPS   H4Y 1686   6.085   1.743   3.572  0.6263  1.7621  1.0669
   13SAPS   C35 1687   5.953   1.755   3.736  0.1445  0.1410  0.2918
   13SAPS   H5X 1688   5.959   1.646   3.754  0.1952 -0.0213 -0.6606
   13SAPS   H5Y 1689   5.852   1.782   3.773 -0.0899 -0.8687  0.4274
   13SAPS   C36 1690   6.057   1.829   3.824 -0.0312 -0.5235 -0.2534
   13SAPS   H6X 1691   6.035   1.938   3.828  1.2762 -0.2184 -0.9264
   13SAPS   H6Y 1692   6.156   1.823   3.775 -0.5181 -1.2569 -1.2091
   13SAPS   C37 1693   6.072   1.777   3.966  0.0460 -0.6114  0.9038
   13SAPS   H7X 1694   6.161   1.830   4.005  0.8236 -1.9835  1.0732
   13SAPS   H7Y 1695   6.094   1.668   3.976  1.8583 -0.4738 -1.0712
   13SAPS   C38 1696   5.959   1.825   4.060  0.1068 -0.1213 -0.4032
   13SAPS   H8X 1697   5.872   1.761   4.037  0.5735 -0.7390 -0.4952
   13SAPS   H8Y 1698   5.929   1.929   4.038  2.7745  0.2271 -3.0643
   13SAPS   C39 1699   6.009   1.817   4.204  1.1870  0.4363 -1.2873
   13SAPS   H9X 1700   6.066   1.909   4.231 -0.6673  1.7852 -1.7819
   13SAPS   H9Y 1701   6.078   1.731   4.217  1.3910  0.6773 -0.7493
   13SAPS  C310 1702   5.889   1.806   4.306  0.7306 -0.3144 -0.2630
   13SAPS  H10X 1703   5.829   1.717   4.279 -0.7609  0.3180  0.8243
   13SAPS  H10Y 1704   5.840   1.904   4.285  0.4979 -0.5066 -0.6318
   13SAPS  C311 1705   5.930   1.796   4.453 -0.4921  0.3658 -0.8584
   13SAPS  H11X 1706   5.981   1.889   4.486 -2.1245  1.4571 -1.3279
   13SAPS  H11Y 1707   6.015   1.724   4.449 -1.2013 -0.5110 -0.6130
   13SAPS  C312 1708   5.827   1.744   4.552  0.1192  0.5499  0.2595
   13SAPS  H12X 1709   5.819   1.635   4.537  2.1445  0.2021  1.3650
   13SAPS  H12Y 1710   5.730   1.794   4.530  1.4727  2.7413 -1.1601
   13SAPS  C313 1711   5.890   1.769   4.697 -0.6268 -0.1464 -0.0900
   13SAPS  H13X 1712   5.889   1.880   4.705  0.6165 -0.0587 -0.8258
   13SAPS  H13Y 1713   5.994   1.730   4.698 -1.2883 -2.0389 -1.0027
   13SAPS  C314 1714   5.800   1.697   4.800  0.1420  0.0245 -0.3083
   13SAPS  H14X 1715   5.815   1.587   4.791 -2.9613 -0.6633  1.5995
   13SAPS  H14Y 1716   5.698   1.724   4.766  0.5874  1.5949 -0.4676
   13SAPS  C315 1717   5.803   1.763   4.940  0.0990 -0.6229  0.0992
   13SAPS  H15X 1718   5.799   1.872   4.921 -0.5568 -0.8181 -1.0115
   13SAPS  H15Y 1719   5.901   1.745   4.990  1.0926  2.1251 -0.7269
   13SAPS  C316 1720   5.682   1.728   5.034  0.0340  0.0643 -0.7672
   13SAPS  H16X 1721   5.585   1.745   4.981  1.0509  2.6948 -2.0001
   13SAPS  H16Y 1722   5.676   1.792   5.125 -3.7674 -2.6706  1.2032
   13SAPS  C317 1723   5.679   1.592   5.098 -1.0613 -0.2996  0.1492
   13SAPS  H17X 1724   5.666   1.517   5.017 -0.4963 -0.6058  0.3363
   13SAPS  H17Y 1725   5.595   1.580   5.169  0.9464 -2.5556  2.3286
   13SAPS  C318 1726   5.807   1.556   5.178  0.2570  0.7792  0.1171
   13SAPS  H18X 1727   5.841   1.639   5.244  1.0830  0.6652 -0.1586
   13SAPS  H18Y 1728   5.885   1.523   5.107 -1.3091  0.0814 -1.3540
   13SAPS  H18Z 1729   5.786   1.471   5.246  0.5506  1.6400  1.3278
   14SAPS     N 1730   4.947   3.087   2.175  0.1159  0.0197  0.1790
   14SAPS   HN1 1731   5.033   3.138   2.207  0.8343 -0.3361 -1.1259
   14SAPS   HN2 1732   4.899   3.148   2.106 -0.8333 -0.1862  0.6356
   14SAPS   HN3 1733   4.890   3.080   2.262 -0.3806  1.8863  0.0410
   14SAPS   C12 1734   4.974   2.949   2.115 -0.0433 -0.2029 -0.4543
   14SAPS  H12A 1735   4.882   2.894   2.122 -0.6437  0.9836  2.3103
   14SAPS   C13 1736   5.015   2.960   1.971 -0.9973  0.6742  0.9039
   14SAPS  O13A 1737   5.045   3.074   1.930 -0.4234 -0.4509 -0.3631
   14SAPS  O13B 1738   5.043   2.857   1.907 -0.1450 -0.3725 -0.0606
   14SAPS   C11 1739   5.091   2.885   2.195 -1.1449  0.6557 -0.3604
   14SAPS  H11A 1740   5.189   2.937   2.191  1.4120 -3.3878  1.9065
   14SAPS  H11B 1741   5.105   2.781   2.158  0.7731  0.7812 -0.0768
   14SAPS     P 1742   5.156   2.798   2.425  0.0714  0.1442  0.1381
   14SAPS   O13 1743   5.143   2.655   2.392  0.0494 -0.0968  0.2387
   14SAPS   O14 1744   5.284   2.870   2.426  0.1945  0.6148 -0.0222
   14SAPS   O12 1745   5.051   2.871   2.327  0.0798 -0.0045 -0.0768
   14SAPS   O11 1746   5.082   2.811   2.563 -0.9683  0.7332  0.0268
   14SAPS    C1 1747   4.987   2.918   2.574  0.0866  0.0727  0.7709
   14SAPS    HA 1748   5.004   3.008   2.512  2.5877 -1.9847 -1.7728
   14SAPS    HB 1749   4.886   2.886   2.541 -1.4448  1.6780  3.5151
   14SAPS    C2 1750   4.964   2.960   2.719 -0.0853  0.0965 -0.0106
   14SAPS    HS 1751   4.881   3.034   2.725  1.8365  2.2809  0.9116
   14SAPS   O21 1752   5.092   3.006   2.771  0.3263 -0.0863  0.2068
   14SAPS   C21 1753   5.078   3.116   2.846  0.1635 -1.0579  0.3075
   14SAPS   O22 1754   4.983   3.187   2.858  0.2787 -0.3389 -0.0227
   14SAPS   C22 1755   5.213   3.137   2.923  0.4910 -0.0485 -0.5520
   14SAPS   H2R 1756   5.273   3.044   2.915  3.5837  1.5872  1.5518
   14SAPS   H2S 1757   5.258   3.233   2.890  0.2683  0.9018  1.7242
   14SAPS    C3 1758   4.920   2.831   2.801 -0.2100 -0.6063  0.5549
   14SAPS    HX 1759   5.005   2.762   2.783  2.0698  2.2510 -0.3204
   14SAPS    HY 1760   4.831   2.781   2.758  0.7434 -1.7349 -0.1460
   14SAPS   O31 1761   4.909   2.858   2.942  0.5923  0.2769  0.0188
   14SAPS   C31 1762   4.815   2.939   2.980 -0.5147 -0.3967 -0.4754
   14SAPS   O32 1763   4.729   2.994   2.912  0.7767 -0.0827 -0.4908
   14SAPS   C32 1764   4.840   2.965   3.131  0.2364 -0.7590  0.7333
   14SAPS   H2X 1765   4.947   2.956   3.159  0.7855 -0.3273 -1.0513
   14SAPS   H2Y 1766   4.784   2.886   3.185 -1.6351 -0.1475 -0.2119
   14SAPS   C23 1767   5.191   3.146   3.078  0.4537  0.5476 -0.0048
   14SAPS   H3R 1768   5.147   3.050   3.112  1.7257  1.1562  3.8528
   14SAPS   H3S 1769   5.129   3.232   3.111 -0.4695 -0.6988  1.6944
   14SAPS   C24 1770   5.325   3.170   3.149 -0.2652 -0.1422 -0.1641
   14SAPS   H4R 1771   5.363   3.267   3.111 -0.8496  0.6350  1.1422
   14SAPS   H4S 1772   5.390   3.085   3.120  0.6823  0.4115  0.2900
   14SAPS   C25 1773   5.313   3.190   3.299  0.0457 -0.0959 -0.2889
   14SAPS   H5R 1774   5.279   3.094   3.340 -0.6229  1.0252  1.9365
   14SAPS   C26 1775   5.307   3.302   3.376  0.1812  0.3200 -0.8201
   14SAPS   H6R 1776   5.290   3.284   3.483 -1.9292 -1.5991 -1.3943
   14SAPS   C27 1777   5.326   3.447   3.335  0.5033 -0.2480  0.0392
   14SAPS   H7R 1778   5.413   3.464   3.267  0.6395  0.9966  0.5155
   14SAPS   H7S 1779   5.339   3.510   3.425 -0.1715 -2.1237  1.5060
   14SAPS   C28 1780   5.213   3.512   3.247  0.0852  0.2158  0.0385
   14SAPS   H8R 1781   5.248   3.534   3.145 -0.5875  0.9768 -0.0367
   14SAPS   C29 1782   5.086   3.529   3.281  0.0909  0.0752  0.2857
   14SAPS   H9R 1783   5.018   3.581   3.212 -0.0420  0.0373  0.3879
   14SAPS  C210 1784   5.029   3.493   3.413  0.1802  0.2981  0.3799
   14SAPS  H10R 1785   5.090   3.556   3.482 -0.0364  0.3824  0.4929
   14SAPS  H10S 1786   5.048   3.388   3.442 -0.8867  0.0758  0.2849
   14SAPS  C211 1787   4.883   3.501   3.435  0.3852 -0.9464 -0.0161
   14SAPS  H11R 1788   4.830   3.446   3.356  1.2664 -2.8799  0.6899
   14SAPS  C212 1789   4.815   3.560   3.539  0.1802 -0.0457  0.2212
   14SAPS  H12R 1790   4.706   3.552   3.532  0.1817  0.1503  0.0024
   14SAPS  C213 1791   4.880   3.623   3.657  0.3273 -0.0496  0.1050
   14SAPS  H13R 1792   4.921   3.723   3.632 -0.7133 -0.6406 -4.9340
   14SAPS  H13S 1793   4.964   3.559   3.693  1.4855  2.4979  2.2953
   14SAPS  C214 1794   4.777   3.633   3.767 -0.4622 -0.5726 -0.4193
   14SAPS  H14R 1795   4.674   3.596   3.754 -1.1409  1.3056 -0.7611
   14SAPS  C215 1796   4.805   3.695   3.878 -0.1637 -0.4019 -0.3208
   14SAPS  H15R 1797   4.716   3.718   3.940  1.0614  1.1323  0.9692
   14SAPS  C216 1798   4.935   3.759   3.933 -0.0759 -0.1747  0.0736
   14SAPS  H16R 1799   4.936   3.870   3.936  1.3834 -0.1306 -0.9126
   14SAPS  H16S 1800   5.021   3.725   3.873  1.9260  2.7762  1.0354
   14SAPS  C217 1801   4.955   3.704   4.078  0.0408 -0.0285 -0.5380
   14SAPS  H17R 1802   5.060   3.720   4.110  0.0884  0.4523 -0.9217
   14SAPS  H17S 1803   4.953   3.595   4.059  0.7955  0.1378 -1.6525
   14SAPS  C218 1804   4.847   3.753   4.185  0.5734  0.1341  0.2382
   14SAPS  H18R 1805   4.744   3.727   4.153  1.0599  0.0527 -1.3462
   14SAPS  H18S 1806   4.852   3.863   4.171  0.9059 -0.1116 -1.8952
   14SAPS  C219 1807   4.881   3.716   4.328  0.5526  0.6304  0.7801
   14SAPS  H19R 1808   4.990   3.722   4.351  0.8904 -2.1188  0.2404
   14SAPS  H19S 1809   4.857   3.608   4.336 -1.2373  0.9207 -0.2367
   14SAPS  C220 1810   4.804   3.785   4.441 -0.6183 -0.5732  0.8491
   14SAPS  H20R 1811   4.815   3.739   4.541 -0.7861 -1.2905  0.5421
   14SAPS  H20S 1812   4.695   3.790   4.422 -0.7532 -0.6340  1.5873
   14SAPS  H20T 1813   4.852   3.883   4.461 -1.1908 -0.1362  0.1606
   14SAPS   C33 1814   4.796   3.108   3.178  0.1902  0.4252 -0.8133
   14SAPS   H3X 1815   4.685   3.105   3.178  0.2167 -1.9525 -0.4628
   14SAPS   H3Y 1816   4.830   3.195   3.118  1.8817  0.0989 -0.3797
   14SAPS   C34 1817   4.851   3.141   3.314  0.1956 -0.0582  0.0136
   14SAPS   H4X 1818   4.831   3.245   3.348  1.4771  0.1624  0.1418
   14SAPS   H4Y 1819   4.962   3.152   3.313  0.2701 -0.8274 -1.1425
   14SAPS   C35 1820   4.829   3.039   3.425  0.5727 -0.0460 -0.3415
   14SAPS   H5X 1821   4.851   2.931   3.416 -0.2547 -0.4354  1.6607
   14SAPS   H5Y 1822   4.718   3.047   3.433  0.7504  1.9869  1.0617
   14SAPS   C36 1823   4.884   3.104   3.555  0.0544  0.3139 -0.8761
   14SAPS   H6X 1824   4.838   3.047   3.638 -1.8522  1.9233 -0.7297
   14SAPS   H6Y 1825   4.860   3.211   3.572  0.6462  0.1906  0.8525
   14SAPS   C37 1826   5.028   3.074   3.579  0.0107 -0.4872  0.5713
   14SAPS   H7X 1827   5.100   3.145   3.533 -0.5267  0.0851  0.5957
   14SAPS   H7Y 1828   5.053   2.976   3.535 -3.8687 -0.8796 -1.1708
   14SAPS   C38 1829   5.068   3.098   3.724  0.3457  0.3620 -0.2305
   14SAPS   H8X 1830   5.173   3.066   3.740  1.8032  3.8855 -1.7525
   14SAPS   H8Y 1831   4.996   3.050   3.794 -1.1681  2.1620 -0.4737
   14SAPS   C39 1832   5.070   3.249   3.759  0.9316 -0.0930 -0.1913
   14SAPS   H9X 1833   4.975   3.295   3.722 -0.0884 -2.6231 -0.9524
   14SAPS   H9Y 1834   5.150   3.296   3.697  0.5007 -1.3597 -1.7884
   14SAPS  C310 1835   5.080   3.282   3.910 -0.1884  0.1594 -0.3697
   14SAPS  H10X 1836   5.148   3.369   3.924  1.7720 -1.4222  0.5071
   14SAPS  H10Y 1837   5.134   3.197   3.957 -0.0885  0.7374  0.5724
   14SAPS  C311 1838   4.945   3.295   3.970 -0.4734  0.2301  0.2508
   14SAPS  H11X 1839   4.867   3.225   3.933  0.5387 -0.0426 -1.5100
   14SAPS  H11Y 1840   4.895   3.391   3.946 -0.0694  0.1984 -0.7699
   14SAPS  C312 1841   4.948   3.281   4.129  0.1703  0.6987  0.4288
   14SAPS  H12X 1842   5.016   3.348   4.185 -2.4627  2.6294  1.5021
   14SAPS  H12Y 1843   4.981   3.176   4.146 -2.1955  0.0147  1.0957
   14SAPS  C313 1844   4.807   3.302   4.187 -0.2819  0.2629 -0.5296
   14SAPS  H13X 1845   4.726   3.242   4.142 -0.3471 -0.0973  0.0530
   14SAPS  H13Y 1846   4.791   3.411   4.173 -0.2007  0.3172 -0.2256
   14SAPS  C314 1847   4.802   3.267   4.338  0.2572 -0.2739  0.1667
   14SAPS  H14X 1848   4.871   3.335   4.394 -0.1441 -0.7317  1.2417
   14SAPS  H14Y 1849   4.845   3.165   4.345 -0.4766 -0.4808  3.7815
   14SAPS  C315 1850   4.668   3.262   4.409 -0.0234  0.2107 -0.3219
   14SAPS  H15X 1851   4.594   3.214   4.342  0.8478 -1.5529 -0.0877
   14SAPS  H15Y 1852   4.632   3.368   4.413  0.9270  0.5218  0.5217
   14SAPS  C316 1853   4.675   3.200   4.551 -0.0298  0.7162 -0.1839
   14SAPS  H16X 1854   4.727   3.274   4.615  0.1485 -0.2967  0.8875
   14SAPS  H16Y 1855   4.735   3.106   4.543 -0.0682  0.7670 -1.1225
   14SAPS  C317 1856   4.540   3.184   4.620  0.0040 -0.1855  0.4117
   14SAPS  H17X 1857   4.476   3.107   4.573  1.2570 -2.3756  2.0880
   14SAPS  H17Y 1858   4.491   3.282   4.635  0.5535  0.1056  0.3343
   14SAPS  C318 1859   4.567   3.127   4.761 -0.1345 -0.3069 -0.1329
   14SAPS  H18X 1860   4.586   3.018   4.750 -0.0547 -0.3224  0.1470
   14SAPS  H18Y 1861   4.475   3.154   4.817  0.6289  1.3762  0.3857
   14SAPS  H18Z 1862   4.657   3.171   4.809 -0.3302  0.9749 -0.8929
   15SAPS     N 1863   5.065   3.832   2.352  0.3436  0.2446  0.1773
   15SAPS   HN1 1864   5.034   3.885   2.435  0.5432 -1.8246  1.6569
   15SAPS   HN2 1865   4.985   3.824   2.286  0.9014  2.8125 -0.9407
   15SAPS   HN3 1866   5.099   3.740   2.387 -0.8204 -0.4228 -0.4004
   15SAPS   C12 1867   5.169   3.910   2.265  0.3724  0.4104 -0.4535
   15SAPS  H12A 1868   5.272   3.877   2.278  0.4181  0.6625 -0.1644
   15SAPS   C13 1869   5.135   3.917   2.116 -0.2864  0.1757  0.4469
   15SAPS  O13A 1870   5.019   3.888   2.076 -0.1852 -0.3432  0.3287
   15SAPS  O13B 1871   5.231   3.951   2.040  0.1004  0.0853  0.0949
   15SAPS   C11 1872   5.172   4.048   2.319  0.3445  0.2710 -0.4806
   15SAPS  H11A 1873   5.079   4.103   2.293 -1.1919 -1.2744  1.4457
   15SAPS  H11B 1874   5.261   4.099   2.275  0.4229 -0.2819 -0.9818
   15SAPS     P 1875   5.320   4.072   2.537  0.3855  0.2234 -0.2990
   15SAPS   O13 1876   5.414   3.963   2.502  0.1519 -0.0485 -0.0124
   15SAPS   O14 1877   5.365   4.211   2.516 -0.0552 -0.4090  0.1835
   15SAPS   O12 1878   5.186   4.049   2.452 -0.1994  0.0297 -0.3978
   15SAPS   O11 1879   5.277   4.059   2.684  0.4259  0.7090 -0.0181
   15SAPS    C1 1880   5.221   3.942   2.738 -0.6494  0.4361  0.3054
   15SAPS    HA 1881   5.160   3.880   2.669 -3.0182  2.2876  0.6128
   15SAPS    HB 1882   5.309   3.880   2.766 -0.2252  0.7752 -0.2442
   15SAPS    C2 1883   5.151   3.969   2.871  1.2176  0.4524 -0.1379
   15SAPS    HS 1884   5.055   4.020   2.849  0.1030  0.3606  3.8033
   15SAPS   O21 1885   5.240   4.043   2.954 -0.1000  0.0084  0.4775
   15SAPS   C21 1886   5.204   4.166   2.980  0.3083 -0.4750  0.1785
   15SAPS   O22 1887   5.106   4.226   2.933  0.0315 -0.7756 -0.2080
   15SAPS   C22 1888   5.306   4.229   3.069  0.5734  0.1681 -0.1421
   15SAPS   H2R 1889   5.400   4.174   3.048 -1.1778 -2.3462 -2.0319
   15SAPS   H2S 1890   5.328   4.326   3.021 -0.5477 -0.3136 -1.6829
   15SAPS    C3 1891   5.112   3.838   2.949 -0.0277  0.0400  0.5309
   15SAPS    HX 1892   5.208   3.786   2.966 -0.6885 -1.3429  0.1699
   15SAPS    HY 1893   5.055   3.776   2.877 -1.8770  1.8270  0.3499
   15SAPS   O31 1894   5.049   3.862   3.076 -0.0476 -0.0966 -0.0731
   15SAPS   C31 1895   4.920   3.883   3.067  0.4194  0.1796 -0.4124
   15SAPS   O32 1896   4.857   3.889   2.963  0.5406  0.2403 -0.1347
   15SAPS   C32 1897   4.862   3.870   3.207  0.5128  0.4329  0.1263
   15SAPS   H2X 1898   4.860   3.761   3.227 -0.7676  0.0242 -1.9848
   15SAPS   H2Y 1899   4.753   3.891   3.201  0.3840 -0.0980  0.5367
   15SAPS   C23 1900   5.270   4.230   3.221 -0.0173  0.2099 -0.6596
   15SAPS   H3R 1901   5.363   4.243   3.280  0.0738 -1.5284 -0.3411
   15SAPS   H3S 1902   5.241   4.125   3.246  0.9914 -0.0794 -0.6306
   15SAPS   C24 1903   5.154   4.331   3.243 -0.2578  0.0060  0.4831
   15SAPS   H4R 1904   5.084   4.318   3.158  1.0195  3.9844 -1.4283
   15SAPS   H4S 1905   5.187   4.433   3.214  2.6393 -0.2846  2.3137
   15SAPS   C25 1906   5.084   4.312   3.371  0.7543 -0.2274 -0.7871
   15SAPS   H5R 1907   4.981   4.272   3.365  0.3134  0.8666 -0.9246
   15SAPS   C26 1908   5.135   4.357   3.485 -0.4099  0.1862 -0.0519
   15SAPS   H6R 1909   5.074   4.321   3.569 -0.5738  0.3088 -0.1184
   15SAPS   C27 1910   5.279   4.408   3.497  0.3130 -0.1542 -0.3196
   15SAPS   H7R 1911   5.329   4.439   3.403 -0.6400  1.3520 -0.3595
   15SAPS   H7S 1912   5.343   4.326   3.536  1.2530  0.6132 -0.1920
   15SAPS   C28 1913   5.280   4.525   3.589 -0.1167 -0.2855 -0.9397
   15SAPS   H8R 1914   5.219   4.607   3.549 -2.5692 -1.1397  0.7562
   15SAPS   C29 1915   5.313   4.532   3.719  0.2488  0.2800 -0.2611
   15SAPS   H9R 1916   5.307   4.631   3.766  2.8003  0.4262 -0.0775
   15SAPS  C210 1917   5.356   4.419   3.812 -0.5191  0.0197 -0.1453
   15SAPS  H10R 1918   5.452   4.438   3.866  0.0279 -2.0419 -0.3128
   15SAPS  H10S 1919   5.366   4.329   3.748 -2.1384 -1.1344  1.1437
   15SAPS  C211 1920   5.244   4.393   3.913  0.3454  0.0009  0.7889
   15SAPS  H11R 1921   5.167   4.319   3.888 -1.2759  1.8574  0.0562
   15SAPS  C212 1922   5.232   4.456   4.033 -0.5180 -0.0035  0.5134
   15SAPS  H12R 1923   5.143   4.431   4.093 -2.1295  0.2068 -1.6720
   15SAPS  C213 1924   5.333   4.542   4.097  1.0456 -0.1617  0.3518
   15SAPS  H13R 1925   5.299   4.648   4.104  0.6750 -0.3118  0.8619
   15SAPS  H13S 1926   5.420   4.555   4.029 -1.3787  2.2945 -2.6099
   15SAPS  C214 1927   5.376   4.489   4.233  0.3660  0.4937 -0.3048
   15SAPS  H14R 1928   5.442   4.401   4.234 -1.0271 -0.6161 -1.4807
   15SAPS  C215 1929   5.337   4.525   4.358  0.6138  0.7692 -0.3486
   15SAPS  H15R 1930   5.368   4.465   4.444 -0.5680  1.8163  0.8515
   15SAPS  C216 1931   5.233   4.629   4.392  0.3367 -1.0148  0.0829
   15SAPS  H16R 1932   5.194   4.664   4.294  1.2565  1.0959  0.4121
   15SAPS  H16S 1933   5.280   4.714   4.445 -0.3803  1.0789 -2.4352
   15SAPS  C217 1934   5.122   4.556   4.476 -0.2777  0.4091  0.4343
   15SAPS  H17R 1935   5.087   4.459   4.437  0.2139  0.0655  0.8385
   15SAPS  H17S 1936   5.031   4.619   4.482  0.5505  1.5370  1.8543
   15SAPS  C218 1937   5.163   4.522   4.619  0.0215  0.1482  0.2307
   15SAPS  H18R 1938   5.267   4.483   4.619  0.2457  0.7507  0.2247
   15SAPS  H18S 1939   5.105   4.433   4.651  1.5841 -1.0185 -0.0565
   15SAPS  C219 1940   5.147   4.635   4.723  0.3563 -0.0765 -1.2124
   15SAPS  H19R 1941   5.053   4.694   4.708  0.2288 -0.7884 -3.7605
   15SAPS  H19S 1942   5.227   4.709   4.705  0.8114  0.0064  0.9659
   15SAPS  C220 1943   5.164   4.597   4.871 -0.1373  0.2863  0.3437
   15SAPS  H20R 1944   5.160   4.487   4.888  0.4299  0.4688  1.8820
   15SAPS  H20S 1945   5.098   4.651   4.942 -1.2911  0.5460 -0.8973
   15SAPS  H20T 1946   5.266   4.630   4.902  1.2532 -0.3924 -3.0331
   15SAPS   C33 1947   4.923   3.949   3.329  0.2764  0.2314 -0.4130
   15SAPS   H3X 1948   4.979   4.041   3.299  2.0917 -0.8186 -0.4234
   15SAPS   H3Y 1949   5.001   3.878   3.364 -1.1303 -1.2529 -0.1986
   15SAPS   C34 1950   4.824   3.981   3.440 -0.2659 -0.2576  0.5030
   15SAPS   H4X 1951   4.769   3.889   3.469  0.0428 -0.9523 -0.9868
   15SAPS   H4Y 1952   4.752   4.049   3.388 -0.8691 -1.0452  0.2842
   15SAPS   C35 1953   4.892   4.036   3.567  0.1769 -0.0498 -0.0395
   15SAPS   H5X 1954   4.956   4.119   3.529 -0.9318  0.2873 -1.2501
   15SAPS   H5Y 1955   4.952   3.951   3.605 -1.6289 -1.8121 -0.9173
   15SAPS   C36 1956   4.798   4.080   3.680  0.5505 -0.3655 -0.0744
   15SAPS   H6X 1957   4.759   3.979   3.706  1.5589 -0.9467 -0.7433
   15SAPS   H6Y 1958   4.708   4.138   3.650 -2.0826 -4.0383 -0.1254
   15SAPS   C37 1959   4.851   4.149   3.809  0.5031  0.4634 -0.8052
   15SAPS   H7X 1960   4.871   4.258   3.799 -0.4961  1.0203  2.2720
   15SAPS   H7Y 1961   4.943   4.097   3.843  0.4940 -0.2212 -1.7664
   15SAPS   C38 1962   4.756   4.148   3.933  0.7462  0.5720  0.9079
   15SAPS   H8X 1963   4.708   4.047   3.938 -2.0807  1.5600 -2.2280
   15SAPS   H8Y 1964   4.671   4.214   3.907  1.1810  0.6422 -0.3964
   15SAPS   C39 1965   4.824   4.182   4.060 -0.5702  0.0588 -0.5493
   15SAPS   H9X 1966   4.879   4.277   4.044  0.2318 -0.3832 -0.4678
   15SAPS   H9Y 1967   4.887   4.097   4.094 -2.8522 -1.1692  0.8622
   15SAPS  C310 1968   4.730   4.206   4.182 -0.3070 -0.7158  0.4052
   15SAPS  H10X 1969   4.671   4.117   4.213  0.3767 -1.4841 -0.4444
   15SAPS  H10Y 1970   4.664   4.288   4.146 -0.0140 -1.0288 -0.8852
   15SAPS  C311 1971   4.804   4.260   4.301  0.0517 -0.4448 -0.0060
   15SAPS  H11X 1972   4.884   4.330   4.267 -1.7254  0.4331 -2.7325
   15SAPS  H11Y 1973   4.868   4.182   4.346  0.8104 -0.3234 -0.8366
   15SAPS  C312 1974   4.712   4.326   4.403  0.2014  0.1814  0.3412
   15SAPS  H12X 1975   4.645   4.252   4.450  0.2976 -1.2932 -1.6851
   15SAPS  H12Y 1976   4.645   4.398   4.351 -3.2170 -2.7706  0.3126
   15SAPS  C313 1977   4.779   4.412   4.509  0.3359  0.8065 -0.6974
   15SAPS  H13X 1978   4.861   4.480   4.474  2.0494  0.2019  1.8462
   15SAPS  H13Y 1979   4.825   4.345   4.584  2.4163  0.8049 -1.8920
   15SAPS  C314 1980   4.672   4.499   4.580 -0.4805 -0.2477 -0.8394
   15SAPS  H14X 1981   4.591   4.428   4.607 -1.1436 -0.0506 -2.2145
   15SAPS  H14Y 1982   4.640   4.576   4.507  0.3224 -0.8037 -1.7931
   15SAPS  C315 1983   4.714   4.566   4.711 -0.2713  0.1445  0.3726
   15SAPS  H15X 1984   4.817   4.608   4.715  0.0120 -0.3231 -1.1160
   15SAPS  H15Y 1985   4.716   4.483   4.785 -2.9400 -0.3718 -0.0358
   15SAPS  C316 1986   4.605   4.663   4.759 -0.1985 -0.1026 -0.4150
   15SAPS  H16X 1987   4.512   4.613   4.792 -1.2821  1.3314 -1.1700
   15SAPS  H16Y 1988   4.594   4.736   4.675 -1.9724  1.1225  0.8236
   15SAPS  C317 1989   4.643   4.763   4.870  0.3188 -0.0598  0.1225
   15SAPS  H17X 1990   4.575   4.850   4.880 -0.0480 -0.5153  2.1961
   15SAPS  H17Y 1991   4.742   4.812   4.858  0.3791 -0.6189 -1.9098
   15SAPS  C318 1992   4.649   4.699   5.011 -0.0991  0.6325 -0.2473
   15SAPS  H18X 1993   4.661   4.781   5.084  0.4780  0.1071  0.2686
   15SAPS  H18Y 1994   4.735   4.627   5.015 -2.3988 -2.6334 -3.1650
   15SAPS  H18Z 1995   4.561   4.633   5.022  0.0372  0.3721 -0.6842
   16SAPS     N 1996   6.259   5.293   2.443  0.8477  0.2964  0.9937
   16SAPS   HN1 1997   6.294   5.390   2.455 -0.5970  1.1993 -1.4633
   16SAPS   HN2 1998   6.289   5.229   2.519  4.4695  0.1163 -0.3597
   16SAPS   HN3 1999   6.309   5.245   2.365 -0.7110  0.7682 -0.3437
   16SAPS   C12 2000   6.115   5.281   2.391  0.7553  0.1033  0.8074
   16SAPS  H12A 2001   6.048   5.352   2.438 -1.0356 -0.9297 -0.0654
   16SAPS   C13 2002   6.090   5.300   2.231  0.1907 -0.5181  0.6443
   16SAPS  O13A 2003   6.187   5.330   2.156 -0.0721 -0.9222  0.0327
   16SAPS  O13B 2004   5.973   5.322   2.200  0.3646 -0.5548 -0.2856
   16SAPS   C11 2005   6.056   5.137   2.430 -0.0807 -0.0953  0.3665
   16SAPS  H11A 2006   6.118   5.058   2.383 -0.5572 -0.8493  0.9968
   16SAPS  H11B 2007   5.953   5.128   2.390 -0.6243 -0.3212  1.7800
   16SAPS     P 2008   6.161   5.048   2.654  0.7112  0.5289  0.6130
   16SAPS   O13 2009   6.173   4.915   2.592 -0.4108 -0.5569 -0.1937
   16SAPS   O14 2010   6.271   5.142   2.650 -0.2617  0.5969  0.4189
   16SAPS   O12 2011   6.045   5.119   2.576  0.3820 -0.3966 -0.7899
   16SAPS   O11 2012   6.100   5.027   2.793 -0.2061  0.0340 -0.4665
   16SAPS    C1 2013   5.981   4.958   2.827 -0.6479 -0.3438  0.1078
   16SAPS    HA 2014   5.908   5.041   2.834 -0.6521 -0.4127  1.0126
   16SAPS    HB 2015   5.940   4.897   2.744 -0.7840 -0.8323  0.5272
   16SAPS    C2 2016   5.979   4.877   2.959 -0.9717  0.1781  0.3362
   16SAPS    HS 2017   5.891   4.810   2.972 -0.4759 -0.4276  0.6139
   16SAPS   O21 2018   6.009   4.962   3.073 -0.1889 -0.3872 -0.2290
   16SAPS   C21 2019   5.897   5.028   3.110 -0.0496  0.4055 -0.4500
   16SAPS   O22 2020   5.786   5.011   3.063  0.1727  0.2210  0.6097
   16SAPS   C22 2021   5.934   5.137   3.210 -0.3011 -0.6338 -0.2142
   16SAPS   H2R 2022   6.008   5.089   3.277 -0.1345  0.2646  0.2569
   16SAPS   H2S 2023   5.979   5.220   3.151 -1.9831 -0.3869 -1.2152
   16SAPS    C3 2024   6.095   4.768   2.957  0.2300  0.6812  0.3135
   16SAPS    HX 2025   6.192   4.819   2.939  0.9338 -0.8487 -0.4468
   16SAPS    HY 2026   6.069   4.710   2.866 -1.0418 -0.0666  1.1198
   16SAPS   O31 2027   6.103   4.683   3.077  0.0532  0.5225 -0.1677
   16SAPS   C31 2028   6.195   4.587   3.077  0.0530  0.5864  0.0858
   16SAPS   O32 2029   6.280   4.570   2.992 -0.0973  0.4527 -0.6893
   16SAPS   C32 2030   6.169   4.500   3.203 -1.1658 -0.1566  0.2744
   16SAPS   H2X 2031   6.264   4.442   3.205 -0.1315  1.4473 -0.4854
   16SAPS   H2Y 2032   6.080   4.435   3.188 -0.5002 -0.9951 -0.0939
   16SAPS   C23 2033   5.821   5.191   3.302 -0.1232 -0.0615  0.4650
   16SAPS   H3R 2034   5.766   5.110   3.353 -0.9580 -1.4570 -2.4490
   16SAPS   H3S 2035   5.739   5.229   3.238  0.0714  1.0790  0.8655
   16SAPS   C24 2036   5.880   5.297   3.401 -0.3951  0.5671  0.2504
   16SAPS   H4R 2037   5.788   5.339   3.446 -0.9742 -2.3216  2.0819
   16SAPS   H4S 2038   5.931   5.378   3.346  0.4278 -0.8160 -1.1210
   16SAPS   C25 2039   5.981   5.256   3.506  0.1707 -0.3471  0.4628
   16SAPS   H5R 2040   6.085   5.275   3.478 -1.1226  4.2361 -2.3539
   16SAPS   C26 2041   5.950   5.206   3.623  0.4504 -1.1067 -0.2956
   16SAPS   H6R 2042   6.023   5.179   3.700 -0.3374 -1.0337  0.5004
   16SAPS   C27 2043   5.806   5.185   3.674 -0.9312 -0.1476 -0.1372
   16SAPS   H7R 2044   5.749   5.112   3.613 -1.4867 -0.6443  0.9669
   16SAPS   H7S 2045   5.750   5.281   3.678  1.6542  1.4194  1.4715
   16SAPS   C28 2046   5.802   5.135   3.814  0.8809  0.3109 -0.7209
   16SAPS   H8R 2047   5.800   5.025   3.822 -0.3057  0.1297 -2.9346
   16SAPS   C29 2048   5.799   5.193   3.940  0.7912 -0.1173 -0.2603
   16SAPS   H9R 2049   5.803   5.128   4.029  0.9632  1.4534  0.9168
   16SAPS  C210 2050   5.826   5.335   3.960 -0.0102 -0.8910 -0.5827
   16SAPS  H10R 2051   5.846   5.384   3.862  1.1951 -0.7791 -0.3075
   16SAPS  H10S 2052   5.918   5.348   4.021  0.6764 -1.7865 -1.3848
   16SAPS  C211 2053   5.722   5.401   4.049  0.7859 -0.3405  0.7979
   16SAPS  H11R 2054   5.673   5.338   4.125 -1.4587 -0.2514 -0.4722
   16SAPS  C212 2055   5.694   5.535   4.050  0.1293 -0.1699 -0.0153
   16SAPS  H12R 2056   5.609   5.576   4.107  0.7018  1.1762 -0.0997
   16SAPS  C213 2057   5.764   5.633   3.956  0.0739 -0.8681  0.3069
   16SAPS  H13R 2058   5.695   5.713   3.920  2.1284  1.2657  0.8918
   16SAPS  H13S 2059   5.786   5.581   3.860  1.7489  0.8509 -0.3034
   16SAPS  C214 2060   5.896   5.684   4.011 -0.0394  0.4913  0.3461
   16SAPS  H14R 2061   5.956   5.629   4.085  1.9071  2.0856  0.0270
   16SAPS  C215 2062   5.952   5.801   3.961  0.0033  0.1483 -0.1902
   16SAPS  H15R 2063   6.051   5.833   3.998 -0.1065 -0.1909  0.4161
   16SAPS  C216 2064   5.891   5.889   3.842 -0.0184 -0.0836 -0.2062
   16SAPS  H16R 2065   5.812   5.833   3.789 -1.0740  1.2652 -0.1149
   16SAPS  H16S 2066   5.970   5.907   3.766 -0.0803 -0.9204 -0.4735
   16SAPS  C217 2067   5.850   6.030   3.884  0.5959  0.1515 -0.0049
   16SAPS  H17R 2068   5.845   6.080   3.785 -0.4760 -1.4416 -0.7891
   16SAPS  H17S 2069   5.935   6.079   3.937  1.5809 -1.2097 -0.2689
   16SAPS  C218 2070   5.714   6.023   3.962  0.0665  0.3238 -0.3048
   16SAPS  H18R 2071   5.736   5.988   4.065  1.0029  2.2029  0.1944
   16SAPS  H18S 2072   5.648   5.953   3.907 -1.9772  0.7723  1.4171
   16SAPS  C219 2073   5.651   6.161   3.961 -0.1436 -0.0385 -0.2095
   16SAPS  H19R 2074   5.555   6.159   4.016  0.1195 -3.1258  0.3080
   16SAPS  H19S 2075   5.639   6.191   3.854  0.9681 -1.1982 -0.6825
   16SAPS  C220 2076   5.743   6.274   4.027 -0.5093  0.5099  0.1071
   16SAPS  H20R 2077   5.828   6.289   3.956 -2.0378  0.0451 -1.9185
   16SAPS  H20S 2078   5.777   6.242   4.128 -2.8781  0.9628  1.1067
   16SAPS  H20T 2079   5.679   6.363   4.038 -0.2019  0.8415 -0.7413
   16SAPS   C33 2080   6.152   4.591   3.332 -0.5692  0.5966  0.3418
   16SAPS   H3X 2081   6.084   4.676   3.307 -1.3066 -0.0105  0.2555
   16SAPS   H3Y 2082   6.250   4.642   3.349  0.2539 -0.2018 -1.7481
   16SAPS   C34 2083   6.099   4.508   3.446 -0.0688 -0.1994 -0.7926
   16SAPS   H4X 2084   5.990   4.486   3.436 -0.1485  0.4236 -1.3292
   16SAPS   H4Y 2085   6.104   4.564   3.542 -0.3099  1.0241 -1.4794
   16SAPS   C35 2086   6.157   4.372   3.468 -0.1331 -0.3591  0.2857
   16SAPS   H5X 2087   6.266   4.369   3.450 -0.3748  0.1820 -1.4416
   16SAPS   H5Y 2088   6.117   4.299   3.395 -3.4174 -0.7874  2.2595
   16SAPS   C36 2089   6.154   4.307   3.605 -0.1853 -0.2465 -0.9030
   16SAPS   H6X 2090   6.189   4.202   3.603 -0.9580 -0.5851  1.2631
   16SAPS   H6Y 2091   6.051   4.295   3.643 -0.1652 -1.4389 -1.2039
   16SAPS   C37 2092   6.241   4.381   3.714  0.1268 -0.2993 -0.0846
   16SAPS   H7X 2093   6.196   4.483   3.717  0.3057 -0.1591 -1.4762
   16SAPS   H7Y 2094   6.339   4.399   3.665 -0.3789 -0.0202 -1.0250
   16SAPS   C38 2095   6.252   4.301   3.846  0.4565  0.5934  0.2467
   16SAPS   H8X 2096   6.310   4.206   3.838  0.3860  0.4332  1.4636
   16SAPS   H8Y 2097   6.151   4.268   3.878  1.8590 -1.7709  2.6497
   16SAPS   C39 2098   6.321   4.386   3.952 -0.0547 -0.0233 -0.1214
   16SAPS   H9X 2099   6.413   4.431   3.909  0.0679  0.9261  1.0710
   16SAPS   H9Y 2100   6.362   4.318   4.029 -1.5013 -1.4173 -0.5141
   16SAPS  C310 2101   6.229   4.495   4.022 -1.2903  0.3797 -0.2343
   16SAPS  H10X 2102   6.187   4.569   3.950 -0.9685  0.6239 -0.1723
   16SAPS  H10Y 2103   6.270   4.543   4.113  0.4422 -2.4248  0.5768
   16SAPS  C311 2104   6.097   4.430   4.065 -0.5511 -0.1460  0.0050
   16SAPS  H11X 2105   6.118   4.328   4.102 -2.2217 -0.0398  1.3767
   16SAPS  H11Y 2106   6.037   4.420   3.972 -0.3129  0.5191 -0.2297
   16SAPS  C312 2107   6.022   4.499   4.179 -0.2990  0.4029 -0.6662
   16SAPS  H12X 2108   5.912   4.489   4.165  0.1446 -2.9574 -3.2473
   16SAPS  H12Y 2109   6.061   4.602   4.163 -0.6867  0.3925 -1.8206
   16SAPS  C313 2110   6.052   4.448   4.319 -0.2354  0.5717 -0.5847
   16SAPS  H13X 2111   6.163   4.441   4.327 -0.3091  0.0816  0.1376
   16SAPS  H13Y 2112   6.011   4.345   4.333  2.1737 -0.9065 -3.3170
   16SAPS  C314 2113   6.007   4.534   4.440 -0.2734  0.0975  0.3182
   16SAPS  H14X 2114   6.034   4.491   4.539 -0.5873  0.1940  0.4475
   16SAPS  H14Y 2115   5.896   4.537   4.435 -0.3288  0.0734  1.4110
   16SAPS  C315 2116   6.062   4.672   4.447  0.0437  0.1254  0.1412
   16SAPS  H15X 2117   6.033   4.736   4.361  2.3008  1.0999  0.0525
   16SAPS  H15Y 2118   6.172   4.678   4.436 -0.0285  0.7331 -0.3239
   16SAPS  C316 2119   6.012   4.740   4.578 -0.9694 -0.5625 -0.8116
   16SAPS  H16X 2120   5.918   4.692   4.615 -0.7892 -1.6474 -1.7110
   16SAPS  H16Y 2121   5.976   4.841   4.549  0.3333  0.6659  1.5662
   16SAPS  C317 2122   6.111   4.773   4.685 -0.0207 -0.1678 -0.0186
   16SAPS  H17X 2123   6.149   4.689   4.747  0.6166  0.8348  0.9968
   16SAPS  H17Y 2124   6.040   4.828   4.750 -0.4824 -0.2836 -0.4204
   16SAPS  C318 2125   6.232   4.854   4.633  0.4343 -0.1299 -0.3570
   16SAPS  H18X 2126   6.190   4.933   4.567  2.4643 -0.5727 -2.2801
   16SAPS  H18Y 2127   6.303   4.790   4.576 -2.2620 -3.5216 -0.1629
   16SAPS  H18Z 2128   6.279   4.906   4.720 -0.3375 -0.7225  0.4344
   17SAPS     N 2129   2.056   3.180   3.039 -0.4449  0.0029 -0.1294
   17SAPS   HN1 2130   2.037   3.086   3.080 -0.3035  0.3372  0.7207
   17SAPS   HN2 2131   2.136   3.166   2.974  1.7135  1.0176  2.1457
   17SAPS   HN3 2132   2.092   3.242   3.114  4.1988 -2.0535 -0.3250
   17SAPS   C12 2133   1.940   3.237   2.975 -0.4892  0.0559 -0.9005
   17SAPS  H12A 2134   1.967   3.326   2.921  1.0514  1.5655  2.1131
   17SAPS   C13 2135   1.880   3.130   2.871  0.4905 -0.6182  0.2289
   17SAPS  O13A 2136   1.923   3.010   2.867 -0.1555  0.1678 -0.0823
   17SAPS  O13B 2137   1.780   3.173   2.798 -0.1705  0.5214 -0.1328
   17SAPS   C11 2138   1.834   3.266   3.086 -0.1166  0.4844  0.1831
   17SAPS  H11A 2139   1.807   3.173   3.140  2.2911 -0.0537  0.5721
   17SAPS  H11B 2140   1.758   3.311   3.019  1.0476  1.0873 -0.7645
   17SAPS     P 2141   1.830   3.506   3.198 -0.3487 -0.2019  0.1697
   17SAPS   O13 2142   1.892   3.599   3.105  0.9970 -0.7310  0.4912
   17SAPS   O14 2143   1.685   3.492   3.201  0.5122 -0.7692  0.1572
   17SAPS   O12 2144   1.897   3.361   3.172  0.2067 -0.2315 -0.2594
   17SAPS   O11 2145   1.872   3.536   3.353  0.3100 -0.3077 -0.1852
   17SAPS    C1 2146   2.012   3.510   3.396  0.5222 -0.0147  0.6266
   17SAPS    HA 2147   2.021   3.404   3.429 -1.7885 -0.6419 -0.4891
   17SAPS    HB 2148   2.080   3.540   3.314  1.6754 -3.8253  0.0104
   17SAPS    C2 2149   2.046   3.597   3.525 -0.2443 -0.4975  0.7114
   17SAPS    HS 2150   2.150   3.632   3.508 -0.1245 -1.8263 -1.8247
   17SAPS   O21 2151   2.062   3.535   3.646  0.2881  0.2407  0.3332
   17SAPS   C21 2152   2.144   3.435   3.659  0.2413  0.0229 -0.4772
   17SAPS   O22 2153   2.225   3.397   3.572  0.5580 -0.2989  0.0141
   17SAPS   C22 2154   2.114   3.362   3.793  0.3030 -0.0236 -0.1945
   17SAPS   H2R 2155   2.098   3.439   3.871 -1.2993  1.0152 -1.4949
   17SAPS   H2S 2156   2.016   3.310   3.795  1.2450 -2.0662 -2.2869
   17SAPS    C3 2157   1.953   3.719   3.525 -0.0522 -0.5992 -0.0601
   17SAPS    HX 2158   1.849   3.683   3.513 -0.4373  0.0621  1.1473
   17SAPS    HY 2159   1.963   3.790   3.440 -1.0174 -0.1140  0.2228
   17SAPS   O31 2160   1.967   3.797   3.647  0.3141  0.6928 -0.2877
   17SAPS   C31 2161   2.081   3.858   3.660 -0.0384  0.8130  0.2138
   17SAPS   O32 2162   2.168   3.864   3.578 -0.7224  0.3329 -0.0624
   17SAPS   C32 2163   2.097   3.927   3.798  0.4307 -0.1176  0.2444
   17SAPS   H2X 2164   2.000   3.921   3.851  0.5972 -1.4349  0.4170
   17SAPS   H2Y 2165   2.125   4.034   3.786  0.3499 -0.0843  0.3568
   17SAPS   C23 2166   2.235   3.264   3.831 -0.2966  0.1562 -0.1674
   17SAPS   H3R 2167   2.333   3.315   3.827  0.5939 -1.5220 -0.7644
   17SAPS   H3S 2168   2.233   3.184   3.754 -0.2878 -0.8001  0.8044
   17SAPS   C24 2169   2.189   3.197   3.959 -0.2702 -0.0934 -0.1655
   17SAPS   H4R 2170   2.227   3.093   3.967 -0.1570 -0.0039  0.4359
   17SAPS   H4S 2171   2.081   3.179   3.941 -0.7749  1.4793  1.1201
   17SAPS   C25 2172   2.202   3.286   4.078  0.2063 -0.1829 -0.6687
   17SAPS   H5R 2173   2.145   3.379   4.063 -2.3584 -1.7338 -1.1859
   17SAPS   C26 2174   2.241   3.258   4.208 -0.4537  0.2536  0.2994
   17SAPS   H6R 2175   2.228   3.334   4.286 -1.3843  1.2658 -0.8070
   17SAPS   C27 2176   2.285   3.118   4.257 -0.0130  0.6640  0.4176
   17SAPS   H7R 2177   2.378   3.122   4.318  0.1747 -0.5558  0.2329
   17SAPS   H7S 2178   2.312   3.046   4.177 -0.5396 -0.2937  1.0846
   17SAPS   C28 2179   2.176   3.051   4.334 -0.0569  0.2000  0.2557
   17SAPS   H8R 2180   2.113   2.982   4.277 -1.7712  1.0701  1.0264
   17SAPS   C29 2181   2.148   3.079   4.463  0.5636 -0.2522  0.0493
   17SAPS   H9R 2182   2.055   3.040   4.505 -2.1182  3.1069 -2.1915
   17SAPS  C210 2183   2.212   3.179   4.553 -0.3148 -0.0410 -0.1976
   17SAPS  H10R 2184   2.175   3.277   4.515  1.1566 -0.4720 -3.0267
   17SAPS  H10S 2185   2.323   3.186   4.543 -0.5530  1.1388 -3.6218
   17SAPS  C211 2186   2.176   3.162   4.699 -0.7912  0.0060 -0.2757
   17SAPS  H11R 2187   2.210   3.071   4.751  0.2076  0.2474 -0.4783
   17SAPS  C212 2188   2.088   3.244   4.760 -0.0062  0.0854  0.8927
   17SAPS  H12R 2189   2.064   3.222   4.865  0.1056 -1.2266  0.6539
   17SAPS  C213 2190   2.025   3.373   4.712 -0.1018 -0.2127 -0.1420
   17SAPS  H13R 2191   2.091   3.432   4.644  0.5799  0.2097  0.8647
   17SAPS  H13S 2192   2.016   3.439   4.801  1.0306 -1.1705  0.7065
   17SAPS  C214 2193   1.890   3.361   4.646  0.1870 -0.2787 -0.3811
   17SAPS  H14R 2194   1.894   3.368   4.537  0.0698 -0.4844 -0.3990
   17SAPS  C215 2195   1.774   3.354   4.709  0.0293 -0.3963 -0.4160
   17SAPS  H15R 2196   1.685   3.340   4.646 -0.5097  1.2065 -0.0633
   17SAPS  C216 2197   1.746   3.353   4.859  0.2202  0.5851  0.0933
   17SAPS  H16R 2198   1.706   3.451   4.891 -0.0135  0.3887  0.4064
   17SAPS  H16S 2199   1.829   3.332   4.930 -1.1964  0.2629  1.7309
   17SAPS  C217 2200   1.636   3.248   4.888  0.1587 -0.7195 -0.6765
   17SAPS  H17R 2201   1.680   3.148   4.864  0.8177 -0.9616  1.3514
   17SAPS  H17S 2202   1.546   3.261   4.824 -1.4519 -0.8063  1.4760
   17SAPS  C218 2203   1.599   3.246   5.034  0.4270 -0.1030 -0.6760
   17SAPS  H18R 2204   1.558   3.344   5.065  1.2123  0.4278 -1.2720
   17SAPS  H18S 2205   1.691   3.230   5.094  0.2438 -1.3826 -0.6906
   17SAPS  C219 2206   1.490   3.146   5.066  0.4896  0.4616 -0.1071
   17SAPS  H19R 2207   1.413   3.159   4.988  0.1580 -0.1982  0.1026
   17SAPS  H19S 2208   1.452   3.153   5.171  1.1723  1.4687  0.0887
   17SAPS  C220 2209   1.522   2.999   5.048 -0.3185 -0.5991  0.8615
   17SAPS  H20R 2210   1.430   2.937   5.040 -0.6158 -0.0211 -0.6032
   17SAPS  H20S 2211   1.575   2.959   5.136 -0.2543 -0.0239  1.0892
   17SAPS  H20T 2212   1.583   2.972   4.959 -2.4520 -0.2573 -0.8196
   17SAPS   C33 2213   2.216   3.880   3.888  0.3098 -0.0717  0.2218
   17SAPS   H3X 2214   2.212   3.942   3.980  0.5038 -0.0512  0.2160
   17SAPS   H3Y 2215   2.307   3.910   3.832 -0.0973  1.1356  0.1784
   17SAPS   C34 2216   2.205   3.729   3.919 -0.1365 -0.1673  0.4391
   17SAPS   H4X 2217   2.283   3.674   3.863  1.0018  1.4412  0.3648
   17SAPS   H4Y 2218   2.104   3.697   3.887 -0.1569 -0.4745  0.8042
   17SAPS   C35 2219   2.212   3.704   4.068  0.3472  0.8310  0.1244
   17SAPS   H5X 2220   2.285   3.775   4.113  0.3802  1.1522 -0.4229
   17SAPS   H5Y 2221   2.258   3.603   4.073 -0.8933  0.0018 -2.8048
   17SAPS   C36 2222   2.074   3.716   4.141  0.1050 -0.2439 -0.3352
   17SAPS   H6X 2223   1.994   3.655   4.092  0.6427 -0.8229 -0.5093
   17SAPS   H6Y 2224   2.049   3.823   4.127 -0.0509 -0.2867 -0.3933
   17SAPS   C37 2225   2.086   3.668   4.291 -0.1695 -0.0328 -1.0482
   17SAPS   H7X 2226   2.164   3.732   4.338 -3.4523  3.0606  0.6653
   17SAPS   H7Y 2227   2.112   3.560   4.290 -1.3610 -0.3778  0.6961
   17SAPS   C38 2228   1.950   3.682   4.370  0.0589 -0.2310  0.2234
   17SAPS   H8X 2229   1.956   3.613   4.457 -0.4265 -1.2400 -0.5248
   17SAPS   H8Y 2230   1.862   3.652   4.308 -0.8759 -3.4228  2.7816
   17SAPS   C39 2231   1.928   3.827   4.415  0.6781 -0.4542  0.2719
   17SAPS   H9X 2232   1.918   3.892   4.326  2.1693 -0.7538 -0.1456
   17SAPS   H9Y 2233   2.001   3.864   4.491  1.0857  1.3293 -0.9242
   17SAPS  C310 2234   1.800   3.829   4.499  0.2528  0.7146 -0.1438
   17SAPS  H10X 2235   1.719   3.776   4.444 -0.4068 -0.1137  1.5428
   17SAPS  H10Y 2236   1.763   3.933   4.515  0.5280  0.4630  2.5833
   17SAPS  C311 2237   1.811   3.756   4.637 -0.0584  0.3032 -0.6333
   17SAPS  H11X 2238   1.903   3.796   4.685  0.9219 -0.6824 -1.6431
   17SAPS  H11Y 2239   1.806   3.646   4.625  0.8133  0.1408  0.3183
   17SAPS  C312 2240   1.693   3.794   4.733 -0.1514  0.5120  0.3146
   17SAPS  H12X 2241   1.667   3.701   4.789 -1.5240  0.8293  0.2463
   17SAPS  H12Y 2242   1.611   3.837   4.671  2.5296  3.0351 -1.7366
   17SAPS  C313 2243   1.729   3.901   4.841  0.5191 -0.3234  0.5485
   17SAPS  H13X 2244   1.765   3.992   4.788 -0.6699 -0.5500 -0.7073
   17SAPS  H13Y 2245   1.797   3.863   4.920  0.8533 -0.4903  0.1795
   17SAPS  C314 2246   1.602   3.949   4.912  0.1480  0.3792 -0.2485
   17SAPS  H14X 2247   1.545   3.857   4.940  2.1154 -1.4446 -1.9444
   17SAPS  H14Y 2248   1.537   4.009   4.845 -0.6113  0.1987  0.3037
   17SAPS  C315 2249   1.626   4.032   5.037 -0.2918  0.4035 -0.0171
   17SAPS  H15X 2250   1.715   4.001   5.095  0.6715  1.2241 -1.0066
   17SAPS  H15Y 2251   1.532   4.010   5.093 -0.2284  0.4335  0.1005
   17SAPS  C316 2252   1.629   4.185   5.007  0.1261 -0.1397  0.3485
   17SAPS  H16X 2253   1.529   4.207   4.964 -0.0769 -0.0621  0.8562
   17SAPS  H16Y 2254   1.700   4.205   4.924  0.6447  0.6734  0.9687
   17SAPS  C317 2255   1.642   4.277   5.124 -0.0482 -0.0562 -0.0721
   17SAPS  H17X 2256   1.593   4.239   5.215  0.2909  0.0711  0.1677
   17SAPS  H17Y 2257   1.601   4.374   5.088 -1.0188 -0.6858 -0.6907
   17SAPS  C318 2258   1.791   4.286   5.173  0.1639 -0.2869  0.4306
   17SAPS  H18X 2259   1.821   4.348   5.259  0.2256  1.0730 -0.5479
   17SAPS  H18Y 2260   1.851   4.327   5.090  0.9351 -0.9707  0.6345
   17SAPS  H18Z 2261   1.831   4.182   5.178  2.2251  0.4029 -0.7749
   18SAPS     N 2262   6.036   2.446   2.771 -0.1424  1.0633 -0.3900
   18SAPS   HN1 2263   5.969   2.525   2.779  0.4078  1.5507 -0.5152
   18SAPS   HN2 2264   5.978   2.361   2.783  1.3887 -0.3842 -2.4621
   18SAPS   HN3 2265   6.109   2.429   2.843  3.1114 -2.4552 -3.9334
   18SAPS   C12 2266   6.102   2.456   2.642 -0.1914  0.5481 -0.1899
   18SAPS  H12A 2267   6.174   2.376   2.634  1.7251  2.2068 -0.4473
   18SAPS   C13 2268   6.006   2.442   2.524 -0.0185  0.0704 -0.4629
   18SAPS  O13A 2269   5.885   2.433   2.558  0.2324 -1.2768  0.2112
   18SAPS  O13B 2270   6.041   2.447   2.399 -0.0510  0.0387  0.1417
   18SAPS   C11 2271   6.179   2.585   2.629  0.0002 -0.1043 -0.6576
   18SAPS  H11A 2272   6.107   2.670   2.630  0.4183  0.2671  0.8462
   18SAPS  H11B 2273   6.229   2.583   2.530 -1.2709  0.0875 -1.3199
   18SAPS     P 2274   6.375   2.721   2.720  0.0085  0.3578  0.3115
   18SAPS   O13 2275   6.497   2.660   2.661 -0.2297 -0.4381 -0.2492
   18SAPS   O14 2276   6.312   2.829   2.645  0.0802 -0.0068 -0.2626
   18SAPS   O12 2277   6.269   2.598   2.740 -0.0076  0.1021  0.7025
   18SAPS   O11 2278   6.407   2.776   2.867  0.3195  0.1513  0.2877
   18SAPS    C1 2279   6.368   2.707   2.989  0.0060 -0.5555  0.3343
   18SAPS    HA 2280   6.353   2.601   2.960 -1.7372 -0.1563 -0.3516
   18SAPS    HB 2281   6.447   2.713   3.067 -0.9036 -0.4166  1.2746
   18SAPS    C2 2282   6.229   2.763   3.037  0.4435  0.5672 -0.2910
   18SAPS    HS 2283   6.159   2.770   2.951  2.2267  2.0190 -1.7074
   18SAPS   O21 2284   6.254   2.891   3.095 -0.0597  0.4244 -0.5218
   18SAPS   C21 2285   6.200   2.992   3.028  0.3261  1.0027  0.7364
   18SAPS   O22 2286   6.110   2.979   2.947  0.3773  0.0394  0.0728
   18SAPS   C22 2287   6.251   3.127   3.071  0.0853  0.2693  0.0100
   18SAPS   H2R 2288   6.353   3.130   3.028 -0.5638 -2.9060 -2.0505
   18SAPS   H2S 2289   6.199   3.216   3.029  3.0373  3.0623  1.7124
   18SAPS    C3 2290   6.167   2.674   3.150 -0.0322  0.5776  0.2746
   18SAPS    HX 2291   6.250   2.640   3.215  1.5515  2.9779 -0.3610
   18SAPS    HY 2292   6.127   2.587   3.094  0.9981  0.8318 -0.8983
   18SAPS   O31 2293   6.058   2.737   3.226 -0.0017  0.2101 -0.4709
   18SAPS   C31 2294   6.095   2.808   3.330 -0.2543 -0.9344  0.2284
   18SAPS   O32 2295   6.211   2.834   3.358 -0.4206  0.3532 -0.1150
   18SAPS   C32 2296   5.980   2.856   3.418  0.3804  0.2211 -0.6390
   18SAPS   H2X 2297   5.913   2.767   3.427  0.6523  0.1616  1.3978
   18SAPS   H2Y 2298   5.914   2.928   3.365 -0.7155  0.1398  0.5632
   18SAPS   C23 2299   6.271   3.135   3.226  0.0868  0.2108 -0.0189
   18SAPS   H3R 2300   6.348   3.063   3.260 -0.9290 -0.9695 -0.1854
   18SAPS   H3S 2301   6.175   3.125   3.281 -1.4828 -0.8138 -2.7249
   18SAPS   C24 2302   6.341   3.275   3.263 -0.4610  0.1078  0.4063
   18SAPS   H4R 2303   6.426   3.279   3.192 -0.6308 -1.7016  0.0353
   18SAPS   H4S 2304   6.388   3.264   3.363 -1.2749 -0.1672  0.7594
   18SAPS   C25 2305   6.236   3.383   3.254 -0.5068  0.4913 -0.3833
   18SAPS   H5R 2306   6.211   3.413   3.151 -0.0327 -1.9585 -1.2652
   18SAPS   C26 2307   6.185   3.457   3.357  0.5315  0.2756 -0.1722
   18SAPS   H6R 2308   6.098   3.521   3.339  0.0477 -0.4588 -0.4901
   18SAPS   C27 2309   6.224   3.453   3.504  0.3346  0.3443  0.4446
   18SAPS   H7R 2310   6.272   3.552   3.520  1.7491 -0.2262 -0.0984
   18SAPS   H7S 2311   6.307   3.389   3.540  0.4718  0.6542  0.6790
   18SAPS   C28 2312   6.107   3.425   3.599  0.4390  0.6427  0.3442
   18SAPS   H8R 2313   6.010   3.461   3.562 -0.0988 -2.3544 -1.4645
   18SAPS   C29 2314   6.104   3.358   3.716  0.3211 -0.1960  0.5014
   18SAPS   H9R 2315   6.012   3.342   3.774 -1.3041  1.1045 -1.5744
   18SAPS  C210 2316   6.227   3.305   3.780  0.3618 -0.0068  0.0745
   18SAPS  H10R 2317   6.288   3.238   3.715  1.5046  0.2520  0.8601
   18SAPS  H10S 2318   6.178   3.236   3.852 -0.4375 -0.4063 -0.8292
   18SAPS  C211 2319   6.327   3.396   3.844  0.5734  0.0404  0.1488
   18SAPS  H11R 2320   6.369   3.472   3.776 -0.3112  0.5996  0.2024
   18SAPS  C212 2321   6.360   3.401   3.973 -0.4182 -0.7201 -0.1838
   18SAPS  H12R 2322   6.438   3.475   3.995 -0.6995 -0.4924  0.0583
   18SAPS  C213 2323   6.305   3.322   4.088  0.8543  0.1417 -0.8264
   18SAPS  H13R 2324   6.232   3.243   4.062 -1.3848  1.2549  1.5211
   18SAPS  H13S 2325   6.240   3.392   4.146  0.3604 -0.1717 -0.9926
   18SAPS  C214 2326   6.401   3.269   4.195  0.1539  0.9130 -0.5935
   18SAPS  H14R 2327   6.506   3.292   4.172  0.5209  0.0241  0.1597
   18SAPS  C215 2328   6.364   3.164   4.276 -0.2993  1.0282 -0.9224
   18SAPS  H15R 2329   6.436   3.117   4.344 -0.8878  0.5131 -0.6539
   18SAPS  C216 2330   6.228   3.103   4.297  0.0294 -0.1675  0.4024
   18SAPS  H16R 2331   6.245   2.996   4.274 -0.8338 -0.3712  0.6488
   18SAPS  H16S 2332   6.153   3.144   4.225 -0.1784 -2.4302 -0.7604
   18SAPS  C217 2333   6.163   3.110   4.431 -0.0942  0.1728 -0.6469
   18SAPS  H17R 2334   6.072   3.048   4.439 -0.6147  0.8780 -0.9757
   18SAPS  H17S 2335   6.141   3.217   4.452  0.8483  0.4223 -0.8621
   18SAPS  C218 2336   6.251   3.047   4.549 -0.9048  0.3615  0.5689
   18SAPS  H18R 2337   6.350   3.097   4.551 -0.6038  0.1070 -2.6910
   18SAPS  H18S 2338   6.269   2.942   4.519 -2.5247 -0.4128  2.1284
   18SAPS  C219 2339   6.186   3.039   4.690  0.3338 -0.3735 -0.1077
   18SAPS  H19R 2340   6.093   2.981   4.679  1.1104 -1.6758  0.0499
   18SAPS  H19S 2341   6.161   3.147   4.696  1.7907  0.0285 -0.8010
   18SAPS  C220 2342   6.274   2.983   4.801 -0.0219  0.4807 -0.2349
   18SAPS  H20R 2343   6.367   3.044   4.807  1.1248 -1.1302 -1.0714
   18SAPS  H20S 2344   6.300   2.877   4.781  2.2231  0.6019  1.5572
   18SAPS  H20T 2345   6.206   2.988   4.889 -1.3084 -1.7027 -1.0266
   18SAPS   C33 2346   6.024   2.898   3.555 -0.3554  0.7532 -0.1101
   18SAPS   H3X 2347   6.085   2.990   3.541  0.4125  0.8224  3.0233
   18SAPS   H3Y 2348   6.091   2.826   3.606 -1.3387 -0.0633  0.0597
   18SAPS   C34 2349   5.916   2.929   3.659 -0.0410 -0.7759  0.2047
   18SAPS   H4X 2350   5.853   2.838   3.665 -2.0619  0.4097 -1.6064
   18SAPS   H4Y 2351   5.851   3.011   3.622 -0.4150 -0.8510  0.6875
   18SAPS   C35 2352   5.967   2.984   3.788  0.3646 -0.1468 -0.4648
   18SAPS   H5X 2353   6.028   3.075   3.772 -1.0798  0.7576 -1.0622
   18SAPS   H5Y 2354   6.047   2.918   3.827  1.7028  1.1290 -0.9843
   18SAPS   C36 2355   5.843   3.010   3.880  0.8980 -0.1448  0.4242
   18SAPS   H6X 2356   5.794   2.913   3.900 -1.6153  1.0558  0.4977
   18SAPS   H6Y 2357   5.768   3.083   3.842  2.4068  2.2273  1.7211
   18SAPS   C37 2358   5.877   3.060   4.023  0.3605 -0.2397 -0.0325
   18SAPS   H7X 2359   5.908   3.167   4.029 -0.1462 -0.1057  0.2237
   18SAPS   H7Y 2360   5.962   3.003   4.066  0.9728 -0.3487 -1.3394
   18SAPS   C38 2361   5.769   3.050   4.135 -0.6401  0.0209  0.3427
   18SAPS   H8X 2362   5.736   2.946   4.157 -0.0473 -0.6805 -1.8303
   18SAPS   H8Y 2363   5.676   3.101   4.103 -1.6758 -3.2360 -2.3492
   18SAPS   C39 2364   5.820   3.100   4.272  0.5536 -0.0197  0.0821
   18SAPS   H9X 2365   5.865   3.201   4.262 -0.8393  0.9191  2.3709
   18SAPS   H9Y 2366   5.895   3.025   4.304  0.4151  0.2548  1.0832
   18SAPS  C310 2367   5.709   3.113   4.373  0.0185  0.1574  0.5144
   18SAPS  H10X 2368   5.644   3.023   4.369 -0.8099  0.5911  2.6521
   18SAPS  H10Y 2369   5.638   3.198   4.361  2.7895  2.3432 -2.1088
   18SAPS  C311 2370   5.768   3.116   4.514  0.4295 -0.0797 -0.0366
   18SAPS  H11X 2371   5.846   3.038   4.531  0.1679 -0.3456 -0.0467
   18SAPS  H11Y 2372   5.691   3.080   4.586 -0.5278  1.1908 -0.4126
   18SAPS  C312 2373   5.828   3.251   4.551  0.0545  0.9668  0.4631
   18SAPS  H12X 2374   5.771   3.339   4.513 -2.7831 -1.3363 -1.0637
   18SAPS  H12Y 2375   5.930   3.252   4.507 -0.7607 -0.9070 -1.6998
   18SAPS  C313 2376   5.861   3.262   4.697  0.8168  0.3175  0.1851
   18SAPS  H13X 2377   5.899   3.166   4.738 -0.6685 -0.3199  0.1376
   18SAPS  H13Y 2378   5.767   3.270   4.756  0.5666  0.4787 -0.2262
   18SAPS  C314 2379   5.964   3.379   4.726  0.5779 -0.0939 -0.3121
   18SAPS  H14X 2380   5.915   3.473   4.694 -1.5260 -0.4910  1.4969
   18SAPS  H14Y 2381   6.057   3.362   4.667 -0.0910  0.7872 -1.6871
   18SAPS  C315 2382   5.985   3.400   4.877  0.6784 -0.2414  0.0334
   18SAPS  H15X 2383   6.046   3.316   4.917 -0.4266  0.2046  2.9263
   18SAPS  H15Y 2384   5.898   3.418   4.943  0.9142 -1.2769  0.6512
   18SAPS  C316 2385   6.075   3.524   4.911 -0.3704  0.0622 -0.1496
   18SAPS  H16X 2386   6.067   3.522   5.022  2.1580 -0.7640  0.0740
   18SAPS  H16Y 2387   6.044   3.615   4.855  2.3090  1.0936 -0.0722
   18SAPS  C317 2388   6.228   3.499   4.893 -0.1810  0.2500 -0.7287
   18SAPS  H17X 2389   6.244   3.489   4.783 -2.1126  0.7173 -1.0890
   18SAPS  H17Y 2390   6.281   3.412   4.938  1.2434  1.0205 -0.8340
   18SAPS  C318 2391   6.305   3.630   4.933  0.1402  0.1462  0.2113
   18SAPS  H18X 2392   6.401   3.639   4.879  0.2771 -1.4358  0.1736
   18SAPS  H18Y 2393   6.341   3.636   5.038  2.0466 -0.6777 -0.3572
   18SAPS  H18Z 2394   6.246   3.722   4.912 -0.7688 -0.8198 -1.5962
   19SAPS     N 2395   0.234   0.941   2.403  0.1497 -0.2335  0.3923
   19SAPS   HN1 2396   0.134   0.953   2.375  0.1300 -2.7264 -0.8893
   19SAPS   HN2 2397   0.276   1.035   2.416  2.8325 -1.0037 -1.7950
   19SAPS   HN3 2398   0.283   0.890   2.327  0.7048 -1.0826  1.3020
   19SAPS   C12 2399   0.244   0.858   2.517 -0.2888  0.1294  0.4206
   19SAPS  H12A 2400   0.158   0.875   2.581  2.7013  1.3659  4.5294
   19SAPS   C13 2401   0.261   0.707   2.478  0.5500 -0.5864 -0.2816
   19SAPS  O13A 2402   0.290   0.669   2.360  0.1571  0.4370 -0.2434
   19SAPS  O13B 2403   0.252   0.626   2.574  0.2955 -0.7467  0.2698
   19SAPS   C11 2404   0.365   0.897   2.609 -0.1605 -0.0287 -0.5404
   19SAPS  H11A 2405   0.461   0.865   2.563  0.7462  1.3984  0.3007
   19SAPS  H11B 2406   0.347   0.843   2.705  1.2139  0.5948  0.0920
   19SAPS     P 2407   0.482   1.108   2.715 -0.3769 -0.1336  0.1155
   19SAPS   O13 2408   0.604   1.096   2.628  0.2219 -0.3867 -0.2604
   19SAPS   O14 2409   0.431   1.246   2.735  0.1509  0.1387 -0.0255
   19SAPS   O12 2410   0.368   1.035   2.644  0.0123 -0.0432  0.1255
   19SAPS   O11 2411   0.497   1.017   2.846  0.4754 -0.0725 -0.4166
   19SAPS    C1 2412   0.392   1.007   2.944 -0.0327 -0.1052 -0.4678
   19SAPS    HA 2413   0.313   1.084   2.931 -0.0887 -0.0435  0.1788
   19SAPS    HB 2414   0.348   0.905   2.944  0.6340 -0.4319  0.9915
   19SAPS    C2 2415   0.449   1.032   3.096 -0.1023 -0.4703  0.4834
   19SAPS    HS 2416   0.361   1.041   3.164  0.9148 -0.9089  1.9111
   19SAPS   O21 2417   0.536   1.142   3.100  0.0062 -0.5301  0.2782
   19SAPS   C21 2418   0.478   1.261   3.106  0.9191 -0.2066  0.2864
   19SAPS   O22 2419   0.355   1.273   3.089 -0.1312 -0.1164 -0.2060
   19SAPS   C22 2420   0.573   1.367   3.144 -0.0584 -0.1129  0.4350
   19SAPS   H2R 2421   0.675   1.324   3.148 -0.1118 -0.1627  1.3085
   19SAPS   H2S 2422   0.581   1.451   3.071  1.8860 -1.2850 -0.7654
   19SAPS    C3 2423   0.521   0.902   3.145  0.1922 -0.0272  0.5586
   19SAPS    HX 2424   0.599   0.883   3.068 -0.2977  0.5463 -0.0885
   19SAPS    HY 2425   0.450   0.817   3.132 -0.7280  0.8088  0.0172
   19SAPS   O31 2426   0.572   0.916   3.280  0.2218 -0.0528  0.0171
   19SAPS   C31 2427   0.615   0.812   3.334 -0.2382 -0.6146  0.7312
   19SAPS   O32 2428   0.627   0.703   3.279  0.1504  0.2213 -0.0608
   19SAPS   C32 2429   0.670   0.847   3.479 -0.2974 -0.2353  0.5328
   19SAPS   H2X 2430   0.666   0.956   3.499  2.8763  0.2065 -0.7427
   19SAPS   H2Y 2431   0.779   0.829   3.475 -0.5308 -1.6455 -0.2419
   19SAPS   C23 2432   0.528   1.432   3.277 -0.0021  0.7816 -0.6084
   19SAPS   H3R 2433   0.419   1.453   3.272  0.2526  2.2594 -0.4601
   19SAPS   H3S 2434   0.584   1.527   3.293  1.1170 -0.1143  1.0119
   19SAPS   C24 2435   0.554   1.341   3.392 -0.1514 -0.2702 -0.4942
   19SAPS   H4R 2436   0.625   1.262   3.359 -2.2595 -2.1146 -0.9040
   19SAPS   H4S 2437   0.455   1.293   3.412 -0.1782  0.6751  1.9730
   19SAPS   C25 2438   0.601   1.407   3.515  0.0019 -0.0275 -0.6935
   19SAPS   H5R 2439   0.690   1.471   3.521 -0.0221 -0.1309  1.3394
   19SAPS   C26 2440   0.547   1.405   3.633 -0.6612  0.4371 -0.2210
   19SAPS   H6R 2441   0.575   1.474   3.714 -3.7525  0.3692  1.0724
   19SAPS   C27 2442   0.430   1.323   3.674  0.0425 -0.7655 -0.1622
   19SAPS   H7R 2443   0.359   1.331   3.588 -1.4563  3.5418  1.2410
   19SAPS   H7S 2444   0.360   1.370   3.746  1.1185 -0.1792  0.5152
   19SAPS   C28 2445   0.465   1.184   3.735 -0.4903  0.0085  1.1373
   19SAPS   H8R 2446   0.505   1.105   3.669 -0.4203 -0.2031  1.4305
   19SAPS   C29 2447   0.453   1.150   3.862 -0.1286 -0.7029  0.8046
   19SAPS   H9R 2448   0.499   1.051   3.879  0.0026 -0.5725  1.2091
   19SAPS  C210 2449   0.419   1.229   3.989  0.5414  0.3325  0.2512
   19SAPS  H10R 2450   0.311   1.202   3.995  0.7551 -1.1388 -1.4749
   19SAPS  H10S 2451   0.423   1.339   3.975 -1.0386  0.5787  1.4905
   19SAPS  C211 2452   0.498   1.182   4.110 -0.1527  0.8522 -0.7568
   19SAPS  H11R 2453   0.589   1.241   4.131 -0.1778  0.3026  1.0936
   19SAPS  C212 2454   0.468   1.090   4.202 -0.0175  0.1662  0.1542
   19SAPS  H12R 2455   0.538   1.074   4.285 -2.0926 -2.0375  1.6017
   19SAPS  C213 2456   0.348   0.999   4.210  0.6298 -0.0885 -0.7710
   19SAPS  H13R 2457   0.372   0.891   4.200  1.3378 -0.0740  0.5140
   19SAPS  H13S 2458   0.273   1.022   4.131 -0.8132 -0.3226  0.4849
   19SAPS  C214 2459   0.284   1.022   4.351 -0.3752 -0.3147  0.0064
   19SAPS  H14R 2460   0.225   1.114   4.363 -2.7853 -1.9644  1.5506
   19SAPS  C215 2461   0.300   0.950   4.459  0.5265 -0.1565  0.0902
   19SAPS  H15R 2462   0.252   0.986   4.551  1.0793 -3.0330  1.6348
   19SAPS  C216 2463   0.378   0.822   4.470 -0.1610  0.3322  0.6301
   19SAPS  H16R 2464   0.438   0.826   4.563  2.7731  2.3466 -1.1667
   19SAPS  H16S 2465   0.459   0.819   4.394  0.3121  1.0587  1.0858
   19SAPS  C217 2466   0.310   0.680   4.452  0.0540  0.0262  0.2493
   19SAPS  H17R 2467   0.381   0.596   4.437 -0.7630 -0.4048 -1.4892
   19SAPS  H17S 2468   0.256   0.676   4.356  2.9036 -0.0317 -1.4683
   19SAPS  C218 2469   0.216   0.644   4.573 -0.1566 -0.0968 -0.9382
   19SAPS  H18R 2470   0.119   0.699   4.567  0.4310  1.7115  3.0614
   19SAPS  H18S 2471   0.267   0.678   4.665 -0.8755 -2.2273  0.3104
   19SAPS  C219 2472   0.179   0.491   4.588 -0.2025  0.3155 -0.2429
   19SAPS  H19R 2473   0.268   0.427   4.568 -2.8143 -3.7727 -0.0467
   19SAPS  H19S 2474   0.110   0.461   4.506  0.0002 -0.2495 -0.2126
   19SAPS  C220 2475   0.108   0.469   4.724  0.1081 -0.1709 -0.0565
   19SAPS  H20R 2476   0.035   0.548   4.751  1.2224  0.5035  1.1313
   19SAPS  H20S 2477   0.181   0.474   4.808  0.0731 -1.8162  0.1046
   19SAPS  H20T 2478   0.049   0.375   4.724  0.3340 -0.3621  1.8974
   19SAPS   C33 2479   0.606   0.767   3.586 -0.2005  0.4766 -1.0020
   19SAPS   H3X 2480   0.631   0.660   3.570 -0.4935  0.6471 -2.7806
   19SAPS   H3Y 2481   0.496   0.776   3.574 -0.2643  0.0167 -0.7495
   19SAPS   C34 2482   0.652   0.802   3.726 -0.2028  0.5279  0.1070
   19SAPS   H4X 2483   0.634   0.912   3.729  2.0102  1.0063 -1.3725
   19SAPS   H4Y 2484   0.758   0.771   3.728 -0.6179 -1.2743 -1.7836
   19SAPS   C35 2485   0.557   0.729   3.831  0.3059  0.2278  0.1207
   19SAPS   H5X 2486   0.452   0.701   3.805 -0.3138  0.6088  2.0444
   19SAPS   H5Y 2487   0.560   0.792   3.922  1.3599 -0.2453  0.4271
   19SAPS   C36 2488   0.632   0.591   3.858  0.4658  0.1386 -0.3066
   19SAPS   H6X 2489   0.741   0.611   3.865  0.3478  0.1960  1.9332
   19SAPS   H6Y 2490   0.620   0.527   3.768 -2.4940  1.9576 -1.3575
   19SAPS   C37 2491   0.569   0.516   3.979 -0.4833 -0.3037 -0.0171
   19SAPS   H7X 2492   0.604   0.411   3.981 -1.1264 -0.6442 -2.7634
   19SAPS   H7Y 2493   0.459   0.508   3.966 -0.7496 -0.7992  2.1222
   19SAPS   C38 2494   0.599   0.582   4.112 -0.3538 -0.2747 -0.0965
   19SAPS   H8X 2495   0.544   0.678   4.119  0.4409  0.1789  0.0390
   19SAPS   H8Y 2496   0.709   0.599   4.107 -0.2577 -0.9577 -0.4043
   19SAPS   C39 2497   0.561   0.494   4.237 -0.0994 -0.0371  0.6529
   19SAPS   H9X 2498   0.450   0.483   4.238 -0.1129 -1.4658 -2.4120
   19SAPS   H9Y 2499   0.595   0.565   4.315  2.3184  0.4170 -0.7143
   19SAPS  C310 2500   0.624   0.358   4.246 -0.1716 -0.4263 -0.3384
   19SAPS  H10X 2501   0.733   0.376   4.230 -0.5549  1.6558 -0.9160
   19SAPS  H10Y 2502   0.581   0.294   4.166 -0.6269 -2.4118  1.3994
   19SAPS  C311 2503   0.615   0.287   4.382  0.9476 -0.6391  0.4023
   19SAPS  H11X 2504   0.506   0.275   4.399  0.5525 -0.2534 -1.5724
   19SAPS  H11Y 2505   0.651   0.342   4.472  0.1694 -0.0991  0.3955
   19SAPS  C312 2506   0.666   0.148   4.388  0.1939 -0.4296 -0.5009
   19SAPS  H12X 2507   0.769   0.153   4.345  0.6257 -0.1351  0.5481
   19SAPS  H12Y 2508   0.601   0.075   4.336 -3.6313  1.8768  0.6814
   19SAPS  C313 2509   0.679   0.097   4.542  0.5690 -0.2577  1.0489
   19SAPS  H13X 2510   0.683  -0.012   4.522 -0.8023 -0.2301  0.5548
   19SAPS  H13Y 2511   0.588   0.116   4.603 -2.0021 -0.3865 -2.4691
   19SAPS  C314 2512   0.794   0.153   4.615 -0.2551  0.4800 -0.1236
   19SAPS  H14X 2513   0.805   0.263   4.607  0.9793  0.6841  2.8777
   19SAPS  H14Y 2514   0.886   0.104   4.576 -0.3465 -1.7293  2.1526
   19SAPS  C315 2515   0.803   0.127   4.766 -0.0823 -0.5172  0.8003
   19SAPS  H15X 2516   0.724   0.186   4.816 -0.5566 -0.2011 -0.2896
   19SAPS  H15Y 2517   0.892   0.180   4.805 -0.4465  1.5950 -1.0432
   19SAPS  C316 2518   0.797  -0.021   4.807 -0.0716 -0.5391  0.1588
   19SAPS  H16X 2519   0.882  -0.084   4.775 -0.4557 -0.8622 -0.2443
   19SAPS  H16Y 2520   0.703  -0.073   4.778 -1.9133  2.3463  0.5586
   19SAPS  C317 2521   0.807  -0.014   4.968  0.0696  0.1109  0.7279
   19SAPS  H17X 2522   0.902   0.034   4.999 -0.3600 -0.9389  4.0046
   19SAPS  H17Y 2523   0.811  -0.119   5.002 -2.7242 -0.0666  0.7563
   19SAPS  C318 2524   0.695   0.052   5.045 -0.5989  0.6267  0.3995
   19SAPS  H18X 2525   0.717   0.021   5.150  0.2413 -1.0713 -0.2611
   19SAPS  H18Y 2526   0.593   0.013   5.023 -0.2099  0.2475 -0.7471
   19SAPS  H18Z 2527   0.699   0.163   5.040 -0.2799  0.6762  1.3780
   20SAPS     N 2528   0.265   1.428   2.639  0.0504  0.4560  0.1459
   20SAPS   HN1 2529   0.334   1.353   2.662  0.8888  1.1122 -0.1757
   20SAPS   HN2 2530   0.224   1.452   2.731  3.1594  0.5058  1.6597
   20SAPS   HN3 2531   0.201   1.387   2.568 -0.1899  1.3973 -0.1874
   20SAPS   C12 2532   0.337   1.533   2.570  0.0301 -0.1202  0.5353
   20SAPS  H12A 2533   0.439   1.532   2.607  0.8945  0.2938 -1.7089
   20SAPS   C13 2534   0.338   1.528   2.418 -0.0615  0.2281  0.4428
   20SAPS  O13A 2535   0.295   1.423   2.363  0.4867 -0.2654 -0.3090
   20SAPS  O13B 2536   0.387   1.627   2.357  0.5301 -0.0781 -0.6384
   20SAPS   C11 2537   0.270   1.672   2.616 -0.2569  0.1633 -0.7740
   20SAPS  H11A 2538   0.170   1.668   2.569 -1.4637 -0.0945  1.6575
   20SAPS  H11B 2539   0.323   1.759   2.573  1.4977 -0.7787 -0.6337
   20SAPS     P 2540   0.365   1.744   2.852  0.0856 -0.0047  0.5168
   20SAPS   O13 2541   0.480   1.650   2.839  0.4687 -0.4284 -0.1786
   20SAPS   O14 2542   0.394   1.884   2.810  0.1965 -0.5749 -0.1793
   20SAPS   O12 2543   0.255   1.685   2.755 -0.0313  0.0228  0.0758
   20SAPS   O11 2544   0.311   1.741   2.997 -0.0746  0.1396 -0.5807
   20SAPS    C1 2545   0.391   1.715   3.114 -0.7825  0.0335  0.0742
   20SAPS    HA 2546   0.324   1.654   3.178 -0.9576  0.3084  0.1514
   20SAPS    HB 2547   0.470   1.640   3.092 -1.0217  0.2605 -1.7873
   20SAPS    C2 2548   0.440   1.834   3.184  0.1007 -0.0724 -0.4364
   20SAPS    HS 2549   0.520   1.867   3.114  0.5812 -0.2281  0.0296
   20SAPS   O21 2550   0.490   1.798   3.311 -0.0456 -0.2201 -0.0701
   20SAPS   C21 2551   0.595   1.866   3.366 -0.1526 -0.3722  0.4269
   20SAPS   O22 2552   0.653   1.959   3.306 -0.4019  0.1688  0.0285
   20SAPS   C22 2553   0.631   1.806   3.507  0.4183 -0.1065  0.2397
   20SAPS   H2R 2554   0.581   1.874   3.579  0.6050  0.3131 -0.0157
   20SAPS   H2S 2555   0.595   1.701   3.506  0.8156 -0.2552 -1.5195
   20SAPS    C3 2556   0.326   1.932   3.200  0.5595  0.1418  0.5924
   20SAPS    HX 2557   0.268   1.870   3.272  1.6649 -0.7941  0.7154
   20SAPS    HY 2558   0.273   1.955   3.106  0.8851 -2.0535 -0.1839
   20SAPS   O31 2559   0.365   2.050   3.272 -0.2250 -0.9360  0.0971
   20SAPS   C31 2560   0.447   2.134   3.210  0.7327  0.8631  0.0402
   20SAPS   O32 2561   0.465   2.131   3.091 -0.2203  0.1975 -0.2710
   20SAPS   C32 2562   0.493   2.231   3.317 -1.0851  0.2411  0.1089
   20SAPS   H2X 2563   0.585   2.282   3.280 -0.9058 -0.7451 -0.8567
   20SAPS   H2Y 2564   0.506   2.175   3.411  1.1033  1.5670  0.6539
   20SAPS   C23 2565   0.784   1.818   3.535 -0.2215  0.1099  0.4717
   20SAPS   H3R 2566   0.818   1.924   3.531 -0.4243  0.1811 -4.1588
   20SAPS   H3S 2567   0.835   1.767   3.451 -2.1089 -1.4770  0.2108
   20SAPS   C24 2568   0.827   1.761   3.677  0.0203  0.7091  0.8308
   20SAPS   H4R 2569   0.936   1.784   3.683  0.4540 -0.6725 -0.9910
   20SAPS   H4S 2570   0.809   1.652   3.672 -0.4411  0.8001  0.5281
   20SAPS   C25 2571   0.756   1.836   3.793 -0.2828  0.3203  0.0796
   20SAPS   H5R 2572   0.735   1.942   3.772 -1.0964  0.3935  1.1599
   20SAPS   C26 2573   0.701   1.786   3.905 -0.6879 -0.6029  0.4929
   20SAPS   H6R 2574   0.652   1.860   3.969 -1.2293  0.0790 -0.6680
   20SAPS   C27 2575   0.708   1.645   3.960  0.2864  0.2870 -0.7259
   20SAPS   H7R 2576   0.801   1.640   4.021  0.6920  1.1604 -1.2496
   20SAPS   H7S 2577   0.712   1.575   3.874  1.0213  0.6012 -0.9576
   20SAPS   C28 2578   0.582   1.612   4.040  0.1608  0.1502 -0.0712
   20SAPS   H8R 2579   0.490   1.626   3.980  0.9854  0.9401 -1.2124
   20SAPS   C29 2580   0.578   1.558   4.165 -0.3066 -0.0072 -0.2448
   20SAPS   H9R 2581   0.484   1.519   4.207 -0.9682 -0.1711 -1.8020
   20SAPS  C210 2582   0.703   1.527   4.246 -0.0976  0.6038  0.5523
   20SAPS  H10R 2583   0.790   1.492   4.187  0.1188  1.9076  0.0650
   20SAPS  H10S 2584   0.678   1.444   4.315 -1.8329 -0.8194 -1.6559
   20SAPS  C211 2585   0.737   1.649   4.329  0.3182  0.6131  0.3100
   20SAPS  H11R 2586   0.649   1.704   4.368  0.2124  1.5816 -1.2291
   20SAPS  C212 2587   0.860   1.673   4.380  0.2818 -0.6546 -0.8863
   20SAPS  H12R 2588   0.879   1.760   4.444 -1.5315  0.1643 -1.3866
   20SAPS  C213 2589   0.978   1.580   4.379  0.3266  0.0642  0.1359
   20SAPS  H13R 2590   1.047   1.601   4.294  0.4142  2.3176  0.7242
   20SAPS  H13S 2591   0.942   1.475   4.365  0.5663  0.1844 -1.5798
   20SAPS  C214 2592   1.076   1.582   4.496 -0.0807 -0.2951 -0.2191
   20SAPS  H14R 2593   1.176   1.621   4.470 -0.8527  1.6451 -0.4501
   20SAPS  C215 2594   1.050   1.549   4.626  0.8226  1.0115  0.3162
   20SAPS  H15R 2595   1.127   1.565   4.703  0.5974  2.0821  0.3412
   20SAPS  C216 2596   0.920   1.483   4.676 -0.0035  0.7168 -0.2416
   20SAPS  H16R 2597   0.949   1.381   4.709  1.8097  1.5512  0.8580
   20SAPS  H16S 2598   0.836   1.486   4.603 -0.8126  1.3016  0.6936
   20SAPS  C217 2599   0.853   1.557   4.795  0.7058  0.1012 -0.7351
   20SAPS  H17R 2600   0.859   1.667   4.792  0.0603  0.1306 -1.2055
   20SAPS  H17S 2601   0.909   1.541   4.890 -0.8270  1.5174  0.4593
   20SAPS  C218 2602   0.707   1.524   4.824 -0.0882 -0.1183 -0.4688
   20SAPS  H18R 2603   0.699   1.414   4.806  0.6818 -0.3506  0.5080
   20SAPS  H18S 2604   0.651   1.565   4.737  0.7936  2.1436 -0.0376
   20SAPS  C219 2605   0.640   1.546   4.963  1.1300 -0.1158 -0.1374
   20SAPS  H19R 2606   0.548   1.485   4.973 -0.8750  2.4003 -2.0456
   20SAPS  H19S 2607   0.616   1.654   4.970 -1.5383 -0.6997  1.0528
   20SAPS  C220 2608   0.731   1.516   5.085  0.2193 -0.9867  0.6747
   20SAPS  H20R 2609   0.667   1.524   5.175  0.7906  2.8186  0.8991
   20SAPS  H20S 2610   0.819   1.583   5.097  0.5517 -0.5677 -2.9694
   20SAPS  H20T 2611   0.771   1.413   5.082 -0.4825 -1.2740  0.9345
   20SAPS   C33 2612   0.387   2.348   3.328 -0.3989  0.3131 -0.1437
   20SAPS   H3X 2613   0.289   2.301   3.348 -0.2384 -0.0479 -0.2113
   20SAPS   H3Y 2614   0.375   2.394   3.227 -1.9312 -3.4308 -1.8704
   20SAPS   C34 2615   0.432   2.449   3.435  0.6546  0.0791 -0.1693
   20SAPS   H4X 2616   0.355   2.530   3.432 -2.0729 -2.3881 -2.0617
   20SAPS   H4Y 2617   0.527   2.498   3.403  0.3701  0.6857 -0.1068
   20SAPS   C35 2618   0.455   2.410   3.580  0.3570  0.7918 -0.1126
   20SAPS   H5X 2619   0.470   2.506   3.634  0.1580  1.5723 -1.3836
   20SAPS   H5Y 2620   0.545   2.345   3.578  1.0734  1.7757 -1.2426
   20SAPS   C36 2621   0.331   2.334   3.632  0.0721  0.0897 -0.5162
   20SAPS   H6X 2622   0.347   2.240   3.575 -2.1330 -0.3187 -0.5574
   20SAPS   H6Y 2623   0.237   2.375   3.591  0.2303 -0.3961 -1.3769
   20SAPS   C37 2624   0.335   2.307   3.788  0.1677  0.6085 -0.0129
   20SAPS   H7X 2625   0.435   2.275   3.823 -0.8064 -0.4297  2.0265
   20SAPS   H7Y 2626   0.266   2.220   3.793  3.1564 -2.0075 -1.0886
   20SAPS   C38 2627   0.284   2.419   3.881  0.3158 -0.0110  0.1095
   20SAPS   H8X 2628   0.176   2.431   3.861  0.3287  0.6661  0.4435
   20SAPS   H8Y 2629   0.338   2.512   3.854 -0.1286 -0.5541 -2.9978
   20SAPS   C39 2630   0.300   2.373   4.022 -0.5435  0.8483 -0.1571
   20SAPS   H9X 2631   0.406   2.348   4.049 -1.1490  1.0565  2.7764
   20SAPS   H9Y 2632   0.231   2.286   4.029 -0.0685  0.1879 -2.7163
   20SAPS  C310 2633   0.272   2.490   4.121  0.3090  0.0068 -0.0233
   20SAPS  H10X 2634   0.176   2.540   4.098 -0.4508 -2.5833 -3.2840
   20SAPS  H10Y 2635   0.347   2.570   4.105 -0.2031  0.3600 -0.6929
   20SAPS  C311 2636   0.255   2.448   4.260 -0.0340  0.5252 -0.7012
   20SAPS  H11X 2637   0.359   2.446   4.299  0.0615  0.1876 -0.9659
   20SAPS  H11Y 2638   0.216   2.345   4.271  0.0048  0.6383  0.7295
   20SAPS  C312 2639   0.175   2.539   4.343 -0.6146 -0.4660  0.4851
   20SAPS  H12X 2640   0.070   2.555   4.309 -0.2685  0.2499 -0.2749
   20SAPS  H12Y 2641   0.224   2.638   4.354 -2.1267  0.1720  1.9513
   20SAPS  C313 2642   0.170   2.496   4.489  0.1534  0.5463 -0.3501
   20SAPS  H13X 2643   0.153   2.585   4.554  0.5924 -1.3872  2.6263
   20SAPS  H13Y 2644   0.269   2.452   4.513 -0.8284 -1.6337  0.0042
   20SAPS  C314 2645   0.057   2.398   4.531  0.0651  0.5437 -0.1422
   20SAPS  H14X 2646  -0.041   2.407   4.479 -0.7523 -1.9644  0.8263
   20SAPS  H14Y 2647   0.042   2.403   4.640  0.8302  1.8478 -0.0842
   20SAPS  C315 2648   0.086   2.248   4.516  0.9626 -0.3666 -0.4628
   20SAPS  H15X 2649   0.190   2.217   4.541  0.1006 -2.0289  1.3423
   20SAPS  H15Y 2650   0.065   2.210   4.414  1.8635  1.6180 -1.4352
   20SAPS  C316 2651   0.001   2.149   4.604 -0.6892  0.6309  0.3069
   20SAPS  H16X 2652  -0.101   2.186   4.579 -0.7494 -1.2450 -2.7012
   20SAPS  H16Y 2653   0.009   2.169   4.714 -1.7832  1.5042  0.2463
   20SAPS  C317 2654   0.022   1.996   4.561  0.2296 -0.0712  0.2563
   20SAPS  H17X 2655   0.118   1.951   4.594 -0.0027  1.1793  2.8812
   20SAPS  H17Y 2656   0.015   1.979   4.451 -1.2244  0.6435  0.2159
   20SAPS  C318 2657  -0.083   1.913   4.617  0.7474  0.3647 -0.0718
   20SAPS  H18X 2658  -0.182   1.935   4.572  0.1516 -2.8709 -0.5227
   20SAPS  H18Y 2659  -0.094   1.946   4.723  1.7601  2.9477 -0.6775
   20SAPS  H18Z 2660  -0.056   1.806   4.609 -0.7732 -0.0526  0.1870
   21CHL1    C3 2661   6.503   5.143   6.323  0.0162 -0.4411  0.4541
   21CHL1    H3 2662   6.553   5.045   6.313  2.1632  0.6399  0.1332
   21CHL1    O3 2663   6.483   5.169   6.457 -0.1255  0.1860  0.0486
   21CHL1   H3' 2664   6.446   5.258   6.458 -1.7511 -0.4540  0.4869
   21CHL1    C4 2665   6.607   5.241   6.269  0.1871  0.0503 -0.2880
   21CHL1   H4A 2666   6.581   5.346   6.297  1.2675  0.4216 -0.6314
   21CHL1   H4B 2667   6.701   5.226   6.326 -0.4910 -0.2189  0.7882
   21CHL1    C5 2668   6.642   5.229   6.122 -0.5534 -0.4341 -0.1415
   21CHL1    C6 2669   6.766   5.222   6.067 -0.0847 -0.0897  0.0910
   21CHL1    H6 2670   6.853   5.207   6.133  0.1930  0.6494 -0.0913
   21CHL1    C7 2671   6.803   5.210   5.920  0.1448  0.2800  0.7681
   21CHL1   H7A 2672   6.894   5.266   5.891 -0.1002  0.1878 -0.2090
   21CHL1   H7B 2673   6.820   5.104   5.895 -1.3348 -0.0622  1.0831
   21CHL1    C8 2674   6.682   5.258   5.837  0.0437  0.2427  1.1754
   21CHL1    H8 2675   6.677   5.368   5.851  1.9204  0.4317  0.5880
   21CHL1   C14 2676   6.701   5.199   5.695 -0.3016 -0.9165  0.4958
   21CHL1   H14 2677   6.702   5.090   5.714 -1.3427 -1.3237 -1.5394
   21CHL1   C15 2678   6.825   5.226   5.622  0.0975  0.2718  0.5429
   21CHL1  H15A 2679   6.850   5.334   5.621  0.4497  0.2029 -1.3628
   21CHL1  H15B 2680   6.901   5.166   5.675 -0.0548 -0.4849 -0.0768
   21CHL1   C16 2681   6.790   5.175   5.475 -0.6649 -0.2057  0.2725
   21CHL1  H16A 2682   6.823   5.254   5.404  0.5012  2.4073  3.4489
   21CHL1  H16B 2683   6.847   5.080   5.464 -0.1784 -0.3103  3.0405
   21CHL1   C17 2684   6.641   5.139   5.480  0.4352  0.0259 -0.4348
   21CHL1   H17 2685   6.645   5.030   5.502  0.4116  0.1003 -0.0547
   21CHL1   C13 2686   6.586   5.208   5.607  0.0727  0.4102  0.5913
   21CHL1   C18 2687   6.553   5.356   5.578 -0.4151 -0.5962 -0.2356
   21CHL1  H18A 2688   6.522   5.411   5.670 -0.6056  0.6621 -1.0262
   21CHL1  H18B 2689   6.646   5.411   5.552 -0.6928 -0.2831 -0.5883
   21CHL1  H18C 2690   6.477   5.355   5.497  2.0038 -1.5429 -2.6613
   21CHL1   C12 2691   6.460   5.141   5.659  0.4189 -0.1391 -0.0571
   21CHL1  H12A 2692   6.385   5.169   5.582  0.3035 -2.6163 -0.9493
   21CHL1  H12B 2693   6.474   5.031   5.658  2.9332  0.1214  0.5844
   21CHL1   C11 2694   6.428   5.195   5.796  0.1736 -0.1987 -0.2730
   21CHL1  H11A 2695   6.385   5.297   5.794  2.3069  0.7740  0.2033
   21CHL1  H11B 2696   6.346   5.131   5.835  0.8465 -0.8053  0.1869
   21CHL1    C9 2697   6.547   5.186   5.892 -0.2998  0.4632 -0.2460
   21CHL1    H9 2698   6.578   5.080   5.895  0.1449  0.6006  0.5133
   21CHL1   C10 2699   6.515   5.227   6.038  0.3745 -0.1439 -0.1513
   21CHL1   C19 2700   6.454   5.372   6.054 -0.4723 -0.0819  0.4332
   21CHL1  H19A 2701   6.516   5.440   5.992  0.5718 -1.9237 -0.6400
   21CHL1  H19B 2702   6.347   5.379   6.024 -0.1498 -1.2239 -1.0973
   21CHL1  H19C 2703   6.457   5.409   6.159 -1.1684 -0.1173  0.4678
   21CHL1    C1 2704   6.409   5.120   6.100  0.0516 -0.0621  0.1258
   21CHL1   H1A 2705   6.316   5.121   6.039 -0.6719 -1.5511  1.1419
   21CHL1   H1B 2706   6.445   5.017   6.079 -0.7021 -0.1716 -0.6810
   21CHL1    C2 2707   6.369   5.132   6.246  0.5407 -0.2902  0.2886
   21CHL1   H2A 2708   6.306   5.048   6.283  0.4073 -0.3587 -0.0907
   21CHL1   H2B 2709   6.315   5.227   6.262  0.7177 -0.0350 -0.5608
   21CHL1   C20 2710   6.565   5.138   5.347  0.1337  0.3115 -0.3704
   21CHL1   H20 2711   6.494   5.224   5.351 -0.9107 -0.5529  0.0286
   21CHL1   C21 2712   6.467   5.013   5.350 -0.5641 -0.3404 -0.0221
   21CHL1  H21A 2713   6.434   4.996   5.455  0.4851  3.6326  1.1554
   21CHL1  H21B 2714   6.521   4.925   5.310 -4.3835 -2.2740 -1.3850
   21CHL1  H21C 2715   6.376   5.034   5.290 -1.2409 -0.3337  0.9876
   21CHL1   C22 2716   6.656   5.128   5.223  0.0086  0.5595 -0.7232
   21CHL1  H22A 2717   6.717   5.220   5.235 -2.9645  2.3447  3.7121
   21CHL1  H22B 2718   6.729   5.045   5.235 -1.5260 -0.6331  0.9535
   21CHL1   C23 2719   6.587   5.135   5.090  0.7825  0.2835 -0.6700
   21CHL1  H23A 2720   6.503   5.062   5.093  2.0655 -1.2595 -0.4120
   21CHL1  H23B 2721   6.524   5.226   5.082 -2.2036 -1.5574  0.3626
   21CHL1   C24 2722   6.684   5.101   4.983  0.1348 -0.1436 -0.2802
   21CHL1  H24A 2723   6.773   5.166   4.988  0.2512 -0.3289  0.1036
   21CHL1  H24B 2724   6.723   4.998   4.997  0.6247 -0.3944 -2.9685
   21CHL1   C25 2725   6.617   5.092   4.845 -0.4910  0.1651  0.7407
   21CHL1   H25 2726   6.579   5.195   4.825 -0.3693 -0.1376 -1.1796
   21CHL1   C26 2727   6.713   5.065   4.732 -0.0587 -0.7280  0.7102
   21CHL1  H26A 2728   6.676   5.073   4.627  0.1338  1.4960  0.7529
   21CHL1  H26B 2729   6.806   5.127   4.734  0.2528 -1.0405 -1.4466
   21CHL1  H26C 2730   6.758   4.965   4.748 -0.0006 -0.8513 -0.1561
   21CHL1   C27 2731   6.508   4.986   4.840  0.3758  0.6407  0.2812
   21CHL1  H27A 2732   6.551   4.887   4.864 -1.5157  0.2193  2.2206
   21CHL1  H27B 2733   6.413   5.004   4.895 -0.6356 -1.2696 -0.7653
   21CHL1  H27C 2734   6.472   4.979   4.735 -0.0745  0.0450  0.4707
   22CHL1    C3 2735   1.359   4.713   6.789  0.1944 -0.8018 -0.0576
   22CHL1    H3 2736   1.277   4.641   6.767  1.8184 -3.2208  1.2643
   22CHL1    O3 2737   1.374   4.739   6.928 -0.1087 -0.0225  0.5982
   22CHL1   H3' 2738   1.445   4.803   6.934  1.2861 -1.3159 -1.0767
   22CHL1    C4 2739   1.492   4.666   6.728  0.1415 -0.5270  0.1632
   22CHL1   H4A 2740   1.574   4.733   6.763 -2.2403  0.5895  4.2107
   22CHL1   H4B 2741   1.529   4.571   6.771 -3.8398 -2.9658 -1.2742
   22CHL1    C5 2742   1.480   4.651   6.578 -1.2347 -0.4711  0.4930
   22CHL1    C6 2743   1.511   4.533   6.524 -0.8601  0.2730  0.5250
   22CHL1    H6 2744   1.551   4.454   6.590  2.0956  2.1578  1.2237
   22CHL1    C7 2745   1.515   4.519   6.376  0.7946  0.1634 -0.2293
   22CHL1   H7A 2746   1.604   4.459   6.350  0.1611 -0.5963 -0.7084
   22CHL1   H7B 2747   1.428   4.458   6.341  1.3630  0.1022 -1.5738
   22CHL1    C8 2748   1.525   4.657   6.297 -0.2795  0.1586  0.4783
   22CHL1    H8 2749   1.629   4.692   6.313 -0.4187  0.9491 -0.2433
   22CHL1   C14 2750   1.501   4.633   6.150 -0.5428  0.5552 -0.4108
   22CHL1   H14 2751   1.395   4.605   6.131 -0.8199  0.1843  1.5215
   22CHL1   C15 2752   1.587   4.522   6.080  0.3735 -0.0863 -0.0461
   22CHL1  H15A 2753   1.687   4.527   6.129 -0.3261  1.5859  1.3427
   22CHL1  H15B 2754   1.547   4.420   6.096 -0.4781  0.1686 -0.4657
   22CHL1   C16 2755   1.587   4.561   5.929 -0.1060 -0.1516  0.4925
   22CHL1  H16A 2756   1.692   4.592   5.908  0.7640 -1.0554  3.0595
   22CHL1  H16B 2757   1.546   4.478   5.868 -1.1748  1.2545 -0.7874
   22CHL1   C17 2758   1.507   4.702   5.925  0.5653  0.0953 -0.1591
   22CHL1   H17 2759   1.400   4.674   5.911  1.0813 -2.3464  0.3790
   22CHL1   C13 2760   1.509   4.762   6.072 -0.3016  0.6538  0.7837
   22CHL1   C18 2761   1.648   4.835   6.091  0.7410 -0.0964  0.2216
   22CHL1  H18A 2762   1.730   4.778   6.043  0.7144  0.5951 -0.6719
   22CHL1  H18B 2763   1.646   4.933   6.039 -1.2700  0.1071  0.5867
   22CHL1  H18C 2764   1.658   4.862   6.198 -1.8627 -0.0760  0.5194
   22CHL1   C12 2765   1.388   4.848   6.110  0.4861 -0.6454  1.0222
   22CHL1  H12A 2766   1.404   4.951   6.072  1.3922 -0.9404  0.5709
   22CHL1  H12B 2767   1.292   4.803   6.076 -0.7538  1.7693  1.1031
   22CHL1   C11 2768   1.399   4.880   6.261  0.5106  0.2061  0.2479
   22CHL1  H11A 2769   1.484   4.950   6.276  0.8586 -0.3441  0.9068
   22CHL1  H11B 2770   1.309   4.935   6.296  1.7423  2.4830  0.0752
   22CHL1    C9 2771   1.420   4.755   6.351  0.3439 -0.0500 -0.7487
   22CHL1    H9 2772   1.323   4.701   6.345  0.7499 -0.9913  0.6506
   22CHL1   C10 2773   1.443   4.781   6.499  0.2472  0.9218 -0.6796
   22CHL1   C19 2774   1.558   4.884   6.520  0.4750  0.3432  0.2551
   22CHL1  H19A 2775   1.585   4.889   6.627  2.1211 -0.3034 -0.0973
   22CHL1  H19B 2776   1.650   4.852   6.466  0.4108  0.6064 -0.0136
   22CHL1  H19C 2777   1.511   4.978   6.483 -1.0048 -0.4570  0.0347
   22CHL1    C1 2778   1.318   4.843   6.565  0.1916  0.3800 -0.5519
   22CHL1   H1A 2779   1.309   4.946   6.525  1.5566  2.0988  3.1702
   22CHL1   H1B 2780   1.223   4.789   6.541 -0.0979  0.7107 -0.1628
   22CHL1    C2 2781   1.318   4.843   6.726 -0.9272  0.3911  0.1734
   22CHL1   H2A 2782   1.220   4.867   6.773 -2.7891 -3.2653 -1.4146
   22CHL1   H2B 2783   1.392   4.923   6.743  0.6181 -0.5836 -1.6219
   22CHL1   C20 2784   1.545   4.791   5.806  0.2012 -0.3012  0.0986
   22CHL1   H20 2785   1.651   4.813   5.828 -0.8100  2.0516  3.4296
   22CHL1   C21 2786   1.480   4.932   5.804  0.6999  0.6761  0.1918
   22CHL1  H21A 2787   1.510   4.986   5.712 -0.4928  0.6329 -0.2422
   22CHL1  H21B 2788   1.504   5.003   5.886  1.6877 -0.0409  0.5511
   22CHL1  H21C 2789   1.369   4.923   5.808  0.5329  2.8496  1.8396
   22CHL1   C22 2790   1.530   4.712   5.671  0.5215  0.9057 -0.8024
   22CHL1  H22A 2791   1.571   4.609   5.681 -0.8436  0.4013 -0.2110
   22CHL1  H22B 2792   1.422   4.692   5.658  0.2327 -0.2004  2.5237
   22CHL1   C23 2793   1.592   4.795   5.554  0.0167  0.5890 -0.2633
   22CHL1  H23A 2794   1.529   4.882   5.527 -3.1257 -1.5614 -0.3694
   22CHL1  H23B 2795   1.688   4.828   5.600 -0.4858 -0.0478  1.3447
   22CHL1   C24 2796   1.630   4.711   5.434 -0.5109  0.0584  0.3262
   22CHL1  H24A 2797   1.676   4.612   5.454  1.9195  0.6722 -1.7099
   22CHL1  H24B 2798   1.540   4.692   5.372  0.6086 -1.7552 -0.8392
   22CHL1   C25 2799   1.734   4.779   5.337 -0.1715  0.1549 -0.2292
   22CHL1   H25 2800   1.822   4.817   5.393  1.1108  2.2373 -3.3511
   22CHL1   C26 2801   1.783   4.669   5.238 -0.0132  0.5189 -0.0493
   22CHL1  H26A 2802   1.853   4.703   5.159 -0.1008  1.1997  0.1656
   22CHL1  H26B 2803   1.839   4.585   5.285  1.1383  1.5665  0.5224
   22CHL1  H26C 2804   1.699   4.619   5.185 -0.4281  0.0428  1.0264
   22CHL1   C27 2805   1.676   4.899   5.265 -0.1915 -0.5899  0.3185
   22CHL1  H27A 2806   1.748   4.949   5.197 -0.0780  1.7717  2.0336
   22CHL1  H27B 2807   1.583   4.866   5.214 -0.8077  0.7024  0.5705
   22CHL1  H27C 2808   1.643   4.981   5.332 -0.7594 -0.1562 -0.4798
   23CHL1    C3 2809   6.089   4.207   6.559  0.3577  0.0777 -0.4957
   23CHL1    H3 2810   6.084   4.318   6.560  0.1816  0.0688  0.3126
   23CHL1    O3 2811   6.102   4.169   6.698  0.0011 -0.1999 -0.3345
   23CHL1   H3' 2812   6.016   4.156   6.738  0.6297  0.2153  1.2229
   23CHL1    C4 2813   5.965   4.145   6.505  0.5752 -0.1490  0.2613
   23CHL1   H4A 2814   5.959   4.037   6.534 -0.8920  0.3011  1.7982
   23CHL1   H4B 2815   5.878   4.179   6.565 -0.1068 -1.2222 -0.0848
   23CHL1    C5 2816   5.949   4.157   6.359  0.4188 -0.3820  0.0955
   23CHL1    C6 2817   5.833   4.204   6.311  0.0073 -0.2512 -0.9340
   23CHL1    H6 2818   5.749   4.235   6.376  0.6366  1.7978 -1.0361
   23CHL1    C7 2819   5.804   4.214   6.158 -0.1555  0.2471  0.1155
   23CHL1   H7A 2820   5.697   4.184   6.148  0.0912 -0.6189 -0.0000
   23CHL1   H7B 2821   5.804   4.321   6.129 -0.2507  0.0932 -0.4517
   23CHL1    C8 2822   5.912   4.145   6.069  0.3861 -0.5106  0.1066
   23CHL1    H8 2823   5.894   4.036   6.075  0.5604 -0.5219  0.4359
   23CHL1   C14 2824   5.903   4.185   5.928 -0.2840  0.1666  0.3694
   23CHL1   H14 2825   5.915   4.296   5.926  0.4451  0.0878 -0.4391
   23CHL1   C15 2826   5.765   4.173   5.867 -0.7819  0.5293  0.3281
   23CHL1  H15A 2827   5.724   4.071   5.883 -1.0584  0.6644  0.5063
   23CHL1  H15B 2828   5.683   4.244   5.895 -0.4418  1.4633 -0.9630
   23CHL1   C16 2829   5.808   4.181   5.718 -0.1312  0.2159  0.8729
   23CHL1  H16A 2830   5.747   4.107   5.662 -1.0704  1.2806  0.4523
   23CHL1  H16B 2831   5.792   4.286   5.685  0.2702  0.0138  0.0181
   23CHL1   C17 2832   5.963   4.182   5.706  0.0668 -0.0755 -0.1497
   23CHL1   H17 2833   6.000   4.287   5.708  1.0424 -0.3666 -1.5401
   23CHL1   C13 2834   6.014   4.123   5.837 -0.4976  0.8791  0.0885
   23CHL1   C18 2835   6.000   3.966   5.839 -0.4217 -0.6747  0.3258
   23CHL1  H18A 2836   6.092   3.930   5.788 -0.0864 -1.9684  1.7617
   23CHL1  H18B 2837   5.993   3.915   5.937 -3.9234 -1.3184 -0.1558
   23CHL1  H18C 2838   5.911   3.938   5.780 -1.3172  0.2043  1.2178
   23CHL1   C12 2839   6.148   4.169   5.884 -0.1380 -0.1952  0.4169
   23CHL1  H12A 2840   6.227   4.117   5.825 -0.3433  1.1876 -1.1431
   23CHL1  H12B 2841   6.171   4.276   5.868 -1.4431  0.1407  0.7018
   23CHL1   C11 2842   6.165   4.136   6.036  0.0988  0.2167  0.4574
   23CHL1  H11A 2843   6.191   4.028   6.030 -1.2453 -0.0717 -3.8126
   23CHL1  H11B 2844   6.250   4.203   6.062 -1.6252  2.8240 -0.2326
   23CHL1    C9 2845   6.048   4.177   6.128  0.2540 -0.5341  0.4157
   23CHL1    H9 2846   6.065   4.287   6.127 -1.3325 -0.1739  3.1394
   23CHL1   C10 2847   6.070   4.128   6.273  0.3214 -0.8403 -1.1091
   23CHL1   C19 2848   6.095   3.977   6.285 -0.1580  0.4438 -0.2885
   23CHL1  H19A 2849   6.107   3.948   6.392 -0.1039 -0.6173 -0.5691
   23CHL1  H19B 2850   6.009   3.918   6.247 -0.4666  0.4214  0.4374
   23CHL1  H19C 2851   6.196   3.951   6.246  0.6882  3.0020 -0.0019
   23CHL1    C1 2852   6.194   4.201   6.330 -0.8955  0.2646  0.2784
   23CHL1   H1A 2853   6.286   4.168   6.276 -0.5480 -1.8136  2.0084
   23CHL1   H1B 2854   6.181   4.310   6.310  0.3270  0.3404 -0.2275
   23CHL1    C2 2855   6.218   4.168   6.481  0.3083 -0.0071  0.5063
   23CHL1   H2A 2856   6.302   4.230   6.520  0.1998  0.6931 -0.3346
   23CHL1   H2B 2857   6.251   4.065   6.505  1.5559  0.0495 -0.8203
   23CHL1   C20 2858   6.004   4.111   5.577 -0.3798 -0.1830 -0.7135
   23CHL1   H20 2859   5.966   4.007   5.591  0.5594 -0.1945  2.5360
   23CHL1   C21 2860   6.160   4.123   5.556  0.0313  0.5719 -0.5718
   23CHL1  H21A 2861   6.213   4.066   5.636 -1.4141 -0.8776 -0.5931
   23CHL1  H21B 2862   6.183   4.231   5.566 -1.5012  0.9139 -0.6262
   23CHL1  H21C 2863   6.183   4.068   5.462  0.4731  2.3778 -1.5664
   23CHL1   C22 2864   5.944   4.174   5.457 -0.0814 -0.2832  0.6926
   23CHL1  H22A 2865   5.835   4.190   5.476 -0.4837 -0.9280 -0.8824
   23CHL1  H22B 2866   5.984   4.274   5.429 -0.7253 -0.5917 -1.4965
   23CHL1   C23 2867   5.933   4.088   5.326 -0.2305  0.1853  0.0068
   23CHL1  H23A 2868   6.031   4.071   5.277  1.0462  1.4142  1.9989
   23CHL1  H23B 2869   5.885   3.994   5.361 -0.7884  0.9896  1.5022
   23CHL1   C24 2870   5.847   4.151   5.212 -0.3866 -0.2882 -0.2419
   23CHL1  H24A 2871   5.745   4.166   5.253  0.0758  0.7927  0.5652
   23CHL1  H24B 2872   5.887   4.254   5.201  0.8190 -0.3738  2.5360
   23CHL1   C25 2873   5.859   4.079   5.081 -0.0046 -0.0005  0.5764
   23CHL1   H25 2874   5.859   3.968   5.090 -0.5797 -0.1996 -1.4393
   23CHL1   C26 2875   5.741   4.113   5.000  0.1541 -0.3623 -0.0173
   23CHL1  H26A 2876   5.741   4.051   4.908  1.7777 -1.5114  0.7012
   23CHL1  H26B 2877   5.648   4.086   5.054 -1.5023 -1.6262 -3.2702
   23CHL1  H26C 2878   5.733   4.223   4.986  0.4099 -0.2078  0.9257
   23CHL1   C27 2879   5.986   4.123   5.003  1.6030  0.0661  0.2129
   23CHL1  H27A 2880   5.982   4.069   4.906 -3.0374  1.9705 -0.9690
   23CHL1  H27B 2881   5.987   4.232   4.981  0.6311 -0.2982 -1.9223
   23CHL1  H27C 2882   6.073   4.100   5.067  0.2063  0.2804  2.3042
   24CHL1    C3 2883   2.210   4.980   6.800 -0.0716 -0.5943 -0.5834
   24CHL1    H3 2884   2.226   4.872   6.779 -2.7022 -0.9652 -0.9427
   24CHL1    O3 2885   2.165   4.985   6.937  0.9714 -0.0326 -0.1169
   24CHL1   H3' 2886   2.155   5.077   6.961  1.7675 -0.2086  0.9568
   24CHL1    C4 2887   2.341   5.058   6.778 -0.0038 -0.7242  0.2729
   24CHL1   H4A 2888   2.331   5.165   6.806  1.1051 -0.6870  0.5429
   24CHL1   H4B 2889   2.409   4.999   6.843 -0.5925 -2.7418 -0.8388
   24CHL1    C5 2890   2.381   5.042   6.632 -0.0227  0.5471 -0.0571
   24CHL1    C6 2891   2.506   4.998   6.603 -0.0505 -0.0890  0.1641
   24CHL1    H6 2892   2.576   4.974   6.685 -1.1694 -0.4905  1.0326
   24CHL1    C7 2893   2.557   4.985   6.463  0.3760 -0.1456 -0.3091
   24CHL1   H7A 2894   2.656   5.035   6.468 -0.1389  0.8417  0.3201
   24CHL1   H7B 2895   2.587   4.881   6.440  0.6748  0.4504 -2.9621
   24CHL1    C8 2896   2.460   5.045   6.359 -0.0037 -0.2076 -0.3844
   24CHL1    H8 2897   2.482   5.154   6.354  0.4173 -0.1975  1.1696
   24CHL1   C14 2898   2.485   4.986   6.224 -0.5993  0.3347 -0.2610
   24CHL1   H14 2899   2.444   4.883   6.231  2.1423 -0.7384  1.5053
   24CHL1   C15 2900   2.633   4.965   6.183 -0.2437 -0.1746 -0.7021
   24CHL1  H15A 2901   2.689   5.055   6.214  0.9732 -1.4010  0.8055
   24CHL1  H15B 2902   2.674   4.876   6.234 -0.2751  0.7682  1.0380
   24CHL1   C16 2903   2.619   4.943   6.034  0.3526 -0.3337 -0.4044
   24CHL1  H16A 2904   2.687   5.017   5.986  2.1984 -1.9206 -0.3505
   24CHL1  H16B 2905   2.657   4.844   6.003  1.4192  0.3017 -1.2103
   24CHL1   C17 2906   2.472   4.966   5.998 -1.1549  0.3786  0.1123
   24CHL1   H17 2907   2.416   4.872   6.022  0.5707 -0.4817  0.9818
   24CHL1   C13 2908   2.413   5.050   6.108 -0.7035 -0.2709 -0.1870
   24CHL1   C18 2909   2.445   5.199   6.079 -0.7995  0.6893 -0.0754
   24CHL1  H18A 2910   2.548   5.210   6.041 -0.0006 -3.3165  0.4244
   24CHL1  H18B 2911   2.365   5.240   6.013 -1.2175 -0.3422 -0.2298
   24CHL1  H18C 2912   2.445   5.256   6.175  2.3509  1.1496 -0.2470
   24CHL1   C12 2913   2.259   5.027   6.138 -0.5536  0.5146 -0.2056
   24CHL1  H12A 2914   2.207   5.096   6.068  0.7637  2.2155  0.4153
   24CHL1  H12B 2915   2.228   4.922   6.118  0.5488 -0.2165  1.6678
   24CHL1   C11 2916   2.220   5.082   6.273 -0.3206 -0.9579  0.5307
   24CHL1  H11A 2917   2.239   5.191   6.260 -0.5037 -0.9663  0.1860
   24CHL1  H11B 2918   2.112   5.071   6.296 -0.2535  1.0274  2.0924
   24CHL1    C9 2919   2.308   5.022   6.390  0.1613 -0.4064 -0.1309
   24CHL1    H9 2920   2.293   4.912   6.384 -1.4456 -0.2313  0.3865
   24CHL1   C10 2921   2.271   5.078   6.533  0.3011 -0.1079  0.8246
   24CHL1   C19 2922   2.261   5.231   6.533  0.1638 -0.1466 -1.1147
   24CHL1  H19A 2923   2.227   5.267   6.633 -0.6199  0.9739 -1.7669
   24CHL1  H19B 2924   2.353   5.283   6.498  0.6918  0.8779  1.5029
   24CHL1  H19C 2925   2.186   5.261   6.457 -0.5566 -0.0095 -0.3665
   24CHL1    C1 2926   2.136   5.018   6.568 -0.3730  0.0164  0.5324
   24CHL1   H1A 2927   2.063   5.069   6.502  1.2643  0.8639 -0.6728
   24CHL1   H1B 2928   2.129   4.911   6.538 -0.2691  0.3919 -0.9006
   24CHL1    C2 2929   2.104   5.036   6.712 -0.4209  0.4562 -0.0397
   24CHL1   H2A 2930   2.004   4.991   6.731  0.3436 -1.3639 -0.1600
   24CHL1   H2B 2931   2.100   5.146   6.725 -1.8570  0.9015 -3.2358
   24CHL1   C20 2932   2.446   5.008   5.854 -0.7501  0.1512  0.0453
   24CHL1   H20 2933   2.490   5.108   5.835  0.6278  0.1297  2.6538
   24CHL1   C21 2934   2.298   5.009   5.821  0.5238  0.1297  0.1011
   24CHL1  H21A 2935   2.282   5.035   5.714  0.2508 -0.0882  0.0874
   24CHL1  H21B 2936   2.248   5.091   5.876  0.5269  0.7276 -0.7704
   24CHL1  H21C 2937   2.254   4.908   5.836  2.1491 -0.5627  0.5276
   24CHL1   C22 2938   2.522   4.913   5.757 -0.6245  0.0297  0.5575
   24CHL1  H22A 2939   2.623   4.888   5.794 -0.7760 -2.6267 -0.5707
   24CHL1  H22B 2940   2.467   4.816   5.751  0.6359 -0.6346 -1.2278
   24CHL1   C23 2941   2.535   4.971   5.617 -0.1286  0.5729 -0.1618
   24CHL1  H23A 2942   2.434   4.993   5.576  0.6865  2.6785 -1.2195
   24CHL1  H23B 2943   2.590   5.067   5.634  2.1125 -0.9353  1.6815
   24CHL1   C24 2944   2.598   4.887   5.510  0.1888  0.0747 -0.5339
   24CHL1  H24A 2945   2.707   4.870   5.525  0.1316 -0.8403 -1.1010
   24CHL1  H24B 2946   2.557   4.784   5.502 -0.9435  0.6115 -2.3192
   24CHL1   C25 2947   2.579   4.943   5.362  0.2899 -1.1494 -0.2139
   24CHL1   H25 2948   2.472   4.972   5.353  0.7588  0.8260  0.1715
   24CHL1   C26 2949   2.664   5.061   5.366  0.7255 -0.2474  0.4641
   24CHL1  H26A 2950   2.755   5.025   5.419  0.5169 -2.3518 -0.5236
   24CHL1  H26B 2951   2.694   5.106   5.269 -0.1351 -1.9347 -0.6272
   24CHL1  H26C 2952   2.622   5.150   5.417 -1.9935 -1.5056  0.5771
   24CHL1   C27 2953   2.608   4.846   5.256  0.1442  0.4045  0.9791
   24CHL1  H27A 2954   2.710   4.802   5.257 -0.2795 -0.7366 -1.2750
   24CHL1  H27B 2955   2.537   4.760   5.254  0.4154  0.1921 -0.0307
   24CHL1  H27C 2956   2.600   4.887   5.154  0.7280 -0.6656  0.4874
   25CHL1    C3 2957   4.322   0.269   6.541 -0.0020 -0.6166 -0.6593
   25CHL1    H3 2958   4.429   0.265   6.512  0.3888 -1.2782  0.7787
   25CHL1    O3 2959   4.310   0.229   6.672  0.1320 -0.0287 -0.2688
   25CHL1   H3' 2960   4.216   0.224   6.690  0.0203 -1.8312 -1.1624
   25CHL1    C4 2961   4.260   0.416   6.533  0.0538  0.3923  0.8925
   25CHL1   H4A 2962   4.155   0.413   6.570 -0.1014 -1.3068  0.4037
   25CHL1   H4B 2963   4.327   0.475   6.599  3.0699 -0.3382 -1.2766
   25CHL1    C5 2964   4.267   0.459   6.390  0.4097 -0.5399 -0.7870
   25CHL1    C6 2965   4.338   0.565   6.359 -0.1024 -0.8148  0.1509
   25CHL1    H6 2966   4.400   0.603   6.442  1.8866  1.5506 -2.2528
   25CHL1    C7 2967   4.361   0.619   6.218 -0.6379 -0.4309  0.3287
   25CHL1   H7A 2968   4.348   0.729   6.210  2.2577 -0.0206  0.1486
   25CHL1   H7B 2969   4.458   0.585   6.176  0.5999  1.3638  1.5877
   25CHL1    C8 2970   4.260   0.555   6.118 -0.3067  0.5646  0.0442
   25CHL1    H8 2971   4.162   0.605   6.135 -0.3672  0.1493  0.9431
   25CHL1   C14 2972   4.310   0.585   5.977  0.7753  0.0251 -1.0269
   25CHL1   H14 2973   4.413   0.543   5.977  1.4346  1.2980  2.6250
   25CHL1   C15 2974   4.337   0.731   5.940 -0.6230 -0.6550 -0.4489
   25CHL1  H15A 2975   4.255   0.799   5.972  0.8395  0.8856  0.2389
   25CHL1  H15B 2976   4.436   0.776   5.967  0.2413 -0.8568 -3.0458
   25CHL1   C16 2977   4.347   0.725   5.786 -0.4992 -0.3066 -0.2844
   25CHL1  H16A 2978   4.283   0.809   5.752 -0.2252 -0.1471 -0.4003
   25CHL1  H16B 2979   4.445   0.754   5.743  0.2531  1.5748  2.4501
   25CHL1   C17 2980   4.295   0.587   5.737  0.5686  0.7966  0.0985
   25CHL1   H17 2981   4.384   0.520   5.732 -0.6169 -1.0952  2.3296
   25CHL1   C13 2982   4.230   0.522   5.867  0.6429  0.2128  0.2373
   25CHL1   C18 2983   4.082   0.572   5.874 -0.6233 -0.0865 -0.0886
   25CHL1  H18A 2984   4.047   0.548   5.977  1.2808  2.6323  1.3344
   25CHL1  H18B 2985   4.078   0.682   5.861  0.1235 -0.0052  0.2889
   25CHL1  H18C 2986   4.008   0.523   5.808  1.3309 -2.1460 -0.8683
   25CHL1   C12 2987   4.231   0.365   5.882 -0.4888 -0.0764 -0.0594
   25CHL1  H12A 2988   4.175   0.306   5.806  0.1025 -2.5023  1.3224
   25CHL1  H12B 2989   4.336   0.329   5.876 -0.0508  1.3976 -3.0000
   25CHL1   C11 2990   4.169   0.335   6.023 -0.2166  0.3402 -0.6835
   25CHL1  H11A 2991   4.060   0.356   6.026 -0.2081  0.2345  1.3000
   25CHL1  H11B 2992   4.186   0.229   6.051 -0.8008 -0.4190 -2.9643
   25CHL1    C9 2993   4.246   0.408   6.145 -0.1096  0.7063 -0.1003
   25CHL1    H9 2994   4.345   0.362   6.127 -0.5274 -0.2405 -0.0608
   25CHL1   C10 2995   4.203   0.361   6.283  0.3283  0.1260 -0.4580
   25CHL1   C19 2996   4.055   0.373   6.299 -0.0059 -0.5973  0.6168
   25CHL1  H19A 2997   4.002   0.288   6.252  1.2152 -0.4903 -1.0322
   25CHL1  H19B 2998   4.018   0.372   6.404 -0.7624  2.2063  0.4642
   25CHL1  H19C 2999   4.020   0.471   6.260  0.6183  0.0549  1.6255
   25CHL1    C1 3000   4.257   0.216   6.307  0.3354  0.1876 -0.0512
   25CHL1   H1A 3001   4.200   0.145   6.243 -1.4308 -0.1330  1.7841
   25CHL1   H1B 3002   4.364   0.216   6.277 -0.1542 -0.9833 -1.9730
   25CHL1    C2 3003   4.250   0.170   6.453 -0.1753 -0.2772 -0.8807
   25CHL1   H2A 3004   4.293   0.068   6.463 -2.3316 -1.2142 -0.4751
   25CHL1   H2B 3005   4.144   0.155   6.485  0.0984 -1.8493 -0.6366
   25CHL1   C20 3006   4.225   0.576   5.601 -1.3930 -0.4567 -0.4893
   25CHL1   H20 3007   4.134   0.639   5.613 -0.5904  0.3257  2.0933
   25CHL1   C21 3008   4.183   0.431   5.581  0.3447 -0.3630 -0.2152
   25CHL1  H21A 3009   4.267   0.358   5.591  0.1552 -0.5296  0.1686
   25CHL1  H21B 3010   4.139   0.430   5.479 -2.4046 -1.9277  0.8990
   25CHL1  H21C 3011   4.103   0.399   5.651  1.3755 -1.9366  0.3060
   25CHL1   C22 3012   4.305   0.629   5.479  0.5448  0.3300  0.2010
   25CHL1  H22A 3013   4.339   0.732   5.499  0.1950  0.5074 -0.0941
   25CHL1  H22B 3014   4.386   0.555   5.463  1.3765  0.7975  1.9527
   25CHL1   C23 3015   4.212   0.652   5.366 -0.7526  0.7688 -0.5585
   25CHL1  H23A 3016   4.198   0.556   5.310  1.8056 -0.4371  0.6859
   25CHL1  H23B 3017   4.114   0.681   5.409  0.5082  1.5219  1.9744
   25CHL1   C24 3018   4.258   0.746   5.253 -1.1425 -0.2758 -0.0105
   25CHL1  H24A 3019   4.175   0.768   5.183 -1.5593 -0.4500  0.4196
   25CHL1  H24B 3020   4.287   0.838   5.308  0.8962 -1.1741  0.5298
   25CHL1   C25 3021   4.394   0.721   5.178 -0.0135 -0.9867 -0.5365
   25CHL1   H25 3022   4.457   0.673   5.256 -1.3121  0.1893  1.3465
   25CHL1   C26 3023   4.373   0.620   5.064  1.2762 -0.1185 -0.4028
   25CHL1  H26A 3024   4.308   0.667   4.987 -3.1773 -2.9557  1.2175
   25CHL1  H26B 3025   4.470   0.589   5.020  1.3102 -2.2354  1.0186
   25CHL1  H26C 3026   4.317   0.538   5.114  1.8875  1.3486  2.9833
   25CHL1   C27 3027   4.457   0.850   5.124  0.6717 -1.2556  0.7850
   25CHL1  H27A 3028   4.532   0.812   5.051  1.0775 -3.0149  2.0408
   25CHL1  H27B 3029   4.386   0.917   5.071  1.2445 -1.3335 -0.1166
   25CHL1  H27C 3030   4.515   0.902   5.203 -0.7936  2.7757 -0.5784
   26CHL1    C3 3031   2.875   5.153   6.717 -0.6151  0.1447 -0.1055
   26CHL1    H3 3032   2.772   5.116   6.697  0.4745 -2.8097 -0.7802
   26CHL1    O3 3033   2.885   5.217   6.846 -0.1732  0.1682  0.3782
   26CHL1   H3' 3034   2.971   5.258   6.854 -0.3670  0.3824  1.4233
   26CHL1    C4 3035   2.961   5.023   6.732  0.3060 -0.3418  1.3641
   26CHL1   H4A 3036   3.058   5.055   6.773  1.2469  0.8919 -1.5521
   26CHL1   H4B 3037   2.905   4.954   6.799 -1.7040 -0.3661 -0.2176
   26CHL1    C5 3038   2.979   4.958   6.596 -0.3593 -0.8053 -0.6951
   26CHL1    C6 3039   2.950   4.830   6.575 -0.5532 -0.4580 -0.7120
   26CHL1    H6 3040   2.907   4.771   6.658 -1.9114  0.1348 -0.9581
   26CHL1    C7 3041   2.962   4.746   6.451  0.0617 -0.2193  0.3165
   26CHL1   H7A 3042   3.005   4.647   6.476 -0.9192 -1.1525 -1.4523
   26CHL1   H7B 3043   2.862   4.713   6.415 -0.2328 -0.8941  1.6980
   26CHL1    C8 3044   3.037   4.824   6.340  0.3721 -0.3876  0.9354
   26CHL1    H8 3045   3.146   4.812   6.360  1.0860  0.0750 -2.1563
   26CHL1   C14 3046   3.006   4.771   6.203  0.7788 -0.5794 -0.5010
   26CHL1   H14 3047   2.897   4.787   6.193  0.7871  0.5797  0.8845
   26CHL1   C15 3048   3.013   4.617   6.176 -0.4848  0.3181 -0.1556
   26CHL1  H15A 3049   3.108   4.576   6.217  0.5159  0.6496 -2.0420
   26CHL1  H15B 3050   2.932   4.555   6.220  0.3297 -0.3598  0.4229
   26CHL1   C16 3051   3.000   4.613   6.022  0.5438  0.2791 -0.1884
   26CHL1  H16A 3052   3.077   4.540   5.992  2.3945  0.2838  3.8332
   26CHL1  H16B 3053   2.900   4.569   6.001  1.9637 -3.1411 -0.3676
   26CHL1   C17 3054   3.015   4.756   5.971 -0.4776 -0.6321 -0.5126
   26CHL1   H17 3055   2.918   4.802   5.946 -1.4897 -1.1691  2.0701
   26CHL1   C13 3056   3.074   4.836   6.091 -0.0571  0.0764  0.8541
   26CHL1   C18 3057   3.226   4.807   6.110  0.3444 -0.1824  0.2262
   26CHL1  H18A 3058   3.274   4.871   6.033 -2.3676 -0.5479 -1.9540
   26CHL1  H18B 3059   3.264   4.840   6.209  3.4293  0.0394 -0.9468
   26CHL1  H18C 3060   3.267   4.705   6.093 -1.9934 -1.1089 -0.3502
   26CHL1   C12 3061   3.027   4.982   6.091  0.0934  0.4674  0.1947
   26CHL1  H12A 3062   3.087   5.028   6.010  1.0826  0.8224  1.1131
   26CHL1  H12B 3063   2.917   4.993   6.081 -0.1997 -1.9400  0.0520
   26CHL1   C11 3064   3.066   5.045   6.222  0.4551  0.1947 -0.1157
   26CHL1  H11A 3065   3.176   5.058   6.229  0.5490 -1.2109  1.6204
   26CHL1  H11B 3066   3.023   5.148   6.212 -0.3089 -0.2044 -1.2283
   26CHL1    C9 3067   2.998   4.974   6.345 -0.6645  1.0767 -0.2979
   26CHL1    H9 3068   2.888   4.987   6.338 -0.5257  2.7206  0.1962
   26CHL1   C10 3069   3.030   5.053   6.477 -0.7396  0.1951 -0.4126
   26CHL1   C19 3070   3.183   5.080   6.487 -0.4421  0.1330 -0.3260
   26CHL1  H19A 3071   3.220   5.145   6.405 -0.6645  1.1051  0.3174
   26CHL1  H19B 3072   3.196   5.149   6.573 -1.2712  0.7351 -0.6695
   26CHL1  H19C 3073   3.253   4.994   6.495  0.1784  0.7277  1.1832
   26CHL1    C1 3074   2.951   5.189   6.478  0.6440 -0.1645 -0.3599
   26CHL1   H1A 3075   3.004   5.251   6.402 -0.4348  0.4220 -0.6589
   26CHL1   H1B 3076   2.849   5.164   6.441  1.0208 -2.9542  0.2610
   26CHL1    C2 3077   2.930   5.252   6.619 -0.8550  0.4051  1.4258
   26CHL1   H2A 3078   2.866   5.343   6.616  1.4193  2.0962 -0.5524
   26CHL1   H2B 3079   3.032   5.292   6.640 -0.0461 -0.9376  0.2803
   26CHL1   C20 3080   3.102   4.774   5.838 -0.3280 -0.3060  0.5233
   26CHL1   H20 3081   3.155   4.872   5.846 -0.7871 -0.0183  0.0462
   26CHL1   C21 3082   3.002   4.764   5.722 -0.1796  0.2925  0.6354
   26CHL1  H21A 3083   2.964   4.660   5.720  2.8416 -0.8834  0.6529
   26CHL1  H21B 3084   3.057   4.791   5.629  0.4835 -2.2770  0.2218
   26CHL1  H21C 3085   2.925   4.843   5.736  2.0811  2.4258  1.7924
   26CHL1   C22 3086   3.203   4.660   5.816 -0.4512  0.9875  0.0008
   26CHL1  H22A 3087   3.270   4.655   5.904  1.4679  1.5449 -1.3786
   26CHL1  H22B 3088   3.144   4.566   5.801 -1.3197  1.6517 -0.8543
   26CHL1   C23 3089   3.306   4.694   5.698 -0.2694  0.5413 -0.1166
   26CHL1  H23A 3090   3.257   4.672   5.600 -1.2503  1.5613  0.1178
   26CHL1  H23B 3091   3.325   4.804   5.698  2.3513  0.1523 -0.3192
   26CHL1   C24 3092   3.438   4.616   5.719  0.3467  0.6963  0.1542
   26CHL1  H24A 3093   3.487   4.674   5.800 -0.4145  1.0976  0.3384
   26CHL1  H24B 3094   3.417   4.514   5.757  0.0236 -0.3284 -2.5176
   26CHL1   C25 3095   3.542   4.610   5.604 -0.2953 -0.2449  0.6502
   26CHL1   H25 3096   3.627   4.550   5.645 -1.8978 -0.8205  3.4098
   26CHL1   C26 3097   3.490   4.528   5.484 -0.4206  0.6886 -0.2339
   26CHL1  H26A 3098   3.575   4.515   5.414  0.1450 -1.3188  0.7515
   26CHL1  H26B 3099   3.471   4.424   5.515  3.3764 -0.7348 -2.0655
   26CHL1  H26C 3100   3.396   4.571   5.443 -1.1980  1.5530  2.2441
   26CHL1   C27 3101   3.575   4.755   5.563  0.2459  0.0020  0.3807
   26CHL1  H27A 3102   3.490   4.807   5.515 -1.2242  0.8361  3.6562
   26CHL1  H27B 3103   3.598   4.812   5.655 -3.1036 -0.3345  1.5517
   26CHL1  H27C 3104   3.665   4.763   5.497 -0.5065  0.5288 -0.6064
   27CHL1    C3 3105   6.761   4.633   6.351 -0.4349 -0.4605 -0.0043
   27CHL1    H3 3106   6.695   4.550   6.319 -2.3125  1.1536 -0.5019
   27CHL1    O3 3107   6.750   4.635   6.493  0.1312  0.1076  0.0501
   27CHL1   H3' 3108   6.784   4.719   6.523  0.5287 -0.5673  1.5788
   27CHL1    C4 3109   6.914   4.605   6.317 -0.3743 -0.0190  0.4486
   27CHL1   H4A 3110   6.970   4.697   6.346  0.3103  0.8743 -3.1957
   27CHL1   H4B 3111   6.950   4.514   6.370  0.3294 -0.1508 -0.2312
   27CHL1    C5 3112   6.924   4.600   6.169  0.4147  0.1857 -0.6577
   27CHL1    C6 3113   6.971   4.486   6.109 -0.0586 -0.0598  1.0359
   27CHL1    H6 3114   7.008   4.407   6.176 -0.4508  0.8440  2.3700
   27CHL1    C7 3115   6.989   4.466   5.964  0.0532  0.1041  0.0026
   27CHL1   H7A 3116   7.088   4.424   5.938  0.2259 -0.8451  1.9636
   27CHL1   H7B 3117   6.920   4.395   5.914 -2.2408  2.1944 -0.0055
   27CHL1    C8 3118   6.968   4.593   5.878  1.3302 -0.7032 -0.6527
   27CHL1    H8 3119   7.058   4.658   5.884  0.6955  0.0994  3.6032
   27CHL1   C14 3120   6.930   4.551   5.735  0.4384  0.8372 -0.3592
   27CHL1   H14 3121   6.832   4.500   5.745  0.7903  0.0737 -0.6856
   27CHL1   C15 3122   7.023   4.450   5.653 -0.5484 -0.0877 -0.8390
   27CHL1  H15A 3123   7.129   4.470   5.682 -1.5742  3.0064  1.2982
   27CHL1  H15B 3124   6.990   4.345   5.667  3.9304 -1.6189 -0.2999
   27CHL1   C16 3125   6.998   4.476   5.509 -0.2601 -0.1566  0.0366
   27CHL1  H16A 3126   7.095   4.508   5.464 -0.7677  0.4004 -0.6959
   27CHL1  H16B 3127   6.965   4.384   5.457  2.1574 -1.3289  0.4439
   27CHL1   C17 3128   6.892   4.593   5.504  0.3222  0.2577  0.2896
   27CHL1   H17 3129   6.796   4.538   5.507 -0.0761  0.7424 -1.7647
   27CHL1   C13 3130   6.901   4.671   5.643 -0.3823 -1.4355  0.9627
   27CHL1   C18 3131   7.024   4.765   5.631  0.5302  0.7602 -0.5678
   27CHL1  H18A 3132   7.045   4.808   5.732 -2.3330  0.7253  0.1360
   27CHL1  H18B 3133   7.119   4.726   5.589  0.3026  0.5438 -0.8883
   27CHL1  H18C 3134   6.995   4.843   5.558 -1.0548 -1.7833 -2.8864
   27CHL1   C12 3135   6.787   4.752   5.692  0.1228 -0.8679  0.1230
   27CHL1  H12A 3136   6.788   4.853   5.645 -4.0172 -1.2169 -1.1778
   27CHL1  H12B 3137   6.690   4.703   5.669 -0.7842  0.3170  1.2109
   27CHL1   C11 3138   6.803   4.793   5.841  0.2324  0.1610 -0.0379
   27CHL1  H11A 3139   6.872   4.879   5.835 -0.1313  0.5514  1.1207
   27CHL1  H11B 3140   6.701   4.820   5.875  0.2318  0.5416 -0.3431
   27CHL1    C9 3141   6.848   4.678   5.936  0.2147  0.1253 -0.1604
   27CHL1    H9 3142   6.762   4.608   5.941 -0.0136  0.3583 -0.7537
   27CHL1   C10 3143   6.872   4.716   6.085  0.8022 -0.2014  0.5718
   27CHL1   C19 3144   6.973   4.839   6.084 -0.0272  0.5263 -0.2710
   27CHL1  H19A 3145   6.998   4.858   6.190  1.6492  0.6026 -0.6532
   27CHL1  H19B 3146   7.070   4.816   6.035  0.8744 -1.0976  2.1132
   27CHL1  H19C 3147   6.930   4.926   6.030 -1.3683  0.4684  0.6473
   27CHL1    C1 3148   6.735   4.771   6.136  0.1202 -0.2006 -0.3660
   27CHL1   H1A 3149   6.695   4.863   6.087  1.2419 -0.3401 -1.6113
   27CHL1   H1B 3150   6.658   4.696   6.109  0.6079 -1.0008  0.4009
   27CHL1    C2 3151   6.725   4.772   6.288  0.5051  0.0478 -0.1073
   27CHL1   H2A 3152   6.621   4.783   6.326 -0.4125 -2.9683 -1.4701
   27CHL1   H2B 3153   6.794   4.848   6.330  0.6540  0.1749 -0.5791
   27CHL1   C20 3154   6.887   4.667   5.366  0.6176  0.8067 -0.3191
   27CHL1   H20 3155   6.980   4.727   5.358  0.4543  1.0083 -0.7223
   27CHL1   C21 3156   6.766   4.761   5.355 -0.5920  0.0769 -0.4714
   27CHL1  H21A 3157   6.675   4.709   5.392 -1.3849  1.2360 -0.7391
   27CHL1  H21B 3158   6.747   4.796   5.251 -1.1392  1.3787  0.0381
   27CHL1  H21C 3159   6.778   4.857   5.410 -0.6196  0.7504 -1.6210
   27CHL1   C22 3160   6.887   4.566   5.244 -0.5936  0.6077  0.0740
   27CHL1  H22A 3161   6.962   4.488   5.268 -0.6391  0.8903  1.1825
   27CHL1  H22B 3162   6.791   4.510   5.236 -0.8102  1.0018 -0.1250
   27CHL1   C23 3163   6.929   4.629   5.114 -0.6694  0.6971  0.0160
   27CHL1  H23A 3164   6.873   4.718   5.080 -1.9743  0.3890  1.2760
   27CHL1  H23B 3165   7.035   4.661   5.126 -0.2774 -0.8544  1.0032
   27CHL1   C24 3166   6.927   4.520   4.995  0.7082  0.3314 -0.4668
   27CHL1  H24A 3167   6.989   4.435   5.030 -1.2670 -1.4919 -1.1566
   27CHL1  H24B 3168   6.819   4.491   4.998  0.6633  0.5392  0.2489
   27CHL1   C25 3169   6.931   4.581   4.853  0.4723 -0.6256  0.0091
   27CHL1   H25 3170   6.913   4.497   4.782  1.7543 -0.7355 -0.2150
   27CHL1   C26 3171   6.820   4.682   4.829 -0.7783 -0.3538 -0.1051
   27CHL1  H26A 3172   6.797   4.710   4.724  0.9097  1.1834 -0.1367
   27CHL1  H26B 3173   6.731   4.643   4.883 -1.3978  1.1416  0.0192
   27CHL1  H26C 3174   6.842   4.774   4.888 -0.1643 -0.6228  0.0945
   27CHL1   C27 3175   7.067   4.624   4.823 -1.0072 -0.8999  1.1500
   27CHL1  H27A 3176   7.143   4.543   4.824  1.2285  0.8243 -3.1369
   27CHL1  H27B 3177   7.094   4.709   4.889 -1.5162  0.4024 -0.2602
   27CHL1  H27C 3178   7.068   4.654   4.716 -4.0673 -1.5552  0.8236
   28CHL1    C3 3179   3.716   2.915   6.861  0.0672  0.0194 -0.0204
   28CHL1    H3 3180   3.810   2.865   6.828  0.7270  1.9466 -1.2229
   28CHL1    O3 3181   3.723   2.949   6.998  0.3042 -0.0569 -0.0467
   28CHL1   H3' 3182   3.776   3.029   6.999  0.9465 -0.4255 -1.4916
   28CHL1    C4 3183   3.704   3.043   6.785 -0.0456  0.1233  0.6256
   28CHL1   H4A 3184   3.614   3.100   6.817 -1.6565 -0.1866 -2.8728
   28CHL1   H4B 3185   3.793   3.106   6.806 -1.3996  2.5159 -0.3642
   28CHL1    C5 3186   3.692   3.020   6.637 -0.5519 -0.2471  0.5486
   28CHL1    C6 3187   3.770   3.080   6.545  0.1556  0.5834 -0.2423
   28CHL1    H6 3188   3.845   3.149   6.585  1.2992 -1.0808  0.5842
   28CHL1    C7 3189   3.765   3.064   6.394  0.1021 -0.1125  0.0521
   28CHL1   H7A 3190   3.777   3.166   6.352 -0.2924  0.8532  2.1860
   28CHL1   H7B 3191   3.849   3.000   6.359 -1.6971 -1.4777 -2.0528
   28CHL1    C8 3192   3.639   2.989   6.344 -0.0475 -0.4863  0.1945
   28CHL1    H8 3193   3.562   3.068   6.357  0.3033 -0.5167  2.8998
   28CHL1   C14 3194   3.642   2.942   6.197 -0.2683  0.6152 -0.0138
   28CHL1   H14 3195   3.713   2.858   6.186 -1.0345  0.1327 -1.4718
   28CHL1   C15 3196   3.690   3.045   6.099  0.1109 -0.2572  0.3307
   28CHL1  H15A 3197   3.644   3.144   6.119  0.2629 -0.2891  0.8741
   28CHL1  H15B 3198   3.801   3.047   6.096  0.1280 -0.3861  0.8041
   28CHL1   C16 3199   3.644   2.992   5.964  0.1231 -0.4770  0.0513
   28CHL1  H16A 3200   3.579   3.075   5.929 -2.3435 -2.4474 -0.3321
   28CHL1  H16B 3201   3.727   2.976   5.892 -0.5901  0.9814 -1.1343
   28CHL1   C17 3202   3.561   2.869   5.989  0.0364  0.2184 -0.4364
   28CHL1   H17 3203   3.619   2.774   5.994 -2.0423 -1.1215 -0.5156
   28CHL1   C13 3204   3.511   2.886   6.137 -0.2766  0.2654  0.5059
   28CHL1   C18 3205   3.395   2.980   6.143  0.0769  0.1291 -0.0914
   28CHL1  H18A 3206   3.416   3.078   6.095  1.7863  0.6228  1.5534
   28CHL1  H18B 3207   3.304   2.933   6.100  0.5875 -2.9894  1.8696
   28CHL1  H18C 3208   3.378   3.009   6.249  0.5930 -3.0179  0.9736
   28CHL1   C12 3209   3.489   2.758   6.212 -0.0027 -0.4676  0.4923
   28CHL1  H12A 3210   3.383   2.724   6.206 -0.2714  0.2303  1.1902
   28CHL1  H12B 3211   3.562   2.678   6.185 -0.9369 -1.2390  0.1964
   28CHL1   C11 3212   3.488   2.780   6.374 -1.0617  0.2000  0.0528
   28CHL1  H11A 3213   3.392   2.834   6.388  0.0050  2.3030 -0.3115
   28CHL1  H11B 3214   3.491   2.680   6.422  0.9837  0.9449  1.5792
   28CHL1    C9 3215   3.599   2.872   6.430 -0.1210  0.2526 -0.2646
   28CHL1    H9 3216   3.686   2.803   6.435 -0.4339 -0.0756  0.9349
   28CHL1   C10 3217   3.589   2.913   6.585 -0.0601 -0.7384  0.3422
   28CHL1   C19 3218   3.448   2.978   6.602  0.0601  0.1852  0.4253
   28CHL1  H19A 3219   3.367   2.902   6.595  0.4661 -0.2542  0.4701
   28CHL1  H19B 3220   3.424   3.033   6.695 -1.0338  3.1125 -1.4176
   28CHL1  H19C 3221   3.416   3.044   6.518  1.3062 -0.0960 -0.2910
   28CHL1    C1 3222   3.594   2.787   6.679  0.0365  0.0866 -0.2135
   28CHL1   H1A 3223   3.503   2.728   6.660  0.9173 -0.6883 -2.3213
   28CHL1   H1B 3224   3.673   2.714   6.651  0.3014  0.9119 -1.7585
   28CHL1    C2 3225   3.595   2.818   6.830 -0.0244  0.1610  0.3321
   28CHL1   H2A 3226   3.623   2.733   6.896  1.5542 -1.3317 -2.0962
   28CHL1   H2B 3227   3.496   2.865   6.848  0.2405  1.5362 -1.4749
   28CHL1   C20 3228   3.459   2.839   5.872 -0.3942  0.0685  0.6769
   28CHL1   H20 3229   3.383   2.920   5.872  0.1321  0.6216  2.5649
   28CHL1   C21 3230   3.374   2.707   5.899  0.3322 -0.2066  0.0912
   28CHL1  H21A 3231   3.313   2.692   5.807 -0.1108 -0.0054  0.3462
   28CHL1  H21B 3232   3.302   2.730   5.981  1.1024  0.7626  0.5229
   28CHL1  H21C 3233   3.433   2.617   5.927 -0.8793 -1.3373 -0.8921
   28CHL1   C22 3234   3.517   2.843   5.736  0.3417  0.3448 -0.4198
   28CHL1  H22A 3235   3.592   2.925   5.726 -0.2764  1.0312  0.4466
   28CHL1  H22B 3236   3.566   2.744   5.742 -1.4442 -0.6620 -1.6422
   28CHL1   C23 3237   3.419   2.870   5.617 -0.0008 -0.2778  0.4197
   28CHL1  H23A 3238   3.333   2.800   5.623 -1.9076  1.9361  0.1538
   28CHL1  H23B 3239   3.376   2.972   5.625  1.9783  0.6635 -0.1806
   28CHL1   C24 3240   3.495   2.853   5.482 -0.7257 -0.5886 -0.1130
   28CHL1  H24A 3241   3.588   2.914   5.489 -0.9281 -0.0371 -1.8199
   28CHL1  H24B 3242   3.516   2.745   5.465 -0.9266 -0.4454 -1.4222
   28CHL1   C25 3243   3.412   2.908   5.361 -0.2184  0.4451 -0.1785
   28CHL1   H25 3244   3.315   2.854   5.372  0.0650  0.4116  3.5136
   28CHL1   C26 3245   3.399   3.059   5.363  0.5369  0.6541  0.1653
   28CHL1  H26A 3246   3.494   3.116   5.359  0.9922 -0.0266  0.9621
   28CHL1  H26B 3247   3.328   3.078   5.279 -0.0234 -1.5130  0.0862
   28CHL1  H26C 3248   3.343   3.094   5.452 -0.0107  2.7740 -0.9452
   28CHL1   C27 3249   3.479   2.866   5.231  0.5763  0.0564  0.1320
   28CHL1  H27A 3250   3.470   2.757   5.212  1.1969  0.2749 -1.5997
   28CHL1  H27B 3251   3.440   2.905   5.134  3.0381 -1.4951 -1.6161
   28CHL1  H27C 3252   3.585   2.897   5.236  0.1402  1.5085  1.2961
   29CHL1    C3 3253   6.028   4.613   6.626  0.1941  0.0376  0.4133
   29CHL1    H3 3254   6.103   4.532   6.615  0.6120  0.6554 -2.0399
   29CHL1    O3 3255   5.983   4.636   6.755 -0.1530  0.0182 -0.1505
   29CHL1   H3' 3256   5.904   4.691   6.755 -1.0441 -1.1212  2.1243
   29CHL1    C4 3257   6.089   4.736   6.563 -0.1013 -0.5040 -0.2207
   29CHL1   H4A 3258   6.020   4.822   6.576  1.1670  0.4600  0.2628
   29CHL1   H4B 3259   6.177   4.764   6.625 -0.2807  0.0179 -0.2008
   29CHL1    C5 3260   6.137   4.719   6.423 -0.7576  0.5821  0.0481
   29CHL1    C6 3261   6.264   4.729   6.383 -0.5055 -0.1658 -1.1978
   29CHL1    H6 3262   6.344   4.745   6.457  1.1663  1.2840 -3.1975
   29CHL1    C7 3263   6.310   4.727   6.235  0.0751  0.0511 -0.4418
   29CHL1   H7A 3264   6.368   4.820   6.217 -0.6863  0.9498  1.4266
   29CHL1   H7B 3265   6.367   4.633   6.219 -2.1836 -1.5824  0.6094
   29CHL1    C8 3266   6.197   4.721   6.132 -0.2370  0.0698 -0.0994
   29CHL1    H8 3267   6.159   4.824   6.116  0.8769  0.7548  1.4346
   29CHL1   C14 3268   6.253   4.677   5.999 -0.4391  0.5161 -0.3492
   29CHL1   H14 3269   6.293   4.574   6.000  2.0099  1.3852  0.1302
   29CHL1   C15 3270   6.364   4.759   5.933  0.2539  0.1414  0.9210
   29CHL1  H15A 3271   6.347   4.869   5.941 -2.5999  0.0481 -1.8647
   29CHL1  H15B 3272   6.465   4.729   5.968  0.1437 -2.5659 -0.8344
   29CHL1   C16 3273   6.351   4.726   5.780 -0.0112 -0.1351  0.0349
   29CHL1  H16A 3274   6.353   4.813   5.710  0.2384  1.1761  1.6211
   29CHL1  H16B 3275   6.442   4.665   5.760 -0.7250 -0.6010 -2.0404
   29CHL1   C17 3276   6.225   4.639   5.762  0.4583  0.0244 -0.2688
   29CHL1   H17 3277   6.245   4.531   5.778 -1.5159 -0.2857  0.3655
   29CHL1   C13 3278   6.141   4.659   5.892 -0.1648 -0.7009  0.2904
   29CHL1   C18 3279   6.071   4.802   5.871  0.0081  0.5948 -0.2076
   29CHL1  H18A 3280   6.143   4.878   5.833  1.4805 -1.3589 -1.5719
   29CHL1  H18B 3281   5.988   4.789   5.798 -1.0974 -0.0185  1.1208
   29CHL1  H18C 3282   6.022   4.824   5.968 -0.7081 -0.4043 -0.3328
   29CHL1   C12 3283   6.032   4.554   5.944 -0.7519 -0.4659  0.7241
   29CHL1  H12A 3284   5.964   4.519   5.863  1.2624  0.4188 -1.4421
   29CHL1  H12B 3285   6.090   4.461   5.960 -1.9035 -1.2610  0.4322
   29CHL1   C11 3286   5.970   4.595   6.080  0.9584  0.0980  0.2419
   29CHL1  H11A 3287   5.893   4.673   6.066 -0.7518 -1.0793  2.4674
   29CHL1  H11B 3288   5.912   4.507   6.113  1.2159  0.3478  1.4241
   29CHL1    C9 3289   6.080   4.629   6.183 -0.4618 -0.2656  0.0741
   29CHL1    H9 3290   6.126   4.530   6.205 -1.4732 -0.5007  1.2302
   29CHL1   C10 3291   6.032   4.682   6.320  0.5050  0.1654 -0.1771
   29CHL1   C19 3292   5.945   4.809   6.298  0.4051 -0.5441 -0.3995
   29CHL1  H19A 3293   6.014   4.894   6.276  0.5303  0.1226  2.2173
   29CHL1  H19B 3294   5.859   4.808   6.229  1.2174  3.2232 -1.7375
   29CHL1  H19C 3295   5.902   4.828   6.399 -1.7717 -2.5897 -0.8746
   29CHL1    C1 3296   5.941   4.567   6.387  0.0749  0.0241 -0.3491
   29CHL1   H1A 3297   5.848   4.556   6.327  0.6170 -1.3140 -0.9772
   29CHL1   H1B 3298   5.995   4.472   6.368 -0.5915 -0.6756  1.0309
   29CHL1    C2 3299   5.906   4.579   6.538  0.0450  0.4264  0.1589
   29CHL1   H2A 3300   5.850   4.491   6.573  0.1881  0.4682  0.5010
   29CHL1   H2B 3301   5.832   4.661   6.552  0.8246  0.7743  3.0915
   29CHL1   C20 3302   6.161   4.660   5.626  0.8839 -0.0815 -0.5738
   29CHL1   H20 3303   6.139   4.768   5.616  4.8811  0.9707  0.1563
   29CHL1   C21 3304   6.028   4.575   5.609 -0.0212  0.4149  0.3039
   29CHL1  H21A 3305   5.983   4.570   5.507  0.3755 -2.4558  0.1953
   29CHL1  H21B 3306   5.960   4.627   5.679  0.1174  0.0307  0.7264
   29CHL1  H21C 3307   6.049   4.472   5.646  1.5996  1.1953  1.6679
   29CHL1   C22 3308   6.261   4.615   5.522  0.1650  0.2606  0.4950
   29CHL1  H22A 3309   6.363   4.653   5.545  0.1047 -0.3400  1.8760
   29CHL1  H22B 3310   6.267   4.504   5.521 -0.9095  0.1859 -0.9492
   29CHL1   C23 3311   6.227   4.664   5.377  0.0705  0.0972 -0.0522
   29CHL1  H23A 3312   6.135   4.611   5.344 -0.7212  0.6317  1.2076
   29CHL1  H23B 3313   6.208   4.773   5.382  1.2068  0.3417 -0.7207
   29CHL1   C24 3314   6.334   4.643   5.271  0.4506  0.1741  0.3175
   29CHL1  H24A 3315   6.401   4.731   5.276 -0.6098  0.9510  1.5158
   29CHL1  H24B 3316   6.385   4.549   5.304  3.1567  1.6830  0.7343
   29CHL1   C25 3317   6.283   4.644   5.129  0.1508 -0.4722  0.6629
   29CHL1   H25 3318   6.376   4.634   5.068 -1.5139 -0.2833 -2.0691
   29CHL1   C26 3319   6.215   4.510   5.079 -0.4194 -0.6042 -0.3530
   29CHL1  H26A 3320   6.109   4.491   5.107 -0.3604 -2.1107 -1.0347
   29CHL1  H26B 3321   6.227   4.492   4.970  4.1994  0.5940 -0.2434
   29CHL1  H26C 3322   6.268   4.424   5.125  0.4447  0.2945  0.3570
   29CHL1   C27 3323   6.209   4.774   5.096 -0.2591  0.5307  0.4711
   29CHL1  H27A 3324   6.119   4.768   5.162 -0.0037 -1.4213  0.7121
   29CHL1  H27B 3325   6.267   4.868   5.108 -0.2664  0.7313 -0.8399
   29CHL1  H27C 3326   6.180   4.782   4.989 -0.6772 -2.7723  0.2312
   30CHL1    C3 3327   2.351   6.665   6.584 -0.3322  0.3088  0.5917
   30CHL1    H3 3328   2.413   6.749   6.548  0.3040 -0.7698 -0.9537
   30CHL1    O3 3329   2.313   6.687   6.716  0.2339 -0.2881 -0.4391
   30CHL1   H3' 3330   2.242   6.624   6.732 -0.7219  0.3409 -2.0164
   30CHL1    C4 3331   2.221   6.659   6.494 -0.7821 -0.5511 -0.2006
   30CHL1   H4A 3332   2.165   6.576   6.542 -1.5552  0.7206  1.1616
   30CHL1   H4B 3333   2.172   6.753   6.526  0.2270 -0.1878  0.3113
   30CHL1    C5 3334   2.253   6.648   6.347  0.3868  0.2978  0.4296
   30CHL1    C6 3335   2.209   6.737   6.255 -0.3337  0.4410  0.2514
   30CHL1    H6 3336   2.152   6.823   6.291  0.1459  0.1879  1.6836
   30CHL1    C7 3337   2.242   6.719   6.111 -0.0563 -0.3644  0.2127
   30CHL1   H7A 3338   2.151   6.736   6.050  0.5819  1.6410 -0.2622
   30CHL1   H7B 3339   2.305   6.807   6.086  4.3082 -2.2573  3.1936
   30CHL1    C8 3340   2.306   6.584   6.065  0.4271  0.8025 -0.7729
   30CHL1    H8 3341   2.225   6.508   6.058 -0.4765  1.7055 -0.4651
   30CHL1   C14 3342   2.375   6.580   5.924  0.4291 -0.1913 -0.0169
   30CHL1   H14 3343   2.459   6.652   5.936  0.2180  0.3173 -1.3830
   30CHL1   C15 3344   2.293   6.640   5.815 -0.2516 -0.4138  0.2807
   30CHL1  H15A 3345   2.194   6.590   5.819  1.2426 -3.5917  0.7420
   30CHL1  H15B 3346   2.286   6.751   5.813  2.9356 -0.1165 -2.0892
   30CHL1   C16 3347   2.367   6.596   5.684 -0.3852 -0.2340 -0.9653
   30CHL1  H16A 3348   2.306   6.526   5.624  0.3121 -3.5813  1.9144
   30CHL1  H16B 3349   2.425   6.676   5.632 -0.8025  1.0623  0.4760
   30CHL1   C17 3350   2.478   6.494   5.736 -0.5488 -0.3618 -0.0490
   30CHL1   H17 3351   2.572   6.548   5.761 -0.1923 -0.4765 -1.1058
   30CHL1   C13 3352   2.433   6.447   5.876  0.6377 -0.0882  0.6762
   30CHL1   C18 3353   2.323   6.334   5.859 -0.5600 -0.2501  0.2386
   30CHL1  H18A 3354   2.362   6.240   5.816  1.0506  1.5430 -2.5836
   30CHL1  H18B 3355   2.263   6.316   5.951 -0.4712  1.1622  0.6083
   30CHL1  H18C 3356   2.242   6.371   5.791 -0.6229 -0.2455  0.3159
   30CHL1   C12 3357   2.539   6.410   5.980  0.9420  0.3065  0.3824
   30CHL1  H12A 3358   2.583   6.310   5.958  1.8892  0.7522  0.2033
   30CHL1  H12B 3359   2.620   6.486   5.982  2.2873 -1.0480 -0.5335
   30CHL1   C11 3360   2.468   6.398   6.123 -0.3610  0.0978 -0.0624
   30CHL1  H11A 3361   2.390   6.320   6.108 -2.0703  1.6828  0.2558
   30CHL1  H11B 3362   2.546   6.369   6.197 -0.1772  0.5652 -0.0722
   30CHL1    C9 3363   2.399   6.535   6.169 -0.0378 -0.2356 -0.6141
   30CHL1    H9 3364   2.480   6.611   6.181 -0.7447  0.5430 -0.6918
   30CHL1   C10 3365   2.343   6.529   6.312 -0.7520  0.1035 -0.9324
   30CHL1   C19 3366   2.264   6.392   6.338 -0.2728  0.3904  0.6912
   30CHL1  H19A 3367   2.327   6.301   6.332  0.1422  0.6770  0.6707
   30CHL1  H19B 3368   2.209   6.395   6.434  1.1589  3.9280  1.5588
   30CHL1  H19C 3369   2.195   6.388   6.251  3.8204 -1.1992 -2.8491
   30CHL1    C1 3370   2.466   6.525   6.413  0.7999  0.0673 -0.1484
   30CHL1   H1A 3371   2.513   6.425   6.415  2.0275  0.5696 -1.8678
   30CHL1   H1B 3372   2.542   6.599   6.380  0.5975  0.4327  0.1796
   30CHL1    C2 3373   2.435   6.543   6.569  0.3978 -0.7294 -0.0894
   30CHL1   H2A 3374   2.531   6.537   6.624 -0.0792 -2.7657  0.5868
   30CHL1   H2B 3375   2.373   6.459   6.607  0.8558 -0.5159  1.1738
   30CHL1   C20 3376   2.533   6.382   5.638 -0.4126  0.5642 -0.6049
   30CHL1   H20 3377   2.452   6.306   5.630  1.2881 -1.8625  2.6975
   30CHL1   C21 3378   2.646   6.298   5.689 -0.6699  0.2814 -0.0002
   30CHL1  H21A 3379   2.732   6.360   5.721 -0.2388 -0.4365  0.2413
   30CHL1  H21B 3380   2.694   6.222   5.623  0.8313  1.4065 -0.2565
   30CHL1  H21C 3381   2.618   6.246   5.783 -0.3922 -0.8910 -0.5378
   30CHL1   C22 3382   2.564   6.457   5.504  0.7026  0.3954  0.0590
   30CHL1  H22A 3383   2.477   6.515   5.467 -0.2167 -1.8552 -1.5311
   30CHL1  H22B 3384   2.642   6.534   5.524 -0.5721  1.6004  0.5730
   30CHL1   C23 3385   2.604   6.363   5.396  0.5765  1.1472  0.8483
   30CHL1  H23A 3386   2.688   6.291   5.406  0.7357  0.6358 -2.7532
   30CHL1  H23B 3387   2.522   6.288   5.389  1.3822  0.2804  0.4845
   30CHL1   C24 3388   2.621   6.433   5.260  0.0704  0.7192 -0.2756
   30CHL1  H24A 3389   2.525   6.488   5.250 -0.4335 -0.5617 -3.8524
   30CHL1  H24B 3390   2.700   6.511   5.262  0.8772 -0.0931  0.9967
   30CHL1   C25 3391   2.618   6.335   5.139  0.1504 -0.6486  0.2699
   30CHL1   H25 3392   2.521   6.280   5.137  0.8183 -1.8575  0.2741
   30CHL1   C26 3393   2.627   6.425   5.007  0.2950 -0.1075 -0.3518
   30CHL1  H26A 3394   2.617   6.364   4.915  2.7671  0.4775 -1.0667
   30CHL1  H26B 3395   2.538   6.492   5.013  1.1993  1.2527 -1.6231
   30CHL1  H26C 3396   2.724   6.478   5.002  0.7458 -0.8830 -0.0361
   30CHL1   C27 3397   2.739   6.244   5.143  0.2024 -0.2822 -0.2921
   30CHL1  H27A 3398   2.721   6.168   5.064 -0.0923 -2.5629  1.8464
   30CHL1  H27B 3399   2.835   6.299   5.133  0.5136 -1.1271 -2.6043
   30CHL1  H27C 3400   2.744   6.184   5.236 -1.7310  1.0040  0.6991
   31CHL1    C3 3401   6.259   6.273   6.365 -0.1577 -0.6141  0.3994
   31CHL1    H3 3402   6.334   6.194   6.384 -1.2058 -1.3100  1.7849
   31CHL1    O3 3403   6.240   6.334   6.486  0.2627 -0.5279  0.1722
   31CHL1   H3' 3404   6.163   6.390   6.485  0.6892  0.1968  2.3947
   31CHL1    C4 3405   6.323   6.370   6.254  0.8243 -0.0217 -0.1721
   31CHL1   H4A 3406   6.263   6.463   6.243  1.1237  0.0459 -1.4337
   31CHL1   H4B 3407   6.427   6.394   6.281  0.5217  0.4662  0.5796
   31CHL1    C5 3408   6.318   6.307   6.116 -0.0089  0.2282  0.0974
   31CHL1    C6 3409   6.433   6.298   6.038  0.4489  0.1197  1.1120
   31CHL1    H6 3410   6.522   6.338   6.088 -0.0086  1.9840  0.5228
   31CHL1    C7 3411   6.437   6.255   5.893 -0.4178 -0.1057  0.1594
   31CHL1   H7A 3412   6.496   6.329   5.835 -2.2002 -1.2073 -3.3219
   31CHL1   H7B 3413   6.499   6.165   5.879  1.6248  0.9903  1.6366
   31CHL1    C8 3414   6.292   6.244   5.844  0.1308 -0.2758  0.4321
   31CHL1    H8 3415   6.249   6.344   5.825 -2.0667 -0.7313  2.5102
   31CHL1   C14 3416   6.293   6.166   5.711 -0.1081  0.5802  0.4718
   31CHL1   H14 3417   6.304   6.062   5.749 -1.7588 -0.7781 -2.4659
   31CHL1   C15 3418   6.405   6.200   5.605  0.4983 -0.3565  0.4910
   31CHL1  H15A 3419   6.416   6.309   5.585  3.5547 -0.7813 -0.8100
   31CHL1  H15B 3420   6.505   6.157   5.628  1.8111  1.7026 -0.9823
   31CHL1   C16 3421   6.350   6.139   5.476 -0.0575 -0.8029  0.7268
   31CHL1  H16A 3422   6.362   6.203   5.386  2.8584 -2.8522 -0.4850
   31CHL1  H16B 3423   6.410   6.050   5.445  0.6216 -0.0711 -0.1094
   31CHL1   C17 3424   6.199   6.105   5.500 -0.2395  0.6570 -0.3088
   31CHL1   H17 3425   6.196   5.997   5.528  0.3970  0.5834 -0.5035
   31CHL1   C13 3426   6.164   6.166   5.635  0.3425  0.3553  0.3057
   31CHL1   C18 3427   6.123   6.305   5.596 -0.3033 -0.4150  0.1713
   31CHL1  H18A 3428   6.032   6.307   5.532  0.9336 -0.7354 -1.6562
   31CHL1  H18B 3429   6.087   6.367   5.681 -2.0265 -0.2336 -0.6372
   31CHL1  H18C 3430   6.194   6.369   5.540 -0.1970  0.9865  1.8181
   31CHL1   C12 3431   6.057   6.093   5.727  0.1070  0.0286 -0.5297
   31CHL1  H12A 3432   5.952   6.095   5.691  0.0797  0.4224 -0.4320
   31CHL1  H12B 3433   6.090   5.988   5.744 -3.1179 -1.1589 -0.7791
   31CHL1   C11 3434   6.054   6.157   5.864  0.2134 -0.0841 -0.1827
   31CHL1  H11A 3435   6.002   6.254   5.855 -2.7983 -1.6452 -0.6814
   31CHL1  H11B 3436   5.991   6.096   5.932  0.1790  1.2286  1.0068
   31CHL1    C9 3437   6.193   6.179   5.937  0.7704  0.7387 -0.0096
   31CHL1    H9 3438   6.232   6.077   5.960  0.0081  0.3714 -0.3188
   31CHL1   C10 3439   6.179   6.259   6.064 -0.3218  0.5870  0.4519
   31CHL1   C19 3440   6.083   6.385   6.053 -0.3464 -0.1604 -0.2750
   31CHL1  H19A 3441   5.982   6.349   6.023  0.8782 -1.5113 -3.1323
   31CHL1  H19B 3442   6.079   6.445   6.146  3.2225 -1.3572  0.8136
   31CHL1  H19C 3443   6.120   6.446   5.969 -0.5845  1.2346  0.6056
   31CHL1    C1 3444   6.123   6.166   6.171 -0.3445  0.5249 -0.5489
   31CHL1   H1A 3445   6.017   6.139   6.146  0.0944  0.7072 -2.8690
   31CHL1   H1B 3446   6.191   6.078   6.174  0.5206  1.1665 -1.1151
   31CHL1    C2 3447   6.123   6.224   6.315 -0.9213  0.6861 -0.3390
   31CHL1   H2A 3448   6.094   6.146   6.389 -1.0228 -1.3984 -2.4635
   31CHL1   H2B 3449   6.053   6.309   6.330 -3.3166 -1.2280 -0.0624
   31CHL1   C20 3450   6.115   6.107   5.370  0.7100 -0.4105  0.5525
   31CHL1   H20 3451   6.113   6.208   5.325 -0.4843 -0.4073  0.5731
   31CHL1   C21 3452   5.960   6.079   5.394  0.1125 -0.5841  0.0737
   31CHL1  H21A 3453   5.906   6.077   5.297  0.9897  1.2367 -0.4892
   31CHL1  H21B 3454   5.908   6.154   5.457 -2.4163 -1.1578 -1.1796
   31CHL1  H21C 3455   5.938   5.980   5.440 -0.5671  0.5059  2.2391
   31CHL1   C22 3456   6.168   6.008   5.256 -0.2734  0.6119 -0.1188
   31CHL1  H22A 3457   6.278   6.022   5.246 -0.0018 -0.9570  0.4303
   31CHL1  H22B 3458   6.149   5.903   5.286  3.9849 -0.4561 -0.5379
   31CHL1   C23 3459   6.110   6.044   5.113  0.2175  0.0283  0.7840
   31CHL1  H23A 3460   6.001   6.027   5.101  0.3685 -0.8432  0.5628
   31CHL1  H23B 3461   6.117   6.154   5.095 -0.6514  0.0865  0.7887
   31CHL1   C24 3462   6.178   5.972   4.996  0.0385 -1.1787 -0.9713
   31CHL1  H24A 3463   6.149   6.019   4.899 -1.4111  1.9334  0.8237
   31CHL1  H24B 3464   6.286   5.998   5.003 -0.4178  0.3272  2.5881
   31CHL1   C25 3465   6.174   5.819   4.989  0.2550 -0.1017  0.0303
   31CHL1   H25 3466   6.227   5.780   5.078  0.8912 -0.7431 -0.6159
   31CHL1   C26 3467   6.035   5.755   4.994  0.1593  0.1552  0.1051
   31CHL1  H26A 3468   6.040   5.650   4.958 -2.5610 -0.1474  0.3916
   31CHL1  H26B 3469   5.993   5.748   5.096  0.5215 -1.8018  0.1578
   31CHL1  H26C 3470   5.978   5.809   4.915  1.2168 -1.2779 -1.7233
   31CHL1   C27 3471   6.260   5.770   4.871 -0.3528  0.0081  0.2945
   31CHL1  H27A 3472   6.213   5.791   4.773 -2.0443  3.0236  1.6356
   31CHL1  H27B 3473   6.363   5.812   4.870 -0.3504  0.0576 -1.7095
   31CHL1  H27C 3474   6.266   5.659   4.861 -0.1720  0.1377 -1.4167
   32CHL1    C3 3475   1.778   3.951   6.676  0.1248 -0.6565  0.3679
   32CHL1    H3 3476   1.852   3.871   6.655  0.8669  0.0739  0.1505
   32CHL1    O3 3477   1.725   3.940   6.810 -0.7428  0.4630 -0.0683
   32CHL1   H3' 3478   1.719   4.027   6.849 -2.5460  0.2625  0.2212
   32CHL1    C4 3479   1.861   4.087   6.659  0.5942 -0.8236 -0.1623
   32CHL1   H4A 3480   1.789   4.170   6.677 -0.4911 -1.5688 -0.9264
   32CHL1   H4B 3481   1.937   4.093   6.739 -1.6571  0.3785  2.0382
   32CHL1    C5 3482   1.910   4.106   6.519  0.3642 -0.6196 -0.2201
   32CHL1    C6 3483   2.042   4.114   6.490  0.1629  0.5624  0.5720
   32CHL1    H6 3484   2.107   4.097   6.577 -0.1309 -1.1769  0.4819
   32CHL1    C7 3485   2.101   4.125   6.351 -0.1047  0.3153  0.0406
   32CHL1   H7A 3486   2.179   4.204   6.354  2.4706 -2.1027  0.1905
   32CHL1   H7B 3487   2.147   4.028   6.323 -1.5358 -1.3850  2.9925
   32CHL1    C8 3488   1.985   4.161   6.250 -0.1745  0.2179  0.7128
   32CHL1    H8 3489   1.965   4.270   6.258 -2.4523 -0.2571  2.7917
   32CHL1   C14 3490   2.044   4.144   6.112 -0.2890 -0.3219 -0.6740
   32CHL1   H14 3491   2.079   4.039   6.114  3.7166  0.8583 -0.9686
   32CHL1   C15 3492   2.174   4.216   6.077  0.6951  0.3454 -0.7357
   32CHL1  H15A 3493   2.169   4.323   6.105  0.0924  0.3005 -0.6584
   32CHL1  H15B 3494   2.270   4.175   6.113  0.3167 -0.6221 -0.7863
   32CHL1   C16 3495   2.183   4.204   5.925 -0.0221  0.2519  0.2022
   32CHL1  H16A 3496   2.182   4.311   5.895  2.8409 -0.3651 -2.6857
   32CHL1  H16B 3497   2.277   4.161   5.885 -1.1209  0.1209 -2.4596
   32CHL1   C17 3498   2.050   4.130   5.876  0.0723  0.2438  0.0072
   32CHL1   H17 3499   2.079   4.023   5.887  0.6502  0.4263  0.2887
   32CHL1   C13 3500   1.952   4.155   5.986  0.0491 -0.5063 -0.2731
   32CHL1   C18 3501   1.902   4.300   5.970  1.3931 -0.7934  0.6972
   32CHL1  H18A 3502   1.827   4.304   5.888  1.2701 -1.9643  0.7393
   32CHL1  H18B 3503   1.846   4.332   6.061 -0.8953 -0.2413 -0.8106
   32CHL1  H18C 3504   1.971   4.387   5.967 -2.3059  2.4519 -3.4794
   32CHL1   C12 3505   1.834   4.054   6.006  0.6411 -0.7403 -0.6193
   32CHL1  H12A 3506   1.762   4.070   5.923 -0.8714  1.2549  0.9525
   32CHL1  H12B 3507   1.869   3.949   6.012 -2.9727 -2.0242  0.9745
   32CHL1   C11 3508   1.767   4.082   6.142 -0.3890 -0.3038 -0.6020
   32CHL1  H11A 3509   1.727   4.185   6.153 -0.7996 -0.7151  2.4157
   32CHL1  H11B 3510   1.681   4.013   6.148  1.1181 -2.5615 -2.9271
   32CHL1    C9 3511   1.863   4.075   6.271 -0.0682  0.1930 -0.3501
   32CHL1    H9 3512   1.889   3.967   6.267 -1.7602 -0.2600  0.2370
   32CHL1   C10 3513   1.798   4.094   6.411  0.5059 -0.0102  0.6972
   32CHL1   C19 3514   1.700   4.220   6.420  0.6187 -0.0429 -0.4415
   32CHL1  H19A 3515   1.745   4.320   6.402 -0.2592  0.0832 -2.2132
   32CHL1  H19B 3516   1.627   4.209   6.337  1.5637 -0.1579 -1.2750
   32CHL1  H19C 3517   1.645   4.221   6.517  0.4672  0.2763 -0.5306
   32CHL1    C1 3518   1.705   3.966   6.436  0.0630  0.2165 -0.1633
   32CHL1   H1A 3519   1.612   3.965   6.374 -0.9189 -2.9768  1.1353
   32CHL1   H1B 3520   1.754   3.870   6.412  0.5395  0.4348 -0.0643
   32CHL1    C2 3521   1.659   3.952   6.581  0.2432 -0.4063  0.4637
   32CHL1   H2A 3522   1.594   3.865   6.603  1.3215 -0.9617  1.5720
   32CHL1   H2B 3523   1.596   4.039   6.610  0.3758 -0.5213  1.1029
   32CHL1   C20 3524   2.006   4.167   5.732  0.0608 -0.1005 -0.2018
   32CHL1   H20 3525   1.927   4.244   5.733 -1.6502 -1.7310 -2.0823
   32CHL1   C21 3526   1.938   4.049   5.655 -0.3953  0.1815  0.5850
   32CHL1  H21A 3527   2.014   3.970   5.639  1.2545  1.7504  0.3251
   32CHL1  H21B 3528   1.904   4.082   5.555 -0.0300 -1.1156  0.0130
   32CHL1  H21C 3529   1.845   4.001   5.692 -1.6675  1.0775 -1.2959
   32CHL1   C22 3530   2.123   4.217   5.641  0.2876  0.8758  1.0821
   32CHL1  H22A 3531   2.168   4.306   5.690 -2.4170  2.6391  0.5656
   32CHL1  H22B 3532   2.208   4.145   5.645 -0.0579  0.0634 -2.7322
   32CHL1   C23 3533   2.087   4.264   5.500 -0.8512 -0.5487 -0.1579
   32CHL1  H23A 3534   2.025   4.188   5.448 -1.3022 -0.8869  0.8308
   32CHL1  H23B 3535   2.025   4.355   5.518 -0.6145 -0.2318 -0.9216
   32CHL1   C24 3536   2.214   4.281   5.416  0.4686 -0.7126  0.4927
   32CHL1  H24A 3537   2.280   4.350   5.472  0.2094  0.5380 -0.6834
   32CHL1  H24B 3538   2.266   4.183   5.412 -0.5326 -1.2334 -0.4895
   32CHL1   C25 3539   2.187   4.322   5.269 -0.0950 -0.6440 -0.3192
   32CHL1   H25 3540   2.104   4.396   5.269  0.9043  0.5879  2.0374
   32CHL1   C26 3541   2.302   4.392   5.192 -0.2188  0.0289 -0.2791
   32CHL1  H26A 3542   2.331   4.474   5.261 -0.2508 -0.1410 -0.0630
   32CHL1  H26B 3543   2.386   4.324   5.168 -0.3655  0.0604 -0.8864
   32CHL1  H26C 3544   2.251   4.433   5.102  0.9234  1.6094 -0.2364
   32CHL1   C27 3545   2.144   4.194   5.191  0.5796 -1.2946  0.3591
   32CHL1  H27A 3546   2.061   4.136   5.238  0.6464 -0.7085  1.2118
   32CHL1  H27B 3547   2.122   4.214   5.084  0.4941  2.5970  0.9626
   32CHL1  H27C 3548   2.229   4.123   5.182  2.4309  1.0582 -3.5389
   33CHL1    C3 3549   6.785   4.136   6.475 -0.6317 -0.1195  0.0085
   33CHL1    H3 3550   6.858   4.219   6.462  1.1273 -1.7700 -1.2266
   33CHL1    O3 3551   6.785   4.098   6.611  0.2854 -0.7232 -0.5385
   33CHL1   H3' 3552   6.730   4.167   6.649 -1.3058 -2.6542  0.8576
   33CHL1    C4 3553   6.643   4.179   6.435  0.1010  0.3090 -0.3979
   33CHL1   H4A 3554   6.572   4.098   6.462 -1.0809  0.9789 -1.4200
   33CHL1   H4B 3555   6.624   4.265   6.502 -0.2381 -0.6787  0.8222
   33CHL1    C5 3556   6.630   4.219   6.285 -0.1634 -0.2997 -0.6708
   33CHL1    C6 3557   6.574   4.340   6.242  0.3414  0.1281  0.0473
   33CHL1    H6 3558   6.531   4.409   6.316 -1.8729 -0.6983 -0.3886
   33CHL1    C7 3559   6.552   4.375   6.100 -0.1391 -0.1513 -0.3376
   33CHL1   H7A 3560   6.446   4.410   6.096 -0.1406  0.0776  1.0670
   33CHL1   H7B 3561   6.621   4.458   6.074 -0.5985  0.2258 -0.3714
   33CHL1    C8 3562   6.580   4.255   6.006 -0.4559 -0.1193  0.2398
   33CHL1    H8 3563   6.489   4.192   6.017 -0.1939 -0.3196  1.3404
   33CHL1   C14 3564   6.592   4.297   5.856  0.1370  0.5536 -0.2506
   33CHL1   H14 3565   6.683   4.361   5.848  0.0914  0.4542 -2.1729
   33CHL1   C15 3566   6.483   4.374   5.796  0.0984 -0.3322  0.4604
   33CHL1  H15A 3567   6.385   4.324   5.812 -1.3034  1.9557 -0.4330
   33CHL1  H15B 3568   6.481   4.474   5.845 -0.7001 -0.8301  1.4976
   33CHL1   C16 3569   6.523   4.375   5.648  0.3464  0.0772 -0.8857
   33CHL1  H16A 3570   6.434   4.372   5.581 -0.6654  0.4263  0.4079
   33CHL1  H16B 3571   6.567   4.471   5.616  1.5948 -0.5438 -1.1224
   33CHL1   C17 3572   6.628   4.267   5.629 -0.1904  0.7271  0.7028
   33CHL1   H17 3573   6.725   4.321   5.634  0.1168  0.0533  3.5736
   33CHL1   C13 3574   6.627   4.184   5.758  0.4944 -0.9849  0.4479
   33CHL1   C18 3575   6.521   4.076   5.749  0.0667  0.0728  0.1083
   33CHL1  H18A 3576   6.423   4.112   5.713 -1.0710 -0.3227  2.5499
   33CHL1  H18B 3577   6.544   3.991   5.681 -1.4986 -0.7604  0.5658
   33CHL1  H18C 3578   6.508   4.029   5.849  0.9308  1.9267  1.1475
   33CHL1   C12 3579   6.761   4.117   5.795 -0.1169  0.0296 -0.7502
   33CHL1  H12A 3580   6.779   4.025   5.735 -1.9249 -0.8906  0.0433
   33CHL1  H12B 3581   6.846   4.187   5.785 -1.5530  2.0112  0.3224
   33CHL1   C11 3582   6.760   4.071   5.942 -0.2684 -0.2799  0.0904
   33CHL1  H11A 3583   6.695   3.981   5.944 -0.4347 -0.1964 -0.9639
   33CHL1  H11B 3584   6.866   4.052   5.967 -0.0892  1.5705  0.9458
   33CHL1    C9 3585   6.701   4.175   6.043 -0.3679 -0.0930 -0.7693
   33CHL1    H9 3586   6.786   4.246   6.049  0.8011 -1.5738  1.5348
   33CHL1   C10 3587   6.686   4.114   6.190  0.0686 -0.5709  0.0811
   33CHL1   C19 3588   6.581   3.999   6.179 -0.6210  0.1626 -0.2844
   33CHL1  H19A 3589   6.484   4.041   6.143  0.0310  0.6842 -1.4946
   33CHL1  H19B 3590   6.607   3.909   6.120 -1.9112 -0.6061  0.2636
   33CHL1  H19C 3591   6.553   3.960   6.279 -1.6850  0.3728 -0.4817
   33CHL1    C1 3592   6.829   4.073   6.238  0.4737 -0.5633  0.1985
   33CHL1   H1A 3593   6.876   3.988   6.182  1.5628 -0.4918  0.9566
   33CHL1   H1B 3594   6.904   4.155   6.233  0.5233 -0.6749 -2.1293
   33CHL1    C2 3595   6.837   4.023   6.390 -0.5661  0.3825  0.0277
   33CHL1   H2A 3596   6.942   3.994   6.414 -0.4377 -0.7442 -1.7449
   33CHL1   H2B 3597   6.779   3.928   6.400  0.3899 -0.5757 -2.7250
   33CHL1   C20 3598   6.615   4.195   5.494  0.8823  0.9657  0.4859
   33CHL1   H20 3599   6.515   4.148   5.488  0.7676  1.2998 -4.5392
   33CHL1   C21 3600   6.717   4.079   5.478  0.1875  0.2672  0.1223
   33CHL1  H21A 3601   6.817   4.120   5.502  0.7211 -0.5344 -0.6817
   33CHL1  H21B 3602   6.728   4.035   5.376  0.7205  1.9721 -0.5994
   33CHL1  H21C 3603   6.687   3.992   5.539  2.9941 -2.8848 -2.6209
   33CHL1   C22 3604   6.632   4.288   5.373  0.2669 -0.5668 -0.2827
   33CHL1  H22A 3605   6.589   4.388   5.397 -0.9749 -0.4004 -2.8830
   33CHL1  H22B 3606   6.742   4.295   5.364  0.2299 -2.0154 -2.7425
   33CHL1   C23 3607   6.560   4.247   5.242  0.2082 -0.0123 -0.3048
   33CHL1  H23A 3608   6.584   4.140   5.227  0.9389 -0.1432  1.5158
   33CHL1  H23B 3609   6.450   4.256   5.256  0.0193 -3.5166  1.5741
   33CHL1   C24 3610   6.595   4.330   5.119 -0.7684 -0.3025  0.8969
   33CHL1  H24A 3611   6.574   4.437   5.138  1.0932  0.1612  0.5793
   33CHL1  H24B 3612   6.703   4.310   5.099 -0.7850  0.5442 -0.1350
   33CHL1   C25 3613   6.522   4.283   4.987  0.4274 -0.4430  0.1230
   33CHL1   H25 3614   6.423   4.332   4.981 -0.2445 -1.7271  0.3056
   33CHL1   C26 3615   6.610   4.343   4.873 -0.0884 -0.4558  0.5045
   33CHL1  H26A 3616   6.549   4.334   4.781  0.3907 -1.4468  0.2667
   33CHL1  H26B 3617   6.637   4.447   4.899 -0.8357 -0.5562  1.7684
   33CHL1  H26C 3618   6.705   4.287   4.858  0.2413  0.1505  0.3031
   33CHL1   C27 3619   6.503   4.126   4.969 -0.8023 -0.5819 -0.2606
   33CHL1  H27A 3620   6.444   4.112   4.876 -1.1198  0.1589 -0.1770
   33CHL1  H27B 3621   6.601   4.075   4.979  0.1110  0.9826 -0.8564
   33CHL1  H27C 3622   6.441   4.085   5.052 -0.2396 -2.2830 -0.6427
   34CHL1    C3 3623   0.855   6.445   6.630  0.2185 -0.2205  0.6855
   34CHL1    H3 3624   0.917   6.535   6.607 -1.2366  0.6576  0.0919
   34CHL1    O3 3625   0.808   6.464   6.752  0.0519  0.1678 -0.4687
   34CHL1   H3' 3626   0.745   6.396   6.777 -0.6157  0.3227 -1.6504
   34CHL1    C4 3627   0.738   6.438   6.525  0.9836 -0.7154  0.2356
   34CHL1   H4A 3628   0.682   6.346   6.554  0.2746 -0.6663 -0.9540
   34CHL1   H4B 3629   0.677   6.530   6.534  1.0611 -0.5943 -0.4371
   34CHL1    C5 3630   0.790   6.443   6.380 -0.4917  0.0817 -0.2969
   34CHL1    C6 3631   0.749   6.539   6.292 -0.1221 -0.4147  0.3651
   34CHL1    H6 3632   0.678   6.620   6.311  1.6673  1.3858 -0.2818
   34CHL1    C7 3633   0.806   6.528   6.148  0.4590 -0.5897 -0.1593
   34CHL1   H7A 3634   0.726   6.544   6.072  0.2898  0.7980  0.2884
   34CHL1   H7B 3635   0.881   6.609   6.135 -0.4633  1.0883  3.6483
   34CHL1    C8 3636   0.878   6.395   6.102 -0.1539 -0.1820  0.7576
   34CHL1    H8 3637   0.804   6.316   6.079  0.2193  0.1125 -1.7451
   34CHL1   C14 3638   0.964   6.429   5.977  0.4893  0.3240 -0.0041
   34CHL1   H14 3639   1.050   6.491   6.009 -0.4925  1.3373  0.7747
   34CHL1   C15 3640   0.893   6.497   5.858 -0.8198  0.4334  0.3379
   34CHL1  H15A 3641   0.797   6.444   5.841 -0.3071 -0.5318  0.3698
   34CHL1  H15B 3642   0.877   6.607   5.864 -1.9833  0.5767 -3.0545
   34CHL1   C16 3643   0.991   6.469   5.741 -0.2860 -0.3035 -0.9946
   34CHL1  H16A 3644   0.930   6.413   5.667 -0.0785 -1.2784 -0.4400
   34CHL1  H16B 3645   1.031   6.564   5.699 -2.0187  0.2444 -1.5053
   34CHL1   C17 3646   1.098   6.370   5.791 -0.3076  0.1185 -0.5345
   34CHL1   H17 3647   1.184   6.425   5.836  0.5671 -1.7982  0.2466
   34CHL1   C13 3648   1.038   6.306   5.921  0.0171 -0.3866  0.1194
   34CHL1   C18 3649   0.942   6.191   5.879 -0.0120 -0.7171  0.0933
   34CHL1  H18A 3650   0.887   6.172   5.974  0.1235  1.5186  0.6767
   34CHL1  H18B 3651   0.864   6.233   5.811  0.3094 -0.6122 -0.2126
   34CHL1  H18C 3652   0.992   6.097   5.849  0.9551  0.7175 -3.2763
   34CHL1   C12 3653   1.131   6.247   6.030  0.1781 -0.3428 -0.3368
   34CHL1  H12A 3654   1.185   6.153   6.005  0.8723 -0.5257  1.6649
   34CHL1  H12B 3655   1.206   6.327   6.047  0.0352 -0.7666  2.9468
   34CHL1   C11 3656   1.051   6.212   6.166 -0.8102 -0.5225  0.3735
   34CHL1  H11A 3657   0.996   6.122   6.130  1.4938 -1.7615 -0.2821
   34CHL1  H11B 3658   1.119   6.185   6.250 -2.2477 -0.9239  1.4419
   34CHL1    C9 3659   0.967   6.338   6.214  1.1675 -0.6785 -0.2768
   34CHL1    H9 3660   1.044   6.416   6.228 -0.5431  1.0154  0.1160
   34CHL1   C10 3661   0.895   6.325   6.351  0.9048  0.3952  0.1196
   34CHL1   C19 3662   0.829   6.179   6.346  0.2208  0.0721  0.0375
   34CHL1  H19A 3663   0.752   6.167   6.425  0.3789 -0.5421  0.1024
   34CHL1  H19B 3664   0.788   6.161   6.244 -1.7699 -0.9432  0.9425
   34CHL1  H19C 3665   0.911   6.109   6.373  0.5856 -0.3876 -2.0456
   34CHL1    C1 3666   0.999   6.327   6.476  0.0241  0.9272 -1.2856
   34CHL1   H1A 3667   1.064   6.239   6.461  0.9142  1.3222  0.0461
   34CHL1   H1B 3668   1.071   6.412   6.465 -1.3890  1.8842 -4.3217
   34CHL1    C2 3669   0.933   6.317   6.613  0.3816  0.4462 -0.2361
   34CHL1   H2A 3670   1.016   6.310   6.685  0.3674 -0.1961 -0.2789
   34CHL1   H2B 3671   0.863   6.232   6.629  0.6395  0.1863 -0.4846
   34CHL1   C20 3672   1.154   6.282   5.678  0.1622  0.0232 -0.0697
   34CHL1   H20 3673   1.071   6.233   5.623 -0.2502  1.2597 -0.5697
   34CHL1   C21 3674   1.258   6.179   5.730  0.3717  0.2828  0.1666
   34CHL1  H21A 3675   1.330   6.222   5.803  0.2999 -0.4087  0.6602
   34CHL1  H21B 3676   1.322   6.145   5.645  1.3659 -1.1485  1.4222
   34CHL1  H21C 3677   1.210   6.084   5.761 -1.5369  0.2791 -2.4996
   34CHL1   C22 3678   1.213   6.370   5.565  0.0858  0.3144 -0.1648
   34CHL1  H22A 3679   1.155   6.464   5.546 -0.1463 -0.2429 -2.4779
   34CHL1  H22B 3680   1.315   6.395   5.600 -0.0488  0.9042 -0.1675
   34CHL1   C23 3681   1.223   6.296   5.429  0.0805  0.1572  0.7800
   34CHL1  H23A 3682   1.305   6.342   5.370  1.0107 -0.7036  1.3623
   34CHL1  H23B 3683   1.253   6.191   5.453  0.2932  0.5577  2.3782
   34CHL1   C24 3684   1.107   6.323   5.336  0.0768  0.3581  0.3638
   34CHL1  H24A 3685   1.026   6.252   5.363  0.8766 -1.5003 -1.8024
   34CHL1  H24B 3686   1.080   6.430   5.348  0.0894  0.1386  2.6433
   34CHL1   C25 3687   1.136   6.282   5.182  0.4786  0.1846  0.4742
   34CHL1   H25 3688   1.039   6.298   5.131  0.3617 -1.6467  0.0332
   34CHL1   C26 3689   1.246   6.369   5.120  0.2266 -0.3811 -0.3811
   34CHL1  H26A 3690   1.346   6.364   5.168 -0.4858  0.6136  1.3104
   34CHL1  H26B 3691   1.245   6.366   5.009 -0.9104  1.4624 -0.4599
   34CHL1  H26C 3692   1.215   6.475   5.131  0.7231  0.2944 -4.2591
   34CHL1   C27 3693   1.160   6.135   5.152 -0.8078 -0.0201 -1.1881
   34CHL1  H27A 3694   1.250   6.108   5.211 -1.1519  2.9490  0.9317
   34CHL1  H27B 3695   1.079   6.065   5.183 -0.4644 -0.5128 -1.3804
   34CHL1  H27C 3696   1.178   6.119   5.044  0.5279  0.0062 -0.9844
   35CHL1    C3 3697   2.527   0.348   6.597 -0.2795 -0.0412  0.1233
   35CHL1    H3 3698   2.584   0.254   6.612  0.2098 -0.0112 -1.4169
   35CHL1    O3 3699   2.489   0.387   6.724 -0.2683 -0.0540 -0.5791
   35CHL1   H3' 3700   2.415   0.332   6.751 -0.8585  0.8737 -0.2829
   35CHL1    C4 3701   2.621   0.451   6.538  0.4647 -0.0840 -0.9463
   35CHL1   H4A 3702   2.560   0.543   6.530 -0.4488 -0.2145  2.6731
   35CHL1   H4B 3703   2.705   0.468   6.608  0.6595 -1.4770 -0.8122
   35CHL1    C5 3704   2.664   0.401   6.399  0.5622 -0.3583 -0.8474
   35CHL1    C6 3705   2.793   0.395   6.374 -0.2341 -0.3835  0.3221
   35CHL1    H6 3706   2.861   0.440   6.448 -0.6705 -1.6539  1.5312
   35CHL1    C7 3707   2.848   0.357   6.237 -0.3489 -0.2278  0.1866
   35CHL1   H7A 3708   2.922   0.436   6.211 -1.1022  0.1523 -0.8579
   35CHL1   H7B 3709   2.919   0.271   6.243  0.8883  0.8560  2.2518
   35CHL1    C8 3710   2.744   0.336   6.121 -0.0319  0.3005 -0.0720
   35CHL1    H8 3711   2.731   0.438   6.080  0.6254 -0.0527 -1.2028
   35CHL1   C14 3712   2.788   0.245   6.003 -0.4251 -1.5348 -0.0865
   35CHL1   H14 3713   2.807   0.144   6.046 -1.1436 -0.5685  2.7074
   35CHL1   C15 3714   2.913   0.297   5.936 -0.1146 -0.3625  0.6953
   35CHL1  H15A 3715   2.909   0.408   5.945 -1.7526 -0.4079  0.8968
   35CHL1  H15B 3716   3.004   0.261   5.989 -0.1661 -0.2141  0.8868
   35CHL1   C16 3717   2.915   0.243   5.792  0.1617  0.4265  0.5964
   35CHL1  H16A 3718   2.926   0.320   5.713 -0.2001 -1.5393 -1.4432
   35CHL1  H16B 3719   2.998   0.174   5.767  0.7589  0.8462  1.3901
   35CHL1   C17 3720   2.778   0.155   5.783  0.2979 -0.4648  0.3486
   35CHL1   H17 3721   2.788   0.059   5.838  0.8820  1.4292  3.8429
   35CHL1   C13 3722   2.685   0.237   5.885 -0.3849 -0.4791  0.6480
   35CHL1   C18 3723   2.652   0.374   5.824 -0.2785  0.1937 -0.2497
   35CHL1  H18A 3724   2.637   0.452   5.901 -2.6342 -0.7619  0.3306
   35CHL1  H18B 3725   2.736   0.408   5.758  0.1519  2.7815  1.4911
   35CHL1  H18C 3726   2.559   0.364   5.763  0.2112 -0.2088 -0.9503
   35CHL1   C12 3727   2.555   0.173   5.941 -0.0590  0.1375  0.4800
   35CHL1  H12A 3728   2.477   0.155   5.865  0.0614  0.4322  0.2854
   35CHL1  H12B 3729   2.586   0.078   5.990  0.5424  0.4919  0.7994
   35CHL1   C11 3730   2.508   0.249   6.065  0.0075 -0.3275  0.3145
   35CHL1  H11A 3731   2.472   0.342   6.015  2.2151 -0.9996 -2.8340
   35CHL1  H11B 3732   2.410   0.207   6.096 -1.5148  2.1614 -0.8358
   35CHL1    C9 3733   2.608   0.282   6.172 -0.2644  0.2497 -0.0331
   35CHL1    H9 3734   2.644   0.181   6.202  2.4170  0.7908 -1.1241
   35CHL1   C10 3735   2.550   0.355   6.292  0.1136  0.5691 -0.4310
   35CHL1   C19 3736   2.480   0.482   6.248 -0.0610  0.2830  0.3022
   35CHL1  H19A 3737   2.511   0.523   6.150 -2.7922  2.4486  0.2347
   35CHL1  H19B 3738   2.375   0.448   6.243  0.1886 -0.7414  1.5237
   35CHL1  H19C 3739   2.478   0.559   6.328  0.0364 -0.9194  1.4984
   35CHL1    C1 3740   2.452   0.260   6.372 -0.8273 -0.6375  0.3425
   35CHL1   H1A 3741   2.362   0.246   6.308 -1.3200 -2.3907  1.3800
   35CHL1   H1B 3742   2.499   0.161   6.386 -1.6786 -1.0924  0.0241
   35CHL1    C2 3743   2.406   0.308   6.509  0.8444 -0.5512 -0.4582
   35CHL1   H2A 3744   2.343   0.229   6.555  0.0413  0.0535 -0.4984
   35CHL1   H2B 3745   2.344   0.397   6.486  1.4578 -0.0263 -0.1140
   35CHL1   C20 3746   2.733   0.138   5.645 -0.3583  0.3086 -0.4067
   35CHL1   H20 3747   2.667   0.222   5.615 -0.6616  0.2875  0.1911
   35CHL1   C21 3748   2.631   0.018   5.637 -0.1722 -0.0021  0.1054
   35CHL1  H21A 3749   2.591  -0.004   5.536  0.3849 -0.0213 -0.1104
   35CHL1  H21B 3750   2.548   0.064   5.695  1.4357  1.6839  1.1717
   35CHL1  H21C 3751   2.667  -0.073   5.691 -0.0482 -0.2102 -0.3225
   35CHL1   C22 3752   2.845   0.124   5.539 -0.1113  0.5943 -0.0696
   35CHL1  H22A 3753   2.896   0.221   5.525  0.0052  0.3846 -1.1675
   35CHL1  H22B 3754   2.908   0.037   5.568  0.1764  1.0897  0.8317
   35CHL1   C23 3755   2.792   0.091   5.401  0.6842  0.5660  0.2499
   35CHL1  H23A 3756   2.757  -0.014   5.397  1.6361  0.2704 -0.9306
   35CHL1  H23B 3757   2.700   0.150   5.378  0.1510 -0.5172 -0.5102
   35CHL1   C24 3758   2.896   0.097   5.282  0.5216  0.2710  0.0042
   35CHL1  H24A 3759   2.984   0.164   5.296 -0.4209  1.4972  0.2196
   35CHL1  H24B 3760   2.937  -0.005   5.268 -0.6927  0.0123 -1.9330
   35CHL1   C25 3761   2.849   0.138   5.146  0.2749  0.2912 -0.0211
   35CHL1   H25 3762   2.784   0.225   5.165 -1.9143 -1.0489 -1.0594
   35CHL1   C26 3763   2.968   0.194   5.061  0.2628 -0.4167  0.3862
   35CHL1  H26A 3764   2.956   0.193   4.951 -1.1985  0.7007  0.5021
   35CHL1  H26B 3765   2.975   0.298   5.100  3.5022 -0.0923 -0.7674
   35CHL1  H26C 3766   3.047   0.118   5.081 -0.1434 -1.3680 -1.4418
   35CHL1   C27 3767   2.774   0.022   5.067  0.2376  0.4709 -0.0137
   35CHL1  H27A 3768   2.743   0.062   4.968 -0.0603  1.1129  0.3348
   35CHL1  H27B 3769   2.841  -0.066   5.061 -0.4150  0.0451 -1.8255
   35CHL1  H27C 3770   2.677   0.003   5.119  0.1839  2.3395  0.6496
   36CHL1    C3 3771   6.001   3.735   6.643 -0.5757  0.0703 -0.5261
   36CHL1    H3 3772   6.060   3.819   6.600  0.6978 -0.8585 -0.6396
   36CHL1    O3 3773   6.011   3.752   6.781  0.5365 -0.1135 -0.2254
   36CHL1   H3' 3774   6.045   3.666   6.808 -2.7033 -1.8343 -1.0992
   36CHL1    C4 3775   5.861   3.751   6.604  0.4452  0.6415  0.2727
   36CHL1   H4A 3776   5.790   3.685   6.659 -0.8318  1.0303 -0.8566
   36CHL1   H4B 3777   5.827   3.853   6.632 -1.2944  0.4327 -0.9533
   36CHL1    C5 3778   5.829   3.720   6.461 -0.3286 -0.4005  0.1471
   36CHL1    C6 3779   5.752   3.809   6.396 -0.6588 -0.2519  0.0094
   36CHL1    H6 3780   5.710   3.894   6.451 -0.3615  2.0496 -3.0322
   36CHL1    C7 3781   5.704   3.786   6.253 -0.2743 -0.6783 -0.1439
   36CHL1   H7A 3782   5.596   3.809   6.243  0.1520  1.6206 -0.0392
   36CHL1   H7B 3783   5.760   3.855   6.187 -0.2015 -1.0137 -0.4349
   36CHL1    C8 3784   5.740   3.654   6.195  0.4515  0.2041  0.4883
   36CHL1    H8 3785   5.659   3.581   6.218 -0.8723  1.4885  0.0702
   36CHL1   C14 3786   5.758   3.667   6.042 -0.3959 -0.6406  0.0938
   36CHL1   H14 3787   5.855   3.721   6.033  0.5099 -2.1903  0.1613
   36CHL1   C15 3788   5.655   3.750   5.966 -0.2241 -0.2108  0.7105
   36CHL1  H15A 3789   5.555   3.732   6.011 -1.5253  3.4923 -0.3839
   36CHL1  H15B 3790   5.677   3.859   5.962 -1.1095 -0.0336 -2.8843
   36CHL1   C16 3791   5.668   3.698   5.819 -0.6815 -0.1406 -0.2742
   36CHL1  H16A 3792   5.577   3.641   5.794 -1.2913 -0.4895  2.4024
   36CHL1  H16B 3793   5.675   3.788   5.754 -4.5085  1.7224  1.6054
   36CHL1   C17 3794   5.788   3.594   5.822 -0.7552 -1.3300 -0.8871
   36CHL1   H17 3795   5.878   3.654   5.800 -1.7714  0.2285 -0.9336
   36CHL1   C13 3796   5.778   3.540   5.967  0.4738  0.1357  0.5212
   36CHL1   C18 3797   5.654   3.452   5.988 -0.4444  0.2312 -0.2759
   36CHL1  H18A 3798   5.640   3.399   5.891  0.3948  1.8674 -1.3585
   36CHL1  H18B 3799   5.683   3.386   6.072  1.1881  2.2747  0.8890
   36CHL1  H18C 3800   5.560   3.506   6.010 -1.4352 -1.9856  1.2408
   36CHL1   C12 3801   5.908   3.476   6.023  0.8143  0.6270 -0.3529
   36CHL1  H12A 3802   5.936   3.373   5.992  2.2965  0.5746  1.0591
   36CHL1  H12B 3803   5.985   3.549   5.990  1.0246  0.2249 -0.7499
   36CHL1   C11 3804   5.903   3.469   6.180 -1.0900  0.5987  0.1512
   36CHL1  H11A 3805   5.851   3.381   6.221  1.6542 -0.6076  1.2628
   36CHL1  H11B 3806   6.008   3.450   6.208 -0.9685 -0.0758 -0.6999
   36CHL1    C9 3807   5.876   3.601   6.246 -0.3535  0.2963  0.3023
   36CHL1    H9 3808   5.957   3.672   6.218  0.1406 -0.7339 -1.0101
   36CHL1   C10 3809   5.888   3.593   6.403 -0.2112 -0.4358 -0.1749
   36CHL1   C19 3810   5.797   3.473   6.469 -0.2830  0.2835  0.2917
   36CHL1  H19A 3811   5.838   3.376   6.436 -2.3694  0.2211 -2.5108
   36CHL1  H19B 3812   5.789   3.462   6.580 -2.2407 -3.3191 -0.0751
   36CHL1  H19C 3813   5.689   3.480   6.444 -1.0359 -2.9954  2.0374
   36CHL1    C1 3814   6.038   3.588   6.449 -0.8303  0.5125  0.0905
   36CHL1   H1A 3815   6.099   3.500   6.419  0.1067  0.2994  2.4265
   36CHL1   H1B 3816   6.081   3.682   6.409 -1.5354  1.1483  0.7890
   36CHL1    C2 3817   6.053   3.597   6.606 -0.1981  0.3214  0.2924
   36CHL1   H2A 3818   6.161   3.601   6.631  0.0545  0.7918 -0.8019
   36CHL1   H2B 3819   5.998   3.510   6.647  0.0531 -1.5208 -2.9508
   36CHL1   C20 3820   5.781   3.514   5.699 -0.7098  0.2699 -0.0273
   36CHL1   H20 3821   5.696   3.442   5.698  0.1271 -0.7515 -0.0441
   36CHL1   C21 3822   5.903   3.415   5.689 -0.1163 -0.2202 -0.3007
   36CHL1  H21A 3823   5.904   3.359   5.785  0.8222  1.9297  1.0429
   36CHL1  H21B 3824   6.001   3.467   5.683 -0.0940 -0.2249  0.0023
   36CHL1  H21C 3825   5.889   3.348   5.602 -1.1825  0.3535 -0.5932
   36CHL1   C22 3826   5.771   3.603   5.572  0.6800  0.1266  0.1638
   36CHL1  H22A 3827   5.674   3.658   5.572  0.2373 -0.6168  1.3137
   36CHL1  H22B 3828   5.851   3.680   5.579  0.4899  0.2824  0.6716
   36CHL1   C23 3829   5.771   3.523   5.440 -0.0418  0.3215  0.7371
   36CHL1  H23A 3830   5.876   3.499   5.414  0.0981 -1.4043  2.7027
   36CHL1  H23B 3831   5.703   3.436   5.443 -0.2770  0.4511 -0.2180
   36CHL1   C24 3832   5.713   3.613   5.325  0.3548  1.1960 -0.2860
   36CHL1  H24A 3833   5.603   3.611   5.343  0.7252 -1.4324  2.5771
   36CHL1  H24B 3834   5.750   3.716   5.339  0.6787  0.8858  1.3612
   36CHL1   C25 3835   5.721   3.562   5.180 -0.5379 -0.6624 -0.1900
   36CHL1   H25 3836   5.825   3.526   5.169 -0.6533 -1.7530  1.9241
   36CHL1   C26 3837   5.621   3.449   5.159  0.2444 -0.1434  0.3876
   36CHL1  H26A 3838   5.605   3.434   5.050  1.4045  0.9503  0.0430
   36CHL1  H26B 3839   5.663   3.355   5.198 -0.6586 -1.8968 -2.5251
   36CHL1  H26C 3840   5.521   3.480   5.198 -0.3427  0.8392 -1.7373
   36CHL1   C27 3841   5.687   3.679   5.083  0.4185  0.1372  0.0843
   36CHL1  H27A 3842   5.745   3.766   5.122  0.6608  0.9185 -1.9374
   36CHL1  H27B 3843   5.701   3.667   4.974  2.1838  0.2856  0.2654
   36CHL1  H27C 3844   5.585   3.717   5.106  2.0538  3.7555  2.4973
   37CHL1    C3 3845   1.230   0.900   6.428 -0.1840 -0.1397  0.4213
   37CHL1    H3 3846   1.302   0.816   6.435 -0.2541 -0.1348  1.3235
   37CHL1    O3 3847   1.179   0.906   6.558 -0.2996  0.2580  0.2730
   37CHL1   H3' 3848   1.114   0.974   6.539  0.9853  1.3386 -0.4476
   37CHL1    C4 3849   1.299   1.031   6.399 -0.1316  0.2296  0.8084
   37CHL1   H4A 3850   1.219   1.108   6.403 -1.8032 -1.1845 -2.0808
   37CHL1   H4B 3851   1.379   1.051   6.473  0.5209 -0.6511  0.3704
   37CHL1    C5 3852   1.357   1.027   6.254  0.2026 -0.2728 -0.6796
   37CHL1    C6 3853   1.489   1.061   6.236 -0.6035  0.3793  0.5552
   37CHL1    H6 3854   1.559   1.075   6.319  1.6267  1.8012 -1.4449
   37CHL1    C7 3855   1.548   1.064   6.099  0.4492  0.7920  0.7319
   37CHL1   H7A 3856   1.612   1.152   6.079  3.0197 -0.9838  0.5563
   37CHL1   H7B 3857   1.614   0.976   6.084 -2.0928 -1.0082 -0.6838
   37CHL1    C8 3858   1.449   1.054   5.974  0.5239 -0.1683  0.1372
   37CHL1    H8 3859   1.405   1.155   5.966 -0.3260 -0.5004  0.5584
   37CHL1   C14 3860   1.530   1.013   5.849  0.6926 -0.1677  0.0100
   37CHL1   H14 3861   1.558   0.907   5.867 -0.8482 -0.5202  0.4741
   37CHL1   C15 3862   1.652   1.094   5.801 -0.3429  0.0432  1.0297
   37CHL1  H15A 3863   1.627   1.203   5.798 -3.2700 -0.5324 -0.7580
   37CHL1  H15B 3864   1.749   1.075   5.851 -0.2079 -1.0953  0.3635
   37CHL1   C16 3865   1.670   1.037   5.658 -0.3774 -0.3739  0.3692
   37CHL1  H16A 3866   1.671   1.122   5.586  1.3201 -0.4352  0.2792
   37CHL1  H16B 3867   1.769   0.988   5.650  0.6089  0.8066  3.7037
   37CHL1   C17 3868   1.550   0.946   5.621 -0.2622  0.1734  0.7471
   37CHL1   H17 3869   1.585   0.847   5.656 -0.3173 -0.8279 -1.8755
   37CHL1   C13 3870   1.444   0.997   5.726  0.3380  0.2883 -0.2269
   37CHL1   C18 3871   1.385   1.134   5.689  0.1486 -0.2361  0.1210
   37CHL1  H18A 3872   1.467   1.205   5.669  0.0917 -0.3487 -0.5237
   37CHL1  H18B 3873   1.324   1.122   5.597  1.7518  1.1901 -1.1920
   37CHL1  H18C 3874   1.323   1.181   5.768  0.1029 -0.2739  0.1078
   37CHL1   C12 3875   1.330   0.889   5.751 -0.5686 -0.4700 -0.1300
   37CHL1  H12A 3876   1.252   0.897   5.672  1.5274 -0.1489 -2.2800
   37CHL1  H12B 3877   1.382   0.793   5.772 -0.0943  0.1315  1.6467
   37CHL1   C11 3878   1.253   0.924   5.880 -0.0116  0.0872  0.6334
   37CHL1  H11A 3879   1.186   1.009   5.855  1.1209  0.8738  0.2433
   37CHL1  H11B 3880   1.188   0.836   5.901  0.4442 -0.8164 -1.5378
   37CHL1    C9 3881   1.345   0.952   6.005 -0.1951  1.1255 -0.2138
   37CHL1    H9 3882   1.392   0.854   6.031 -2.7858 -0.0760  0.2336
   37CHL1   C10 3883   1.265   0.980   6.139 -0.2307 -0.4048  0.3135
   37CHL1   C19 3884   1.179   1.103   6.108  0.3392 -0.2546  0.9062
   37CHL1  H19A 3885   1.244   1.190   6.087 -0.9104  0.5631  0.2620
   37CHL1  H19B 3886   1.112   1.093   6.020  0.5150  2.1741  0.4453
   37CHL1  H19C 3887   1.113   1.114   6.197 -1.3294 -4.2497  0.4097
   37CHL1    C1 3888   1.185   0.850   6.180 -0.2880 -0.2110 -0.5300
   37CHL1   H1A 3889   1.105   0.823   6.107  0.1585 -0.2131 -1.0269
   37CHL1   H1B 3890   1.257   0.766   6.179  0.2168  0.1288  1.9274
   37CHL1    C2 3891   1.122   0.872   6.322 -0.6122 -0.0469  0.0711
   37CHL1   H2A 3892   1.082   0.772   6.351 -0.3073  0.5798  2.9570
   37CHL1   H2B 3893   1.033   0.937   6.333 -0.3982 -0.1533  3.1317
   37CHL1   C20 3894   1.518   0.932   5.476 -0.3197 -0.1180  0.0644
   37CHL1   H20 3895   1.453   1.020   5.453 -2.0153 -0.8451  1.8468
   37CHL1   C21 3896   1.430   0.797   5.464  0.0253  0.6111 -0.3222
   37CHL1  H21A 3897   1.390   0.786   5.361 -0.0867 -0.9877 -0.1348
   37CHL1  H21B 3898   1.334   0.784   5.519  0.4912 -0.9521  0.1868
   37CHL1  H21C 3899   1.489   0.706   5.488  0.1309  0.4923 -1.0105
   37CHL1   C22 3900   1.653   0.907   5.389 -0.0500  0.1189 -0.1153
   37CHL1  H22A 3901   1.714   1.000   5.385 -1.1291  0.8950  0.8159
   37CHL1  H22B 3902   1.718   0.833   5.439 -0.3479  2.0821  3.5232
   37CHL1   C23 3903   1.635   0.876   5.236  0.5673  0.0759  0.1567
   37CHL1  H23A 3904   1.593   0.773   5.237  0.3694  0.1466  1.7815
   37CHL1  H23B 3905   1.563   0.948   5.191 -0.6083  0.9164  3.1368
   37CHL1   C24 3906   1.770   0.877   5.161  0.4995 -0.2606  0.0083
   37CHL1  H24A 3907   1.820   0.976   5.159  1.8913 -0.9186 -3.4235
   37CHL1  H24B 3908   1.836   0.809   5.219  1.7146  0.4862 -0.4558
   37CHL1   C25 3909   1.754   0.825   5.014 -0.1768  0.9555  0.0167
   37CHL1   H25 3910   1.857   0.814   4.973 -0.3963  3.8287 -1.5178
   37CHL1   C26 3911   1.686   0.681   5.014 -0.1351  0.1288  0.6055
   37CHL1  H26A 3912   1.691   0.645   4.908  1.6325  0.7024  0.4520
   37CHL1  H26B 3913   1.750   0.609   5.069 -0.4368  0.8603  1.9430
   37CHL1  H26C 3914   1.583   0.680   5.053 -0.0610 -0.4151  0.7951
   37CHL1   C27 3915   1.674   0.924   4.929  0.4099  0.0074 -0.0722
   37CHL1  H27A 3916   1.575   0.934   4.980  0.4897  2.5788 -0.2600
   37CHL1  H27B 3917   1.717   1.027   4.926  1.5379 -0.4717 -2.1391
   37CHL1  H27C 3918   1.652   0.888   4.826  1.3734  1.1325 -0.6945
   38CHL1    C3 3919   1.466   3.057   7.031 -0.3251  0.0410  0.9048
   38CHL1    H3 3920   1.450   3.167   7.033 -1.5962  0.0852 -2.9372
   38CHL1    O3 3921   1.481   3.008   7.163 -0.3779 -0.5258 -0.4339
   38CHL1   H3' 3922   1.473   2.914   7.148 -0.4844 -0.4133 -1.0832
   38CHL1    C4 3923   1.345   2.987   6.961  0.1590  0.3764  0.5070
   38CHL1   H4A 3924   1.353   2.878   6.980 -4.6317 -0.1631  0.6964
   38CHL1   H4B 3925   1.252   3.013   7.016  0.5392  0.5369  1.0790
   38CHL1    C5 3926   1.341   3.021   6.812  0.5464  0.0753  0.1294
   38CHL1    C6 3927   1.228   3.071   6.761 -0.3727 -0.1138  0.4977
   38CHL1    H6 3928   1.143   3.092   6.828 -0.3964 -0.2139  0.4994
   38CHL1    C7 3929   1.208   3.106   6.621 -0.0354  0.9746  0.4251
   38CHL1   H7A 3930   1.117   3.057   6.579 -0.4113  2.3791 -0.4830
   38CHL1   H7B 3931   1.220   3.216   6.611  0.6873  0.8396 -0.3141
   38CHL1    C8 3932   1.308   3.035   6.527 -1.1530  0.0266  0.0610
   38CHL1    H8 3933   1.290   2.925   6.531 -2.0711  0.1482 -0.4712
   38CHL1   C14 3934   1.312   3.087   6.385 -0.2580  0.2125  0.5085
   38CHL1   H14 3935   1.346   3.192   6.395 -0.1787  0.1692  0.6953
   38CHL1   C15 3936   1.177   3.099   6.312  0.1037 -0.5316 -0.2696
   38CHL1  H15A 3937   1.121   3.007   6.337  0.6264 -0.0903  3.0187
   38CHL1  H15B 3938   1.117   3.189   6.339  0.6334 -0.1129 -0.4774
   38CHL1   C16 3939   1.213   3.113   6.159  0.1973  0.0440  0.8605
   38CHL1  H16A 3940   1.171   3.026   6.103  1.5950 -1.1557  1.5961
   38CHL1  H16B 3941   1.176   3.209   6.119  0.1942  0.9733  2.9706
   38CHL1   C17 3942   1.371   3.107   6.151  0.5071 -1.4312  0.2677
   38CHL1   H17 3943   1.412   3.210   6.162  2.1227 -1.8770 -1.2576
   38CHL1   C13 3944   1.405   3.025   6.282 -0.3407  0.0464  0.1710
   38CHL1   C18 3945   1.376   2.871   6.260 -0.5758 -0.1937  0.2804
   38CHL1  H18A 3946   1.272   2.850   6.229 -0.9922  0.4824  1.1782
   38CHL1  H18B 3947   1.449   2.820   6.193  1.3855  0.2594  1.9464
   38CHL1  H18C 3948   1.383   2.822   6.359  1.9049  1.9012  1.2609
   38CHL1   C12 3949   1.544   3.049   6.342  0.0619  0.1331  0.3730
   38CHL1  H12A 3950   1.628   3.010   6.280 -0.4862  0.2444 -0.4620
   38CHL1  H12B 3951   1.557   3.159   6.340 -1.3374  0.3745 -3.2516
   38CHL1   C11 3952   1.554   2.988   6.482 -0.2757 -0.4973  0.3097
   38CHL1  H11A 3953   1.553   2.878   6.467  2.6053 -0.3475 -1.7813
   38CHL1  H11B 3954   1.653   3.021   6.521  0.4910 -1.5419 -0.6944
   38CHL1    C9 3955   1.456   3.049   6.581  0.7165 -0.4169  0.4242
   38CHL1    H9 3956   1.488   3.155   6.584  0.0589 -0.1165 -1.5388
   38CHL1   C10 3957   1.462   2.995   6.729 -0.1137 -0.0170  0.1878
   38CHL1   C19 3958   1.487   2.840   6.724 -0.9438  0.2858 -0.8038
   38CHL1  H19A 3959   1.587   2.825   6.678 -0.6485  0.9411 -0.3906
   38CHL1  H19B 3960   1.485   2.788   6.822 -0.4594  1.4621 -0.1495
   38CHL1  H19C 3961   1.404   2.798   6.663 -0.6777  1.5319 -2.0738
   38CHL1    C1 3962   1.582   3.065   6.801 -0.0031  0.1232 -0.1479
   38CHL1   H1A 3963   1.676   3.052   6.742  0.3590 -2.5956  0.8542
   38CHL1   H1B 3964   1.573   3.175   6.811  2.6644  0.5414 -1.3963
   38CHL1    C2 3965   1.597   3.026   6.951 -0.1978 -0.8652  0.3909
   38CHL1   H2A 3966   1.675   3.093   6.995 -1.2934  0.2817  0.6405
   38CHL1   H2B 3967   1.637   2.923   6.964 -0.0096 -0.5911  2.3366
   38CHL1   C20 3968   1.413   3.051   6.013 -0.1669 -0.3847 -0.4888
   38CHL1   H20 3969   1.375   2.948   5.995 -0.7728 -0.1277 -0.7097
   38CHL1   C21 3970   1.573   3.047   6.008 -0.0241 -0.0759 -0.7590
   38CHL1  H21A 3971   1.614   3.020   5.909  3.0393  1.4918 -0.0492
   38CHL1  H21B 3972   1.608   2.979   6.089  1.6706  2.0536  0.4034
   38CHL1  H21C 3973   1.608   3.152   6.021 -0.2659 -0.2339  1.6027
   38CHL1   C22 3974   1.359   3.121   5.886  0.1568  0.3860 -0.3917
   38CHL1  H22A 3975   1.249   3.114   5.900  0.0961 -1.9765 -1.5044
   38CHL1  H22B 3976   1.389   3.228   5.882 -0.3203  0.5667  0.4853
   38CHL1   C23 3977   1.384   3.045   5.756  0.3460  0.5915  0.8873
   38CHL1  H23A 3978   1.494   3.056   5.741  0.8235 -1.8818  2.0282
   38CHL1  H23B 3979   1.367   2.935   5.763  0.6958  0.2389 -2.3692
   38CHL1   C24 3980   1.294   3.094   5.631  0.2468 -0.5685  0.1013
   38CHL1  H24A 3981   1.312   3.028   5.544 -1.2378 -1.0872  0.1586
   38CHL1  H24B 3982   1.191   3.057   5.648  0.2642 -0.7134 -0.1146
   38CHL1   C25 3983   1.296   3.243   5.583 -0.2692 -0.0084  0.4782
   38CHL1   H25 3984   1.265   3.301   5.673 -0.0208  0.9524 -0.0410
   38CHL1   C26 3985   1.446   3.282   5.552 -0.0388 -0.0728  0.2430
   38CHL1  H26A 3986   1.482   3.226   5.463  0.3229  2.8873 -1.6325
   38CHL1  H26B 3987   1.461   3.390   5.531 -0.5609  0.2020  1.2206
   38CHL1  H26C 3988   1.506   3.263   5.643 -0.3892  0.9244  0.6975
   38CHL1   C27 3989   1.204   3.262   5.459  0.6384  0.5023  0.0222
   38CHL1  H27A 3990   1.200   3.367   5.423  0.1550  0.4260 -0.1576
   38CHL1  H27B 3991   1.239   3.207   5.369  1.2788 -2.2279  1.8479
   38CHL1  H27C 3992   1.100   3.231   5.483  0.2507  1.5312 -0.2713
   39CHL1    C3 3993   2.288   3.306   6.932 -0.1728  1.4016  0.7990
   39CHL1    H3 3994   2.236   3.404   6.939 -1.7395  1.0534 -3.3961
   39CHL1    O3 3995   2.349   3.261   7.054 -0.0601  0.3617  0.6967
   39CHL1   H3' 3996   2.370   3.336   7.111 -0.3903  0.2220  1.0104
   39CHL1    C4 3997   2.177   3.202   6.888 -0.6247 -0.7465  0.6777
   39CHL1   H4A 3998   2.212   3.098   6.905 -0.7171 -1.1247 -1.2310
   39CHL1   H4B 3999   2.100   3.213   6.967  0.4621  1.8458  1.4999
   39CHL1    C5 4000   2.130   3.223   6.746 -0.3836  1.0275 -0.3351
   39CHL1    C6 4001   2.001   3.256   6.719 -0.4338 -0.2556 -0.5187
   39CHL1    H6 4002   1.931   3.257   6.803 -0.1657 -0.7152 -0.2851
   39CHL1    C7 4003   1.941   3.268   6.583  0.3447  0.4116 -0.1497
   39CHL1   H7A 4004   1.852   3.203   6.599  0.4425  0.5755  1.1384
   39CHL1   H7B 4005   1.902   3.369   6.558 -0.7101 -0.0486 -0.4544
   39CHL1    C8 4006   2.038   3.206   6.483 -0.0149  0.1541  0.0746
   39CHL1    H8 4007   2.043   3.097   6.506  2.9309  0.5620  2.0156
   39CHL1   C14 4008   1.995   3.231   6.336 -0.1495  0.3648 -1.1043
   39CHL1   H14 4009   1.997   3.341   6.320 -0.0592  0.5231 -0.0791
   39CHL1   C15 4010   1.854   3.178   6.294 -0.1317 -0.1620 -0.0596
   39CHL1  H15A 4011   1.842   3.080   6.345  0.4082 -0.2131 -0.0241
   39CHL1  H15B 4012   1.772   3.244   6.329  1.1475  0.2229  2.4343
   39CHL1   C16 4013   1.858   3.186   6.138  0.5183 -0.0103 -0.7116
   39CHL1  H16A 4014   1.835   3.087   6.093 -2.2752  0.3497 -0.2460
   39CHL1  H16B 4015   1.794   3.264   6.093  0.3175 -0.5408 -1.3505
   39CHL1   C17 4016   2.007   3.219   6.094  0.1456 -0.0927  0.1021
   39CHL1   H17 4017   2.014   3.328   6.077  2.1726 -0.3334 -0.8885
   39CHL1   C13 4018   2.093   3.195   6.224 -0.4568  0.4782  0.4517
   39CHL1   C18 4019   2.122   3.043   6.233  0.1131 -0.3147  0.3150
   39CHL1  H18A 4020   2.151   3.002   6.333  0.6221 -0.0210  0.2888
   39CHL1  H18B 4021   2.023   2.995   6.220  0.7665 -1.5192 -0.3852
   39CHL1  H18C 4022   2.180   3.000   6.148 -2.1616  2.2424 -2.7220
   39CHL1   C12 4023   2.209   3.291   6.249 -0.0493 -0.7799  0.3632
   39CHL1  H12A 4024   2.287   3.275   6.172  0.4952  1.4201  0.4013
   39CHL1  H12B 4025   2.182   3.398   6.252 -2.6073 -1.3744  1.1401
   39CHL1   C11 4026   2.278   3.268   6.380  0.2343 -0.5244 -0.6106
   39CHL1  H11A 4027   2.318   3.165   6.372  2.0235 -0.1921  2.6660
   39CHL1  H11B 4028   2.374   3.324   6.387 -0.5592  1.3844 -3.3312
   39CHL1    C9 4029   2.180   3.271   6.505 -0.2811 -0.0345  0.1619
   39CHL1    H9 4030   2.157   3.380   6.513 -1.9167 -0.0070 -3.1041
   39CHL1   C10 4031   2.237   3.223   6.635 -0.2123 -1.1157 -0.8152
   39CHL1   C19 4032   2.295   3.080   6.615 -0.0640  0.0264 -0.9096
   39CHL1  H19A 4033   2.387   3.068   6.554  0.3849 -1.0439 -0.0635
   39CHL1  H19B 4034   2.317   3.040   6.716 -0.8941 -0.7721 -1.0277
   39CHL1  H19C 4035   2.217   3.013   6.572 -0.4920 -0.4208  0.5093
   39CHL1    C1 4036   2.341   3.328   6.684 -0.0191 -0.0447  0.0821
   39CHL1   H1A 4037   2.423   3.311   6.611  0.6522 -0.1807  0.8631
   39CHL1   H1B 4038   2.327   3.438   6.686  3.3761  0.6206 -2.8034
   39CHL1    C2 4039   2.402   3.310   6.828  0.2059 -0.0051  0.6070
   39CHL1   H2A 4040   2.470   3.394   6.854  1.5496 -0.6894 -0.5377
   39CHL1   H2B 4041   2.456   3.214   6.839  1.6231  0.5565 -1.0454
   39CHL1   C20 4042   2.046   3.143   5.962 -0.0116  0.1049 -0.4822
   39CHL1   H20 4043   2.042   3.033   5.976  0.5906  0.1807  0.3362
   39CHL1   C21 4044   2.194   3.170   5.922  0.8731 -0.6905  0.0688
   39CHL1  H21A 4045   2.198   3.276   5.889  1.4312 -0.4438  0.9258
   39CHL1  H21B 4046   2.234   3.106   5.840  0.4131 -1.0822  0.1489
   39CHL1  H21C 4047   2.263   3.154   6.007 -0.5741 -0.0590  1.3974
   39CHL1   C22 4048   1.951   3.190   5.847  0.2406 -0.1700  0.6617
   39CHL1  H22A 4049   1.843   3.166   5.857 -0.2171  0.7049 -1.5412
   39CHL1  H22B 4050   1.959   3.301   5.841  0.5768 -0.0702  2.4231
   39CHL1   C23 4051   1.987   3.152   5.706 -0.1593  0.4009  0.1562
   39CHL1  H23A 4052   2.088   3.189   5.679 -0.2400  0.1128 -0.5801
   39CHL1  H23B 4053   1.987   3.041   5.696 -2.5373  0.2196  1.5700
   39CHL1   C24 4054   1.892   3.215   5.600 -0.0629  0.4693 -0.3345
   39CHL1  H24A 4055   1.804   3.149   5.590  0.5086 -0.2818 -0.5136
   39CHL1  H24B 4056   1.875   3.321   5.630  2.0989  0.4990  1.0886
   39CHL1   C25 4057   1.938   3.197   5.458  1.1141 -0.8330  0.3140
   39CHL1   H25 4058   1.987   3.100   5.439  1.0601 -0.5184 -1.5446
   39CHL1   C26 4059   1.815   3.213   5.355 -0.4745 -0.3639 -0.3918
   39CHL1  H26A 4060   1.756   3.303   5.382 -0.4235 -0.5020  0.1887
   39CHL1  H26B 4061   1.840   3.220   5.247 -0.0832 -3.2802 -0.5723
   39CHL1  H26C 4062   1.750   3.123   5.365 -0.7570  0.0042  1.2137
   39CHL1   C27 4063   2.034   3.316   5.429 -0.9402 -0.0210  0.8507
   39CHL1  H27A 4064   1.991   3.409   5.472 -4.0437 -0.0512 -1.8806
   39CHL1  H27B 4065   2.140   3.298   5.458 -0.0591 -3.6713 -3.5503
   39CHL1  H27C 4066   2.037   3.314   5.318  1.4239 -1.2596  0.8794
   40CHL1    C3 4067   2.176   0.802   6.920  0.4643  0.6645 -0.7259
   40CHL1    H3 4068   2.251   0.881   6.895  0.7992 -0.1118 -2.3029
   40CHL1    O3 4069   2.176   0.788   7.058 -0.0343 -0.2746 -0.5383
   40CHL1   H3' 4070   2.209   0.699   7.073  0.8679 -0.1512 -1.6352
   40CHL1    C4 4071   2.033   0.840   6.866  0.0851 -0.3574  0.5167
   40CHL1   H4A 4072   1.969   0.754   6.892 -1.2968  0.2176 -0.8105
   40CHL1   H4B 4073   1.995   0.935   6.911  2.4747  1.4987 -1.0873
   40CHL1    C5 4074   2.033   0.851   6.714  0.3780 -0.3537 -0.2445
   40CHL1    C6 4075   1.992   0.966   6.654 -0.4767 -0.3969  0.4569
   40CHL1    H6 4076   1.953   1.049   6.714 -0.0743  0.3496 -0.2909
   40CHL1    C7 4077   1.988   0.998   6.506 -0.8156  0.2222 -0.9046
   40CHL1   H7A 4078   1.889   1.035   6.472 -0.6713  0.9273 -0.5670
   40CHL1   H7B 4079   2.054   1.084   6.482 -1.3400  1.0630  0.5753
   40CHL1    C8 4080   2.003   0.859   6.432 -0.4813 -0.8500 -0.3004
   40CHL1    H8 4081   1.904   0.810   6.441 -0.1333 -1.3007  1.7476
   40CHL1   C14 4082   2.031   0.890   6.283 -0.8450 -0.0450 -0.3575
   40CHL1   H14 4083   2.129   0.942   6.283  0.5713 -2.5536 -0.4895
   40CHL1   C15 4084   1.933   0.975   6.199 -0.4672 -0.1280  0.1790
   40CHL1  H15A 4085   1.826   0.963   6.224 -0.5944 -0.9577 -0.6757
   40CHL1  H15B 4086   1.965   1.081   6.205 -0.4763 -0.0446 -0.9403
   40CHL1   C16 4087   1.954   0.929   6.053  0.6179  0.0390  0.6236
   40CHL1  H16A 4088   1.868   0.871   6.014 -0.5030  2.3316 -0.5029
   40CHL1  H16B 4089   1.982   1.007   5.979  1.0248  1.3459  2.0983
   40CHL1   C17 4090   2.074   0.834   6.057 -0.2413 -0.4722  0.5128
   40CHL1   H17 4091   2.158   0.907   6.067 -1.6925  1.5671 -1.2816
   40CHL1   C13 4092   2.057   0.770   6.199  0.2125  0.0552  0.9616
   40CHL1   C18 4093   1.933   0.674   6.197  0.0040  0.5111 -0.0918
   40CHL1  H18A 4094   1.950   0.593   6.123  1.0025 -0.6026  1.3172
   40CHL1  H18B 4095   1.927   0.624   6.296  1.6489  1.9780  0.8083
   40CHL1  H18C 4096   1.836   0.726   6.177 -0.4268 -0.0127  0.5919
   40CHL1   C12 4097   2.181   0.692   6.262 -0.0429  0.4165  0.2643
   40CHL1  H12A 4098   2.189   0.598   6.202  1.3904 -0.6076  1.9685
   40CHL1  H12B 4099   2.272   0.753   6.247 -0.6753  1.1829 -0.5369
   40CHL1   C11 4100   2.150   0.651   6.402  0.3469  0.0665  0.7982
   40CHL1  H11A 4101   2.069   0.575   6.409  1.4515 -1.0689  2.1928
   40CHL1  H11B 4102   2.240   0.596   6.439  2.4681  1.6777 -1.6172
   40CHL1    C9 4103   2.112   0.781   6.487 -0.2143  0.1263  0.0854
   40CHL1    H9 4104   2.208   0.835   6.485  0.5303 -1.1628  0.0107
   40CHL1   C10 4105   2.094   0.742   6.637  0.4292 -0.0093 -0.0119
   40CHL1   C19 4106   1.993   0.620   6.640  0.0134 -0.2897 -0.5795
   40CHL1  H19A 4107   1.949   0.600   6.740 -0.4313 -2.2033 -1.1178
   40CHL1  H19B 4108   1.903   0.631   6.577  1.0515 -0.8854 -2.2149
   40CHL1  H19C 4109   2.051   0.529   6.614  0.4943  0.0360 -0.6602
   40CHL1    C1 4110   2.234   0.702   6.696 -0.1698 -0.1373 -0.2530
   40CHL1   H1A 4111   2.277   0.616   6.640 -1.4282 -0.7838 -0.2382
   40CHL1   H1B 4112   2.306   0.785   6.679  0.1404 -0.2910  0.2948
   40CHL1    C2 4113   2.230   0.673   6.844 -0.6358 -0.5231 -0.7984
   40CHL1   H2A 4114   2.334   0.657   6.880 -0.9471  0.4409  0.6322
   40CHL1   H2B 4115   2.161   0.589   6.866  0.3034 -1.0295  0.3402
   40CHL1   C20 4116   2.091   0.740   5.938  0.0715 -0.4968 -0.1195
   40CHL1   H20 4117   2.021   0.655   5.950 -2.1392  1.0614 -1.3431
   40CHL1   C21 4118   2.238   0.697   5.938 -0.4322  0.6646 -0.4966
   40CHL1  H21A 4119   2.257   0.608   5.875  2.0841 -0.4506  1.6334
   40CHL1  H21B 4120   2.274   0.666   6.038 -0.4857  0.3458 -0.5759
   40CHL1  H21C 4121   2.302   0.779   5.899 -0.0584 -0.1827 -1.7322
   40CHL1   C22 4122   2.055   0.803   5.806  0.2987 -0.1125 -0.3310
   40CHL1  H22A 4123   1.952   0.844   5.797  0.1650  0.2860  2.2984
   40CHL1  H22B 4124   2.132   0.881   5.791  1.1114 -0.8210  0.0583
   40CHL1   C23 4125   2.076   0.711   5.683  0.6202  0.2802 -0.7516
   40CHL1  H23A 4126   2.173   0.658   5.694  0.9546  1.3290  2.4603
   40CHL1  H23B 4127   2.002   0.628   5.688 -0.5029  1.1694 -1.7692
   40CHL1   C24 4128   2.060   0.779   5.548 -0.1580  0.4413 -0.1343
   40CHL1  H24A 4129   2.053   0.703   5.468  2.0481 -0.1840  0.2083
   40CHL1  H24B 4130   1.959   0.825   5.541 -1.1924 -1.6917 -0.0185
   40CHL1   C25 4131   2.168   0.883   5.513 -0.0214 -0.7218  0.6172
   40CHL1   H25 4132   2.177   0.950   5.601  2.1390  0.1602 -0.1959
   40CHL1   C26 4133   2.306   0.814   5.500  0.7862  0.1583 -0.5844
   40CHL1  H26A 4134   2.303   0.742   5.416 -0.2290  0.5367 -0.8910
   40CHL1  H26B 4135   2.390   0.886   5.490  2.1468 -1.3108 -0.1613
   40CHL1  H26C 4136   2.332   0.754   5.590  1.5213 -0.1744 -1.0086
   40CHL1   C27 4137   2.123   0.962   5.385 -0.4771  0.1613  0.4105
   40CHL1  H27A 4138   2.146   0.905   5.292 -0.6162  0.3977  0.2305
   40CHL1  H27B 4139   2.015   0.983   5.393 -0.6061  0.6884 -2.0567
   40CHL1  H27C 4140   2.167   1.064   5.394  0.7741 -0.2977 -0.1849
   41CHL1    C3 4141   5.565   5.916   6.045  0.5195 -0.1239  0.4176
   41CHL1    H3 4142   5.495   5.840   6.004  1.8393 -1.2885  0.2588
   41CHL1    O3 4143   5.604   5.874   6.173  0.1421 -0.5527  0.1934
   41CHL1   H3' 4144   5.528   5.886   6.230 -0.0000  3.2120 -0.5257
   41CHL1    C4 4145   5.686   5.921   5.950  0.1624 -0.1710  0.2401
   41CHL1   H4A 4146   5.760   5.981   6.008 -0.4305  0.7906  0.0212
   41CHL1   H4B 4147   5.717   5.815   5.940  0.7837 -0.0063  0.3607
   41CHL1    C5 4148   5.645   5.989   5.815  0.2008 -0.1131  0.7411
   41CHL1    C6 4149   5.675   5.924   5.707  1.1223 -0.1672 -0.0982
   41CHL1    H6 4150   5.735   5.833   5.717 -1.1564 -1.5904  1.5210
   41CHL1    C7 4151   5.634   5.968   5.569 -0.1325  0.5210  0.0189
   41CHL1   H7A 4152   5.718   5.957   5.497  0.3110  0.9076  0.4709
   41CHL1   H7B 4153   5.546   5.909   5.535 -0.0090  0.3642 -0.0252
   41CHL1    C8 4154   5.587   6.117   5.561 -0.0761 -0.4730 -0.1734
   41CHL1    H8 4155   5.683   6.172   5.551 -0.1496 -0.4110 -0.5425
   41CHL1   C14 4156   5.508   6.155   5.435  0.0665  0.3475 -0.3726
   41CHL1   H14 4157   5.406   6.112   5.440 -0.2943  1.0266 -1.3992
   41CHL1   C15 4158   5.579   6.091   5.314  0.8711 -0.0469  0.4656
   41CHL1  H15A 4159   5.687   6.116   5.314  0.4089  2.3137 -1.2658
   41CHL1  H15B 4160   5.560   5.983   5.299 -1.0986  0.2528  0.5743
   41CHL1   C16 4161   5.521   6.173   5.206 -0.1953 -0.8219  0.3919
   41CHL1  H16A 4162   5.599   6.218   5.140 -0.2924 -2.1144 -0.6468
   41CHL1  H16B 4163   5.454   6.116   5.138 -1.9208  0.1384  1.2119
   41CHL1   C17 4164   5.435   6.290   5.274 -0.7264 -0.2833 -0.1628
   41CHL1   H17 4165   5.328   6.258   5.280 -0.6019 -0.6698  0.0060
   41CHL1   C13 4166   5.494   6.305   5.414 -0.6956  0.3075 -0.8272
   41CHL1   C18 4167   5.632   6.378   5.401  0.2373 -0.3076 -0.0400
   41CHL1  H18A 4168   5.693   6.380   5.494 -0.9380  0.0906  0.7489
   41CHL1  H18B 4169   5.693   6.327   5.323 -0.9860 -1.3497 -0.3475
   41CHL1  H18C 4170   5.616   6.485   5.374  0.3913 -0.9242 -2.8336
   41CHL1   C12 4171   5.413   6.357   5.534  0.0646  0.1977  0.4251
   41CHL1  H12A 4172   5.396   6.466   5.526  2.0571  0.5269  0.1877
   41CHL1  H12B 4173   5.312   6.311   5.526  0.0141  0.3559  0.1326
   41CHL1   C11 4174   5.474   6.322   5.669 -0.0787  0.8521 -0.8880
   41CHL1  H11A 4175   5.558   6.394   5.685  0.4334  0.3130 -1.1479
   41CHL1  H11B 4176   5.395   6.341   5.745  0.0882  2.4767 -1.0700
   41CHL1    C9 4177   5.507   6.169   5.679 -0.5325  0.0839 -0.2430
   41CHL1    H9 4178   5.408   6.118   5.672 -1.5260  1.9079 -0.3294
   41CHL1   C10 4179   5.566   6.120   5.821  0.5617 -0.1021 -0.0793
   41CHL1   C19 4180   5.667   6.228   5.865  0.0767  0.3952  0.2489
   41CHL1  H19A 4181   5.735   6.240   5.778 -0.7207  1.6926 -0.2225
   41CHL1  H19B 4182   5.621   6.324   5.894 -2.7953 -0.9059  0.3841
   41CHL1  H19C 4183   5.724   6.196   5.955 -0.2407  1.6108  0.9050
   41CHL1    C1 4184   5.450   6.107   5.924 -0.8012 -0.7448 -0.0591
   41CHL1   H1A 4185   5.411   6.210   5.939 -0.4632 -0.7368  0.8219
   41CHL1   H1B 4186   5.370   6.046   5.877 -0.8696  0.2386 -1.2536
   41CHL1    C2 4187   5.503   6.057   6.055  0.8548 -0.9295 -0.9857
   41CHL1   H2A 4188   5.418   6.046   6.126  0.2882 -0.0191 -1.5124
   41CHL1   H2B 4189   5.566   6.136   6.102 -2.1157  0.0087  1.7926
   41CHL1   C20 4190   5.441   6.414   5.187 -0.6585 -0.0433 -0.8602
   41CHL1   H20 4191   5.546   6.447   5.176 -0.2220 -0.1958  2.0264
   41CHL1   C21 4192   5.360   6.530   5.253  0.2816  0.8466  0.3308
   41CHL1  H21A 4193   5.369   6.623   5.192  0.1326  0.3356 -0.4904
   41CHL1  H21B 4194   5.392   6.554   5.356 -0.5739 -0.3313  0.8898
   41CHL1  H21C 4195   5.253   6.501   5.249  0.8532 -1.7977  2.0331
   41CHL1   C22 4196   5.390   6.382   5.041 -0.1152  0.0092 -0.3368
   41CHL1  H22A 4197   5.443   6.301   4.987 -0.2521 -0.7951  0.6983
   41CHL1  H22B 4198   5.284   6.349   5.037 -0.6201  1.6702 -1.9715
   41CHL1   C23 4199   5.405   6.497   4.944  0.0821 -0.3559 -0.3777
   41CHL1  H23A 4200   5.384   6.596   4.990  0.3493 -0.0072 -0.9797
   41CHL1  H23B 4201   5.507   6.496   4.899  1.1012  0.9969  1.7056
   41CHL1   C24 4202   5.293   6.477   4.838 -0.9525 -0.0772 -0.3496
   41CHL1  H24A 4203   5.309   6.387   4.775 -2.9329  0.1753 -1.2787
   41CHL1  H24B 4204   5.198   6.457   4.892 -2.1453  0.6060 -2.1126
   41CHL1   C25 4205   5.265   6.603   4.749 -0.2555  1.1244  0.0614
   41CHL1   H25 4206   5.199   6.569   4.667 -0.6141 -1.3698  1.2974
   41CHL1   C26 4207   5.192   6.719   4.823  0.2656  0.4912 -0.3166
   41CHL1  H26A 4208   5.165   6.798   4.749  0.6730  0.9526  0.0204
   41CHL1  H26B 4209   5.104   6.684   4.880  0.9483  0.0943  0.5113
   41CHL1  H26C 4210   5.254   6.767   4.901 -2.3831  0.4886  1.9342
   41CHL1   C27 4211   5.394   6.650   4.681 -0.5858  0.3846 -0.1619
   41CHL1  H27A 4212   5.372   6.730   4.606 -0.5721  0.3449 -0.2088
   41CHL1  H27B 4213   5.461   6.687   4.762 -1.9111 -0.7047  1.4929
   41CHL1  H27C 4214   5.448   6.573   4.622 -0.3415  0.5414 -0.1426
   42CHL1    C3 4215   4.592   0.004   6.357  0.6686 -0.2857 -1.1285
   42CHL1    H3 4216   4.487   0.028   6.330  0.6661 -1.6688 -2.4613
   42CHL1    O3 4217   4.587  -0.096   6.456  0.2834  0.4461 -0.1541
   42CHL1   H3' 4218   4.584  -0.059   6.545  1.7206  1.1300 -0.3577
   42CHL1    C4 4219   4.641  -0.059   6.229  0.0675  0.1142  0.0184
   42CHL1   H4A 4220   4.741  -0.105   6.244  1.1620  1.1974 -3.0811
   42CHL1   H4B 4221   4.568  -0.138   6.205  0.8800  0.0047 -2.3710
   42CHL1    C5 4222   4.656   0.048   6.123 -0.8645 -0.7004 -0.3716
   42CHL1    C6 4223   4.592   0.026   6.013  1.1280  0.5725  0.2962
   42CHL1    H6 4224   4.543  -0.073   6.006  3.1695 -0.5103  0.4076
   42CHL1    C7 4225   4.600   0.124   5.898 -0.7228  0.3130 -0.0317
   42CHL1   H7A 4226   4.617   0.078   5.799 -0.4115 -2.2557  1.1375
   42CHL1   H7B 4227   4.502   0.174   5.883 -1.7815 -2.1727 -1.9347
   42CHL1    C8 4228   4.718   0.225   5.913  0.0689  0.1905  1.1833
   42CHL1    H8 4229   4.806   0.161   5.892 -1.5357 -2.2962  1.6963
   42CHL1   C14 4230   4.682   0.342   5.819  0.4904  0.1406 -0.3688
   42CHL1   H14 4231   4.587   0.378   5.863  1.8806  0.0916  2.9235
   42CHL1   C15 4232   4.646   0.309   5.675 -0.5666  0.0075  0.1161
   42CHL1  H15A 4233   4.714   0.226   5.646  0.0813  1.1842 -1.9562
   42CHL1  H15B 4234   4.543   0.274   5.653  0.7591 -3.2487 -1.4916
   42CHL1   C16 4235   4.673   0.442   5.599 -0.1365  0.1450 -0.7464
   42CHL1  H16A 4236   4.738   0.438   5.509 -0.4260 -2.0036 -0.9088
   42CHL1  H16B 4237   4.575   0.482   5.565 -0.0710 -0.8539 -2.1910
   42CHL1   C17 4238   4.721   0.542   5.714 -0.6076  0.2993  0.4104
   42CHL1   H17 4239   4.631   0.587   5.763 -0.2038  2.1384 -0.4598
   42CHL1   C13 4240   4.783   0.455   5.818 -0.2185  0.3737  0.5965
   42CHL1   C18 4241   4.918   0.404   5.777 -0.0659 -0.0638 -0.3077
   42CHL1  H18A 4242   4.941   0.376   5.673  1.2257 -2.0765  0.4689
   42CHL1  H18B 4243   4.990   0.483   5.807  0.6247 -0.2780 -1.3536
   42CHL1  H18C 4244   4.935   0.305   5.824  0.3528  0.3911  0.5146
   42CHL1   C12 4245   4.787   0.509   5.965 -0.1184  0.0003  0.3017
   42CHL1  H12A 4246   4.860   0.593   5.961  0.1391 -0.2510 -1.9776
   42CHL1  H12B 4247   4.689   0.543   6.004 -0.6657 -1.3674  0.1510
   42CHL1   C11 4248   4.821   0.393   6.058  0.0534 -0.5919 -1.3271
   42CHL1  H11A 4249   4.922   0.359   6.025  0.5660  0.2776 -0.7137
   42CHL1  H11B 4250   4.829   0.437   6.160 -0.7144 -0.3716 -1.3537
   42CHL1    C9 4251   4.717   0.278   6.052 -0.3355 -0.2849 -0.0418
   42CHL1    H9 4252   4.620   0.321   6.082 -0.2896 -0.0728 -0.1967
   42CHL1   C10 4253   4.739   0.173   6.158 -0.3553 -0.2927  0.4165
   42CHL1   C19 4254   4.889   0.135   6.152 -0.0949  0.8105 -0.0959
   42CHL1  H19A 4255   4.889   0.058   6.232 -1.0791  1.1922  0.2845
   42CHL1  H19B 4256   4.919   0.086   6.057 -3.0069  1.8835 -1.6817
   42CHL1  H19C 4257   4.962   0.214   6.179  0.1941 -0.0881  1.8930
   42CHL1    C1 4258   4.697   0.224   6.296 -0.5467  0.6962 -0.6334
   42CHL1   H1A 4259   4.772   0.298   6.331 -0.1438  0.8235 -1.7203
   42CHL1   H1B 4260   4.605   0.284   6.282 -1.4102 -0.2483  0.6984
   42CHL1    C2 4261   4.671   0.125   6.409  0.3752  0.1238  0.1898
   42CHL1   H2A 4262   4.611   0.178   6.487 -1.1947  1.2336 -1.6717
   42CHL1   H2B 4263   4.768   0.096   6.453  2.1260  2.5595 -1.7559
   42CHL1   C20 4264   4.802   0.662   5.663  0.4665  0.8759 -0.3765
   42CHL1   H20 4265   4.905   0.621   5.655  0.2616  0.1387  0.5154
   42CHL1   C21 4266   4.793   0.777   5.766  0.4889 -0.3671 -0.1863
   42CHL1  H21A 4267   4.877   0.849   5.751 -0.4984  0.6266 -1.0868
   42CHL1  H21B 4268   4.796   0.744   5.872  1.4816  0.1533 -0.0423
   42CHL1  H21C 4269   4.695   0.827   5.751 -0.4307 -2.4369 -1.4255
   42CHL1   C22 4270   4.766   0.718   5.522  0.0643  0.7835  0.1594
   42CHL1  H22A 4271   4.769   0.634   5.449 -0.8298  0.4792  0.4629
   42CHL1  H22B 4272   4.665   0.758   5.504  0.1441  0.3016 -1.5121
   42CHL1   C23 4273   4.869   0.824   5.462 -0.4111  0.0374  0.1357
   42CHL1  H23A 4274   4.862   0.916   5.525  1.0906  1.0995 -1.1486
   42CHL1  H23B 4275   4.970   0.779   5.473 -0.3713 -0.0483 -0.5313
   42CHL1   C24 4276   4.846   0.854   5.316  0.6621 -0.4570 -0.0616
   42CHL1  H24A 4277   4.836   0.766   5.250  0.9224 -1.0399  0.6557
   42CHL1  H24B 4278   4.752   0.911   5.305  0.8271  0.3212  2.0352
   42CHL1   C25 4279   4.962   0.937   5.254  0.4166  0.0072  0.0237
   42CHL1   H25 4280   5.057   0.881   5.271  0.0066 -0.8621 -0.4562
   42CHL1   C26 4281   4.930   0.939   5.105 -0.5806 -0.2734 -0.4524
   42CHL1  H26A 4282   4.829   0.978   5.079 -1.0932 -1.2824 -0.0495
   42CHL1  H26B 4283   5.006   1.016   5.079  2.0723 -0.3272  5.5549
   42CHL1  H26C 4284   4.959   0.844   5.057  0.5970 -1.4232  2.3285
   42CHL1   C27 4285   4.971   1.081   5.313  0.6848  0.3386  0.2310
   42CHL1  H27A 4286   5.060   1.129   5.267 -0.2005  1.6166 -0.2029
   42CHL1  H27B 4287   4.874   1.130   5.292  0.6368 -0.6020 -1.9964
   42CHL1  H27C 4288   5.000   1.078   5.420  2.1335  1.9448 -0.0763
   43CHL1    C3 4289   4.582   3.914   6.737  0.0052  0.3724  0.7581
   43CHL1    H3 4290   4.614   4.013   6.697  4.5248 -0.8140  0.8891
   43CHL1    O3 4291   4.572   3.921   6.873 -0.9795  0.0352  0.4872
   43CHL1   H3' 4292   4.503   3.986   6.889 -0.8924  0.0320  0.8862
   43CHL1    C4 4293   4.449   3.875   6.670 -0.6140 -0.5963 -0.3074
   43CHL1   H4A 4294   4.414   3.784   6.724 -0.1632 -1.3500 -1.2456
   43CHL1   H4B 4295   4.373   3.955   6.687  0.3232  0.3857 -0.6485
   43CHL1    C5 4296   4.459   3.845   6.520  0.1270 -0.3290 -0.6030
   43CHL1    C6 4297   4.375   3.902   6.431 -0.5030 -0.0907 -0.3353
   43CHL1    H6 4298   4.314   3.982   6.476  0.9044  0.2700  1.0539
   43CHL1    C7 4299   4.376   3.869   6.283 -0.0395 -0.3176  0.5071
   43CHL1   H7A 4300   4.274   3.843   6.246 -0.2562 -1.2232  1.6892
   43CHL1   H7B 4301   4.421   3.951   6.223 -1.9180  0.0414 -0.5060
   43CHL1    C8 4302   4.460   3.739   6.249  0.0185 -0.1488 -0.2004
   43CHL1    H8 4303   4.394   3.653   6.274  0.5145 -1.1488 -2.1029
   43CHL1   C14 4304   4.491   3.739   6.101  0.4319 -0.3727 -0.7241
   43CHL1   H14 4305   4.546   3.834   6.085 -1.0464  0.2297 -2.7717
   43CHL1   C15 4306   4.372   3.756   6.008  0.3608 -0.2074 -0.2694
   43CHL1  H15A 4307   4.282   3.691   6.022 -0.9841  1.3713 -1.2684
   43CHL1  H15B 4308   4.339   3.861   5.996  1.5794  0.3639  1.1061
   43CHL1   C16 4309   4.437   3.708   5.870 -0.8608 -0.6041 -0.3981
   43CHL1  H16A 4310   4.384   3.618   5.834  2.0244 -2.9566  0.8107
   43CHL1  H16B 4311   4.424   3.783   5.788 -1.7028 -0.7115 -0.3697
   43CHL1   C17 4312   4.580   3.658   5.900  0.4041 -0.1883  0.1156
   43CHL1   H17 4313   4.654   3.740   5.887 -0.7688  0.8062 -0.6000
   43CHL1   C13 4314   4.575   3.627   6.053  0.3256  0.2007 -0.0434
   43CHL1   C18 4315   4.496   3.497   6.076  0.2868 -0.5205 -0.0458
   43CHL1  H18A 4316   4.467   3.490   6.183 -0.2488 -0.5211 -0.1918
   43CHL1  H18B 4317   4.402   3.486   6.018 -0.0012 -1.5546  0.5940
   43CHL1  H18C 4318   4.569   3.415   6.057  1.1775  0.6635 -2.1737
   43CHL1   C12 4319   4.711   3.618   6.126 -0.2709 -0.0756 -0.7995
   43CHL1  H12A 4320   4.765   3.521   6.121  0.2765  0.2768 -2.5836
   43CHL1  H12B 4321   4.773   3.701   6.087 -1.4631  0.1942 -2.2318
   43CHL1   C11 4322   4.694   3.626   6.277 -0.0914 -0.2904  0.9591
   43CHL1  H11A 4323   4.669   3.525   6.318  1.2057 -0.2073  2.0289
   43CHL1  H11B 4324   4.794   3.652   6.317  0.3031  0.5524 -0.5121
   43CHL1    C9 4325   4.593   3.740   6.325 -0.3441  0.7606 -0.6422
   43CHL1    H9 4326   4.647   3.833   6.297 -0.2559  1.8568  2.6624
   43CHL1   C10 4327   4.570   3.741   6.479 -0.2629 -0.4170 -0.6917
   43CHL1   C19 4328   4.523   3.604   6.531  0.0176  0.1734 -0.2631
   43CHL1  H19A 4329   4.617   3.545   6.525  0.8309  1.4048 -0.0172
   43CHL1  H19B 4330   4.491   3.613   6.636  0.7631 -1.2029  0.1128
   43CHL1  H19C 4331   4.439   3.570   6.466 -0.3377  1.8248 -0.7127
   43CHL1    C1 4332   4.698   3.780   6.552  0.7777  0.2548 -0.2824
   43CHL1   H1A 4333   4.763   3.691   6.536  0.0984 -0.2235 -0.4462
   43CHL1   H1B 4334   4.741   3.863   6.492  1.3861 -0.9555 -1.5687
   43CHL1    C2 4335   4.680   3.802   6.700  0.0633 -0.4166 -0.5905
   43CHL1   H2A 4336   4.780   3.839   6.729 -1.1484  1.9065  1.0148
   43CHL1   H2B 4337   4.655   3.709   6.756  0.6986 -0.8218 -0.9685
   43CHL1   C20 4338   4.621   3.553   5.803 -0.2728  0.4016 -0.6990
   43CHL1   H20 4339   4.543   3.473   5.807 -0.9002  1.0417  1.2122
   43CHL1   C21 4340   4.758   3.488   5.857 -0.8452 -0.0500 -0.0672
   43CHL1  H21A 4341   4.813   3.571   5.906 -1.3336 -0.1726  0.7077
   43CHL1  H21B 4342   4.815   3.433   5.778  3.9365  2.8681  0.9285
   43CHL1  H21C 4343   4.738   3.419   5.942  3.1619 -1.0817  0.2773
   43CHL1   C22 4344   4.622   3.604   5.650 -0.1450  0.8693 -0.1608
   43CHL1  H22A 4345   4.637   3.528   5.571 -1.4181  1.6831 -1.2379
   43CHL1  H22B 4346   4.520   3.645   5.632 -0.9255 -1.8432 -2.7457
   43CHL1   C23 4347   4.725   3.716   5.630 -0.4031 -0.0078 -0.2633
   43CHL1  H23A 4348   4.702   3.801   5.697  1.5656  1.8314 -1.7444
   43CHL1  H23B 4349   4.825   3.674   5.656 -0.4375 -1.3964 -2.1860
   43CHL1   C24 4350   4.726   3.775   5.496  0.0206 -0.2650  0.5745
   43CHL1  H24A 4351   4.781   3.709   5.426  1.9046 -0.1689  1.8979
   43CHL1  H24B 4352   4.622   3.769   5.457  0.1831  0.2186  0.0511
   43CHL1   C25 4353   4.771   3.913   5.477 -0.3458 -0.2293  0.2228
   43CHL1   H25 4354   4.715   3.987   5.538  0.3341  0.0851  0.4705
   43CHL1   C26 4355   4.918   3.944   5.511 -0.5279  0.2453 -0.0594
   43CHL1  H26A 4356   4.989   3.890   5.443 -0.6752 -1.0466  0.7696
   43CHL1  H26B 4357   4.935   4.053   5.516 -1.7892  0.4335  0.4282
   43CHL1  H26C 4358   4.931   3.903   5.613  0.2082 -0.5900 -0.4614
   43CHL1   C27 4359   4.749   3.944   5.329 -0.5584 -0.3523 -0.0718
   43CHL1  H27A 4360   4.644   3.969   5.301  0.1901  1.7177 -1.3010
   43CHL1  H27B 4361   4.812   4.032   5.302 -0.4427 -0.3037  0.3625
   43CHL1  H27C 4362   4.781   3.858   5.266  0.2906 -1.9789  2.4665
   44CHL1    C3 4363   5.209   3.959   6.680 -0.4988 -0.4023 -0.0566
   44CHL1    H3 4364   5.305   4.015   6.693  0.1005 -1.5072  0.4137
   44CHL1    O3 4365   5.170   3.914   6.801  0.6721 -0.4551 -0.2729
   44CHL1   H3' 4366   5.145   3.995   6.846  0.9545 -1.2198  1.3354
   44CHL1    C4 4367   5.100   4.054   6.626  0.3499 -0.5969 -0.8170
   44CHL1   H4A 4368   5.002   4.003   6.640 -0.0717  0.2624 -0.5314
   44CHL1   H4B 4369   5.100   4.136   6.702  0.0310 -1.6983  0.4152
   44CHL1    C5 4370   5.116   4.095   6.485  0.7808 -0.3730 -0.0505
   44CHL1    C6 4371   5.113   4.228   6.463 -0.2814  0.3843 -0.2179
   44CHL1    H6 4372   5.089   4.287   6.552 -0.2483  0.1778 -0.0709
   44CHL1    C7 4373   5.133   4.283   6.327  0.7746  0.0720  0.7194
   44CHL1   H7A 4374   5.051   4.353   6.297  0.6891 -0.3191  0.0263
   44CHL1   H7B 4375   5.221   4.351   6.317  1.7573 -1.2681 -0.1418
   44CHL1    C8 4376   5.155   4.181   6.207 -0.0993 -0.1593  0.5051
   44CHL1    H8 4377   5.055   4.151   6.170  0.4070  0.5849 -1.5782
   44CHL1   C14 4378   5.229   4.241   6.089 -0.0440 -0.2528  0.3453
   44CHL1   H14 4379   5.332   4.271   6.119  0.1195 -2.7887  2.7098
   44CHL1   C15 4380   5.164   4.360   6.008  0.5423 -0.0079 -0.5313
   44CHL1  H15A 4381   5.054   4.347   6.006 -0.0796  3.7420  0.8529
   44CHL1  H15B 4382   5.179   4.458   6.059 -0.3374 -0.6319  0.9784
   44CHL1   C16 4383   5.221   4.356   5.867 -0.8209 -0.4877 -0.7566
   44CHL1  H16A 4384   5.133   4.339   5.801 -1.7192 -1.5544  0.6653
   44CHL1  H16B 4385   5.274   4.451   5.843 -0.9286 -0.4173 -0.7217
   44CHL1   C17 4386   5.314   4.232   5.864 -0.7931 -0.4856 -0.4618
   44CHL1   H17 4387   5.418   4.256   5.896 -1.3623 -0.7429  1.7777
   44CHL1   C13 4388   5.258   4.138   5.977  0.2307  0.2246 -0.1794
   44CHL1   C18 4389   5.131   4.056   5.932 -0.0434  0.5572  0.6163
   44CHL1  H18A 4390   5.075   3.999   6.010  0.0706 -0.2813  0.1018
   44CHL1  H18B 4391   5.059   4.122   5.880 -0.4383 -1.6818 -1.8745
   44CHL1  H18C 4392   5.166   3.981   5.858 -3.0765 -0.7940  0.3956
   44CHL1   C12 4393   5.353   4.036   6.044  0.2862 -0.5034 -0.2787
   44CHL1  H12A 4394   5.395   3.965   5.969  0.9889  0.6727 -1.0151
   44CHL1  H12B 4395   5.443   4.094   6.073 -0.6651  2.1508 -2.2156
   44CHL1   C11 4396   5.282   3.954   6.156  0.2521  0.8118 -0.2112
   44CHL1  H11A 4397   5.211   3.876   6.119  0.3629 -0.0269  1.2717
   44CHL1  H11B 4398   5.358   3.892   6.209 -1.8190  1.5579  4.0010
   44CHL1    C9 4399   5.227   4.055   6.261  0.0390 -0.3547 -0.4481
   44CHL1    H9 4400   5.325   4.090   6.300  0.7311 -1.1826 -1.3931
   44CHL1   C10 4401   5.155   3.985   6.379  0.2706 -0.4828 -0.2669
   44CHL1   C19 4402   5.032   3.910   6.327 -0.1211  0.4159 -0.0677
   44CHL1  H19A 4403   4.969   3.987   6.278  0.6516  0.0491 -1.7231
   44CHL1  H19B 4404   5.054   3.832   6.250 -1.4055 -0.5269  0.4881
   44CHL1  H19C 4405   4.963   3.860   6.397 -1.3049  2.3838  0.2380
   44CHL1    C1 4406   5.255   3.880   6.439  0.1817 -0.1682 -0.8190
   44CHL1   H1A 4407   5.252   3.787   6.377 -0.3972 -0.7366  0.0359
   44CHL1   H1B 4408   5.359   3.918   6.424 -0.2117  0.6214 -1.6233
   44CHL1    C2 4409   5.234   3.846   6.581  0.7287  0.1013  0.1201
   44CHL1   H2A 4410   5.314   3.777   6.616  1.1655  0.1987 -0.6624
   44CHL1   H2B 4411   5.142   3.784   6.574  0.2842  0.6332  1.0664
   44CHL1   C20 4412   5.327   4.180   5.717 -0.0406 -0.4643 -0.3826
   44CHL1   H20 4413   5.226   4.148   5.684  0.4745 -1.4400 -1.0466
   44CHL1   C21 4414   5.415   4.053   5.722  0.6986  0.0563 -0.0828
   44CHL1  H21A 4415   5.465   4.051   5.622 -1.5584  0.7999 -1.3020
   44CHL1  H21B 4416   5.357   3.960   5.742  1.0250 -0.1778 -0.2104
   44CHL1  H21C 4417   5.497   4.062   5.796 -0.6193 -0.0899  1.4430
   44CHL1   C22 4418   5.392   4.282   5.624  0.1967  0.4884 -0.2726
   44CHL1  H22A 4419   5.354   4.383   5.648  0.2840  0.1141  1.5728
   44CHL1  H22B 4420   5.503   4.285   5.633  0.1024 -0.4979  1.7294
   44CHL1   C23 4421   5.351   4.253   5.479 -0.5731 -0.4854  0.5611
   44CHL1  H23A 4422   5.389   4.151   5.456 -1.2658 -0.2620 -1.7858
   44CHL1  H23B 4423   5.241   4.247   5.465 -0.6473 -0.1295  0.9829
   44CHL1   C24 4424   5.411   4.346   5.375 -0.2220  0.2105  0.3336
   44CHL1  H24A 4425   5.400   4.448   5.418 -1.1963  0.3571 -0.2343
   44CHL1  H24B 4426   5.520   4.325   5.381 -0.2951 -0.1585  0.4376
   44CHL1   C25 4427   5.353   4.323   5.236  0.5284 -0.1225 -0.2779
   44CHL1   H25 4428   5.244   4.328   5.256  0.8666 -0.3017  1.8849
   44CHL1   C26 4429   5.390   4.422   5.135  0.6324 -1.1477  0.0583
   44CHL1  H26A 4430   5.493   4.409   5.096  0.8402 -0.4071  0.3324
   44CHL1  H26B 4431   5.322   4.411   5.048  0.7590 -1.7926  0.0358
   44CHL1  H26C 4432   5.372   4.518   5.188  1.9639 -1.0820  0.4074
   44CHL1   C27 4433   5.389   4.179   5.193  0.2624  0.8088  0.4972
   44CHL1  H27A 4434   5.497   4.156   5.203 -0.4856 -2.3768  2.7658
   44CHL1  H27B 4435   5.336   4.104   5.255  1.4494 -2.7280 -2.3819
   44CHL1  H27C 4436   5.348   4.160   5.091 -0.4705  3.1689  0.2875
   45CHL1    C3 4437   5.519   4.621   6.589  1.0776 -0.1031 -0.0278
   45CHL1    H3 4438   5.629   4.625   6.602  1.1237 -1.0711 -0.0480
   45CHL1    O3 4439   5.457   4.621   6.715 -0.0800  0.2749 -0.1091
   45CHL1   H3' 4440   5.476   4.700   6.766 -2.1836 -1.0444  3.0691
   45CHL1    C4 4441   5.470   4.753   6.524  0.4682 -0.0609 -0.0080
   45CHL1   H4A 4442   5.359   4.744   6.528  0.4218 -0.5199 -1.6927
   45CHL1   H4B 4443   5.493   4.844   6.583 -0.1751  2.2565 -3.1096
   45CHL1    C5 4444   5.509   4.772   6.377  0.0700  0.1089 -1.1381
   45CHL1    C6 4445   5.576   4.880   6.328  0.5676 -0.0532 -0.2393
   45CHL1    H6 4446   5.586   4.963   6.400  2.6890  0.6568 -1.2646
   45CHL1    C7 4447   5.603   4.909   6.184  0.0835  0.1516 -0.2032
   45CHL1   H7A 4448   5.578   5.011   6.149 -1.2946  0.3141  1.1194
   45CHL1   H7B 4449   5.713   4.926   6.174  0.1533  0.7982  1.3675
   45CHL1    C8 4450   5.546   4.803   6.096 -0.1199  0.3553 -0.2387
   45CHL1    H8 4451   5.438   4.824   6.083 -0.6062 -1.0649  1.2512
   45CHL1   C14 4452   5.605   4.822   5.958 -0.4662  0.4372  0.8744
   45CHL1   H14 4453   5.713   4.805   5.975 -0.5092  1.4249  2.3990
   45CHL1   C15 4454   5.595   4.960   5.895  0.4554  0.1905 -0.3782
   45CHL1  H15A 4455   5.489   4.992   5.904 -0.1274 -1.9373  1.0167
   45CHL1  H15B 4456   5.664   5.038   5.932  1.7442 -0.7131 -0.7981
   45CHL1   C16 4457   5.619   4.930   5.747 -0.1125  0.0448  0.0819
   45CHL1  H16A 4458   5.530   4.959   5.686  1.8589  1.8732 -2.0979
   45CHL1  H16B 4459   5.707   4.985   5.708  0.4910 -1.1032 -0.2226
   45CHL1   C17 4460   5.657   4.779   5.742  0.0640  0.1918  0.0353
   45CHL1   H17 4461   5.761   4.763   5.776 -0.4927  2.4905  3.2047
   45CHL1   C13 4462   5.574   4.719   5.856  0.5035 -0.6116 -0.1587
   45CHL1   C18 4463   5.425   4.727   5.818 -0.0373 -0.3743 -0.1181
   45CHL1  H18A 4464   5.414   4.799   5.734 -0.6803 -0.8969 -0.4883
   45CHL1  H18B 4465   5.381   4.643   5.761 -0.2929 -0.7444  0.6087
   45CHL1  H18C 4466   5.351   4.766   5.892 -0.6864  0.0829 -0.9979
   45CHL1   C12 4467   5.612   4.586   5.917 -0.0800  0.3680 -0.1018
   45CHL1  H12A 4468   5.569   4.520   5.839 -2.4316  0.4880  1.0025
   45CHL1  H12B 4469   5.719   4.568   5.940 -0.7105  0.3992  3.4292
   45CHL1   C11 4470   5.534   4.557   6.046  0.3094 -0.1045 -0.2258
   45CHL1  H11A 4471   5.425   4.544   6.027  0.0240 -1.1658  1.7975
   45CHL1  H11B 4472   5.575   4.462   6.088  0.7707  0.4155  0.5273
   45CHL1    C9 4473   5.562   4.659   6.156  0.0389 -0.4798 -0.1868
   45CHL1    H9 4474   5.667   4.651   6.192  0.4166  1.6191 -0.6795
   45CHL1   C10 4475   5.485   4.646   6.291 -0.0700 -0.5545 -0.4874
   45CHL1   C19 4476   5.336   4.625   6.270 -0.0150 -0.1900  0.1896
   45CHL1  H19A 4477   5.289   4.616   6.371 -0.0713 -0.7983  0.1180
   45CHL1  H19B 4478   5.281   4.711   6.227 -1.5489 -1.3167 -0.2172
   45CHL1  H19C 4479   5.310   4.524   6.230 -1.1216 -0.5663  1.7404
   45CHL1    C1 4480   5.537   4.513   6.359 -0.5764 -0.3872  0.5964
   45CHL1   H1A 4481   5.500   4.430   6.295 -1.4882 -0.5125  1.2564
   45CHL1   H1B 4482   5.647   4.509   6.364 -0.5752  0.2669  1.5987
   45CHL1    C2 4483   5.482   4.501   6.508 -0.2055 -0.3220  0.0914
   45CHL1   H2A 4484   5.532   4.412   6.553  1.1319  0.1568 -0.3898
   45CHL1   H2B 4485   5.373   4.478   6.513  0.2977 -3.5236 -1.0911
   45CHL1   C20 4486   5.640   4.723   5.598 -0.2764  0.5531  0.0972
   45CHL1   H20 4487   5.540   4.750   5.560 -1.2674 -2.0685  0.6008
   45CHL1   C21 4488   5.659   4.571   5.584  0.0626  0.4335  0.3614
   45CHL1  H21A 4489   5.749   4.543   5.642  0.2488  1.4950  0.6104
   45CHL1  H21B 4490   5.671   4.543   5.477 -2.3128 -0.2544  0.2078
   45CHL1  H21C 4491   5.572   4.518   5.628  0.6554 -0.8326  0.0589
   45CHL1   C22 4492   5.746   4.780   5.498  0.2685 -0.3712  0.2652
   45CHL1  H22A 4493   5.778   4.883   5.525  1.6343 -0.5092 -0.7488
   45CHL1  H22B 4494   5.845   4.730   5.492 -0.0476 -0.8193 -2.6197
   45CHL1   C23 4495   5.703   4.789   5.350 -0.4887  0.0185 -0.4903
   45CHL1  H23A 4496   5.682   4.692   5.300 -2.4344 -0.3893  0.9913
   45CHL1  H23B 4497   5.607   4.845   5.352 -0.1411  0.6221  0.9388
   45CHL1   C24 4498   5.800   4.868   5.271  0.0400  0.5744 -0.8577
   45CHL1  H24A 4499   5.799   4.975   5.300 -1.2199  0.1022  1.0318
   45CHL1  H24B 4500   5.904   4.836   5.296 -0.1370 -0.1220 -0.9882
   45CHL1   C25 4501   5.784   4.860   5.112 -0.2479 -0.1796 -0.1239
   45CHL1   H25 4502   5.678   4.889   5.091 -0.4619 -0.0845  1.0370
   45CHL1   C26 4503   5.894   4.948   5.045 -0.5583 -0.0122 -0.4966
   45CHL1  H26A 4504   5.884   5.053   5.079 -3.0063 -0.6786  1.1859
   45CHL1  H26B 4505   5.986   4.895   5.077 -0.8556 -0.3366 -0.1675
   45CHL1  H26C 4506   5.890   4.952   4.934  0.1670  2.7970 -0.5030
   45CHL1   C27 4507   5.816   4.718   5.074 -0.1317 -0.0806  0.4258
   45CHL1  H27A 4508   5.824   4.704   4.964  2.4573 -0.3721  0.5778
   45CHL1  H27B 4509   5.923   4.693   5.093 -0.2093 -0.0538  0.9178
   45CHL1  H27C 4510   5.747   4.646   5.123 -1.2053  1.0240  0.5864
   46CHL1    C3 4511   1.013   1.509   6.306  0.8709  0.7454 -0.2501
   46CHL1    H3 4512   1.015   1.399   6.288  0.9247  0.4078  1.6775
   46CHL1    O3 4513   0.926   1.514   6.412  0.2646 -0.5224 -0.1863
   46CHL1   H3' 4514   0.971   1.488   6.493 -1.3266  0.5896  1.1148
   46CHL1    C4 4515   1.154   1.562   6.330  0.1613  0.5146 -0.3774
   46CHL1   H4A 4516   1.133   1.664   6.369  2.5311  1.0752 -0.4095
   46CHL1   H4B 4517   1.190   1.500   6.415 -2.1645 -0.0286  0.2700
   46CHL1    C5 4518   1.246   1.549   6.210  0.1313 -0.7169 -1.0061
   46CHL1    C6 4519   1.359   1.478   6.207 -0.6680  0.2445  0.6997
   46CHL1    H6 4520   1.397   1.418   6.292  1.6625 -1.3672 -1.3167
   46CHL1    C7 4521   1.446   1.467   6.079 -0.2136 -0.0516 -0.7379
   46CHL1   H7A 4522   1.553   1.482   6.105 -0.2486  1.9113 -1.5829
   46CHL1   H7B 4523   1.444   1.370   6.024  1.3577 -0.5289 -0.0276
   46CHL1    C8 4524   1.415   1.578   5.976  0.0930  0.9194  0.3986
   46CHL1    H8 4525   1.459   1.672   6.014 -0.4540  1.7311 -0.9467
   46CHL1   C14 4526   1.487   1.553   5.842 -0.8438  0.6784 -0.2965
   46CHL1   H14 4527   1.443   1.458   5.806 -0.9604  0.8129 -0.5105
   46CHL1   C15 4528   1.642   1.545   5.847 -0.2746  0.1951 -0.1401
   46CHL1  H15A 4529   1.676   1.620   5.921 -0.6943 -0.9921  1.3131
   46CHL1  H15B 4530   1.670   1.440   5.871  0.5360 -0.0638 -2.0019
   46CHL1   C16 4531   1.688   1.571   5.706  0.7048 -0.1174  0.2548
   46CHL1  H16A 4532   1.767   1.650   5.705 -1.2999  2.0074  0.4580
   46CHL1  H16B 4533   1.731   1.478   5.665 -1.5183 -1.3607  0.5723
   46CHL1   C17 4534   1.561   1.607   5.619 -0.0237 -0.7445 -0.4363
   46CHL1   H17 4535   1.507   1.518   5.581 -2.6324  0.5104  0.0907
   46CHL1   C13 4536   1.463   1.655   5.733 -0.7747  0.7123  1.0400
   46CHL1   C18 4537   1.491   1.804   5.774 -0.0748 -0.6439 -0.0539
   46CHL1  H18A 4538   1.453   1.841   5.871 -0.3079  3.0550 -1.3913
   46CHL1  H18B 4539   1.598   1.830   5.762 -0.1523 -1.0347 -2.0987
   46CHL1  H18C 4540   1.439   1.864   5.696 -0.7542 -1.5987 -0.3518
   46CHL1   C12 4541   1.309   1.639   5.706 -0.5570  0.1334  0.1416
   46CHL1  H12A 4542   1.281   1.698   5.617  0.0814 -1.0642 -0.8841
   46CHL1  H12B 4543   1.295   1.533   5.678  0.2582 -0.8744  3.1432
   46CHL1   C11 4544   1.225   1.661   5.831 -0.1981  0.1594 -0.8726
   46CHL1  H11A 4545   1.236   1.768   5.858 -1.8856 -0.1856  1.4890
   46CHL1  H11B 4546   1.118   1.646   5.806 -0.7090 -0.2419  1.3868
   46CHL1    C9 4547   1.264   1.587   5.963 -0.2676 -0.3785 -0.1977
   46CHL1    H9 4548   1.239   1.481   5.942  1.6910 -0.6660 -1.3166
   46CHL1   C10 4549   1.190   1.629   6.091  0.0165 -0.7217  0.8750
   46CHL1   C19 4550   1.210   1.775   6.117  0.1224 -0.5157 -0.5806
   46CHL1  H19A 4551   1.316   1.805   6.130  0.1893 -1.6493  2.2328
   46CHL1  H19B 4552   1.168   1.836   6.034  0.3082  0.4493  0.0151
   46CHL1  H19C 4553   1.155   1.811   6.206 -0.7189  1.4738 -1.8258
   46CHL1    C1 4554   1.036   1.594   6.067 -0.3757 -0.7264  0.0565
   46CHL1   H1A 4555   0.988   1.661   5.992  0.7728 -0.6528 -0.6288
   46CHL1   H1B 4556   1.043   1.489   6.033  0.4945 -0.5131 -0.4401
   46CHL1    C2 4557   0.950   1.584   6.195 -1.0806 -0.3885 -0.1573
   46CHL1   H2A 4558   0.861   1.528   6.161 -0.4583 -0.9990 -0.7891
   46CHL1   H2B 4559   0.923   1.688   6.225  3.0973  0.7002  0.5375
   46CHL1   C20 4560   1.584   1.702   5.501  0.3689 -0.0694  1.1432
   46CHL1   H20 4561   1.602   1.808   5.532 -0.3128 -0.4740  3.0638
   46CHL1   C21 4562   1.459   1.709   5.415  0.5130  0.5932 -0.1705
   46CHL1  H21A 4563   1.482   1.765   5.322 -0.6838 -0.0039 -0.8466
   46CHL1  H21B 4564   1.377   1.766   5.465  0.7047  1.6184 -0.9783
   46CHL1  H21C 4565   1.422   1.609   5.386  0.4302  1.6873 -4.5159
   46CHL1   C22 4566   1.704   1.668   5.418 -0.4921 -0.1261 -0.1853
   46CHL1  H22A 4567   1.725   1.744   5.339  0.0575 -0.7020 -0.6006
   46CHL1  H22B 4568   1.799   1.686   5.473 -0.1317  1.5595 -1.2735
   46CHL1   C23 4569   1.689   1.528   5.342 -0.1150 -0.8718  0.9531
   46CHL1  H23A 4570   1.691   1.438   5.407  1.8691 -2.1824 -0.8233
   46CHL1  H23B 4571   1.595   1.544   5.284  0.4559 -0.7314  0.0456
   46CHL1   C24 4572   1.806   1.516   5.244  0.5152  0.0099 -0.2298
   46CHL1  H24A 4573   1.789   1.607   5.182 -0.6349 -0.4059 -0.5553
   46CHL1  H24B 4574   1.898   1.508   5.306  0.5222  2.8908  0.2646
   46CHL1   C25 4575   1.804   1.391   5.151  0.1291  0.5333  0.3392
   46CHL1   H25 4576   1.809   1.303   5.219 -0.0727  0.5017  0.3132
   46CHL1   C26 4577   1.675   1.385   5.067  0.5322  0.6261 -0.0906
   46CHL1  H26A 4578   1.663   1.462   4.988  1.1984 -1.9949 -2.8984
   46CHL1  H26B 4579   1.663   1.291   5.010  2.3531  0.8885 -0.9793
   46CHL1  H26C 4580   1.588   1.390   5.136 -0.4991 -1.9909 -1.0670
   46CHL1   C27 4581   1.938   1.397   5.063 -0.3797 -0.4608 -0.0337
   46CHL1  H27A 4582   1.932   1.497   5.015 -0.6730  0.0482  1.0441
   46CHL1  H27B 4583   2.027   1.380   5.127 -0.1318  2.1057  0.4257
   46CHL1  H27C 4584   1.938   1.319   4.984 -2.5596 -0.8228  0.2636
   47CHL1    C3 4585   2.477   1.174   6.748  0.2007 -0.3730  0.2114
   47CHL1    H3 4586   2.562   1.104   6.739  1.0119  0.5261  0.6221
   47CHL1    O3 4587   2.456   1.184   6.880  0.4184  0.5452 -0.2527
   47CHL1   H3' 4588   2.438   1.098   6.919  0.3422  0.0636 -1.2976
   47CHL1    C4 4589   2.534   1.308   6.694  0.0172  0.6080  0.7684
   47CHL1   H4A 4590   2.458   1.384   6.719 -1.0972 -0.6193  1.2246
   47CHL1   H4B 4591   2.632   1.333   6.741  0.2471  0.5777  0.3072
   47CHL1    C5 4592   2.553   1.306   6.545  0.0891  0.1820 -0.0371
   47CHL1    C6 4593   2.671   1.344   6.488  0.0525 -0.5660  0.8809
   47CHL1    H6 4594   2.760   1.368   6.547  0.7455 -1.3253  0.1684
   47CHL1    C7 4595   2.689   1.354   6.343 -0.2314 -0.6670 -0.5494
   47CHL1   H7A 4596   2.733   1.452   6.313 -1.2189 -0.1713 -0.4218
   47CHL1   H7B 4597   2.758   1.277   6.302 -2.0603 -2.2826 -0.7464
   47CHL1    C8 4598   2.566   1.336   6.260  0.5216  0.8384  0.9268
   47CHL1    H8 4599   2.506   1.429   6.245 -1.7413 -0.8785 -1.6110
   47CHL1   C14 4600   2.611   1.287   6.121  0.5122 -0.2507  0.2887
   47CHL1   H14 4601   2.662   1.189   6.131 -0.1603 -0.8010 -1.1894
   47CHL1   C15 4602   2.699   1.383   6.047  0.0044  0.1454 -0.1653
   47CHL1  H15A 4603   2.659   1.486   6.044 -0.4717  0.0174  1.1160
   47CHL1  H15B 4604   2.804   1.397   6.082  0.5198  2.9268 -2.4750
   47CHL1   C16 4605   2.696   1.329   5.903 -0.6542 -1.0894 -0.4386
   47CHL1  H16A 4606   2.673   1.416   5.838 -3.2505 -1.6621 -0.4106
   47CHL1  H16B 4607   2.794   1.283   5.878  0.4741  0.8314  0.2268
   47CHL1   C17 4608   2.583   1.224   5.893  0.2661 -0.4721 -0.8743
   47CHL1   H17 4609   2.636   1.126   5.896  1.8594  0.3329 -1.1655
   47CHL1   C13 4610   2.501   1.261   6.016  0.0659  0.1912 -0.2086
   47CHL1   C18 4611   2.405   1.383   5.981 -0.2783  0.0575  0.0966
   47CHL1  H18A 4612   2.328   1.341   5.914 -1.9785 -1.1934  2.6615
   47CHL1  H18B 4613   2.349   1.426   6.067 -0.2661 -3.8060  2.2848
   47CHL1  H18C 4614   2.458   1.464   5.926 -0.9708  1.1676  0.9932
   47CHL1   C12 4615   2.411   1.148   6.082 -0.2362  0.8323 -0.0419
   47CHL1  H12A 4616   2.332   1.113   6.012 -0.8201 -1.2213  1.5372
   47CHL1  H12B 4617   2.482   1.063   6.092 -3.6796 -2.3241 -0.5302
   47CHL1   C11 4618   2.356   1.172   6.222 -0.3579  0.3158 -0.7117
   47CHL1  H11A 4619   2.288   1.259   6.218  1.9345  2.3308  1.2063
   47CHL1  H11B 4620   2.308   1.082   6.266 -1.7198  1.1390 -0.4591
   47CHL1    C9 4621   2.471   1.222   6.319 -0.4154  0.4447 -0.0186
   47CHL1    H9 4622   2.541   1.136   6.330 -0.2731  0.3652 -1.3184
   47CHL1   C10 4623   2.432   1.258   6.463  0.3325 -0.0468 -0.2847
   47CHL1   C19 4624   2.324   1.367   6.461  0.0792 -0.0900  0.7179
   47CHL1  H19A 4625   2.230   1.343   6.408 -1.5265  3.4884  1.6791
   47CHL1  H19B 4626   2.295   1.385   6.567 -2.0511  0.8103  0.0178
   47CHL1  H19C 4627   2.354   1.466   6.422  0.6498 -0.6487 -0.3347
   47CHL1    C1 4628   2.380   1.124   6.534 -1.1223 -0.4451 -0.2712
   47CHL1   H1A 4629   2.295   1.081   6.478  1.1950 -0.7935 -3.8428
   47CHL1   H1B 4630   2.461   1.047   6.529  0.0688  0.7845 -0.3450
   47CHL1    C2 4631   2.350   1.146   6.677 -0.0938 -0.1494  0.5274
   47CHL1   H2A 4632   2.319   1.047   6.718 -0.0132 -0.5428 -0.3374
   47CHL1   H2B 4633   2.274   1.223   6.699  2.0368  2.1210  0.3919
   47CHL1   C20 4634   2.523   1.226   5.760 -0.1989  0.3989  0.6572
   47CHL1   H20 4635   2.468   1.323   5.751 -2.6373 -0.8089  1.4784
   47CHL1   C21 4636   2.423   1.109   5.756  0.1097  0.2963 -0.1565
   47CHL1  H21A 4637   2.335   1.118   5.823  0.4958 -3.0720  0.9887
   47CHL1  H21B 4638   2.470   1.012   5.784 -0.1314  0.2796  0.2000
   47CHL1  H21C 4639   2.386   1.106   5.652  0.6708  1.9983 -0.4420
   47CHL1   C22 4640   2.626   1.219   5.646 -0.4860  0.0112 -0.1860
   47CHL1  H22A 4641   2.701   1.299   5.658  0.0654 -0.7767  2.0639
   47CHL1  H22B 4642   2.693   1.130   5.654  0.0841  0.5224  0.8601
   47CHL1   C23 4643   2.564   1.226   5.506 -0.0327  0.9087 -0.7051
   47CHL1  H23A 4644   2.490   1.143   5.499  2.2325 -1.2838 -0.3090
   47CHL1  H23B 4645   2.517   1.326   5.501 -2.4111 -0.1659 -1.0194
   47CHL1   C24 4646   2.668   1.202   5.401  0.2926  0.4956  0.5180
   47CHL1  H24A 4647   2.755   1.268   5.421 -0.1948  1.4955 -0.5512
   47CHL1  H24B 4648   2.717   1.103   5.396  0.1889  0.5083 -1.5842
   47CHL1   C25 4649   2.614   1.213   5.256 -0.4268 -0.3534  0.3712
   47CHL1   H25 4650   2.593   1.322   5.253  3.7444  0.5996 -1.5816
   47CHL1   C26 4651   2.724   1.194   5.152  0.8962  0.2005 -0.4876
   47CHL1  H26A 4652   2.826   1.231   5.176  1.8457 -1.7205 -1.2599
   47CHL1  H26B 4653   2.741   1.084   5.160 -2.2420 -0.4399 -1.4595
   47CHL1  H26C 4654   2.695   1.219   5.048  1.5650 -0.3243 -0.8098
   47CHL1   C27 4655   2.486   1.133   5.231  0.4483 -0.4466 -0.1071
   47CHL1  H27A 4656   2.398   1.164   5.292 -0.9080 -1.5337 -1.4354
   47CHL1  H27B 4657   2.449   1.156   5.129  0.2154 -0.9154 -0.1288
   47CHL1  H27C 4658   2.510   1.026   5.251 -0.0980 -0.4899  0.3552
   48CHL1    C3 4659   5.080   6.638   6.336  0.1100 -1.0247  0.4144
   48CHL1    H3 4660   5.005   6.720   6.341  0.8975 -0.0661 -1.9553
   48CHL1    O3 4661   5.092   6.571   6.465 -0.4117 -0.2164  0.0007
   48CHL1   H3' 4662   5.000   6.552   6.486 -0.1296 -0.9089  0.6472
   48CHL1    C4 4663   5.042   6.529   6.231 -0.1164  0.0907  0.3167
   48CHL1   H4A 4664   5.120   6.450   6.229 -1.4875 -1.3096 -1.7734
   48CHL1   H4B 4665   4.960   6.465   6.271  0.6857 -0.9524  0.3500
   48CHL1    C5 4666   5.014   6.585   6.088 -0.1657 -0.1108  0.3455
   48CHL1    C6 4667   4.899   6.578   6.021  0.1161 -0.1181 -0.3120
   48CHL1    H6 4668   4.807   6.528   6.054 -0.7693  2.0420  0.6779
   48CHL1    C7 4669   4.885   6.621   5.878 -0.9252  0.1317  0.5582
   48CHL1   H7A 4670   4.841   6.535   5.822  0.7876 -1.4759  1.5518
   48CHL1   H7B 4671   4.819   6.710   5.887  1.4407  1.9290  1.0787
   48CHL1    C8 4672   5.019   6.671   5.812  0.0737 -0.2581  0.3280
   48CHL1    H8 4673   5.069   6.576   5.780  0.0457 -1.3463  3.2251
   48CHL1   C14 4674   4.986   6.771   5.701 -0.4475  0.9006 -0.1169
   48CHL1   H14 4675   4.946   6.859   5.756  0.3040  1.6411 -0.7420
   48CHL1   C15 4676   4.874   6.745   5.602  0.1734 -0.6361 -0.8712
   48CHL1  H15A 4677   4.893   6.646   5.555  1.2615  0.2908 -2.4953
   48CHL1  H15B 4678   4.782   6.751   5.665  2.1670 -1.2334  2.3524
   48CHL1   C16 4679   4.897   6.853   5.495 -0.1264  0.6531 -0.2388
   48CHL1  H16A 4680   4.894   6.805   5.394  0.7620 -0.0649  0.0627
   48CHL1  H16B 4681   4.818   6.929   5.479  0.4707  1.2610 -0.3241
   48CHL1   C17 4682   5.035   6.921   5.522  0.0887  0.0097 -0.1850
   48CHL1   H17 4683   5.020   7.011   5.586  0.6886  0.7743 -1.0850
   48CHL1   C13 4684   5.106   6.821   5.616 -0.0710 -0.1136 -0.0802
   48CHL1   C18 4685   5.174   6.702   5.546  0.8549 -0.1677 -0.2685
   48CHL1  H18A 4686   5.266   6.738   5.494  0.7491  1.1273  0.4015
   48CHL1  H18B 4687   5.218   6.628   5.615  0.7234  0.0552  0.0578
   48CHL1  H18C 4688   5.098   6.650   5.483 -0.0486  1.1288 -0.2811
   48CHL1   C12 4689   5.206   6.891   5.719  0.3068 -0.6673  1.0099
   48CHL1  H12A 4690   5.298   6.922   5.665  1.3552 -1.8194  2.0792
   48CHL1  H12B 4691   5.161   6.985   5.757  0.8084  0.1224 -0.2732
   48CHL1   C11 4692   5.238   6.804   5.840  0.1178 -0.3097  0.0565
   48CHL1  H11A 4693   5.308   6.728   5.798  0.9109  0.8048 -0.6599
   48CHL1  H11B 4694   5.299   6.859   5.915  0.4474  0.2701 -0.6249
   48CHL1    C9 4695   5.114   6.740   5.902  0.0408  0.2705 -0.6063
   48CHL1    H9 4696   5.061   6.833   5.933  0.2069  0.9617 -2.2951
   48CHL1   C10 4697   5.142   6.652   6.032 -0.3917  0.8291  0.5049
   48CHL1   C19 4698   5.248   6.543   5.998 -0.9940  0.6804  0.0619
   48CHL1  H19A 4699   5.209   6.489   5.910  0.1097  0.0463 -0.0444
   48CHL1  H19B 4700   5.350   6.586   5.990 -1.1348  1.1575  0.6569
   48CHL1  H19C 4701   5.257   6.465   6.077 -1.5428 -0.4859 -1.0039
   48CHL1    C1 4702   5.190   6.747   6.143  0.0940 -0.1751  0.2494
   48CHL1   H1A 4703   5.291   6.778   6.109 -0.4871 -0.0758 -1.5064
   48CHL1   H1B 4704   5.124   6.837   6.147 -0.8556 -0.5521 -3.4320
   48CHL1    C2 4705   5.207   6.702   6.292 -0.0908  0.2112  0.1003
   48CHL1   H2A 4706   5.241   6.788   6.354  1.6277 -0.1279 -0.3089
   48CHL1   H2B 4707   5.291   6.630   6.289  0.1279  0.4912 -1.4218
   48CHL1   C20 4708   5.116   6.971   5.401 -0.3635  0.4860 -0.4491
   48CHL1   H20 4709   5.223   6.983   5.426 -0.7113  3.0760  0.0493
   48CHL1   C21 4710   5.075   7.122   5.371 -0.1690  0.3284 -0.9815
   48CHL1  H21A 4711   5.159   7.167   5.316  1.0008 -1.7901 -1.0502
   48CHL1  H21B 4712   4.983   7.127   5.310 -1.6302 -0.1542  1.0544
   48CHL1  H21C 4713   5.053   7.169   5.469  1.4478 -0.6062 -0.1255
   48CHL1   C22 4714   5.110   6.885   5.274  0.7020  0.8451  0.7044
   48CHL1  H22A 4715   5.128   6.779   5.302  3.3389  0.5264 -1.7600
   48CHL1  H22B 4716   5.007   6.895   5.234  1.2481  0.7075 -0.8120
   48CHL1   C23 4717   5.200   6.936   5.163 -0.1918 -0.1731 -0.2770
   48CHL1  H23A 4718   5.187   6.872   5.073  1.3736  3.1881 -3.1320
   48CHL1  H23B 4719   5.165   7.038   5.136 -0.3186 -0.1759 -0.1263
   48CHL1   C24 4720   5.349   6.936   5.199  0.5173 -0.2040  0.2733
   48CHL1  H24A 4721   5.389   7.032   5.237 -1.5659  1.2413 -0.9695
   48CHL1  H24B 4722   5.363   6.854   5.273  0.0026 -0.2464  0.3306
   48CHL1   C25 4723   5.449   6.900   5.086  0.0164  0.2519  0.1884
   48CHL1   H25 4724   5.415   6.806   5.038  0.1684  0.0795  0.4151
   48CHL1   C26 4725   5.462   7.003   4.969 -0.2851  0.2986 -0.3155
   48CHL1  H26A 4726   5.370   6.997   4.907 -0.1569  0.5976 -0.5399
   48CHL1  H26B 4727   5.477   7.105   5.011  0.3400 -0.8483  2.4229
   48CHL1  H26C 4728   5.548   6.977   4.904  0.7063 -0.0013  1.0775
   48CHL1   C27 4729   5.588   6.862   5.146 -0.0990 -0.3336 -0.2760
   48CHL1  H27A 4730   5.657   6.826   5.067  1.2779  1.6206 -0.0382
   48CHL1  H27B 4731   5.638   6.951   5.189 -1.0004  1.0873 -2.0681
   48CHL1  H27C 4732   5.567   6.786   5.225 -1.2764  0.7231  0.4676
   49CHL1    C3 4733   6.762   6.192   3.185 -0.0746  0.1874 -0.0777
   49CHL1    H3 4734   6.854   6.248   3.214  0.7494  0.1840 -2.4849
   49CHL1    O3 4735   6.762   6.173   3.048 -0.2040 -0.0819 -0.1009
   49CHL1   H3' 4736   6.702   6.100   3.036  1.6921 -1.6535 -0.4678
   49CHL1    C4 4737   6.770   6.048   3.240 -0.0650 -0.2244  0.1272
   49CHL1   H4A 4738   6.702   5.982   3.181 -1.2391  0.7785  0.3136
   49CHL1   H4B 4739   6.870   6.010   3.211 -0.4320 -1.0471 -0.0882
   49CHL1    C5 4740   6.736   6.035   3.383  0.2751  0.9219  0.8616
   49CHL1    C6 4741   6.818   5.963   3.462  0.7098  0.1079 -0.3864
   49CHL1    H6 4742   6.906   5.911   3.420  0.9920  1.9129 -2.2215
   49CHL1    C7 4743   6.793   5.939   3.606 -0.9233  0.0822  0.8362
   49CHL1   H7A 4744   6.818   5.834   3.634 -2.2217  0.0907  2.2034
   49CHL1   H7B 4745   6.857   5.996   3.677  0.1593  1.5809 -1.2596
   49CHL1    C8 4746   6.640   5.965   3.638  0.2830 -0.2115 -0.4886
   49CHL1    H8 4747   6.578   5.884   3.593 -1.0235 -1.0432  2.5667
   49CHL1   C14 4748   6.613   5.951   3.789  0.2550  0.2923  0.3694
   49CHL1   H14 4749   6.676   6.022   3.846  0.7857  1.2700 -1.3895
   49CHL1   C15 4750   6.650   5.821   3.861 -0.5074  0.2939 -0.0517
   49CHL1  H15A 4751   6.621   5.735   3.797 -0.0612 -0.8817  1.2578
   49CHL1  H15B 4752   6.755   5.790   3.880 -0.0559  1.6645 -0.2062
   49CHL1   C16 4753   6.565   5.825   3.988 -0.3707  0.1653 -0.0413
   49CHL1  H16A 4754   6.509   5.729   3.986 -1.8862  1.0104  0.6643
   49CHL1  H16B 4755   6.620   5.801   4.081 -0.9620 -0.7955  0.0761
   49CHL1   C17 4756   6.475   5.954   3.986 -0.2241 -0.2402 -0.3513
   49CHL1   H17 4757   6.534   6.038   4.025 -0.4817 -0.1643 -0.1200
   49CHL1   C13 4758   6.465   5.979   3.834 -0.1409 -0.3494 -0.3224
   49CHL1   C18 4759   6.358   5.889   3.778 -0.9709 -0.1854  0.4202
   49CHL1  H18A 4760   6.374   5.793   3.831  1.7286  0.2817  0.5862
   49CHL1  H18B 4761   6.253   5.924   3.788 -0.8482 -0.4416  5.0573
   49CHL1  H18C 4762   6.385   5.871   3.672 -0.4140  0.9817  0.3557
   49CHL1   C12 4763   6.437   6.126   3.791  0.5066 -0.4921 -0.9359
   49CHL1  H12A 4764   6.328   6.138   3.812  0.1574 -3.3283 -0.7655
   49CHL1  H12B 4765   6.509   6.194   3.840  0.8104 -0.7687 -1.0013
   49CHL1   C11 4766   6.458   6.148   3.637  0.0524  0.4727 -0.3194
   49CHL1  H11A 4767   6.366   6.113   3.586  0.0833 -0.0058 -0.0565
   49CHL1  H11B 4768   6.455   6.257   3.617 -0.1519  0.5554  0.1417
   49CHL1    C9 4769   6.597   6.102   3.579  0.7495 -0.1544 -0.7462
   49CHL1    H9 4770   6.670   6.172   3.624  0.1972  0.8833 -1.4225
   49CHL1   C10 4771   6.605   6.106   3.423 -0.0405 -0.4868  0.0740
   49CHL1   C19 4772   6.486   6.033   3.363 -0.3143  0.4182  0.1266
   49CHL1  H19A 4773   6.395   6.090   3.390 -0.6967 -0.1247 -0.0004
   49CHL1  H19B 4774   6.484   6.028   3.252  1.8454  0.4189  0.0422
   49CHL1  H19C 4775   6.482   5.931   3.409 -0.8192 -0.1441 -1.1175
   49CHL1    C1 4776   6.602   6.253   3.374 -0.1844  0.3457 -0.1403
   49CHL1   H1A 4777   6.495   6.281   3.376 -0.6078 -1.1400  1.7139
   49CHL1   H1B 4778   6.659   6.322   3.439  0.4240 -0.8935  0.6738
   49CHL1    C2 4779   6.628   6.262   3.221 -0.0335  0.4894 -0.2163
   49CHL1   H2A 4780   6.638   6.370   3.197  2.4547  0.9886  2.5452
   49CHL1   H2B 4781   6.544   6.214   3.167  1.4174 -0.4351 -1.7701
   49CHL1   C20 4782   6.344   5.938   4.071 -0.3192 -0.4210  0.0392
   49CHL1   H20 4783   6.268   5.886   4.008 -1.7075  1.7453 -0.1956
   49CHL1   C21 4784   6.289   6.078   4.101  0.4979  0.1991 -0.0489
   49CHL1  H21A 4785   6.202   6.078   4.170  0.3918  0.5014 -0.1832
   49CHL1  H21B 4786   6.258   6.136   4.012  1.4039  0.8288  0.0259
   49CHL1  H21C 4787   6.369   6.141   4.145 -0.8897  1.9648  0.0381
   49CHL1   C22 4788   6.353   5.855   4.203 -0.5422 -0.3975 -0.2238
   49CHL1  H22A 4789   6.428   5.773   4.206 -2.8677 -2.6041  1.3489
   49CHL1  H22B 4790   6.377   5.941   4.269 -2.2470 -0.0029 -0.0886
   49CHL1   C23 4791   6.227   5.792   4.247  1.0268 -0.0060 -0.4913
   49CHL1  H23A 4792   6.148   5.870   4.241  1.3017  0.2678 -0.6022
   49CHL1  H23B 4793   6.196   5.717   4.171 -1.8629  0.3889  0.1674
   49CHL1   C24 4794   6.240   5.722   4.386 -0.4009  0.0152 -0.2315
   49CHL1  H24A 4795   6.332   5.662   4.398 -0.0846  0.1164 -1.9666
   49CHL1  H24B 4796   6.250   5.799   4.466 -0.6750  1.2763 -1.3810
   49CHL1   C25 4797   6.108   5.651   4.438  0.0435  0.1379  0.1780
   49CHL1   H25 4798   6.091   5.571   4.363  0.6625  0.2671 -0.1104
   49CHL1   C26 4799   6.133   5.577   4.571 -0.3309 -0.1058  0.2793
   49CHL1  H26A 4800   6.130   5.648   4.657 -1.1612 -0.6092  0.6782
   49CHL1  H26B 4801   6.055   5.500   4.587  0.7411 -1.7045 -1.6981
   49CHL1  H26C 4802   6.227   5.517   4.567 -0.4972 -0.3817  0.4796
   49CHL1   C27 4803   5.982   5.741   4.431 -0.5192  0.2708 -0.1820
   49CHL1  H27A 4804   5.987   5.836   4.488 -4.1103  2.0921 -2.5193
   49CHL1  H27B 4805   5.966   5.760   4.323 -1.0853 -2.3311 -0.6151
   49CHL1  H27C 4806   5.896   5.682   4.469  0.6839 -0.5093  1.4704
   50CHL1    C3 4807   5.498   1.401   3.669 -0.2178  0.2287 -0.2283
   50CHL1    H3 4808   5.392   1.414   3.641  0.1967  0.9317 -1.5315
   50CHL1    O3 4809   5.544   1.300   3.585 -0.0754  0.0519  0.2973
   50CHL1   H3' 4810   5.520   1.319   3.494  2.9339 -1.8367 -1.0661
   50CHL1    C4 4811   5.568   1.539   3.646 -0.1339 -0.4171 -0.3657
   50CHL1   H4A 4812   5.675   1.517   3.666  0.2508  0.3871 -1.4727
   50CHL1   H4B 4813   5.554   1.570   3.540 -1.1167 -0.1390 -0.1657
   50CHL1    C5 4814   5.516   1.646   3.739  0.6594 -0.2731  0.9900
   50CHL1    C6 4815   5.462   1.760   3.686  0.3238  0.8109 -0.1861
   50CHL1    H6 4816   5.470   1.783   3.579  0.0879  0.8181 -0.2023
   50CHL1    C7 4817   5.411   1.869   3.777  0.2807 -0.4219  0.3001
   50CHL1   H7A 4818   5.439   1.967   3.734 -0.2624 -0.5578 -0.3871
   50CHL1   H7B 4819   5.300   1.866   3.782  0.2810 -0.4473  0.2923
   50CHL1    C8 4820   5.461   1.855   3.924  0.1709  0.1657  0.1908
   50CHL1    H8 4821   5.570   1.874   3.927  0.8620 -3.2705  0.6464
   50CHL1   C14 4822   5.380   1.944   4.018  0.2975 -0.0047 -0.0499
   50CHL1   H14 4823   5.275   1.910   4.026  0.3234  0.3106  2.3210
   50CHL1   C15 4824   5.365   2.091   3.970  0.1860 -0.0053 -0.2967
   50CHL1  H15A 4825   5.466   2.121   3.933  0.4803 -2.3260 -1.5759
   50CHL1  H15B 4826   5.294   2.098   3.884 -0.9109 -2.2278  0.3688
   50CHL1   C16 4827   5.321   2.161   4.099 -0.2060  0.0643  0.5089
   50CHL1  H16A 4828   5.393   2.242   4.124 -1.5023  1.3297  0.2993
   50CHL1  H16B 4829   5.216   2.197   4.084 -0.1846 -0.5683 -1.4364
   50CHL1   C17 4830   5.323   2.052   4.217 -0.3092  0.3919 -0.1427
   50CHL1   H17 4831   5.226   2.001   4.233 -0.0447  0.1119  0.6052
   50CHL1   C13 4832   5.425   1.942   4.162 -0.6388 -0.0852 -0.0352
   50CHL1   C18 4833   5.572   1.988   4.179  0.5874  0.2240 -0.9074
   50CHL1  H18A 4834   5.647   1.919   4.134  0.9175  0.8700 -1.3723
   50CHL1  H18B 4835   5.575   2.093   4.141 -3.2956  1.6007  1.9304
   50CHL1  H18C 4836   5.596   1.987   4.287 -1.7912  0.8581 -0.3107
   50CHL1   C12 4837   5.410   1.802   4.213  0.2948 -0.4125 -0.7995
   50CHL1  H12A 4838   5.447   1.791   4.318  0.5281  1.4542 -0.6497
   50CHL1  H12B 4839   5.299   1.803   4.212  0.3006 -0.1402 -1.8016
   50CHL1   C11 4840   5.478   1.693   4.126 -0.8916 -0.0318 -0.1549
   50CHL1  H11A 4841   5.586   1.699   4.151 -1.4841  1.1343  2.4704
   50CHL1  H11B 4842   5.450   1.593   4.165  2.4888 -0.2243  2.1639
   50CHL1    C9 4843   5.439   1.711   3.978 -0.1703  0.2564 -0.4282
   50CHL1    H9 4844   5.330   1.699   3.960  0.0397 -0.1831 -1.4644
   50CHL1   C10 4845   5.515   1.608   3.888 -0.0031  0.7500  0.0843
   50CHL1   C19 4846   5.658   1.604   3.940 -0.4024  0.3299  0.0644
   50CHL1  H19A 4847   5.735   1.568   3.869  0.1481 -0.6637  1.1284
   50CHL1  H19B 4848   5.695   1.703   3.974  0.3096 -0.0307  0.3551
   50CHL1  H19C 4849   5.656   1.533   4.026  0.0597  0.4696  0.1925
   50CHL1    C1 4850   5.452   1.464   3.905  0.0593 -0.0886 -0.3579
   50CHL1   H1A 4851   5.465   1.432   4.011  2.5306 -0.9301 -0.8643
   50CHL1   H1B 4852   5.345   1.479   3.878  0.7537  2.6396 -1.8741
   50CHL1    C2 4853   5.500   1.355   3.809 -0.8471 -0.2382 -0.3659
   50CHL1   H2A 4854   5.441   1.261   3.820 -0.5906 -0.4920 -1.0896
   50CHL1   H2B 4855   5.604   1.333   3.840 -0.9081  0.8798  0.7230
   50CHL1   C20 4856   5.366   2.109   4.358 -0.2451 -0.4640  0.2839
   50CHL1   H20 4857   5.464   2.153   4.331 -0.2981  0.1612  1.0599
   50CHL1   C21 4858   5.385   2.006   4.469  0.1887  0.3977 -0.0195
   50CHL1  H21A 4859   5.465   1.931   4.452 -0.0014  0.1882  0.0112
   50CHL1  H21B 4860   5.294   1.943   4.476 -0.0997  0.9653  4.4787
   50CHL1  H21C 4861   5.402   2.061   4.565 -0.3398  0.3529  0.1035
   50CHL1   C22 4862   5.277   2.231   4.409  0.3045 -0.0395 -0.2719
   50CHL1  H22A 4863   5.336   2.262   4.498  2.3824 -1.3167 -1.1593
   50CHL1  H22B 4864   5.294   2.315   4.339  0.4637  1.2391  1.2367
   50CHL1   C23 4865   5.126   2.185   4.427 -0.5000  0.4719  0.3129
   50CHL1  H23A 4866   5.090   2.165   4.323  1.6343  0.5293 -0.5050
   50CHL1  H23B 4867   5.123   2.080   4.464 -0.7925 -0.2704 -1.6424
   50CHL1   C24 4868   5.026   2.286   4.490 -0.0508 -0.1351 -0.6088
   50CHL1  H24A 4869   5.004   2.360   4.411  0.8640  0.0835 -0.6781
   50CHL1  H24B 4870   4.931   2.230   4.498  0.1087 -0.6216 -1.8898
   50CHL1   C25 4871   5.058   2.346   4.627 -0.8935 -0.0800 -0.4361
   50CHL1   H25 4872   5.155   2.393   4.602 -1.6218  1.3828 -0.5956
   50CHL1   C26 4873   4.958   2.457   4.678  0.5712 -0.8186  0.3435
   50CHL1  H26A 4874   4.858   2.410   4.696  0.7749 -0.7559  1.7139
   50CHL1  H26B 4875   4.981   2.506   4.774  0.1046 -0.3403  0.2144
   50CHL1  H26C 4876   4.943   2.515   4.585  0.6804 -0.3973  0.5893
   50CHL1   C27 4877   5.089   2.233   4.732 -0.7627 -0.6150  0.2524
   50CHL1  H27A 4878   4.997   2.171   4.740 -1.6577  0.6657  0.3635
   50CHL1  H27B 4879   5.169   2.165   4.696 -2.0024 -2.2784  0.5130
   50CHL1  H27C 4880   5.120   2.275   4.830  0.6829 -0.9907 -0.0337
   51CHL1    C3 4881   3.934   3.827   3.891  0.3207 -0.1795  0.5414
   51CHL1    H3 4882   3.878   3.733   3.871  0.1927 -0.0828  0.4433
   51CHL1    O3 4883   3.986   3.875   3.769  0.1625 -0.2031  0.5955
   51CHL1   H3' 4884   3.917   3.926   3.726  1.1996  1.4556  0.7991
   51CHL1    C4 4885   3.829   3.932   3.952 -0.6142 -0.3374 -0.4906
   51CHL1   H4A 4886   3.867   4.034   3.971 -1.0715 -0.6770  2.9082
   51CHL1   H4B 4887   3.751   3.942   3.873 -0.1813 -0.4876 -0.9408
   51CHL1    C5 4888   3.772   3.885   4.080  0.6510  1.0214 -0.0244
   51CHL1    C6 4889   3.645   3.851   4.087 -0.0406 -0.4345 -0.1554
   51CHL1    H6 4890   3.586   3.866   3.995 -0.3645 -0.5914  0.0266
   51CHL1    C7 4891   3.575   3.792   4.209  0.8102 -0.3496 -0.7192
   51CHL1   H7A 4892   3.474   3.837   4.220  0.8918 -0.7216  2.3036
   51CHL1   H7B 4893   3.570   3.685   4.181 -2.4651 -0.6910  0.7415
   51CHL1    C8 4894   3.659   3.819   4.340 -0.2597  0.0635 -0.3604
   51CHL1    H8 4895   3.658   3.927   4.366  2.2168 -0.5194  2.8483
   51CHL1   C14 4896   3.604   3.743   4.457 -0.2463  0.1711  0.3430
   51CHL1   H14 4897   3.594   3.637   4.426  1.9812  0.3499 -1.1969
   51CHL1   C15 4898   3.459   3.781   4.503  0.1233  0.4367  0.2559
   51CHL1  H15A 4899   3.446   3.891   4.513  2.1068  0.5200  3.4108
   51CHL1  H15B 4900   3.387   3.735   4.432  0.5976 -0.2763  0.2260
   51CHL1   C16 4901   3.449   3.720   4.649  0.3430 -0.1144  0.4493
   51CHL1  H16A 4902   3.417   3.797   4.722 -0.4853 -0.5124  0.5121
   51CHL1  H16B 4903   3.374   3.639   4.648  1.8028 -1.5631  1.6063
   51CHL1   C17 4904   3.592   3.671   4.681 -0.2193  0.0313  0.0483
   51CHL1   H17 4905   3.598   3.563   4.655  1.6559 -0.4539  2.1889
   51CHL1   C13 4906   3.685   3.747   4.587 -0.2763  0.2914  0.1858
   51CHL1   C18 4907   3.710   3.883   4.642 -0.0727  0.3381 -0.3707
   51CHL1  H18A 4908   3.731   3.957   4.562 -1.6185  1.2402  0.0122
   51CHL1  H18B 4909   3.614   3.928   4.675  0.3298  0.6825  0.3342
   51CHL1  H18C 4910   3.785   3.871   4.723  0.0979 -0.5283 -0.6403
   51CHL1   C12 4911   3.828   3.688   4.544 -0.5159  0.5454 -0.3286
   51CHL1  H12A 4912   3.902   3.688   4.627 -1.0073 -2.9765  0.2798
   51CHL1  H12B 4913   3.799   3.587   4.509 -5.1297  1.9107 -1.1908
   51CHL1   C11 4914   3.890   3.769   4.430 -0.4391 -0.0710  0.2257
   51CHL1  H11A 4915   3.920   3.865   4.477 -1.3039  0.6253 -0.6199
   51CHL1  H11B 4916   3.988   3.730   4.395 -0.7410  0.4457 -1.2323
   51CHL1    C9 4917   3.802   3.774   4.304 -0.0831  0.2167  0.8181
   51CHL1    H9 4918   3.799   3.667   4.276 -0.8225 -0.5215  3.4116
   51CHL1   C10 4919   3.874   3.851   4.191  0.5767 -0.5952  0.3172
   51CHL1   C19 4920   3.930   3.984   4.251  0.1489 -0.0571 -0.0328
   51CHL1  H19A 4921   3.850   4.028   4.314 -0.7036  0.0308 -1.1346
   51CHL1  H19B 4922   4.015   3.959   4.318  0.7784  0.7831 -0.4897
   51CHL1  H19C 4923   3.962   4.063   4.179  2.2401  0.6233  1.5657
   51CHL1    C1 4924   3.983   3.753   4.131  0.6494 -0.2509 -0.2101
   51CHL1   H1A 4925   4.064   3.737   4.204 -0.2006  0.4599  0.9205
   51CHL1   H1B 4926   3.940   3.651   4.118  0.9613 -0.6414  1.6006
   51CHL1    C2 4927   4.042   3.804   3.998 -0.0243 -0.0156  0.5493
   51CHL1   H2A 4928   4.120   3.736   3.957 -1.2550 -0.1676 -1.6905
   51CHL1   H2B 4929   4.083   3.906   4.015 -0.2046  0.3381 -0.9444
   51CHL1   C20 4930   3.621   3.674   4.837  0.4797  0.0097  1.1298
   51CHL1   H20 4931   3.607   3.780   4.867 -2.0750 -0.1799  0.7925
   51CHL1   C21 4932   3.759   3.630   4.880 -0.5198  0.0110  0.1224
   51CHL1  H21A 4933   3.834   3.705   4.847  0.2650  0.3936  2.5820
   51CHL1  H21B 4934   3.791   3.534   4.837  0.2410  1.2355 -2.2094
   51CHL1  H21C 4935   3.771   3.627   4.991 -2.6627  1.1568  0.4470
   51CHL1   C22 4936   3.514   3.593   4.919  0.0313 -0.6766 -0.6740
   51CHL1  H22A 4937   3.414   3.627   4.884  0.8199  0.5972 -1.8048
   51CHL1  H22B 4938   3.524   3.489   4.882  2.2142 -0.5821 -0.5073
   51CHL1   C23 4939   3.525   3.608   5.069 -0.4197 -0.2521 -0.8909
   51CHL1  H23A 4940   3.624   3.567   5.098 -0.4383 -0.1396 -0.6679
   51CHL1  H23B 4941   3.519   3.714   5.103 -0.2228 -0.5793  0.1988
   51CHL1   C24 4942   3.411   3.534   5.145 -0.0830 -0.0477 -0.3668
   51CHL1  H24A 4943   3.318   3.585   5.113 -0.9563  0.2210  2.3491
   51CHL1  H24B 4944   3.403   3.428   5.112  2.6515 -0.5709  0.4517
   51CHL1   C25 4945   3.403   3.541   5.304  0.7694  0.4978  0.1403
   51CHL1   H25 4946   3.431   3.647   5.324  0.5861  1.0221 -2.1164
   51CHL1   C26 4947   3.261   3.511   5.354  0.5306  0.8031  0.2064
   51CHL1  H26A 4948   3.262   3.489   5.462  2.2948 -0.4303 -0.0029
   51CHL1  H26B 4949   3.195   3.597   5.328  0.8063  1.2752  1.0473
   51CHL1  H26C 4950   3.223   3.422   5.301  0.2198  1.2567 -0.3469
   51CHL1   C27 4951   3.507   3.446   5.363 -0.8489  0.5367  0.1409
   51CHL1  H27A 4952   3.596   3.448   5.298  1.0663  1.3894  2.6061
   51CHL1  H27B 4953   3.545   3.472   5.465  0.5147  0.3416 -0.2968
   51CHL1  H27C 4954   3.468   3.343   5.351  0.0512  0.1115  0.7532
   52CHL1    C3 4955   4.408   4.506   3.181  0.3640  0.0854 -0.4808
   52CHL1    H3 4956   4.327   4.561   3.234  0.9980  1.0884 -0.5206
   52CHL1    O3 4957   4.361   4.469   3.053 -0.2396  0.4591 -0.4367
   52CHL1   H3' 4958   4.431   4.440   2.994 -0.2451 -1.3544  0.3954
   52CHL1    C4 4959   4.533   4.590   3.165  0.0476 -0.1271  0.7941
   52CHL1   H4A 4960   4.607   4.548   3.094 -1.8959 -1.6942 -0.4110
   52CHL1   H4B 4961   4.495   4.678   3.109  0.8179 -1.2631 -1.6344
   52CHL1    C5 4962   4.593   4.634   3.291 -0.5219  0.6178  0.4905
   52CHL1    C6 4963   4.612   4.763   3.308 -0.3062  0.0940 -0.5244
   52CHL1    H6 4964   4.589   4.844   3.237 -2.3120  0.1177  0.0942
   52CHL1    C7 4965   4.672   4.820   3.439  0.3810  0.3440  0.3920
   52CHL1   H7A 4966   4.745   4.900   3.415  0.3035  0.2589 -0.1541
   52CHL1   H7B 4967   4.588   4.865   3.497 -0.0442  1.5009 -1.0375
   52CHL1    C8 4968   4.734   4.710   3.528  0.1932  0.7276 -0.1755
   52CHL1    H8 4969   4.831   4.674   3.486 -0.6548 -1.3147 -0.4804
   52CHL1   C14 4970   4.760   4.760   3.668 -0.0550  0.0652 -0.5451
   52CHL1   H14 4971   4.658   4.780   3.707 -0.2095  0.3864 -1.1016
   52CHL1   C15 4972   4.838   4.895   3.681 -0.0357 -0.3078  0.9382
   52CHL1  H15A 4973   4.927   4.892   3.614 -0.4368 -0.9420  0.4174
   52CHL1  H15B 4974   4.773   4.980   3.648  0.2944 -0.2787  0.3458
   52CHL1   C16 4975   4.884   4.890   3.823  0.0098  0.3969  0.0205
   52CHL1  H16A 4976   4.994   4.905   3.822 -0.0336  0.7190  0.0263
   52CHL1  H16B 4977   4.864   4.977   3.888  1.6628  1.6794 -1.1038
   52CHL1   C17 4978   4.828   4.759   3.890 -0.0977 -0.0378 -0.3311
   52CHL1   H17 4979   4.727   4.783   3.930  0.9263 -0.2974  2.5937
   52CHL1   C13 4980   4.808   4.661   3.774 -0.1959  0.5737 -0.2061
   52CHL1   C18 4981   4.947   4.615   3.723 -0.0889 -0.9962  0.2817
   52CHL1  H18A 4982   4.988   4.557   3.809  0.9545  0.0803  0.5331
   52CHL1  H18B 4983   4.953   4.564   3.625  3.0698 -1.1812  0.4662
   52CHL1  H18C 4984   5.011   4.705   3.710 -3.1897  1.6652  2.0122
   52CHL1   C12 4985   4.720   4.535   3.778 -0.5881 -1.1502 -0.3427
   52CHL1  H12A 4986   4.758   4.456   3.846  1.8689  0.4249  0.2335
   52CHL1  H12B 4987   4.619   4.559   3.820 -0.9098 -3.3190  0.2470
   52CHL1   C11 4988   4.690   4.474   3.636  0.3278 -0.6622 -0.0932
   52CHL1  H11A 4989   4.784   4.427   3.599  0.7906 -0.2492  0.5405
   52CHL1  H11B 4990   4.614   4.394   3.650 -2.9111  1.9462 -1.3629
   52CHL1    C9 4991   4.645   4.577   3.528 -0.2350  0.0029 -0.0403
   52CHL1    H9 4992   4.553   4.610   3.581  1.0038 -2.2963  3.9040
   52CHL1   C10 4993   4.620   4.519   3.392  0.8222  0.3324  0.2826
   52CHL1   C19 4994   4.741   4.423   3.348 -0.3678 -0.1273 -0.4281
   52CHL1  H19A 4995   4.733   4.391   3.242 -2.7003 -1.1519 -0.0004
   52CHL1  H19B 4996   4.825   4.495   3.358  0.9517 -1.4388 -1.5491
   52CHL1  H19C 4997   4.764   4.338   3.416 -1.7490  0.8598  1.3802
   52CHL1    C1 4998   4.501   4.420   3.400 -0.3978 -0.1280  0.3293
   52CHL1   H1A 4999   4.544   4.327   3.444 -1.5362 -0.4112  0.8869
   52CHL1   H1B 5000   4.417   4.463   3.458  0.1498 -1.0549  1.8741
   52CHL1    C2 5001   4.434   4.380   3.267  0.4306  0.3582  1.0370
   52CHL1   H2A 5002   4.348   4.310   3.275  0.3038  0.3321 -0.3653
   52CHL1   H2B 5003   4.503   4.319   3.205 -1.1104 -2.0816  1.5826
   52CHL1   C20 5004   4.920   4.720   4.003  0.7289 -0.2178 -0.9712
   52CHL1   H20 5005   5.018   4.696   3.956  1.2576 -0.3950  0.1718
   52CHL1   C21 5006   4.866   4.589   4.073 -0.5214 -0.7059 -0.0393
   52CHL1  H21A 5007   4.755   4.588   4.073 -0.5434 -0.6815 -1.2543
   52CHL1  H21B 5008   4.891   4.591   4.181 -0.1050 -2.6752 -0.0490
   52CHL1  H21C 5009   4.902   4.493   4.029  0.2458 -0.1453 -0.6747
   52CHL1   C22 5010   4.944   4.828   4.109  0.1035  0.4152  0.2577
   52CHL1  H22A 5011   4.999   4.798   4.200  2.1614 -0.8620 -1.3240
   52CHL1  H22B 5012   5.005   4.911   4.069  0.6699  0.1153  0.4954
   52CHL1   C23 5013   4.815   4.882   4.169  0.4163 -0.2116 -0.5632
   52CHL1  H23A 5014   4.770   4.953   4.096  1.5273 -0.1379 -1.1971
   52CHL1  H23B 5015   4.746   4.796   4.181  1.4404 -0.8808  0.6737
   52CHL1   C24 5016   4.833   4.939   4.318 -0.1013 -0.0013  0.0625
   52CHL1  H24A 5017   4.877   4.863   4.386  3.1628  1.8014  0.1801
   52CHL1  H24B 5018   4.911   5.018   4.312 -0.8482  1.1367  3.3244
   52CHL1   C25 5019   4.709   4.997   4.389  0.7792 -0.0314  0.1491
   52CHL1   H25 5020   4.656   5.073   4.327  1.0134  0.8256  0.9712
   52CHL1   C26 5021   4.608   4.879   4.407  1.0887  1.2991  0.3223
   52CHL1  H26A 5022   4.521   4.909   4.470  0.1024 -1.1091  0.2352
   52CHL1  H26B 5023   4.568   4.839   4.312 -0.7033  0.5095  1.3516
   52CHL1  H26C 5024   4.658   4.791   4.454  0.3808  0.9710  0.4719
   52CHL1   C27 5025   4.740   5.073   4.519 -1.0958  0.0268  0.1073
   52CHL1  H27A 5026   4.789   5.010   4.597  0.1713  1.4840  0.5401
   52CHL1  H27B 5027   4.813   5.152   4.490 -1.8891  0.4098 -0.9055
   52CHL1  H27C 5028   4.651   5.117   4.569  0.9134  0.8983  3.2363
   53CHL1    C3 5029   4.091   4.336   3.413 -0.5421  0.5394  0.0666
   53CHL1    H3 5030   4.142   4.435   3.409 -2.0509  1.3551  0.1156
   53CHL1    O3 5031   4.082   4.281   3.280 -0.3231  0.0350  0.1442
   53CHL1   H3' 5032   4.054   4.357   3.229  1.1712 -0.8648 -2.1694
   53CHL1    C4 5033   4.164   4.240   3.505  0.1561 -0.2969  0.3876
   53CHL1   H4A 5034   4.094   4.153   3.509 -1.2775  0.7232 -1.1427
   53CHL1   H4B 5035   4.251   4.201   3.449  0.4500  0.6421  0.1902
   53CHL1    C5 5036   4.183   4.294   3.643 -0.4399 -0.3108  0.2322
   53CHL1    C6 5037   4.307   4.294   3.694  0.1710  0.0414  0.3250
   53CHL1    H6 5038   4.387   4.260   3.627 -0.7108  2.9960 -2.4619
   53CHL1    C7 5039   4.342   4.351   3.835  1.0970 -0.7771  0.9037
   53CHL1   H7A 5040   4.411   4.285   3.893  3.4254  0.7970  0.0502
   53CHL1   H7B 5041   4.383   4.450   3.807  0.7174 -0.6798  0.6793
   53CHL1    C8 5042   4.212   4.381   3.915  0.0399  1.4679  0.0059
   53CHL1    H8 5043   4.172   4.293   3.969  0.5719  2.8099  2.7414
   53CHL1   C14 5044   4.246   4.481   4.024 -0.0234 -0.1045  0.3830
   53CHL1   H14 5045   4.270   4.570   3.962  0.5628 -0.7067 -0.2846
   53CHL1   C15 5046   4.369   4.452   4.117  0.4015 -0.3619  0.1453
   53CHL1  H15A 5047   4.361   4.347   4.152  0.7437 -0.7924 -1.0442
   53CHL1  H15B 5048   4.465   4.458   4.061  0.4413  2.5694  0.3432
   53CHL1   C16 5049   4.354   4.546   4.234 -0.1576 -0.4017  0.3549
   53CHL1  H16A 5050   4.350   4.488   4.329 -1.9124 -1.1912 -0.1730
   53CHL1  H16B 5051   4.428   4.629   4.234  0.2692 -0.6821 -2.5709
   53CHL1   C17 5052   4.215   4.616   4.213  0.4605 -0.0124 -0.9825
   53CHL1   H17 5053   4.228   4.713   4.162 -4.1246  0.8752 -0.8381
   53CHL1   C13 5054   4.133   4.528   4.112  0.7281  0.2150 -0.4459
   53CHL1   C18 5055   4.084   4.405   4.200  0.4456 -0.0775  0.4799
   53CHL1  H18A 5056   4.168   4.356   4.253  1.0918  1.1024  0.5781
   53CHL1  H18B 5057   4.015   4.450   4.274  2.8145 -0.1100  2.8718
   53CHL1  H18C 5058   4.030   4.329   4.140  1.1963  1.2057 -1.9758
   53CHL1   C12 5059   4.029   4.597   4.022 -0.0266 -0.2613  0.2132
   53CHL1  H12A 5060   3.938   4.621   4.082 -0.0625  1.4512 -0.4582
   53CHL1  H12B 5061   4.064   4.694   3.981 -1.1857 -0.6762 -1.8543
   53CHL1   C11 5062   3.983   4.505   3.911  0.5522  0.3299 -0.3823
   53CHL1  H11A 5063   3.914   4.424   3.943 -1.2391  1.7574 -0.4788
   53CHL1  H11B 5064   3.915   4.563   3.845 -2.3218 -1.0892  1.1267
   53CHL1    C9 5065   4.103   4.440   3.835  0.4006  0.0106 -0.3847
   53CHL1    H9 5066   4.147   4.531   3.789  3.0166 -0.8796  0.1627
   53CHL1   C10 5067   4.054   4.348   3.715  0.1525  1.0849 -0.7418
   53CHL1   C19 5068   3.973   4.235   3.773  0.2609 -0.3506 -0.9690
   53CHL1  H19A 5069   3.872   4.259   3.813  1.3863  1.5582  0.9153
   53CHL1  H19B 5070   3.959   4.146   3.708  0.7745 -1.5035  0.4241
   53CHL1  H19C 5071   4.027   4.194   3.861  0.6244 -2.0764 -1.9428
   53CHL1    C1 5072   3.977   4.434   3.607  0.6539  0.4571 -0.1558
   53CHL1   H1A 5073   3.875   4.462   3.641  1.0673  0.7333  0.9009
   53CHL1   H1B 5074   4.021   4.536   3.595 -0.5097  0.8310 -1.5674
   53CHL1    C2 5075   3.957   4.359   3.475 -0.4791 -0.6065  0.7942
   53CHL1   H2A 5076   3.898   4.416   3.399  0.8007  0.6342  0.6860
   53CHL1   H2B 5077   3.902   4.264   3.489 -1.2276 -0.1419  1.1207
   53CHL1   C20 5078   4.144   4.663   4.349  0.0867  0.4691  0.3479
   53CHL1   H20 5079   4.096   4.571   4.389  0.7435 -0.1697 -0.2915
   53CHL1   C21 5080   4.027   4.759   4.317 -0.1875  0.0118 -0.2029
   53CHL1  H21A 5081   3.967   4.798   4.402 -3.0749 -1.6024 -1.3540
   53CHL1  H21B 5082   3.948   4.716   4.252  0.9784  2.5874 -3.6399
   53CHL1  H21C 5083   4.071   4.853   4.276  0.6067 -0.9787 -1.7142
   53CHL1   C22 5084   4.246   4.709   4.465  0.1045 -0.3697  0.3607
   53CHL1  H22A 5085   4.308   4.622   4.495  0.8822  0.2806  0.6808
   53CHL1  H22B 5086   4.304   4.803   4.448 -0.9482  0.3267  0.5048
   53CHL1   C23 5087   4.164   4.751   4.588 -0.4228 -0.9990 -0.0285
   53CHL1  H23A 5088   4.099   4.840   4.571 -0.9098 -1.4897 -0.7545
   53CHL1  H23B 5089   4.117   4.661   4.633  0.7297 -1.3634  0.5112
   53CHL1   C24 5090   4.263   4.785   4.709  0.1555 -0.1203  0.4360
   53CHL1  H24A 5091   4.317   4.695   4.743  0.7369  0.4407  1.0282
   53CHL1  H24B 5092   4.330   4.865   4.672  0.7741 -1.7664 -2.2428
   53CHL1   C25 5093   4.191   4.836   4.838 -0.4999  0.9989 -1.0319
   53CHL1   H25 5094   4.136   4.747   4.877  3.3156 -2.0329 -1.9810
   53CHL1   C26 5095   4.294   4.860   4.951 -0.7121  0.0811  0.8407
   53CHL1  H26A 5096   4.351   4.765   4.964 -1.1250 -0.4024 -0.7390
   53CHL1  H26B 5097   4.374   4.932   4.923  1.0909 -1.2532  2.2902
   53CHL1  H26C 5098   4.244   4.892   5.045 -0.3904 -0.4522  1.1992
   53CHL1   C27 5099   4.102   4.956   4.815 -0.0675 -0.3678  0.0380
   53CHL1  H27A 5100   4.168   5.036   4.774 -1.1453  0.8705  0.6366
   53CHL1  H27B 5101   4.017   4.927   4.749  0.7651 -1.6942 -0.5022
   53CHL1  H27C 5102   4.059   5.004   4.905 -1.3552  1.4941 -1.4795
   54CHL1    C3 5103   4.015   5.627   3.499 -0.1620  0.2409 -0.1723
   54CHL1    H3 5104   3.978   5.731   3.490  0.4101  0.4671  0.0704
   54CHL1    O3 5105   4.024   5.578   3.363  0.2658 -0.7771  0.2392
   54CHL1   H3' 5106   4.086   5.506   3.372  0.7049 -0.2586  1.5453
   54CHL1    C4 5107   4.157   5.621   3.558 -0.0594 -0.0468 -0.4194
   54CHL1   H4A 5108   4.178   5.512   3.560  2.2082  0.3034 -1.3745
   54CHL1   H4B 5109   4.241   5.658   3.495  0.3406 -0.2589 -0.0188
   54CHL1    C5 5110   4.152   5.674   3.707 -0.2783  0.3338  0.5825
   54CHL1    C6 5111   4.212   5.783   3.751 -0.6294 -0.0282  1.1163
   54CHL1    H6 5112   4.274   5.837   3.677 -0.1898 -1.2097  0.6003
   54CHL1    C7 5113   4.226   5.831   3.894 -0.4480  0.0919  0.5209
   54CHL1   H7A 5114   4.333   5.856   3.912  0.0463 -0.3090 -1.5535
   54CHL1   H7B 5115   4.181   5.931   3.914  0.1158 -0.0123  2.4416
   54CHL1    C8 5116   4.175   5.723   3.989  0.1981  0.5637  0.4113
   54CHL1    H8 5117   4.246   5.638   3.999 -2.5322 -1.9248  0.3385
   54CHL1   C14 5118   4.147   5.789   4.127  0.2920  0.1178 -0.2757
   54CHL1   H14 5119   4.089   5.883   4.119 -0.5331 -0.3128  0.5382
   54CHL1   C15 5120   4.260   5.834   4.222  0.1050 -0.1932 -0.2646
   54CHL1  H15A 5121   4.338   5.756   4.236  2.8016  2.2003 -0.9529
   54CHL1  H15B 5122   4.306   5.922   4.174  0.5941  0.1795  0.8449
   54CHL1   C16 5123   4.194   5.872   4.354  0.1180 -0.4534 -0.0823
   54CHL1  H16A 5124   4.254   5.830   4.437 -0.9633 -1.1830  0.3567
   54CHL1  H16B 5125   4.189   5.981   4.372  0.4811 -0.2011 -1.4005
   54CHL1   C17 5126   4.058   5.803   4.357  0.0700 -0.0677  1.0811
   54CHL1   H17 5127   3.982   5.877   4.324 -1.7825 -2.7637 -1.0352
   54CHL1   C13 5128   4.062   5.706   4.228  0.2159 -0.1659  0.2511
   54CHL1   C18 5129   4.136   5.583   4.261 -0.4703  0.4588 -0.1385
   54CHL1  H18A 5130   4.186   5.525   4.181  2.4409  1.4516  0.8254
   54CHL1  H18B 5131   4.216   5.587   4.338 -2.0844 -1.7269  1.7865
   54CHL1  H18C 5132   4.071   5.501   4.299  0.6861 -1.0928 -1.4136
   54CHL1   C12 5133   3.929   5.673   4.167  0.1267  0.4589  0.2982
   54CHL1  H12A 5134   3.858   5.630   4.240  1.6085 -2.0743  0.3481
   54CHL1  H12B 5135   3.887   5.769   4.128  1.6827  0.8147 -0.6185
   54CHL1   C11 5136   3.948   5.582   4.045 -0.6017 -0.6380 -0.1876
   54CHL1  H11A 5137   3.995   5.483   4.065  0.2159 -0.0834  0.6541
   54CHL1  H11B 5138   3.856   5.542   3.997  1.8775 -3.9196 -2.7133
   54CHL1    C9 5139   4.035   5.662   3.937 -0.3128  0.2513 -0.2893
   54CHL1    H9 5140   3.980   5.757   3.919 -0.0680  0.1396 -1.7312
   54CHL1   C10 5141   4.055   5.598   3.799 -0.5536  0.3158 -0.4360
   54CHL1   C19 5142   4.123   5.452   3.827 -0.0639 -0.3597  0.3430
   54CHL1  H19A 5143   4.041   5.391   3.870  0.6826 -0.0961  2.2452
   54CHL1  H19B 5144   4.162   5.405   3.735 -2.6273  0.7786 -1.4509
   54CHL1  H19C 5145   4.204   5.457   3.903 -0.9268 -1.5923  1.3941
   54CHL1    C1 5146   3.920   5.574   3.732 -0.6371 -0.1271  0.2277
   54CHL1   H1A 5147   3.853   5.495   3.773 -2.4745  0.0682 -2.1586
   54CHL1   H1B 5148   3.861   5.668   3.739  0.7306  0.7352  0.6815
   54CHL1    C2 5149   3.920   5.536   3.578  0.0144 -0.1964  0.4673
   54CHL1   H2A 5150   3.816   5.552   3.544  0.1169  2.3019  1.1690
   54CHL1   H2B 5151   3.953   5.433   3.551  3.0745  0.2324  2.1077
   54CHL1   C20 5152   4.022   5.737   4.489 -0.2364  0.4470  0.2772
   54CHL1   H20 5153   4.098   5.658   4.506 -1.5574 -0.6971  1.0190
   54CHL1   C21 5154   3.881   5.680   4.490  0.2841 -0.0484  0.5214
   54CHL1  H21A 5155   3.802   5.750   4.456  0.1636  0.0047  0.9025
   54CHL1  H21B 5156   3.838   5.645   4.586 -2.9316 -1.0610 -1.1212
   54CHL1  H21C 5157   3.872   5.586   4.432  5.1448 -0.2801 -0.2642
   54CHL1   C22 5158   4.032   5.835   4.610  0.3472  0.2075 -0.3375
   54CHL1  H22A 5159   4.135   5.878   4.616  0.1738  0.5039  0.7424
   54CHL1  H22B 5160   3.969   5.926   4.596  0.9392  0.9426  1.4592
   54CHL1   C23 5161   4.018   5.772   4.748 -0.3403  0.1653  0.2002
   54CHL1  H23A 5162   3.916   5.731   4.767  0.2873 -0.5792  2.3348
   54CHL1  H23B 5163   4.086   5.685   4.749 -1.1977 -0.5325 -0.5801
   54CHL1   C24 5164   4.042   5.873   4.869 -0.3120 -0.1145 -0.1380
   54CHL1  H24A 5165   4.137   5.927   4.854 -0.8737  0.4094 -2.1414
   54CHL1  H24B 5166   3.959   5.947   4.871  0.8611  1.2224  0.9754
   54CHL1   C25 5167   4.056   5.810   5.001  0.6255  0.2984 -0.2381
   54CHL1   H25 5168   4.146   5.746   5.009  0.4701  0.2935  2.1442
   54CHL1   C26 5169   4.065   5.911   5.107 -0.6537 -0.4154 -0.0991
   54CHL1  H26A 5170   4.166   5.958   5.108 -1.1125  0.6422  1.5294
   54CHL1  H26B 5171   3.986   5.990   5.107 -0.1307  0.1161 -0.8436
   54CHL1  H26C 5172   4.060   5.845   5.197  0.5647 -1.2775 -0.6396
   54CHL1   C27 5173   3.931   5.725   5.034  0.6105  0.3600 -0.8155
   54CHL1  H27A 5174   3.926   5.699   5.142  1.4527  1.2275 -0.5499
   54CHL1  H27B 5175   3.829   5.766   5.023  0.0609 -1.1601 -1.6711
   54CHL1  H27C 5176   3.930   5.634   4.970  2.1907  0.6269 -1.2620
   55CHL1    C3 5177   1.296   2.308   3.370 -0.0208  0.5473  0.3393
   55CHL1    H3 5178   1.318   2.200   3.358 -0.6217  0.3401  1.0230
   55CHL1    O3 5179   1.305   2.377   3.248 -0.2509  1.3108  0.0663
   55CHL1   H3' 5180   1.313   2.307   3.183  0.1519  3.8057 -2.7724
   55CHL1    C4 5181   1.152   2.312   3.423 -0.1347  0.3166  0.2831
   55CHL1   H4A 5182   1.122   2.419   3.429 -0.0222  0.2635  2.4284
   55CHL1   H4B 5183   1.081   2.272   3.348 -0.1825  2.3933 -0.8469
   55CHL1    C5 5184   1.129   2.246   3.559 -0.0450 -0.3951  0.7822
   55CHL1    C6 5185   1.041   2.148   3.577 -0.3986 -0.2515  0.7539
   55CHL1    H6 5186   0.984   2.116   3.488  0.3096  0.1002  0.1598
   55CHL1    C7 5187   1.009   2.095   3.714 -0.0457  0.3974  0.1905
   55CHL1   H7A 5188   0.904   2.067   3.736 -0.1209  0.3756 -0.1789
   55CHL1   H7B 5189   1.072   2.005   3.733  3.3963  2.3405 -1.0874
   55CHL1    C8 5190   1.062   2.189   3.824 -0.2593  0.5800 -0.3373
   55CHL1    H8 5191   0.986   2.271   3.829 -1.9877 -0.9907  0.2246
   55CHL1   C14 5192   1.059   2.118   3.963  0.8091  0.1264 -0.0786
   55CHL1   H14 5193   1.130   2.035   3.939  2.2694  1.5071 -0.7389
   55CHL1   C15 5194   0.932   2.039   3.999 -0.3181  0.1406 -0.4254
   55CHL1  H15A 5195   0.834   2.086   3.974 -1.8801 -3.1151 -0.9121
   55CHL1  H15B 5196   0.943   1.941   3.948  0.8873  1.1001 -2.1140
   55CHL1   C16 5197   0.939   2.025   4.151  0.3246 -0.2287 -0.3016
   55CHL1  H16A 5198   0.852   2.083   4.190  2.4219  0.9841  2.9431
   55CHL1  H16B 5199   0.924   1.918   4.174 -2.2433 -0.0785 -0.9051
   55CHL1   C17 5200   1.069   2.099   4.195  0.4368  0.4652 -0.6342
   55CHL1   H17 5201   1.152   2.024   4.190  0.9599  1.0866 -2.0821
   55CHL1   C13 5202   1.111   2.197   4.079 -0.0877  0.0972 -0.2974
   55CHL1   C18 5203   1.036   2.326   4.105  0.1043  0.6215 -0.1040
   55CHL1  H18A 5204   1.032   2.374   4.005 -2.4043  0.3412 -0.2115
   55CHL1  H18B 5205   0.930   2.302   4.128 -0.4518  2.3663 -0.6395
   55CHL1  H18C 5206   1.084   2.373   4.194  1.2200  0.8373 -0.8063
   55CHL1   C12 5207   1.263   2.222   4.058 -0.0392 -0.1403 -0.2014
   55CHL1  H12A 5208   1.314   2.287   4.133 -0.2696 -0.0243 -0.1462
   55CHL1  H12B 5209   1.317   2.125   4.055  2.7291  1.3097 -2.5922
   55CHL1   C11 5210   1.283   2.292   3.923 -0.3864  0.0915  0.4575
   55CHL1  H11A 5211   1.235   2.392   3.932 -1.3305 -0.2289 -0.7007
   55CHL1  H11B 5212   1.392   2.304   3.908 -0.4997  0.8053  0.1567
   55CHL1    C9 5213   1.210   2.233   3.801  0.5377  0.5415  0.3752
   55CHL1    H9 5214   1.270   2.143   3.778  0.8327  0.2444  2.1687
   55CHL1   C10 5215   1.222   2.308   3.664 -0.1902 -0.5476 -0.9397
   55CHL1   C19 5216   1.176   2.456   3.701  0.0103 -0.1123 -0.0514
   55CHL1  H19A 5217   1.240   2.509   3.775 -0.2053  0.1401 -0.0439
   55CHL1  H19B 5218   1.178   2.524   3.613 -0.1655  0.5809  0.4716
   55CHL1  H19C 5219   1.072   2.446   3.737 -0.2708 -2.3802 -1.3003
   55CHL1    C1 5220   1.368   2.312   3.621 -0.0477  0.0204 -0.5420
   55CHL1   H1A 5221   1.432   2.370   3.692 -1.1581  0.2159  0.3269
   55CHL1   H1B 5222   1.406   2.208   3.620 -3.0698 -1.1825 -1.0656
   55CHL1    C2 5223   1.398   2.367   3.479  0.3134  0.0862  0.5037
   55CHL1   H2A 5224   1.504   2.343   3.456 -0.2474 -0.8281 -1.3975
   55CHL1   H2B 5225   1.379   2.476   3.493  1.8793  0.5654 -0.7689
   55CHL1   C20 5226   1.065   2.156   4.343 -0.6127 -0.5611 -0.2281
   55CHL1   H20 5227   0.991   2.238   4.358 -0.2478 -0.7337  3.3181
   55CHL1   C21 5228   1.210   2.213   4.367  0.1799  0.0807 -0.1709
   55CHL1  H21A 5229   1.228   2.231   4.475 -4.0259  3.0973  0.2683
   55CHL1  H21B 5230   1.240   2.307   4.317  0.4478  1.4006  2.3177
   55CHL1  H21C 5231   1.283   2.135   4.337  1.2674 -0.4405  3.4230
   55CHL1   C22 5232   1.033   2.043   4.439  0.4030  0.9330 -0.4464
   55CHL1  H22A 5233   0.943   1.987   4.404 -1.0575  2.6240  0.4192
   55CHL1  H22B 5234   1.116   1.973   4.463 -1.7740 -1.4614  0.6136
   55CHL1   C23 5235   1.001   2.099   4.580  0.2626 -0.4230 -0.0675
   55CHL1  H23A 5236   1.084   2.161   4.619  1.6770 -2.1179 -0.2673
   55CHL1  H23B 5237   0.914   2.168   4.567  1.2003  0.7720 -0.1459
   55CHL1   C24 5238   0.949   2.002   4.674  0.0230 -0.0480 -0.1773
   55CHL1  H24A 5239   0.865   1.942   4.633 -0.5242  1.6712 -1.7237
   55CHL1  H24B 5240   1.029   1.926   4.690  0.2158 -0.1081 -1.3712
   55CHL1   C25 5241   0.911   2.053   4.812  0.2283  0.5354 -0.3535
   55CHL1   H25 5242   0.826   2.124   4.803  0.0414  0.6279  1.7553
   55CHL1   C26 5243   0.857   1.930   4.895 -0.1019 -0.5888 -0.4948
   55CHL1  H26A 5244   0.938   1.856   4.913 -2.5124 -3.0607  1.1014
   55CHL1  H26B 5245   0.813   1.956   4.994  0.8000  0.1694 -0.2794
   55CHL1  H26C 5246   0.778   1.880   4.836 -0.8746  1.4529 -1.2712
   55CHL1   C27 5247   1.025   2.122   4.890 -0.5097 -0.4845 -0.8835
   55CHL1  H27A 5248   1.110   2.053   4.908  0.3299  0.6047 -0.5265
   55CHL1  H27B 5249   1.053   2.209   4.827 -0.3737  0.8961  0.9971
   55CHL1  H27C 5250   0.987   2.166   4.985  0.7159 -0.9510 -0.1669
   56CHL1    C3 5251   1.983   2.340   3.298  0.0859 -0.7422 -0.3675
   56CHL1    H3 5252   2.020   2.239   3.270 -0.1388 -1.1890  0.9091
   56CHL1    O3 5253   2.015   2.409   3.179  0.5540 -0.5980  1.0559
   56CHL1   H3' 5254   1.978   2.497   3.191  0.3403 -0.8710  2.6795
   56CHL1    C4 5255   1.831   2.333   3.324 -0.6243  0.2143 -0.7885
   56CHL1   H4A 5256   1.790   2.436   3.332  0.8176  0.7475  0.4577
   56CHL1   H4B 5257   1.793   2.273   3.239 -2.2602 -0.1492  0.1670
   56CHL1    C5 5258   1.801   2.270   3.454 -0.6842  1.2115 -0.1939
   56CHL1    C6 5259   1.725   2.159   3.458  0.4265 -0.1997  0.4126
   56CHL1    H6 5260   1.667   2.113   3.377  1.9270 -1.7607  0.1713
   56CHL1    C7 5261   1.693   2.087   3.594  0.5498  0.3413  0.7149
   56CHL1   H7A 5262   1.586   2.057   3.598  0.6034  0.2004  4.3312
   56CHL1   H7B 5263   1.760   1.998   3.598 -1.4017 -1.3082 -0.8202
   56CHL1    C8 5264   1.717   2.181   3.711  0.3122 -0.0118 -0.1725
   56CHL1    H8 5265   1.643   2.263   3.718  0.5260  0.2507 -0.8410
   56CHL1   C14 5266   1.717   2.096   3.839  0.2755 -0.0977  0.0140
   56CHL1   H14 5267   1.801   2.025   3.827  1.2435  1.0636 -0.2413
   56CHL1   C15 5268   1.587   2.024   3.869  0.3620  0.3526  0.1557
   56CHL1  H15A 5269   1.497   2.090   3.876  0.5587  0.5825  0.5202
   56CHL1  H15B 5270   1.563   1.943   3.797  0.6894  1.5085 -1.3218
   56CHL1   C16 5271   1.592   1.990   4.019 -0.6710 -0.2488 -0.1729
   56CHL1  H16A 5272   1.508   2.035   4.076 -0.4262 -1.0013  0.7928
   56CHL1  H16B 5273   1.600   1.880   4.031  1.4369 -0.2179 -0.8443
   56CHL1   C17 5274   1.729   2.056   4.061  0.3360 -0.0951  0.1761
   56CHL1   H17 5275   1.810   1.984   4.035  0.3939  0.8504 -2.6004
   56CHL1   C13 5276   1.749   2.171   3.970  0.2409 -0.3118 -0.1787
   56CHL1   C18 5277   1.650   2.285   4.007  0.3029  0.4182  0.3502
   56CHL1  H18A 5278   1.548   2.251   4.032  0.9604 -1.2363  0.9334
   56CHL1  H18B 5279   1.691   2.346   4.090 -0.9672  1.0172  0.5489
   56CHL1  H18C 5280   1.643   2.356   3.921 -0.0222 -0.2832 -0.2159
   56CHL1   C12 5281   1.889   2.233   3.957 -0.6093 -0.4782  0.1892
   56CHL1  H12A 5282   1.901   2.290   4.051 -1.5206 -1.1395  0.7188
   56CHL1  H12B 5283   1.969   2.156   3.963 -0.3849 -0.3095 -0.5573
   56CHL1   C11 5284   1.905   2.316   3.830  0.1191  0.0137 -0.3847
   56CHL1  H11A 5285   1.830   2.396   3.845  0.2408  0.3525 -1.4766
   56CHL1  H11B 5286   2.008   2.355   3.816  0.2918 -0.2737  0.0798
   56CHL1    C9 5287   1.857   2.249   3.700  0.1956  0.6104  0.0435
   56CHL1    H9 5288   1.917   2.155   3.696  0.6517  0.8788  0.4591
   56CHL1   C10 5289   1.880   2.326   3.575 -0.4898 -0.3687 -0.0387
   56CHL1   C19 5290   1.831   2.472   3.599 -0.0842 -0.1669  0.4479
   56CHL1  H19A 5291   1.725   2.468   3.630 -0.1351 -0.3402  0.2552
   56CHL1  H19B 5292   1.888   2.521   3.681  3.4753 -0.6024 -1.5329
   56CHL1  H19C 5293   1.842   2.533   3.507  0.3463 -1.5370 -0.4438
   56CHL1    C1 5294   2.038   2.332   3.541  0.4734 -0.0444  0.3345
   56CHL1   H1A 5295   2.083   2.386   3.626  1.4753 -0.0977 -0.1455
   56CHL1   H1B 5296   2.070   2.226   3.524 -0.3109 -0.0347 -1.4636
   56CHL1    C2 5297   2.063   2.406   3.412 -0.0783  0.0150 -0.1699
   56CHL1   H2A 5298   2.173   2.395   3.403 -0.1355 -2.0243  0.9981
   56CHL1   H2B 5299   2.036   2.513   3.419  4.3883  1.3127  0.2589
   56CHL1   C20 5300   1.755   2.075   4.210  0.1060  0.5221 -0.4008
   56CHL1   H20 5301   1.842   2.140   4.233  2.3853 -2.4538 -0.1181
   56CHL1   C21 5302   1.821   1.940   4.258  0.6660  0.2345  0.3278
   56CHL1  H21A 5303   1.748   1.857   4.248  0.8483  0.0514  0.5177
   56CHL1  H21B 5304   1.844   1.958   4.365  0.3178  3.3246 -0.0082
   56CHL1  H21C 5305   1.911   1.916   4.198 -1.2467 -3.4947 -1.3840
   56CHL1   C22 5306   1.627   2.115   4.302 -0.6143 -0.2221  0.4677
   56CHL1  H22A 5307   1.581   2.210   4.267 -2.1639 -1.2173 -0.2619
   56CHL1  H22B 5308   1.555   2.031   4.301 -0.5148 -0.3031  0.1974
   56CHL1   C23 5309   1.658   2.151   4.448 -0.1679  0.3860  0.4647
   56CHL1  H23A 5310   1.701   2.061   4.496  2.4577  2.1407  1.7010
   56CHL1  H23B 5311   1.738   2.228   4.455 -0.5671  0.8649 -0.1882
   56CHL1   C24 5312   1.540   2.202   4.531 -0.0437 -0.4043 -0.4771
   56CHL1  H24A 5313   1.527   2.306   4.493 -0.8749 -0.6876 -0.9990
   56CHL1  H24B 5314   1.444   2.149   4.512 -0.9338  1.6535 -2.1720
   56CHL1   C25 5315   1.579   2.204   4.679 -0.3574 -0.5765  0.4617
   56CHL1   H25 5316   1.652   2.123   4.703 -0.8077 -0.9758  0.4971
   56CHL1   C26 5317   1.648   2.335   4.708 -0.4090  0.4847 -0.0887
   56CHL1  H26A 5318   1.662   2.358   4.816 -1.1942  1.5788 -0.2038
   56CHL1  H26B 5319   1.746   2.336   4.654 -0.5374  2.9755 -0.3763
   56CHL1  H26C 5320   1.584   2.419   4.674 -1.2324  1.1194  2.7606
   56CHL1   C27 5321   1.461   2.180   4.772 -0.5478  0.3132 -0.1212
   56CHL1  H27A 5322   1.384   2.260   4.765 -1.1290 -0.2591 -0.2953
   56CHL1  H27B 5323   1.415   2.081   4.754  2.5479 -0.9821 -1.7062
   56CHL1  H27C 5324   1.493   2.184   4.878 -0.3504  2.0841 -0.2107
   57CHL1    C3 5325   0.978   1.375   3.161  0.9439  0.0889  0.0255
   57CHL1    H3 5326   0.897   1.451   3.166  1.4076  0.6774 -1.0412
   57CHL1    O3 5327   1.023   1.381   3.027  0.1078 -0.3509 -0.4107
   57CHL1   H3' 5328   1.105   1.332   3.023 -0.0509 -0.6268 -0.3274
   57CHL1    C4 5329   1.092   1.418   3.247  0.2184  0.1211 -0.1678
   57CHL1   H4A 5330   1.183   1.369   3.207  0.5109  0.7126 -0.2358
   57CHL1   H4B 5331   1.103   1.524   3.216 -1.2142  0.0100 -1.1862
   57CHL1    C5 5332   1.061   1.395   3.389  0.0328  0.1789 -0.9264
   57CHL1    C6 5333   1.075   1.498   3.476  0.7509  0.0646  0.1583
   57CHL1    H6 5334   1.111   1.598   3.445 -1.1514  0.2083 -1.8114
   57CHL1    C7 5335   1.054   1.484   3.624 -0.2616 -0.0901  0.5565
   57CHL1   H7A 5336   1.145   1.525   3.674 -1.5871  1.7151  1.5876
   57CHL1   H7B 5337   0.965   1.538   3.660  0.2180  0.7310  0.5317
   57CHL1    C8 5338   1.038   1.335   3.667  0.5005  0.5599  0.7608
   57CHL1    H8 5339   1.138   1.288   3.653 -1.1750 -2.2708 -3.4691
   57CHL1   C14 5340   1.002   1.314   3.816 -0.1563  0.5790  0.9842
   57CHL1   H14 5341   0.894   1.343   3.824 -1.9795 -4.6582 -0.5277
   57CHL1   C15 5342   1.084   1.391   3.920 -0.3720 -0.0266  0.2022
   57CHL1  H15A 5343   1.193   1.381   3.902 -0.3895 -0.7761  0.4750
   57CHL1  H15B 5344   1.062   1.500   3.922  0.6329  0.1875  0.4375
   57CHL1   C16 5345   1.044   1.328   4.054  0.1915 -1.0690  0.7986
   57CHL1  H16A 5346   1.134   1.287   4.105  0.4860 -1.3353  0.0833
   57CHL1  H16B 5347   1.004   1.411   4.117  4.5411  2.1926 -0.2238
   57CHL1   C17 5348   0.956   1.208   4.010  0.1776 -0.7262 -0.0504
   57CHL1   H17 5349   0.849   1.236   3.998  0.1182 -1.3132 -1.0209
   57CHL1   C13 5350   0.991   1.172   3.865  0.2952  0.2181 -0.0858
   57CHL1   C18 5351   1.121   1.098   3.846 -0.3012 -0.4951 -0.2626
   57CHL1  H18A 5352   1.157   1.085   3.742 -0.1106 -0.4231 -0.2056
   57CHL1  H18B 5353   1.203   1.152   3.898  1.1590 -0.5351 -2.3983
   57CHL1  H18C 5354   1.113   0.998   3.894 -1.4363  0.4809  1.7295
   57CHL1   C12 5355   0.884   1.101   3.776 -0.6255 -0.1463 -0.3754
   57CHL1  H12A 5356   0.877   0.997   3.815 -0.4862  0.4479  1.2918
   57CHL1  H12B 5357   0.786   1.153   3.781 -0.7117 -0.1456 -1.6798
   57CHL1   C11 5358   0.924   1.106   3.625 -0.0050 -1.0244 -0.5220
   57CHL1  H11A 5359   1.013   1.046   3.595  0.6024 -0.8299  0.7898
   57CHL1  H11B 5360   0.844   1.064   3.560 -0.1832 -1.7094  0.1292
   57CHL1    C9 5361   0.950   1.251   3.572  0.3924 -0.0186  0.0091
   57CHL1    H9 5362   0.845   1.286   3.569 -0.2470 -1.7805  0.5253
   57CHL1   C10 5363   1.006   1.254   3.429  0.1102 -0.7150 -0.0279
   57CHL1   C19 5364   1.124   1.159   3.408  0.1617 -0.3788  0.7120
   57CHL1  H19A 5365   1.207   1.174   3.480  2.1687  0.3495 -1.5865
   57CHL1  H19B 5366   1.088   1.054   3.406 -1.4434  0.1208 -1.4856
   57CHL1  H19C 5367   1.176   1.162   3.309  1.6975 -2.7302  1.3579
   57CHL1    C1 5368   0.887   1.222   3.329  0.6245  0.2856  0.3485
   57CHL1   H1A 5369   0.832   1.129   3.355 -1.3635  1.5338  0.9026
   57CHL1   H1B 5370   0.814   1.305   3.345 -0.3721  0.0313 -2.3846
   57CHL1    C2 5371   0.924   1.236   3.180 -0.4398 -0.3328  0.5195
   57CHL1   H2A 5372   0.835   1.211   3.118 -0.5783  1.3999 -0.0480
   57CHL1   H2B 5373   1.001   1.164   3.149 -0.7559 -0.9274  1.0956
   57CHL1   C20 5374   0.964   1.105   4.120  0.1928  0.3631  0.0460
   57CHL1   H20 5375   1.069   1.069   4.122  0.1945  0.0516 -2.2881
   57CHL1   C21 5376   0.874   0.978   4.086 -0.6610  0.1847  0.1286
   57CHL1  H21A 5377   0.918   0.930   3.997  1.9668  2.5185  0.0491
   57CHL1  H21B 5378   0.768   1.006   4.066 -0.5582  0.5107  0.0265
   57CHL1  H21C 5379   0.877   0.905   4.169 -1.1456  0.2985  0.2533
   57CHL1   C22 5380   0.917   1.153   4.251  0.4866  0.2023 -0.1622
   57CHL1  H22A 5381   0.962   1.251   4.278  0.0631  0.3925 -0.1375
   57CHL1  H22B 5382   0.809   1.177   4.249  0.7364  1.4240  0.3891
   57CHL1   C23 5383   0.943   1.059   4.371  0.2438  0.2475 -0.1815
   57CHL1  H23A 5384   0.879   0.969   4.362 -0.4527  0.7348 -0.1663
   57CHL1  H23B 5385   1.051   1.030   4.374  0.3301 -0.1682 -3.6095
   57CHL1   C24 5386   0.904   1.125   4.504 -0.0859 -0.5638 -0.5756
   57CHL1  H24A 5387   0.984   1.194   4.540 -0.7243 -0.1821  0.1664
   57CHL1  H24B 5388   0.826   1.204   4.492 -1.9353 -2.4194 -1.2174
   57CHL1   C25 5389   0.856   1.027   4.617 -0.5657  0.3192  0.5539
   57CHL1   H25 5390   0.911   0.931   4.618  0.5931  0.9463 -0.6548
   57CHL1   C26 5391   0.886   1.085   4.756  0.4510  0.0867  0.7041
   57CHL1  H26A 5392   0.986   1.132   4.749 -0.0066  0.7859 -2.6012
   57CHL1  H26B 5393   0.812   1.158   4.796  0.3698  1.7868 -2.2903
   57CHL1  H26C 5394   0.891   0.995   4.822  1.9416  0.4495  1.1107
   57CHL1   C27 5395   0.702   0.999   4.616  0.0895  0.2231  1.7879
   57CHL1  H27A 5396   0.668   0.921   4.688 -1.0301  0.3110  1.3654
   57CHL1  H27B 5397   0.644   1.084   4.658  0.0174 -1.0179  4.3960
   57CHL1  H27C 5398   0.673   0.975   4.512  1.5128  1.7216  0.9959
   58CHL1    C3 5399   6.771   2.352   3.283 -0.1646  0.1780  0.2527
   58CHL1    H3 5400   6.827   2.256   3.284 -1.3679 -0.5522 -0.1331
   58CHL1    O3 5401   6.798   2.410   3.157 -0.3377  0.2923 -0.7444
   58CHL1   H3' 5402   6.766   2.501   3.161 -0.1246  0.3355  1.8059
   58CHL1    C4 5403   6.621   2.315   3.303 -0.2404 -0.0729  0.5545
   58CHL1   H4A 5404   6.570   2.410   3.276 -0.5927 -0.5486 -0.5115
   58CHL1   H4B 5405   6.598   2.230   3.235  0.0105 -1.3710  2.0312
   58CHL1    C5 5406   6.586   2.271   3.446  0.2320  0.0161 -0.1116
   58CHL1    C6 5407   6.518   2.156   3.464  0.0894 -0.0193 -0.3441
   58CHL1    H6 5408   6.492   2.097   3.374  0.7975 -1.5955  0.4438
   58CHL1    C7 5409   6.474   2.102   3.603 -0.6116 -0.3983 -0.1157
   58CHL1   H7A 5410   6.369   2.067   3.594 -1.3505  1.7620 -0.4475
   58CHL1   H7B 5411   6.531   2.009   3.626 -1.9748 -1.2153  0.0485
   58CHL1    C8 5412   6.486   2.209   3.716 -0.0353  0.5095  0.1656
   58CHL1    H8 5413   6.406   2.285   3.715  1.0345  1.7479  2.0025
   58CHL1   C14 5414   6.483   2.143   3.853 -0.4488 -0.5856  1.0541
   58CHL1   H14 5415   6.570   2.075   3.843  1.1523  1.1672  2.3435
   58CHL1   C15 5416   6.357   2.060   3.875  0.1947  0.1711  0.6766
   58CHL1  H15A 5417   6.268   2.120   3.846  0.2520  0.0062  0.1589
   58CHL1  H15B 5418   6.357   1.964   3.819 -1.6310  0.2351  0.4897
   58CHL1   C16 5419   6.369   2.042   4.033  0.5830 -0.3738  0.0485
   58CHL1  H16A 5420   6.274   2.087   4.068  0.0046  0.7508 -2.7116
   58CHL1  H16B 5421   6.389   1.936   4.061 -0.8628 -0.6587  0.0799
   58CHL1   C17 5422   6.492   2.131   4.089  0.0762 -0.2983 -0.1321
   58CHL1   H17 5423   6.585   2.072   4.099  1.4262  1.8514  0.7175
   58CHL1   C13 5424   6.510   2.235   3.976  0.0345 -0.3571 -0.3884
   58CHL1   C18 5425   6.393   2.339   3.994  0.2966  0.2853  0.1281
   58CHL1  H18A 5426   6.387   2.404   3.904 -1.2097 -0.7759 -0.5916
   58CHL1  H18B 5427   6.296   2.285   3.997  1.2576 -1.6984 -1.5426
   58CHL1  H18C 5428   6.398   2.400   4.086  1.9122 -0.0865  0.3119
   58CHL1   C12 5429   6.646   2.310   3.970 -0.0676 -0.8019  1.0511
   58CHL1  H12A 5430   6.655   2.388   4.048  0.4800  2.2498 -1.8397
   58CHL1  H12B 5431   6.735   2.243   3.973  1.4779  1.0599 -0.3093
   58CHL1   C11 5432   6.652   2.380   3.830  0.7571  0.4724  0.8225
   58CHL1  H11A 5433   6.590   2.472   3.831  0.6381  0.3910  1.3736
   58CHL1  H11B 5434   6.756   2.420   3.822  1.2954 -1.1309 -1.1763
   58CHL1    C9 5435   6.624   2.288   3.701  0.3479 -0.0932 -0.6224
   58CHL1    H9 5436   6.704   2.212   3.693  2.2758  2.0058 -2.8866
   58CHL1   C10 5437   6.636   2.355   3.559 -0.7199  0.0277 -0.3024
   58CHL1   C19 5438   6.557   2.493   3.571 -0.1051 -0.0929 -0.2532
   58CHL1  H19A 5439   6.459   2.476   3.620  0.0762  1.1850  0.6057
   58CHL1  H19B 5440   6.615   2.571   3.625 -0.0616  0.9720 -1.7603
   58CHL1  H19C 5441   6.535   2.534   3.470  0.1586 -0.5388 -0.4938
   58CHL1    C1 5442   6.790   2.393   3.533  0.9521 -0.5158 -0.3113
   58CHL1   H1A 5443   6.830   2.458   3.613 -2.1513 -1.6631  2.4087
   58CHL1   H1B 5444   6.852   2.301   3.532  0.7805 -0.6716  1.0440
   58CHL1    C2 5445   6.813   2.453   3.392 -0.4699  0.1237  0.4844
   58CHL1   H2A 5446   6.921   2.476   3.382 -0.7973  1.3381 -0.6608
   58CHL1   H2B 5447   6.749   2.544   3.383  1.1433  1.2811  0.2768
   58CHL1   C20 5448   6.476   2.163   4.241 -0.3969 -0.1970  0.9510
   58CHL1   H20 5449   6.384   2.224   4.238  0.0496  0.4607 -0.9320
   58CHL1   C21 5450   6.594   2.250   4.303  0.1966  0.0410 -0.2660
   58CHL1  H21A 5451   6.588   2.354   4.266  1.1926  0.1504 -0.1437
   58CHL1  H21B 5452   6.691   2.203   4.277  0.3394  0.2489 -0.1144
   58CHL1  H21C 5453   6.583   2.253   4.414  1.3602  2.6388 -0.1620
   58CHL1   C22 5454   6.451   2.035   4.322 -0.1247 -0.2405 -1.3942
   58CHL1  H22A 5455   6.384   1.960   4.276 -2.5382  1.5780 -1.0221
   58CHL1  H22B 5456   6.552   1.995   4.347 -0.5142 -0.1443  0.4905
   58CHL1   C23 5457   6.379   2.081   4.451  0.2206  0.5144  0.0844
   58CHL1  H23A 5458   6.448   2.138   4.517 -0.1139 -1.2669  2.0637
   58CHL1  H23B 5459   6.297   2.151   4.423 -0.9812 -0.4831  1.0104
   58CHL1   C24 5460   6.330   1.964   4.542  0.4210 -0.1844  0.4724
   58CHL1  H24A 5461   6.235   1.922   4.503 -0.6920  0.7363  2.0632
   58CHL1  H24B 5462   6.412   1.890   4.535  0.5475  0.0946 -3.0914
   58CHL1   C25 5463   6.319   2.010   4.687 -0.0421  0.6611  0.6381
   58CHL1   H25 5464   6.410   2.064   4.723  1.5208 -1.4593  0.0622
   58CHL1   C26 5465   6.195   2.094   4.702 -0.2233  0.0844  0.0194
   58CHL1  H26A 5466   6.104   2.046   4.660 -0.6768 -0.5811  1.6729
   58CHL1  H26B 5467   6.181   2.119   4.809  1.8891  3.3918 -0.3439
   58CHL1  H26C 5468   6.206   2.190   4.647  2.1942 -1.1472 -1.8204
   58CHL1   C27 5469   6.305   1.881   4.776  0.4754 -0.1627  0.1817
   58CHL1  H27A 5470   6.396   1.818   4.777  1.0595  0.6149  2.4550
   58CHL1  H27B 5471   6.287   1.899   4.884  0.9983  0.3545  0.1908
   58CHL1  H27C 5472   6.216   1.826   4.737  2.4296 -2.5544 -1.1938
   59CHL1    C3 5473   0.132   0.765   3.263  1.1866 -0.1989 -0.4598
   59CHL1    H3 5474   0.084   0.666   3.247 -0.0204  0.5674 -1.9130
   59CHL1    O3 5475   0.154   0.826   3.135  0.1209 -0.9326  0.3424
   59CHL1   H3' 5476   0.176   0.751   3.080  2.6023  0.1181 -0.2708
   59CHL1    C4 5477   0.037   0.851   3.352  0.2499 -0.6645  0.0819
   59CHL1   H4A 5478   0.093   0.947   3.364  1.5636 -1.2185 -1.3625
   59CHL1   H4B 5479  -0.060   0.866   3.300 -0.2060 -3.6445 -0.0684
   59CHL1    C5 5480   0.002   0.792   3.490 -0.6320 -0.6472  0.3130
   59CHL1    C6 5481  -0.124   0.775   3.526  0.1949 -0.0306  0.9816
   59CHL1    H6 5482  -0.204   0.803   3.455 -0.8049 -1.4127  1.5033
   59CHL1    C7 5483  -0.168   0.705   3.653 -0.0287 -0.0142 -0.6447
   59CHL1   H7A 5484  -0.260   0.753   3.694 -0.9311 -0.8595 -1.6288
   59CHL1   H7B 5485  -0.202   0.605   3.618 -0.6614  0.5504 -1.6782
   59CHL1    C8 5486  -0.052   0.699   3.755 -0.0142  0.3167  0.2798
   59CHL1    H8 5487  -0.042   0.803   3.792 -0.8592  0.8377 -0.8692
   59CHL1   C14 5488  -0.094   0.612   3.872  0.7388 -0.4800  0.5306
   59CHL1   H14 5489  -0.109   0.513   3.823  1.1697  0.2327 -1.1139
   59CHL1   C15 5490  -0.227   0.640   3.944 -0.0872  0.3626  0.8643
   59CHL1  H15A 5491  -0.225   0.747   3.974 -0.0166  0.6868 -0.2324
   59CHL1  H15B 5492  -0.317   0.620   3.882 -0.1772  0.5933  0.9185
   59CHL1   C16 5493  -0.212   0.552   4.073  0.0611  0.0666  0.3961
   59CHL1  H16A 5494  -0.238   0.623   4.155 -2.5808  2.3108 -2.1792
   59CHL1  H16B 5495  -0.268   0.457   4.061  1.5527 -0.8905  0.7124
   59CHL1   C17 5496  -0.061   0.515   4.082  0.4165  0.0291  0.3286
   59CHL1   H17 5497  -0.071   0.419   4.028 -1.5283  0.6168 -0.4521
   59CHL1   C13 5498   0.016   0.593   3.977 -0.1857  0.0792  0.0433
   59CHL1   C18 5499   0.059   0.727   4.043  0.2570  0.2270 -0.2654
   59CHL1  H18A 5500   0.080   0.800   3.961 -1.5290  1.9007  0.6730
   59CHL1  H18B 5501  -0.026   0.772   4.098 -0.2123 -1.2217  0.2354
   59CHL1  H18C 5502   0.154   0.719   4.100  0.2997  1.8186 -0.0627
   59CHL1   C12 5503   0.136   0.521   3.908 -0.5798 -0.2626 -0.2828
   59CHL1  H12A 5504   0.220   0.485   3.972 -0.2962 -0.6251 -0.8517
   59CHL1  H12B 5505   0.105   0.431   3.851  1.5967 -1.0943 -0.2360
   59CHL1   C11 5506   0.191   0.613   3.799  1.2000 -0.4015 -0.5459
   59CHL1  H11A 5507   0.230   0.707   3.844  0.8848 -1.5096  2.2297
   59CHL1  H11B 5508   0.279   0.573   3.744  1.6251 -0.1768 -0.0400
   59CHL1    C9 5509   0.085   0.654   3.697  0.0818 -0.1704 -0.2254
   59CHL1    H9 5510   0.059   0.560   3.644  1.1924 -0.7909  0.3034
   59CHL1   C10 5511   0.124   0.749   3.574  0.2313 -0.1463 -0.2053
   59CHL1   C19 5512   0.194   0.873   3.633 -0.8567 -0.3502  1.1285
   59CHL1  H19A 5513   0.137   0.929   3.711 -0.1274  0.6124  0.9821
   59CHL1  H19B 5514   0.291   0.841   3.677 -0.8284 -0.2442  1.1438
   59CHL1  H19C 5515   0.220   0.941   3.549 -1.8365  0.5304  1.5078
   59CHL1    C1 5516   0.226   0.674   3.480 -0.4215  0.0991 -0.5418
   59CHL1   H1A 5517   0.316   0.664   3.545 -0.8029  1.5430  0.2460
   59CHL1   H1B 5518   0.188   0.572   3.458 -0.7699  0.2341 -0.5690
   59CHL1    C2 5519   0.260   0.745   3.344 -0.2074  0.0401  0.0382
   59CHL1   H2A 5520   0.334   0.684   3.288  1.0758  0.6132  1.0707
   59CHL1   H2B 5521   0.302   0.846   3.362  0.5938 -0.3488  0.3641
   59CHL1   C20 5522  -0.002   0.497   4.218  0.3750  0.0693  0.0036
   59CHL1   H20 5523   0.015   0.595   4.267  2.5867 -1.2544  2.0607
   59CHL1   C21 5524   0.132   0.414   4.207 -0.3284 -0.2469 -0.3306
   59CHL1  H21A 5525   0.158   0.374   4.308  3.1541  0.7137 -0.7302
   59CHL1  H21B 5526   0.218   0.478   4.178 -0.1605 -0.9445 -1.4576
   59CHL1  H21C 5527   0.125   0.326   4.139 -0.3575 -0.6533  0.1911
   59CHL1   C22 5528  -0.100   0.424   4.318 -0.6488 -0.3052  0.2357
   59CHL1  H22A 5529  -0.060   0.438   4.421 -0.6016  3.0001 -0.1475
   59CHL1  H22B 5530  -0.189   0.491   4.319  0.6720  1.6586 -2.4779
   59CHL1   C23 5531  -0.129   0.271   4.286  0.7293 -0.2040 -0.0265
   59CHL1  H23A 5532  -0.164   0.241   4.185 -1.6918  0.4908  0.5396
   59CHL1  H23B 5533  -0.029   0.225   4.303  0.8577 -0.1066 -0.5191
   59CHL1   C24 5534  -0.235   0.236   4.393  0.6225  0.2690 -0.6873
   59CHL1  H24A 5535  -0.192   0.270   4.490  1.4145 -4.5698  0.9799
   59CHL1  H24B 5536  -0.335   0.278   4.369 -0.3372 -1.5794 -0.1101
   59CHL1   C25 5537  -0.248   0.081   4.412  0.0155  0.4057 -0.4669
   59CHL1   H25 5538  -0.150   0.031   4.424  0.0025  1.0084  3.4272
   59CHL1   C26 5539  -0.318   0.052   4.547  0.3208 -0.0994  1.2918
   59CHL1  H26A 5540  -0.376  -0.043   4.550 -0.4523  0.2759 -0.5173
   59CHL1  H26B 5541  -0.255   0.053   4.638  0.2071 -1.7425  1.4240
   59CHL1  H26C 5542  -0.398   0.129   4.557  1.1269  1.0759 -0.7593
   59CHL1   C27 5543  -0.332   0.024   4.296  0.1997  0.4514  0.4204
   59CHL1  H27A 5544  -0.275   0.031   4.200 -2.7871 -0.6297 -1.5655
   59CHL1  H27B 5545  -0.335  -0.086   4.313  0.1681  0.5523  1.0683
   59CHL1  H27C 5546  -0.431   0.074   4.293 -0.1974 -0.3069  0.7529
   60CHL1    C3 5547   0.758   6.422   3.397 -0.7400 -0.5034 -0.3917
   60CHL1    H3 5548   0.858   6.402   3.352 -1.3211 -1.7834 -1.1449
   60CHL1    O3 5549   0.674   6.473   3.299 -1.0108 -0.0553  0.2979
   60CHL1   H3' 5550   0.741   6.534   3.265 -0.4638 -0.3671  0.7955
   60CHL1    C4 5551   0.699   6.281   3.436 -0.5898  0.5368  0.2918
   60CHL1   H4A 5552   0.596   6.292   3.475 -1.0721  1.5855 -1.2076
   60CHL1   H4B 5553   0.701   6.214   3.347  1.6121 -0.7137  1.1961
   60CHL1    C5 5554   0.771   6.219   3.553 -0.0776 -0.0815  0.2745
   60CHL1    C6 5555   0.825   6.100   3.546  0.2884  0.6019 -0.0535
   60CHL1    H6 5556   0.825   6.054   3.446 -0.9753  1.4847 -0.4869
   60CHL1    C7 5557   0.875   6.009   3.662 -0.5776 -0.8536  0.1971
   60CHL1   H7A 5558   0.819   5.913   3.656 -0.5334 -0.9362  1.0106
   60CHL1   H7B 5559   0.986   6.009   3.658 -0.5034  0.9448  1.2949
   60CHL1    C8 5560   0.841   6.075   3.793  0.1542 -0.0827 -0.5520
   60CHL1    H8 5561   0.732   6.057   3.803  0.0684  0.8347  0.2826
   60CHL1   C14 5562   0.925   6.011   3.906  0.0346 -1.1553  0.3409
   60CHL1   H14 5563   1.029   6.044   3.884 -1.0017  0.6886 -2.2420
   60CHL1   C15 5564   0.937   5.856   3.907  0.4156  0.1852  0.2656
   60CHL1  H15A 5565   0.837   5.809   3.906 -0.8905  2.7586 -1.0629
   60CHL1  H15B 5566   1.001   5.817   3.824 -0.4509 -0.9069  0.0922
   60CHL1   C16 5567   1.007   5.826   4.043  1.0389 -0.3837  0.6039
   60CHL1  H16A 5568   0.943   5.754   4.099 -2.1380  1.5603 -0.2530
   60CHL1  H16B 5569   1.106   5.782   4.018  0.9383 -1.0228  1.3116
   60CHL1   C17 5570   1.015   5.967   4.109  0.2455 -0.1936  0.0081
   60CHL1   H17 5571   1.117   6.007   4.090  0.0494  0.6010  0.5510
   60CHL1   C13 5572   0.902   6.060   4.044  0.2691 -0.1502  0.1467
   60CHL1   C18 5573   0.761   6.030   4.097 -0.2084  0.7704 -0.3111
   60CHL1  H18A 5574   0.682   6.080   4.037 -0.1206  1.5174  0.1812
   60CHL1  H18B 5575   0.733   5.922   4.095 -1.7753  1.1431 -0.2457
   60CHL1  H18C 5576   0.752   6.072   4.200  3.1993  1.0162 -0.0113
   60CHL1   C12 5577   0.946   6.217   4.041  0.2161  0.1983  0.1423
   60CHL1  H12A 5578   0.927   6.268   4.138 -1.9575  1.0361 -0.6524
   60CHL1  H12B 5579   1.051   6.235   4.010 -0.3211  1.6383 -0.9943
   60CHL1   C11 5580   0.851   6.292   3.939  0.2946 -0.1223 -0.5238
   60CHL1  H11A 5581   0.746   6.276   3.970  0.5789 -2.4108 -0.5721
   60CHL1  H11B 5582   0.879   6.399   3.930 -0.2807  0.0924  0.1146
   60CHL1    C9 5583   0.859   6.231   3.796 -0.4046  0.3283 -0.0097
   60CHL1    H9 5584   0.964   6.246   3.764 -0.8964  1.6450 -1.1374
   60CHL1   C10 5585   0.778   6.300   3.687  0.0064  0.0589 -0.2297
   60CHL1   C19 5586   0.625   6.324   3.749 -0.2742 -0.8162 -0.3026
   60CHL1  H19A 5587   0.553   6.375   3.682 -0.6772 -1.0646 -0.0589
   60CHL1  H19B 5588   0.581   6.233   3.793  0.3303 -2.2229 -2.4400
   60CHL1  H19C 5589   0.648   6.389   3.836  2.2127 -1.7559 -0.1578
   60CHL1    C1 5590   0.853   6.429   3.642 -0.3222 -0.0335  0.1768
   60CHL1   H1A 5591   0.869   6.502   3.725  0.1851 -1.7217  1.6261
   60CHL1   H1B 5592   0.957   6.416   3.606  0.3552 -0.6035  2.2006
   60CHL1    C2 5593   0.770   6.509   3.524  0.2893  0.0507 -0.2378
   60CHL1   H2A 5594   0.833   6.599   3.507  1.8739 -1.1170 -0.7894
   60CHL1   H2B 5595   0.668   6.531   3.562  0.3858 -0.9934  0.6939
   60CHL1   C20 5596   1.013   5.952   4.264 -0.2212  0.3120  0.7600
   60CHL1   H20 5597   0.912   5.913   4.286 -0.5594 -0.2559 -1.5165
   60CHL1   C21 5598   1.026   6.084   4.330  0.1217  0.3060  0.5724
   60CHL1  H21A 5599   1.098   6.151   4.277 -1.0316  1.4673  0.4167
   60CHL1  H21B 5600   1.063   6.056   4.431  0.2505 -1.0036  0.1819
   60CHL1  H21C 5601   0.925   6.130   4.329  0.0914  0.2387  0.5962
   60CHL1   C22 5602   1.123   5.858   4.313 -0.6634  0.3722 -0.3803
   60CHL1  H22A 5603   1.149   5.773   4.246  0.6446  0.6993 -0.3051
   60CHL1  H22B 5604   1.217   5.916   4.320 -1.1477  0.9758  1.6066
   60CHL1   C23 5605   1.081   5.793   4.453  0.1959 -0.2354 -0.7507
   60CHL1  H23A 5606   1.040   5.869   4.523  1.1948  1.2682 -1.7068
   60CHL1  H23B 5607   0.995   5.736   4.414  0.3226  0.3454 -1.9537
   60CHL1   C24 5608   1.180   5.696   4.523 -0.3601  0.3581 -0.3257
   60CHL1  H24A 5609   1.115   5.650   4.601 -1.5220  2.4416 -0.0008
   60CHL1  H24B 5610   1.219   5.626   4.445 -1.0447 -0.8873  0.4109
   60CHL1   C25 5611   1.311   5.751   4.599  0.0383 -1.2155 -0.3868
   60CHL1   H25 5612   1.339   5.665   4.664  0.6610 -0.3896  0.4508
   60CHL1   C26 5613   1.419   5.789   4.500 -0.3486  0.0476  0.0459
   60CHL1  H26A 5614   1.503   5.841   4.550 -0.8643  1.1718 -0.2329
   60CHL1  H26B 5615   1.453   5.704   4.436 -2.0322 -0.6229  0.0001
   60CHL1  H26C 5616   1.386   5.864   4.425 -2.7119 -0.2693  0.6915
   60CHL1   C27 5617   1.257   5.863   4.690  1.1827 -0.6529 -0.1319
   60CHL1  H27A 5618   1.221   5.947   4.627 -0.4928 -3.7494 -3.6219
   60CHL1  H27B 5619   1.178   5.826   4.759 -0.2936  0.7588 -1.0069
   60CHL1  H27C 5620   1.344   5.904   4.745  0.7623  0.9316 -0.5846
   61CHL1    C3 5621   0.417   3.190   3.985  0.2013 -0.2170 -0.3986
   61CHL1    H3 5622   0.307   3.201   3.997  0.4015  2.0131 -0.0978
   61CHL1    O3 5623   0.447   3.246   3.859  0.2773  0.0147  0.3014
   61CHL1   H3' 5624   0.539   3.221   3.850  0.4079  0.5100  0.2506
   61CHL1    C4 5625   0.483   3.278   4.094 -0.2174  0.5617 -0.4472
   61CHL1   H4A 5626   0.594   3.284   4.085 -0.2770  0.2442 -1.4827
   61CHL1   H4B 5627   0.456   3.383   4.071  0.7469  0.3745 -2.6194
   61CHL1    C5 5628   0.445   3.224   4.235  0.2477  0.6334 -0.2947
   61CHL1    C6 5629   0.385   3.304   4.319  0.3346 -0.9453 -0.0668
   61CHL1    H6 5630   0.369   3.409   4.292  0.7012 -0.5516  1.1543
   61CHL1    C7 5631   0.351   3.262   4.463 -0.0891 -0.3118  0.1260
   61CHL1   H7A 5632   0.391   3.345   4.525 -0.3905 -0.2758  0.2778
   61CHL1   H7B 5633   0.244   3.277   4.491 -0.2922 -1.5313  0.0913
   61CHL1    C8 5634   0.418   3.138   4.517  0.3353  0.7597 -0.1293
   61CHL1    H8 5635   0.521   3.161   4.551 -0.1542  1.3358  1.0072
   61CHL1   C14 5636   0.345   3.081   4.639 -0.5994  0.5203  0.2481
   61CHL1   H14 5637   0.241   3.059   4.607 -1.2343  0.2015  2.3524
   61CHL1   C15 5638   0.325   3.177   4.755  0.6952 -0.0515  0.0782
   61CHL1  H15A 5639   0.423   3.229   4.763  2.0063 -2.5426  2.0318
   61CHL1  H15B 5640   0.247   3.251   4.731  1.3744  0.1335 -1.7020
   61CHL1   C16 5641   0.293   3.084   4.872  0.0970  0.4715 -0.1789
   61CHL1  H16A 5642   0.362   3.116   4.953  0.6610  0.2805 -0.5785
   61CHL1  H16B 5643   0.189   3.098   4.910 -0.5978  1.6829 -2.3475
   61CHL1   C17 5644   0.318   2.940   4.820 -1.2237  0.3716 -0.3139
   61CHL1   H17 5645   0.219   2.901   4.789 -0.5183 -0.3728 -1.7263
   61CHL1   C13 5646   0.406   2.948   4.693 -0.1621  0.4014  0.2741
   61CHL1   C18 5647   0.557   2.974   4.739 -0.3797 -0.7049  0.0373
   61CHL1  H18A 5648   0.566   3.038   4.829 -0.3415 -1.4966  0.6086
   61CHL1  H18B 5649   0.595   2.875   4.774 -0.2622 -0.9253 -0.6971
   61CHL1  H18C 5650   0.624   3.020   4.664 -1.1840  1.6093  0.6617
   61CHL1   C12 5651   0.382   2.844   4.581  0.7040  0.2711  0.0934
   61CHL1  H12A 5652   0.415   2.742   4.609  0.1280  0.0269 -0.0843
   61CHL1  H12B 5653   0.271   2.837   4.573  0.7738 -0.8750 -0.0852
   61CHL1   C11 5654   0.443   2.891   4.447  0.5587  0.4941 -0.3584
   61CHL1  H11A 5655   0.550   2.865   4.440  0.7207  0.4690  1.6058
   61CHL1  H11B 5656   0.395   2.822   4.374  0.2414 -0.7780  0.9892
   61CHL1    C9 5657   0.408   3.036   4.404 -0.2157 -0.5776 -0.0523
   61CHL1    H9 5658   0.301   3.042   4.378  0.0305  0.5623 -0.8826
   61CHL1   C10 5659   0.477   3.077   4.266  0.1379 -0.0096  0.0915
   61CHL1   C19 5660   0.625   3.051   4.290 -0.1686 -0.2832  0.1109
   61CHL1  H19A 5661   0.680   3.115   4.218  0.9103 -0.7459  0.5033
   61CHL1  H19B 5662   0.665   3.094   4.385  0.4139 -0.3956 -0.0784
   61CHL1  H19C 5663   0.654   2.945   4.275  1.9723  0.3751 -0.8270
   61CHL1    C1 5664   0.424   2.984   4.145  0.3685 -0.8604  0.3899
   61CHL1   H1A 5665   0.465   2.882   4.163  2.6498  0.1459  1.3123
   61CHL1   H1B 5666   0.314   2.967   4.156 -0.5202  1.4738 -3.1637
   61CHL1    C2 5667   0.444   3.043   4.004  0.9975  0.0513 -0.5662
   61CHL1   H2A 5668   0.388   2.979   3.933  3.2632 -0.6850 -1.7739
   61CHL1   H2B 5669   0.550   3.030   3.975  1.2399 -1.0236  0.7217
   61CHL1   C20 5670   0.372   2.853   4.936  0.2103  1.3777  0.0264
   61CHL1   H20 5671   0.472   2.889   4.969 -0.5093  1.9897  1.6170
   61CHL1   C21 5672   0.391   2.705   4.888  0.0646  0.1758  0.5102
   61CHL1  H21A 5673   0.308   2.679   4.819 -0.3093  0.9001  0.6754
   61CHL1  H21B 5674   0.405   2.646   4.981  0.5130  0.7889  0.8384
   61CHL1  H21C 5675   0.487   2.701   4.833 -0.1384 -2.7720  0.2072
   61CHL1   C22 5676   0.282   2.855   5.063 -0.3435  0.0178 -0.6239
   61CHL1  H22A 5677   0.337   2.807   5.147  2.4204  1.4788 -1.4749
   61CHL1  H22B 5678   0.262   2.959   5.096  0.9284  0.2968 -0.6940
   61CHL1   C23 5679   0.149   2.798   5.034  0.5621  0.5133  0.2013
   61CHL1  H23A 5680   0.096   2.870   4.967  0.4220  2.1176  1.9360
   61CHL1  H23B 5681   0.159   2.692   5.003 -0.9605  0.6147 -0.7479
   61CHL1   C24 5682   0.056   2.771   5.162  0.4683  0.6930 -0.5953
   61CHL1  H24A 5683   0.103   2.713   5.245 -2.5325 -0.5445  0.3577
   61CHL1  H24B 5684   0.026   2.871   5.200 -0.8749  0.2471 -0.4531
   61CHL1   C25 5685  -0.074   2.702   5.124 -0.0089 -0.6180  0.4707
   61CHL1   H25 5686  -0.051   2.600   5.088  0.7267 -0.1482 -0.4683
   61CHL1   C26 5687  -0.177   2.699   5.235 -0.1078  0.3367 -0.1530
   61CHL1  H26A 5688  -0.188   2.794   5.292 -1.8404 -1.2492  2.3799
   61CHL1  H26B 5689  -0.271   2.653   5.197 -0.6885  0.3950  1.1612
   61CHL1  H26C 5690  -0.137   2.640   5.320 -0.8473 -1.1830 -0.8026
   61CHL1   C27 5691  -0.150   2.762   5.002 -0.1403 -0.1575 -0.2095
   61CHL1  H27A 5692  -0.093   2.759   4.907 -0.6634  1.0319 -0.5879
   61CHL1  H27B 5693  -0.254   2.730   4.979  0.1371 -0.2716 -1.3444
   61CHL1  H27C 5694  -0.147   2.868   5.036 -0.2826 -0.4486  0.7384
   62CHL1    C3 5695   3.423   2.610   3.408 -0.0695 -0.0491  0.6185
   62CHL1    H3 5696   3.508   2.558   3.457  2.3485  0.4976 -2.6206
   62CHL1    O3 5697   3.434   2.588   3.268  0.4669  0.1991  0.2803
   62CHL1   H3' 5698   3.363   2.642   3.232 -1.2132 -1.0182  1.5983
   62CHL1    C4 5699   3.289   2.561   3.460  0.2939 -0.3489  0.9242
   62CHL1   H4A 5700   3.214   2.601   3.389  2.0904  0.3502 -0.6539
   62CHL1   H4B 5701   3.293   2.450   3.454 -2.9717 -0.4673 -1.6173
   62CHL1    C5 5702   3.261   2.594   3.604 -0.4448 -0.1658  0.7734
   62CHL1    C6 5703   3.241   2.504   3.697  0.2925 -0.1104  0.1387
   62CHL1    H6 5704   3.239   2.400   3.663  2.4207  0.0280 -0.6067
   62CHL1    C7 5705   3.214   2.522   3.841  0.0709 -0.1565 -0.1750
   62CHL1   H7A 5706   3.121   2.471   3.873 -0.0081  0.9498  1.4798
   62CHL1   H7B 5707   3.291   2.486   3.912 -2.5836 -1.2449  2.3233
   62CHL1    C8 5708   3.183   2.675   3.862  0.1208  0.0957  0.0684
   62CHL1    H8 5709   3.080   2.697   3.827 -0.3189 -1.7951  0.0612
   62CHL1   C14 5710   3.199   2.695   4.015  0.3786  0.3495 -0.2274
   62CHL1   H14 5711   3.303   2.666   4.040  0.3501 -0.1281 -0.6428
   62CHL1   C15 5712   3.100   2.616   4.100 -0.0846 -0.4800 -0.3030
   62CHL1  H15A 5713   3.007   2.629   4.040 -0.3655  0.4905  0.3283
   62CHL1  H15B 5714   3.135   2.513   4.124 -1.2702 -0.2661  2.7008
   62CHL1   C16 5715   3.086   2.690   4.235 -0.0782 -0.5660  0.1091
   62CHL1  H16A 5716   2.980   2.705   4.263 -0.3910 -0.0797 -1.2573
   62CHL1  H16B 5717   3.128   2.634   4.321 -1.9153 -1.5801  0.4015
   62CHL1   C17 5718   3.171   2.825   4.213  0.1681  0.7639  0.1033
   62CHL1   H17 5719   3.278   2.803   4.234  0.1035  0.1398 -0.1894
   62CHL1   C13 5720   3.176   2.840   4.057  0.1274 -0.2200 -0.3172
   62CHL1   C18 5721   3.029   2.888   4.017 -0.0568  0.7069  0.1886
   62CHL1  H18A 5722   3.013   2.858   3.912 -0.3878 -0.0821  0.4569
   62CHL1  H18B 5723   2.946   2.838   4.071 -0.8748 -0.5985 -2.1638
   62CHL1  H18C 5724   3.014   2.998   4.020 -2.1690  0.5115 -1.1397
   62CHL1   C12 5725   3.287   2.928   3.995 -0.8031 -1.0694  0.1691
   62CHL1  H12A 5726   3.266   3.037   4.003  2.3455 -0.3388 -0.3522
   62CHL1  H12B 5727   3.383   2.897   4.042  1.5743  1.4527 -2.6138
   62CHL1   C11 5728   3.291   2.906   3.844 -0.0612  0.2651  0.2114
   62CHL1  H11A 5729   3.205   2.962   3.802  0.6081  0.2114 -1.3327
   62CHL1  H11B 5730   3.381   2.957   3.802 -0.9903  1.1658 -0.7429
   62CHL1    C9 5731   3.287   2.767   3.793 -0.0247  0.0749 -0.0556
   62CHL1    H9 5732   3.382   2.727   3.835 -0.1410 -2.2603 -1.7670
   62CHL1   C10 5733   3.283   2.741   3.637 -0.1890 -0.1714  0.5558
   62CHL1   C19 5734   3.167   2.825   3.572 -0.5176 -0.1732 -0.2919
   62CHL1  H19A 5735   3.195   2.932   3.566 -1.3194  0.1308  0.9082
   62CHL1  H19B 5736   3.148   2.795   3.467  0.8021 -2.4504  0.0549
   62CHL1  H19C 5737   3.077   2.820   3.638 -0.3118  0.5194  0.0558
   62CHL1    C1 5738   3.420   2.793   3.574 -0.0558 -1.0213  0.4658
   62CHL1   H1A 5739   3.437   2.902   3.580  1.7540 -1.2501  0.1540
   62CHL1   H1B 5740   3.506   2.750   3.630  2.6369  0.7735 -2.0364
   62CHL1    C2 5741   3.436   2.758   3.430  0.5442 -0.4433  0.5208
   62CHL1   H2A 5742   3.530   2.797   3.386  0.7424 -0.8111  0.6169
   62CHL1   H2B 5743   3.352   2.806   3.375  0.2439 -0.4685  0.9440
   62CHL1   C20 5744   3.116   2.923   4.313 -0.0500  0.4335 -0.1575
   62CHL1   H20 5745   3.017   2.960   4.279  0.4321 -0.7514 -3.1377
   62CHL1   C21 5746   3.219   3.049   4.304  0.7533  0.3601  0.3576
   62CHL1  H21A 5747   3.324   3.012   4.313  0.4000 -0.6891  0.2547
   62CHL1  H21B 5748   3.193   3.125   4.380 -0.2967 -0.6025  0.9777
   62CHL1  H21C 5749   3.222   3.090   4.200 -0.0246 -2.9635 -1.1232
   62CHL1   C22 5750   3.102   2.871   4.462 -0.2404 -0.3264  0.1907
   62CHL1  H22A 5751   3.059   2.953   4.523  0.2988 -0.2543  0.4839
   62CHL1  H22B 5752   3.038   2.780   4.463  0.4103 -0.8102 -1.1201
   62CHL1   C23 5753   3.238   2.840   4.528 -0.3007  0.0676  0.0851
   62CHL1  H23A 5754   3.300   2.767   4.472 -1.0923 -1.5207  1.2211
   62CHL1  H23B 5755   3.292   2.936   4.544 -3.5540  2.1128 -0.2379
   62CHL1   C24 5756   3.217   2.780   4.662 -0.3763  0.6058  0.5813
   62CHL1  H24A 5757   3.144   2.841   4.718  0.6026  0.1007  2.4705
   62CHL1  H24B 5758   3.173   2.678   4.661 -1.5846  1.0999  1.5107
   62CHL1   C25 5759   3.344   2.779   4.747  0.2772  0.4981  0.1307
   62CHL1   H25 5760   3.403   2.872   4.728 -0.7451  1.4143  1.2285
   62CHL1   C26 5761   3.313   2.765   4.903  0.0859  0.0672 -0.0149
   62CHL1  H26A 5762   3.409   2.750   4.956  0.9750  0.4410 -1.4751
   62CHL1  H26B 5763   3.264   2.856   4.944  0.1502 -0.1631  0.5734
   62CHL1  H26C 5764   3.233   2.692   4.925  0.7374  0.0688  2.6202
   62CHL1   C27 5765   3.443   2.673   4.713  0.2787  0.0589 -0.7079
   62CHL1  H27A 5766   3.455   2.657   4.604 -0.4988 -2.1336 -0.5360
   62CHL1  H27B 5767   3.541   2.701   4.758  0.6053 -1.6874 -0.2631
   62CHL1  H27C 5768   3.421   2.573   4.757  3.4184  0.7709  3.0542
   63CHL1    C3 5769   0.318   0.017   2.953 -0.4254 -0.1401  0.6057
   63CHL1    H3 5770   0.213   0.002   2.986 -0.3963 -1.1030  0.2854
   63CHL1    O3 5771   0.322   0.029   2.806  0.6511  0.0623 -0.1019
   63CHL1   H3' 5772   0.360   0.116   2.793 -0.0152  0.1866 -1.3648
   63CHL1    C4 5773   0.389   0.138   3.009  0.0173  0.0281 -0.3074
   63CHL1   H4A 5774   0.496   0.130   2.978  0.0318  0.0566 -0.2657
   63CHL1   H4B 5775   0.352   0.230   2.960  1.0045  2.2570  2.8191
   63CHL1    C5 5776   0.385   0.140   3.157 -0.7569  0.0883 -0.3776
   63CHL1    C6 5777   0.329   0.245   3.223  0.4301 -0.5709 -0.1782
   63CHL1    H6 5778   0.296   0.329   3.160  0.5455  0.2412  0.8164
   63CHL1    C7 5779   0.314   0.254   3.375 -0.1574  0.2260 -0.2061
   63CHL1   H7A 5780   0.338   0.358   3.407  2.4211  0.0754 -1.4167
   63CHL1   H7B 5781   0.208   0.230   3.399  0.4384 -1.9975  0.5229
   63CHL1    C8 5782   0.409   0.154   3.450 -0.4024 -0.4743  0.1496
   63CHL1    H8 5783   0.509   0.201   3.437 -1.1260  1.0693 -0.0053
   63CHL1   C14 5784   0.367   0.138   3.595  0.1534  0.0350 -0.3380
   63CHL1   H14 5785   0.262   0.103   3.596  0.2171 -0.3732 -2.5179
   63CHL1   C15 5786   0.368   0.267   3.686  0.3144 -0.4663 -0.1273
   63CHL1  H15A 5787   0.461   0.320   3.658  1.2291 -1.2076  1.4080
   63CHL1  H15B 5788   0.275   0.329   3.689  0.7006  0.0890  1.1041
   63CHL1   C16 5789   0.385   0.207   3.830 -0.2585  0.2694  0.6564
   63CHL1  H16A 5790   0.476   0.242   3.882 -0.6854 -1.0822  2.4178
   63CHL1  H16B 5791   0.303   0.247   3.893 -0.9483  2.0490 -1.2565
   63CHL1   C17 5792   0.381   0.052   3.813 -0.1485  0.5908 -0.6376
   63CHL1   H17 5793   0.277   0.012   3.813  0.6173 -1.5252 -1.4870
   63CHL1   C13 5794   0.442   0.030   3.673  0.2068  0.1922  0.0576
   63CHL1   C18 5795   0.594   0.057   3.673 -0.2496  0.1424 -0.3152
   63CHL1  H18A 5796   0.626   0.146   3.731 -0.5064 -0.9339  1.5633
   63CHL1  H18B 5797   0.642  -0.030   3.724  0.8009  1.1418  0.4504
   63CHL1  H18C 5798   0.627   0.071   3.568  0.3814  0.8354 -0.0288
   63CHL1   C12 5799   0.402  -0.109   3.603 -0.0259 -0.5888  0.3408
   63CHL1  H12A 5800   0.447  -0.197   3.654 -2.3050 -1.6846  0.5836
   63CHL1  H12B 5801   0.292  -0.115   3.592 -0.0498  0.3551 -0.0547
   63CHL1   C11 5802   0.456  -0.099   3.465  0.1572  0.2972  0.8648
   63CHL1  H11A 5803   0.567  -0.095   3.473  0.4327  0.7244 -2.0439
   63CHL1  H11B 5804   0.418  -0.187   3.409  0.0609  0.6627  0.3449
   63CHL1    C9 5805   0.401   0.018   3.373  0.6385 -0.1517  0.1749
   63CHL1    H9 5806   0.292  -0.004   3.370  0.8977 -1.7474  0.9932
   63CHL1   C10 5807   0.453   0.020   3.226  0.4069  0.2138  0.5078
   63CHL1   C19 5808   0.606   0.030   3.225 -0.2334  0.1595  0.8222
   63CHL1  H19A 5809   0.656  -0.054   3.279  0.2061  0.2981  0.6366
   63CHL1  H19B 5810   0.654   0.042   3.126  0.2936  1.0501  1.1833
   63CHL1  H19C 5811   0.623   0.120   3.288  0.2514  0.8148 -0.2308
   63CHL1    C1 5812   0.408  -0.114   3.150 -0.0123 -1.0354  0.1922
   63CHL1   H1A 5813   0.479  -0.197   3.168 -1.0684 -2.6728 -2.5368
   63CHL1   H1B 5814   0.312  -0.154   3.189  0.2562 -2.0532 -0.1599
   63CHL1    C2 5815   0.408  -0.096   2.991 -0.8055 -0.0617 -0.2794
   63CHL1   H2A 5816   0.369  -0.190   2.948 -0.5490  0.2806 -1.2867
   63CHL1   H2B 5817   0.510  -0.075   2.953 -0.9803  2.1009  0.3289
   63CHL1   C20 5818   0.452  -0.022   3.927 -0.4796 -0.3071 -0.1962
   63CHL1   H20 5819   0.558   0.010   3.926 -0.5242 -0.1305  0.3187
   63CHL1   C21 5820   0.457  -0.175   3.921 -0.4379 -0.1520 -0.3667
   63CHL1  H21A 5821   0.533  -0.205   3.845 -1.2805 -3.3428 -0.0909
   63CHL1  H21B 5822   0.355  -0.207   3.893  0.1983 -1.1695 -1.6282
   63CHL1  H21C 5823   0.480  -0.222   4.019  2.6172 -1.4648 -1.5982
   63CHL1   C22 5824   0.411   0.025   4.070  0.6881 -0.5843 -0.8062
   63CHL1  H22A 5825   0.474  -0.017   4.151 -1.2046 -0.1548  0.9757
   63CHL1  H22B 5826   0.425   0.133   4.089 -0.2552 -0.6390  0.3082
   63CHL1   C23 5827   0.266  -0.007   4.099  0.5815 -0.0678 -0.2166
   63CHL1  H23A 5828   0.204   0.043   4.021 -0.0785 -0.4243  0.0708
   63CHL1  H23B 5829   0.250  -0.117   4.096  2.0633 -0.3377  0.7036
   63CHL1   C24 5830   0.211   0.052   4.231  0.0603  0.2084 -0.8697
   63CHL1  H24A 5831   0.244   0.157   4.243 -1.9578  0.6252  2.5442
   63CHL1  H24B 5832   0.101   0.044   4.218 -0.1142 -0.4033  0.7227
   63CHL1   C25 5833   0.251  -0.023   4.362  0.6517  0.4643 -0.1412
   63CHL1   H25 5834   0.361  -0.042   4.360  0.9844  2.2259  0.1412
   63CHL1   C26 5835   0.234   0.081   4.477  0.0344 -0.2165 -0.3956
   63CHL1  H26A 5836   0.320   0.151   4.477  0.3330 -0.5618  0.7501
   63CHL1  H26B 5837   0.139   0.139   4.484  0.6038  0.5831  1.4227
   63CHL1  H26C 5838   0.237   0.028   4.575 -2.6240 -1.0087 -0.6568
   63CHL1   C27 5839   0.177  -0.154   4.386  0.1394  0.2659 -1.5392
   63CHL1  H27A 5840   0.069  -0.131   4.378 -0.3928 -1.5652 -0.3298
   63CHL1  H27B 5841   0.208  -0.224   4.305  1.6910  0.2961 -1.0098
   63CHL1  H27C 5842   0.207  -0.198   4.484 -0.4399 -1.2565 -2.0122
   64CHL1    C3 5843   4.147   4.864   3.257 -0.4883 -0.5233  0.0985
   64CHL1    H3 5844   4.091   4.960   3.244 -0.0154 -0.3981 -1.0764
   64CHL1    O3 5845   4.129   4.801   3.134 -0.3376 -0.0081 -0.5178
   64CHL1   H3' 5846   4.213   4.786   3.091  0.5110 -0.4639  1.1856
   64CHL1    C4 5847   4.298   4.891   3.285  0.0549 -0.8122  0.9787
   64CHL1   H4A 5848   4.348   4.792   3.289  1.7033 -0.0170  0.7825
   64CHL1   H4B 5849   4.342   4.956   3.207 -1.7396  0.3930  0.9119
   64CHL1    C5 5850   4.319   4.945   3.418  0.2918  0.0200 -0.3981
   64CHL1    C6 5851   4.374   5.069   3.432 -0.4410 -0.1284  0.3157
   64CHL1    H6 5852   4.417   5.111   3.340 -3.8333 -1.3735 -2.0493
   64CHL1    C7 5853   4.400   5.134   3.563  0.4089 -0.7343 -0.3737
   64CHL1   H7A 5854   4.501   5.180   3.565  0.3167 -0.5403  0.8580
   64CHL1   H7B 5855   4.338   5.224   3.580  1.0247 -0.7981  3.0630
   64CHL1    C8 5856   4.379   5.041   3.692 -0.3358  0.7693  0.0472
   64CHL1    H8 5857   4.466   4.972   3.681 -0.4863  0.6294 -0.2944
   64CHL1   C14 5858   4.366   5.131   3.817 -0.4114  0.0557 -0.1177
   64CHL1   H14 5859   4.271   5.188   3.805 -0.6760 -0.2316  0.5354
   64CHL1   C15 5860   4.482   5.223   3.846  0.0694  0.0893  0.0155
   64CHL1  H15A 5861   4.565   5.151   3.862  0.5797  0.9251  1.3619
   64CHL1  H15B 5862   4.502   5.299   3.767 -1.1903 -0.8054 -1.2052
   64CHL1   C16 5863   4.447   5.264   3.992 -0.2288 -0.1950 -0.0129
   64CHL1  H16A 5864   4.540   5.273   4.053 -0.5297  0.8210  0.3269
   64CHL1  H16B 5865   4.401   5.365   3.988 -1.0056 -0.5546 -0.5135
   64CHL1   C17 5866   4.339   5.174   4.057 -0.9305 -0.3071 -0.2025
   64CHL1   H17 5867   4.238   5.221   4.053  0.3436  2.4901 -2.2447
   64CHL1   C13 5868   4.348   5.054   3.952  0.9126 -0.4456 -0.1832
   64CHL1   C18 5869   4.468   4.966   3.998 -0.0057 -0.2651  0.4200
   64CHL1  H18A 5870   4.562   5.024   4.015 -0.3522  1.1889 -2.2436
   64CHL1  H18B 5871   4.424   4.903   4.079 -0.8687 -2.4634 -1.6431
   64CHL1  H18C 5872   4.484   4.905   3.907  2.4602  1.4712 -0.4078
   64CHL1   C12 5873   4.221   4.975   3.927  0.1414 -0.0849  0.0021
   64CHL1  H12A 5874   4.194   4.909   4.012  0.5013  1.1961  1.1375
   64CHL1  H12B 5875   4.132   5.040   3.916  0.4625  0.3549 -0.0064
   64CHL1   C11 5876   4.223   4.880   3.800 -0.0851  0.5077 -0.0639
   64CHL1  H11A 5877   4.293   4.795   3.817 -1.0260 -0.4694 -0.9216
   64CHL1  H11B 5878   4.121   4.835   3.793  0.6256 -1.6404  1.8335
   64CHL1    C9 5879   4.250   4.960   3.671  0.0267  0.0484 -0.1905
   64CHL1    H9 5880   4.164   5.029   3.657 -2.1880 -2.6251 -0.6478
   64CHL1   C10 5881   4.250   4.874   3.540  0.2012 -0.4377 -0.1713
   64CHL1   C19 5882   4.318   4.744   3.572 -0.4670 -0.1919 -0.5686
   64CHL1  H19A 5883   4.421   4.762   3.611 -0.8622  1.3630 -0.1737
   64CHL1  H19B 5884   4.258   4.687   3.646  0.9562 -1.0760 -0.0374
   64CHL1  H19C 5885   4.323   4.682   3.480  0.6388 -0.5685 -0.2657
   64CHL1    C1 5886   4.097   4.848   3.497  0.1509 -0.3797 -0.0522
   64CHL1   H1A 5887   4.046   4.786   3.574 -1.3843  1.8901  0.8614
   64CHL1   H1B 5888   4.041   4.944   3.503 -0.0308 -0.4547 -0.5104
   64CHL1    C2 5889   4.072   4.785   3.366 -0.4435 -0.1668 -0.2884
   64CHL1   H2A 5890   3.967   4.784   3.330 -0.5639  0.1420  0.0433
   64CHL1   H2B 5891   4.110   4.681   3.371  1.0256  0.3839  1.4824
   64CHL1   C20 5892   4.368   5.145   4.207  0.0482  0.3160  0.1441
   64CHL1   H20 5893   4.469   5.098   4.209  0.3838  0.9084 -1.3388
   64CHL1   C21 5894   4.271   5.040   4.268 -0.0664 -0.2530 -0.1618
   64CHL1  H21A 5895   4.170   5.082   4.283  0.4021  0.7133  0.3458
   64CHL1  H21B 5896   4.310   5.005   4.366  0.9630 -2.6139 -1.3403
   64CHL1  H21C 5897   4.263   4.951   4.202  1.1168  0.6261 -1.5531
   64CHL1   C22 5898   4.377   5.274   4.294  0.2084  0.4937  0.0585
   64CHL1  H22A 5899   4.462   5.340   4.266  1.2596 -0.7737  0.1709
   64CHL1  H22B 5900   4.280   5.328   4.285  0.1674  0.4384  0.1692
   64CHL1   C23 5901   4.396   5.252   4.441  0.5355  0.4741 -0.0295
   64CHL1  H23A 5902   4.294   5.219   4.470  0.1029  0.0678 -1.9252
   64CHL1  H23B 5903   4.459   5.165   4.469 -1.7798 -1.3486 -0.1750
   64CHL1   C24 5904   4.435   5.381   4.517  0.0531 -0.9183 -0.2685
   64CHL1  H24A 5905   4.544   5.371   4.539  0.2122 -2.4043 -1.4928
   64CHL1  H24B 5906   4.404   5.480   4.478  0.3919  0.2139  2.1937
   64CHL1   C25 5907   4.365   5.389   4.655  0.5651  0.3592  0.5883
   64CHL1   H25 5908   4.260   5.364   4.630  0.7005 -0.5707  0.8964
   64CHL1   C26 5909   4.425   5.289   4.758  0.2524 -0.8477  0.3343
   64CHL1  H26A 5910   4.416   5.192   4.704 -1.0527  0.1407 -1.3349
   64CHL1  H26B 5911   4.533   5.304   4.778  0.2301 -1.1907  0.7311
   64CHL1  H26C 5912   4.374   5.287   4.857 -0.6172 -2.5922 -0.1063
   64CHL1   C27 5913   4.371   5.531   4.712 -0.0590  0.4313  0.0411
   64CHL1  H27A 5914   4.475   5.567   4.698 -0.0983  1.1174  1.3689
   64CHL1  H27B 5915   4.306   5.602   4.656  0.9725  0.4103 -1.2317
   64CHL1  H27C 5916   4.341   5.524   4.818 -2.2853  0.6049 -0.5230
   65CHL1    C3 5917   3.775   2.190   3.418  0.4983  0.1158  0.3026
   65CHL1    H3 5918   3.757   2.084   3.446 -2.3109  0.3880 -0.1258
   65CHL1    O3 5919   3.804   2.193   3.281 -0.3519 -0.1379  0.3062
   65CHL1   H3' 5920   3.894   2.160   3.279  0.2677  1.4058  1.4206
   65CHL1    C4 5921   3.638   2.261   3.449  0.2642  0.0046  0.2145
   65CHL1   H4A 5922   3.645   2.363   3.406 -0.4871 -1.0167 -2.5369
   65CHL1   H4B 5923   3.565   2.207   3.385 -0.4068 -0.0042  0.9714
   65CHL1    C5 5924   3.603   2.258   3.594  0.2626  0.1403  1.1809
   65CHL1    C6 5925   3.500   2.184   3.637 -0.0764 -0.2654  0.5876
   65CHL1    H6 5926   3.433   2.137   3.564  1.8668  0.8876 -2.1000
   65CHL1    C7 5927   3.464   2.161   3.775  0.1599  0.3002 -0.9646
   65CHL1   H7A 5928   3.357   2.186   3.790  0.3413  0.9693 -0.7387
   65CHL1   H7B 5929   3.485   2.057   3.808  1.9903  0.9343  0.0628
   65CHL1    C8 5930   3.542   2.260   3.861  0.6083  0.8038 -1.0301
   65CHL1    H8 5931   3.495   2.358   3.841  2.1574  1.5143 -1.2979
   65CHL1   C14 5932   3.516   2.231   4.012  0.5767  1.0148  0.3479
   65CHL1   H14 5933   3.567   2.134   4.033  1.2375  1.2765 -0.0137
   65CHL1   C15 5934   3.363   2.211   4.067 -0.2825  0.1717  0.4354
   65CHL1  H15A 5935   3.294   2.283   4.018  0.8341 -0.7547 -2.7623
   65CHL1  H15B 5936   3.337   2.106   4.043 -0.0728  0.7473 -2.8207
   65CHL1   C16 5937   3.368   2.235   4.220  0.5402 -0.1624  0.3326
   65CHL1  H16A 5938   3.296   2.314   4.250  1.3685  1.0727 -0.7859
   65CHL1  H16B 5939   3.346   2.143   4.277 -1.7576 -1.1139 -1.8756
   65CHL1   C17 5940   3.514   2.279   4.255 -0.1694  0.1297 -0.1836
   65CHL1   H17 5941   3.572   2.185   4.264  0.7307  0.7138  0.2600
   65CHL1   C13 5942   3.576   2.328   4.112  0.3856  0.6002 -0.4820
   65CHL1   C18 5943   3.528   2.467   4.081  0.2283  0.6335 -0.5739
   65CHL1  H18A 5944   3.521   2.507   3.978 -0.3758  0.4723 -0.5984
   65CHL1  H18B 5945   3.421   2.480   4.107 -0.1260  0.6631 -1.9622
   65CHL1  H18C 5946   3.583   2.531   4.153 -0.2300  0.4755 -0.0825
   65CHL1   C12 5947   3.732   2.326   4.088 -0.1445 -0.1578 -0.0560
   65CHL1  H12A 5948   3.777   2.402   4.156 -2.2226  1.1090 -0.0225
   65CHL1  H12B 5949   3.756   2.222   4.120 -0.2682 -0.1253  0.1459
   65CHL1   C11 5950   3.765   2.356   3.943  0.2493  0.0160 -0.7504
   65CHL1  H11A 5951   3.732   2.462   3.934 -0.4829  0.3154  3.3488
   65CHL1  H11B 5952   3.875   2.343   3.929  0.4714 -0.7761  1.3628
   65CHL1    C9 5953   3.692   2.261   3.840 -0.1407 -0.1186 -0.5123
   65CHL1    H9 5954   3.733   2.158   3.843  1.3527  0.4528 -0.7441
   65CHL1   C10 5955   3.717   2.308   3.692  0.4007  0.0640  0.0971
   65CHL1   C19 5956   3.709   2.463   3.681 -0.6018  0.3649 -0.4438
   65CHL1  H19A 5957   3.612   2.512   3.707  0.1064  1.1011  1.0016
   65CHL1  H19B 5958   3.780   2.513   3.751 -1.0662 -1.1274  1.1655
   65CHL1  H19C 5959   3.737   2.492   3.578 -3.1247  2.9098 -0.5372
   65CHL1    C1 5960   3.856   2.259   3.650  0.2830 -0.1454 -0.5978
   65CHL1   H1A 5961   3.922   2.332   3.702  0.6160  0.6702 -2.1229
   65CHL1   H1B 5962   3.867   2.151   3.675 -0.5058  0.0991  0.8891
   65CHL1    C2 5963   3.879   2.263   3.496  0.0976  0.2679 -0.1229
   65CHL1   H2A 5964   3.980   2.221   3.476 -0.9239 -2.2743 -0.3439
   65CHL1   H2B 5965   3.889   2.366   3.455  1.1258  0.1112 -0.3000
   65CHL1   C20 5966   3.524   2.374   4.378 -0.4631 -0.5563  0.3211
   65CHL1   H20 5967   3.470   2.469   4.357  0.9350 -0.3947 -3.3413
   65CHL1   C21 5968   3.679   2.409   4.412  0.0198 -0.6071 -0.3252
   65CHL1  H21A 5969   3.751   2.337   4.367  0.9953 -0.0506  0.3077
   65CHL1  H21B 5970   3.690   2.437   4.519  1.7739  2.7176 -1.2255
   65CHL1  H21C 5971   3.701   2.508   4.366 -2.2494  0.4540  0.7195
   65CHL1   C22 5972   3.461   2.301   4.497 -0.7481  0.2360 -0.8469
   65CHL1  H22A 5973   3.457   2.375   4.580 -0.8733 -1.1516  0.4316
   65CHL1  H22B 5974   3.356   2.272   4.474 -0.9644  1.7165 -1.9110
   65CHL1   C23 5975   3.542   2.180   4.547  0.0801  0.4682  0.7009
   65CHL1  H23A 5976   3.567   2.105   4.470  0.7356 -0.0521  1.4108
   65CHL1  H23B 5977   3.644   2.207   4.580 -0.1074  1.1598  0.7512
   65CHL1   C24 5978   3.477   2.109   4.672  0.1716 -0.5452  0.5023
   65CHL1  H24A 5979   3.429   2.180   4.743 -2.0357  2.2147 -3.3354
   65CHL1  H24B 5980   3.381   2.075   4.628 -0.5145  0.8066  0.9129
   65CHL1   C25 5981   3.540   1.977   4.737  0.1980 -0.6083  0.3444
   65CHL1   H25 5982   3.543   1.905   4.653  0.6269 -0.7616  0.4907
   65CHL1   C26 5983   3.685   1.999   4.789  0.2040  0.6892 -0.2520
   65CHL1  H26A 5984   3.758   2.032   4.711  1.4996  0.2806  0.7545
   65CHL1  H26B 5985   3.681   2.082   4.863  3.4847  1.6810 -0.9981
   65CHL1  H26C 5986   3.715   1.902   4.835  1.0984  0.4839 -1.2172
   65CHL1   C27 5987   3.460   1.917   4.846  0.3777 -0.4474  0.9992
   65CHL1  H27A 5988   3.489   1.811   4.863 -0.1878 -0.9362 -0.8796
   65CHL1  H27B 5989   3.468   1.966   4.946 -1.5040  1.4429  0.2984
   65CHL1  H27C 5990   3.355   1.895   4.814  1.6243 -2.2610 -2.3607
   66CHL1    C3 5991   1.173   3.032   3.791  0.4477  0.4208  0.3143
   66CHL1    H3 5992   1.116   3.114   3.839 -1.4668 -0.2026 -0.7801
   66CHL1    O3 5993   1.168   3.043   3.648 -0.5670  0.4431 -0.0648
   66CHL1   H3' 5994   1.261   3.045   3.624 -0.4077 -2.2082  0.0791
   66CHL1    C4 5995   1.313   3.016   3.851 -0.0274  0.0322 -0.3651
   66CHL1   H4A 5996   1.376   2.952   3.785  2.1569  0.0025  1.5972
   66CHL1   H4B 5997   1.351   3.120   3.846  1.5621 -0.4285  1.0924
   66CHL1    C5 5998   1.319   2.961   3.989  0.0174 -0.4429  0.0635
   66CHL1    C6 5999   1.370   3.038   4.094 -0.1249 -0.0655  0.4778
   66CHL1    H6 6000   1.413   3.135   4.064 -0.8489  0.7449  1.9641
   66CHL1    C7 6001   1.384   2.992   4.232 -0.4990 -0.1038  0.0523
   66CHL1   H7A 6002   1.492   2.997   4.261 -1.1499 -0.6781  2.8682
   66CHL1   H7B 6003   1.327   3.059   4.298 -0.6326  0.2012 -0.3688
   66CHL1    C8 6004   1.349   2.846   4.250 -0.6139 -0.2965  0.2054
   66CHL1    H8 6005   1.436   2.782   4.222  0.0443 -0.0581  1.6233
   66CHL1   C14 6006   1.329   2.820   4.397  1.0215  0.1383  0.0949
   66CHL1   H14 6007   1.241   2.881   4.425  0.1153 -0.1206 -1.9955
   66CHL1   C15 6008   1.426   2.873   4.502 -0.6481  0.5363 -1.0376
   66CHL1  H15A 6009   1.532   2.846   4.484 -0.3757 -1.1369  2.3838
   66CHL1  H15B 6010   1.432   2.982   4.523  0.0859 -0.1641  3.3230
   66CHL1   C16 6011   1.382   2.810   4.633  0.3026 -0.2947 -0.8710
   66CHL1  H16A 6012   1.473   2.767   4.679 -0.7737 -0.2567  1.4486
   66CHL1  H16B 6013   1.341   2.893   4.694 -2.9495 -0.5007 -2.5134
   66CHL1   C17 6014   1.278   2.696   4.595 -0.2675 -0.0886  0.2288
   66CHL1   H17 6015   1.173   2.728   4.608 -0.0195  1.4795 -1.1974
   66CHL1   C13 6016   1.285   2.678   4.443  0.0922 -0.0192 -0.1677
   66CHL1   C18 6017   1.388   2.571   4.406 -0.0284  0.1630 -0.2281
   66CHL1  H18A 6018   1.427   2.576   4.303  2.2226  0.4640  0.5890
   66CHL1  H18B 6019   1.481   2.571   4.467 -1.3920  1.7199  2.0351
   66CHL1  H18C 6020   1.351   2.466   4.414  1.2107 -0.2135  1.0315
   66CHL1   C12 6021   1.152   2.650   4.365  0.0886  0.0388 -0.5246
   66CHL1  H12A 6022   1.129   2.548   4.403  0.4480  0.0083 -0.3894
   66CHL1  H12B 6023   1.075   2.725   4.393 -2.3061 -1.0040 -3.6878
   66CHL1   C11 6024   1.172   2.659   4.215  0.1983 -0.2578  0.4173
   66CHL1  H11A 6025   1.242   2.580   4.181  1.4990  0.8943  0.3745
   66CHL1  H11B 6026   1.072   2.643   4.169  1.0705 -0.6684 -1.4534
   66CHL1    C9 6027   1.226   2.801   4.166 -0.2389  0.0670  0.1158
   66CHL1    H9 6028   1.147   2.874   4.195 -0.2562  0.9741 -1.9910
   66CHL1   C10 6029   1.244   2.829   4.012  0.1672  0.0921  0.7484
   66CHL1   C19 6030   1.330   2.711   3.952 -0.9068 -0.4432 -0.6247
   66CHL1  H19A 6031   1.414   2.701   4.024 -3.1196 -1.5597  1.9529
   66CHL1  H19B 6032   1.267   2.620   3.958 -0.7963 -0.4709  0.2251
   66CHL1  H19C 6033   1.359   2.714   3.844 -1.9409 -2.1999 -0.9842
   66CHL1    C1 6034   1.101   2.841   3.957 -0.2989 -0.7555  0.8159
   66CHL1   H1A 6035   1.053   2.740   3.959 -2.8127  0.1727 -2.4843
   66CHL1   H1B 6036   1.030   2.900   4.018 -0.2475  0.8293 -0.5967
   66CHL1    C2 6037   1.092   2.905   3.811  0.4010 -0.3482 -0.4529
   66CHL1   H2A 6038   0.985   2.921   3.789 -0.2604  1.8244  3.4234
   66CHL1   H2B 6039   1.132   2.828   3.743 -1.8362 -3.2124  1.2692
   66CHL1   C20 6040   1.300   2.567   4.679 -0.4894 -0.1464 -0.7201
   66CHL1   H20 6041   1.395   2.517   4.649  0.6287  0.8400  1.0267
   66CHL1   C21 6042   1.193   2.464   4.671  0.2825  0.6815  0.4350
   66CHL1  H21A 6043   1.165   2.441   4.566  1.4778 -0.1083  0.2758
   66CHL1  H21B 6044   1.101   2.497   4.725  1.2227  0.4523  2.2740
   66CHL1  H21C 6045   1.225   2.371   4.724 -0.2315  0.4260  0.3039
   66CHL1   C22 6046   1.325   2.583   4.832  0.6345  0.0268 -0.5390
   66CHL1  H22A 6047   1.331   2.490   4.893  0.1121  0.6423  0.4763
   66CHL1  H22B 6048   1.423   2.634   4.842  0.8235 -0.5628  0.8575
   66CHL1   C23 6049   1.215   2.680   4.886  0.1968 -0.4072 -0.3458
   66CHL1  H23A 6050   1.225   2.782   4.844 -0.9676 -0.6368 -1.2350
   66CHL1  H23B 6051   1.110   2.650   4.866  0.9831 -3.9754  0.2325
   66CHL1   C24 6052   1.214   2.672   5.042  0.0210 -0.1183 -0.0289
   66CHL1  H24A 6053   1.172   2.573   5.069  0.2966 -0.4504 -0.7809
   66CHL1  H24B 6054   1.316   2.682   5.083  0.5636 -0.3973 -1.2665
   66CHL1   C25 6055   1.116   2.777   5.097  0.8771 -0.6983  0.3089
   66CHL1   H25 6056   1.016   2.781   5.048 -0.2275  1.6510  2.5151
   66CHL1   C26 6057   1.098   2.738   5.247 -0.5622  0.4661  0.1571
   66CHL1  H26A 6058   1.023   2.655   5.248 -1.9062  1.6522  1.0434
   66CHL1  H26B 6059   1.203   2.713   5.274  1.2248  3.5031 -3.1599
   66CHL1  H26C 6060   1.065   2.826   5.306 -1.5995  0.7929 -0.8598
   66CHL1   C27 6061   1.167   2.924   5.085 -0.2430 -0.0268  0.5508
   66CHL1  H27A 6062   1.182   2.956   4.980 -0.8661  0.3942  0.5843
   66CHL1  H27B 6063   1.262   2.918   5.144 -0.1455 -0.8908  0.3117
   66CHL1  H27C 6064   1.095   2.984   5.145  0.3572  1.6107 -0.2923
   67CHL1    C3 6065   0.269   5.755   3.090  0.4403  0.0304 -0.0547
   67CHL1    H3 6066   0.178   5.816   3.109 -0.9863 -1.9398 -0.2176
   67CHL1    O3 6067   0.295   5.746   2.955 -0.5111  0.0176 -0.2356
   67CHL1   H3' 6068   0.359   5.675   2.945 -0.4292 -0.1900  1.4761
   67CHL1    C4 6069   0.396   5.809   3.156 -0.2057  0.1055  0.1776
   67CHL1   H4A 6070   0.479   5.744   3.123  0.3510  0.2922  1.1696
   67CHL1   H4B 6071   0.415   5.907   3.107 -2.7230  0.2031 -0.7465
   67CHL1    C5 6072   0.388   5.811   3.308 -0.0424  0.7713  0.3003
   67CHL1    C6 6073   0.399   5.926   3.378 -0.3722  0.3267  0.3029
   67CHL1    H6 6074   0.432   6.016   3.324 -1.3158  1.6407  1.8176
   67CHL1    C7 6075   0.380   5.934   3.524 -0.8590 -0.5460  0.2793
   67CHL1   H7A 6076   0.460   6.000   3.565 -1.4216 -0.8797  1.9758
   67CHL1   H7B 6077   0.287   5.988   3.552 -1.3978 -2.5870  2.8072
   67CHL1    C8 6078   0.390   5.798   3.601  0.7255  0.2635 -0.0707
   67CHL1    H8 6079   0.497   5.769   3.605  0.6766  0.1915  0.9064
   67CHL1   C14 6080   0.343   5.810   3.746  1.0967 -0.7608 -0.8858
   67CHL1   H14 6081   0.236   5.839   3.744  0.0611 -3.9276  1.0668
   67CHL1   C15 6082   0.428   5.907   3.839  0.1378 -0.2471 -0.8419
   67CHL1  H15A 6083   0.534   5.888   3.814 -0.0832  0.1614 -2.2063
   67CHL1  H15B 6084   0.397   6.009   3.805  1.2722  0.7553  1.0104
   67CHL1   C16 6085   0.383   5.874   3.982  0.3791 -0.1420 -0.5661
   67CHL1  H16A 6086   0.465   5.865   4.057  1.0439 -2.2918 -1.4627
   67CHL1  H16B 6087   0.317   5.960   4.004  1.5499  1.3398 -2.4840
   67CHL1   C17 6088   0.296   5.744   3.978 -0.6440  0.6923  0.2334
   67CHL1   H17 6089   0.192   5.778   3.960 -0.9652 -0.4585 -0.1115
   67CHL1   C13 6090   0.345   5.683   3.834 -0.1691  0.3090  0.3283
   67CHL1   C18 6091   0.492   5.627   3.849 -0.3708 -0.0975  0.1555
   67CHL1  H18A 6092   0.530   5.598   3.749 -2.5668 -0.6284 -0.5911
   67CHL1  H18B 6093   0.556   5.696   3.908 -1.1205  1.2961 -0.6021
   67CHL1  H18C 6094   0.483   5.526   3.895  0.5083 -0.1002  0.3319
   67CHL1   C12 6095   0.256   5.575   3.765  0.8019 -0.0440 -0.3530
   67CHL1  H12A 6096   0.248   5.477   3.817  1.3942  0.2246  0.2762
   67CHL1  H12B 6097   0.157   5.620   3.745  0.3577 -1.5425 -1.7494
   67CHL1   C11 6098   0.297   5.556   3.616 -0.0617 -0.2772  1.7676
   67CHL1  H11A 6099   0.392   5.498   3.615  1.4800  2.0388 -1.1063
   67CHL1  H11B 6100   0.226   5.496   3.555  1.2346 -0.1052 -0.0058
   67CHL1    C9 6101   0.308   5.690   3.533  0.2111  0.2077  0.5881
   67CHL1    H9 6102   0.206   5.734   3.535  0.2981  0.4097  0.4872
   67CHL1   C10 6103   0.350   5.677   3.382 -0.0779 -0.5512  0.0659
   67CHL1   C19 6104   0.477   5.590   3.375  0.6129  0.5286 -0.3323
   67CHL1  H19A 6105   0.470   5.490   3.424 -1.2782  0.0505 -1.4925
   67CHL1  H19B 6106   0.492   5.573   3.267 -1.8928 -1.7522 -0.4307
   67CHL1  H19C 6107   0.561   5.642   3.426  1.1395 -0.8175  0.2536
   67CHL1    C1 6108   0.241   5.598   3.301 -0.0107  0.2759  0.4671
   67CHL1   H1A 6109   0.255   5.495   3.341 -0.0414  1.0179  2.4590
   67CHL1   H1B 6110   0.141   5.642   3.320  0.4942  0.4834  2.8832
   67CHL1    C2 6111   0.248   5.613   3.145 -0.9798  0.1748 -0.3096
   67CHL1   H2A 6112   0.159   5.569   3.096 -0.9261  2.2878 -2.4902
   67CHL1   H2B 6113   0.339   5.555   3.116  0.5674  3.3425 -2.3507
   67CHL1   C20 6114   0.311   5.649   4.095 -0.6444  0.0922 -1.2388
   67CHL1   H20 6115   0.419   5.628   4.102 -0.5511  0.9459  0.5016
   67CHL1   C21 6116   0.217   5.521   4.077  0.0294 -0.3907 -0.4003
   67CHL1  H21A 6117   0.198   5.472   4.175  0.2561  1.8724  0.8383
   67CHL1  H21B 6118   0.273   5.444   4.019 -0.6834  1.0670 -3.1985
   67CHL1  H21C 6119   0.128   5.553   4.020  0.7635  2.7661  0.0319
   67CHL1   C22 6120   0.274   5.716   4.229  0.4370  0.1082 -0.1946
   67CHL1  H22A 6121   0.301   5.636   4.302  1.9495  0.3426 -0.4748
   67CHL1  H22B 6122   0.337   5.805   4.246  1.5797 -0.5641 -0.8235
   67CHL1   C23 6123   0.123   5.750   4.241 -0.3064 -0.6982  0.1075
   67CHL1  H23A 6124   0.076   5.807   4.158 -3.9410 -1.1243  1.6881
   67CHL1  H23B 6125   0.065   5.656   4.248 -2.1361  0.4955  2.4818
   67CHL1   C24 6126   0.095   5.826   4.366  0.0575 -0.2568 -0.7311
   67CHL1  H24A 6127   0.119   5.779   4.464 -2.4618 -1.5706 -0.6443
   67CHL1  H24B 6128   0.146   5.924   4.369 -1.4466  0.5491  2.1855
   67CHL1   C25 6129  -0.055   5.857   4.372  0.1397  0.7724  1.1873
   67CHL1   H25 6130  -0.084   5.876   4.266  0.2050 -2.7180  0.4413
   67CHL1   C26 6131  -0.146   5.743   4.415  0.0687 -0.0668  0.5233
   67CHL1  H26A 6132  -0.251   5.779   4.426 -0.1535  0.1008 -1.6577
   67CHL1  H26B 6133  -0.156   5.669   4.333 -3.2392  1.7672 -0.9660
   67CHL1  H26C 6134  -0.107   5.700   4.509  0.3867  1.4137  1.0982
   67CHL1   C27 6135  -0.092   5.979   4.469  0.9438 -0.3042  0.6993
   67CHL1  H27A 6136  -0.064   5.935   4.567  2.4965 -0.5596  0.1575
   67CHL1  H27B 6137  -0.039   6.074   4.447  0.6069 -0.1194  0.6727
   67CHL1  H27C 6138  -0.201   5.995   4.453  1.2665 -0.6254 -2.4255
   68CHL1    C3 6139   4.187   0.542   3.297  0.4772  0.1440  0.4828
   68CHL1    H3 6140   4.273   0.476   3.318 -0.0181 -1.0170 -0.9117
   68CHL1    O3 6141   4.152   0.526   3.158  0.1678  0.2771 -0.0632
   68CHL1   H3' 6142   4.079   0.589   3.151  0.2384  0.4942  1.0018
   68CHL1    C4 6143   4.077   0.492   3.383 -0.1361  0.6752 -0.1966
   68CHL1   H4A 6144   3.982   0.537   3.346 -0.4204 -1.3779 -2.2258
   68CHL1   H4B 6145   4.055   0.387   3.355  1.2400  0.3104  0.0532
   68CHL1    C5 6146   4.092   0.516   3.532 -0.2409  0.1494 -0.8212
   68CHL1    C6 6147   4.091   0.417   3.625  0.4779 -0.7543  0.6537
   68CHL1    H6 6148   4.065   0.314   3.596  3.8402 -1.1134 -1.6108
   68CHL1    C7 6149   4.107   0.446   3.775  0.1348 -0.3654 -0.1256
   68CHL1   H7A 6150   4.033   0.381   3.828  0.8728 -1.2258 -0.1303
   68CHL1   H7B 6151   4.206   0.402   3.800 -0.0613 -0.7020  0.0712
   68CHL1    C8 6152   4.113   0.591   3.828 -0.6500 -0.5994  0.1310
   68CHL1    H8 6153   4.005   0.613   3.841 -0.2818 -0.0244  2.7299
   68CHL1   C14 6154   4.189   0.607   3.961  0.5320  0.6900 -0.2693
   68CHL1   H14 6155   4.295   0.584   3.936 -0.2142  0.2920 -3.4471
   68CHL1   C15 6156   4.155   0.506   4.072  0.1102  0.1643 -0.5912
   68CHL1  H15A 6157   4.049   0.475   4.070  0.4046 -1.0668  0.8384
   68CHL1  H15B 6158   4.232   0.426   4.070  0.2277  0.2755 -0.5779
   68CHL1   C16 6159   4.177   0.590   4.197 -0.8928 -0.3101  0.1037
   68CHL1  H16A 6160   4.083   0.616   4.249  0.2480  1.0106  1.6038
   68CHL1  H16B 6161   4.245   0.532   4.263  0.4670 -0.3616 -1.2718
   68CHL1   C17 6162   4.250   0.725   4.149  0.6743  0.0391 -0.4779
   68CHL1   H17 6163   4.351   0.685   4.123  0.4608 -1.7926  1.2307
   68CHL1   C13 6164   4.178   0.752   4.014 -0.7735 -0.0114  0.4501
   68CHL1   C18 6165   4.039   0.818   4.040 -0.0000  0.2766  0.6922
   68CHL1  H18A 6166   4.051   0.922   4.077 -2.5008  0.6848  0.5542
   68CHL1  H18B 6167   3.971   0.823   3.952  1.9439 -0.2579 -0.8995
   68CHL1  H18C 6168   3.989   0.772   4.129 -0.8657  1.9304  1.1008
   68CHL1   C12 6169   4.254   0.837   3.907  0.6521  0.2698  0.2482
   68CHL1  H12A 6170   4.247   0.944   3.938 -1.7627  0.4767 -0.8249
   68CHL1  H12B 6171   4.361   0.807   3.912  0.8916  0.8561 -0.9738
   68CHL1   C11 6172   4.199   0.818   3.768 -1.1090 -0.2063  0.8160
   68CHL1  H11A 6173   4.102   0.873   3.763 -2.0517 -1.9020 -1.3853
   68CHL1  H11B 6174   4.256   0.876   3.693 -0.7849 -0.3488  0.9517
   68CHL1    C9 6175   4.184   0.674   3.717  0.0230  0.3014 -0.8255
   68CHL1    H9 6176   4.288   0.636   3.717 -0.7553 -2.0830 -3.0347
   68CHL1   C10 6177   4.131   0.660   3.574 -0.3734  0.2129 -0.1135
   68CHL1   C19 6178   4.017   0.754   3.555  0.1744 -0.9104  0.2779
   68CHL1  H19A 6179   4.041   0.862   3.567  1.9555 -1.2308 -0.2327
   68CHL1  H19B 6180   3.979   0.743   3.451 -1.3581 -1.0872  0.8254
   68CHL1  H19C 6181   3.931   0.740   3.624  0.0237  0.2313  0.3436
   68CHL1    C1 6182   4.253   0.695   3.476 -0.0708 -0.4669  0.3415
   68CHL1   H1A 6183   4.280   0.801   3.495 -0.5826 -0.0408 -1.1920
   68CHL1   H1B 6184   4.339   0.630   3.502  0.0213  0.7434  3.5085
   68CHL1    C2 6185   4.226   0.683   3.328  0.3180  0.1220  1.1513
   68CHL1   H2A 6186   4.322   0.709   3.278 -0.4886 -1.6067 -1.4798
   68CHL1   H2B 6187   4.148   0.757   3.299  1.1415 -0.2196 -2.3671
   68CHL1   C20 6188   4.251   0.831   4.262  0.0066 -0.6427 -0.2706
   68CHL1   H20 6189   4.149   0.871   4.246  0.2150  0.5110  1.1646
   68CHL1   C21 6190   4.354   0.936   4.223  0.4612 -0.2900 -0.6203
   68CHL1  H21A 6191   4.354   1.023   4.292  0.3780 -1.3004  0.6902
   68CHL1  H21B 6192   4.330   0.974   4.121  1.0197  0.0320 -0.6345
   68CHL1  H21C 6193   4.456   0.893   4.212  1.1865  1.1186  0.2514
   68CHL1   C22 6194   4.265   0.767   4.403  0.3519 -0.4717  0.5726
   68CHL1  H22A 6195   4.164   0.738   4.439 -1.2976  2.2147 -1.5245
   68CHL1  H22B 6196   4.340   0.686   4.396 -0.3075 -1.0414  0.0140
   68CHL1   C23 6197   4.331   0.865   4.504 -1.2806 -0.7695  0.2716
   68CHL1  H23A 6198   4.440   0.861   4.487 -1.1485 -0.0866  0.8839
   68CHL1  H23B 6199   4.297   0.970   4.494 -0.0442 -0.2756  1.0454
   68CHL1   C24 6200   4.314   0.811   4.652  1.0621  0.2886 -0.3138
   68CHL1  H24A 6201   4.206   0.799   4.675  0.9236  0.2493 -0.9669
   68CHL1  H24B 6202   4.364   0.713   4.643 -0.6954 -0.5711 -1.2135
   68CHL1   C25 6203   4.393   0.903   4.751 -0.2884  0.0869 -1.1585
   68CHL1   H25 6204   4.367   0.844   4.841  0.4857  2.2373  0.5511
   68CHL1   C26 6205   4.541   0.904   4.721 -0.6238 -0.3849  0.5096
   68CHL1  H26A 6206   4.608   0.925   4.807  0.5346 -0.0613 -0.4367
   68CHL1  H26B 6207   4.576   0.814   4.667 -0.6237 -0.1458  0.1095
   68CHL1  H26C 6208   4.561   0.990   4.654  1.1583 -0.3551  1.0098
   68CHL1   C27 6209   4.330   1.044   4.774  0.2834 -0.1502  0.2216
   68CHL1  H27A 6210   4.219   1.039   4.779 -0.0142  1.4471 -2.6004
   68CHL1  H27B 6211   4.372   1.079   4.871 -0.2437  0.2860  0.2969
   68CHL1  H27C 6212   4.354   1.116   4.693 -0.3064 -0.7486 -0.4909
   69CHL1    C3 6213   3.409   5.282   3.399 -0.4714 -0.0261  0.5420
   69CHL1    H3 6214   3.460   5.189   3.431  0.8824  0.7403  0.7018
   69CHL1    O3 6215   3.388   5.295   3.258 -0.3497  0.5876  0.4822
   69CHL1   H3' 6216   3.323   5.228   3.236 -0.7227  1.2520 -0.4690
   69CHL1    C4 6217   3.277   5.292   3.467  0.3060 -0.2639  0.7876
   69CHL1   H4A 6218   3.232   5.384   3.424  2.5844 -0.3811 -2.1837
   69CHL1   H4B 6219   3.211   5.214   3.426 -1.5452  1.3291  0.6002
   69CHL1    C5 6220   3.295   5.290   3.616 -0.7124 -0.5990  0.6997
   69CHL1    C6 6221   3.231   5.199   3.688 -0.2042  0.2992  1.5277
   69CHL1    H6 6222   3.156   5.142   3.632  0.9905 -0.2315  0.3908
   69CHL1    C7 6223   3.241   5.198   3.840  0.1023  0.0467  0.0354
   69CHL1   H7A 6224   3.136   5.208   3.877 -0.8248 -1.0425 -2.0800
   69CHL1   H7B 6225   3.280   5.097   3.864 -1.9719 -1.5122 -2.5130
   69CHL1    C8 6226   3.317   5.316   3.906 -0.1396 -0.4642 -1.1012
   69CHL1    H8 6227   3.245   5.399   3.893 -0.6966 -0.8572 -0.5726
   69CHL1   C14 6228   3.354   5.284   4.053  0.2670  0.4050  0.1195
   69CHL1   H14 6229   3.435   5.207   4.060  0.9903  1.1149 -0.2978
   69CHL1   C15 6230   3.242   5.233   4.142 -0.1525  0.4419 -0.0923
   69CHL1  H15A 6231   3.144   5.286   4.134  0.1724  1.1495  0.4812
   69CHL1  H15B 6232   3.235   5.122   4.141  0.2035  0.4217 -0.6843
   69CHL1   C16 6233   3.296   5.275   4.277 -0.2501 -0.3712 -0.2168
   69CHL1  H16A 6234   3.229   5.348   4.327  0.7019 -0.6251  1.5139
   69CHL1  H16B 6235   3.307   5.185   4.340 -3.2330 -0.5115  0.2474
   69CHL1   C17 6236   3.425   5.362   4.262 -0.0694 -0.1258  0.3808
   69CHL1   H17 6237   3.508   5.288   4.261 -0.3249 -0.4146  0.0170
   69CHL1   C13 6238   3.417   5.406   4.116  0.1656 -0.0808 -0.3654
   69CHL1   C18 6239   3.322   5.526   4.117  0.2172 -0.7816  0.2103
   69CHL1  H18A 6240   3.289   5.558   4.015 -1.5582 -0.9386  0.7033
   69CHL1  H18B 6241   3.227   5.509   4.172 -1.1777  0.6138 -1.6246
   69CHL1  H18C 6242   3.375   5.618   4.149 -2.4043  1.9938 -2.7209
   69CHL1   C12 6243   3.552   5.431   4.044  0.1512 -0.0548 -0.3209
   69CHL1  H12A 6244   3.598   5.519   4.092  1.0231 -1.4629  1.5580
   69CHL1  H12B 6245   3.623   5.346   4.046 -0.2972 -0.4198  1.1292
   69CHL1   C11 6246   3.525   5.459   3.895  0.7255 -0.2904  0.1544
   69CHL1  H11A 6247   3.478   5.560   3.896 -0.1066 -0.6669 -0.1396
   69CHL1  H11B 6248   3.625   5.475   3.849 -0.3263  1.6219 -1.6585
   69CHL1    C9 6249   3.439   5.358   3.820 -0.5049  0.0725 -0.5884
   69CHL1    H9 6250   3.503   5.268   3.808  0.4661  0.0269  3.4524
   69CHL1   C10 6251   3.393   5.396   3.673 -0.1152  0.3750  0.2242
   69CHL1   C19 6252   3.322   5.530   3.664  0.4719 -0.2681  0.5686
   69CHL1  H19A 6253   3.384   5.612   3.705 -0.9659  0.7806  0.7351
   69CHL1  H19B 6254   3.317   5.566   3.559 -1.2350 -0.8324  0.4181
   69CHL1  H19C 6255   3.228   5.545   3.722  1.6118  3.1225  1.7785
   69CHL1    C1 6256   3.521   5.413   3.585 -0.1133  1.2858 -0.4793
   69CHL1   H1A 6257   3.589   5.498   3.608  1.2753  0.2977 -0.7882
   69CHL1   H1B 6258   3.580   5.322   3.611 -2.6973 -0.5898 -0.7181
   69CHL1    C2 6259   3.506   5.394   3.434  0.5980  0.4797  0.4175
   69CHL1   H2A 6260   3.610   5.378   3.398  0.7531  3.1702 -0.5541
   69CHL1   H2B 6261   3.461   5.486   3.393  0.8577  0.2160 -0.4930
   69CHL1   C20 6262   3.446   5.461   4.375  0.4950 -0.3893 -0.8545
   69CHL1   H20 6263   3.370   5.542   4.369  0.9988  0.0075 -2.8058
   69CHL1   C21 6264   3.584   5.528   4.363 -0.4590  0.2811 -0.2895
   69CHL1  H21A 6265   3.592   5.603   4.445  0.6029  0.4265 -0.5140
   69CHL1  H21B 6266   3.590   5.594   4.274  1.4734  1.0558  0.3852
   69CHL1  H21C 6267   3.670   5.458   4.363 -0.1963  0.5239 -2.5594
   69CHL1   C22 6268   3.436   5.386   4.512 -0.1810 -0.1255  0.2483
   69CHL1  H22A 6269   3.449   5.459   4.594  0.9952 -0.6789  0.5801
   69CHL1  H22B 6270   3.340   5.332   4.527  1.0351 -1.6250  3.3649
   69CHL1   C23 6271   3.551   5.291   4.541  0.5638  0.4497  0.4503
   69CHL1  H23A 6272   3.560   5.223   4.454 -0.8388 -1.3369  1.6218
   69CHL1  H23B 6273   3.648   5.345   4.547  0.7471  0.4472 -1.8991
   69CHL1   C24 6274   3.531   5.206   4.668  0.1364  0.4738  0.1643
   69CHL1  H24A 6275   3.439   5.142   4.665  0.5709 -0.1371 -0.2563
   69CHL1  H24B 6276   3.619   5.139   4.676  0.7024  1.1677 -0.1770
   69CHL1   C25 6277   3.505   5.274   4.807 -0.2220  0.1735  0.0093
   69CHL1   H25 6278   3.410   5.330   4.801 -0.8464 -0.8405  0.0798
   69CHL1   C26 6279   3.508   5.173   4.921  0.3473 -0.0103  0.1964
   69CHL1  H26A 6280   3.428   5.098   4.903  0.1907  0.4429 -1.0584
   69CHL1  H26B 6281   3.603   5.116   4.919 -0.5167 -1.5114 -0.1283
   69CHL1  H26C 6282   3.500   5.223   5.020  0.3650  0.5982 -0.1061
   69CHL1   C27 6283   3.602   5.386   4.834  0.7005  0.8528 -0.1407
   69CHL1  H27A 6284   3.592   5.418   4.939  0.1911  0.3241 -0.0200
   69CHL1  H27B 6285   3.705   5.347   4.818 -0.5359 -1.8496 -2.4246
   69CHL1  H27C 6286   3.589   5.472   4.765 -1.9694 -0.6511 -1.7120
   70CHL1    C3 6287   4.678   0.795   3.559  0.8120  0.3066 -1.1573
   70CHL1    H3 6288   4.736   0.702   3.540 -2.0439 -1.2184 -3.1903
   70CHL1    O3 6289   4.621   0.823   3.434 -0.5188 -0.7233 -0.3084
   70CHL1   H3' 6290   4.624   0.741   3.384 -0.6039 -0.2812 -1.0546
   70CHL1    C4 6291   4.564   0.743   3.660  0.3719 -0.2802  0.3672
   70CHL1   H4A 6292   4.477   0.813   3.658  1.0457  0.5684  0.2800
   70CHL1   H4B 6293   4.533   0.647   3.613  0.2049 -0.2128  0.3374
   70CHL1    C5 6294   4.617   0.722   3.800 -0.6816  0.3413 -0.0787
   70CHL1    C6 6295   4.588   0.611   3.871  0.8380 -0.1349  1.1051
   70CHL1    H6 6296   4.531   0.537   3.813  2.3701 -1.6912  1.4945
   70CHL1    C7 6297   4.637   0.580   4.006  0.1827  0.3828 -0.5627
   70CHL1   H7A 6298   4.558   0.525   4.061  2.6552 -2.0886  0.7138
   70CHL1   H7B 6299   4.724   0.512   4.014 -0.3062 -0.3515 -1.3381
   70CHL1    C8 6300   4.681   0.705   4.076  0.3790  0.1555 -0.1305
   70CHL1    H8 6301   4.589   0.761   4.102 -0.2473 -0.2059 -1.4813
   70CHL1   C14 6302   4.744   0.669   4.205 -0.1182 -0.1944  0.2132
   70CHL1   H14 6303   4.814   0.587   4.177  0.2714  0.3012 -0.2941
   70CHL1   C15 6304   4.654   0.616   4.321 -0.1286 -0.1354 -0.6637
   70CHL1  H15A 6305   4.580   0.694   4.349  1.7511  1.8489 -0.9602
   70CHL1  H15B 6306   4.627   0.516   4.280 -0.9092  0.3272 -1.3128
   70CHL1   C16 6307   4.747   0.615   4.442 -0.1487 -0.7119 -0.6246
   70CHL1  H16A 6308   4.704   0.649   4.539  2.0768  1.9276 -0.4302
   70CHL1  H16B 6309   4.778   0.509   4.454 -1.6925 -1.0636  0.5531
   70CHL1   C17 6310   4.871   0.701   4.400  0.4223  0.5278 -0.4769
   70CHL1   H17 6311   4.951   0.635   4.358  0.9017  1.1147 -0.5118
   70CHL1   C13 6312   4.825   0.777   4.276  0.1145 -0.2608  0.2270
   70CHL1   C18 6313   4.735   0.891   4.309  0.4263 -0.0000  0.2543
   70CHL1  H18A 6314   4.667   0.880   4.396  0.2500  0.8143  0.2274
   70CHL1  H18B 6315   4.793   0.985   4.322  1.1116 -0.2475 -0.8276
   70CHL1  H18C 6316   4.669   0.922   4.226 -0.0138  0.6937  0.8481
   70CHL1   C12 6317   4.935   0.819   4.176 -0.2976  0.0800 -0.1195
   70CHL1  H12A 6318   5.000   0.889   4.232 -1.3503 -0.3907  1.7956
   70CHL1  H12B 6319   5.003   0.737   4.145  0.3926  0.8652 -0.7313
   70CHL1   C11 6320   4.875   0.889   4.052  0.2137 -0.1239 -0.5551
   70CHL1  H11A 6321   4.821   0.984   4.073 -1.5543 -0.8212 -1.6691
   70CHL1  H11B 6322   4.967   0.906   3.993  0.7437  0.8277  0.5056
   70CHL1    C9 6323   4.777   0.788   3.985  0.0829  0.0381  0.3630
   70CHL1    H9 6324   4.848   0.707   3.960 -0.3966 -0.4603  0.6066
   70CHL1   C10 6325   4.708   0.839   3.853  0.4944 -0.7726  0.6363
   70CHL1   C19 6326   4.606   0.951   3.895  0.1652 -0.0264 -0.5779
   70CHL1  H19A 6327   4.559   0.984   3.800 -0.3236 -1.8642 -1.0127
   70CHL1  H19B 6328   4.522   0.926   3.965 -1.3535  1.2492 -1.8706
   70CHL1  H19C 6329   4.658   1.034   3.947 -0.6452 -0.4673  1.0108
   70CHL1    C1 6330   4.809   0.897   3.750  0.0651 -0.0739  0.0497
   70CHL1   H1A 6331   4.844   0.998   3.778  0.8668 -0.2165 -0.4131
   70CHL1   H1B 6332   4.892   0.823   3.742  1.8053  1.9307 -1.2823
   70CHL1    C2 6333   4.751   0.913   3.607  0.9768  0.3794 -0.2338
   70CHL1   H2A 6334   4.828   0.952   3.536  1.3949 -0.0038  0.0045
   70CHL1   H2B 6335   4.683   1.000   3.618 -0.4726 -0.7108 -0.2209
   70CHL1   C20 6336   4.922   0.765   4.520  0.5855 -0.8472 -0.1841
   70CHL1   H20 6337   4.834   0.823   4.555 -1.5078 -3.7606 -0.3151
   70CHL1   C21 6338   5.035   0.864   4.485  0.0025  0.3491 -0.8336
   70CHL1  H21A 6339   5.113   0.805   4.432  0.2849 -0.9928  0.9773
   70CHL1  H21B 6340   5.085   0.899   4.578 -0.4365  2.4224 -1.3374
   70CHL1  H21C 6341   4.987   0.952   4.437 -0.8068  1.0826  1.2130
   70CHL1   C22 6342   4.963   0.667   4.633  0.1809  0.1047 -0.2910
   70CHL1  H22A 6343   4.996   0.732   4.717 -0.6609 -0.0518  0.1742
   70CHL1  H22B 6344   4.870   0.621   4.674 -0.1041  1.0648  0.1683
   70CHL1   C23 6345   5.071   0.563   4.580  0.2069  0.2123 -0.3415
   70CHL1  H23A 6346   5.014   0.506   4.504 -0.7165 -0.2097  0.6364
   70CHL1  H23B 6347   5.163   0.608   4.538  0.1662  0.2003 -0.4445
   70CHL1   C24 6348   5.127   0.458   4.683 -0.3466  0.2357  0.2340
   70CHL1  H24A 6349   5.031   0.412   4.712 -0.2251  0.5744  1.1898
   70CHL1  H24B 6350   5.189   0.386   4.625 -2.6772 -2.5044  0.9468
   70CHL1   C25 6351   5.201   0.517   4.807  0.7323 -0.9182 -0.1316
   70CHL1   H25 6352   5.146   0.613   4.819 -0.6951 -1.2930 -2.8162
   70CHL1   C26 6353   5.190   0.427   4.939  0.3650 -0.0729 -0.1071
   70CHL1  H26A 6354   5.250   0.452   5.029 -1.4882 -0.4183  1.2832
   70CHL1  H26B 6355   5.082   0.428   4.963  0.5213 -2.2756  0.9655
   70CHL1  H26C 6356   5.217   0.324   4.904  1.4180  0.0856  0.1956
   70CHL1   C27 6357   5.349   0.531   4.776  0.7950  0.2810  0.0701
   70CHL1  H27A 6358   5.373   0.554   4.670  1.0210 -1.7445 -0.3690
   70CHL1  H27B 6359   5.406   0.602   4.839  2.4243 -0.5353 -0.3967
   70CHL1  H27C 6360   5.402   0.433   4.781 -0.3110 -0.4084 -1.0256
   71CHL1    C3 6361   2.962   0.692   3.107  0.2448 -0.1380  0.0640
   71CHL1    H3 6362   3.060   0.743   3.118 -0.9802  2.0783  1.3978
   71CHL1    O3 6363   2.922   0.685   2.969 -0.2639 -0.4640  0.4277
   71CHL1   H3' 6364   2.981   0.735   2.912  1.0784 -0.3461  1.8463
   71CHL1    C4 6365   2.968   0.549   3.160  0.1444 -0.1768  0.3149
   71CHL1   H4A 6366   2.875   0.498   3.125 -2.5852  3.3618  1.7409
   71CHL1   H4B 6367   3.057   0.509   3.107  0.8156 -1.1123  2.0655
   71CHL1    C5 6368   2.998   0.542   3.304 -0.1457  0.4729  0.5138
   71CHL1    C6 6369   3.109   0.480   3.350 -0.4421  0.0575 -0.3880
   71CHL1    H6 6370   3.170   0.421   3.280 -1.5432 -1.2437 -0.3141
   71CHL1    C7 6371   3.141   0.478   3.497  0.2068 -0.2479 -0.4728
   71CHL1   H7A 6372   3.177   0.380   3.536  0.5332 -0.2073 -0.6696
   71CHL1   H7B 6373   3.220   0.554   3.513 -0.3132  0.1079  0.4818
   71CHL1    C8 6374   3.018   0.522   3.586  0.0616  1.8149 -0.6969
   71CHL1    H8 6375   2.959   0.428   3.581  3.6485 -1.0574  3.3164
   71CHL1   C14 6376   3.064   0.529   3.733  0.3199  0.3986 -0.4209
   71CHL1   H14 6377   3.147   0.602   3.724  0.0047  0.6205 -1.6785
   71CHL1   C15 6378   3.136   0.410   3.801  0.0703  0.7551 -0.7047
   71CHL1  H15A 6379   3.078   0.315   3.795 -0.2438  0.9013 -0.0415
   71CHL1  H15B 6380   3.239   0.389   3.766 -0.1057 -0.2833 -0.6432
   71CHL1   C16 6381   3.138   0.450   3.949  0.4061 -0.1004 -0.2695
   71CHL1  H16A 6382   3.084   0.373   4.008  0.1135  0.7569  0.6047
   71CHL1  H16B 6383   3.240   0.470   3.989 -0.1327  1.3111  0.4747
   71CHL1   C17 6384   3.052   0.580   3.962 -0.4729  0.0198 -0.3246
   71CHL1   H17 6385   3.119   0.666   3.948 -0.8086  0.2018 -0.8692
   71CHL1   C13 6386   2.961   0.590   3.832 -0.1031 -0.0069 -0.1276
   71CHL1   C18 6387   2.848   0.486   3.846  0.4245 -0.0256 -0.7459
   71CHL1  H18A 6388   2.874   0.385   3.884 -0.8082  0.2762  1.0712
   71CHL1  H18B 6389   2.772   0.526   3.917  1.5706 -2.0448  1.7873
   71CHL1  H18C 6390   2.800   0.472   3.747 -0.8691 -0.9894 -0.0263
   71CHL1   C12 6391   2.916   0.726   3.779  0.1562 -0.0975  0.0262
   71CHL1  H12A 6392   2.838   0.784   3.833  0.0959  0.8169 -0.9985
   71CHL1  H12B 6393   2.997   0.803   3.780 -0.9578  1.1613  2.7327
   71CHL1   C11 6394   2.862   0.720   3.633  0.1002  0.6378 -0.3061
   71CHL1  H11A 6395   2.766   0.668   3.654  0.4975  0.6331  1.6220
   71CHL1  H11B 6396   2.838   0.823   3.601  0.5974  0.0142 -2.9683
   71CHL1    C9 6397   2.962   0.649   3.540 -0.8956  0.7498  0.4750
   71CHL1    H9 6398   3.046   0.721   3.530  0.8687 -1.3858 -1.4368
   71CHL1   C10 6399   2.908   0.629   3.394 -0.1744 -0.1813  0.6667
   71CHL1   C19 6400   2.775   0.556   3.404  0.0539 -0.5880  1.0271
   71CHL1  H19A 6401   2.728   0.536   3.306 -0.6827  0.4797  1.1358
   71CHL1  H19B 6402   2.778   0.460   3.460  1.6498 -1.9388 -1.2293
   71CHL1  H19C 6403   2.699   0.620   3.454 -0.3958  1.3168 -1.8157
   71CHL1    C1 6404   2.891   0.773   3.330  0.3392  0.4970  0.0044
   71CHL1   H1A 6405   2.812   0.826   3.387 -0.1005 -1.2839  1.1252
   71CHL1   H1B 6406   2.988   0.823   3.350  0.9784 -0.3173 -0.9732
   71CHL1    C2 6407   2.851   0.767   3.187  0.0220  0.5770  0.3772
   71CHL1   H2A 6408   2.848   0.869   3.142 -0.2324  0.4812  0.1772
   71CHL1   H2B 6409   2.758   0.713   3.163  1.1812 -1.5164  0.4081
   71CHL1   C20 6410   2.996   0.600   4.101  0.0304  0.0316  0.5022
   71CHL1   H20 6411   2.894   0.561   4.118 -0.1833  0.3460 -0.0325
   71CHL1   C21 6412   2.978   0.752   4.123  0.8011  0.4973  0.0318
   71CHL1  H21A 6413   2.917   0.778   4.212 -1.7956  2.6791 -2.2010
   71CHL1  H21B 6414   2.921   0.787   4.034  2.0351  1.3435 -0.4524
   71CHL1  H21C 6415   3.078   0.800   4.131  0.2986  1.3731  1.2686
   71CHL1   C22 6416   3.088   0.550   4.214 -0.1988 -0.7258 -0.3523
   71CHL1  H22A 6417   3.118   0.444   4.198  0.3893 -0.3558 -1.9120
   71CHL1  H22B 6418   3.184   0.604   4.206 -0.4528  0.2015  2.1016
   71CHL1   C23 6419   3.030   0.571   4.361 -0.2956 -0.1220  0.6152
   71CHL1  H23A 6420   3.022   0.676   4.397 -1.4017 -0.5227  1.5883
   71CHL1  H23B 6421   2.931   0.522   4.363  0.1757 -1.0900  1.6359
   71CHL1   C24 6422   3.118   0.485   4.461  0.2161 -0.1403 -0.3382
   71CHL1  H24A 6423   3.094   0.381   4.430 -1.9900  0.7689 -1.9633
   71CHL1  H24B 6424   3.227   0.500   4.446  0.4393 -0.1853  1.0818
   71CHL1   C25 6425   3.080   0.496   4.605  0.2700  0.8649 -0.2535
   71CHL1   H25 6426   2.969   0.492   4.603  0.2744 -2.8045 -2.8049
   71CHL1   C26 6427   3.119   0.358   4.663 -0.2301 -0.0976 -0.0104
   71CHL1  H26A 6428   3.039   0.282   4.659  2.3472 -3.2068  2.4839
   71CHL1  H26B 6429   3.204   0.315   4.606 -0.8769  0.5352 -1.5175
   71CHL1  H26C 6430   3.150   0.372   4.769 -0.7605  0.0645  0.1252
   71CHL1   C27 6431   3.131   0.623   4.681  0.4066 -0.5200  0.5873
   71CHL1  H27A 6432   3.241   0.629   4.697  0.2110  2.8263  1.4469
   71CHL1  H27B 6433   3.093   0.712   4.627 -0.3711 -1.4818 -0.4738
   71CHL1  H27C 6434   3.091   0.629   4.785  2.5872  0.5220  1.4341
   72CHL1    C3 6435   1.906   5.881   3.268 -1.5018 -0.0498  0.3675
   72CHL1    H3 6436   1.915   5.991   3.268 -0.2843 -0.0912 -1.6482
   72CHL1    O3 6437   1.912   5.845   3.132 -0.4561  0.0574  0.2189
   72CHL1   H3' 6438   1.878   5.755   3.137 -0.7796  0.2187  1.2230
   72CHL1    C4 6439   2.035   5.828   3.343  0.3539  0.1730 -0.0384
   72CHL1   H4A 6440   2.032   5.718   3.325 -0.9114  0.0256  0.9449
   72CHL1   H4B 6441   2.123   5.872   3.291  1.2550 -0.2919  1.0512
   72CHL1    C5 6442   2.036   5.843   3.486 -0.2626  1.0352  0.7477
   72CHL1    C6 6443   2.144   5.887   3.558  0.3428  0.7313 -1.0362
   72CHL1    H6 6444   2.237   5.904   3.503  1.4704 -0.0175  0.5560
   72CHL1    C7 6445   2.150   5.895   3.706 -0.6670 -0.5689  0.1095
   72CHL1   H7A 6446   2.251   5.864   3.740  0.2542  0.6518 -1.3572
   72CHL1   H7B 6447   2.151   6.004   3.728 -0.1390 -0.4391 -0.5379
   72CHL1    C8 6448   2.042   5.820   3.782 -0.8680  0.3428 -0.0264
   72CHL1    H8 6449   2.074   5.713   3.785 -0.6683  0.4102  0.2498
   72CHL1   C14 6450   2.041   5.870   3.929 -0.4048  0.4129  0.5290
   72CHL1   H14 6451   1.997   5.971   3.921 -0.4319  0.3071 -0.8993
   72CHL1   C15 6452   2.169   5.875   4.009 -0.3343 -0.1926 -0.5064
   72CHL1  H15A 6453   2.241   5.794   3.984 -1.1332 -1.4367  1.0860
   72CHL1  H15B 6454   2.221   5.971   3.987  0.6139 -0.4688  0.4298
   72CHL1   C16 6455   2.114   5.877   4.152  0.4981  0.2089  0.3296
   72CHL1  H16A 6456   2.145   5.782   4.202 -0.9076  0.7868  2.4355
   72CHL1  H16B 6457   2.150   5.966   4.207 -0.2214  0.1368  0.9334
   72CHL1   C17 6458   1.958   5.881   4.137 -0.0329 -0.1097  0.6128
   72CHL1   H17 6459   1.928   5.987   4.124  1.5848  0.4900  1.4292
   72CHL1   C13 6460   1.931   5.803   4.009 -0.2315  0.1631 -0.5222
   72CHL1   C18 6461   1.954   5.651   4.045 -0.4919 -0.7196  0.4551
   72CHL1  H18A 6462   2.053   5.635   4.092  0.2506 -0.4288 -0.9530
   72CHL1  H18B 6463   1.876   5.614   4.115  2.0114  0.0777  3.8934
   72CHL1  H18C 6464   1.944   5.590   3.953  2.5298  2.9698 -2.6592
   72CHL1   C12 6465   1.798   5.830   3.937 -0.7894  0.4483  0.2446
   72CHL1  H12A 6466   1.713   5.792   3.998 -0.5882  1.9469  1.5371
   72CHL1  H12B 6467   1.786   5.939   3.923  0.1310  0.7258  1.4057
   72CHL1   C11 6468   1.797   5.778   3.795 -0.1138  0.0880  0.3047
   72CHL1  H11A 6469   1.803   5.667   3.805 -0.7301  0.0351  0.1364
   72CHL1  H11B 6470   1.701   5.810   3.749 -1.3540  0.2758  2.8522
   72CHL1    C9 6471   1.907   5.838   3.712  0.0368  0.0906 -0.6358
   72CHL1    H9 6472   1.903   5.949   3.718  1.0555  0.2275 -1.9627
   72CHL1   C10 6473   1.910   5.799   3.558  0.0220 -0.0914 -0.5458
   72CHL1   C19 6474   1.913   5.641   3.554  0.2778  0.1219 -0.3666
   72CHL1  H19A 6475   2.004   5.603   3.606  0.0331  0.5010  0.3464
   72CHL1  H19B 6476   1.823   5.602   3.605  1.1944  0.7281  1.8681
   72CHL1  H19C 6477   1.911   5.606   3.449  1.5067  1.2063 -0.7769
   72CHL1    C1 6478   1.780   5.851   3.482 -0.3737  0.1928 -0.4072
   72CHL1   H1A 6479   1.696   5.803   3.537 -0.8461  2.4804  1.0093
   72CHL1   H1B 6480   1.777   5.962   3.493 -1.1294  0.1199  0.2278
   72CHL1    C2 6481   1.783   5.824   3.331  0.8564 -0.2619 -0.2940
   72CHL1   H2A 6482   1.695   5.876   3.286 -1.1742 -2.9177  0.3300
   72CHL1   H2B 6483   1.770   5.716   3.309  2.2319 -0.8002  1.3038
   72CHL1   C20 6484   1.895   5.837   4.271  0.8322 -0.1964 -0.5391
   72CHL1   H20 6485   1.937   5.737   4.293  3.4671  1.1961  1.3246
   72CHL1   C21 6486   1.744   5.831   4.263  0.3058  0.1002  0.0738
   72CHL1  H21A 6487   1.703   5.747   4.203 -4.1577  2.2333 -0.3208
   72CHL1  H21B 6488   1.700   5.924   4.220 -1.0312 -0.3490  0.4179
   72CHL1  H21C 6489   1.685   5.816   4.356 -1.1994  0.4632 -0.7788
   72CHL1   C22 6490   1.945   5.937   4.381  0.1345  0.1187  0.4035
   72CHL1  H22A 6491   2.048   5.905   4.410  0.1682 -0.1458 -0.0018
   72CHL1  H22B 6492   1.949   6.040   4.339  1.0872 -0.7768 -1.8704
   72CHL1   C23 6493   1.871   5.942   4.513  1.1436 -0.3013 -0.1004
   72CHL1  H23A 6494   1.769   5.980   4.491  1.9310  0.7389 -2.2394
   72CHL1  H23B 6495   1.854   5.840   4.554 -3.7181 -0.5342 -2.1074
   72CHL1   C24 6496   1.951   6.020   4.606 -0.0204 -0.0587 -0.2157
   72CHL1  H24A 6497   2.037   5.955   4.631 -0.8679 -1.3173 -0.4694
   72CHL1  H24B 6498   1.991   6.113   4.559 -0.6262  1.3331  1.8508
   72CHL1   C25 6499   1.887   6.054   4.743 -0.6009  0.0904 -0.7707
   72CHL1   H25 6500   1.839   5.961   4.780  0.3193 -0.3258 -0.5810
   72CHL1   C26 6501   2.001   6.093   4.842  0.0151 -0.5730  0.2548
   72CHL1  H26A 6502   1.965   6.130   4.940  1.0699 -0.3444  0.5696
   72CHL1  H26B 6503   2.077   6.012   4.854 -2.0760 -2.6510  0.0035
   72CHL1  H26C 6504   2.055   6.177   4.792 -0.1037 -1.6360 -1.7513
   72CHL1   C27 6505   1.776   6.154   4.746  0.2241  0.0996  0.3741
   72CHL1  H27A 6506   1.799   6.250   4.695 -1.1860  0.8959  1.1792
   72CHL1  H27B 6507   1.693   6.108   4.687 -1.0165  2.4463  0.1752
   72CHL1  H27C 6508   1.744   6.178   4.850 -1.9165  2.1061 -0.6483
   73CHL1    C3 6509   3.506   0.287   3.354  0.1255  0.2808  0.0802
   73CHL1    H3 6510   3.397   0.305   3.364  0.1112  0.3177 -0.1324
   73CHL1    O3 6511   3.513   0.228   3.229  0.2301  0.5812 -0.4519
   73CHL1   H3' 6512   3.514   0.293   3.158  1.6783  1.5722  0.4367
   73CHL1    C4 6513   3.579   0.417   3.349 -0.2409 -0.2661 -0.6704
   73CHL1   H4A 6514   3.681   0.394   3.312 -0.4174  2.3420 -3.2088
   73CHL1   H4B 6515   3.524   0.470   3.268 -2.7157  0.0512  1.0882
   73CHL1    C5 6516   3.565   0.494   3.479  0.3151 -0.1302 -0.2031
   73CHL1    C6 6517   3.512   0.616   3.487  0.2704  0.1893  0.1817
   73CHL1    H6 6518   3.473   0.671   3.401  0.6674  2.0739  1.1577
   73CHL1    C7 6519   3.491   0.688   3.617 -0.0883  0.3938 -0.7996
   73CHL1   H7A 6520   3.512   0.797   3.608  1.8910 -0.0274 -2.1835
   73CHL1   H7B 6521   3.384   0.687   3.645  0.4998 -0.8267  1.6969
   73CHL1    C8 6522   3.570   0.623   3.731 -0.0432 -0.5428 -0.4868
   73CHL1    H8 6523   3.673   0.658   3.707 -0.9140  2.6866 -0.0436
   73CHL1   C14 6524   3.516   0.675   3.863  0.0913  0.0324  0.0711
   73CHL1   H14 6525   3.414   0.631   3.862  0.2636 -0.4055 -1.2765
   73CHL1   C15 6526   3.502   0.830   3.877 -0.1736  0.2001  0.0162
   73CHL1  H15A 6527   3.596   0.871   3.834 -1.3110  2.2238 -0.6569
   73CHL1  H15B 6528   3.425   0.882   3.817  0.1091 -0.4265 -0.9054
   73CHL1   C16 6529   3.492   0.853   4.031 -0.8847  0.8920 -0.0079
   73CHL1  H16A 6530   3.570   0.927   4.058  1.1081 -0.6899 -1.1454
   73CHL1  H16B 6531   3.390   0.892   4.050 -2.0847 -1.6818 -0.7359
   73CHL1   C17 6532   3.510   0.711   4.087  0.0626  0.8448 -0.3297
   73CHL1   H17 6533   3.409   0.666   4.087 -0.2549  1.4589 -2.3613
   73CHL1   C13 6534   3.589   0.624   3.987  0.0310 -0.3239  0.5306
   73CHL1   C18 6535   3.740   0.670   3.999 -0.0071 -0.1341  0.6832
   73CHL1  H18A 6536   3.779   0.640   3.899  0.6172 -2.7113  1.6177
   73CHL1  H18B 6537   3.742   0.780   4.006 -1.6593  0.2004 -2.2666
   73CHL1  H18C 6538   3.798   0.619   4.079  1.7739 -0.1346 -0.5466
   73CHL1   C12 6539   3.572   0.468   3.988 -0.4168  0.2864  0.2998
   73CHL1  H12A 6540   3.611   0.426   4.083 -2.2888  0.8176  1.3521
   73CHL1  H12B 6541   3.464   0.443   3.990 -0.9199  2.2356  2.6369
   73CHL1   C11 6542   3.638   0.411   3.863  0.0174  0.8613  0.1998
   73CHL1  H11A 6543   3.749   0.423   3.859  0.0105  0.5302 -1.6064
   73CHL1  H11B 6544   3.605   0.305   3.870  0.1615  0.6503 -1.8227
   73CHL1    C9 6545   3.572   0.475   3.735  0.9731  0.1192 -0.0969
   73CHL1    H9 6546   3.465   0.450   3.747  0.9304  0.1865 -0.3389
   73CHL1   C10 6547   3.613   0.413   3.602  0.1814 -0.2653 -0.3940
   73CHL1   C19 6548   3.765   0.396   3.601 -0.2747 -0.0478 -0.6271
   73CHL1  H19A 6549   3.787   0.311   3.669  0.6366  0.3834 -0.3594
   73CHL1  H19B 6550   3.808   0.378   3.501  0.3114  2.1212 -0.8213
   73CHL1  H19C 6551   3.807   0.495   3.631 -2.3065  0.6246  0.2244
   73CHL1    C1 6552   3.557   0.270   3.601  0.2815 -0.4986 -0.0991
   73CHL1   H1A 6553   3.598   0.215   3.689  0.3943  0.3157  0.3695
   73CHL1   H1B 6554   3.449   0.267   3.626  0.3657  0.1729  0.3841
   73CHL1    C2 6555   3.564   0.198   3.467  0.0854  0.1201 -0.1184
   73CHL1   H2A 6556   3.509   0.102   3.474  1.2746 -0.5001  1.2559
   73CHL1   H2B 6557   3.668   0.170   3.440 -0.2478 -1.1453 -0.1359
   73CHL1   C20 6558   3.555   0.694   4.236  0.2997 -0.1986 -0.2591
   73CHL1   H20 6559   3.624   0.608   4.245  1.4411  0.7935  0.7089
   73CHL1   C21 6560   3.433   0.675   4.327  0.0885 -0.1172  0.2964
   73CHL1  H21A 6561   3.381   0.583   4.291 -0.4293  1.2684 -2.8410
   73CHL1  H21B 6562   3.351   0.749   4.317 -0.9370 -1.0821  1.2541
   73CHL1  H21C 6563   3.459   0.657   4.433  0.8126  1.5662  0.4367
   73CHL1   C22 6564   3.630   0.812   4.291 -0.4532  0.1525 -0.3761
   73CHL1  H22A 6565   3.717   0.844   4.230  0.6358  1.3439  1.6671
   73CHL1  H22B 6566   3.557   0.896   4.286 -0.3838  0.1713 -1.3498
   73CHL1   C23 6567   3.678   0.800   4.433  0.6093 -0.0487 -0.0495
   73CHL1  H23A 6568   3.615   0.851   4.508  1.9864  2.1890 -0.3217
   73CHL1  H23B 6569   3.680   0.694   4.466  0.7267  0.5674  2.0328
   73CHL1   C24 6570   3.827   0.849   4.442  0.0170 -0.6439 -0.4045
   73CHL1  H24A 6571   3.860   0.801   4.536  1.4537  1.1792  0.0777
   73CHL1  H24B 6572   3.901   0.802   4.375  1.7008  1.7981 -0.3796
   73CHL1   C25 6573   3.847   1.003   4.444  0.0861 -0.0521 -0.2353
   73CHL1   H25 6574   3.807   1.043   4.348 -0.2429 -0.1799 -0.1529
   73CHL1   C26 6575   3.768   1.081   4.550  0.6807  0.0154  0.6163
   73CHL1  H26A 6576   3.803   1.060   4.653 -1.5654  1.7883  1.8340
   73CHL1  H26B 6577   3.772   1.192   4.541 -0.4367  0.1506  1.4671
   73CHL1  H26C 6578   3.663   1.051   4.532  1.3801 -1.8777 -0.6005
   73CHL1   C27 6579   4.000   1.036   4.448 -0.0295 -0.9544 -1.1873
   73CHL1  H27A 6580   4.023   1.144   4.455 -2.9541 -0.3087  0.0287
   73CHL1  H27B 6581   4.045   1.000   4.543 -0.9886  0.8910  0.0241
   73CHL1  H27C 6582   4.051   0.976   4.370  1.6373 -2.7765  1.1386
   74CHL1    C3 6583   3.926   6.205   3.503 -0.1535  0.4857  0.3687
   74CHL1    H3 6584   4.034   6.202   3.526 -0.1547  0.0813  0.3271
   74CHL1    O3 6585   3.901   6.102   3.411  0.2282 -0.5862 -0.2663
   74CHL1   H3' 6586   3.823   6.133   3.364  0.1506  1.1028  0.8828
   74CHL1    C4 6587   3.837   6.185   3.625 -0.2297  0.4656 -0.5036
   74CHL1   H4A 6588   3.729   6.185   3.600 -0.3239 -1.8227 -0.3400
   74CHL1   H4B 6589   3.857   6.081   3.660  1.2411  0.4953 -1.1944
   74CHL1    C5 6590   3.860   6.290   3.736 -0.0370 -0.1840 -0.1513
   74CHL1    C6 6591   3.906   6.258   3.864  0.2993  0.0459  0.0480
   74CHL1    H6 6592   3.930   6.155   3.893  1.3498 -0.2568 -1.7132
   74CHL1    C7 6593   3.938   6.364   3.968 -0.5485  0.2898 -1.0260
   74CHL1   H7A 6594   3.891   6.327   4.061  0.4118 -1.7534 -1.2893
   74CHL1   H7B 6595   4.049   6.366   3.976 -0.4995 -0.7688 -1.2829
   74CHL1    C8 6596   3.876   6.503   3.941  0.0662  0.1922  0.1401
   74CHL1    H8 6597   3.768   6.508   3.966 -0.7185  0.3133 -2.8565
   74CHL1   C14 6598   3.943   6.606   4.024 -1.1002 -0.5400 -0.1584
   74CHL1   H14 6599   4.050   6.614   3.997 -0.7047  0.8421  1.6397
   74CHL1   C15 6600   3.946   6.582   4.179 -0.2917 -0.4162  0.2279
   74CHL1  H15A 6601   3.843   6.555   4.211 -1.0132 -0.3908 -1.9217
   74CHL1  H15B 6602   4.021   6.504   4.206  0.6007  0.5985  0.7701
   74CHL1   C16 6603   3.961   6.730   4.235 -0.3779  0.4848  0.3203
   74CHL1  H16A 6604   3.873   6.759   4.296  0.7263  1.3978  1.5402
   74CHL1  H16B 6605   4.055   6.738   4.294 -0.6475 -1.6074  1.1100
   74CHL1   C17 6606   3.954   6.828   4.117 -0.9051  0.0187  0.1616
   74CHL1   H17 6607   4.056   6.836   4.074 -0.4221  0.1958  1.2894
   74CHL1   C13 6608   3.882   6.751   4.001  0.5149 -0.0116  0.4592
   74CHL1   C18 6609   3.725   6.750   4.029  0.4018 -0.1002 -0.4331
   74CHL1  H18A 6610   3.679   6.848   4.005  1.3366  1.0557  2.0642
   74CHL1  H18B 6611   3.682   6.682   3.953  1.1640 -1.1541  0.0675
   74CHL1  H18C 6612   3.699   6.721   4.133 -0.7919 -1.5450 -1.1026
   74CHL1   C12 6613   3.918   6.793   3.852 -0.8615  0.4064 -0.0802
   74CHL1  H12A 6614   3.891   6.899   3.837  0.7964  1.1357  1.6908
   74CHL1  H12B 6615   4.027   6.788   3.833 -0.6389  3.0773  0.1955
   74CHL1   C11 6616   3.861   6.691   3.753 -0.2191  1.2364 -0.2263
   74CHL1  H11A 6617   3.750   6.694   3.761 -0.1411  1.2244  1.1684
   74CHL1  H11B 6618   3.889   6.710   3.647  0.3087 -1.6671 -0.6824
   74CHL1    C9 6619   3.895   6.540   3.790  0.0831  0.4136  0.2227
   74CHL1    H9 6620   4.006   6.542   3.781  0.3165 -1.7187  1.8988
   74CHL1   C10 6621   3.837   6.434   3.692  0.0029  0.0472  0.4431
   74CHL1   C19 6622   3.685   6.442   3.686  0.7483  0.0290  0.2715
   74CHL1  H19A 6623   3.638   6.542   3.674 -0.2637 -0.4238  0.3375
   74CHL1  H19B 6624   3.649   6.385   3.597 -0.7600 -1.7012  1.9029
   74CHL1  H19C 6625   3.634   6.392   3.771 -0.1903 -2.2632 -1.5364
   74CHL1    C1 6626   3.894   6.459   3.550 -0.7483  0.5187  0.4032
   74CHL1   H1A 6627   3.836   6.539   3.498 -1.0055 -0.1113 -0.2906
   74CHL1   H1B 6628   3.999   6.492   3.560 -0.4467 -0.2101 -0.2745
   74CHL1    C2 6629   3.888   6.345   3.445  0.4977 -0.7423  0.1148
   74CHL1   H2A 6630   3.961   6.374   3.367  0.0804  3.1806  0.9834
   74CHL1   H2B 6631   3.785   6.334   3.405  0.2679  1.1100  0.1494
   74CHL1   C20 6632   3.914   6.962   4.161 -0.0962 -1.1587 -0.2806
   74CHL1   H20 6633   3.810   6.959   4.200  0.0470 -0.0037  0.2440
   74CHL1   C21 6634   3.906   7.068   4.050 -0.1217  0.1941  0.1446
   74CHL1  H21A 6635   3.881   7.168   4.089 -1.1742  0.4394 -1.0951
   74CHL1  H21B 6636   3.829   7.042   3.975  1.6308  0.8833 -2.0199
   74CHL1  H21C 6637   4.005   7.068   4.000  0.6699 -1.9018  1.5464
   74CHL1   C22 6638   4.002   7.025   4.281 -0.0629 -0.5413  0.3852
   74CHL1  H22A 6639   4.030   6.944   4.352 -1.3714 -1.0471  0.3624
   74CHL1  H22B 6640   4.098   7.063   4.241 -0.6448  2.0503  1.2482
   74CHL1   C23 6641   3.932   7.138   4.354 -0.5887  0.0942 -0.5590
   74CHL1  H23A 6642   3.926   7.226   4.286  0.0872  1.6777  1.3300
   74CHL1  H23B 6643   3.830   7.115   4.391 -0.3707 -0.2639 -0.1772
   74CHL1   C24 6644   4.023   7.174   4.474  0.5399 -0.5993 -0.1623
   74CHL1  H24A 6645   4.039   7.097   4.553  1.0100 -0.1828  0.1547
   74CHL1  H24B 6646   4.122   7.205   4.434  0.0890  1.1565  0.0156
   74CHL1   C25 6647   3.983   7.298   4.554  0.2832 -0.0780 -0.3032
   74CHL1   H25 6648   3.937   7.368   4.481 -1.6901 -0.7099  0.2873
   74CHL1   C26 6649   3.871   7.262   4.649 -0.1005  0.2396  0.3411
   74CHL1  H26A 6650   3.854   7.342   4.725  1.6578  0.2090  0.8111
   74CHL1  H26B 6651   3.782   7.241   4.587  0.8443 -0.8732 -0.6616
   74CHL1  H26C 6652   3.894   7.173   4.711 -1.9889 -0.5945 -0.0728
   74CHL1   C27 6653   4.097   7.358   4.635 -0.0414 -0.0430 -0.8463
   74CHL1  H27A 6654   4.188   7.384   4.578 -0.0687 -0.7774 -1.2293
   74CHL1  H27B 6655   4.066   7.450   4.689 -2.5922 -0.4753 -1.4275
   74CHL1  H27C 6656   4.131   7.293   4.718  0.1052  2.2248  0.9771
   75CHL1    C3 6657   3.451   4.678   3.632 -0.6100 -0.3287 -0.1091
   75CHL1    H3 6658   3.456   4.567   3.636 -2.5703 -0.4676 -0.3333
   75CHL1    O3 6659   3.436   4.710   3.492 -0.1946 -0.0911  0.1612
   75CHL1   H3' 6660   3.354   4.664   3.472  0.0229 -0.6724  0.5867
   75CHL1    C4 6661   3.341   4.728   3.716  0.3856 -0.2865  0.3214
   75CHL1   H4A 6662   3.325   4.833   3.684 -1.3123 -0.5287  0.2864
   75CHL1   H4B 6663   3.239   4.692   3.691  0.2887  0.5982 -0.6489
   75CHL1    C5 6664   3.376   4.720   3.865 -0.3998 -0.0526 -0.0433
   75CHL1    C6 6665   3.296   4.650   3.948  0.1748  0.2337 -0.1909
   75CHL1    H6 6666   3.202   4.606   3.912  0.2364  0.4850 -0.6677
   75CHL1    C7 6667   3.310   4.641   4.097  0.2630 -0.4057 -0.2107
   75CHL1   H7A 6668   3.218   4.666   4.154  1.1118  3.2392 -0.1858
   75CHL1   H7B 6669   3.339   4.540   4.133  0.7234 -0.4983 -0.8191
   75CHL1    C8 6670   3.417   4.743   4.150 -0.0112  0.1478 -0.3742
   75CHL1    H8 6671   3.359   4.836   4.165 -3.0586 -1.6598 -0.1945
   75CHL1   C14 6672   3.473   4.697   4.283  0.0725 -0.3369  0.8248
   75CHL1   H14 6673   3.532   4.604   4.267  0.3439 -0.3878  1.9939
   75CHL1   C15 6674   3.374   4.650   4.393 -0.2179 -0.5460 -0.0543
   75CHL1  H15A 6675   3.278   4.705   4.393  0.5616  0.9307  1.7112
   75CHL1  H15B 6676   3.355   4.542   4.375  0.4790 -0.8176  0.7459
   75CHL1   C16 6677   3.455   4.660   4.529  0.2832  0.0149 -0.1956
   75CHL1  H16A 6678   3.393   4.725   4.594 -1.9452 -0.8316 -1.3500
   75CHL1  H16B 6679   3.478   4.563   4.577 -2.0598  0.0613  1.1417
   75CHL1   C17 6680   3.590   4.726   4.496 -1.1463  0.0598  0.7034
   75CHL1   H17 6681   3.658   4.641   4.472 -1.1779  0.5070 -1.0803
   75CHL1   C13 6682   3.567   4.793   4.356 -0.6413  0.0609 -0.4380
   75CHL1   C18 6683   3.490   4.924   4.389  0.3439  0.3620 -0.2718
   75CHL1  H18A 6684   3.556   4.996   4.441  1.8608 -1.1554 -0.0078
   75CHL1  H18B 6685   3.464   4.977   4.295  1.3414 -1.4489 -1.6353
   75CHL1  H18C 6686   3.396   4.908   4.446  1.2320 -0.3215  1.0667
   75CHL1   C12 6687   3.697   4.807   4.273  1.0732  0.2476  0.0446
   75CHL1  H12A 6688   3.761   4.884   4.319  0.1311  0.6050  0.8056
   75CHL1  H12B 6689   3.744   4.707   4.278 -0.7384 -0.7175 -0.9322
   75CHL1   C11 6690   3.663   4.845   4.125  0.7341 -0.3220  0.9447
   75CHL1  H11A 6691   3.632   4.952   4.121 -1.7773 -1.0146 -0.2379
   75CHL1  H11B 6692   3.753   4.835   4.060  1.1870  0.8371  1.3573
   75CHL1    C9 6693   3.542   4.761   4.060  0.3220  0.6019  0.5950
   75CHL1    H9 6694   3.587   4.660   4.054  0.3290  0.6085  0.5342
   75CHL1   C10 6695   3.508   4.781   3.908 -1.2330 -0.5354  0.9013
   75CHL1   C19 6696   3.503   4.935   3.886  1.0888 -0.0749 -1.0361
   75CHL1  H19A 6697   3.470   4.956   3.782 -0.2889  1.3147 -0.3609
   75CHL1  H19B 6698   3.424   4.962   3.958  1.6029 -0.2116 -0.4119
   75CHL1  H19C 6699   3.598   4.983   3.918  0.4452 -0.9788  2.6543
   75CHL1    C1 6700   3.621   4.723   3.819  0.4100  0.0637  0.7719
   75CHL1   H1A 6701   3.723   4.767   3.830  0.9335 -0.5040 -1.2612
   75CHL1   H1B 6702   3.622   4.611   3.820  0.4336 -0.1224 -2.9562
   75CHL1    C2 6703   3.587   4.745   3.668 -0.2081 -0.1876 -0.0254
   75CHL1   H2A 6704   3.668   4.703   3.604  1.1281  0.4585  1.1706
   75CHL1   H2B 6705   3.578   4.854   3.649  1.4577  0.3270  1.8532
   75CHL1   C20 6706   3.631   4.811   4.622 -0.7652 -0.1345 -0.0749
   75CHL1   H20 6707   3.547   4.880   4.640  1.8594  3.3855 -0.2629
   75CHL1   C21 6708   3.762   4.889   4.595  0.6545  0.4636 -0.1396
   75CHL1  H21A 6709   3.847   4.821   4.571 -1.8194 -3.1748  0.5166
   75CHL1  H21B 6710   3.780   4.957   4.681 -0.6185  0.3829  0.2045
   75CHL1  H21C 6711   3.736   4.963   4.517  0.3477  0.3990 -0.0990
   75CHL1   C22 6712   3.648   4.719   4.743 -0.0876 -0.1715  0.1081
   75CHL1  H22A 6713   3.562   4.654   4.770 -0.1023 -0.4819 -0.6526
   75CHL1  H22B 6714   3.735   4.650   4.731  0.0709  0.3125 -1.9407
   75CHL1   C23 6715   3.693   4.787   4.876 -0.0966 -0.1714 -0.2691
   75CHL1  H23A 6716   3.798   4.823   4.869  0.8155 -1.5603  3.7746
   75CHL1  H23B 6717   3.625   4.873   4.897  3.2232  2.2292  1.5283
   75CHL1   C24 6718   3.702   4.693   5.003  0.5587 -0.0479  0.5107
   75CHL1  H24A 6719   3.604   4.643   5.021  0.4679 -0.1169 -0.1222
   75CHL1  H24B 6720   3.775   4.613   4.978  0.3483  0.5229 -2.3440
   75CHL1   C25 6721   3.737   4.757   5.136  0.6388  0.2674 -0.6642
   75CHL1   H25 6722   3.742   4.680   5.216 -1.2077  1.6040  0.8498
   75CHL1   C26 6723   3.875   4.814   5.136  0.4749 -0.5040  0.6830
   75CHL1  H26A 6724   3.896   4.885   5.218 -0.5386  0.6503 -0.0303
   75CHL1  H26B 6725   3.951   4.735   5.116  1.5368  1.0641 -1.9817
   75CHL1  H26C 6726   3.873   4.880   5.047  0.8896  1.0101  1.7570
   75CHL1   C27 6727   3.634   4.868   5.176 -0.0695 -0.9777  0.0085
   75CHL1  H27A 6728   3.537   4.815   5.164 -0.7392  0.4685 -1.3253
   75CHL1  H27B 6729   3.656   4.888   5.284  0.0101 -1.4982  0.0893
   75CHL1  H27C 6730   3.652   4.960   5.117 -0.6142 -1.2197 -0.5449
   76CHL1    C3 6731   1.799   6.265   3.224 -0.5301  0.5009 -0.1805
   76CHL1    H3 6732   1.767   6.161   3.249  1.6140  0.4786  3.1088
   76CHL1    O3 6733   1.768   6.294   3.094 -0.3236  0.1221 -0.0167
   76CHL1   H3' 6734   1.815   6.377   3.080 -0.1670  0.5066  2.4557
   76CHL1    C4 6735   1.726   6.353   3.318  0.3428  0.0548 -0.2853
   76CHL1   H4A 6736   1.738   6.460   3.293 -0.6445  0.3287  0.3508
   76CHL1   H4B 6737   1.616   6.339   3.310 -0.3329  1.4255  3.8504
   76CHL1    C5 6738   1.770   6.323   3.462  0.1469 -0.1581 -0.4194
   76CHL1    C6 6739   1.688   6.276   3.558  0.1518 -0.2782 -0.5077
   76CHL1    H6 6740   1.582   6.284   3.531 -0.3533 -3.0487  0.4219
   76CHL1    C7 6741   1.730   6.253   3.700  0.3567  0.2343  0.4112
   76CHL1   H7A 6742   1.652   6.282   3.773  1.6830  0.8376  1.6542
   76CHL1   H7B 6743   1.743   6.142   3.697  0.5649  0.2687 -2.6182
   76CHL1    C8 6744   1.867   6.320   3.735  0.3745  0.0295 -0.2643
   76CHL1    H8 6745   1.848   6.430   3.741 -3.2683 -0.2706 -3.0618
   76CHL1   C14 6746   1.924   6.280   3.869  0.1031 -0.1071  0.3745
   76CHL1   H14 6747   1.936   6.170   3.853  1.5186  0.2496 -1.4653
   76CHL1   C15 6748   1.828   6.292   3.985 -0.4320 -1.2559  0.7757
   76CHL1  H15A 6749   1.795   6.398   3.982  0.3841 -1.0124 -0.9340
   76CHL1  H15B 6750   1.742   6.222   3.983 -0.2749 -1.4526  0.8756
   76CHL1   C16 6751   1.929   6.284   4.104  0.4500 -0.5264  0.5065
   76CHL1  H16A 6752   1.933   6.384   4.152  1.4105 -0.4101  0.2037
   76CHL1  H16B 6753   1.898   6.213   4.184 -1.7722  0.4594  0.6062
   76CHL1   C17 6754   2.076   6.276   4.039 -0.3142  0.4592  0.1661
   76CHL1   H17 6755   2.084   6.167   4.021 -0.8719  0.6495 -1.3659
   76CHL1   C13 6756   2.057   6.341   3.903 -0.4190 -0.7154  0.0800
   76CHL1   C18 6757   2.049   6.493   3.923 -0.8300  0.5391 -0.0389
   76CHL1  H18A 6758   2.151   6.529   3.948 -1.0142  0.3274  1.0748
   76CHL1  H18B 6759   2.012   6.545   3.832 -2.9092 -0.2758  0.2943
   76CHL1  H18C 6760   1.984   6.524   4.007  0.5005  0.5237  1.0167
   76CHL1   C12 6761   2.171   6.310   3.800 -0.2185 -0.4225 -0.0635
   76CHL1  H12A 6762   2.260   6.371   3.826 -1.6790  0.9864  1.9693
   76CHL1  H12B 6763   2.203   6.205   3.815 -3.5105 -1.2593  2.1608
   76CHL1   C11 6764   2.125   6.340   3.659 -0.1833 -0.3567 -0.3901
   76CHL1  H11A 6765   2.126   6.451   3.657  1.2619 -0.3452 -0.2433
   76CHL1  H11B 6766   2.206   6.310   3.589 -1.7815 -0.6496 -2.2189
   76CHL1    C9 6767   1.978   6.298   3.632  0.1172  0.4256  0.1788
   76CHL1    H9 6768   1.988   6.188   3.621 -0.2842  0.2607  1.3763
   76CHL1   C10 6769   1.920   6.352   3.493  0.2309  1.0590  0.6986
   76CHL1   C19 6770   1.954   6.496   3.463  0.3243 -0.2536 -0.1533
   76CHL1  H19A 6771   1.938   6.564   3.550 -0.6739 -0.7867  0.0832
   76CHL1  H19B 6772   2.060   6.501   3.430  0.6880 -1.4654  0.7818
   76CHL1  H19C 6773   1.888   6.544   3.388  0.2377  0.7687  0.5497
   76CHL1    C1 6774   1.993   6.258   3.387  0.2188  0.1442 -1.0009
   76CHL1   H1A 6775   2.102   6.273   3.401 -0.4227  2.5885  3.5486
   76CHL1   H1B 6776   1.961   6.154   3.412  2.9757 -1.0521 -2.0530
   76CHL1    C2 6777   1.950   6.290   3.239  0.7587  0.4692  0.0192
   76CHL1   H2A 6778   1.993   6.213   3.172 -2.2576 -1.7674  0.4268
   76CHL1   H2B 6779   1.993   6.386   3.206 -0.3019  1.0274  0.2305
   76CHL1   C20 6780   2.178   6.320   4.136  0.1893 -0.4245  0.0398
   76CHL1   H20 6781   2.191   6.430   4.134  1.3138 -0.5524 -0.2906
   76CHL1   C21 6782   2.303   6.248   4.104  0.1780  0.8990  0.4680
   76CHL1  H21A 6783   2.289   6.137   4.099  3.6071  0.3026  1.2692
   76CHL1  H21B 6784   2.379   6.255   4.184  2.2021 -1.8137 -1.0370
   76CHL1  H21C 6785   2.341   6.280   4.005 -0.4654 -3.5409 -1.4832
   76CHL1   C22 6786   2.145   6.283   4.286  0.0609  0.6906 -0.2151
   76CHL1  H22A 6787   2.071   6.201   4.295 -0.0734  0.5825 -2.0041
   76CHL1  H22B 6788   2.227   6.237   4.345 -0.7736  0.7428  1.0291
   76CHL1   C23 6789   2.108   6.403   4.369 -0.4715 -1.0226 -0.0059
   76CHL1  H23A 6790   2.192   6.473   4.345 -0.2588 -0.9877  0.7947
   76CHL1  H23B 6791   2.016   6.449   4.326  1.5196  0.4416 -3.0097
   76CHL1   C24 6792   2.107   6.397   4.522  0.0615 -0.3500  0.3121
   76CHL1  H24A 6793   2.029   6.331   4.564  0.1144  0.0579  1.0685
   76CHL1  H24B 6794   2.204   6.358   4.560 -0.0241 -0.5151  0.3617
   76CHL1   C25 6795   2.089   6.527   4.588  0.2767 -0.4409  0.3085
   76CHL1   H25 6796   2.159   6.600   4.543  1.0704 -1.2581  0.1865
   76CHL1   C26 6797   1.949   6.592   4.572  0.1774 -0.3899  0.3886
   76CHL1  H26A 6798   1.928   6.628   4.469 -0.7312  2.2407  1.3945
   76CHL1  H26B 6799   1.870   6.521   4.605  1.0949 -0.3718  2.8267
   76CHL1  H26C 6800   1.936   6.685   4.632  0.4802 -0.5008  0.6281
   76CHL1   C27 6801   2.129   6.514   4.741 -0.7063 -0.6252 -0.8020
   76CHL1  H27A 6802   2.094   6.423   4.793 -1.8679 -1.3946 -2.8082
   76CHL1  H27B 6803   2.238   6.500   4.757 -0.6727  0.4556  0.0575
   76CHL1  H27C 6804   2.114   6.610   4.795 -2.3735 -0.8437 -0.8313
   77SOPE     N 6805   2.902   5.909   7.242  0.3502  0.0477  0.8934
   77SOPE   HN1 6806   2.829   5.928   7.314  0.3613  1.3407  0.5901
   77SOPE   HN2 6807   2.920   5.807   7.242 -0.5320 -0.2021 -2.0200
   77SOPE   HN3 6808   2.986   5.968   7.260 -0.1782  0.6540  1.4173
   77SOPE   C12 6809   2.841   5.956   7.111  0.3413 -0.7220 -0.0641
   77SOPE  H12A 6810   2.747   5.896   7.101 -1.3525  1.6223  0.8585
   77SOPE  H12B 6811   2.907   5.921   7.029 -0.1023 -3.2038  0.5416
   77SOPE   C11 6812   2.802   6.107   7.101 -0.0928 -0.4499 -0.0028
   77SOPE  H11A 6813   2.775   6.133   6.996 -2.4556 -1.5575  0.2721
   77SOPE  H11B 6814   2.891   6.164   7.136 -0.3991 -0.6338  1.0942
   77SOPE     P 6815   2.681   6.216   7.300 -0.2890 -0.4290  0.0376
   77SOPE   O13 6816   2.719   6.142   7.425 -0.7147 -0.2109 -0.2886
   77SOPE   O14 6817   2.551   6.291   7.311  0.5794  0.2648  0.6652
   77SOPE   O12 6818   2.685   6.123   7.174 -0.6163 -0.2481  0.7462
   77SOPE   O11 6819   2.795   6.321   7.272 -0.0302 -0.5057  0.4618
   77SOPE    C1 6820   2.779   6.463   7.262  0.5792 -0.0283 -0.1196
   77SOPE    HA 6821   2.863   6.505   7.320 -1.0454  0.8417  1.7360
   77SOPE    HB 6822   2.684   6.504   7.303 -0.0890 -1.5296 -0.1047
   77SOPE    C2 6823   2.806   6.516   7.119  0.1343  0.2950 -0.9320
   77SOPE    HS 6824   2.794   6.626   7.117 -0.3553  0.3819  2.1642
   77SOPE   O21 6825   2.708   6.472   7.026  0.2555  0.1337  0.6124
   77SOPE   C21 6826   2.587   6.519   7.030 -0.4706  0.0340  0.5640
   77SOPE   O22 6827   2.544   6.589   7.115 -0.2553  0.6040 -0.0612
   77SOPE   C22 6828   2.512   6.455   6.907 -0.1797  0.5231  0.0525
   77SOPE   H2R 6829   2.593   6.444   6.832  0.1061  0.6715  0.3321
   77SOPE   H2S 6830   2.440   6.531   6.871  0.5346  1.2509  0.1233
   77SOPE    C3 6831   2.947   6.486   7.069 -0.2223 -0.4333  0.3627
   77SOPE    HX 6832   2.946   6.376   7.056 -0.0230 -0.4710  0.6444
   77SOPE    HY 6833   3.018   6.518   7.149  1.0130 -2.5449  0.1877
   77SOPE   O31 6834   2.974   6.558   6.941  0.0338  0.7581 -0.3718
   77SOPE   C31 6835   2.997   6.684   6.956  0.0690 -0.4615  0.3048
   77SOPE   O32 6836   3.006   6.750   7.060  0.6893  0.3922 -0.0478
   77SOPE   C32 6837   3.005   6.751   6.818  0.4379  0.0570  0.1076
   77SOPE   H2X 6838   3.034   6.677   6.741 -0.5732 -1.3376  1.0197
   77SOPE   H2Y 6839   3.089   6.824   6.814  0.1362  0.4206  0.2875
   77SOPE   C23 6840   2.454   6.318   6.945 -0.0105  0.2740 -0.3272
   77SOPE   H3R 6841   2.408   6.332   7.045  0.8349  0.7177  0.0108
   77SOPE   H3S 6842   2.543   6.255   6.970  0.7270  1.6657  0.6780
   77SOPE   C24 6843   2.368   6.238   6.847 -0.0587 -0.3043  0.7025
   77SOPE   H4R 6844   2.311   6.165   6.910 -0.2074 -1.7651 -1.0400
   77SOPE   H4S 6845   2.302   6.310   6.795  0.0272 -0.3796  0.4912
   77SOPE   C25 6846   2.454   6.163   6.741 -0.0039 -0.3937  0.5908
   77SOPE   H5R 6847   2.398   6.159   6.645  0.1388  1.2499  0.4192
   77SOPE   H5S 6848   2.547   6.220   6.719 -1.0308  0.3473 -2.2205
   77SOPE   C26 6849   2.484   6.015   6.792  0.1536 -0.2984  0.0905
   77SOPE   H6R 6850   2.528   6.032   6.892  1.9115  1.7086 -0.9470
   77SOPE   H6S 6851   2.390   5.956   6.782  1.2221 -1.8902 -1.3927
   77SOPE   C27 6852   2.589   5.936   6.706  0.9864 -0.7324 -0.0480
   77SOPE   H7R 6853   2.688   5.986   6.708  0.3496  0.8698 -3.1410
   77SOPE   H7S 6854   2.592   5.834   6.751 -0.0172 -1.4834 -1.5863
   77SOPE   C28 6855   2.566   5.913   6.555  0.2822  0.4735 -0.1341
   77SOPE   H8R 6856   2.632   5.828   6.530  0.0209 -0.0344  0.8563
   77SOPE   H8S 6857   2.460   5.886   6.536 -0.3305  1.6615  1.3376
   77SOPE   C29 6858   2.607   6.034   6.476  0.4759  0.6166  0.3385
   77SOPE   H91 6859   2.685   6.090   6.530  0.4450  0.5552  0.4491
   77SOPE  C210 6860   2.561   6.067   6.357 -0.2434 -0.1816  0.2570
   77SOPE  H101 6861   2.597   6.163   6.317 -1.4276  0.9518  1.7706
   77SOPE  C211 6862   2.472   5.989   6.268  0.0077 -0.0189  0.3520
   77SOPE  H11R 6863   2.386   6.051   6.234  0.3673 -0.1530 -0.8566
   77SOPE  H11S 6864   2.423   5.898   6.308  0.0136 -0.7054 -1.1340
   77SOPE  C212 6865   2.549   5.947   6.140 -0.1514 -0.6727 -0.6002
   77SOPE  H12R 6866   2.640   5.900   6.183  0.4698  3.6731  3.6214
   77SOPE  H12S 6867   2.560   6.044   6.088 -2.6705 -0.0438 -0.0869
   77SOPE  C213 6868   2.470   5.858   6.053  0.5334  0.7913  0.3471
   77SOPE  H13R 6869   2.369   5.903   6.057 -0.0564 -0.5598  1.2565
   77SOPE  H13S 6870   2.458   5.756   6.093 -1.2818 -0.5398 -3.1556
   77SOPE  C214 6871   2.527   5.849   5.913 -0.2760  0.8297 -0.1438
   77SOPE  H14R 6872   2.530   5.945   5.858 -1.4379  0.6253 -0.5934
   77SOPE  H14S 6873   2.469   5.779   5.850 -0.1865  1.3870 -0.8584
   77SOPE  C215 6874   2.677   5.795   5.916  0.0709  0.3643 -0.0495
   77SOPE  H15R 6875   2.679   5.708   5.985  0.9708  1.5167  1.4553
   77SOPE  H15S 6876   2.739   5.871   5.970 -2.2082  1.1598  1.6003
   77SOPE  C216 6877   2.725   5.749   5.771  0.2844 -0.5435 -0.1280
   77SOPE  H16R 6878   2.656   5.680   5.718 -0.9642  1.0642 -0.6458
   77SOPE  H16S 6879   2.811   5.682   5.791 -0.6983 -1.7117  0.2894
   77SOPE  C217 6880   2.727   5.869   5.675  0.0659 -0.0167  0.8267
   77SOPE  H17R 6881   2.781   5.954   5.721  0.3355 -1.0484  2.4803
   77SOPE  H17S 6882   2.619   5.893   5.665 -0.0132  0.0612  1.8602
   77SOPE  C218 6883   2.782   5.843   5.535 -0.1893 -0.0037  0.3890
   77SOPE  H18R 6884   2.803   5.736   5.514  3.0144  0.8221 -1.1255
   77SOPE  H18S 6885   2.884   5.887   5.533 -0.2224  0.0324 -0.4622
   77SOPE  H18T 6886   2.718   5.881   5.453 -1.5756 -0.3808  1.2625
   77SOPE   C33 6887   2.880   6.839   6.781 -0.5536  0.1568  0.6864
   77SOPE   H3X 6888   2.906   6.946   6.791 -0.5568  0.1013  1.3268
   77SOPE   H3Y 6889   2.791   6.832   6.848 -1.2684  2.5900  0.0910
   77SOPE   C34 6890   2.810   6.813   6.650  0.3859  0.9685  0.3797
   77SOPE   H4X 6891   2.714   6.868   6.642  0.0627  0.4175  0.4471
   77SOPE   H4Y 6892   2.777   6.709   6.668  2.7051 -0.1352 -1.2173
   77SOPE   C35 6893   2.886   6.821   6.512  0.3393 -0.0035 -0.5529
   77SOPE   H5X 6894   2.974   6.754   6.523 -0.8313 -1.2699  1.6463
   77SOPE   H5Y 6895   2.910   6.929   6.501 -3.8164  1.3632  1.7252
   77SOPE   C36 6896   2.806   6.769   6.388  0.1094  0.1623 -0.0148
   77SOPE   H6X 6897   2.708   6.819   6.373 -1.6948 -3.0914 -0.1759
   77SOPE   H6Y 6898   2.793   6.662   6.415 -1.0077  0.1635 -0.4991
   77SOPE   C37 6899   2.901   6.780   6.267 -0.5412 -0.6622 -0.1781
   77SOPE   H7X 6900   2.998   6.731   6.288  0.1163  0.6327 -0.1100
   77SOPE   H7Y 6901   2.919   6.889   6.250  0.3961 -0.7528  0.2209
   77SOPE   C38 6902   2.851   6.711   6.140  0.1469  0.1261 -0.2836
   77SOPE   H8X 6903   2.767   6.767   6.093 -0.4513 -1.1483 -0.7695
   77SOPE   H8Y 6904   2.805   6.614   6.170  1.2673 -0.7918 -1.4742
   77SOPE   C39 6905   2.950   6.695   6.025 -0.7475  0.0595 -0.5897
   77SOPE   H9X 6906   3.050   6.674   6.069 -1.1914 -1.5376 -0.2768
   77SOPE   H9Y 6907   2.959   6.799   5.986  0.8289  0.5948  1.0362
   77SOPE  C310 6908   2.915   6.598   5.913 -0.1717 -0.0480 -0.4898
   77SOPE  H10X 6909   2.812   6.619   5.879 -0.6869 -1.5453  0.0860
   77SOPE  H10Y 6910   2.924   6.493   5.947 -0.9144 -0.3904 -1.3116
   77SOPE  C311 6911   3.001   6.631   5.790 -0.0732  0.1420 -0.0603
   77SOPE  H11X 6912   3.106   6.624   5.825 -0.0762  0.8822  0.1133
   77SOPE  H11Y 6913   2.992   6.741   5.776 -0.5192  0.3803  1.8507
   77SOPE  C312 6914   2.967   6.566   5.655 -0.0394  0.2256  0.4730
   77SOPE  H12X 6915   2.869   6.606   5.620 -0.0957  0.5424  0.9747
   77SOPE  H12Y 6916   2.963   6.455   5.661  2.2594  0.0454 -0.4627
   77SOPE  C313 6917   3.064   6.608   5.546  0.1427 -0.6045 -0.6369
   77SOPE  H13X 6918   3.167   6.602   5.588 -0.8053 -0.8409  1.7736
   77SOPE  H13Y 6919   3.053   6.715   5.519  3.7521 -0.3248 -1.5429
   77SOPE  C314 6920   3.051   6.537   5.410  0.6003  0.4515  0.8289
   77SOPE  H14X 6921   2.956   6.566   5.361  1.5139  1.1392 -0.6126
   77SOPE  H14Y 6922   3.058   6.427   5.425  0.1049  0.7041  3.3236
   77SOPE  C315 6923   3.170   6.571   5.318  0.9777 -0.4917  0.3926
   77SOPE  H15X 6924   3.266   6.571   5.372  1.3205  4.0435  0.1472
   77SOPE  H15Y 6925   3.153   6.673   5.277 -3.0523 -1.9594 -2.2145
   77SOPE  C316 6926   3.181   6.475   5.197 -0.0112  0.3337  0.2952
   77SOPE  H16X 6927   3.112   6.493   5.112  1.6520 -1.5521 -1.5698
   77SOPE  H16Y 6928   3.170   6.369   5.227  0.6077  0.4725  1.0470
   77SOPE  C317 6929   3.321   6.488   5.131  0.5721 -0.1310  0.4760
   77SOPE  H17X 6930   3.387   6.448   5.212 -2.4283 -0.6332  2.8816
   77SOPE  H17Y 6931   3.347   6.595   5.127 -0.3025  0.0514 -1.1538
   77SOPE  C318 6932   3.344   6.426   4.994 -0.8253  0.0562 -0.0592
   77SOPE  H18X 6933   3.325   6.316   4.998  1.0965 -0.3211  3.9060
   77SOPE  H18Y 6934   3.449   6.437   4.960 -0.8197 -0.8136 -0.3615
   77SOPE  H18Z 6935   3.278   6.477   4.921  1.1568  2.0160 -0.5514
   78SOPE     N 6936   2.299   6.147   7.385 -0.0052 -0.0208 -0.5583
   78SOPE   HN1 6937   2.229   6.188   7.449 -0.2110  0.3326 -0.9991
   78SOPE   HN2 6938   2.338   6.066   7.437 -1.1325 -0.2643 -0.0642
   78SOPE   HN3 6939   2.373   6.219   7.370  1.2272 -1.4974 -1.9489
   78SOPE   C12 6940   2.235   6.117   7.254  0.0789  0.0084  0.1481
   78SOPE  H12A 6941   2.223   6.006   7.257 -1.5078  0.0096 -2.6307
   78SOPE  H12B 6942   2.304   6.140   7.170 -0.7837 -0.1782 -0.6348
   78SOPE   C11 6943   2.099   6.191   7.233  0.8038  0.2322 -0.1129
   78SOPE  H11A 6944   2.056   6.164   7.134  0.4878  0.3682 -0.0143
   78SOPE  H11B 6945   2.125   6.299   7.237  1.6118  0.0072  1.4516
   78SOPE     P 6946   1.926   6.018   7.340 -0.0867 -0.0100  0.1499
   78SOPE   O13 6947   1.800   6.031   7.416 -0.6331  0.4574  0.1097
   78SOPE   O14 6948   2.015   5.912   7.388 -0.1655 -0.0871  0.2361
   78SOPE   O12 6949   2.007   6.155   7.335 -0.7391  0.2195  0.2349
   78SOPE   O11 6950   1.906   5.978   7.187 -0.0844  0.4058 -0.3093
   78SOPE    C1 6951   1.808   6.038   7.101  1.0048  0.3165  0.1369
   78SOPE    HA 6952   1.820   5.995   7.000 -3.9108 -0.8522 -0.2353
   78SOPE    HB 6953   1.828   6.147   7.091  1.3722  0.2389  0.0225
   78SOPE    C2 6954   1.655   6.000   7.128  0.4927 -0.5656 -0.1019
   78SOPE    HS 6955   1.627   6.017   7.235 -1.5722 -2.2484 -0.3123
   78SOPE   O21 6956   1.628   5.862   7.097  0.4060  0.0213 -0.0220
   78SOPE   C21 6957   1.508   5.818   7.130  0.4952 -0.1965  0.6675
   78SOPE   O22 6958   1.415   5.876   7.188  0.3249  0.4119 -0.1739
   78SOPE   C22 6959   1.497   5.676   7.075  0.3859 -0.5706  0.5274
   78SOPE   H2R 6960   1.458   5.617   7.161  1.6486 -1.5218  0.4741
   78SOPE   H2S 6961   1.597   5.640   7.041 -0.6851 -1.1738 -2.2510
   78SOPE    C3 6962   1.564   6.095   7.049 -0.0089 -0.2978  0.0053
   78SOPE    HX 6963   1.586   6.202   7.067  1.5191 -0.0326 -2.8790
   78SOPE    HY 6964   1.462   6.080   7.091 -0.2131  0.6504 -0.1389
   78SOPE   O31 6965   1.571   6.073   6.906 -0.1164  0.1432  0.2072
   78SOPE   C31 6966   1.463   6.132   6.852 -0.3095  0.5654  0.7745
   78SOPE   O32 6967   1.366   6.163   6.914 -0.0418 -0.0006 -0.0120
   78SOPE   C32 6968   1.489   6.145   6.700 -0.6366 -0.1713  0.4018
   78SOPE   H2X 6969   1.507   6.041   6.665 -0.0826 -0.0874  0.4278
   78SOPE   H2Y 6970   1.575   6.212   6.681 -2.5232  2.5019  0.7682
   78SOPE   C23 6971   1.390   5.672   6.964 -0.2217  0.6519  0.1169
   78SOPE   H3R 6972   1.287   5.702   6.994 -0.4962  0.2992 -0.4553
   78SOPE   H3S 6973   1.386   5.563   6.943  3.7741  0.1658  1.0959
   78SOPE   C24 6974   1.440   5.742   6.840  0.9405 -0.1797  0.1849
   78SOPE   H4R 6975   1.366   5.718   6.760  0.2339 -1.6447  1.2368
   78SOPE   H4S 6976   1.440   5.852   6.852  1.1643  0.0419 -1.5790
   78SOPE   C25 6977   1.581   5.698   6.789 -0.3221  0.1916  0.6306
   78SOPE   H5R 6978   1.659   5.687   6.867 -1.9892 -2.0150  2.1435
   78SOPE   H5S 6979   1.581   5.596   6.744 -1.5137  0.4173  0.0686
   78SOPE   C26 6980   1.648   5.772   6.673  0.1035 -0.1808  0.2170
   78SOPE   H6R 6981   1.640   5.882   6.690  0.8584 -0.1495  0.3930
   78SOPE   H6S 6982   1.757   5.759   6.659 -0.1357 -0.3439 -1.7767
   78SOPE   C27 6983   1.571   5.748   6.532  0.7757  0.6068 -0.6368
   78SOPE   H7R 6984   1.556   5.638   6.527 -0.5494  0.8105 -1.5595
   78SOPE   H7S 6985   1.465   5.780   6.534  0.6079  0.0312  0.5282
   78SOPE   C28 6986   1.645   5.792   6.409  0.3321 -0.2585  0.0893
   78SOPE   H8R 6987   1.627   5.901   6.410 -0.0729 -0.3233 -0.0913
   78SOPE   H8S 6988   1.756   5.783   6.408  0.9336  4.4767 -2.1457
   78SOPE   C29 6989   1.571   5.723   6.292  0.1222 -0.9519 -0.4271
   78SOPE   H91 6990   1.464   5.720   6.315 -0.0521  2.3052 -0.2889
   78SOPE  C210 6991   1.624   5.662   6.188  0.0044  0.8635  0.4104
   78SOPE  H101 6992   1.563   5.629   6.102  0.2087 -1.5790  1.1141
   78SOPE  C211 6993   1.773   5.659   6.157 -0.1966  0.7244  0.2905
   78SOPE  H11R 6994   1.810   5.555   6.162 -0.5946  0.6234  1.2291
   78SOPE  H11S 6995   1.841   5.715   6.225 -1.5046  1.2751  1.1788
   78SOPE  C212 6996   1.786   5.708   6.011  1.2084  0.1032 -0.2394
   78SOPE  H12R 6997   1.877   5.772   6.005  1.3250  0.1849  1.6555
   78SOPE  H12S 6998   1.709   5.788   6.001  0.6462 -0.2138  1.3269
   78SOPE  C213 6999   1.790   5.596   5.915 -0.4397 -0.4429  0.4439
   78SOPE  H13R 7000   1.693   5.541   5.920 -0.4269 -0.6228 -0.9118
   78SOPE  H13S 7001   1.870   5.529   5.954  1.1265  1.6264  0.9770
   78SOPE  C214 7002   1.828   5.643   5.774  0.4400 -0.7003 -0.2409
   78SOPE  H14R 7003   1.922   5.701   5.781 -0.7102  1.0974  1.0670
   78SOPE  H14S 7004   1.757   5.721   5.738 -1.4599 -2.9115 -1.6354
   78SOPE  C215 7005   1.840   5.529   5.665  0.0246 -0.4095  0.3239
   78SOPE  H15R 7006   1.782   5.440   5.697  0.7466 -0.5025  1.4166
   78SOPE  H15S 7007   1.947   5.498   5.661  0.1718  0.1771 -1.3221
   78SOPE  C216 7008   1.791   5.584   5.528  0.0947 -0.2354  0.0909
   78SOPE  H16R 7009   1.682   5.595   5.546  0.0809  2.2937 -1.1346
   78SOPE  H16S 7010   1.823   5.503   5.459  1.1191 -3.0047  3.4920
   78SOPE  C217 7011   1.855   5.726   5.488  0.2363  0.2296 -0.8950
   78SOPE  H17R 7012   1.964   5.709   5.480  0.0487 -1.0984 -0.8583
   78SOPE  H17S 7013   1.852   5.803   5.569 -0.1247  0.7217 -1.3661
   78SOPE  C218 7014   1.794   5.781   5.360  0.1908  0.2520  0.2624
   78SOPE  H18R 7015   1.832   5.884   5.346  2.4981 -0.2510  2.1513
   78SOPE  H18S 7016   1.684   5.786   5.353  0.1396 -1.6309 -0.8560
   78SOPE  H18T 7017   1.809   5.712   5.274 -2.8072 -1.4339  0.9812
   78SOPE   C33 7018   1.365   6.200   6.624 -0.0800 -0.0595 -0.4767
   78SOPE   H3X 7019   1.308   6.279   6.676 -0.0838  0.1990 -0.8747
   78SOPE   H3Y 7020   1.291   6.117   6.614 -0.0960 -0.0241 -0.6538
   78SOPE   C34 7021   1.406   6.255   6.486 -0.2329 -0.1097  0.5093
   78SOPE   H4X 7022   1.472   6.342   6.507 -0.9273  0.3996  0.6013
   78SOPE   H4Y 7023   1.312   6.295   6.444  0.5697  0.3255 -0.9497
   78SOPE   C35 7024   1.468   6.149   6.397 -0.0155  0.2007 -0.5893
   78SOPE   H5X 7025   1.420   6.050   6.416  0.1386  0.1469 -0.4805
   78SOPE   H5Y 7026   1.573   6.134   6.430  0.1377  3.0606  0.5300
   78SOPE   C36 7027   1.464   6.211   6.256  0.1804 -0.2498 -0.9560
   78SOPE   H6X 7028   1.538   6.294   6.262 -0.1029 -0.1029  2.6955
   78SOPE   H6Y 7029   1.371   6.271   6.242  0.6659  1.8006  3.1825
   78SOPE   C37 7030   1.490   6.104   6.155  0.1061  0.7301  0.3536
   78SOPE   H7X 7031   1.436   6.119   6.058  0.4868  4.3256  0.5406
   78SOPE   H7Y 7032   1.455   6.011   6.203 -0.8976  0.0916 -1.5113
   78SOPE   C38 7033   1.643   6.105   6.120 -0.0621  0.6683 -0.5556
   78SOPE   H8X 7034   1.677   6.004   6.089 -1.0537 -0.7341  2.5591
   78SOPE   H8Y 7035   1.686   6.121   6.221 -0.9411  0.5326 -0.1501
   78SOPE   C39 7036   1.684   6.206   6.011  0.0208  0.1629 -0.0837
   78SOPE   H9X 7037   1.791   6.232   6.024 -0.2758  1.1596  0.4484
   78SOPE   H9Y 7038   1.630   6.303   6.014 -0.3212  0.0493 -1.5772
   78SOPE  C310 7039   1.674   6.131   5.877  0.5202 -0.1071  0.0737
   78SOPE  H10X 7040   1.585   6.064   5.870  0.7419 -0.2024 -2.5839
   78SOPE  H10Y 7041   1.758   6.060   5.867  0.4551  0.1033 -2.9434
   78SOPE  C311 7042   1.698   6.234   5.770 -0.1856  0.1198  1.0379
   78SOPE  H11X 7043   1.786   6.299   5.791 -0.6786  0.8321  0.9304
   78SOPE  H11Y 7044   1.606   6.295   5.776 -0.8498 -0.6915 -0.5081
   78SOPE  C312 7045   1.722   6.183   5.628  0.2487 -0.4144 -0.5447
   78SOPE  H12X 7046   1.810   6.115   5.625  0.5185 -0.0849 -0.0959
   78SOPE  H12Y 7047   1.752   6.269   5.564  0.3678  0.2957  0.4437
   78SOPE  C313 7048   1.610   6.094   5.575  0.5639  0.3191 -0.5540
   78SOPE  H13X 7049   1.535   6.096   5.658 -0.0143 -0.0252 -1.0569
   78SOPE  H13Y 7050   1.635   5.986   5.582 -1.4530 -0.1571 -0.0078
   78SOPE  C314 7051   1.540   6.140   5.452  0.3677 -0.0190 -0.3760
   78SOPE  H14X 7052   1.528   6.250   5.461  2.7617  0.1958  0.9647
   78SOPE  H14Y 7053   1.437   6.102   5.465  0.3734  0.6115  1.7426
   78SOPE  C315 7054   1.605   6.096   5.325  0.1316  0.0580  0.7176
   78SOPE  H15X 7055   1.588   5.988   5.304  1.6232 -0.2210  0.8285
   78SOPE  H15Y 7056   1.714   6.113   5.332 -0.0149  2.0315 -0.9666
   78SOPE  C316 7057   1.557   6.168   5.200 -0.0034 -0.5469 -0.0488
   78SOPE  H16X 7058   1.620   6.258   5.179  0.7581 -0.9861  0.3085
   78SOPE  H16Y 7059   1.448   6.187   5.202  0.2289  1.2728  3.8801
   78SOPE  C317 7060   1.585   6.081   5.071  0.3124  0.0157 -0.5758
   78SOPE  H17X 7061   1.687   6.039   5.084 -0.3551 -1.4763 -0.0257
   78SOPE  H17Y 7062   1.589   6.141   4.978 -1.5215  0.8451 -0.1715
   78SOPE  C318 7063   1.484   5.969   5.045 -0.6401  0.1400  0.2135
   78SOPE  H18X 7064   1.458   5.906   5.133  1.0175 -1.5475 -0.4385
   78SOPE  H18Y 7065   1.526   5.899   4.969  1.1991  0.8259  0.5328
   78SOPE  H18Z 7066   1.390   6.017   5.012 -0.1912  1.4716  0.7966
   79SOPE     N 7067   3.097   3.850   7.298  0.1370 -0.0490  0.3737
   79SOPE   HN1 7068   3.002   3.894   7.300  0.2777  0.2547  0.4745
   79SOPE   HN2 7069   3.110   3.799   7.387 -1.6816  2.0613  1.9803
   79SOPE   HN3 7070   3.164   3.929   7.289  0.6842 -0.3537  1.6275
   79SOPE   C12 7071   3.125   3.756   7.187 -0.0903 -0.0845  0.3081
   79SOPE  H12A 7072   3.226   3.710   7.193 -0.3225 -0.5273  0.9140
   79SOPE  H12B 7073   3.122   3.818   7.095 -1.7312 -2.1697 -1.1268
   79SOPE   C11 7074   3.006   3.667   7.162  0.2753 -0.0576  0.6607
   79SOPE  H11A 7075   3.013   3.606   7.070 -3.4560 -0.5850  0.5691
   79SOPE  H11B 7076   2.920   3.732   7.136  0.0995 -0.4487  0.2552
   79SOPE     P 7077   3.057   3.461   7.304 -0.1435 -0.1084 -0.4117
   79SOPE   O13 7078   2.999   3.392   7.424 -0.0845  0.5721  0.1390
   79SOPE   O14 7079   3.201   3.484   7.319  0.0407  0.2786 -0.2604
   79SOPE   O12 7080   2.974   3.596   7.280  0.5681 -0.3982 -0.6022
   79SOPE   O11 7081   3.023   3.376   7.178  0.0518 -0.0716 -0.2190
   79SOPE    C1 7082   2.888   3.366   7.125 -0.0258 -0.3151  0.4532
   79SOPE    HA 7083   2.835   3.463   7.139  1.2790  0.4176  0.4985
   79SOPE    HB 7084   2.833   3.289   7.184  0.8317  0.2637  2.0703
   79SOPE    C2 7085   2.886   3.312   6.980  0.8637  0.5880 -0.6890
   79SOPE    HS 7086   2.921   3.206   6.973  0.5936  0.5493 -1.6431
   79SOPE   O21 7087   2.965   3.391   6.897  0.5515  0.8314  0.0035
   79SOPE   C21 7088   3.091   3.364   6.892  0.1789 -0.2307  0.9817
   79SOPE   O22 7089   3.146   3.263   6.937  0.1165 -0.2948 -0.2473
   79SOPE   C22 7090   3.158   3.472   6.802  0.4407  1.1038 -0.4545
   79SOPE   H2R 7091   3.203   3.556   6.858  0.0787  1.3739 -0.5625
   79SOPE   H2S 7092   3.087   3.519   6.730  0.4285 -1.1565 -2.0415
   79SOPE    C3 7093   2.745   3.303   6.931  0.3714  0.2861  0.0650
   79SOPE    HX 7094   2.694   3.399   6.956 -2.4433 -0.6260 -1.7397
   79SOPE    HY 7095   2.707   3.219   6.993  0.6411  2.0242  2.7912
   79SOPE   O31 7096   2.732   3.287   6.786  0.1992  0.3104  0.3062
   79SOPE   C31 7097   2.710   3.156   6.746  0.1323 -0.0901 -0.7218
   79SOPE   O32 7098   2.702   3.063   6.827 -0.5246 -0.4956  0.5553
   79SOPE   C32 7099   2.691   3.147   6.596 -0.3904 -0.0519  0.2852
   79SOPE   H2X 7100   2.762   3.216   6.546 -1.0671 -0.4195 -1.2320
   79SOPE   H2Y 7101   2.583   3.170   6.583 -0.8352 -1.7621  0.6500
   79SOPE   C23 7102   3.274   3.407   6.714 -0.3404 -0.3329 -0.6572
   79SOPE   H3R 7103   3.349   3.378   6.791 -0.9688  0.0805  0.1366
   79SOPE   H3S 7104   3.324   3.482   6.650  2.0803  0.3084  1.7581
   79SOPE   C24 7105   3.226   3.287   6.634 -0.3770  0.2968  0.3815
   79SOPE   H4R 7106   3.322   3.243   6.599 -0.4910  1.0048 -0.8752
   79SOPE   H4S 7107   3.179   3.202   6.687 -1.2603  0.3685 -0.2556
   79SOPE   C25 7108   3.140   3.321   6.515 -0.4965 -0.0514  0.1068
   79SOPE   H5R 7109   3.038   3.346   6.550 -1.3996 -2.5679 -0.4842
   79SOPE   H5S 7110   3.196   3.401   6.460 -0.8672  0.2725  0.1986
   79SOPE   C26 7111   3.123   3.198   6.418 -0.6998  0.3265 -0.8678
   79SOPE   H6R 7112   3.223   3.154   6.396 -0.0128  1.1700  0.4606
   79SOPE   H6S 7113   3.064   3.132   6.483 -0.2652 -0.8260 -1.6103
   79SOPE   C27 7114   3.045   3.226   6.290  0.0410  0.5354 -0.5231
   79SOPE   H7R 7115   3.002   3.131   6.251 -1.3783  0.3942  1.2645
   79SOPE   H7S 7116   2.960   3.289   6.322 -0.8978  0.7481 -3.2293
   79SOPE   C28 7117   3.118   3.294   6.177 -0.5030  0.1512  0.2113
   79SOPE   H8R 7118   3.160   3.392   6.208  0.5814 -0.5270  0.9466
   79SOPE   H8S 7119   3.206   3.228   6.159 -2.2974 -2.1148 -0.8556
   79SOPE   C29 7120   3.013   3.303   6.071 -0.1619 -0.1865 -0.5259
   79SOPE   H91 7121   2.928   3.368   6.098 -2.0124 -2.2441 -1.0339
   79SOPE  C210 7122   3.009   3.231   5.964 -1.1739  0.2149  0.4910
   79SOPE  H101 7123   2.932   3.251   5.888  0.9718  3.2987 -1.0833
   79SOPE  C211 7124   3.115   3.132   5.918  0.1698 -0.0152 -0.3063
   79SOPE  H11R 7125   3.141   3.062   6.000  0.0760 -1.0524 -1.1302
   79SOPE  H11S 7126   3.201   3.195   5.887  0.2276  1.2712  2.2204
   79SOPE  C212 7127   3.076   3.044   5.800  0.3615 -0.8516  0.4968
   79SOPE  H12R 7128   2.987   2.983   5.826 -0.8300 -0.4766 -2.3918
   79SOPE  H12S 7129   3.163   2.979   5.774  0.1401 -1.1512  0.5061
   79SOPE  C213 7130   3.069   3.118   5.660 -0.2332 -0.2978 -0.3908
   79SOPE  H13R 7131   3.173   3.154   5.647  0.7348 -2.2858  1.1745
   79SOPE  H13S 7132   2.987   3.191   5.647 -0.5203 -1.0744 -3.9004
   79SOPE  C214 7133   3.045   3.012   5.555  0.0881 -0.0431 -0.4314
   79SOPE  H14R 7134   2.949   2.963   5.579  1.1385 -2.0183 -0.0188
   79SOPE  H14S 7135   3.122   2.931   5.556  0.0823 -0.0750  1.2727
   79SOPE  C215 7136   3.011   3.077   5.423 -0.2136  0.0793 -0.4712
   79SOPE  H15R 7137   3.087   3.149   5.385  0.9250 -0.4608  0.7087
   79SOPE  H15S 7138   2.915   3.130   5.443 -0.4753 -1.3666  2.6071
   79SOPE  C216 7139   2.988   2.962   5.316 -0.2161 -0.6273  0.0920
   79SOPE  H16R 7140   2.904   2.896   5.347 -0.4862 -0.7363 -0.8447
   79SOPE  H16S 7141   3.074   2.892   5.314 -0.7310 -1.4604  2.9050
   79SOPE  C217 7142   2.958   3.021   5.174 -0.1099 -0.3586  0.5557
   79SOPE  H17R 7143   3.028   3.104   5.148  2.1949 -2.0947  0.8777
   79SOPE  H17S 7144   2.859   3.071   5.169  1.0474  2.4124  2.4555
   79SOPE  C218 7145   2.988   2.922   5.064 -0.1229  0.3837 -0.2616
   79SOPE  H18R 7146   3.083   2.869   5.086 -0.3504 -0.0432 -0.2993
   79SOPE  H18S 7147   2.992   2.975   4.967 -0.1980  0.6680 -0.1122
   79SOPE  H18T 7148   2.909   2.844   5.071 -2.4191  2.4838 -0.9220
   79SOPE   C33 7149   2.729   3.011   6.546  0.4590  0.7289  0.1626
   79SOPE   H3X 7150   2.706   2.931   6.619  0.4829 -0.4634 -1.0776
   79SOPE   H3Y 7151   2.839   2.995   6.538  0.4796 -0.0828  1.7930
   79SOPE   C34 7152   2.659   2.963   6.418  0.2266  0.3010 -0.2480
   79SOPE   H4X 7153   2.553   2.940   6.438 -0.1765  2.3273  0.1826
   79SOPE   H4Y 7154   2.725   2.879   6.385 -2.5811 -2.7378  1.2928
   79SOPE   C35 7155   2.664   3.075   6.309  0.6462  0.2106 -0.4318
   79SOPE   H5X 7156   2.766   3.118   6.319  0.4397  0.5268  0.5049
   79SOPE   H5Y 7157   2.595   3.161   6.322  0.8952  0.4619 -0.7612
   79SOPE   C36 7158   2.651   3.020   6.166 -0.1409 -0.0865  0.9453
   79SOPE   H6X 7159   2.693   2.918   6.161  0.5019  0.2110 -0.2094
   79SOPE   H6Y 7160   2.715   3.084   6.101  2.5038 -1.4490  2.0763
   79SOPE   C37 7161   2.505   3.010   6.116 -0.2662 -0.0773 -0.5622
   79SOPE   H7X 7162   2.469   3.107   6.076  1.2618  1.3929  1.4379
   79SOPE   H7Y 7163   2.437   3.002   6.204  1.6261  0.9975  1.0778
   79SOPE   C38 7164   2.479   2.891   6.025  0.4062  0.5408 -0.1335
   79SOPE   H8X 7165   2.374   2.894   5.991  0.0358 -0.8926  0.7556
   79SOPE   H8Y 7166   2.497   2.792   6.074 -1.1709 -0.4767 -1.4807
   79SOPE   C39 7167   2.568   2.885   5.900 -0.8472  0.4606  1.1400
   79SOPE   H9X 7168   2.670   2.847   5.922 -0.6277  0.3478 -0.0154
   79SOPE   H9Y 7169   2.572   2.986   5.853 -0.0655 -0.0733  0.0189
   79SOPE  C310 7170   2.512   2.794   5.785  0.4507  0.2146  0.3877
   79SOPE  H10X 7171   2.406   2.824   5.771  0.1211 -1.6350 -1.6442
   79SOPE  H10Y 7172   2.519   2.689   5.820  1.5111  0.5285  1.1840
   79SOPE  C311 7173   2.585   2.804   5.652 -0.7432  0.3204 -0.5166
   79SOPE  H11X 7174   2.695   2.807   5.672 -0.4850  0.1811 -1.8094
   79SOPE  H11Y 7175   2.556   2.895   5.596  1.3943  1.4537  0.1213
   79SOPE  C312 7176   2.555   2.679   5.563 -0.3044 -0.3691  0.4093
   79SOPE  H12X 7177   2.445   2.687   5.547 -0.4957 -1.7435  0.8927
   79SOPE  H12Y 7178   2.579   2.589   5.624 -0.1452  0.9181  2.3135
   79SOPE  C313 7179   2.622   2.670   5.427  0.3247 -0.9739 -1.1684
   79SOPE  H13X 7180   2.731   2.656   5.442  0.7614  2.7949  0.3357
   79SOPE  H13Y 7181   2.609   2.767   5.373  0.9309 -1.3412 -1.9985
   79SOPE  C314 7182   2.574   2.559   5.326 -0.1507  0.0723  0.3627
   79SOPE  H14X 7183   2.550   2.470   5.389  0.9102  0.1268  0.8546
   79SOPE  H14Y 7184   2.648   2.526   5.250 -2.0963 -1.2618 -1.0550
   79SOPE  C315 7185   2.447   2.606   5.254  0.7863 -0.4472  0.9535
   79SOPE  H15X 7186   2.470   2.691   5.185 -0.7410  0.0839  1.0582
   79SOPE  H15Y 7187   2.363   2.622   5.325  1.0227 -1.2947  1.4333
   79SOPE  C316 7188   2.394   2.492   5.165  0.3323 -0.4213 -0.3751
   79SOPE  H16X 7189   2.376   2.407   5.233 -0.7556 -0.3790 -0.5918
   79SOPE  H16Y 7190   2.468   2.462   5.088 -0.7221 -0.8740 -1.2420
   79SOPE  C317 7191   2.264   2.528   5.088 -0.3604 -0.2622 -0.1691
   79SOPE  H17X 7192   2.285   2.619   5.029  1.3289  0.0607  0.8609
   79SOPE  H17Y 7193   2.190   2.565   5.163 -1.1854  0.0750 -1.1273
   79SOPE  C318 7194   2.189   2.423   5.002 -0.0209 -0.0140  0.3810
   79SOPE  H18X 7195   2.257   2.382   4.924  0.0255  2.4221 -0.9541
   79SOPE  H18Y 7196   2.112   2.480   4.948 -0.9280 -0.1929  1.4389
   79SOPE  H18Z 7197   2.141   2.345   5.066 -0.5495  0.8169  1.0160
   80SOPE     N 7198   0.483   5.864   7.140 -0.5172 -0.2842  0.3540
   80SOPE   HN1 7199   0.385   5.858   7.107 -0.8369  1.4349  0.9191
   80SOPE   HN2 7200   0.486   5.908   7.234 -4.4262 -0.8202  0.8986
   80SOPE   HN3 7201   0.533   5.919   7.067 -0.4706 -1.6063 -0.6451
   80SOPE   C12 7202   0.531   5.728   7.140 -0.2473  0.2592 -0.2191
   80SOPE  H12A 7203   0.493   5.676   7.230  0.6568 -0.5952 -0.3267
   80SOPE  H12B 7204   0.642   5.728   7.139 -0.1814 -2.4739  0.2922
   80SOPE   C11 7205   0.468   5.666   7.012  0.0587 -0.5291 -0.4721
   80SOPE  H11A 7206   0.490   5.558   7.013 -0.7822 -0.7109  1.2402
   80SOPE  H11B 7207   0.508   5.701   6.914  6.7461 -1.3703  1.4462
   80SOPE     P 7208   0.221   5.588   7.064  0.1601  0.4109 -0.1810
   80SOPE   O13 7209   0.094   5.660   7.055 -0.4048 -0.1260 -0.5985
   80SOPE   O14 7210   0.257   5.523   7.197  0.0931  0.3346 -0.3215
   80SOPE   O12 7211   0.331   5.692   7.015  0.4805  0.0715 -0.6998
   80SOPE   O11 7212   0.222   5.475   6.959 -0.0006  0.3781 -0.5259
   80SOPE    C1 7213   0.141   5.489   6.843  0.0295 -0.2993  0.2167
   80SOPE    HA 7214   0.172   5.564   6.768 -0.9065 -0.6494 -0.5434
   80SOPE    HB 7215   0.037   5.514   6.874 -0.2911 -1.6375  0.2847
   80SOPE    C2 7216   0.107   5.354   6.777 -0.5868 -0.0167 -0.4475
   80SOPE    HS 7217   0.086   5.286   6.862 -3.0652  1.5755  0.3182
   80SOPE   O21 7218   0.221   5.322   6.690  0.2729  0.2143 -0.2573
   80SOPE   C21 7219   0.247   5.195   6.654  0.8360 -0.2351 -0.9618
   80SOPE   O22 7220   0.155   5.112   6.653  0.8031 -0.2142  0.2283
   80SOPE   C22 7221   0.396   5.172   6.623 -0.0099 -0.5828  0.0193
   80SOPE   H2R 7222   0.453   5.161   6.718  1.5533  1.9545 -0.5427
   80SOPE   H2S 7223   0.432   5.273   6.595  1.9950 -1.5357 -0.9932
   80SOPE    C3 7224  -0.018   5.358   6.685 -0.9762 -0.1720  0.2084
   80SOPE    HX 7225  -0.099   5.394   6.752  0.3667  1.5711  0.9622
   80SOPE    HY 7226  -0.051   5.259   6.645  2.2979 -1.1036 -0.5100
   80SOPE   O31 7227  -0.005   5.454   6.580 -0.0425 -0.1154  0.3099
   80SOPE   C31 7228   0.058   5.420   6.472 -0.2771 -0.0691  0.2819
   80SOPE   O32 7229   0.113   5.320   6.446  0.1579  0.3723  0.1181
   80SOPE   C32 7230   0.064   5.548   6.384 -0.4292  0.4295 -0.6602
   80SOPE   H2X 7231   0.138   5.612   6.436 -1.1444  1.0281 -0.3671
   80SOPE   H2Y 7232  -0.032   5.604   6.386 -0.2636  0.6966  0.3221
   80SOPE   C23 7233   0.417   5.064   6.516  0.6258  0.6719 -1.1469
   80SOPE   H3R 7234   0.347   4.981   6.543  1.0103  0.5987 -0.3179
   80SOPE   H3S 7235   0.521   5.025   6.525  0.3149 -0.6920 -2.9492
   80SOPE   C24 7236   0.380   5.103   6.372 -0.3814 -0.4451  0.0198
   80SOPE   H4R 7237   0.372   5.010   6.311 -1.1015  1.3207 -2.7122
   80SOPE   H4S 7238   0.281   5.153   6.378 -1.6168 -2.9016  2.2961
   80SOPE   C25 7239   0.477   5.190   6.300 -1.0294 -0.0210  0.2066
   80SOPE   H5R 7240   0.482   5.296   6.331  0.9386  0.0312 -0.1793
   80SOPE   H5S 7241   0.579   5.145   6.303 -1.4957 -1.3614 -1.8277
   80SOPE   C26 7242   0.446   5.188   6.146  0.0668 -0.4282 -0.1275
   80SOPE   H6R 7243   0.339   5.165   6.127 -0.8114 -0.2768  3.6771
   80SOPE   H6S 7244   0.457   5.294   6.114 -1.6506  0.2883  1.4462
   80SOPE   C27 7245   0.517   5.086   6.055 -0.3492  0.0052  0.1955
   80SOPE   H7R 7246   0.608   5.143   6.030 -1.6915  2.8595  1.3837
   80SOPE   H7S 7247   0.538   4.993   6.113  2.2218  0.6621  0.4237
   80SOPE   C28 7248   0.443   5.055   5.924 -0.1927  0.4380  0.0833
   80SOPE   H8R 7249   0.341   5.019   5.947  0.2970  0.6698  3.0273
   80SOPE   H8S 7250   0.434   5.152   5.870  1.3167  0.2386 -0.5895
   80SOPE   C29 7251   0.506   4.949   5.835 -0.4444 -0.6001 -0.0566
   80SOPE   H91 7252   0.495   4.847   5.873  1.7500 -0.7250  0.3883
   80SOPE  C210 7253   0.571   4.969   5.722  0.0049  0.2947 -0.4011
   80SOPE  H101 7254   0.595   4.879   5.664  2.1430 -1.5790  3.0700
   80SOPE  C211 7255   0.594   5.098   5.648 -0.5025  0.1417  0.1430
   80SOPE  H11R 7256   0.701   5.126   5.657 -0.1156 -1.6441  1.9189
   80SOPE  H11S 7257   0.533   5.179   5.694  0.4211  1.6991 -1.2724
   80SOPE  C212 7258   0.570   5.080   5.498 -0.1713 -0.2899 -0.2413
   80SOPE  H12R 7259   0.619   4.986   5.464  0.8581 -1.3103  3.5999
   80SOPE  H12S 7260   0.628   5.164   5.454  0.7343 -0.5275  0.4596
   80SOPE  C213 7261   0.423   5.084   5.460 -0.1270 -0.0931  0.2837
   80SOPE  H13R 7262   0.372   5.177   5.494 -0.1196  0.6131 -1.5257
   80SOPE  H13S 7263   0.374   4.999   5.510 -0.1261 -0.8264 -0.9267
   80SOPE  C214 7264   0.397   5.066   5.307  0.2334  0.2725  0.0711
   80SOPE  H14R 7265   0.469   4.987   5.278  1.7102  1.4525  0.3821
   80SOPE  H14S 7266   0.414   5.159   5.249 -0.9372 -0.9844 -2.4309
   80SOPE  C215 7267   0.264   5.011   5.267 -0.1010  0.1510  0.3481
   80SOPE  H15R 7268   0.186   5.084   5.300  1.4452  1.2622  1.6972
   80SOPE  H15S 7269   0.245   4.914   5.318 -1.1148 -0.2945 -0.8240
   80SOPE  C216 7270   0.246   4.984   5.117  0.2302  0.2665 -0.1491
   80SOPE  H16R 7271   0.146   4.938   5.103 -0.2619  1.5177 -0.8371
   80SOPE  H16S 7272   0.325   4.905   5.107 -2.4020 -2.8581  1.8404
   80SOPE  C217 7273   0.267   5.099   5.014 -0.6110  0.4813 -0.2855
   80SOPE  H17R 7274   0.371   5.132   5.033  0.3833 -2.7675  0.6969
   80SOPE  H17S 7275   0.191   5.174   5.043 -1.8448 -0.9959  0.4617
   80SOPE  C218 7276   0.254   5.055   4.867 -0.7040  0.2363 -0.1197
   80SOPE  H18R 7277   0.268   5.148   4.808 -1.8919 -0.3776 -1.4602
   80SOPE  H18S 7278   0.156   5.007   4.847  1.1202 -3.2519 -1.6021
   80SOPE  H18T 7279   0.334   4.988   4.828 -0.3127  1.3226 -1.2353
   80SOPE   C33 7280   0.105   5.526   6.236 -0.3649 -0.0618 -0.6345
   80SOPE   H3X 7281   0.021   5.470   6.189  0.1978 -3.0617  1.6559
   80SOPE   H3Y 7282   0.206   5.481   6.236  1.4034  3.5016  0.3621
   80SOPE   C34 7283   0.123   5.653   6.151 -0.3811  0.7817 -0.0785
   80SOPE   H4X 7284   0.214   5.710   6.178 -0.6449  0.8888  0.6106
   80SOPE   H4Y 7285   0.043   5.726   6.179 -0.3721  0.8513 -0.2346
   80SOPE   C35 7286   0.122   5.626   5.998 -0.8183  0.0167  0.2358
   80SOPE   H5X 7287   0.143   5.721   5.943 -0.9035 -1.0177 -1.6874
   80SOPE   H5Y 7288   0.030   5.585   5.951 -0.3847  1.1580 -1.7690
   80SOPE   C36 7289   0.228   5.528   5.956 -0.3665 -0.1283 -0.5198
   80SOPE   H6X 7290   0.191   5.424   5.975 -0.1142 -0.3598 -1.2410
   80SOPE   H6Y 7291   0.314   5.536   6.025 -0.0928  0.5357 -0.9266
   80SOPE   C37 7292   0.283   5.570   5.819 -0.4160  0.0375  0.0473
   80SOPE   H7X 7293   0.329   5.671   5.828  0.9467 -0.4708 -0.8026
   80SOPE   H7Y 7294   0.197   5.569   5.749 -0.2089 -1.2739 -0.2230
   80SOPE   C38 7295   0.392   5.472   5.769 -0.0966  0.0337 -0.8011
   80SOPE   H8X 7296   0.357   5.367   5.775 -1.0613  0.4176  2.9475
   80SOPE   H8Y 7297   0.482   5.473   5.834  0.2254 -0.5911 -1.2366
   80SOPE   C39 7298   0.440   5.498   5.625 -0.4858 -0.1864 -0.1610
   80SOPE   H9X 7299   0.530   5.432   5.623 -0.9572 -0.8303 -0.3317
   80SOPE   H9Y 7300   0.467   5.606   5.630 -1.8896  0.1325  1.6058
   80SOPE  C310 7301   0.335   5.471   5.514 -0.2205  0.2962 -0.0204
   80SOPE  H10X 7302   0.260   5.552   5.523 -0.1964  0.3422 -0.2342
   80SOPE  H10Y 7303   0.275   5.381   5.537 -0.7659  1.0866  1.7843
   80SOPE  C311 7304   0.386   5.458   5.372  0.2997  0.3605  1.1483
   80SOPE  H11X 7305   0.465   5.383   5.353  0.0389  0.4898 -0.6717
   80SOPE  H11Y 7306   0.439   5.555   5.355 -0.3499  0.8111  1.6479
   80SOPE  C312 7307   0.270   5.431   5.275 -0.1430 -0.1837  0.0673
   80SOPE  H12X 7308   0.198   5.515   5.286 -0.8948 -0.5892 -1.4712
   80SOPE  H12Y 7309   0.229   5.330   5.294  1.7456 -0.6220  2.1909
   80SOPE  C313 7310   0.313   5.432   5.127  0.3706  0.2305 -0.0313
   80SOPE  H13X 7311   0.226   5.381   5.078 -0.7435  0.4884  1.6106
   80SOPE  H13Y 7312   0.405   5.370   5.118 -0.4521 -1.5554  2.6199
   80SOPE  C314 7313   0.319   5.573   5.071 -0.2134 -0.3405  0.3905
   80SOPE  H14X 7314   0.405   5.619   5.125  0.1625 -1.7585  1.0403
   80SOPE  H14Y 7315   0.228   5.632   5.094 -0.2456 -0.7522  1.3696
   80SOPE  C315 7316   0.336   5.579   4.914  0.0479 -0.3003  0.4832
   80SOPE  H15X 7317   0.368   5.684   4.893 -0.8179  0.4783  2.7197
   80SOPE  H15Y 7318   0.246   5.556   4.854  0.2158 -1.4741  0.6670
   80SOPE  C316 7319   0.445   5.479   4.866 -0.7218 -1.0130  0.4042
   80SOPE  H16X 7320   0.427   5.369   4.864 -0.0165 -1.1351  0.4233
   80SOPE  H16Y 7321   0.544   5.500   4.912 -1.2396 -0.5390  1.3179
   80SOPE  C317 7322   0.485   5.513   4.723 -0.0921  0.1134  0.1175
   80SOPE  H17X 7323   0.581   5.466   4.696 -0.5978  0.1762 -1.9094
   80SOPE  H17Y 7324   0.505   5.622   4.714 -0.0846 -0.0051 -1.5955
   80SOPE  C318 7325   0.382   5.477   4.611  0.1180  0.0924 -0.1634
   80SOPE  H18X 7326   0.309   5.559   4.597  1.3454  1.5255  1.3414
   80SOPE  H18Y 7327   0.335   5.384   4.649  0.9582  0.3181  1.5483
   80SOPE  H18Z 7328   0.437   5.446   4.520 -0.2617  3.5205 -1.7031
   81SOPE     N 7329   5.075   0.745   7.414  0.1276 -0.1968 -0.0520
   81SOPE   HN1 7330   5.050   0.652   7.375  0.2669 -0.6033  0.8099
   81SOPE   HN2 7331   5.149   0.786   7.353  1.4882  0.1143  1.7396
   81SOPE   HN3 7332   5.113   0.728   7.509 -1.4009 -2.3539  0.2505
   81SOPE   C12 7333   4.954   0.828   7.415  0.0951 -0.2471  0.1463
   81SOPE  H12A 7334   4.979   0.933   7.443 -2.4602 -0.0280  2.0279
   81SOPE  H12B 7335   4.884   0.794   7.494 -1.0030 -2.8280 -1.7965
   81SOPE   C11 7336   4.886   0.832   7.274  0.5339  0.0575  0.3024
   81SOPE  H11A 7337   4.863   0.726   7.250 -1.4837  0.0861  1.8319
   81SOPE  H11B 7338   4.967   0.865   7.206  1.4583 -2.4063  0.1129
   81SOPE     P 7339   4.626   0.841   7.320 -0.2571  0.4002  0.0723
   81SOPE   O13 7340   4.558   0.940   7.404  0.6731  0.3374  0.2370
   81SOPE   O14 7341   4.646   0.704   7.369  0.4620  0.2550 -0.4603
   81SOPE   O12 7342   4.766   0.903   7.277 -0.7306  0.8622  0.2780
   81SOPE   O11 7343   4.543   0.826   7.177 -0.1044 -0.1260  0.3999
   81SOPE    C1 7344   4.624   0.808   7.053  0.3383 -0.5731 -0.3264
   81SOPE    HA 7345   4.661   0.704   7.052 -0.7031 -1.2104  4.2149
   81SOPE    HB 7346   4.699   0.890   7.055  2.1693 -2.1636  1.0792
   81SOPE    C2 7347   4.535   0.821   6.923  0.2200 -0.2548 -0.6720
   81SOPE    HS 7348   4.610   0.803   6.843  1.5418  1.5870  0.0917
   81SOPE   O21 7349   4.480   0.952   6.889 -0.0881 -0.3097 -0.7132
   81SOPE   C21 7350   4.559   1.056   6.869  0.7993  0.5350  0.1132
   81SOPE   O22 7351   4.677   1.063   6.893 -0.2212  0.1408 -0.0459
   81SOPE   C22 7352   4.475   1.170   6.819  0.0466 -0.3551 -0.0344
   81SOPE   H2R 7353   4.524   1.254   6.873 -0.1264 -0.7789  0.8009
   81SOPE   H2S 7354   4.370   1.165   6.857  0.5180 -4.5451  1.1490
   81SOPE    C3 7355   4.413   0.726   6.914  0.0119 -0.0572  0.1727
   81SOPE    HX 7356   4.352   0.730   7.007 -1.0291 -2.1494 -0.3649
   81SOPE    HY 7357   4.472   0.634   6.932 -0.4531 -0.5172 -0.6366
   81SOPE   O31 7358   4.353   0.717   6.782  0.8512 -0.2364 -0.0404
   81SOPE   C31 7359   4.242   0.788   6.772  0.1023  0.7537  0.1102
   81SOPE   O32 7360   4.182   0.832   6.870  0.2852  0.1216 -0.0737
   81SOPE   C32 7361   4.187   0.798   6.626 -0.7329 -0.9764  0.0089
   81SOPE   H2X 7362   4.079   0.824   6.635 -0.8677 -1.7786  0.8391
   81SOPE   H2Y 7363   4.195   0.696   6.583 -0.3181  0.0018 -2.3620
   81SOPE   C23 7364   4.489   1.164   6.671  0.4999  0.0783 -0.2633
   81SOPE   H3R 7365   4.388   1.189   6.632 -1.1460 -2.2727  2.0637
   81SOPE   H3S 7366   4.503   1.070   6.613  1.5636  1.3790 -2.2287
   81SOPE   C24 7367   4.576   1.276   6.615 -0.7855 -0.1403 -0.1990
   81SOPE   H4R 7368   4.542   1.372   6.661  0.8519  0.5406 -0.3324
   81SOPE   H4S 7369   4.682   1.259   6.643 -0.5120 -1.1249 -1.7314
   81SOPE   C25 7370   4.557   1.295   6.463 -0.0445 -0.3171  0.5054
   81SOPE   H5R 7371   4.578   1.200   6.409 -0.0677  0.3716 -0.7355
   81SOPE   H5S 7372   4.452   1.323   6.442 -0.1564 -1.0319  0.0511
   81SOPE   C26 7373   4.664   1.399   6.415 -0.0915  0.1534  0.4171
   81SOPE   H6R 7374   4.647   1.501   6.456  0.7905  1.9589 -3.2914
   81SOPE   H6S 7375   4.762   1.359   6.450 -0.1463  1.7080  2.5332
   81SOPE   C27 7376   4.668   1.417   6.262  0.6624  0.3015  0.6848
   81SOPE   H7R 7377   4.676   1.317   6.214 -1.6801 -0.1226  1.0488
   81SOPE   H7S 7378   4.570   1.455   6.227  1.4086  1.7275  0.0829
   81SOPE   C28 7379   4.776   1.514   6.203 -0.5201  0.2392 -0.1603
   81SOPE   H8R 7380   4.868   1.478   6.253  0.4220  1.7792 -0.7118
   81SOPE   H8S 7381   4.788   1.487   6.095 -0.5015  1.3400 -0.4500
   81SOPE   C29 7382   4.753   1.657   6.221  0.5331 -0.2048 -0.1443
   81SOPE   H91 7383   4.710   1.669   6.322  1.7967 -0.0668  0.4008
   81SOPE  C210 7384   4.763   1.765   6.137  0.0164  0.3759 -1.6300
   81SOPE  H101 7385   4.752   1.868   6.174  2.0865  0.7607 -1.9974
   81SOPE  C211 7386   4.834   1.758   6.004  0.0304 -0.2353  0.0371
   81SOPE  H11R 7387   4.880   1.657   5.990 -3.2694 -1.5742 -2.5506
   81SOPE  H11S 7388   4.917   1.831   5.996  0.0574 -0.4348 -2.0930
   81SOPE  C212 7389   4.744   1.788   5.878  0.6967  0.2358 -0.3958
   81SOPE  H12R 7390   4.672   1.706   5.856  2.5691 -2.6620  3.2385
   81SOPE  H12S 7391   4.807   1.792   5.787  1.0449  0.3539 -0.1503
   81SOPE  C213 7392   4.668   1.916   5.888 -0.0730 -0.2125 -0.4440
   81SOPE  H13R 7393   4.742   1.991   5.922  1.1469 -0.1862 -2.9141
   81SOPE  H13S 7394   4.592   1.918   5.969  0.1187  1.0098 -0.2825
   81SOPE  C214 7395   4.604   1.973   5.756 -0.0672 -0.3647  0.1888
   81SOPE  H14R 7396   4.540   2.060   5.781  1.0959  0.1055  1.6442
   81SOPE  H14S 7397   4.531   1.911   5.699  0.3861 -0.0647 -0.7496
   81SOPE  C215 7398   4.708   2.023   5.653  0.3350  0.3902 -0.6117
   81SOPE  H15R 7399   4.766   1.934   5.620  2.7528  1.6819 -0.0983
   81SOPE  H15S 7400   4.770   2.095   5.711  0.5831 -0.9377  0.8187
   81SOPE  C216 7401   4.650   2.093   5.532 -0.3196  0.5030  0.1993
   81SOPE  H16R 7402   4.570   2.160   5.571 -2.2704 -1.5007 -0.1216
   81SOPE  H16S 7403   4.600   2.018   5.466  1.0216  0.5371 -0.8886
   81SOPE  C217 7404   4.750   2.166   5.439  0.6476 -0.7391  0.4264
   81SOPE  H17R 7405   4.791   2.098   5.362 -2.0039  0.9505 -2.7749
   81SOPE  H17S 7406   4.832   2.216   5.495 -0.0689 -0.5954  1.3841
   81SOPE  C218 7407   4.701   2.274   5.344  0.4834 -0.1728  0.3145
   81SOPE  H18R 7408   4.636   2.343   5.402  2.8974 -0.3151  3.4678
   81SOPE  H18S 7409   4.639   2.226   5.265 -0.4464 -0.1397  1.0046
   81SOPE  H18T 7410   4.783   2.330   5.295 -0.7823  1.3218 -0.1945
   81SOPE   C33 7411   4.271   0.898   6.549 -0.1392  0.2963  1.0081
   81SOPE   H3X 7412   4.375   0.859   6.542 -1.2203 -2.8661  0.7543
   81SOPE   H3Y 7413   4.274   1.001   6.590 -0.3298  1.1320 -0.9363
   81SOPE   C34 7414   4.217   0.925   6.396 -0.3596  0.5861 -0.3768
   81SOPE   H4X 7415   4.125   0.984   6.417 -0.8934 -0.7735  1.3650
   81SOPE   H4Y 7416   4.185   0.835   6.340 -0.5073  1.6516 -2.0814
   81SOPE   C35 7417   4.321   1.014   6.326  0.1252  0.0518 -0.4136
   81SOPE   H5X 7418   4.418   0.965   6.305 -0.4344 -0.8166 -1.0063
   81SOPE   H5Y 7419   4.331   1.102   6.394 -0.1188 -2.3657  3.0365
   81SOPE   C36 7420   4.267   1.068   6.196  0.5059  0.0561 -0.3323
   81SOPE   H6X 7421   4.167   1.114   6.206  1.2423  1.8050 -0.6103
   81SOPE   H6Y 7422   4.269   0.987   6.120  1.7192 -0.1080 -0.1405
   81SOPE   C37 7423   4.344   1.193   6.144  0.3348  0.8018  0.0200
   81SOPE   H7X 7424   4.441   1.150   6.110  0.0577 -0.2547  0.5311
   81SOPE   H7Y 7425   4.362   1.262   6.230 -1.4379  0.0560  1.0412
   81SOPE   C38 7426   4.280   1.262   6.017  0.5098 -0.3214  0.3059
   81SOPE   H8X 7427   4.223   1.353   6.046  2.6839  0.9534  0.8175
   81SOPE   H8Y 7428   4.207   1.191   5.973  0.4859  1.5363 -2.9122
   81SOPE   C39 7429   4.378   1.305   5.911  0.1305 -0.2510 -0.1437
   81SOPE   H9X 7430   4.429   1.215   5.869 -1.0559 -0.6073 -0.8717
   81SOPE   H9Y 7431   4.462   1.357   5.961  1.1573 -0.4709 -1.5633
   81SOPE  C310 7432   4.328   1.386   5.790 -0.2826 -0.7642 -0.5901
   81SOPE  H10X 7433   4.230   1.341   5.762 -1.1337 -0.6471  1.9914
   81SOPE  H10Y 7434   4.402   1.376   5.708  0.7393  0.5579  0.1376
   81SOPE  C311 7435   4.300   1.528   5.833 -0.6118 -0.6929 -0.2177
   81SOPE  H11X 7436   4.383   1.580   5.885 -1.3449 -0.0048  0.2734
   81SOPE  H11Y 7437   4.217   1.538   5.905  0.0231  3.0661  0.1652
   81SOPE  C312 7438   4.276   1.612   5.709 -0.1941 -0.1511 -0.6830
   81SOPE  H12X 7439   4.257   1.714   5.747  1.5607  0.0761 -0.3503
   81SOPE  H12Y 7440   4.192   1.567   5.651 -0.9109  0.7312 -0.3566
   81SOPE  C313 7441   4.396   1.630   5.614  0.4183  0.0153  0.3627
   81SOPE  H13X 7442   4.423   1.534   5.564  0.1662  0.0370  0.1784
   81SOPE  H13Y 7443   4.472   1.645   5.694 -0.7495 -2.6921  2.1311
   81SOPE  C314 7444   4.374   1.750   5.520 -0.4634  0.0140 -1.0594
   81SOPE  H14X 7445   4.465   1.754   5.458 -0.9391  1.2101 -1.7227
   81SOPE  H14Y 7446   4.369   1.838   5.588  1.4653  0.0448 -0.9138
   81SOPE  C315 7447   4.251   1.756   5.437  0.0513 -0.4167 -0.2012
   81SOPE  H15X 7448   4.207   1.857   5.426  0.3760 -0.1988  0.4385
   81SOPE  H15Y 7449   4.178   1.692   5.493  0.7017  1.9710  3.7576
   81SOPE  C316 7450   4.256   1.714   5.289 -0.3566 -0.3580 -0.7338
   81SOPE  H16X 7451   4.316   1.788   5.232  0.8333 -0.3991  0.4054
   81SOPE  H16Y 7452   4.156   1.720   5.242 -1.6108  0.5581  1.8603
   81SOPE  C317 7453   4.321   1.581   5.261  0.6688  0.0837  0.9390
   81SOPE  H17X 7454   4.276   1.505   5.328 -2.6806  0.4418 -0.6755
   81SOPE  H17Y 7455   4.429   1.596   5.283  1.0459 -0.5857 -0.3806
   81SOPE  C318 7456   4.295   1.530   5.124  0.0335 -0.8623 -0.0098
   81SOPE  H18X 7457   4.291   1.619   5.057 -1.6561  0.4141  1.6884
   81SOPE  H18Y 7458   4.193   1.487   5.114 -1.4732  2.3340  0.3786
   81SOPE  H18Z 7459   4.371   1.461   5.081 -0.7603 -1.2477 -0.8357
   82SOPE     N 7460   1.061   0.990   6.820  0.0368  0.2897  0.2125
   82SOPE   HN1 7461   1.015   1.073   6.779  1.7719  1.2094  0.0303
   82SOPE   HN2 7462   1.053   0.998   6.923 -2.8227 -2.7383  0.4000
   82SOPE   HN3 7463   1.161   0.994   6.792 -0.0340 -1.2524 -0.3710
   82SOPE   C12 7464   0.987   0.858   6.782 -0.5327 -0.4973  0.1220
   82SOPE  H12A 7465   0.966   0.863   6.673 -1.8375 -0.6059  0.3526
   82SOPE  H12B 7466   0.896   0.859   6.846 -0.0571  2.1870  0.8758
   82SOPE   C11 7467   1.069   0.733   6.834  0.3472  0.4843 -0.4556
   82SOPE  H11A 7468   1.170   0.741   6.788 -0.2798  1.6245 -1.6724
   82SOPE  H11B 7469   1.019   0.643   6.793 -1.9492  1.9332 -0.9863
   82SOPE     P 7470   1.187   0.637   7.049  0.3416 -0.3880  0.0091
   82SOPE   O13 7471   1.114   0.552   7.146 -0.4756 -0.1326  0.1132
   82SOPE   O14 7472   1.294   0.724   7.101  0.3072  0.2064 -0.1159
   82SOPE   O12 7473   1.086   0.741   6.980  0.1486  0.3593 -0.3292
   82SOPE   O11 7474   1.249   0.545   6.929 -0.2281 -0.2111  0.1876
   82SOPE    C1 7475   1.191   0.411   6.918  0.2760 -0.5373  0.1123
   82SOPE    HA 7476   1.080   0.414   6.930  0.4425  1.9118  1.6862
   82SOPE    HB 7477   1.228   0.351   7.003 -1.2629 -0.8381  0.6155
   82SOPE    C2 7478   1.230   0.349   6.783  0.4315 -0.8405  0.3497
   82SOPE    HS 7479   1.165   0.259   6.772  0.2744 -0.6722 -0.1685
   82SOPE   O21 7480   1.374   0.315   6.781  0.1839 -0.0404 -0.0946
   82SOPE   C21 7481   1.412   0.225   6.858  0.7704 -0.4516 -0.2663
   82SOPE   O22 7482   1.347   0.153   6.932 -0.3991  0.2981 -0.3220
   82SOPE   C22 7483   1.563   0.215   6.833  0.1016  0.7341  0.6083
   82SOPE   H2R 7484   1.611   0.173   6.923  0.3907 -1.9257 -0.7018
   82SOPE   H2S 7485   1.600   0.318   6.813 -3.2111  1.8412 -0.4250
   82SOPE    C3 7486   1.207   0.436   6.655  0.9324  0.2049  0.7168
   82SOPE    HX 7487   1.249   0.539   6.667  1.6646 -0.3952  5.8590
   82SOPE    HY 7488   1.097   0.450   6.656  0.6289 -1.9372  1.0207
   82SOPE   O31 7489   1.242   0.366   6.529 -0.1652  0.2151 -0.1511
   82SOPE   C31 7490   1.225   0.445   6.426 -0.4663 -0.1971 -0.3911
   82SOPE   O32 7491   1.182   0.560   6.434 -0.4005 -0.0524 -0.2036
   82SOPE   C32 7492   1.246   0.362   6.293  0.4778  0.5294 -0.1771
   82SOPE   H2X 7493   1.192   0.266   6.284  2.8108 -0.8000 -0.8786
   82SOPE   H2Y 7494   1.350   0.322   6.297 -0.6800 -2.6638  1.9322
   82SOPE   C23 7495   1.582   0.115   6.719  0.0187 -1.2131 -0.4642
   82SOPE   H3R 7496   1.526   0.021   6.736 -3.4972  0.8288  0.0615
   82SOPE   H3S 7497   1.690   0.088   6.719  0.2033 -0.5575  0.4277
   82SOPE   C24 7498   1.567   0.185   6.582 -0.0096 -0.5169  0.0426
   82SOPE   H4R 7499   1.463   0.218   6.560  0.7102  1.8699 -0.1298
   82SOPE   H4S 7500   1.622   0.282   6.589 -0.9093 -0.0626  1.0277
   82SOPE   C25 7501   1.600   0.097   6.462  0.0780 -0.1535  1.0751
   82SOPE   H5R 7502   1.710   0.092   6.444  0.1405 -1.4975  1.6539
   82SOPE   H5S 7503   1.560  -0.006   6.476  0.0021 -0.6481 -2.1052
   82SOPE   C26 7504   1.540   0.144   6.324  0.3003 -0.6866 -0.6990
   82SOPE   H6R 7505   1.433   0.119   6.312  0.2835 -0.0503 -2.0278
   82SOPE   H6S 7506   1.560   0.253   6.313 -0.1693 -0.4387  0.6980
   82SOPE   C27 7507   1.613   0.086   6.200 -0.5285 -0.2620 -0.0477
   82SOPE   H7R 7508   1.722   0.106   6.193 -0.7310  0.6358 -0.8751
   82SOPE   H7S 7509   1.597  -0.023   6.210  0.7114 -0.6295 -1.8133
   82SOPE   C28 7510   1.551   0.140   6.071 -0.2929 -0.2516  0.3404
   82SOPE   H8R 7511   1.441   0.140   6.083 -0.3708  0.1847 -0.2972
   82SOPE   H8S 7512   1.583   0.239   6.032 -2.1829 -0.1366 -1.0725
   82SOPE   C29 7513   1.584   0.046   5.953 -0.4086  0.3713  0.2351
   82SOPE   H91 7514   1.692   0.025   5.948 -0.5125 -0.0531 -0.5771
   82SOPE  C210 7515   1.504  -0.019   5.857 -0.1899 -0.5922  0.4307
   82SOPE  H101 7516   1.552  -0.097   5.796  1.2525 -0.4331  1.3223
   82SOPE  C211 7517   1.352  -0.017   5.862  0.3109  0.6357  0.3417
   82SOPE  H11R 7518   1.307  -0.001   5.761 -2.0512 -2.8904  0.6468
   82SOPE  H11S 7519   1.318   0.054   5.940 -1.1975  0.0214  0.2842
   82SOPE  C212 7520   1.304  -0.160   5.910 -0.2251 -0.6458  0.1016
   82SOPE  H12R 7521   1.342  -0.233   5.836 -0.4091  0.1709 -0.8262
   82SOPE  H12S 7522   1.193  -0.160   5.912 -0.2685  1.5232  0.9060
   82SOPE  C213 7523   1.345  -0.189   6.052 -0.3493  0.5969 -0.3403
   82SOPE  H13R 7524   1.454  -0.192   6.072 -0.5421 -0.9858  0.5657
   82SOPE  H13S 7525   1.312  -0.294   6.065  1.7032  0.1642  2.0885
   82SOPE  C214 7526   1.267  -0.117   6.163 -0.3439  0.6211  0.4052
   82SOPE  H14R 7527   1.159  -0.137   6.146 -0.4472  0.8983  0.7341
   82SOPE  H14S 7528   1.277  -0.007   6.164 -1.0573  0.7143 -0.7269
   82SOPE  C215 7529   1.330  -0.165   6.294  0.0279 -0.1637  0.4468
   82SOPE  H15R 7530   1.436  -0.131   6.303 -0.4282  0.8860  2.2686
   82SOPE  H15S 7531   1.319  -0.276   6.290 -1.1162 -0.0439  0.1707
   82SOPE  C216 7532   1.253  -0.122   6.421  0.8027 -1.0146 -0.4958
   82SOPE  H16R 7533   1.149  -0.155   6.398  1.4085 -1.6750 -2.4988
   82SOPE  H16S 7534   1.259  -0.013   6.438  0.1852 -1.2887  1.9133
   82SOPE  C217 7535   1.277  -0.186   6.558 -0.0674 -0.1820 -0.1352
   82SOPE  H17R 7536   1.384  -0.173   6.585 -0.2010 -0.4687  0.5462
   82SOPE  H17S 7537   1.261  -0.293   6.536  0.2472 -0.0720 -0.9221
   82SOPE  C218 7538   1.190  -0.140   6.675 -0.9296 -0.2711  0.8387
   82SOPE  H18R 7539   1.216  -0.201   6.764 -2.1157 -0.5412  1.0166
   82SOPE  H18S 7540   1.083  -0.146   6.644  0.3452  0.4523 -4.8079
   82SOPE  H18T 7541   1.219  -0.038   6.708  2.3821 -1.5661  2.3624
   82SOPE   C33 7542   1.189   0.440   6.165  0.6000  1.0187 -0.4385
   82SOPE   H3X 7543   1.205   0.547   6.193  1.4191  0.9219 -0.5143
   82SOPE   H3Y 7544   1.082   0.413   6.151  0.6085  0.1756  0.9277
   82SOPE   C34 7545   1.257   0.409   6.033 -0.7686  1.0186  0.4750
   82SOPE   H4X 7546   1.274   0.299   6.029  4.8058  1.6113 -2.2478
   82SOPE   H4Y 7547   1.350   0.470   6.029 -1.5685  2.2463  0.2844
   82SOPE   C35 7548   1.196   0.455   5.898  0.3318  0.5480 -0.0578
   82SOPE   H5X 7549   1.213   0.565   5.897 -0.2724  0.6600 -1.7215
   82SOPE   H5Y 7550   1.086   0.440   5.902  0.4206 -1.0034 -1.9579
   82SOPE   C36 7551   1.254   0.395   5.772 -0.0636  0.1625 -0.2408
   82SOPE   H6X 7552   1.267   0.285   5.788  2.2085  0.5093  0.6388
   82SOPE   H6Y 7553   1.360   0.426   5.781  0.4247 -0.4128 -3.1634
   82SOPE   C37 7554   1.185   0.422   5.641  0.1519  0.0274  0.1247
   82SOPE   H7X 7555   1.159   0.530   5.632 -0.6621 -0.2532 -1.0621
   82SOPE   H7Y 7556   1.094   0.359   5.637  1.2791 -1.5905 -0.9091
   82SOPE   C38 7557   1.277   0.385   5.524  0.1516  0.0450  0.6606
   82SOPE   H8X 7558   1.291   0.275   5.514 -1.0165 -0.2577  2.0999
   82SOPE   H8Y 7559   1.373   0.435   5.548 -0.0233  1.6111 -1.6139
   82SOPE   C39 7560   1.235   0.433   5.379  0.1690 -0.1383  0.2411
   82SOPE   H9X 7561   1.222   0.543   5.376  0.4426 -0.0723  1.2206
   82SOPE   H9Y 7562   1.140   0.386   5.347  0.9700 -0.1888 -2.2610
   82SOPE  C310 7563   1.340   0.400   5.270 -0.6063 -0.0274  1.0389
   82SOPE  H10X 7564   1.339   0.289   5.269 -0.6697 -0.0916  3.4076
   82SOPE  H10Y 7565   1.441   0.429   5.306  0.8743 -0.6924 -2.1929
   82SOPE  C311 7566   1.302   0.477   5.135  0.1137  0.8631  0.8871
   82SOPE  H11X 7567   1.210   0.424   5.102 -0.2431  1.2320  1.2780
   82SOPE  H11Y 7568   1.385   0.453   5.065 -3.0965 -1.1232 -2.6075
   82SOPE  C312 7569   1.284   0.628   5.135  0.3680  0.4673 -0.1839
   82SOPE  H12X 7570   1.351   0.685   5.203 -0.3364  1.0921  0.0063
   82SOPE  H12Y 7571   1.180   0.641   5.172  0.8334 -0.7114  1.6617
   82SOPE  C313 7572   1.293   0.699   4.995  0.4407  0.3434 -0.2282
   82SOPE  H13X 7573   1.400   0.683   4.967  0.6978 -1.3796  1.5063
   82SOPE  H13Y 7574   1.280   0.810   4.995 -0.1173  0.2831 -1.2632
   82SOPE  C314 7575   1.195   0.650   4.888 -0.7049  0.5607 -0.1350
   82SOPE  H14X 7576   1.110   0.598   4.936 -1.7845  2.8011  0.4982
   82SOPE  H14Y 7577   1.241   0.572   4.823  1.9339  2.1959 -0.3920
   82SOPE  C315 7578   1.145   0.768   4.795  0.3859  0.2247 -0.4801
   82SOPE  H15X 7579   1.134   0.860   4.856 -1.0988 -0.9361  1.1317
   82SOPE  H15Y 7580   1.044   0.741   4.755  0.4767 -0.7971 -0.0547
   82SOPE  C316 7581   1.235   0.774   4.677 -1.2077  0.5875  0.5958
   82SOPE  H16X 7582   1.179   0.843   4.610  0.3773 -0.0619 -1.5187
   82SOPE  H16Y 7583   1.242   0.674   4.629  4.6645 -0.3670  2.5875
   82SOPE  C317 7584   1.377   0.824   4.712  0.1347 -0.6723  0.6487
   82SOPE  H17X 7585   1.438   0.736   4.742 -1.1509 -2.0151 -0.5367
   82SOPE  H17Y 7586   1.390   0.891   4.799 -0.2673  0.2819 -0.0182
   82SOPE  C318 7587   1.464   0.887   4.597  0.6765  0.5538  0.3492
   82SOPE  H18X 7588   1.492   0.808   4.523 -2.1185  0.5180 -0.8090
   82SOPE  H18Y 7589   1.553   0.930   4.648  1.4887 -1.6028  0.8493
   82SOPE  H18Z 7590   1.412   0.970   4.544  0.0251  0.9568  1.5869
   83SOPE     N 7591   2.131   5.651   2.522 -0.1011 -0.1887  0.6241
   83SOPE   HN1 7592   2.084   5.699   2.443  0.7616 -0.9895 -0.4085
   83SOPE   HN2 7593   2.179   5.575   2.470 -2.6883 -0.9722 -0.7533
   83SOPE   HN3 7594   2.070   5.600   2.588  0.2605  2.2251  3.0398
   83SOPE   C12 7595   2.221   5.744   2.603 -0.2371  0.1218  0.3572
   83SOPE  H12A 7596   2.154   5.811   2.661  1.3105  1.7856  0.3324
   83SOPE  H12B 7597   2.286   5.800   2.531 -1.2601  0.1653 -0.5565
   83SOPE   C11 7598   2.314   5.664   2.708 -1.5277  0.2769  0.2766
   83SOPE  H11A 7599   2.384   5.729   2.764  0.3395 -0.4516 -1.1089
   83SOPE  H11B 7600   2.387   5.606   2.648 -3.3021 -1.6652 -0.1380
   83SOPE     P 7601   2.167   5.649   2.921 -0.1973  0.1145 -0.3143
   83SOPE   O13 7602   2.038   5.574   2.938  0.0573 -0.6019 -0.2403
   83SOPE   O14 7603   2.159   5.798   2.901  0.0257 -0.2114 -0.3117
   83SOPE   O12 7604   2.233   5.582   2.794 -0.5461 -0.7662  0.1324
   83SOPE   O11 7605   2.276   5.610   3.020 -0.3895 -0.0097 -0.5824
   83SOPE    C1 7606   2.314   5.473   3.045  0.1272  0.0109  0.5705
   83SOPE    HA 7607   2.421   5.479   3.076  0.5060 -0.2922 -0.6158
   83SOPE    HB 7608   2.304   5.406   2.956 -3.9453  0.5586  0.4074
   83SOPE    C2 7609   2.230   5.400   3.149 -0.2929  0.0438 -0.6316
   83SOPE    HS 7610   2.128   5.418   3.108  0.2535  0.3648 -1.9129
   83SOPE   O21 7611   2.229   5.461   3.277 -0.5919  0.5085 -0.0144
   83SOPE   C21 7612   2.343   5.475   3.349  0.1685  0.1279  0.0648
   83SOPE   O22 7613   2.455   5.446   3.319  0.1502  0.3482 -0.2854
   83SOPE   C22 7614   2.296   5.499   3.488  0.1404 -0.4959 -0.1126
   83SOPE   H2R 7615   2.205   5.444   3.521  0.0418 -0.5774 -0.5185
   83SOPE   H2S 7616   2.270   5.606   3.500  1.9587  0.1654 -1.5878
   83SOPE    C3 7617   2.266   5.251   3.163  0.1564 -0.2269  0.3112
   83SOPE    HX 7618   2.375   5.238   3.179  0.2299 -1.0022 -0.7268
   83SOPE    HY 7619   2.229   5.200   3.071 -0.2479  0.4279  0.1030
   83SOPE   O31 7620   2.195   5.192   3.281 -0.5029  0.1017 -0.2002
   83SOPE   C31 7621   2.068   5.165   3.272  0.3519  0.2924  0.2789
   83SOPE   O32 7622   1.994   5.199   3.183 -0.6888  0.2791  0.1202
   83SOPE   C32 7623   2.035   5.066   3.383 -0.5544  0.1603 -0.5966
   83SOPE   H2X 7624   2.102   4.979   3.372 -1.6275 -0.6756 -0.7102
   83SOPE   H2Y 7625   1.931   5.033   3.361 -0.3582 -2.2098  1.6248
   83SOPE   C23 7626   2.406   5.484   3.602  0.2088 -0.0871 -0.6125
   83SOPE   H3R 7627   2.499   5.538   3.577 -0.6609  0.3987 -3.0011
   83SOPE   H3S 7628   2.427   5.374   3.603  0.8927  0.0426 -0.2530
   83SOPE   C24 7629   2.346   5.537   3.738 -0.3054  0.4776 -0.1569
   83SOPE   H4R 7630   2.363   5.647   3.741 -0.2967  0.5054 -0.8741
   83SOPE   H4S 7631   2.237   5.516   3.738 -0.1886 -0.1659 -0.4448
   83SOPE   C25 7632   2.412   5.472   3.855  0.0186  0.2684 -0.4689
   83SOPE   H5R 7633   2.417   5.364   3.830  4.2163  0.4987 -1.3340
   83SOPE   H5S 7634   2.518   5.503   3.866 -0.3304  0.6487  2.4963
   83SOPE   C26 7635   2.344   5.498   3.990  0.0501 -1.0247  0.0730
   83SOPE   H6R 7636   2.359   5.600   4.030 -2.2011  0.0242 -1.5083
   83SOPE   H6S 7637   2.233   5.487   3.992  0.0385 -1.6967 -1.9318
   83SOPE   C27 7638   2.401   5.394   4.083 -0.0170  0.0549 -0.3962
   83SOPE   H7R 7639   2.342   5.301   4.066 -1.3305  0.9133 -0.7646
   83SOPE   H7S 7640   2.507   5.369   4.063 -0.4884 -0.6778 -2.1277
   83SOPE   C28 7641   2.379   5.444   4.233  0.8174  0.8718 -0.0788
   83SOPE   H8R 7642   2.436   5.383   4.306 -1.8048  0.3878  1.6996
   83SOPE   H8S 7643   2.413   5.550   4.239 -0.0023  1.0740  1.6893
   83SOPE   C29 7644   2.238   5.442   4.275 -0.3919  0.1195 -0.1298
   83SOPE   H91 7645   2.179   5.374   4.212  1.3864  0.4105 -2.2344
   83SOPE  C210 7646   2.173   5.511   4.370  0.2804 -0.2857  0.9577
   83SOPE  H101 7647   2.069   5.484   4.395 -0.3358 -0.8955 -1.9187
   83SOPE  C211 7648   2.237   5.614   4.457 -0.0424  0.0218 -0.5264
   83SOPE  H11R 7649   2.218   5.714   4.410 -2.5774 -0.9932 -1.8478
   83SOPE  H11S 7650   2.348   5.615   4.466 -0.0730  2.5035  0.2810
   83SOPE  C212 7651   2.180   5.598   4.602 -0.7548 -0.4035 -0.0525
   83SOPE  H12R 7652   2.188   5.490   4.629 -1.5963 -0.7860 -1.2505
   83SOPE  H12S 7653   2.070   5.613   4.602 -0.8127 -0.1803  2.8090
   83SOPE  C213 7654   2.256   5.682   4.708 -0.0583 -0.0870  0.4211
   83SOPE  H13R 7655   2.221   5.785   4.689  2.6053  1.0413  1.1959
   83SOPE  H13S 7656   2.364   5.676   4.685 -0.4543 -2.0567 -1.2659
   83SOPE  C214 7657   2.225   5.621   4.844  0.1108 -0.3934 -0.1205
   83SOPE  H14R 7658   2.256   5.515   4.831 -1.2444 -0.5151 -3.0864
   83SOPE  H14S 7659   2.116   5.627   4.863 -0.5829 -1.4303 -3.1856
   83SOPE  C215 7660   2.300   5.680   4.962 -0.4086 -0.5338  0.5754
   83SOPE  H15R 7661   2.409   5.671   4.942 -0.1910  1.4478  0.7406
   83SOPE  H15S 7662   2.270   5.619   5.050 -0.3885  1.4884  2.0453
   83SOPE  C216 7663   2.259   5.821   4.978 -0.1145 -0.4986  0.4259
   83SOPE  H16R 7664   2.149   5.832   4.992 -0.1840 -0.2287 -0.3177
   83SOPE  H16S 7665   2.280   5.865   4.879 -5.0350  1.0155 -0.2141
   83SOPE  C217 7666   2.342   5.887   5.085 -0.2720 -0.0977 -0.2021
   83SOPE  H17R 7667   2.320   5.992   5.054 -0.1589 -0.1983 -0.6179
   83SOPE  H17S 7668   2.448   5.861   5.070 -0.3809 -1.0873  0.6055
   83SOPE  C218 7669   2.287   5.870   5.230  0.0717  0.0486 -0.6612
   83SOPE  H18R 7670   2.323   5.952   5.296 -2.3936 -0.2176  1.1724
   83SOPE  H18S 7671   2.317   5.775   5.278 -2.3915  0.4954  2.0378
   83SOPE  H18T 7672   2.176   5.872   5.234  0.0881 -0.9305  1.1530
   83SOPE   C33 7673   2.042   5.123   3.530 -0.7377  0.4052  0.3322
   83SOPE   H3X 7674   1.998   5.225   3.527  1.4129  1.3710 -1.2275
   83SOPE   H3Y 7675   2.151   5.124   3.547 -0.6261  0.8531 -0.3568
   83SOPE   C34 7676   1.978   5.040   3.644  0.0882 -0.3332 -0.3006
   83SOPE   H4X 7677   1.879   5.005   3.608 -0.1111  0.0561 -0.1318
   83SOPE   H4Y 7678   1.973   5.113   3.727 -1.6165  1.4243 -1.8330
   83SOPE   C35 7679   2.065   4.930   3.693 -0.2597  1.1598  0.1509
   83SOPE   H5X 7680   2.161   4.973   3.731  0.0187  0.1667  0.5893
   83SOPE   H5Y 7681   2.066   4.850   3.616 -0.7924 -0.6325  1.9332
   83SOPE   C36 7682   2.000   4.864   3.816 -0.6433  0.5639  0.4655
   83SOPE   H6X 7683   1.891   4.867   3.798 -0.9402 -1.7316  1.6021
   83SOPE   H6Y 7684   2.007   4.913   3.915 -0.6146 -2.0448  1.8189
   83SOPE   C37 7685   2.025   4.712   3.823  0.2593 -1.0468  0.1684
   83SOPE   H7X 7686   2.133   4.691   3.811  0.8662  2.7701 -2.6414
   83SOPE   H7Y 7687   1.972   4.658   3.741 -1.6346 -1.7862  1.7714
   83SOPE   C38 7688   1.954   4.659   3.951  0.0002 -0.4401 -0.4313
   83SOPE   H8X 7689   1.922   4.555   3.929  2.9033 -1.5629  0.2280
   83SOPE   H8Y 7690   1.864   4.722   3.970 -1.0874 -2.3378  1.0065
   83SOPE   C39 7691   2.042   4.648   4.076 -0.0732  0.2311 -0.0759
   83SOPE   H9X 7692   2.114   4.732   4.081  0.1445  0.0207  0.3785
   83SOPE   H9Y 7693   2.108   4.559   4.073 -1.2701 -0.7092  0.5220
   83SOPE  C310 7694   1.964   4.633   4.211  0.0724 -0.0457 -0.0455
   83SOPE  H10X 7695   1.898   4.551   4.173  0.9164 -0.1084 -1.4532
   83SOPE  H10Y 7696   1.908   4.727   4.226  1.5475  1.0019 -0.9080
   83SOPE  C311 7697   2.034   4.596   4.342  0.0384  0.2230  0.5110
   83SOPE  H11X 7698   2.109   4.515   4.328  1.3734  1.1990  1.7959
   83SOPE  H11Y 7699   1.958   4.559   4.414  0.8122 -1.9580  0.2805
   83SOPE  C312 7700   2.121   4.707   4.411 -0.0926 -0.4833 -0.1425
   83SOPE  H12X 7701   2.054   4.794   4.432  0.7785 -0.0112  0.7586
   83SOPE  H12Y 7702   2.199   4.729   4.335  0.8211 -0.6022  0.7356
   83SOPE  C313 7703   2.175   4.652   4.541  1.2281  0.3996  0.0950
   83SOPE  H13X 7704   2.215   4.549   4.530 -1.0980 -0.8426  2.1866
   83SOPE  H13Y 7705   2.082   4.641   4.601  1.4999 -2.5692  0.1090
   83SOPE  C314 7706   2.292   4.721   4.608  0.1790 -0.0423 -0.5647
   83SOPE  H14X 7707   2.273   4.826   4.635 -1.1593 -0.7013  1.2137
   83SOPE  H14Y 7708   2.350   4.726   4.513 -1.2622  2.5345 -1.4011
   83SOPE  C315 7709   2.356   4.645   4.720 -0.5497  0.2019 -0.2583
   83SOPE  H15X 7710   2.374   4.541   4.684 -2.4156 -1.7494  3.7504
   83SOPE  H15Y 7711   2.293   4.631   4.810  0.6884  2.3808  0.9992
   83SOPE  C316 7712   2.498   4.696   4.760  0.2887 -0.8517 -0.2905
   83SOPE  H16X 7713   2.485   4.785   4.825 -0.9510  0.6325 -2.4777
   83SOPE  H16Y 7714   2.552   4.728   4.669  0.3662 -1.0731 -0.3243
   83SOPE  C317 7715   2.584   4.606   4.841  0.0690  0.9418 -0.1123
   83SOPE  H17X 7716   2.684   4.650   4.864  0.7631 -0.3425 -0.5448
   83SOPE  H17Y 7717   2.612   4.516   4.782 -0.8294 -1.2537  2.6066
   83SOPE  C318 7718   2.512   4.543   4.964  0.0403 -0.9134  1.0750
   83SOPE  H18X 7719   2.431   4.472   4.937 -1.2158 -0.0175  2.3585
   83SOPE  H18Y 7720   2.463   4.618   5.029 -2.7780 -1.0029 -0.7542
   83SOPE  H18Z 7721   2.586   4.490   5.027 -1.5821 -3.3408  1.0610
   84SOPE     N 7722   0.444   4.219   7.255  0.0480 -0.0572  0.1448
   84SOPE   HN1 7723   0.362   4.181   7.307  0.1544 -0.9292 -0.3155
   84SOPE   HN2 7724   0.512   4.252   7.326  0.4289 -2.3128  0.8958
   84SOPE   HN3 7725   0.421   4.294   7.186  0.5798 -0.3529 -0.3611
   84SOPE   C12 7726   0.505   4.103   7.180  0.3770  0.2176  0.1708
   84SOPE  H12A 7727   0.585   4.144   7.116  1.3616 -1.0208  0.5692
   84SOPE  H12B 7728   0.425   4.058   7.117  1.8655 -1.8617 -0.3263
   84SOPE   C11 7729   0.560   4.003   7.273  0.2828 -0.4714 -1.2327
   84SOPE  H11A 7730   0.650   4.048   7.323 -0.5710  0.7670 -0.7504
   84SOPE  H11B 7731   0.571   3.910   7.213 -0.8028  0.5434 -3.1058
   84SOPE     P 7732   0.490   3.876   7.490 -0.1055  0.0006  0.3981
   84SOPE   O13 7733   0.377   3.871   7.584 -0.0148  0.2178  0.4093
   84SOPE   O14 7734   0.615   3.918   7.556 -0.5380  0.2269  0.9625
   84SOPE   O12 7735   0.456   3.975   7.372 -0.0568 -0.2893 -0.9758
   84SOPE   O11 7736   0.510   3.737   7.415  0.4646  0.3749  0.6150
   84SOPE    C1 7737   0.394   3.679   7.364  0.5633 -0.2022  0.3235
   84SOPE    HA 7738   0.317   3.751   7.328 -0.3480 -1.3423 -0.0441
   84SOPE    HB 7739   0.344   3.610   7.436  0.6909 -0.9608 -0.3075
   84SOPE    C2 7740   0.427   3.598   7.234 -0.3885  0.7353 -0.2931
   84SOPE    HS 7741   0.514   3.539   7.270  0.0240  1.1486 -0.5973
   84SOPE   O21 7742   0.451   3.695   7.130 -0.5816 -0.0856  0.3177
   84SOPE   C21 7743   0.527   3.652   7.037 -0.0931 -0.6011  0.2825
   84SOPE   O22 7744   0.583   3.542   7.029  0.5259  0.0192  0.4536
   84SOPE   C22 7745   0.552   3.768   6.944 -0.1653 -0.7535  0.0168
   84SOPE   H2R 7746   0.655   3.811   6.948 -0.5804  0.2972 -0.2552
   84SOPE   H2S 7747   0.505   3.856   6.993  2.9484  1.0729 -0.0025
   84SOPE    C3 7748   0.310   3.494   7.211  0.8466  0.9343 -0.0052
   84SOPE    HX 7749   0.212   3.543   7.196  1.8329  2.7688 -0.7955
   84SOPE    HY 7750   0.306   3.437   7.306  1.5957 -1.4803 -1.3626
   84SOPE   O31 7751   0.348   3.392   7.114  0.3230  0.1084  0.0147
   84SOPE   C31 7752   0.285   3.399   6.995 -0.0645 -0.1979  0.4702
   84SOPE   O32 7753   0.187   3.465   6.964  0.6232  0.4906  0.1405
   84SOPE   C32 7754   0.359   3.308   6.895 -0.3639 -0.9526 -0.2065
   84SOPE   H2X 7755   0.437   3.250   6.950 -0.0576 -0.3905 -0.0416
   84SOPE   H2Y 7756   0.393   3.385   6.823  0.1594 -0.7935  0.2010
   84SOPE   C23 7757   0.491   3.761   6.805  0.4035 -0.1760  0.3869
   84SOPE   H3R 7758   0.490   3.858   6.752 -0.5356 -0.3919 -0.0249
   84SOPE   H3S 7759   0.384   3.732   6.815  0.4693 -1.0378 -1.0577
   84SOPE   C24 7760   0.557   3.667   6.702 -0.5299 -0.5976  0.5064
   84SOPE   H4R 7761   0.668   3.671   6.704 -0.5270  0.2332 -0.5994
   84SOPE   H4S 7762   0.527   3.562   6.723  1.1051 -0.9175  1.4608
   84SOPE   C25 7763   0.515   3.702   6.559 -0.3312 -0.0977 -0.0249
   84SOPE   H5R 7764   0.407   3.680   6.558 -0.0566 -1.5023 -0.3336
   84SOPE   H5S 7765   0.547   3.807   6.540  0.4391 -0.0650  1.2509
   84SOPE   C26 7766   0.585   3.625   6.446  0.0773  0.4282  0.2313
   84SOPE   H6R 7767   0.693   3.651   6.439 -0.0638  0.9224 -0.2410
   84SOPE   H6S 7768   0.582   3.515   6.459 -0.0620  0.6867  3.0909
   84SOPE   C27 7769   0.517   3.669   6.319  0.1618  0.3508 -0.4535
   84SOPE   H7R 7770   0.420   3.615   6.311 -0.3811  0.9959  1.2322
   84SOPE   H7S 7771   0.504   3.779   6.324  1.5794  0.4833  1.8875
   84SOPE   C28 7772   0.593   3.633   6.191  0.2085  0.4221  0.5756
   84SOPE   H8R 7773   0.678   3.704   6.189 -0.2379  0.9913  1.3570
   84SOPE   H8S 7774   0.620   3.525   6.195  1.2334  0.6899  4.4901
   84SOPE   C29 7775   0.506   3.664   6.068  0.0368 -0.3828  0.4406
   84SOPE   H91 7776   0.412   3.716   6.094 -0.0390 -0.2749 -0.0424
   84SOPE  C210 7777   0.541   3.645   5.941  0.0773  0.2313 -0.0694
   84SOPE  H101 7778   0.476   3.677   5.858  0.3891  0.0340 -0.3910
   84SOPE  C211 7779   0.661   3.585   5.876  0.2211  0.1158 -0.3524
   84SOPE  H11R 7780   0.637   3.504   5.803  1.0843 -0.5808  0.1074
   84SOPE  H11S 7781   0.717   3.534   5.957  0.5540  0.4911 -0.3437
   84SOPE  C212 7782   0.747   3.697   5.816  0.0467  0.3669  0.0647
   84SOPE  H12R 7783   0.799   3.745   5.902 -1.8555 -0.4874  1.7874
   84SOPE  H12S 7784   0.694   3.784   5.771  2.2415  2.1119  0.6630
   84SOPE  C213 7785   0.850   3.631   5.716  0.0540 -0.7331 -0.6205
   84SOPE  H13R 7786   0.878   3.539   5.772  0.0119 -1.6259 -2.0175
   84SOPE  H13S 7787   0.936   3.701   5.712 -0.4937 -0.1093 -3.2597
   84SOPE  C214 7788   0.806   3.583   5.583  0.0887 -0.5369  0.0025
   84SOPE  H14R 7789   0.735   3.497   5.586 -0.1968 -0.2761  2.0531
   84SOPE  H14S 7790   0.893   3.544   5.526 -0.8483  1.1121 -2.7019
   84SOPE  C215 7791   0.757   3.692   5.481 -0.4305 -0.0368 -0.7584
   84SOPE  H15R 7792   0.828   3.777   5.487 -0.6315  0.1753 -1.2579
   84SOPE  H15S 7793   0.664   3.742   5.515 -2.3866 -3.2327 -0.9261
   84SOPE  C216 7794   0.745   3.642   5.335  0.2404 -0.0449  0.6727
   84SOPE  H16R 7795   0.675   3.556   5.332  0.8012 -0.4801 -0.4564
   84SOPE  H16S 7796   0.842   3.602   5.296  1.3848  2.1364  1.1302
   84SOPE  C217 7797   0.691   3.759   5.242 -0.2838 -0.2500 -0.2666
   84SOPE  H17R 7798   0.763   3.843   5.241  0.7477 -1.1111 -0.1024
   84SOPE  H17S 7799   0.591   3.788   5.282 -0.9638 -0.4434 -1.7739
   84SOPE  C218 7800   0.676   3.705   5.099  0.4805 -0.7374  0.1669
   84SOPE  H18R 7801   0.631   3.605   5.119  1.3666 -1.1817  0.0099
   84SOPE  H18S 7802   0.777   3.686   5.056 -0.3223 -0.1961 -2.0528
   84SOPE  H18T 7803   0.613   3.767   5.033 -0.7677 -0.0248  1.9701
   84SOPE   C33 7804   0.267   3.200   6.827 -0.1859 -0.7005  0.3014
   84SOPE   H3X 7805   0.190   3.248   6.762 -0.0004 -0.3119  0.3650
   84SOPE   H3Y 7806   0.213   3.139   6.902 -1.6561  0.2071  0.0275
   84SOPE   C34 7807   0.341   3.101   6.736  0.3923  0.2527  0.1376
   84SOPE   H4X 7808   0.285   3.005   6.736  1.1609 -0.2035  0.8328
   84SOPE   H4Y 7809   0.438   3.071   6.781 -0.2550 -2.4879 -0.1155
   84SOPE   C35 7810   0.372   3.156   6.591 -0.0536 -0.4381 -1.0942
   84SOPE   H5X 7811   0.458   3.101   6.548 -0.9691 -1.2625 -1.9246
   84SOPE   H5Y 7812   0.409   3.261   6.593  1.6678 -0.9932 -1.9001
   84SOPE   C36 7813   0.254   3.148   6.491  0.3651  0.4683 -1.1373
   84SOPE   H6X 7814   0.161   3.194   6.529  0.3452 -0.9061  0.6386
   84SOPE   H6Y 7815   0.220   3.043   6.481 -1.6966  1.0278 -0.4008
   84SOPE   C37 7816   0.294   3.196   6.353  0.2693 -0.5790  0.1955
   84SOPE   H7X 7817   0.391   3.147   6.333  1.2551 -0.1807  3.4301
   84SOPE   H7Y 7818   0.307   3.306   6.342 -0.7427 -0.5552 -0.9643
   84SOPE   C38 7819   0.198   3.157   6.244 -0.1363  1.1713 -0.4836
   84SOPE   H8X 7820   0.090   3.181   6.260 -0.9363 -0.5338 -2.7517
   84SOPE   H8Y 7821   0.210   3.047   6.236  0.8475  1.3674 -2.1131
   84SOPE   C39 7822   0.241   3.215   6.110 -0.2180 -0.8644 -0.0465
   84SOPE   H9X 7823   0.238   3.325   6.127  1.1614 -0.7023 -0.6633
   84SOPE   H9Y 7824   0.167   3.187   6.032 -1.9793  1.5906  0.6185
   84SOPE  C310 7825   0.384   3.181   6.059 -0.0018 -0.0794 -0.5711
   84SOPE  H10X 7826   0.371   3.073   6.034 -2.7790  0.1949 -0.5843
   84SOPE  H10Y 7827   0.462   3.192   6.137  1.0143 -0.0275 -1.5609
   84SOPE  C311 7828   0.442   3.266   5.942 -0.0522  0.5808  0.3050
   84SOPE  H11X 7829   0.541   3.228   5.910  0.0805  1.6068 -0.5510
   84SOPE  H11Y 7830   0.449   3.375   5.964 -2.8119  0.9789 -0.4567
   84SOPE  C312 7831   0.351   3.270   5.814  0.2360 -0.3319  0.1308
   84SOPE  H12X 7832   0.255   3.322   5.835  1.0590  1.6617 -0.7564
   84SOPE  H12Y 7833   0.326   3.166   5.785 -0.8752 -0.2417  0.7215
   84SOPE  C313 7834   0.412   3.337   5.689  0.9223  0.3888 -0.2674
   84SOPE  H13X 7835   0.513   3.300   5.661  0.3158 -0.8119 -0.9489
   84SOPE  H13Y 7836   0.416   3.440   5.730 -0.2077 -0.1869  1.3805
   84SOPE  C314 7837   0.305   3.318   5.574  0.3039 -0.1491  0.0487
   84SOPE  H14X 7838   0.213   3.371   5.607  0.7938 -1.3262  3.6743
   84SOPE  H14Y 7839   0.275   3.211   5.570  0.0104 -0.0411 -1.4273
   84SOPE  C315 7840   0.350   3.361   5.429  0.3599  0.1967  0.1140
   84SOPE  H15X 7841   0.440   3.303   5.400 -0.1524 -0.9051  0.6549
   84SOPE  H15Y 7842   0.389   3.465   5.425  2.1556 -0.4989 -1.6307
   84SOPE  C316 7843   0.250   3.339   5.317  0.5708  0.5549 -0.0262
   84SOPE  H16X 7844   0.150   3.381   5.344 -0.3860 -0.4041 -1.8264
   84SOPE  H16Y 7845   0.226   3.232   5.297  1.6562  0.6368 -2.1134
   84SOPE  C317 7846   0.296   3.396   5.182  0.2753  0.5248  0.4323
   84SOPE  H17X 7847   0.384   3.337   5.150  0.7767  1.5356 -0.1245
   84SOPE  H17Y 7848   0.331   3.502   5.191 -0.1434  0.8834 -1.6227
   84SOPE  C318 7849   0.200   3.390   5.065  0.4471  0.4262  0.1848
   84SOPE  H18X 7850   0.121   3.467   5.079  0.4366  0.4043  0.2475
   84SOPE  H18Y 7851   0.175   3.284   5.046  0.9727  0.1430  1.0079
   84SOPE  H18Z 7852   0.266   3.423   4.982 -1.9844  1.4938 -1.4429
   85SOPE     N 7853   6.178   3.833   2.436 -0.1598  0.1018 -0.0037
   85SOPE   HN1 7854   6.216   3.780   2.517 -0.8463  0.4806  0.5794
   85SOPE   HN2 7855   6.145   3.775   2.357  2.3941 -1.3214 -0.1249
   85SOPE   HN3 7856   6.255   3.892   2.398 -0.1581 -0.2205 -0.4951
   85SOPE   C12 7857   6.054   3.908   2.483 -0.7291 -0.4107 -0.0219
   85SOPE  H12A 7858   5.984   3.832   2.525  2.6829 -2.6004  2.2102
   85SOPE  H12B 7859   6.019   3.967   2.396  2.7327  3.9608  1.1898
   85SOPE   C11 7860   6.086   4.003   2.604  0.2642  0.3295  0.3850
   85SOPE  H11A 7861   6.123   3.937   2.686 -0.0916  0.0036  0.2877
   85SOPE  H11B 7862   6.002   4.060   2.649 -0.6143 -0.6847  0.0755
   85SOPE     P 7863   6.170   4.226   2.487 -0.1631  0.3255  0.1867
   85SOPE   O13 7864   6.059   4.212   2.399  0.2391  0.4711  0.5179
   85SOPE   O14 7865   6.295   4.273   2.435  0.0053  0.0608 -0.1047
   85SOPE   O12 7866   6.193   4.088   2.557 -0.1104  0.3515  0.6670
   85SOPE   O11 7867   6.132   4.318   2.611 -0.1749 -0.2980  0.9804
   85SOPE    C1 7868   6.210   4.314   2.731 -0.2846 -0.5378 -0.1411
   85SOPE    HA 7869   6.213   4.421   2.762  0.6007 -0.2585 -1.1223
   85SOPE    HB 7870   6.313   4.280   2.710 -0.6783 -1.3715 -0.7902
   85SOPE    C2 7871   6.143   4.239   2.853  0.1864  0.0337  0.1433
   85SOPE    HS 7872   6.108   4.145   2.806  1.2062 -0.1159 -0.3378
   85SOPE   O21 7873   6.038   4.321   2.917 -0.2187  0.3004  0.5174
   85SOPE   C21 7874   5.939   4.251   2.972 -0.3219 -0.0521  0.7547
   85SOPE   O22 7875   5.932   4.128   2.975 -0.5681 -0.2616  0.1689
   85SOPE   C22 7876   5.826   4.342   3.020 -0.0002 -0.1199  0.0696
   85SOPE   H2R 7877   5.756   4.361   2.936 -0.1809 -2.7055 -0.4734
   85SOPE   H2S 7878   5.871   4.439   3.048  0.0475 -0.4079  1.0382
   85SOPE    C3 7879   6.259   4.212   2.965  0.0155  0.8414 -0.4577
   85SOPE    HX 7880   6.313   4.307   2.985  3.1042 -0.7023 -0.9101
   85SOPE    HY 7881   6.318   4.136   2.909  0.5968 -0.4504  1.7653
   85SOPE   O31 7882   6.219   4.164   3.088 -0.0846  0.0660 -0.2118
   85SOPE   C31 7883   6.189   4.033   3.094 -0.2392  0.0802  0.9198
   85SOPE   O32 7884   6.189   3.955   3.002 -0.2121  0.2904 -0.2179
   85SOPE   C32 7885   6.144   4.003   3.238  0.6229  0.4652 -0.1326
   85SOPE   H2X 7886   6.035   4.024   3.239  0.6384  0.5492  0.1853
   85SOPE   H2Y 7887   6.199   4.070   3.308 -1.3743 -0.1956  2.2496
   85SOPE   C23 7888   5.743   4.282   3.139  0.5415 -0.6100  0.6206
   85SOPE   H3R 7889   5.687   4.188   3.119  1.7175 -0.9540 -1.3782
   85SOPE   H3S 7890   5.675   4.369   3.146 -0.5710 -1.3793 -0.3635
   85SOPE   C24 7891   5.814   4.272   3.274 -0.7591 -0.5559  0.8035
   85SOPE   H4R 7892   5.905   4.209   3.276  0.2105  0.7433 -0.2707
   85SOPE   H4S 7893   5.856   4.373   3.295  0.7279 -1.2588  1.3547
   85SOPE   C25 7894   5.718   4.230   3.374 -0.3547 -0.2976  0.4378
   85SOPE   H5R 7895   5.621   4.285   3.369 -0.2927 -0.3012 -1.7092
   85SOPE   H5S 7896   5.695   4.123   3.358  0.7395 -0.4970  0.1773
   85SOPE   C26 7897   5.768   4.266   3.521  0.9492  0.7655  0.7138
   85SOPE   H6R 7898   5.877   4.247   3.525  0.8966 -0.9963 -2.4934
   85SOPE   H6S 7899   5.757   4.374   3.543  0.1785  1.1169 -1.1334
   85SOPE   C27 7900   5.684   4.177   3.619  0.2655 -0.1880  0.1718
   85SOPE   H7R 7901   5.597   4.139   3.561 -0.7230  0.0572  1.4310
   85SOPE   H7S 7902   5.727   4.085   3.665 -2.0331 -0.9166  1.0231
   85SOPE   C28 7903   5.641   4.263   3.740  0.0553 -0.2552 -0.5514
   85SOPE   H8R 7904   5.622   4.365   3.701  0.6088  0.5157  1.0914
   85SOPE   H8S 7905   5.544   4.228   3.781 -0.3491  1.9533  0.5817
   85SOPE   C29 7906   5.748   4.271   3.850  0.4069 -0.3618  0.0020
   85SOPE   H91 7907   5.851   4.272   3.814  0.4788 -0.9502  0.1822
   85SOPE  C210 7908   5.735   4.285   3.986 -0.2822 -0.6369  0.2135
   85SOPE  H101 7909   5.821   4.275   4.053  1.2492 -0.5630 -1.6477
   85SOPE  C211 7910   5.607   4.271   4.053 -0.1108  0.0760  0.2379
   85SOPE  H11R 7911   5.527   4.219   3.996 -0.0267  1.4591 -1.1891
   85SOPE  H11S 7912   5.568   4.369   4.088 -1.0369 -0.0893 -0.3048
   85SOPE  C212 7913   5.598   4.177   4.181 -0.1419  0.0815 -0.3251
   85SOPE  H12R 7914   5.615   4.069   4.165  0.6425  0.1600 -0.0291
   85SOPE  H12S 7915   5.493   4.189   4.216 -0.1860  0.2343 -0.5041
   85SOPE  C213 7916   5.687   4.226   4.291 -0.1333  0.4450  0.4329
   85SOPE  H13R 7917   5.659   4.332   4.304  1.0528  0.6938  1.0457
   85SOPE  H13S 7918   5.788   4.218   4.246 -0.0774 -0.5648  0.7091
   85SOPE  C214 7919   5.684   4.151   4.423  1.3525  0.1955  0.1478
   85SOPE  H14R 7920   5.780   4.158   4.479  1.6361 -0.8950 -0.1922
   85SOPE  H14S 7921   5.654   4.050   4.390 -1.0572  0.3567  1.6735
   85SOPE  C215 7922   5.568   4.213   4.515  0.5511  0.1532  0.0515
   85SOPE  H15R 7923   5.542   4.131   4.586 -1.7414 -0.4510 -1.3694
   85SOPE  H15S 7924   5.479   4.226   4.450 -1.0831 -4.0808  1.1288
   85SOPE  C216 7925   5.614   4.341   4.586  0.3245  0.2686  0.4457
   85SOPE  H16R 7926   5.596   4.424   4.515 -0.1324 -1.3883 -1.4500
   85SOPE  H16S 7927   5.724   4.346   4.600 -0.0609  2.3775  3.9931
   85SOPE  C217 7928   5.551   4.363   4.722  0.2790  0.2910 -0.3138
   85SOPE  H17R 7929   5.555   4.268   4.780 -0.6015  1.2656  1.4636
   85SOPE  H17S 7930   5.441   4.378   4.720  0.0158 -1.4393 -0.7279
   85SOPE  C218 7931   5.622   4.470   4.806  0.2938 -0.5626  0.5612
   85SOPE  H18R 7932   5.553   4.490   4.892 -1.7066  0.8924 -1.2666
   85SOPE  H18S 7933   5.622   4.569   4.755 -0.5964  0.2741  2.1012
   85SOPE  H18T 7934   5.721   4.435   4.841 -0.1398 -2.4153  0.0447
   85SOPE   C33 7935   6.148   3.858   3.290 -0.1959  0.5058 -0.1917
   85SOPE   H3X 7936   6.253   3.826   3.308 -0.7265 -2.1320 -1.2948
   85SOPE   H3Y 7937   6.130   3.781   3.212  1.4627 -0.3907  0.2595
   85SOPE   C34 7938   6.057   3.832   3.413  0.2684 -0.4521 -0.8621
   85SOPE   H4X 7939   6.033   3.724   3.406  2.7830 -1.0415 -1.7502
   85SOPE   H4Y 7940   5.960   3.883   3.395  0.9746  1.0023 -0.7270
   85SOPE   C35 7941   6.117   3.887   3.539  0.3009 -0.4460  0.3544
   85SOPE   H5X 7942   6.163   3.988   3.527 -0.6390  0.0692  0.9528
   85SOPE   H5Y 7943   6.198   3.813   3.555 -0.6302 -1.2076  1.7259
   85SOPE   C36 7944   6.014   3.890   3.650  0.2813  0.9122 -0.0555
   85SOPE   H6X 7945   5.947   3.802   3.644  1.7918 -0.1799 -2.7101
   85SOPE   H6Y 7946   5.953   3.980   3.632 -0.7038  0.4355  0.8197
   85SOPE   C37 7947   6.069   3.910   3.794  0.4218 -0.0961  0.2593
   85SOPE   H7X 7948   6.116   4.010   3.805 -0.8138  0.3944  1.2947
   85SOPE   H7Y 7949   6.149   3.834   3.800 -2.4947 -3.5144 -0.9084
   85SOPE   C38 7950   5.960   3.873   3.899 -0.2364  1.0366  0.3257
   85SOPE   H8X 7951   5.877   3.946   3.891 -0.8693  0.2058 -0.9494
   85SOPE   H8Y 7952   5.997   3.881   4.004  3.1114 -2.1402 -0.3634
   85SOPE   C39 7953   5.902   3.727   3.898  0.4322  0.6582  0.7880
   85SOPE   H9X 7954   5.984   3.661   3.935  1.6573  0.4943 -2.0316
   85SOPE   H9Y 7955   5.870   3.705   3.794 -3.0514  1.2632  1.6103
   85SOPE  C310 7956   5.780   3.708   3.989  0.3895 -0.2353 -0.0094
   85SOPE  H10X 7957   5.752   3.601   3.976 -0.1739 -0.1083  0.1087
   85SOPE  H10Y 7958   5.700   3.777   3.955  0.4219 -0.0830  0.2216
   85SOPE  C311 7959   5.806   3.736   4.138 -0.3896  0.0706  0.0045
   85SOPE  H11X 7960   5.715   3.698   4.188  0.3649 -0.4688  1.0066
   85SOPE  H11Y 7961   5.807   3.846   4.158 -3.0702  0.2429 -0.3706
   85SOPE  C312 7962   5.932   3.658   4.193  0.2660 -0.3627 -0.0597
   85SOPE  H12X 7963   6.027   3.696   4.150  2.1503 -0.7028  3.4140
   85SOPE  H12Y 7964   5.918   3.550   4.175  0.8432 -0.2743 -1.1077
   85SOPE  C313 7965   5.945   3.678   4.350  0.3691  0.0004 -0.5025
   85SOPE  H13X 7966   5.840   3.660   4.380  0.4414 -1.1342 -0.8552
   85SOPE  H13Y 7967   5.990   3.772   4.387  1.0826 -0.8550  0.8816
   85SOPE  C314 7968   6.025   3.567   4.418 -0.5364  0.6021 -0.3919
   85SOPE  H14X 7969   6.001   3.465   4.380 -1.7166  0.7550 -0.0864
   85SOPE  H14Y 7970   6.001   3.573   4.527 -0.8877 -0.8515 -0.3632
   85SOPE  C315 7971   6.175   3.587   4.395 -0.5793 -0.3668  0.2736
   85SOPE  H15X 7972   6.195   3.691   4.429 -2.3281  0.6935 -1.7233
   85SOPE  H15Y 7973   6.196   3.571   4.287 -2.5403  1.9823 -0.5397
   85SOPE  C316 7974   6.282   3.509   4.482  0.1819  0.0562  1.0314
   85SOPE  H16X 7975   6.270   3.400   4.461  1.1557  0.0390  0.4957
   85SOPE  H16Y 7976   6.269   3.527   4.590 -1.2138  0.1139  0.8749
   85SOPE  C317 7977   6.429   3.543   4.439  0.0659 -0.1516 -0.0780
   85SOPE  H17X 7978   6.450   3.640   4.490  0.1066 -1.4026  2.4677
   85SOPE  H17Y 7979   6.431   3.550   4.328 -0.1806  0.0532 -0.0726
   85SOPE  C318 7980   6.522   3.442   4.498  0.1389  0.0706  0.2510
   85SOPE  H18X 7981   6.512   3.336   4.466 -0.3441 -0.8798  3.2693
   85SOPE  H18Y 7982   6.499   3.439   4.606  0.4344 -3.5045  0.3391
   85SOPE  H18Z 7983   6.632   3.463   4.492  1.0779 -4.0981  0.0624
   86SOPE     N 7984   1.073   2.162   2.744  0.2217 -0.1543  0.0298
   86SOPE   HN1 7985   1.087   2.233   2.819  0.2793  0.2018 -0.3176
   86SOPE   HN2 7986   1.137   2.197   2.670  0.0617 -0.0549 -0.0606
   86SOPE   HN3 7987   0.975   2.168   2.711 -0.4173 -3.3006  0.9726
   86SOPE   C12 7988   1.110   2.025   2.789 -0.1268 -0.3885 -0.4701
   86SOPE  H12A 7989   1.055   1.949   2.729  1.4862 -0.1902 -2.3026
   86SOPE  H12B 7990   1.080   2.011   2.895  2.3317 -0.4019  0.2741
   86SOPE   C11 7991   1.265   2.002   2.785  0.0129  0.3867 -0.5073
   86SOPE  H11A 7992   1.284   1.996   2.676  0.6074  3.2524 -0.6449
   86SOPE  H11B 7993   1.300   1.919   2.851 -0.1571  0.0346 -0.8597
   86SOPE     P 7994   1.400   2.153   2.973  0.0158 -0.2441  0.2350
   86SOPE   O13 7995   1.296   2.188   3.070  0.4153  0.0658  0.3900
   86SOPE   O14 7996   1.508   2.252   2.946  0.1770 -0.1424 -0.5089
   86SOPE   O12 7997   1.336   2.119   2.829 -0.3371 -0.1645 -0.3676
   86SOPE   O11 7998   1.469   2.011   3.012 -0.4477 -0.1583 -0.6035
   86SOPE    C1 7999   1.575   1.940   2.959 -0.2811  1.0065 -0.5047
   86SOPE    HA 8000   1.649   2.016   2.925 -1.6913  2.4266 -0.5547
   86SOPE    HB 8001   1.540   1.876   2.875 -1.7475  1.0894  0.0104
   86SOPE    C2 8002   1.651   1.857   3.072  0.6280 -0.2136 -0.2996
   86SOPE    HS 8003   1.682   1.755   3.041 -0.9384 -0.0160 -2.7905
   86SOPE   O21 8004   1.568   1.842   3.192 -0.1621  0.5318  0.3896
   86SOPE   C21 8005   1.470   1.742   3.179 -0.1414  0.0610 -0.0609
   86SOPE   O22 8006   1.459   1.672   3.080  0.1695  0.3990 -0.0387
   86SOPE   C22 8007   1.394   1.733   3.312 -0.9797 -0.5658 -0.3073
   86SOPE   H2R 8008   1.434   1.638   3.353 -1.2317 -1.1085 -1.2811
   86SOPE   H2S 8009   1.288   1.708   3.285  0.0501 -2.4368 -3.1471
   86SOPE    C3 8010   1.783   1.923   3.105 -0.2967 -0.3768 -0.3402
   86SOPE    HX 8011   1.765   2.018   3.159 -2.2676 -1.5750  1.2814
   86SOPE    HY 8012   1.840   1.956   3.015  0.9993 -2.6521 -0.4538
   86SOPE   O31 8013   1.854   1.832   3.198 -0.0227  0.1973  0.0985
   86SOPE   C31 8014   1.962   1.891   3.241 -0.1082 -0.2177  0.0098
   86SOPE   O32 8015   2.009   1.992   3.198 -0.4178  0.0383  0.0816
   86SOPE   C32 8016   2.012   1.812   3.366 -0.5173 -0.6742  0.2215
   86SOPE   H2X 8017   2.079   1.739   3.315 -1.9160 -3.8216  2.5750
   86SOPE   H2Y 8018   1.923   1.760   3.405 -0.3917 -0.6580  0.5311
   86SOPE   C23 8019   1.410   1.859   3.396  0.2156 -0.2729  0.1375
   86SOPE   H3R 8020   1.373   1.944   3.335  1.0453 -0.4569 -0.6315
   86SOPE   H3S 8021   1.513   1.872   3.436  0.7088 -1.0864 -0.8393
   86SOPE   C24 8022   1.307   1.867   3.516  0.5590  0.1840  0.7775
   86SOPE   H4R 8023   1.316   1.975   3.541  1.9028  0.5698 -1.1497
   86SOPE   H4S 8024   1.199   1.854   3.494  0.4875  1.4905  0.2204
   86SOPE   C25 8025   1.347   1.779   3.634 -0.6995 -0.0592  0.0164
   86SOPE   H5R 8026   1.349   1.674   3.598 -0.3039 -1.1943  3.0613
   86SOPE   H5S 8027   1.455   1.795   3.654 -0.4607 -0.7795 -0.6335
   86SOPE   C26 8028   1.271   1.802   3.759  0.2713 -0.4428  0.2044
   86SOPE   H6R 8029   1.274   1.910   3.787  1.4094 -0.3240 -0.3059
   86SOPE   H6S 8030   1.163   1.790   3.737 -0.1371 -0.9830  2.3360
   86SOPE   C27 8031   1.296   1.706   3.876 -0.1713  0.1430 -0.0832
   86SOPE   H7R 8032   1.257   1.603   3.858  2.3392 -0.7609 -0.7776
   86SOPE   H7S 8033   1.407   1.697   3.887 -0.0851  1.7999  0.6986
   86SOPE   C28 8034   1.232   1.747   4.010 -0.0941  1.0912 -0.7607
   86SOPE   H8R 8035   1.276   1.848   4.017  4.5606 -0.7077  0.0409
   86SOPE   H8S 8036   1.122   1.755   3.995 -0.3930  1.4922  1.2730
   86SOPE   C29 8037   1.269   1.639   4.109  0.1961 -0.2313 -0.3277
   86SOPE   H91 8038   1.227   1.539   4.093  0.7530 -0.2792 -1.5629
   86SOPE  C210 8039   1.341   1.669   4.226 -0.1644  0.2068  0.1886
   86SOPE  H101 8040   1.370   1.579   4.283  1.8184  0.6877  0.0058
   86SOPE  C211 8041   1.384   1.804   4.279 -0.1091 -0.5927  0.2909
   86SOPE  H11R 8042   1.313   1.877   4.234 -1.4566 -3.2967 -2.3022
   86SOPE  H11S 8043   1.481   1.830   4.231 -1.8656  3.8890 -1.4244
   86SOPE  C212 8044   1.383   1.814   4.429 -0.3001 -0.3634  0.6811
   86SOPE  H12R 8045   1.279   1.824   4.466 -0.2065  0.7698  0.6963
   86SOPE  H12S 8046   1.424   1.914   4.456  0.0572 -0.2347 -0.2871
   86SOPE  C213 8047   1.462   1.708   4.517  0.1341  0.9468  0.0352
   86SOPE  H13R 8048   1.551   1.688   4.453 -0.6699  1.0036 -1.1170
   86SOPE  H13S 8049   1.405   1.614   4.534  0.5077  0.5795 -0.6703
   86SOPE  C214 8050   1.511   1.756   4.654  0.9263 -0.2494  0.4205
   86SOPE  H14R 8051   1.573   1.847   4.640 -1.6337  1.5768  0.3282
   86SOPE  H14S 8052   1.588   1.682   4.686  0.0009 -0.3921  2.5227
   86SOPE  C215 8053   1.404   1.767   4.764  0.7229  0.5605 -0.0699
   86SOPE  H15R 8054   1.333   1.683   4.775  0.6485  0.5901 -0.3171
   86SOPE  H15S 8055   1.348   1.859   4.738  1.5812  1.0352 -0.2959
   86SOPE  C216 8056   1.470   1.795   4.898  0.0647  0.1303  0.3207
   86SOPE  H16R 8057   1.523   1.892   4.901  0.5763 -0.1543  0.6569
   86SOPE  H16S 8058   1.556   1.726   4.912 -0.1945  0.1048  2.0913
   86SOPE  C217 8059   1.380   1.788   5.021  0.7428 -0.5654 -0.5913
   86SOPE  H17R 8060   1.297   1.861   5.016  1.1193 -0.0694  0.1738
   86SOPE  H17S 8061   1.445   1.837   5.097  1.4306  3.4285 -3.4558
   86SOPE  C218 8062   1.334   1.657   5.065 -0.0856  0.9297 -0.3095
   86SOPE  H18R 8063   1.248   1.628   5.000  0.7989  0.9993 -1.5566
   86SOPE  H18S 8064   1.303   1.657   5.171 -2.3886 -1.3034 -0.8829
   86SOPE  H18T 8065   1.412   1.579   5.055 -0.5950  0.3594  0.0773
   86SOPE   C33 8066   2.076   1.921   3.465  0.6176  0.0761 -0.4516
   86SOPE   H3X 8067   2.029   2.021   3.454  2.0366  0.7086 -1.0729
   86SOPE   H3Y 8068   2.184   1.919   3.436  0.6519  3.7866 -1.0384
   86SOPE   C34 8069   2.066   1.884   3.619  0.1852  0.9894  0.5668
   86SOPE   H4X 8070   1.957   1.886   3.640 -0.2191 -1.0056 -1.0184
   86SOPE   H4Y 8071   2.126   1.958   3.675  0.9800  1.3394 -0.6952
   86SOPE   C35 8072   2.113   1.742   3.637 -0.4414  0.5816 -0.1858
   86SOPE   H5X 8073   2.211   1.735   3.584 -0.4882 -0.4787 -0.1596
   86SOPE   H5Y 8074   2.047   1.669   3.587 -0.8787 -1.0431  2.5378
   86SOPE   C36 8075   2.109   1.698   3.786 -0.6441  0.9095 -0.2657
   86SOPE   H6X 8076   2.106   1.589   3.805  0.4929  0.9737  0.4089
   86SOPE   H6Y 8077   2.015   1.741   3.825 -0.7753  0.0824  0.3471
   86SOPE   C37 8078   2.209   1.765   3.877 -0.2086 -0.5903  0.3866
   86SOPE   H7X 8079   2.208   1.876   3.872 -0.6592 -0.5999  0.2945
   86SOPE   H7Y 8080   2.315   1.746   3.849  0.4580  2.7131  0.2133
   86SOPE   C38 8081   2.183   1.730   4.021 -0.0348  0.1387 -0.1366
   86SOPE   H8X 8082   2.153   1.623   4.025  1.1076 -0.1507  1.2155
   86SOPE   H8Y 8083   2.108   1.794   4.073  0.1822 -0.1871  0.5888
   86SOPE   C39 8084   2.319   1.731   4.105 -0.4933  0.1730 -0.1511
   86SOPE   H9X 8085   2.383   1.819   4.083 -0.2588 -0.3987 -1.8912
   86SOPE   H9Y 8086   2.390   1.649   4.082  0.3580  0.1008  2.3881
   86SOPE  C310 8087   2.288   1.713   4.257  0.2060 -0.0480  0.0649
   86SOPE  H10X 8088   2.219   1.627   4.269  0.3003 -0.0968  0.2646
   86SOPE  H10Y 8089   2.248   1.806   4.303 -1.0281 -0.7818  0.5221
   86SOPE  C311 8090   2.414   1.665   4.343  0.1529 -0.0017 -0.1113
   86SOPE  H11X 8091   2.494   1.740   4.322  1.0599 -1.1075 -0.7220
   86SOPE  H11Y 8092   2.453   1.567   4.309 -0.5522 -0.2812 -0.1137
   86SOPE  C312 8093   2.365   1.654   4.492  0.1273 -1.0527 -0.1222
   86SOPE  H12X 8094   2.298   1.570   4.520 -1.2896  0.8707  2.7476
   86SOPE  H12Y 8095   2.312   1.750   4.511  1.6115 -0.4487  1.0941
   86SOPE  C313 8096   2.472   1.649   4.598 -0.1933  0.1517  0.0975
   86SOPE  H13X 8097   2.533   1.741   4.585  1.5431 -1.0422 -0.5333
   86SOPE  H13Y 8098   2.537   1.560   4.587  1.1025  1.1935 -1.1344
   86SOPE  C314 8099   2.436   1.644   4.739  0.3300 -0.7886  0.4908
   86SOPE  H14X 8100   2.390   1.546   4.765  0.5398 -0.9643  0.1930
   86SOPE  H14Y 8101   2.349   1.713   4.748 -0.6223 -1.7092 -1.2074
   86SOPE  C315 8102   2.547   1.673   4.850  0.1391 -0.0292  0.4962
   86SOPE  H15X 8103   2.611   1.753   4.807 -1.3595  0.2304 -1.3795
   86SOPE  H15Y 8104   2.616   1.587   4.854 -0.2541 -0.3915 -0.3460
   86SOPE  C316 8105   2.473   1.708   4.982  0.4549 -0.3723 -0.2087
   86SOPE  H16X 8106   2.427   1.609   5.002 -0.4006 -0.1535 -1.0503
   86SOPE  H16Y 8107   2.393   1.782   4.963  2.3964  2.1802  0.8780
   86SOPE  C317 8108   2.569   1.741   5.100  0.0003 -0.2792  0.2058
   86SOPE  H17X 8109   2.617   1.838   5.079  0.5723 -0.6285 -0.1191
   86SOPE  H17Y 8110   2.651   1.667   5.110 -0.8048 -1.3477 -0.8115
   86SOPE  C318 8111   2.497   1.721   5.237 -0.2968  0.2755  0.3978
   86SOPE  H18X 8112   2.432   1.808   5.263  2.5461  2.0754  1.9176
   86SOPE  H18Y 8113   2.579   1.716   5.311  0.2279  2.0015 -0.0085
   86SOPE  H18Z 8114   2.445   1.623   5.238 -0.6456  0.4644  1.2443
   87SOPE     N 8115   2.420   0.344   2.668 -0.3151  0.5416 -0.0533
   87SOPE   HN1 8116   2.440   0.425   2.729  0.0246  1.3598 -1.2075
   87SOPE   HN2 8117   2.512   0.302   2.642  0.0176 -0.0459  1.9031
   87SOPE   HN3 8118   2.378   0.369   2.576 -0.7852  0.2882  0.0869
   87SOPE   C12 8119   2.339   0.238   2.738 -0.1708 -0.0793  0.9155
   87SOPE  H12A 8120   2.326   0.146   2.677 -0.9712 -0.4508  1.6322
   87SOPE  H12B 8121   2.240   0.276   2.772 -0.8797 -1.7068  0.7668
   87SOPE   C11 8122   2.401   0.202   2.878 -0.5929 -0.4192  0.7902
   87SOPE  H11A 8123   2.505   0.171   2.855 -0.6814 -0.0696 -0.1160
   87SOPE  H11B 8124   2.347   0.115   2.920 -0.2835 -0.9510  0.1114
   87SOPE     P 8125   2.488   0.423   2.998  0.0685  0.0539  0.4181
   87SOPE   O13 8126   2.514   0.493   2.868  0.0246  0.2185  0.4223
   87SOPE   O14 8127   2.608   0.370   3.071  0.1413 -0.5596 -0.1627
   87SOPE   O12 8128   2.382   0.301   2.980 -0.0818 -0.4341  0.7622
   87SOPE   O11 8129   2.404   0.517   3.090  0.5602  0.4049  0.7947
   87SOPE    C1 8130   2.269   0.548   3.047 -0.2486 -0.2525 -0.1309
   87SOPE    HA 8131   2.230   0.496   2.957 -0.8788 -0.6361  0.3583
   87SOPE    HB 8132   2.278   0.657   3.027  1.0686  0.0139  1.6402
   87SOPE    C2 8133   2.162   0.519   3.158 -0.5529 -0.1105 -0.3223
   87SOPE    HS 8134   2.080   0.594   3.154  0.1328  0.6022 -1.2216
   87SOPE   O21 8135   2.220   0.510   3.290 -0.0790  0.9376  0.3578
   87SOPE   C21 8136   2.269   0.623   3.337 -0.0494  0.2540 -0.0734
   87SOPE   O22 8137   2.228   0.734   3.304 -0.2589  0.2617  0.3914
   87SOPE   C22 8138   2.373   0.596   3.446 -0.1428 -0.2037 -0.6537
   87SOPE   H2R 8139   2.408   0.693   3.485 -1.8202  0.3976 -0.5706
   87SOPE   H2S 8140   2.459   0.553   3.390  0.4385  1.6383 -1.2493
   87SOPE    C3 8141   2.080   0.386   3.123 -0.0785 -0.0527  0.7168
   87SOPE    HX 8142   2.138   0.294   3.145 -1.9019 -1.6767 -0.9976
   87SOPE    HY 8143   2.060   0.377   3.014  0.6991 -1.4092  0.6575
   87SOPE   O31 8144   1.966   0.378   3.215 -0.0936 -0.2785  0.3395
   87SOPE   C31 8145   1.855   0.439   3.180  0.0632 -0.5392  1.0855
   87SOPE   O32 8146   1.835   0.504   3.077  0.4036 -0.5413  0.2482
   87SOPE   C32 8147   1.756   0.425   3.297 -0.2125 -0.9367  0.1320
   87SOPE   H2X 8148   1.703   0.330   3.281 -2.1871  0.4383 -2.0979
   87SOPE   H2Y 8149   1.670   0.495   3.291 -1.5042 -2.4488  0.3886
   87SOPE   C23 8150   2.323   0.499   3.558  0.3126  0.3552 -0.8992
   87SOPE   H3R 8151   2.251   0.426   3.517 -2.2855  1.7524  0.8942
   87SOPE   H3S 8152   2.272   0.564   3.633  1.7041  0.4645 -0.0156
   87SOPE   C24 8153   2.438   0.426   3.620  0.0385 -0.2354 -0.7340
   87SOPE   H4R 8154   2.487   0.359   3.546 -1.0882 -2.0558  0.0732
   87SOPE   H4S 8155   2.502   0.511   3.649 -2.7439  2.5173 -2.0568
   87SOPE   C25 8156   2.395   0.342   3.745  0.1084 -0.4798 -0.5800
   87SOPE   H5R 8157   2.337   0.395   3.824  1.5084 -2.0681  1.6619
   87SOPE   H5S 8158   2.332   0.257   3.709  2.3763 -1.5924 -2.1588
   87SOPE   C26 8159   2.509   0.274   3.819 -0.5839 -0.1568 -0.4436
   87SOPE   H6R 8160   2.569   0.220   3.742  1.4253 -0.3867  1.1836
   87SOPE   H6S 8161   2.566   0.352   3.874 -0.2815 -0.5591 -0.1787
   87SOPE   C27 8162   2.455   0.169   3.914 -0.3394  0.3895 -0.4617
   87SOPE   H7R 8163   2.381   0.104   3.863  1.3189 -3.5393  1.6364
   87SOPE   H7S 8164   2.533   0.093   3.939  0.0879  1.0678  0.3431
   87SOPE   C28 8165   2.397   0.231   4.045  0.3065 -0.1816 -0.4095
   87SOPE   H8R 8166   2.460   0.315   4.081 -0.7041  0.8849 -1.0458
   87SOPE   H8S 8167   2.295   0.264   4.018  0.7771 -0.1576 -2.3363
   87SOPE   C29 8168   2.384   0.126   4.156  0.4731  0.0379 -0.6725
   87SOPE   H91 8169   2.458   0.119   4.236 -1.0853 -2.9192  0.6841
   87SOPE  C210 8170   2.280   0.042   4.174  0.4061  0.1085  0.2031
   87SOPE  H101 8171   2.277  -0.033   4.254  1.2913 -1.2310 -0.9578
   87SOPE  C211 8172   2.167   0.043   4.075  0.1483 -0.4206  0.7976
   87SOPE  H11R 8173   2.163  -0.042   4.004 -2.3810 -1.3340  1.8985
   87SOPE  H11S 8174   2.152   0.138   4.018 -0.6978 -1.1621 -0.2483
   87SOPE  C212 8175   2.036   0.040   4.160 -0.0345  0.0803  0.5491
   87SOPE  H12R 8176   2.048   0.104   4.250 -1.5363 -2.4379  2.6811
   87SOPE  H12S 8177   2.035  -0.069   4.185  2.8604 -0.5913 -1.6781
   87SOPE  C213 8178   1.909   0.070   4.075  0.8133 -0.6558  0.4352
   87SOPE  H13R 8179   1.893  -0.005   3.995  0.8692  0.8420 -1.0440
   87SOPE  H13S 8180   1.929   0.165   4.021 -1.4194 -1.4771 -2.0577
   87SOPE  C214 8181   1.784   0.084   4.164 -0.7714 -0.0264  0.0081
   87SOPE  H14R 8182   1.714   0.163   4.130 -1.9068 -0.9110  0.2553
   87SOPE  H14S 8183   1.812   0.110   4.269 -0.1436  1.0631 -0.4086
   87SOPE  C215 8184   1.711  -0.046   4.171  0.1844  0.4928 -0.0578
   87SOPE  H15R 8185   1.789  -0.125   4.172 -0.1966  0.1134  0.7943
   87SOPE  H15S 8186   1.646  -0.069   4.084 -1.0883 -0.2161  1.0339
   87SOPE  C216 8187   1.625  -0.068   4.292 -0.3701  0.0758  0.3544
   87SOPE  H16R 8188   1.523  -0.026   4.284  0.3066  1.8250  0.3557
   87SOPE  H16S 8189   1.667  -0.039   4.391 -0.2738  0.8009  0.1101
   87SOPE  C217 8190   1.592  -0.223   4.319 -0.6235  0.4845 -0.3675
   87SOPE  H17R 8191   1.529  -0.245   4.408 -1.2774  0.7326 -0.7610
   87SOPE  H17S 8192   1.694  -0.261   4.342 -0.4733  1.0685 -0.0325
   87SOPE  C218 8193   1.548  -0.283   4.185  0.4374 -0.4290 -0.0392
   87SOPE  H18R 8194   1.532  -0.392   4.191 -0.6632 -0.3996 -1.5787
   87SOPE  H18S 8195   1.626  -0.279   4.106  1.2189 -0.3894  0.7315
   87SOPE  H18T 8196   1.453  -0.234   4.154  0.3108  0.2612  1.3578
   87SOPE   C33 8197   1.827   0.424   3.438  0.3489 -0.4301  0.2398
   87SOPE   H3X 8198   1.913   0.354   3.440  1.3919  0.5407 -3.4219
   87SOPE   H3Y 8199   1.746   0.397   3.509  0.6810  0.6315  1.0429
   87SOPE   C34 8200   1.869   0.564   3.477 -0.6390 -0.3657 -0.0792
   87SOPE   H4X 8201   1.784   0.631   3.500  0.9192  0.9158  2.3711
   87SOPE   H4Y 8202   1.929   0.616   3.400 -0.6764 -0.2955 -0.0611
   87SOPE   C35 8203   1.955   0.560   3.614  0.4770  0.4414  0.1526
   87SOPE   H5X 8204   2.013   0.654   3.628  0.4135  0.8917 -2.1164
   87SOPE   H5Y 8205   2.022   0.473   3.597  1.7767  1.7297 -1.7482
   87SOPE   C36 8206   1.886   0.520   3.746 -0.4040 -0.4007  0.3350
   87SOPE   H6X 8207   1.813   0.436   3.746 -2.8575  1.5772 -0.9353
   87SOPE   H6Y 8208   1.817   0.603   3.771 -0.3561  0.0145 -0.8344
   87SOPE   C37 8209   1.993   0.497   3.859 -0.5805 -0.2841  0.1837
   87SOPE   H7X 8210   2.063   0.582   3.867 -0.6423 -0.1893 -0.2475
   87SOPE   H7Y 8211   2.057   0.408   3.840  0.2858  0.2041  0.7713
   87SOPE   C38 8212   1.933   0.485   4.000  0.4758  0.4003  0.7625
   87SOPE   H8X 8213   1.861   0.400   3.993  0.4115  0.5428 -0.5018
   87SOPE   H8Y 8214   1.867   0.561   4.046 -1.4343 -1.2215  0.8556
   87SOPE   C39 8215   2.031   0.429   4.103  0.2129  0.3414  0.3442
   87SOPE   H9X 8216   2.075   0.337   4.059  1.0498  0.7307  0.3467
   87SOPE   H9Y 8217   1.976   0.405   4.198  0.4226 -1.1252  0.1198
   87SOPE  C310 8218   2.148   0.526   4.131 -0.1888 -0.4313 -0.0718
   87SOPE  H10X 8219   2.106   0.629   4.134  0.6198 -0.0555 -1.0152
   87SOPE  H10Y 8220   2.220   0.528   4.046  0.4262 -0.6053  0.4300
   87SOPE  C311 8221   2.227   0.495   4.260  0.3518 -0.6271 -0.3461
   87SOPE  H11X 8222   2.315   0.561   4.271 -0.7387  1.2046 -1.9170
   87SOPE  H11Y 8223   2.254   0.388   4.267 -0.2804 -0.7351  0.5300
   87SOPE  C312 8224   2.136   0.530   4.380 -0.3173  0.7745  0.0858
   87SOPE  H12X 8225   2.056   0.454   4.392 -0.0450  0.3593 -0.6790
   87SOPE  H12Y 8226   2.086   0.627   4.364  0.6045  1.3092  0.4059
   87SOPE  C313 8227   2.217   0.545   4.512 -0.7889  0.7188 -0.1826
   87SOPE  H13X 8228   2.309   0.604   4.492 -0.7068  0.4373 -0.6568
   87SOPE  H13Y 8229   2.249   0.442   4.538 -2.1546 -0.1437 -1.7152
   87SOPE  C314 8230   2.133   0.608   4.632  0.1218 -0.1044  0.8396
   87SOPE  H14X 8231   2.031   0.565   4.626  0.5281 -1.5452  3.0129
   87SOPE  H14Y 8232   2.123   0.716   4.610 -0.5029 -0.7829 -3.0731
   87SOPE  C315 8233   2.181   0.570   4.771  0.9158  0.0538  0.4346
   87SOPE  H15X 8234   2.291   0.585   4.773  0.8463  0.8727 -0.6160
   87SOPE  H15Y 8235   2.156   0.463   4.789 -0.1096  0.4206  1.2849
   87SOPE  C316 8236   2.100   0.647   4.872  0.4382  0.4422  0.0971
   87SOPE  H16X 8237   1.994   0.621   4.892  0.9978 -1.5333  0.7403
   87SOPE  H16Y 8238   2.108   0.755   4.847  1.4114  0.2194 -0.5776
   87SOPE  C317 8239   2.164   0.625   5.016  0.3388  0.4489 -0.1606
   87SOPE  H17X 8240   2.150   0.515   5.030 -1.2380  0.2478 -2.5797
   87SOPE  H17Y 8241   2.098   0.678   5.087 -0.8572 -0.7868 -0.2988
   87SOPE  C318 8242   2.304   0.672   5.033 -0.1048 -0.1695 -0.0228
   87SOPE  H18X 8243   2.368   0.654   4.945 -1.4152 -0.7952 -0.8639
   87SOPE  H18Y 8244   2.358   0.628   5.120  1.5012  0.0842 -0.8649
   87SOPE  H18Z 8245   2.308   0.782   5.050  0.8644 -0.2541  0.3604
   88SOPE     N 8246   4.175   2.056   2.606 -0.6101 -0.3007  0.0380
   88SOPE   HN1 8247   4.103   2.105   2.663 -2.0413 -2.3380  0.0720
   88SOPE   HN2 8248   4.175   2.076   2.504  1.2034 -0.2846  0.0040
   88SOPE   HN3 8249   4.152   1.956   2.618 -0.0597 -0.5444 -0.8426
   88SOPE   C12 8250   4.315   2.093   2.653 -0.2227  0.2478  0.0671
   88SOPE  H12A 8251   4.339   2.200   2.636 -1.2968  0.2082 -2.0557
   88SOPE  H12B 8252   4.379   2.039   2.580 -0.4448 -1.5451  1.1248
   88SOPE   C11 8253   4.340   2.048   2.790  0.1167 -0.3542  0.0880
   88SOPE  H11A 8254   4.265   2.108   2.847  0.7003  3.3379 -2.6634
   88SOPE  H11B 8255   4.443   2.076   2.818  0.4772 -1.8911  0.3981
   88SOPE     P 8256   4.444   1.807   2.832  0.3432  0.0449 -0.1024
   88SOPE   O13 8257   4.549   1.834   2.736  0.1426 -0.3700 -0.0300
   88SOPE   O14 8258   4.396   1.667   2.827  0.3853  0.3046  0.0475
   88SOPE   O12 8259   4.323   1.903   2.805  0.8072 -0.2457  0.1505
   88SOPE   O11 8260   4.486   1.841   2.983  0.0478  0.3382 -0.3582
   88SOPE    C1 8261   4.391   1.841   3.087  0.0219  0.2691  0.0423
   88SOPE    HA 8262   4.287   1.823   3.052  0.4477 -0.6484 -0.8128
   88SOPE    HB 8263   4.397   1.949   3.114 -0.1285  0.1044  0.7317
   88SOPE    C2 8264   4.423   1.732   3.194 -0.4741 -0.0260  0.2250
   88SOPE    HS 8265   4.378   1.635   3.161 -0.7055  0.6064 -1.3998
   88SOPE   O21 8266   4.379   1.773   3.328 -0.7524  0.3837 -0.3761
   88SOPE   C21 8267   4.248   1.772   3.349  0.2316  0.3353  0.4355
   88SOPE   O22 8268   4.170   1.721   3.271 -0.3115  0.1036  0.1890
   88SOPE   C22 8269   4.219   1.841   3.479 -0.0949  0.0732 -1.5020
   88SOPE   H2R 8270   4.264   1.943   3.483 -0.0381  0.0172 -0.2872
   88SOPE   H2S 8271   4.273   1.783   3.557  1.9265  0.9365 -2.1844
   88SOPE    C3 8272   4.577   1.708   3.201 -0.0410 -0.6197  0.2830
   88SOPE    HX 8273   4.622   1.809   3.210 -1.8230  0.1627  0.7553
   88SOPE    HY 8274   4.599   1.667   3.100 -2.1869  0.8876 -0.8584
   88SOPE   O31 8275   4.631   1.619   3.307 -0.4079  0.6820  0.8195
   88SOPE   C31 8276   4.615   1.493   3.277  0.1735 -0.5910 -0.3116
   88SOPE   O32 8277   4.549   1.449   3.184 -0.2513 -0.3943  0.0733
   88SOPE   C32 8278   4.664   1.418   3.398  0.2081  0.7474  0.2700
   88SOPE   H2X 8279   4.775   1.419   3.387  0.2096 -1.3599 -0.4281
   88SOPE   H2Y 8280   4.619   1.316   3.391 -0.5020  1.0969 -0.3273
   88SOPE   C23 8281   4.074   1.863   3.504 -0.4695  1.0176  1.1333
   88SOPE   H3R 8282   4.015   1.770   3.508  0.2927  0.5599  2.2185
   88SOPE   H3S 8283   4.039   1.931   3.423  2.1155  1.9865  0.7005
   88SOPE   C24 8284   4.045   1.931   3.633  0.8795 -0.0662  0.5589
   88SOPE   H4R 8285   4.091   2.029   3.656 -1.5383  0.7938  2.1712
   88SOPE   H4S 8286   3.936   1.953   3.629  0.5242 -1.7952 -0.2409
   88SOPE   C25 8287   4.077   1.840   3.754 -0.2956  0.3985 -0.2988
   88SOPE   H5R 8288   4.033   1.743   3.721  0.7259  0.2795 -1.3898
   88SOPE   H5S 8289   4.187   1.839   3.764 -0.1737  2.2606 -0.9501
   88SOPE   C26 8290   4.002   1.881   3.882  0.3460  0.0170 -0.0564
   88SOPE   H6R 8291   3.899   1.920   3.864 -0.7211 -1.8353  1.6464
   88SOPE   H6S 8292   3.986   1.793   3.947 -1.8842  1.5725  1.6532
   88SOPE   C27 8293   4.082   1.981   3.966  0.4677 -0.6488 -0.0721
   88SOPE   H7R 8294   4.187   1.978   3.931 -0.1169 -1.7549 -1.8600
   88SOPE   H7S 8295   4.042   2.084   3.947  0.3034 -1.0695 -2.2202
   88SOPE   C28 8296   4.075   1.953   4.115 -0.1780  0.1331 -0.4070
   88SOPE   H8R 8297   4.093   1.850   4.152  2.1819  0.8518  0.6786
   88SOPE   H8S 8298   4.145   2.016   4.175  0.2084  0.4300 -1.1619
   88SOPE   C29 8299   3.937   1.997   4.170  0.5827  0.5116  0.1957
   88SOPE   H91 8300   3.857   2.022   4.098 -1.2232 -2.4590  0.9959
   88SOPE  C210 8301   3.907   2.001   4.306  0.2018  0.1620  0.9078
   88SOPE  H101 8302   3.807   2.035   4.337  0.1899  0.4371  0.5637
   88SOPE  C211 8303   3.991   1.976   4.423  0.7761 -0.5728 -0.2101
   88SOPE  H11R 8304   4.095   1.955   4.387  0.6955 -1.4584  0.0449
   88SOPE  H11S 8305   3.938   1.900   4.483  0.1314 -0.2807 -0.4055
   88SOPE  C212 8306   3.992   2.116   4.490 -0.4242  0.4985 -0.0280
   88SOPE  H12R 8307   3.887   2.148   4.512 -1.2052 -0.6621 -1.8508
   88SOPE  H12S 8308   4.037   2.194   4.426  1.2348 -0.8216 -0.5202
   88SOPE  C213 8309   4.063   2.107   4.626 -0.0233  0.6854 -0.1922
   88SOPE  H13R 8310   4.160   2.053   4.619  0.2064  0.7633  1.7251
   88SOPE  H13S 8311   4.001   2.045   4.695 -0.5191  1.3772 -0.0089
   88SOPE  C214 8312   4.082   2.238   4.694 -0.3286 -0.9487  0.1188
   88SOPE  H14R 8313   4.137   2.318   4.640 -1.4209  0.2227  0.6984
   88SOPE  H14S 8314   4.149   2.222   4.781  2.0201 -0.9312 -1.5666
   88SOPE  C215 8315   3.942   2.295   4.733  0.0256 -0.4839  1.1800
   88SOPE  H15R 8316   3.901   2.221   4.805 -2.3490 -1.7587 -1.3116
   88SOPE  H15S 8317   3.875   2.300   4.645  0.6150  1.2938  0.7951
   88SOPE  C216 8318   3.943   2.431   4.801 -0.1954 -0.1800 -0.5304
   88SOPE  H16R 8319   4.013   2.497   4.745  0.8755 -0.3040  0.6236
   88SOPE  H16S 8320   3.992   2.417   4.900 -1.3338 -0.3410  0.0227
   88SOPE  C217 8321   3.804   2.502   4.816 -0.4618  0.8268  0.0495
   88SOPE  H17R 8322   3.739   2.455   4.893 -0.3703  0.9961  0.2300
   88SOPE  H17S 8323   3.743   2.498   4.723 -2.3980 -0.1053  1.2767
   88SOPE  C218 8324   3.835   2.644   4.851  0.4572 -0.5635  0.1730
   88SOPE  H18R 8325   3.753   2.718   4.857 -1.9704 -3.1012  0.3500
   88SOPE  H18S 8326   3.908   2.677   4.773 -0.7423  4.7402  0.9117
   88SOPE  H18T 8327   3.897   2.643   4.943 -0.6785 -2.1304  0.9620
   88SOPE   C33 8328   4.626   1.472   3.536  0.7639  0.1472  0.0001
   88SOPE   H3X 8329   4.517   1.492   3.541  1.1438  2.2259  1.5963
   88SOPE   H3Y 8330   4.670   1.572   3.557 -0.7412  1.4026 -2.3683
   88SOPE   C34 8331   4.664   1.375   3.654 -0.3210 -0.1029  0.6144
   88SOPE   H4X 8332   4.775   1.377   3.664 -0.1528 -0.7899 -0.8364
   88SOPE   H4Y 8333   4.644   1.267   3.636  1.1253 -0.2258 -0.3837
   88SOPE   C35 8334   4.613   1.426   3.789  0.0226  0.1135  0.1696
   88SOPE   H5X 8335   4.515   1.476   3.774 -0.5623 -0.9839  0.2132
   88SOPE   H5Y 8336   4.678   1.508   3.825 -0.6388  1.3436 -1.3336
   88SOPE   C36 8337   4.601   1.307   3.884 -0.1688  0.1272 -0.5045
   88SOPE   H6X 8338   4.696   1.249   3.875  0.4103  1.0162 -0.3271
   88SOPE   H6Y 8339   4.512   1.246   3.861  0.0340 -0.5817  0.5090
   88SOPE   C37 8340   4.589   1.350   4.036 -1.0972  0.5073  0.4874
   88SOPE   H7X 8341   4.487   1.387   4.057 -0.8549  1.3513  0.2167
   88SOPE   H7Y 8342   4.658   1.435   4.055 -1.6697  1.2550 -0.6583
   88SOPE   C38 8343   4.621   1.234   4.127  0.3880  0.2217 -0.2044
   88SOPE   H8X 8344   4.712   1.177   4.099  0.0804  0.6561 -2.2514
   88SOPE   H8Y 8345   4.530   1.173   4.104 -0.0291  0.8046 -0.1305
   88SOPE   C39 8346   4.622   1.280   4.269 -0.7224 -0.0484 -0.1988
   88SOPE   H9X 8347   4.617   1.187   4.330 -3.5744 -0.9205 -1.5924
   88SOPE   H9Y 8348   4.539   1.351   4.286 -0.5598  0.2180 -0.4936
   88SOPE  C310 8349   4.745   1.358   4.306  0.3017 -0.0095  0.8096
   88SOPE  H10X 8350   4.753   1.456   4.255 -0.3983 -0.6513 -0.5881
   88SOPE  H10Y 8351   4.829   1.299   4.264 -0.8451 -0.6026 -0.7611
   88SOPE  C311 8352   4.783   1.360   4.457 -0.2061  0.5182 -0.2251
   88SOPE  H11X 8353   4.725   1.438   4.511 -2.8446 -1.6423  0.2461
   88SOPE  H11Y 8354   4.887   1.398   4.468 -0.4586  1.3175 -0.5134
   88SOPE  C312 8355   4.785   1.217   4.528  0.4447 -0.5681  0.9123
   88SOPE  H12X 8356   4.829   1.160   4.444 -2.3550  0.2904 -1.3026
   88SOPE  H12Y 8357   4.677   1.190   4.531  0.1840 -0.3850 -2.5875
   88SOPE  C313 8358   4.871   1.206   4.659 -0.0265 -0.2506  0.4732
   88SOPE  H13X 8359   4.956   1.270   4.628 -1.2270 -0.5478 -4.2251
   88SOPE  H13Y 8360   4.901   1.100   4.680  0.4924 -0.3206 -0.5387
   88SOPE  C314 8361   4.808   1.277   4.774 -0.1933 -0.2119 -0.6508
   88SOPE  H14X 8362   4.784   1.384   4.754 -0.2093 -0.0997 -0.0377
   88SOPE  H14Y 8363   4.875   1.267   4.861  1.0417 -0.1865 -1.5660
   88SOPE  C315 8364   4.683   1.216   4.830 -0.2623  0.0968  0.4925
   88SOPE  H15X 8365   4.703   1.107   4.843 -1.1321 -0.1584 -0.2271
   88SOPE  H15Y 8366   4.598   1.218   4.759  1.2164  1.9457 -1.3287
   88SOPE  C316 8367   4.626   1.286   4.956  0.3672  0.1306 -0.4360
   88SOPE  H16X 8368   4.525   1.248   4.982  0.7315 -0.4883  0.0953
   88SOPE  H16Y 8369   4.622   1.396   4.938  0.7454  0.0684 -0.9166
   88SOPE  C317 8370   4.698   1.270   5.090 -0.0916 -0.3241 -0.3766
   88SOPE  H17X 8371   4.803   1.305   5.080 -0.9849  2.8658  0.2840
   88SOPE  H17Y 8372   4.695   1.164   5.123 -2.9711 -0.5949 -1.2037
   88SOPE  C318 8373   4.637   1.358   5.207  0.2582  0.0380  0.2060
   88SOPE  H18X 8374   4.529   1.338   5.225 -0.4081  2.0548 -1.2386
   88SOPE  H18Y 8375   4.649   1.466   5.182  1.6119 -0.2379 -0.4164
   88SOPE  H18Z 8376   4.673   1.333   5.309 -0.5399 -0.7249  0.3131
   89SAPC     N 8377   2.463   4.893   7.204  0.2439 -0.0332 -0.1238
   89SAPC   C12 8378   2.568   4.928   7.099  0.4706  0.5973 -0.0588
   89SAPC  H12A 8379   2.660   4.968   7.140 -0.9039  2.4517  1.3971
   89SAPC  H12B 8380   2.523   5.017   7.056 -3.3520  0.2410  2.6768
   89SAPC   C13 8381   2.418   5.022   7.262  0.4373 -0.9798 -0.7191
   89SAPC  H13A 8382   2.334   5.004   7.328  0.5341 -0.0336 -0.3180
   89SAPC  H13B 8383   2.497   5.066   7.321 -1.4013  1.1001  0.3733
   89SAPC  H13C 8384   2.390   5.097   7.189 -0.8361 -0.4657  0.2438
   89SAPC   C14 8385   2.341   4.814   7.147 -0.8507 -0.2148  0.4454
   89SAPC  H14A 8386   2.262   4.785   7.216  0.2188  0.0993  1.8553
   89SAPC  H14B 8387   2.293   4.870   7.068 -0.4974  2.3393  1.9264
   89SAPC  H14C 8388   2.376   4.729   7.091  3.4024  1.7738 -0.2681
   89SAPC   C15 8389   2.519   4.820   7.318 -0.6394 -0.1761  0.0774
   89SAPC  H15A 8390   2.596   4.877   7.368 -0.4050 -1.4288  1.1992
   89SAPC  H15B 8391   2.451   4.790   7.396  0.3846  2.2896  2.0676
   89SAPC  H15C 8392   2.580   4.741   7.277 -0.2511  0.1325  0.0453
   89SAPC   C11 8393   2.586   4.823   6.990 -0.5599  0.1747 -0.1218
   89SAPC  H11A 8394   2.671   4.855   6.926  0.2129  0.1371  0.8602
   89SAPC  H11B 8395   2.492   4.814   6.931 -0.5501  0.8443 -0.2487
   89SAPC     P 8396   2.757   4.660   7.086  0.2536 -0.0543  0.0967
   89SAPC   O13 8397   2.859   4.771   7.063  0.1019  0.1206  0.4893
   89SAPC   O14 8398   2.758   4.599   7.222  0.7598 -0.0240  0.0364
   89SAPC   O12 8399   2.614   4.695   7.038  0.0337  0.4180 -0.3113
   89SAPC   O11 8400   2.789   4.540   6.990  0.4178 -0.0959 -0.1008
   89SAPC    C1 8401   2.696   4.452   6.940 -0.2210  0.2074 -0.5379
   89SAPC    HA 8402   2.726   4.354   6.981  0.7565  1.2482  1.3380
   89SAPC    HB 8403   2.589   4.479   6.956 -0.6735 -1.4927 -0.5368
   89SAPC    C2 8404   2.693   4.442   6.781  0.1929  0.6765 -0.1423
   89SAPC    HS 8405   2.604   4.377   6.766 -0.0759 -0.1592  3.7450
   89SAPC   O21 8406   2.817   4.385   6.736  0.0258  0.0347 -0.1821
   89SAPC   C21 8407   2.837   4.255   6.760  0.0569  0.6397 -0.7322
   89SAPC   O22 8408   2.763   4.181   6.820 -0.2783  0.2294  0.8581
   89SAPC   C22 8409   2.970   4.224   6.695  0.2069 -0.0033 -0.3195
   89SAPC   H2R 8410   2.961   4.201   6.587  3.6423 -2.5772 -0.2216
   89SAPC   H2S 8411   3.031   4.315   6.714  0.3464 -0.5623  2.2463
   89SAPC    C3 8412   2.664   4.574   6.697  0.8109  0.3332  0.3053
   89SAPC    HX 8413   2.739   4.654   6.714  0.3482  1.0318 -0.8546
   89SAPC    HY 8414   2.579   4.624   6.748  2.0961  2.1515  0.7317
   89SAPC   O31 8415   2.643   4.552   6.553 -0.2441  0.1734  0.2323
   89SAPC   C31 8416   2.514   4.532   6.514  0.2029  0.5069 -0.2558
   89SAPC   O32 8417   2.422   4.524   6.593  0.1961  0.2304  0.7027
   89SAPC   C32 8418   2.498   4.534   6.360 -0.7022  0.0332 -0.6012
   89SAPC   H2X 8419   2.526   4.639   6.337  0.1159  0.7754  3.0825
   89SAPC   H2Y 8420   2.395   4.505   6.332 -0.1579 -0.4895 -2.1655
   89SAPC   C23 8421   3.040   4.104   6.759 -0.5858  0.2568  0.6769
   89SAPC   H3R 8422   2.967   4.024   6.778  0.9290 -1.2779  0.2898
   89SAPC   H3S 8423   3.091   4.130   6.854 -0.0769 -1.4978  0.9171
   89SAPC   C24 8424   3.147   4.059   6.660 -0.1717  0.1049  0.5611
   89SAPC   H4R 8425   3.209   4.150   6.649 -1.0459  0.7856  1.0809
   89SAPC   H4S 8426   3.098   4.022   6.568  2.5777 -3.0802  0.2009
   89SAPC   C25 8427   3.221   3.940   6.723 -1.0698  0.2841  0.5630
   89SAPC   H5R 8428   3.263   3.965   6.822 -0.0159 -2.4859  0.8887
   89SAPC   C26 8429   3.226   3.825   6.660  0.1125  0.0364  1.1471
   89SAPC   H6R 8430   3.282   3.744   6.711 -0.3464 -0.5954  0.6664
   89SAPC   C27 8431   3.168   3.788   6.520 -0.1231  0.3605  0.1780
   89SAPC   H7R 8432   3.059   3.810   6.519 -1.0107 -3.3983 -1.3598
   89SAPC   H7S 8433   3.168   3.677   6.516  2.0031  0.3483 -0.6768
   89SAPC   C28 8434   3.252   3.841   6.409  0.0476 -0.7755  0.5939
   89SAPC   H8R 8435   3.359   3.840   6.434 -0.0849 -0.6792  1.1986
   89SAPC   C29 8436   3.210   3.898   6.294  0.3143 -0.2171  0.6125
   89SAPC   H9R 8437   3.286   3.898   6.215  0.0040 -1.0888  0.2973
   89SAPC  C210 8438   3.068   3.912   6.245  0.3045  0.6193  0.2398
   89SAPC  H10R 8439   3.060   3.954   6.143 -0.1274 -1.6802 -0.7472
   89SAPC  H10S 8440   3.012   3.982   6.310  1.2816 -0.8107  2.7567
   89SAPC  C211 8441   2.998   3.778   6.244  1.0248  0.5659  0.7210
   89SAPC  H11R 8442   2.984   3.737   6.346  2.3438 -0.6302  0.4619
   89SAPC  C212 8443   2.972   3.697   6.136  0.8822  0.1353  0.0772
   89SAPC  H12R 8444   2.919   3.602   6.146  1.5192 -0.0908  1.4951
   89SAPC  C213 8445   3.013   3.731   5.992 -1.0328  0.1323 -0.3942
   89SAPC  H13R 8446   3.108   3.787   6.004 -0.9237  0.2053 -1.5072
   89SAPC  H13S 8447   2.946   3.802   5.938  0.8722  1.8653 -0.6253
   89SAPC  C214 8448   3.028   3.605   5.919 -0.4417  0.0547  0.1544
   89SAPC  H14R 8449   3.110   3.540   5.956  1.3408  1.7717 -0.5995
   89SAPC  C215 8450   2.967   3.574   5.802 -0.2916  0.0340  0.3267
   89SAPC  H15R 8451   2.992   3.478   5.754 -2.2072 -0.0007 -0.7389
   89SAPC  C216 8452   2.854   3.647   5.734  0.0606 -0.2432  0.3210
   89SAPC  H16R 8453   2.807   3.729   5.791 -2.1146 -0.5822 -0.9055
   89SAPC  H16S 8454   2.772   3.575   5.713 -0.2866  0.0509  0.6733
   89SAPC  C217 8455   2.921   3.710   5.612 -0.0204 -0.2388 -0.3993
   89SAPC  H17R 8456   3.014   3.764   5.640  0.5759 -0.3810 -2.0047
   89SAPC  H17S 8457   2.844   3.774   5.564 -2.2990 -1.7545  1.0313
   89SAPC  C218 8458   2.959   3.616   5.510 -0.5895  0.6553  0.2152
   89SAPC  H18R 8459   3.013   3.524   5.541  0.4080  1.2667  0.3362
   89SAPC  H18S 8460   3.031   3.672   5.447  0.8878 -0.1021  1.1515
   89SAPC  C219 8461   2.837   3.574   5.419  0.3711 -0.2148 -0.4754
   89SAPC  H19R 8462   2.780   3.662   5.382  2.2873  1.0787 -0.4680
   89SAPC  H19S 8463   2.762   3.515   5.477  0.4996  0.6959  0.6351
   89SAPC  C220 8464   2.898   3.494   5.301 -0.0684 -0.4576  0.8601
   89SAPC  H20R 8465   2.978   3.553   5.251 -1.3588  0.8650  0.2678
   89SAPC  H20S 8466   2.818   3.479   5.226 -1.8864 -0.5855  2.7280
   89SAPC  H20T 8467   2.950   3.402   5.337  0.1251 -0.2679  1.0680
   89SAPC   C33 8468   2.596   4.431   6.294  0.0770 -0.8329 -0.0023
   89SAPC   H3X 8469   2.596   4.330   6.341  1.2064 -0.3009  1.2106
   89SAPC   H3Y 8470   2.695   4.473   6.324  0.4115 -0.6472 -1.2805
   89SAPC   C34 8471   2.586   4.408   6.135 -0.1311 -0.2821  0.1998
   89SAPC   H4X 8472   2.488   4.362   6.109 -0.8241  0.2348  1.7581
   89SAPC   H4Y 8473   2.668   4.342   6.099  3.0315  2.5085  1.7205
   89SAPC   C35 8474   2.594   4.551   6.068 -0.0529  0.0819 -0.0327
   89SAPC   H5X 8475   2.681   4.612   6.099 -0.2296  0.4750 -0.3000
   89SAPC   H5Y 8476   2.505   4.616   6.082 -0.9462 -0.9489 -0.7712
   89SAPC   C36 8477   2.601   4.532   5.915  0.4937  0.2204  0.0630
   89SAPC   H6X 8478   2.698   4.481   5.897 -0.4164 -0.9577 -1.7953
   89SAPC   H6Y 8479   2.604   4.635   5.874 -1.3593  0.7941  1.2560
   89SAPC   C37 8480   2.485   4.453   5.841  0.1870  0.0753 -0.5670
   89SAPC   H7X 8481   2.396   4.494   5.893  1.4237 -1.7415  3.3308
   89SAPC   H7Y 8482   2.501   4.347   5.867 -0.1644  0.0798 -0.3208
   89SAPC   C38 8483   2.474   4.469   5.691 -0.8667 -0.0124  0.4659
   89SAPC   H8X 8484   2.445   4.575   5.676 -1.0231 -0.2069 -0.7627
   89SAPC   H8Y 8485   2.385   4.407   5.667 -1.2193  0.5672  0.2758
   89SAPC   C39 8486   2.609   4.439   5.606  0.3430 -0.0875  0.5334
   89SAPC   H9X 8487   2.648   4.339   5.633  1.7148 -0.0773 -1.2306
   89SAPC   H9Y 8488   2.678   4.521   5.634  1.6015 -1.1731  0.7192
   89SAPC  C310 8489   2.577   4.436   5.458 -0.2795 -0.4752  0.5914
   89SAPC  H10X 8490   2.523   4.530   5.432  2.0138  0.2756 -2.0084
   89SAPC  H10Y 8491   2.511   4.349   5.440 -1.4514  0.8688 -2.1865
   89SAPC  C311 8492   2.693   4.418   5.369 -0.7182 -0.2048  0.2013
   89SAPC  H11X 8493   2.663   4.419   5.262  0.7265 -0.9630 -0.2441
   89SAPC  H11Y 8494   2.736   4.319   5.392  0.2863 -0.1594 -1.3068
   89SAPC  C312 8495   2.809   4.517   5.382 -0.3747  0.8348 -0.4386
   89SAPC  H12X 8496   2.864   4.527   5.478  0.2630  1.3981 -0.8522
   89SAPC  H12Y 8497   2.776   4.622   5.370  1.3456  1.2121 -2.4323
   89SAPC  C313 8498   2.910   4.497   5.277  0.5206  0.2581 -0.1223
   89SAPC  H13X 8499   2.865   4.489   5.176 -0.6267 -0.0313  0.3918
   89SAPC  H13Y 8500   2.966   4.401   5.283  1.3703  0.7421 -0.0179
   89SAPC  C314 8501   3.018   4.609   5.283 -0.2646  0.3474  0.0543
   89SAPC  H14X 8502   3.067   4.593   5.381  0.1742  0.3199 -0.1663
   89SAPC  H14Y 8503   2.957   4.702   5.290  0.8306  1.1847 -1.0490
   89SAPC  C315 8504   3.118   4.618   5.167 -0.6211 -0.3713 -0.1346
   89SAPC  H15X 8505   3.192   4.698   5.186 -0.0085 -1.8030  5.0445
   89SAPC  H15Y 8506   3.068   4.637   5.070 -2.1261  0.5362  0.7933
   89SAPC  C316 8507   3.204   4.487   5.157  0.0328  0.2226  0.3629
   89SAPC  H16X 8508   3.140   4.413   5.105 -1.3861  2.4371 -1.2259
   89SAPC  H16Y 8509   3.239   4.455   5.257 -0.6376 -0.0143  0.5253
   89SAPC  C317 8510   3.327   4.508   5.072  0.2500 -0.1323 -0.1972
   89SAPC  H17X 8511   3.402   4.426   5.081 -0.5156 -0.6465  2.2423
   89SAPC  H17Y 8512   3.377   4.603   5.103 -0.1265  0.3143 -0.9466
   89SAPC  C318 8513   3.305   4.545   4.926  0.8509  0.0659 -0.5347
   89SAPC  H18X 8514   3.267   4.449   4.888  2.2723 -1.3057  1.2911
   89SAPC  H18Y 8515   3.400   4.564   4.871  1.9691 -0.2082  1.1952
   89SAPC  H18Z 8516   3.218   4.614   4.916 -0.4875 -0.9081  2.9093
   90SAPC     N 8517   1.267   1.301   7.763  0.6317 -0.1270 -0.5476
   90SAPC   C12 8518   1.416   1.304   7.716 -0.0268 -0.6088 -0.6428
   90SAPC  H12A 8519   1.465   1.211   7.742  2.8080  0.4687 -1.6977
   90SAPC  H12B 8520   1.447   1.387   7.778  2.4936 -0.2229 -2.2741
   90SAPC   C13 8521   1.200   1.425   7.730 -0.0898  0.2030 -0.1538
   90SAPC  H13A 8522   1.246   1.510   7.777 -0.7345 -1.4215  3.7568
   90SAPC  H13B 8523   1.206   1.429   7.622  0.0712 -0.3383 -0.1705
   90SAPC  H13C 8524   1.097   1.433   7.761  0.4133 -0.8899  1.9887
   90SAPC   C14 8525   1.203   1.182   7.714 -0.2800  0.0602  0.0737
   90SAPC  H14A 8526   1.271   1.101   7.735 -0.3471 -0.1080 -0.3554
   90SAPC  H14B 8527   1.114   1.176   7.775 -0.5331  0.7976 -0.2082
   90SAPC  H14C 8528   1.182   1.186   7.608 -0.7867 -0.5468  0.1450
   90SAPC   C15 8529   1.262   1.272   7.910  0.2752  0.4050 -0.2743
   90SAPC  H15A 8530   1.159   1.283   7.940  0.7201  0.5392  1.2502
   90SAPC  H15B 8531   1.296   1.172   7.933  2.2731  0.2905 -3.1092
   90SAPC  H15C 8532   1.320   1.336   7.975 -0.0883  0.6859 -0.2246
   90SAPC   C11 8533   1.453   1.338   7.571 -0.1518  0.3852  0.8264
   90SAPC  H11A 8534   1.563   1.349   7.561  0.3367 -3.1127  0.8539
   90SAPC  H11B 8535   1.403   1.434   7.546 -0.8027  0.1337  1.1347
   90SAPC     P 8536   1.467   1.105   7.465 -0.3437 -0.0342  0.0468
   90SAPC   O13 8537   1.510   1.062   7.598 -0.1179 -0.3615 -0.0939
   90SAPC   O14 8538   1.367   1.015   7.396  0.2287 -0.6015 -0.3725
   90SAPC   O12 8539   1.402   1.242   7.483  0.0138 -0.2129  0.3061
   90SAPC   O11 8540   1.595   1.137   7.376  0.4551  0.1911  0.0919
   90SAPC    C1 8541   1.555   1.193   7.243 -0.6064  0.2094  0.0540
   90SAPC    HA 8542   1.509   1.114   7.180 -1.4565  0.2780  0.5821
   90SAPC    HB 8543   1.479   1.274   7.251 -3.4822 -2.2651 -0.4928
   90SAPC    C2 8544   1.666   1.263   7.161  0.8382 -0.3493 -0.1319
   90SAPC    HS 8545   1.631   1.366   7.136  1.0067  0.2227  1.7437
   90SAPC   O21 8546   1.700   1.172   7.052  0.2216  0.0049  0.4278
   90SAPC   C21 8547   1.630   1.182   6.945  0.2654  0.2230 -0.1104
   90SAPC   O22 8548   1.524   1.240   6.931 -0.4424  0.6750 -0.3696
   90SAPC   C22 8549   1.711   1.101   6.839 -0.3461 -0.0286 -0.5571
   90SAPC   H2R 8550   1.817   1.130   6.856 -1.0208  2.6587 -0.4045
   90SAPC   H2S 8551   1.704   0.993   6.862  2.0049 -0.5678 -2.0512
   90SAPC    C3 8552   1.792   1.284   7.247  0.4066 -0.1067  0.1681
   90SAPC    HX 8553   1.813   1.185   7.291 -0.9477 -0.9798 -1.0540
   90SAPC    HY 8554   1.768   1.349   7.335  0.8973 -0.5365  0.6220
   90SAPC   O31 8555   1.895   1.352   7.172  0.6280 -0.3078  0.0274
   90SAPC   C31 8556   1.989   1.282   7.126  0.6652 -0.9068  0.6259
   90SAPC   O32 8557   1.997   1.159   7.147 -0.5513 -0.3846  0.6582
   90SAPC   C32 8558   2.075   1.369   7.044  0.1492 -0.8773 -0.0251
   90SAPC   H2X 8559   2.179   1.330   7.046  0.9271  0.9510 -1.7899
   90SAPC   H2Y 8560   2.073   1.473   7.083 -0.7804 -0.9220  0.0866
   90SAPC   C23 8561   1.653   1.129   6.703  0.1113  0.2527 -0.4122
   90SAPC   H3R 8562   1.549   1.091   6.693 -0.0252  0.2123  0.9679
   90SAPC   H3S 8563   1.703   1.064   6.628 -1.6202 -2.1528  0.3967
   90SAPC   C24 8564   1.655   1.276   6.652  0.0397 -0.2238 -0.0332
   90SAPC   H4R 8565   1.757   1.317   6.669 -1.0471  1.6829  2.7399
   90SAPC   H4S 8566   1.595   1.344   6.717 -0.1391  0.9153 -1.3397
   90SAPC   C25 8567   1.607   1.297   6.516 -0.0690  0.8252  0.6872
   90SAPC   H5R 8568   1.498   1.299   6.505  0.0124 -0.5724 -0.8570
   90SAPC   C26 8569   1.683   1.320   6.408 -0.2492 -0.7545 -0.2272
   90SAPC   H6R 8570   1.638   1.355   6.313 -0.3867  0.4921  0.2759
   90SAPC   C27 8571   1.840   1.326   6.399  0.0420 -0.0430 -0.2777
   90SAPC   H7R 8572   1.880   1.244   6.336  1.3883  0.3053  0.1021
   90SAPC   H7S 8573   1.889   1.297   6.495 -1.7793  3.3372  1.8624
   90SAPC   C28 8574   1.873   1.463   6.348 -1.1325  0.0647  0.4065
   90SAPC   H8R 8575   1.838   1.550   6.406 -0.6057  0.4872  0.1084
   90SAPC   C29 8576   1.951   1.503   6.239 -0.0334  0.0156 -0.3823
   90SAPC   H9R 8577   1.964   1.611   6.225 -0.6407  0.2729  0.9070
   90SAPC  C210 8578   2.010   1.405   6.134 -0.7592 -1.3442 -0.5199
   90SAPC  H10R 8579   2.052   1.317   6.188  1.3377  0.2745  0.6024
   90SAPC  H10S 8580   2.093   1.455   6.079 -1.6675  0.9730  0.1165
   90SAPC  C211 8581   1.916   1.346   6.034 -0.3597 -0.7540 -0.2334
   90SAPC  H11R 8582   1.830   1.294   6.079 -0.8334  0.2156 -0.0044
   90SAPC  C212 8583   1.908   1.347   5.904  0.0437  0.1775  0.4624
   90SAPC  H12R 8584   1.830   1.285   5.857  0.0514  1.2240 -1.0343
   90SAPC  C213 8585   2.006   1.418   5.812 -0.4477 -0.3770 -0.2782
   90SAPC  H13R 8586   2.084   1.460   5.879 -1.0288 -1.0071  0.8278
   90SAPC  H13S 8587   1.954   1.505   5.766 -0.4659  0.4563  1.2513
   90SAPC  C214 8588   2.067   1.326   5.703  0.7470  0.7202 -0.1695
   90SAPC  H14R 8589   2.050   1.220   5.727  0.8774  0.6573 -0.3520
   90SAPC  C215 8590   2.124   1.369   5.592  0.4703  0.4982 -0.7256
   90SAPC  H15R 8591   2.152   1.301   5.510  2.1321 -0.0550  0.2630
   90SAPC  C216 8592   2.137   1.515   5.561  0.0299 -0.4330  0.9999
   90SAPC  H16R 8593   2.079   1.582   5.628  1.3733  3.4356 -1.3352
   90SAPC  H16S 8594   2.089   1.534   5.463 -0.7799 -0.8245  1.3129
   90SAPC  C217 8595   2.273   1.581   5.539 -0.4801 -0.3246 -0.3048
   90SAPC  H17R 8596   2.268   1.675   5.479  1.6550 -0.3078 -0.5236
   90SAPC  H17S 8597   2.329   1.505   5.481  0.1812 -0.6609  0.7502
   90SAPC  C218 8598   2.352   1.605   5.673 -0.2905  0.9382  0.5149
   90SAPC  H18R 8599   2.379   1.502   5.706  0.4191  1.1148  0.4956
   90SAPC  H18S 8600   2.282   1.646   5.750 -0.2151 -0.2783  1.2643
   90SAPC  C219 8601   2.473   1.687   5.630 -0.5806  0.0283  0.2978
   90SAPC  H19R 8602   2.453   1.788   5.588 -1.0155  0.5318  1.6599
   90SAPC  H19S 8603   2.529   1.630   5.553  0.1152  1.1193 -0.0284
   90SAPC  C220 8604   2.562   1.708   5.752  0.5826  0.2328  0.4870
   90SAPC  H20R 8605   2.599   1.612   5.793  1.8517 -0.4127 -1.9480
   90SAPC  H20S 8606   2.507   1.771   5.825 -1.4871 -0.2219 -0.5879
   90SAPC  H20T 8607   2.652   1.765   5.720  0.0731 -0.1320 -1.7549
   90SAPC   C33 8608   2.024   1.391   6.902 -0.2868  0.4144  0.8531
   90SAPC   H3X 8609   1.921   1.433   6.912 -0.5156 -0.0223  0.3677
   90SAPC   H3Y 8610   2.008   1.298   6.843 -1.1826  1.2423 -0.2748
   90SAPC   C34 8611   2.116   1.500   6.828 -0.2469 -0.5509 -0.6349
   90SAPC   H4X 8612   2.220   1.465   6.813  0.6687  2.6167 -2.5112
   90SAPC   H4Y 8613   2.119   1.597   6.881  1.2946  0.2404 -2.0807
   90SAPC   C35 8614   2.047   1.525   6.695  0.2386  0.3990 -0.0987
   90SAPC   H5X 8615   1.943   1.559   6.717  0.7724  3.1625 -1.4371
   90SAPC   H5Y 8616   2.034   1.432   6.636  1.2835 -1.0914  1.9262
   90SAPC   C36 8617   2.106   1.630   6.608 -0.2346 -0.7211 -0.5736
   90SAPC   H6X 8618   2.099   1.613   6.499  1.9129  0.2607 -0.9233
   90SAPC   H6Y 8619   2.213   1.626   6.638 -0.0263 -0.7579 -1.3083
   90SAPC   C37 8620   2.066   1.775   6.639 -0.0635 -0.4073  0.1667
   90SAPC   H7X 8621   2.157   1.835   6.616  0.5014 -1.2981  0.0470
   90SAPC   H7Y 8622   2.046   1.790   6.748  5.0076 -0.1547  1.3159
   90SAPC   C38 8623   1.947   1.831   6.553 -0.4180 -0.8213  0.7617
   90SAPC   H8X 8624   1.857   1.774   6.583  0.0185 -1.5510  0.7069
   90SAPC   H8Y 8625   1.963   1.816   6.445 -0.6823  0.0287  0.5945
   90SAPC   C39 8626   1.937   1.983   6.564 -0.1148  0.0494  0.1005
   90SAPC   H9X 8627   1.850   2.006   6.498 -0.3994 -1.2612 -0.0152
   90SAPC   H9Y 8628   2.030   2.027   6.524 -0.6641  1.2358  0.0704
   90SAPC  C310 8629   1.912   2.036   6.701  0.5567  0.2635  0.4940
   90SAPC  H10X 8630   1.995   1.988   6.757  0.1541  0.5956  1.3922
   90SAPC  H10Y 8631   1.818   1.994   6.744  1.0579 -1.1775  0.2223
   90SAPC  C311 8632   1.898   2.189   6.717 -0.7130  0.2927  0.3722
   90SAPC  H11X 8633   1.981   2.238   6.662 -1.6648  0.5219 -0.8922
   90SAPC  H11Y 8634   1.918   2.213   6.824  1.1878 -1.2505  0.4053
   90SAPC  C312 8635   1.765   2.254   6.673 -0.7127  0.3632 -0.1520
   90SAPC  H12X 8636   1.756   2.233   6.565  1.9269 -1.7201 -0.0803
   90SAPC  H12Y 8637   1.781   2.362   6.694  2.6414 -0.1471  0.5928
   90SAPC  C313 8638   1.655   2.211   6.759  1.1419 -0.2990 -0.3939
   90SAPC  H13X 8639   1.647   2.240   6.866 -0.0531 -2.5585  0.1929
   90SAPC  H13Y 8640   1.644   2.101   6.763 -0.6095 -0.1457  2.6256
   90SAPC  C314 8641   1.523   2.258   6.710  0.4065 -0.6781 -0.2511
   90SAPC  H14X 8642   1.435   2.212   6.761 -0.0655 -2.0552 -2.1876
   90SAPC  H14Y 8643   1.528   2.218   6.607  0.2844 -0.2323 -0.4328
   90SAPC  C315 8644   1.500   2.405   6.712  0.6623  0.0094  0.1207
   90SAPC  H15X 8645   1.597   2.458   6.712  0.9133 -0.4447  0.0746
   90SAPC  H15Y 8646   1.455   2.427   6.811  0.1179  0.2374 -0.1701
   90SAPC  C316 8647   1.405   2.460   6.608 -0.4622 -0.3058 -0.7227
   90SAPC  H16X 8648   1.387   2.565   6.641 -0.2439  0.6681 -3.3938
   90SAPC  H16Y 8649   1.312   2.400   6.614 -0.5018 -0.0873  1.2354
   90SAPC  C317 8650   1.448   2.471   6.462  0.1979 -0.3190  0.4481
   90SAPC  H17X 8651   1.521   2.388   6.450  1.1193  0.2003  2.1749
   90SAPC  H17Y 8652   1.511   2.562   6.454  2.0971 -1.3184  2.7683
   90SAPC  C318 8653   1.345   2.455   6.348  0.4301 -0.0380 -0.1058
   90SAPC  H18X 8654   1.240   2.485   6.370  0.1426  0.0833 -1.5953
   90SAPC  H18Y 8655   1.335   2.346   6.331 -1.6772 -0.0908  1.0666
   90SAPC  H18Z 8656   1.377   2.507   6.256  2.4035 -2.5150 -0.9248
   91SAPC     N 8657   5.281   1.714   7.491  0.6502 -0.6138  0.0570
   91SAPC   C12 8658   5.249   1.862   7.518  0.1977  0.0537 -0.3578
   91SAPC  H12A 8659   5.202   1.875   7.615  2.5887 -3.0212  1.4094
   91SAPC  H12B 8660   5.186   1.900   7.439 -1.0411 -1.0124  0.0744
   91SAPC   C13 8661   5.386   1.661   7.587  0.0640 -0.5247 -0.2039
   91SAPC  H13A 8662   5.468   1.731   7.585  0.4824 -0.9495  1.1456
   91SAPC  H13B 8663   5.347   1.659   7.688  0.3694 -0.8033 -0.0920
   91SAPC  H13C 8664   5.418   1.560   7.564  1.6815 -0.5839  2.0269
   91SAPC   C14 8665   5.159   1.633   7.513  0.0154 -1.0867  0.8325
   91SAPC  H14A 8666   5.168   1.530   7.481 -0.4492 -1.3663  1.5669
   91SAPC  H14B 8667   5.118   1.642   7.613 -2.1712 -3.3110  0.2362
   91SAPC  H14C 8668   5.088   1.679   7.446  2.0772  0.1332 -0.6118
   91SAPC   C15 8669   5.320   1.687   7.350  0.1646 -0.5504  0.4040
   91SAPC  H15A 8670   5.334   1.581   7.334 -2.2508 -0.9587  0.6204
   91SAPC  H15B 8671   5.246   1.727   7.282  0.1064  0.8499  1.2740
   91SAPC  H15C 8672   5.403   1.745   7.314 -0.3566 -0.1015 -0.1013
   91SAPC   C11 8673   5.370   1.954   7.514 -0.3920 -0.0513  0.2429
   91SAPC  H11A 8674   5.452   1.911   7.576 -0.5124 -0.7164 -0.0461
   91SAPC  H11B 8675   5.352   2.054   7.558  0.6850  0.7267 -1.0213
   91SAPC     P 8676   5.376   2.089   7.283  0.1974 -0.0142  0.0480
   91SAPC   O13 8677   5.230   2.092   7.258  0.4211  0.1106 -0.0678
   91SAPC   O14 8678   5.439   2.204   7.351 -0.5429 -0.4449 -0.2791
   91SAPC   O12 8679   5.410   1.966   7.376 -0.0077 -0.3622  0.5017
   91SAPC   O11 8680   5.448   2.060   7.147 -0.1563  0.5936  0.3407
   91SAPC    C1 8681   5.540   1.953   7.127 -0.6975  0.0663  0.0587
   91SAPC    HA 8682   5.648   1.982   7.132 -0.0244 -2.0965 -0.6531
   91SAPC    HB 8683   5.535   1.873   7.203  1.0465  2.3680  2.8116
   91SAPC    C2 8684   5.529   1.871   6.990 -0.5279 -0.2212  0.2723
   91SAPC    HS 8685   5.589   1.932   6.919 -1.7808 -1.8872 -2.4010
   91SAPC   O21 8686   5.393   1.856   6.957 -0.2659 -0.3841  0.0467
   91SAPC   C21 8687   5.336   1.960   6.898  0.7518  0.3898 -0.0396
   91SAPC   O22 8688   5.401   2.052   6.849  0.3023 -0.1399  0.3068
   91SAPC   C22 8689   5.186   1.940   6.886 -1.1410  0.3025 -0.0398
   91SAPC   H2R 8690   5.162   1.843   6.933 -2.8089  0.3825 -0.6636
   91SAPC   H2S 8691   5.136   2.030   6.926 -4.3590 -1.1452 -0.4779
   91SAPC    C3 8692   5.609   1.734   6.982  0.3238  0.4776  0.7652
   91SAPC    HX 8693   5.564   1.659   7.050  0.8053 -1.7858 -1.3016
   91SAPC    HY 8694   5.713   1.735   7.022  1.2924 -0.2404 -1.5708
   91SAPC   O31 8695   5.591   1.673   6.854 -0.2174 -0.3299 -0.2741
   91SAPC   C31 8696   5.687   1.583   6.821 -0.5838  0.6045  0.2753
   91SAPC   O32 8697   5.789   1.561   6.883  0.0770 -0.9996  0.1641
   91SAPC   C32 8698   5.644   1.511   6.689  0.3154 -0.1131 -0.6280
   91SAPC   H2X 8699   5.673   1.582   6.607  0.4595  1.4419  0.7062
   91SAPC   H2Y 8700   5.534   1.502   6.694  0.2228  1.4345  1.9092
   91SAPC   C23 8701   5.151   1.916   6.741 -0.3831  0.1307 -0.6227
   91SAPC   H3R 8702   5.192   1.999   6.680 -4.2260  1.7362 -1.2823
   91SAPC   H3S 8703   5.043   1.934   6.727 -0.3198  0.9332 -0.0991
   91SAPC   C24 8704   5.194   1.775   6.694 -0.2468  0.0965 -0.6359
   91SAPC   H4R 8705   5.151   1.696   6.759  0.0225  1.1479  0.8830
   91SAPC   H4S 8706   5.305   1.767   6.694 -0.3663 -2.3133  0.0826
   91SAPC   C25 8707   5.140   1.741   6.560  0.2313 -0.0729 -1.1850
   91SAPC   H5R 8708   5.044   1.688   6.573  0.8985 -1.1451 -0.5045
   91SAPC   C26 8709   5.190   1.748   6.439  0.1985 -0.3269  0.7692
   91SAPC   H6R 8710   5.125   1.703   6.363 -2.3639  0.2365  2.5224
   91SAPC   C27 8711   5.314   1.812   6.385  0.3483  0.9388 -0.3784
   91SAPC   H7R 8712   5.368   1.735   6.325 -0.8061  0.9950 -1.5265
   91SAPC   H7S 8713   5.381   1.834   6.471  1.2373  0.1011 -0.8338
   91SAPC   C28 8714   5.286   1.942   6.308  0.2184 -0.2637 -0.6610
   91SAPC   H8R 8715   5.201   2.002   6.342  1.2774  0.3025  1.1332
   91SAPC   C29 8716   5.366   1.992   6.214  0.7190  0.0371  0.1198
   91SAPC   H9R 8717   5.326   2.073   6.152  1.2115  0.3558  0.2136
   91SAPC  C210 8718   5.493   1.935   6.152  0.7810 -0.5683 -1.2709
   91SAPC  H10R 8719   5.509   1.836   6.201 -1.2163 -1.1855 -1.7666
   91SAPC  H10S 8720   5.571   2.003   6.191 -1.1486  0.2044  1.6191
   91SAPC  C211 8721   5.496   1.917   6.000 -0.5627 -0.2661 -0.4587
   91SAPC  H11R 8722   5.392   1.906   5.963 -0.5080 -0.5636 -0.5252
   91SAPC  C212 8723   5.604   1.895   5.922 -0.3606 -0.0226  0.1852
   91SAPC  H12R 8724   5.591   1.873   5.815 -2.3007  2.8404 -0.3003
   91SAPC  C213 8725   5.746   1.877   5.983  0.3024  0.2107  0.4141
   91SAPC  H13R 8726   5.776   1.955   6.056  1.2010  1.3278 -1.0941
   91SAPC  H13S 8727   5.803   1.898   5.890  0.0032  0.7451  0.3496
   91SAPC  C214 8728   5.771   1.730   6.029 -0.7404  0.8126  0.4650
   91SAPC  H14R 8729   5.717   1.653   5.972 -0.0374 -1.3169  2.5179
   91SAPC  C215 8730   5.861   1.679   6.120  0.5872 -0.2700  0.1513
   91SAPC  H15R 8731   5.857   1.573   6.149  2.6378 -0.5406 -0.4631
   91SAPC  C216 8732   5.957   1.762   6.200  0.4105  0.4767  0.4553
   91SAPC  H16R 8733   5.942   1.871   6.183  0.4553  0.1980 -1.5982
   91SAPC  H16S 8734   6.061   1.745   6.164 -0.6588 -1.3775 -1.9866
   91SAPC  C217 8735   5.917   1.755   6.346 -0.1952  0.4137 -0.9078
   91SAPC  H17R 8736   5.982   1.814   6.413 -1.3645 -0.5232  1.1492
   91SAPC  H17S 8737   5.927   1.651   6.384  1.4044  1.6061  2.3241
   91SAPC  C218 8738   5.775   1.809   6.392 -0.0567  0.0764  0.5394
   91SAPC  H18R 8739   5.694   1.733   6.389  1.1631 -1.3489  2.2387
   91SAPC  H18S 8740   5.735   1.878   6.315 -0.4723 -1.5037 -0.7120
   91SAPC  C219 8741   5.784   1.871   6.532 -0.4899 -0.0925 -0.1439
   91SAPC  H19R 8742   5.855   1.956   6.540  1.3991 -1.6791  0.7574
   91SAPC  H19S 8743   5.819   1.786   6.595 -2.0437 -2.7171 -2.5837
   91SAPC  C220 8744   5.647   1.921   6.583 -0.7934 -0.3756 -0.5233
   91SAPC  H20R 8745   5.607   1.993   6.508 -0.6960  0.5898  0.3355
   91SAPC  H20S 8746   5.658   1.970   6.682 -1.0976  0.2649 -0.7989
   91SAPC  H20T 8747   5.579   1.833   6.581 -1.6819  0.2350  1.0341
   91SAPC   C33 8748   5.721   1.382   6.669  0.0943 -0.0247 -0.6451
   91SAPC   H3X 8749   5.750   1.330   6.763  0.9089  0.9235 -0.3639
   91SAPC   H3Y 8750   5.820   1.395   6.622  0.2527 -1.2073 -0.6729
   91SAPC   C34 8751   5.668   1.279   6.566  0.1252  0.6878  0.2383
   91SAPC   H4X 8752   5.573   1.233   6.598  0.3920  0.4702  0.7279
   91SAPC   H4Y 8753   5.741   1.196   6.556  0.9501  1.3241  0.7258
   91SAPC   C35 8754   5.661   1.336   6.421 -0.3238  0.1480 -0.1015
   91SAPC   H5X 8755   5.741   1.405   6.384  0.3475 -2.1517 -3.4149
   91SAPC   H5Y 8756   5.557   1.373   6.422 -0.9404 -1.3252  3.1111
   91SAPC   C36 8757   5.663   1.222   6.317  0.2697 -0.2984 -0.1380
   91SAPC   H6X 8758   5.581   1.149   6.337  0.4360  0.0257  1.9744
   91SAPC   H6Y 8759   5.757   1.165   6.331  0.1506  0.0339  2.4582
   91SAPC   C37 8760   5.650   1.288   6.173 -0.5269 -0.1704 -0.1820
   91SAPC   H7X 8761   5.750   1.331   6.151 -0.9909  0.7746 -0.5424
   91SAPC   H7Y 8762   5.573   1.368   6.187 -1.1976 -0.7717 -0.3687
   91SAPC   C38 8763   5.608   1.184   6.060 -0.5574 -0.0976  0.4204
   91SAPC   H8X 8764   5.498   1.170   6.060 -0.6148  0.2929 -0.0449
   91SAPC   H8Y 8765   5.647   1.089   6.102 -2.6387 -0.6088  1.3213
   91SAPC   C39 8766   5.655   1.215   5.919 -0.1144  0.0782 -0.0585
   91SAPC   H9X 8767   5.603   1.141   5.855 -0.9782  0.6098  0.0215
   91SAPC   H9Y 8768   5.763   1.193   5.907 -0.5507 -1.5100 -1.3541
   91SAPC  C310 8769   5.624   1.358   5.872 -0.1856  0.3907  0.1686
   91SAPC  H10X 8770   5.673   1.422   5.949  0.4636  0.2589 -0.1255
   91SAPC  H10Y 8771   5.513   1.356   5.877 -0.2815  0.7623 -1.3203
   91SAPC  C311 8772   5.676   1.381   5.729  0.4488 -0.5240  0.0865
   91SAPC  H11X 8773   5.607   1.330   5.659  0.6499 -2.6032  1.3222
   91SAPC  H11Y 8774   5.777   1.336   5.726  2.0281  2.7930 -1.3812
   91SAPC  C312 8775   5.656   1.529   5.697 -0.3784 -0.2919 -0.3702
   91SAPC  H12X 8776   5.725   1.598   5.750 -1.3009 -0.3934  1.0228
   91SAPC  H12Y 8777   5.563   1.572   5.740  0.3101  1.4124 -0.4831
   91SAPC  C313 8778   5.675   1.556   5.546 -0.4789 -0.1545 -0.2334
   91SAPC  H13X 8779   5.634   1.470   5.488  0.4653 -0.1084 -0.9899
   91SAPC  H13Y 8780   5.782   1.542   5.521  0.1516  3.7975 -0.4452
   91SAPC  C314 8781   5.625   1.689   5.498  0.7503 -0.1868  0.3930
   91SAPC  H14X 8782   5.666   1.701   5.395  0.1202 -1.2847 -0.0045
   91SAPC  H14Y 8783   5.676   1.766   5.558 -0.1916 -1.3328  2.7859
   91SAPC  C315 8784   5.472   1.699   5.495  0.0342 -0.0790  0.1518
   91SAPC  H15X 8785   5.440   1.679   5.599  0.3458 -1.4568  0.0040
   91SAPC  H15Y 8786   5.438   1.619   5.425  3.2172  0.4111 -2.1571
   91SAPC  C316 8787   5.427   1.841   5.455  0.6811  0.0243 -0.1832
   91SAPC  H16X 8788   5.453   1.922   5.527 -0.8632 -1.2055  1.8855
   91SAPC  H16Y 8789   5.316   1.850   5.451  0.7835  1.3867 -0.6313
   91SAPC  C317 8790   5.469   1.893   5.315 -0.3096 -0.6475  0.4640
   91SAPC  H17X 8791   5.495   1.801   5.259  0.5857 -0.1146 -0.0460
   91SAPC  H17Y 8792   5.563   1.949   5.336  0.4691 -2.0011  0.7185
   91SAPC  C318 8793   5.361   1.979   5.242 -0.2833  0.5397 -0.0667
   91SAPC  H18X 8794   5.299   2.029   5.320 -1.9369 -1.2939 -0.1048
   91SAPC  H18Y 8795   5.293   1.908   5.189  0.4283 -0.0711 -0.1709
   91SAPC  H18Z 8796   5.398   2.046   5.162 -1.5647 -0.9735 -2.0078
   92SAPC     N 8797   4.944   6.652   6.905 -0.0123  0.3725 -0.7515
   92SAPC   C12 8798   4.851   6.604   7.010  0.1955  0.4553  0.3661
   92SAPC  H12A 8799   4.814   6.682   7.075 -1.5009 -0.7907  0.9697
   92SAPC  H12B 8800   4.909   6.535   7.070 -0.0088 -1.9965 -2.0080
   92SAPC   C13 8801   5.057   6.732   6.970  0.2349 -0.0867 -0.0509
   92SAPC  H13A 8802   5.090   6.683   7.060 -2.3954 -1.7294  0.1235
   92SAPC  H13B 8803   5.138   6.748   6.900 -0.3431  0.2632 -0.6586
   92SAPC  H13C 8804   5.030   6.835   6.991  0.7482  0.4671 -1.8599
   92SAPC   C14 8805   5.010   6.538   6.823  0.6596 -0.0301 -0.0955
   92SAPC  H14A 8806   5.062   6.475   6.893  0.5784 -0.9339 -0.8288
   92SAPC  H14B 8807   4.927   6.484   6.780 -0.1916  0.9247  0.2996
   92SAPC  H14C 8808   5.071   6.579   6.744  2.2037  0.3930  1.2814
   92SAPC   C15 8809   4.866   6.747   6.810 -0.5025  0.4794 -0.1127
   92SAPC  H15A 8810   4.781   6.706   6.759 -1.4229  0.0889  1.6563
   92SAPC  H15B 8811   4.820   6.831   6.861 -1.5291  0.0204 -0.2565
   92SAPC  H15C 8812   4.931   6.795   6.738 -0.6860 -1.9449 -2.0330
   92SAPC   C11 8813   4.726   6.530   6.955  0.5697 -0.3911  0.5243
   92SAPC  H11A 8814   4.670   6.603   6.892 -0.4178 -1.2559  0.3691
   92SAPC  H11B 8815   4.651   6.527   7.037 -0.6356  3.5388 -0.1959
   92SAPC     P 8816   4.796   6.284   6.940 -0.2307 -0.3432 -0.0798
   92SAPC   O13 8817   4.898   6.226   6.846 -0.2898  0.7173 -0.1232
   92SAPC   O14 8818   4.831   6.296   7.084 -0.5255  1.3385  0.5287
   92SAPC   O12 8819   4.750   6.414   6.880 -0.0889 -0.9309 -0.0247
   92SAPC   O11 8820   4.665   6.197   6.950 -0.4254 -0.6887  0.4789
   92SAPC    C1 8821   4.535   6.231   6.907  0.0431  0.4175  0.2510
   92SAPC    HA 8822   4.459   6.171   6.962 -0.5347  2.8069  2.2460
   92SAPC    HB 8823   4.511   6.338   6.919 -2.2983 -0.1400  1.1247
   92SAPC    C2 8824   4.515   6.205   6.755 -0.3994 -0.0969  0.1755
   92SAPC    HS 8825   4.409   6.174   6.742 -0.4175 -0.0740  0.2634
   92SAPC   O21 8826   4.604   6.097   6.712 -0.3711 -0.4340 -0.4811
   92SAPC   C21 8827   4.600   5.985   6.781  0.1444  0.9384  0.3075
   92SAPC   O22 8828   4.528   5.952   6.875  0.2448  0.4741 -0.7278
   92SAPC   C22 8829   4.697   5.893   6.705  0.1118  0.4270 -0.0879
   92SAPC   H2R 8830   4.798   5.939   6.715  0.5758  0.2725 -3.0008
   92SAPC   H2S 8831   4.676   5.792   6.746  0.2879  0.7320  0.7739
   92SAPC    C3 8832   4.526   6.332   6.675  0.3129  0.2252 -0.1312
   92SAPC    HX 8833   4.632   6.365   6.688  0.9906 -1.3398 -1.3283
   92SAPC    HY 8834   4.468   6.418   6.714  0.3839  0.0817  0.2995
   92SAPC   O31 8835   4.494   6.313   6.539 -0.1662 -0.3524 -0.2458
   92SAPC   C31 8836   4.594   6.302   6.453 -0.4387 -0.1223 -0.0312
   92SAPC   O32 8837   4.714   6.316   6.476 -0.8790  0.1911  0.4165
   92SAPC   C32 8838   4.549   6.265   6.317 -0.2993  0.5599  0.2780
   92SAPC   H2X 8839   4.439   6.285   6.319  0.0081  2.3823  0.6998
   92SAPC   H2Y 8840   4.570   6.158   6.297 -0.1694  0.6474 -0.0597
   92SAPC   C23 8841   4.657   5.871   6.555 -0.1389 -0.0900  0.4807
   92SAPC   H3R 8842   4.599   5.958   6.518  0.2221  0.1207  0.4120
   92SAPC   H3S 8843   4.582   5.789   6.547 -0.6775  0.4342  0.1508
   92SAPC   C24 8844   4.780   5.853   6.469 -0.2772 -0.0177 -0.0666
   92SAPC   H4R 8845   4.814   5.747   6.465 -0.7971 -0.1767 -0.3274
   92SAPC   H4S 8846   4.868   5.898   6.520  0.1798 -2.8791  1.9168
   92SAPC   C25 8847   4.757   5.890   6.328 -0.0919  0.3747  1.1152
   92SAPC   H5R 8848   4.806   5.985   6.301 -1.2727  1.0135  1.1681
   92SAPC   C26 8849   4.700   5.811   6.229 -0.0669  0.4481 -0.0968
   92SAPC   H6R 8850   4.699   5.847   6.125  0.2866 -4.0000 -1.8754
   92SAPC   C27 8851   4.639   5.679   6.243 -0.3955  0.0078 -0.8193
   92SAPC   H7R 8852   4.529   5.689   6.258 -0.1644 -0.5797  1.6095
   92SAPC   H7S 8853   4.679   5.629   6.333 -2.7360 -1.4732 -0.4878
   92SAPC   C28 8854   4.676   5.591   6.130  1.0044 -0.2327 -0.3375
   92SAPC   H8R 8855   4.786   5.583   6.127  1.2503  2.1115  0.1216
   92SAPC   C29 8856   4.597   5.533   6.039 -0.0471 -0.1801 -0.6689
   92SAPC   H9R 8857   4.636   5.461   5.965 -3.1003 -1.5084 -1.1458
   92SAPC  C210 8858   4.447   5.550   6.060  0.6811 -0.2873 -0.6354
   92SAPC  H10R 8859   4.422   5.659   6.059  3.2213  0.3721  0.3464
   92SAPC  H10S 8860   4.417   5.525   6.164  0.5668 -0.0670 -0.6146
   92SAPC  C211 8861   4.347   5.489   5.959 -0.5673 -0.0228  0.0224
   92SAPC  H11R 8862   4.380   5.499   5.855  1.4723 -1.4734  0.4511
   92SAPC  C212 8863   4.243   5.417   5.986 -0.6286  0.2871 -0.0994
   92SAPC  H12R 8864   4.177   5.390   5.902 -1.4532  0.2949  0.5312
   92SAPC  C213 8865   4.176   5.405   6.116 -0.8836  0.4859  0.1019
   92SAPC  H13R 8866   4.186   5.504   6.164  0.1955 -0.1129  1.1468
   92SAPC  H13S 8867   4.238   5.330   6.170  0.4398  1.7593  0.4121
   92SAPC  C214 8868   4.025   5.382   6.098 -0.7823 -0.8695 -0.3592
   92SAPC  H14R 8869   3.993   5.315   6.018  1.4379 -1.0769 -1.1213
   92SAPC  C215 8870   3.927   5.439   6.169 -0.0434  0.0010  0.1816
   92SAPC  H15R 8871   3.824   5.416   6.140  0.2621 -0.9261 -0.2071
   92SAPC  C216 8872   3.941   5.529   6.289 -0.3670 -0.5852 -0.6932
   92SAPC  H16R 8873   4.042   5.548   6.331 -0.1999 -1.3370 -0.7428
   92SAPC  H16S 8874   3.897   5.477   6.377 -2.0460  2.1673  0.2141
   92SAPC  C217 8875   3.864   5.656   6.256 -0.6771 -0.0667 -0.0939
   92SAPC  H17R 8876   3.767   5.629   6.209 -0.2276 -1.2805 -0.3483
   92SAPC  H17S 8877   3.920   5.717   6.182 -1.3218  0.1665 -0.4016
   92SAPC  C218 8878   3.853   5.739   6.387 -0.4365  0.1582 -0.6283
   92SAPC  H18R 8879   3.954   5.746   6.434 -0.4074 -0.3368 -0.6109
   92SAPC  H18S 8880   3.776   5.705   6.459  1.7759 -2.4441  0.7235
   92SAPC  C219 8881   3.826   5.887   6.357 -0.9024 -0.1758 -0.5275
   92SAPC  H19R 8882   3.749   5.899   6.278 -0.0988  1.7724 -1.0680
   92SAPC  H19S 8883   3.915   5.931   6.308  1.2077 -1.6914  1.7329
   92SAPC  C220 8884   3.807   5.974   6.481  0.2060  0.4693 -0.0631
   92SAPC  H20R 8885   3.728   5.923   6.541  0.3282 -0.7837 -0.9144
   92SAPC  H20S 8886   3.761   6.071   6.453  0.6746  1.7425  3.1723
   92SAPC  H20T 8887   3.904   5.990   6.533  0.0582 -1.3562  0.8996
   92SAPC   C33 8888   4.607   6.346   6.204  1.2227 -0.4704  0.4133
   92SAPC   H3X 8889   4.716   6.326   6.198  1.2100 -1.0000  1.6200
   92SAPC   H3Y 8890   4.598   6.454   6.230  0.8729 -0.6249  0.9598
   92SAPC   C34 8891   4.529   6.319   6.074 -0.2654  0.1224 -0.5573
   92SAPC   H4X 8892   4.428   6.364   6.086  0.9496  2.5263  1.5801
   92SAPC   H4Y 8893   4.516   6.210   6.056 -0.5032  0.5346 -3.3538
   92SAPC   C35 8894   4.592   6.378   5.949  0.0647 -0.2849  0.0415
   92SAPC   H5X 8895   4.690   6.333   5.925  1.0774  0.7800  1.9806
   92SAPC   H5Y 8896   4.618   6.484   5.969 -0.0279  0.1876 -2.1356
   92SAPC   C36 8897   4.494   6.383   5.830  0.0216  0.1491 -0.4419
   92SAPC   H6X 8898   4.415   6.460   5.844 -1.1091 -0.8144 -1.3598
   92SAPC   H6Y 8899   4.455   6.280   5.817 -0.8106  0.5796 -1.5499
   92SAPC   C37 8900   4.574   6.433   5.709  0.5487 -0.9046 -0.0534
   92SAPC   H7X 8901   4.657   6.360   5.698  1.5868 -0.0228  1.5399
   92SAPC   H7Y 8902   4.626   6.528   5.735  0.4664 -0.6312 -0.8445
   92SAPC   C38 8903   4.487   6.453   5.579 -0.0538 -0.0216 -1.1190
   92SAPC   H8X 8904   4.386   6.470   5.622 -0.3402 -3.4499 -0.1256
   92SAPC   H8Y 8905   4.497   6.356   5.526  0.5563  0.3358 -1.6648
   92SAPC   C39 8906   4.539   6.568   5.487 -0.2446 -0.4887 -0.4207
   92SAPC   H9X 8907   4.556   6.653   5.557  0.1288 -0.0807 -1.0034
   92SAPC   H9Y 8908   4.460   6.600   5.416  0.6552  1.3768 -0.6507
   92SAPC  C310 8909   4.678   6.537   5.425  1.1353 -0.3980  0.3242
   92SAPC  H10X 8910   4.756   6.494   5.491  2.7549  0.5126 -0.9092
   92SAPC  H10Y 8911   4.727   6.632   5.394  1.7103 -0.9715 -0.5563
   92SAPC  C311 8912   4.673   6.438   5.309  0.2777 -0.7931 -0.1081
   92SAPC  H11X 8913   4.574   6.455   5.260 -0.4492 -2.0037  0.8789
   92SAPC  H11Y 8914   4.669   6.333   5.346  1.1045 -0.8680 -0.2157
   92SAPC  C312 8915   4.795   6.463   5.223  0.3307  0.1426 -0.7806
   92SAPC  H12X 8916   4.882   6.432   5.285  1.3457  0.5639 -1.9661
   92SAPC  H12Y 8917   4.800   6.568   5.187 -0.1511  0.6599  0.5759
   92SAPC  C313 8918   4.788   6.370   5.098 -0.9091  0.2059 -0.0291
   92SAPC  H13X 8919   4.702   6.402   5.035 -0.8489  2.1045  0.7827
   92SAPC  H13Y 8920   4.768   6.270   5.142 -1.1296  0.3473  0.1977
   92SAPC  C314 8921   4.917   6.370   5.019 -0.2520 -0.6337 -0.4049
   92SAPC  H14X 8922   5.001   6.337   5.085 -1.4096  0.0308  1.4938
   92SAPC  H14Y 8923   4.936   6.473   4.984 -2.8100  0.3818  0.9122
   92SAPC  C315 8924   4.910   6.271   4.903  0.1588  0.2043  0.3457
   92SAPC  H15X 8925   5.005   6.292   4.850 -0.0396 -0.4493 -0.2916
   92SAPC  H15Y 8926   4.833   6.295   4.826 -0.0410 -0.8006  0.2144
   92SAPC  C316 8927   4.901   6.121   4.946 -0.2043 -0.0701  0.1098
   92SAPC  H16X 8928   4.894   6.053   4.858  0.1267 -0.7227  0.5797
   92SAPC  H16Y 8929   4.807   6.103   5.002  0.2245  1.5811  1.4615
   92SAPC  C317 8930   5.011   6.067   5.037  1.1762  0.0147 -0.2130
   92SAPC  H17X 8931   4.979   5.964   5.065 -2.8700 -0.1142 -4.1994
   92SAPC  H17Y 8932   5.004   6.127   5.130  1.0516  0.0642 -0.2548
   92SAPC  C318 8933   5.155   6.067   4.989 -0.4509  0.7112  0.5337
   92SAPC  H18X 8934   5.231   6.025   5.058 -0.0574  2.3790  1.1445
   92SAPC  H18Y 8935   5.184   6.174   4.987 -2.7522  1.3804  0.9814
   92SAPC  H18Z 8936   5.151   6.031   4.883 -0.4555 -0.8759  1.0427
   93SAPC     N 8937   6.577   0.823   7.391  0.1949 -0.1446 -0.6255
   93SAPC   C12 8938   6.572   0.841   7.242  0.9207 -0.3831 -0.2031
   93SAPC  H12A 8939   6.591   0.744   7.199  0.6460 -0.1968 -0.7544
   93SAPC  H12B 8940   6.652   0.910   7.219  0.8970 -0.3299 -0.1249
   93SAPC   C13 8941   6.716   0.828   7.444  0.2383  0.0090 -0.4272
   93SAPC  H13A 8942   6.717   0.802   7.549  0.7879  1.0474 -0.1561
   93SAPC  H13B 8943   6.777   0.761   7.385  0.2407 -0.0181 -0.3939
   93SAPC  H13C 8944   6.756   0.928   7.431 -1.0275  0.8893  1.7610
   93SAPC   C14 8945   6.494   0.928   7.466  0.4249  0.0573 -0.0649
   93SAPC  H14A 8946   6.395   0.885   7.473  0.4127  0.1185  0.1498
   93SAPC  H14B 8947   6.520   0.955   7.568 -1.1898  2.1121 -0.1243
   93SAPC  H14C 8948   6.488   1.025   7.419 -3.2892  0.1259  0.3036
   93SAPC   C15 8949   6.507   0.697   7.429  0.2572  0.5836  0.4826
   93SAPC  H15A 8950   6.538   0.604   7.386  0.1748 -0.8944  3.3565
   93SAPC  H15B 8951   6.526   0.677   7.534 -3.5941  1.8967  1.6082
   93SAPC  H15C 8952   6.399   0.705   7.421  0.2757 -0.5673 -1.3630
   93SAPC   C11 8953   6.445   0.904   7.174  0.2113  0.3615 -0.2512
   93SAPC  H11A 8954   6.366   0.826   7.168  0.6275  0.0186 -2.3268
   93SAPC  H11B 8955   6.475   0.921   7.068  0.4325  1.8475  0.0372
   93SAPC     P 8956   6.267   1.094   7.179  0.2058 -0.2117  0.2558
   93SAPC   O13 8957   6.155   1.005   7.218  0.1652  0.2891  0.3905
   93SAPC   O14 8958   6.266   1.232   7.229 -0.1703  0.0001 -0.9096
   93SAPC   O12 8959   6.409   1.034   7.220 -0.2215 -0.2497 -0.8778
   93SAPC   O11 8960   6.273   1.099   7.021  0.2908 -0.3836 -0.3366
   93SAPC    C1 8961   6.362   1.188   6.953  0.0271  0.2637 -0.1951
   93SAPC    HA 8962   6.321   1.291   6.951 -0.5339  0.0413 -2.3222
   93SAPC    HB 8963   6.464   1.194   6.996 -0.1920  1.4676  0.2090
   93SAPC    C2 8964   6.374   1.144   6.806  0.7967 -0.4305  0.3422
   93SAPC    HS 8965   6.453   1.209   6.762 -0.3957 -0.1251 -1.4803
   93SAPC   O21 8966   6.244   1.156   6.744  0.0641 -0.6161 -0.1009
   93SAPC   C21 8967   6.229   1.228   6.638  0.6649  0.6202  0.6249
   93SAPC   O22 8968   6.318   1.278   6.570  0.1546  0.4301 -0.0982
   93SAPC   C22 8969   6.083   1.230   6.594 -0.0695 -0.0174 -0.5092
   93SAPC   H2R 8970   6.024   1.157   6.654 -1.0231 -1.0360 -2.5979
   93SAPC   H2S 8971   6.051   1.332   6.624 -0.0378 -0.0608 -0.3254
   93SAPC    C3 8972   6.423   0.998   6.793 -0.2621  0.6280  0.1646
   93SAPC    HX 8973   6.337   0.942   6.837 -1.4225  0.7484 -1.8167
   93SAPC    HY 8974   6.513   0.996   6.858  0.8319  0.8099 -1.2796
   93SAPC   O31 8975   6.447   0.969   6.650  0.0063 -0.6224 -0.4383
   93SAPC   C31 8976   6.450   0.841   6.626 -0.0115  0.0971 -0.6683
   93SAPC   O32 8977   6.427   0.755   6.705  0.0594  0.0789  0.0352
   93SAPC   C32 8978   6.504   0.829   6.482 -0.1769 -0.0187 -0.0029
   93SAPC   H2X 8979   6.575   0.913   6.468  0.4182  0.1475  3.1819
   93SAPC   H2Y 8980   6.421   0.859   6.415  0.3428 -0.7954 -1.0175
   93SAPC   C23 8981   6.068   1.232   6.443 -0.1047  0.1792  0.1961
   93SAPC   H3R 8982   6.155   1.281   6.394 -0.2944  0.1870 -0.1410
   93SAPC   H3S 8983   5.980   1.293   6.413  1.2598  1.8791 -0.4681
   93SAPC   C24 8984   6.050   1.099   6.377 -0.9335 -0.1133  0.1486
   93SAPC   H4R 8985   6.002   1.126   6.280  0.0015  1.6413  0.1354
   93SAPC   H4S 8986   5.979   1.047   6.445  1.6069 -1.8138  1.6536
   93SAPC   C25 8987   6.179   1.020   6.358 -0.7228 -0.2018 -0.5495
   93SAPC   H5R 8988   6.207   0.957   6.444 -0.3874  0.4762 -0.1568
   93SAPC   C26 8989   6.240   1.004   6.239  0.3735  0.8027 -0.3856
   93SAPC   H6R 8990   6.336   0.951   6.229 -0.9557 -1.9132  0.3761
   93SAPC   C27 8991   6.198   1.069   6.109  0.1561 -0.1805  0.5311
   93SAPC   H7R 8992   6.287   1.083   6.044 -0.9718  1.6304 -0.7251
   93SAPC   H7S 8993   6.161   1.172   6.128  0.5952  0.0801 -0.0142
   93SAPC   C28 8994   6.080   1.014   6.031 -0.1345  0.4645  0.7193
   93SAPC   H8R 8995   5.990   0.998   6.093  0.6522  1.1914  2.0959
   93SAPC   C29 8996   6.068   0.973   5.901 -0.7121 -0.3000  0.0963
   93SAPC   H9R 8997   5.969   0.943   5.862 -0.9327  1.2210 -0.5561
   93SAPC  C210 8998   6.177   0.987   5.796 -0.3706  0.0744  0.7731
   93SAPC  H10R 8999   6.265   0.925   5.823 -0.4221  0.0771  0.9515
   93SAPC  H10S 9000   6.217   1.091   5.791 -0.2793  0.0020 -0.1644
   93SAPC  C211 9001   6.125   0.936   5.665 -0.4213 -0.6115 -0.2181
   93SAPC  H11R 9002   6.098   0.830   5.671 -0.9358 -0.6934 -2.6614
   93SAPC  C212 9003   6.119   1.008   5.544  0.7608 -0.0991  0.5078
   93SAPC  H12R 9004   6.077   0.952   5.459  1.0660 -1.1789  1.0417
   93SAPC  C213 9005   6.165   1.152   5.513 -0.7750  0.8803  0.9874
   93SAPC  H13R 9006   6.247   1.142   5.438 -0.3391  0.2004  1.5367
   93SAPC  H13S 9007   6.220   1.189   5.602  1.0282 -2.0333  1.2372
   93SAPC  C214 9008   6.050   1.238   5.465 -0.1792 -0.1000  0.3332
   93SAPC  H14R 9009   5.960   1.238   5.528  0.0111 -0.0415  0.6088
   93SAPC  C215 9010   6.071   1.328   5.365  0.7351  0.5395  0.1242
   93SAPC  H15R 9011   5.989   1.398   5.342  1.8668  2.0210  0.4704
   93SAPC  C216 9012   6.193   1.365   5.286 -0.1472  0.2436 -0.3216
   93SAPC  H16R 9013   6.176   1.344   5.178 -0.5465  2.6840 -0.7932
   93SAPC  H16S 9014   6.280   1.313   5.332 -0.0837  1.4024  0.9360
   93SAPC  C217 9015   6.227   1.517   5.299  0.3506  0.4527  0.5953
   93SAPC  H17R 9016   6.248   1.536   5.407 -1.6989  1.4011  0.8738
   93SAPC  H17S 9017   6.141   1.584   5.276  0.0778 -0.4071 -1.0557
   93SAPC  C218 9018   6.344   1.567   5.212  0.0721  0.3151  0.1075
   93SAPC  H18R 9019   6.327   1.549   5.104 -0.1396 -0.8703  0.3219
   93SAPC  H18S 9020   6.433   1.507   5.241 -0.4922 -0.6582 -0.1265
   93SAPC  C219 9021   6.389   1.720   5.224  0.1041 -0.7485 -0.9028
   93SAPC  H19R 9022   6.404   1.748   5.330 -0.8932  1.3278 -1.2813
   93SAPC  H19S 9023   6.296   1.774   5.196  1.9236  3.1309 -0.0709
   93SAPC  C220 9024   6.502   1.763   5.132 -0.5237 -0.3308 -0.2646
   93SAPC  H20R 9025   6.467   1.743   5.028 -1.1328 -0.2277 -0.0874
   93SAPC  H20S 9026   6.596   1.707   5.149  0.1138  0.9623  0.6425
   93SAPC  H20T 9027   6.527   1.870   5.142  2.4599 -1.0036  0.5482
   93SAPC   C33 9028   6.552   0.688   6.448 -0.3616 -0.0297  0.0131
   93SAPC   H3X 9029   6.486   0.609   6.489 -0.8351  1.1666  1.6810
   93SAPC   H3Y 9030   6.652   0.666   6.493 -0.7119 -3.4299 -0.6444
   93SAPC   C34 9031   6.576   0.661   6.299  0.0517 -0.2487  0.1970
   93SAPC   H4X 9032   6.631   0.564   6.296 -0.9678 -0.9268  1.9408
   93SAPC   H4Y 9033   6.618   0.754   6.255 -1.6869  0.0934 -0.8328
   93SAPC   C35 9034   6.440   0.643   6.216 -0.0722  0.3043 -0.0368
   93SAPC   H5X 9035   6.372   0.727   6.240 -1.2418 -0.3406 -1.0100
   93SAPC   H5Y 9036   6.390   0.547   6.238 -0.3954 -0.0421 -2.0668
   93SAPC   C36 9037   6.473   0.654   6.070  0.1022  0.8614 -0.7409
   93SAPC   H6X 9038   6.544   0.571   6.052  1.0079  1.3978  0.2342
   93SAPC   H6Y 9039   6.520   0.751   6.044 -0.6327  1.2740 -0.5668
   93SAPC   C37 9040   6.356   0.626   5.978  0.2871  0.8213  0.6357
   93SAPC   H7X 9041   6.279   0.702   6.001 -0.7439  0.4268 -1.3076
   93SAPC   H7Y 9042   6.319   0.524   6.001  2.0574 -0.9896 -3.5580
   93SAPC   C38 9043   6.397   0.632   5.829 -0.1516  0.1321 -0.6315
   93SAPC   H8X 9044   6.490   0.581   5.797 -1.8418 -2.1382 -2.3165
   93SAPC   H8Y 9045   6.413   0.741   5.812  0.8912  0.5850  2.6829
   93SAPC   C39 9046   6.292   0.583   5.732 -0.0229 -0.4388  0.1997
   93SAPC   H9X 9047   6.186   0.611   5.753 -0.0997 -1.1597  0.7907
   93SAPC   H9Y 9048   6.290   0.472   5.738 -1.8535 -0.3572  2.8271
   93SAPC  C310 9049   6.326   0.628   5.589  0.7482  1.0630 -0.4900
   93SAPC  H10X 9050   6.436   0.620   5.575  0.9617  0.7717  1.1476
   93SAPC  H10Y 9051   6.305   0.737   5.579  2.1508  1.2587 -1.5680
   93SAPC  C311 9052   6.239   0.565   5.471 -0.0841  0.1957 -0.1176
   93SAPC  H11X 9053   6.131   0.578   5.494 -0.1255 -0.4632  0.0911
   93SAPC  H11Y 9054   6.259   0.456   5.480 -0.8293  0.1221  0.9009
   93SAPC  C312 9055   6.281   0.613   5.327 -0.2505  0.4448 -0.4395
   93SAPC  H12X 9056   6.207   0.590   5.247 -0.3498 -1.2913  0.1086
   93SAPC  H12Y 9057   6.376   0.569   5.292  0.7337 -1.5368  4.0392
   93SAPC  C313 9058   6.286   0.766   5.314 -0.8909 -0.0159 -0.3913
   93SAPC  H13X 9059   6.354   0.807   5.392  0.4799 -0.4321 -1.3140
   93SAPC  H13Y 9060   6.186   0.809   5.336 -0.9629 -0.4289  0.1241
   93SAPC  C314 9061   6.322   0.815   5.171 -0.4160  0.0291  0.7079
   93SAPC  H14X 9062   6.244   0.773   5.104 -0.4552  2.4414 -0.8563
   93SAPC  H14Y 9063   6.421   0.770   5.147 -0.9196 -0.7743  0.0719
   93SAPC  C315 9064   6.309   0.962   5.144 -0.0397 -0.5325 -0.8375
   93SAPC  H15X 9065   6.389   1.024   5.191 -2.1630  1.9155 -0.2339
   93SAPC  H15Y 9066   6.219   0.980   5.207  1.3366 -1.8249  1.6509
   93SAPC  C316 9067   6.291   0.996   5.000 -0.4523  0.4116 -0.0736
   93SAPC  H16X 9068   6.192   0.955   4.970 -0.5637  0.2562  0.4807
   93SAPC  H16Y 9069   6.370   0.956   4.934 -0.3850  2.0717 -1.0374
   93SAPC  C317 9070   6.278   1.148   4.976  0.4047  0.9481  0.8388
   93SAPC  H17X 9071   6.372   1.202   5.003 -0.1035  1.7904  0.9386
   93SAPC  H17Y 9072   6.196   1.187   5.039 -0.0594 -0.4810  1.1363
   93SAPC  C318 9073   6.233   1.188   4.836 -0.4864 -0.3357  0.1999
   93SAPC  H18X 9074   6.308   1.182   4.755  0.0012 -0.7527  0.6733
   93SAPC  H18Y 9075   6.201   1.295   4.827  1.0989  0.2892  1.4707
   93SAPC  H18Z 9076   6.145   1.124   4.811 -0.5129 -0.1169 -0.2772
   94SAPC     N 9077   6.216   6.134   6.788  0.7067 -0.9413 -0.0907
   94SAPC   C12 9078   6.098   6.221   6.722  0.5590  0.3691 -0.0974
   94SAPC  H12A 9079   6.137   6.269   6.634  0.1229 -0.1634 -0.5922
   94SAPC  H12B 9080   6.073   6.292   6.800 -1.5309 -0.7004  0.2828
   94SAPC   C13 9081   6.309   6.239   6.831  0.1419 -0.2852 -0.7708
   94SAPC  H13A 9082   6.391   6.195   6.885  0.4242 -0.1467 -1.0832
   94SAPC  H13B 9083   6.348   6.285   6.741 -1.2017 -0.3467 -1.4103
   94SAPC  H13C 9084   6.275   6.319   6.895 -0.5456  0.0119 -1.4925
   94SAPC   C14 9085   6.184   6.051   6.905  0.0358 -0.0974 -0.0206
   94SAPC  H14A 9086   6.101   6.093   6.959  0.2566  1.3213 -0.7321
   94SAPC  H14B 9087   6.164   5.949   6.875  1.1961 -0.3394 -0.0123
   94SAPC  H14C 9088   6.271   6.059   6.969  1.0370 -2.4877 -0.9625
   94SAPC   C15 9089   6.287   6.050   6.687  0.0393  0.5861 -0.6314
   94SAPC  H15A 9090   6.316   6.114   6.605  0.1631  0.9423 -0.3123
   94SAPC  H15B 9091   6.374   6.024   6.746 -0.5052  0.0331 -0.0546
   94SAPC  H15C 9092   6.235   5.958   6.666 -0.4911  1.1361 -1.7712
   94SAPC   C11 9093   5.969   6.141   6.683 -0.3044  0.2416 -0.2571
   94SAPC  H11A 9094   6.003   6.063   6.611  0.7251  1.7036 -1.4264
   94SAPC  H11B 9095   5.906   6.206   6.618  0.5814  2.2183  0.7628
   94SAPC     P 9096   5.820   6.205   6.884  0.3612 -0.0247 -0.0408
   94SAPC   O13 9097   5.779   6.147   7.016 -0.1289  0.0398  0.5811
   94SAPC   O14 9098   5.899   6.327   6.889  0.2392 -0.4936 -0.3180
   94SAPC   O12 9099   5.900   6.098   6.804 -0.1653 -0.3111  0.4554
   94SAPC   O11 9100   5.692   6.231   6.797 -0.1682  0.4685 -0.0992
   94SAPC    C1 9101   5.602   6.124   6.763  0.9181  0.2121  0.0707
   94SAPC    HA 9102   5.605   6.039   6.834  0.6659  0.2403  0.1159
   94SAPC    HB 9103   5.498   6.160   6.776  1.7926  2.0796  2.9969
   94SAPC    C2 9104   5.626   6.054   6.626  0.2364  0.5191 -0.0240
   94SAPC    HS 9105   5.728   6.011   6.641  0.2601  1.2702  2.5329
   94SAPC   O21 9106   5.631   6.156   6.523  1.0683 -0.1459 -0.4688
   94SAPC   C21 9107   5.715   6.132   6.424  0.9912 -0.4897  0.0705
   94SAPC   O22 9108   5.786   6.032   6.417 -0.1320 -0.2558 -0.2298
   94SAPC   C22 9109   5.712   6.246   6.328  0.9794  0.4754 -0.0543
   94SAPC   H2R 9110   5.810   6.295   6.348  0.8155  0.3061  1.3128
   94SAPC   H2S 9111   5.714   6.206   6.225 -1.9902  1.5992 -0.6679
   94SAPC    C3 9112   5.518   5.944   6.595  0.1108 -0.4945  0.3265
   94SAPC    HX 9113   5.514   5.877   6.683 -2.1737 -0.2581  0.4597
   94SAPC    HY 9114   5.562   5.896   6.506  1.0770  1.4796 -0.3199
   94SAPC   O31 9115   5.387   6.004   6.574 -0.4092  0.0611 -0.0911
   94SAPC   C31 9116   5.356   6.023   6.443  0.3099  0.1087 -0.5896
   94SAPC   O32 9117   5.431   5.985   6.351  0.7033 -0.4712  0.4989
   94SAPC   C32 9118   5.227   6.096   6.437 -0.1179 -0.0208  0.2715
   94SAPC   H2X 9119   5.225   6.184   6.504 -2.4676 -0.3674  0.7517
   94SAPC   H2Y 9120   5.145   6.028   6.471 -0.3074  0.6584  1.1957
   94SAPC   C23 9121   5.601   6.359   6.335  0.3190  0.4915 -0.3046
   94SAPC   H3R 9122   5.620   6.415   6.428  0.1088  1.1451 -0.6498
   94SAPC   H3S 9123   5.502   6.312   6.352  0.0463  1.1313 -0.0943
   94SAPC   C24 9124   5.601   6.457   6.223 -0.4762  0.0178  0.4751
   94SAPC   H4R 9125   5.514   6.527   6.224  1.0004  1.9347  0.4060
   94SAPC   H4S 9126   5.588   6.397   6.130  1.0322 -1.6429  1.2876
   94SAPC   C25 9127   5.733   6.531   6.216 -0.4044  0.9723  0.1349
   94SAPC   H5R 9128   5.784   6.544   6.312  0.3328  0.6625 -0.2122
   94SAPC   C26 9129   5.789   6.591   6.105  0.1439 -0.1701 -0.2998
   94SAPC   H6R 9130   5.886   6.641   6.118  0.9919 -1.2873 -1.9632
   94SAPC   C27 9131   5.730   6.592   5.962  0.8006 -0.1624  0.1525
   94SAPC   H7R 9132   5.644   6.521   5.958 -1.6916  2.4299  2.4533
   94SAPC   H7S 9133   5.814   6.542   5.909  0.5060 -0.7619  0.2381
   94SAPC   C28 9134   5.689   6.730   5.911 -0.3474  0.1761  0.6661
   94SAPC   H8R 9135   5.603   6.773   5.964 -0.3493  0.2580  0.5972
   94SAPC   C29 9136   5.726   6.797   5.802 -0.2671 -0.2620  0.7315
   94SAPC   H9R 9137   5.690   6.900   5.790 -0.7084 -0.4399  0.4960
   94SAPC  C210 9138   5.823   6.746   5.699 -0.4176 -0.6105  0.0305
   94SAPC  H10R 9139   5.854   6.649   5.743  0.0414 -0.7013 -0.4816
   94SAPC  H10S 9140   5.911   6.813   5.690  1.8411 -3.4425 -0.2779
   94SAPC  C211 9141   5.758   6.719   5.561 -0.0995  0.4238  0.2066
   94SAPC  H11R 9142   5.682   6.639   5.561 -0.3434  0.5670 -2.5785
   94SAPC  C212 9143   5.810   6.730   5.438 -0.4982  0.6854  0.6499
   94SAPC  H12R 9144   5.747   6.716   5.349  2.9138 -1.5378 -1.6754
   94SAPC  C213 9145   5.943   6.798   5.402 -0.8455  0.4305 -0.4266
   94SAPC  H13R 9146   5.981   6.854   5.490 -0.8924  1.7229 -1.1994
   94SAPC  H13S 9147   5.941   6.874   5.321 -0.3296 -1.1858 -2.0055
   94SAPC  C214 9148   6.055   6.701   5.365 -0.1321  0.5025 -0.6766
   94SAPC  H14R 9149   6.034   6.601   5.406 -0.7706  0.5373 -0.9086
   94SAPC  C215 9150   6.161   6.729   5.279 -0.1886  0.5563  0.2813
   94SAPC  H15R 9151   6.225   6.645   5.250  0.0903  0.8517  0.0424
   94SAPC  C216 9152   6.188   6.862   5.215 -0.1157  0.8236  0.1621
   94SAPC  H16R 9153   6.285   6.908   5.244  0.4139 -0.7812  1.0554
   94SAPC  H16S 9154   6.119   6.939   5.257 -0.3125  1.6743 -1.6186
   94SAPC  C217 9155   6.176   6.855   5.064  0.0258  0.0271  0.5643
   94SAPC  H17R 9156   6.145   6.957   5.032 -0.7594  0.1557  1.6667
   94SAPC  H17S 9157   6.092   6.789   5.035  1.8690 -2.8595  1.3823
   94SAPC  C218 9158   6.306   6.801   4.993 -0.1809 -0.1744  0.3001
   94SAPC  H18R 9159   6.310   6.693   5.021 -3.9977 -0.0682  1.8837
   94SAPC  H18S 9160   6.396   6.839   5.047  0.9547 -0.5546 -1.2734
   94SAPC  C219 9161   6.314   6.804   4.843 -0.1891  0.3249 -0.3508
   94SAPC  H19R 9162   6.377   6.724   4.798 -0.9416  0.2567 -1.3116
   94SAPC  H19S 9163   6.363   6.899   4.812  0.5043  1.1653  2.9412
   94SAPC  C220 9164   6.177   6.776   4.774 -0.6594  0.4686  0.1519
   94SAPC  H20R 9165   6.125   6.698   4.833 -0.0347 -1.0008 -1.1571
   94SAPC  H20S 9166   6.193   6.723   4.678 -0.1452  1.2548 -0.2073
   94SAPC  H20T 9167   6.112   6.864   4.761  0.5238  1.0667 -2.2405
   94SAPC   C33 9168   5.193   6.159   6.300 -0.4514  0.3175  0.1258
   94SAPC   H3X 9169   5.281   6.221   6.274 -0.2211  0.1773  0.5725
   94SAPC   H3Y 9170   5.113   6.236   6.315  0.4679  1.2628  0.2982
   94SAPC   C34 9171   5.136   6.057   6.201 -0.5380  0.6385 -0.2748
   94SAPC   H4X 9172   5.044   6.006   6.235 -0.2918  1.1379  1.1974
   94SAPC   H4Y 9173   5.211   5.976   6.198 -0.2671  0.8796 -0.0720
   94SAPC   C35 9174   5.106   6.120   6.064  0.2010 -0.3725  0.2366
   94SAPC   H5X 9175   5.204   6.162   6.033  0.4108 -0.4619  0.7762
   94SAPC   H5Y 9176   5.037   6.206   6.079 -0.9028 -0.7779 -1.9099
   94SAPC   C36 9177   5.063   6.028   5.952  0.1490  0.5107  0.4485
   94SAPC   H6X 9178   5.138   5.954   5.916  0.2090  1.1325 -0.7673
   94SAPC   H6Y 9179   5.056   6.098   5.866  1.8516 -0.8776 -0.8918
   94SAPC   C37 9180   4.930   5.949   5.963  0.1175  0.2370  0.1565
   94SAPC   H7X 9181   4.936   5.896   6.061  2.3262 -2.2824 -1.1864
   94SAPC   H7Y 9182   4.927   5.874   5.881  3.4202  0.5434 -0.3874
   94SAPC   C38 9183   4.805   6.032   5.958  0.4788  0.3785 -0.3752
   94SAPC   H8X 9184   4.833   6.129   5.913  1.1269  0.6263  0.5339
   94SAPC   H8Y 9185   4.771   6.040   6.064  1.0249 -1.1092 -0.0604
   94SAPC   C39 9186   4.677   5.986   5.881 -0.0610 -0.0773 -0.7160
   94SAPC   H9X 9187   4.588   6.041   5.918 -1.1718 -0.4512 -2.7055
   94SAPC   H9Y 9188   4.667   5.877   5.900  0.2311 -0.3548 -2.0830
   94SAPC  C310 9189   4.687   6.022   5.734 -0.0806  0.4723 -0.4543
   94SAPC  H10X 9190   4.752   5.949   5.681  0.3993 -0.2305  1.0305
   94SAPC  H10Y 9191   4.735   6.121   5.722 -0.8222  0.9732  0.6102
   94SAPC  C311 9192   4.554   6.022   5.664 -0.3220 -0.8185  0.4399
   94SAPC  H11X 9193   4.481   6.092   5.709 -1.2299 -0.8686 -0.9051
   94SAPC  H11Y 9194   4.515   5.918   5.676  1.0477 -1.3354  0.6216
   94SAPC  C312 9195   4.572   6.049   5.513 -0.9102  0.2937  0.1833
   94SAPC  H12X 9196   4.630   6.142   5.492  1.0641 -1.2045 -1.4329
   94SAPC  H12Y 9197   4.469   6.059   5.474 -1.3864  1.1247  1.5676
   94SAPC  C313 9198   4.637   5.927   5.434 -0.0288 -1.2026  0.1594
   94SAPC  H13X 9199   4.597   5.832   5.476 -1.1462 -0.0861  1.7046
   94SAPC  H13Y 9200   4.747   5.928   5.440  0.0200  1.2374 -0.2433
   94SAPC  C314 9201   4.601   5.934   5.284  0.4194  0.9648  0.3015
   94SAPC  H14X 9202   4.639   6.029   5.241  1.7194  0.1125 -0.5537
   94SAPC  H14Y 9203   4.492   5.919   5.268  0.0775  1.8698  1.6405
   94SAPC  C315 9204   4.670   5.820   5.207  0.1742  0.0462  0.5837
   94SAPC  H15X 9205   4.652   5.723   5.259 -2.7726  0.0713 -0.2346
   94SAPC  H15Y 9206   4.781   5.829   5.212  0.4550 -2.5758  0.5099
   94SAPC  C316 9207   4.639   5.818   5.059  0.0368 -0.6126  0.5394
   94SAPC  H16X 9208   4.704   5.898   5.016 -0.3804 -1.2700 -1.3940
   94SAPC  H16Y 9209   4.536   5.845   5.027 -0.4701 -0.5576  2.1110
   94SAPC  C317 9210   4.674   5.691   4.988  0.3876  1.0835 -0.0583
   94SAPC  H17X 9211   4.780   5.665   5.012  0.4011  0.2513 -0.9491
   94SAPC  H17Y 9212   4.676   5.704   4.878  3.7766  2.2729  0.0358
   94SAPC  C318 9213   4.569   5.584   5.020  0.0244  0.7518 -0.3467
   94SAPC  H18X 9214   4.477   5.643   5.001  0.9865  2.6743  0.6642
   94SAPC  H18Y 9215   4.566   5.551   5.126  0.7224  0.6812 -0.3473
   94SAPC  H18Z 9216   4.573   5.495   4.955  3.1283  0.8209 -0.3865
   95SAPC     N 9217   6.678   0.548   2.569 -0.3113 -0.4618 -0.4010
   95SAPC   C12 9218   6.715   0.608   2.436 -0.3602 -0.7365 -0.0885
   95SAPC  H12A 9219   6.816   0.587   2.402  0.3731  2.0326  0.1464
   95SAPC  H12B 9220   6.702   0.714   2.424 -1.1242 -0.7450  0.6394
   95SAPC   C13 9221   6.788   0.578   2.663  0.2700 -0.3482 -0.3945
   95SAPC  H13A 9222   6.785   0.531   2.760  2.6736  1.4317  0.6440
   95SAPC  H13B 9223   6.886   0.549   2.628  0.6172 -1.4573  1.3861
   95SAPC  H13C 9224   6.796   0.679   2.699  1.3307 -1.7245  3.8209
   95SAPC   C14 9225   6.552   0.615   2.624  0.4398 -0.7298 -0.4222
   95SAPC  H14A 9226   6.494   0.644   2.537  0.5499  0.1339 -0.2085
   95SAPC  H14B 9227   6.504   0.546   2.692 -1.0122  2.7324  2.3831
   95SAPC  H14C 9228   6.567   0.706   2.680  1.6982  0.3141 -2.3381
   95SAPC   C15 9229   6.646   0.403   2.548 -0.0570 -0.2878  0.0692
   95SAPC  H15A 9230   6.578   0.389   2.465  1.2622  1.2682 -1.3504
   95SAPC  H15B 9231   6.737   0.347   2.532  1.1404  1.9442 -1.4756
   95SAPC  H15C 9232   6.601   0.361   2.637  0.2916 -0.1762  0.2997
   95SAPC   C11 9233   6.630   0.575   2.299  0.5380  0.1575  0.3254
   95SAPC  H11A 9234   6.641   0.466   2.280  1.1311  0.7282 -3.2098
   95SAPC  H11B 9235   6.667   0.627   2.208 -1.3182 -0.0152 -0.5666
   95SAPC     P 9236   6.432   0.742   2.312 -0.2367  0.0985  0.2948
   95SAPC   O13 9237   6.549   0.836   2.290  0.4451  0.1808 -0.2561
   95SAPC   O14 9238   6.331   0.734   2.203  0.0137 -0.5862  0.1619
   95SAPC   O12 9239   6.497   0.597   2.317 -0.3524 -0.0493 -0.1230
   95SAPC   O11 9240   6.375   0.762   2.455  0.2637 -0.4397 -0.6572
   95SAPC    C1 9241   6.253   0.839   2.457 -0.2805  0.4069  0.2194
   95SAPC    HA 9242   6.285   0.940   2.490  1.4055  0.2964 -0.9804
   95SAPC    HB 9243   6.201   0.856   2.360  0.1455  0.5024  0.0076
   95SAPC    C2 9244   6.153   0.797   2.555  0.5413  0.1077 -0.3354
   95SAPC    HS 9245   6.056   0.840   2.522 -0.7421 -2.3999 -0.0675
   95SAPC   O21 9246   6.191   0.841   2.688  0.3675 -0.2941 -0.0341
   95SAPC   C21 9247   6.090   0.868   2.768 -0.0731  0.7276 -0.5734
   95SAPC   O22 9248   5.972   0.852   2.748 -0.3210  0.1629 -0.1847
   95SAPC   C22 9249   6.149   0.892   2.901  0.1272 -0.5548  0.0680
   95SAPC   H2R 9250   6.203   0.802   2.936 -0.0529  0.5034  3.4928
   95SAPC   H2S 9251   6.208   0.985   2.894 -0.0718 -0.4650 -0.4545
   95SAPC    C3 9252   6.144   0.640   2.542  0.4360 -0.2424  0.0591
   95SAPC    HX 9253   6.244   0.597   2.561 -0.7305 -2.5091  1.6412
   95SAPC    HY 9254   6.121   0.607   2.438 -0.9381  2.4307 -0.5926
   95SAPC   O31 9255   6.044   0.583   2.632  1.1485 -0.5217  0.0119
   95SAPC   C31 9256   6.099   0.510   2.732  0.3615  0.2819 -0.2944
   95SAPC   O32 9257   6.209   0.515   2.774 -0.1920  0.1435  0.2673
   95SAPC   C32 9258   5.999   0.418   2.792  0.3880 -0.1844  0.0444
   95SAPC   H2X 9259   6.041   0.316   2.803  1.2298  0.2599  1.1748
   95SAPC   H2Y 9260   5.915   0.415   2.719 -0.6198  0.9146  1.0988
   95SAPC   C23 9261   6.036   0.919   3.011 -0.3482 -0.2298  0.2449
   95SAPC   H3R 9262   5.952   0.848   2.999  0.3914 -0.9364 -0.9842
   95SAPC   H3S 9263   6.001   1.023   2.994 -0.9793 -0.3639  0.6727
   95SAPC   C24 9264   6.086   0.896   3.157  0.0802 -0.1513  0.7722
   95SAPC   H4R 9265   6.159   0.978   3.176  0.3805 -0.4699  0.9896
   95SAPC   H4S 9266   6.152   0.807   3.157  0.3995  0.0365  3.0584
   95SAPC   C25 9267   5.978   0.893   3.256 -0.2922  0.1575  0.4671
   95SAPC   H5R 9268   5.954   0.791   3.290  4.8138 -1.3107  0.5714
   95SAPC   C26 9269   5.916   0.995   3.311  0.6524 -0.7614 -0.4705
   95SAPC   H6R 9270   5.840   0.977   3.389 -0.7707  2.6593 -0.8881
   95SAPC   C27 9271   5.949   1.145   3.302 -0.1121 -0.2083 -0.3757
   95SAPC   H7R 9272   5.930   1.196   3.205  1.6280  2.4209  0.5377
   95SAPC   H7S 9273   6.055   1.165   3.328 -0.2700 -1.0476  1.0210
   95SAPC   C28 9274   5.869   1.219   3.400  0.0626 -1.0916 -0.4986
   95SAPC   H8R 9275   5.764   1.239   3.375  0.8761  2.2124 -1.9441
   95SAPC   C29 9276   5.907   1.256   3.526  1.0234 -1.0028  0.1181
   95SAPC   H9R 9277   5.846   1.319   3.592 -1.4051 -0.6534 -2.3009
   95SAPC  C210 9278   6.038   1.232   3.590 -0.1968 -0.2071 -0.2114
   95SAPC  H10R 9279   6.115   1.171   3.537  0.8784  2.1204 -1.5267
   95SAPC  H10S 9280   6.016   1.176   3.683  0.3213  0.5302  0.3712
   95SAPC  C211 9281   6.094   1.371   3.630 -0.5366  0.4093  0.1006
   95SAPC  H11R 9282   6.114   1.428   3.538 -0.2547 -1.1812 -0.8659
   95SAPC  C212 9283   6.134   1.417   3.753 -0.1254 -0.5345  0.2800
   95SAPC  H12R 9284   6.156   1.525   3.759 -0.7319 -0.3345 -0.8689
   95SAPC  C213 9285   6.134   1.348   3.886 -0.1599 -0.0557 -0.1313
   95SAPC  H13R 9286   6.224   1.385   3.940 -0.7395  1.2168  0.0021
   95SAPC  H13S 9287   6.161   1.241   3.871  0.1596  0.1861 -1.4160
   95SAPC  C214 9288   6.016   1.386   3.970  0.3079  0.2237  0.2541
   95SAPC  H14R 9289   5.927   1.416   3.911  0.6429  0.6878 -0.0278
   95SAPC  C215 9290   6.001   1.384   4.105  0.1139 -0.4700 -0.0377
   95SAPC  H15R 9291   5.901   1.410   4.144  0.3545 -0.9939  0.9667
   95SAPC  C216 9292   6.099   1.344   4.210  0.6096 -0.1875 -0.0498
   95SAPC  H16R 9293   6.208   1.340   4.185  1.1333 -2.4720  2.2307
   95SAPC  H16S 9294   6.089   1.236   4.235 -0.3017 -0.1862 -0.3701
   95SAPC  C217 9295   6.088   1.427   4.339 -0.5004  0.1351 -0.6715
   95SAPC  H17R 9296   5.986   1.434   4.382  0.0661  1.8864  0.5252
   95SAPC  H17S 9297   6.134   1.528   4.346  1.1439 -0.4660 -2.1905
   95SAPC  C218 9298   6.183   1.358   4.442  0.0045 -0.7814  0.2951
   95SAPC  H18R 9299   6.290   1.378   4.419 -0.5581  1.5871 -0.5823
   95SAPC  H18S 9300   6.172   1.248   4.440  0.1013 -0.8589  2.3111
   95SAPC  C219 9301   6.151   1.407   4.582  0.4583  0.0722 -0.1628
   95SAPC  H19R 9302   6.131   1.517   4.583 -3.0197 -0.4361 -1.4467
   95SAPC  H19S 9303   6.241   1.386   4.643  2.1346  0.1672 -2.4589
   95SAPC  C220 9304   6.027   1.343   4.647 -0.2853  0.3747 -0.3368
   95SAPC  H20R 9305   6.013   1.385   4.749 -0.9817  1.6577 -0.9321
   95SAPC  H20S 9306   6.036   1.233   4.652  1.6405  0.5017  0.0035
   95SAPC  H20T 9307   5.942   1.369   4.581 -0.2974 -1.0487 -0.9101
   95SAPC   C33 9308   5.937   0.474   2.917 -0.3769 -0.1426 -0.0075
   95SAPC   H3X 9309   5.880   0.568   2.897 -0.3545 -0.1369 -0.0454
   95SAPC   H3Y 9310   6.018   0.485   2.992 -1.1741  1.2505  0.6969
   95SAPC   C34 9311   5.836   0.375   2.986  0.4520  0.0647 -0.3148
   95SAPC   H4X 9312   5.897   0.283   2.996 -0.9743 -0.9092 -0.1605
   95SAPC   H4Y 9313   5.757   0.346   2.913  0.9373 -0.2579 -0.7168
   95SAPC   C35 9314   5.765   0.422   3.117 -0.2002 -0.0013  0.2541
   95SAPC   H5X 9315   5.710   0.342   3.170  0.6651  0.7534  2.4587
   95SAPC   H5Y 9316   5.697   0.508   3.098  1.4945  2.3082  3.4884
   95SAPC   C36 9317   5.873   0.478   3.217 -0.0141  1.0788 -0.3309
   95SAPC   H6X 9318   5.926   0.565   3.173  1.6041  1.6675  2.5413
   95SAPC   H6Y 9319   5.945   0.392   3.222  2.1133  2.8215  0.7062
   95SAPC   C37 9320   5.825   0.529   3.354  0.4498 -0.1753  0.3798
   95SAPC   H7X 9321   5.747   0.607   3.347 -0.7214 -1.4531 -1.9995
   95SAPC   H7Y 9322   5.912   0.578   3.404  1.1675 -0.2094 -0.7910
   95SAPC   C38 9323   5.776   0.423   3.456 -0.3576 -0.1176 -0.7406
   95SAPC   H8X 9324   5.844   0.336   3.455 -2.5981 -1.9691 -0.2245
   95SAPC   H8Y 9325   5.681   0.380   3.417 -2.0050  1.8550  0.8697
   95SAPC   C39 9326   5.764   0.480   3.604 -0.0862  0.1660 -0.1714
   95SAPC   H9X 9327   5.656   0.503   3.615  0.2277  0.8354  1.7441
   95SAPC   H9Y 9328   5.821   0.571   3.631 -1.2101  0.7066  0.4051
   95SAPC  C310 9329   5.800   0.379   3.717 -0.3177  0.2198  0.3413
   95SAPC  H10X 9330   5.909   0.368   3.735 -0.0410 -0.9049 -1.7617
   95SAPC  H10Y 9331   5.764   0.277   3.692 -0.3231  0.1868  0.4801
   95SAPC  C311 9332   5.723   0.413   3.850  0.0770  0.8473  0.0316
   95SAPC  H11X 9333   5.698   0.320   3.906  0.0073 -0.0182 -1.3946
   95SAPC  H11Y 9334   5.632   0.474   3.828  0.0581  0.5054 -0.8458
   95SAPC  C312 9335   5.808   0.498   3.949  0.0406 -0.1640 -0.0591
   95SAPC  H12X 9336   5.805   0.599   3.903  0.3512  0.1412  0.5737
   95SAPC  H12Y 9337   5.913   0.465   3.963  0.7564  2.1269  0.3744
   95SAPC  C313 9338   5.739   0.518   4.084 -0.0538  0.0401 -0.3866
   95SAPC  H13X 9339   5.767   0.436   4.153  0.8743  1.9982  1.7030
   95SAPC  H13Y 9340   5.628   0.519   4.072 -0.2674 -3.0438  0.5544
   95SAPC  C314 9341   5.780   0.642   4.168  1.0794  0.4719  0.0380
   95SAPC  H14X 9342   5.723   0.647   4.264  1.3375  1.5555  0.1499
   95SAPC  H14Y 9343   5.756   0.737   4.115 -3.9950 -0.2335  0.5635
   95SAPC  C315 9344   5.929   0.634   4.202 -0.3037 -0.5681 -0.4620
   95SAPC  H15X 9345   5.988   0.653   4.110 -1.4901 -0.3646 -1.2058
   95SAPC  H15Y 9346   5.958   0.530   4.230 -2.4097 -1.0628  0.0306
   95SAPC  C316 9347   5.964   0.738   4.309  0.0953 -0.2952 -0.3303
   95SAPC  H16X 9348   6.072   0.748   4.331 -0.2928  1.3762  1.1020
   95SAPC  H16Y 9349   5.911   0.721   4.406 -0.8434 -0.1400 -0.8000
   95SAPC  C317 9350   5.914   0.878   4.271  0.3351  0.5369  0.1976
   95SAPC  H17X 9351   5.803   0.881   4.277  0.1725 -2.4702  0.2476
   95SAPC  H17Y 9352   5.954   0.895   4.169  2.4146 -1.1392  0.6682
   95SAPC  C318 9353   5.962   0.995   4.355  0.2917 -0.0584 -0.4372
   95SAPC  H18X 9354   5.970   1.075   4.278 -1.8226  0.3821 -0.2348
   95SAPC  H18Y 9355   6.062   0.967   4.395  0.9415  3.0216  0.4187
   95SAPC  H18Z 9356   5.889   1.006   4.438 -0.3074 -2.5652 -0.5641
   96SAPC     N 9357   4.767   3.498   2.873  0.2236 -0.3185  1.0740
   96SAPC   C12 9358   4.800   3.517   2.723  0.3165  0.3728 -0.2503
   96SAPC  H12A 9359   4.710   3.525   2.664  0.0299  2.3237  0.3949
   96SAPC  H12B 9360   4.848   3.428   2.685  0.0977  0.1838 -0.0872
   96SAPC   C13 9361   4.895   3.478   2.957  0.4862  0.4521 -0.2365
   96SAPC  H13A 9362   4.964   3.558   2.935 -0.6528  1.0964 -1.6433
   96SAPC  H13B 9363   4.862   3.476   3.060 -2.8737  0.5148 -1.1988
   96SAPC  H13C 9364   4.935   3.382   2.927 -1.3772  0.0633 -1.6797
   96SAPC   C14 9365   4.697   3.619   2.916 -0.2062  0.0211 -0.0939
   96SAPC  H14A 9366   4.674   3.611   3.021 -1.6214  0.0044 -0.3788
   96SAPC  H14B 9367   4.764   3.702   2.899  0.4721 -0.5308 -0.1844
   96SAPC  H14C 9368   4.607   3.632   2.857  0.5259 -1.4739 -1.6105
   96SAPC   C15 9369   4.671   3.384   2.883  0.6296  0.6214  0.4947
   96SAPC  H15A 9370   4.710   3.288   2.851 -0.8612  0.3917 -0.8051
   96SAPC  H15B 9371   4.652   3.362   2.987 -2.5502 -1.6057 -0.3741
   96SAPC  H15C 9372   4.576   3.403   2.835  0.9657  0.0478 -0.4205
   96SAPC   C11 9373   4.883   3.634   2.677 -0.1013 -0.0530  0.0061
   96SAPC  H11A 9374   4.844   3.725   2.728  1.1936  1.5914 -1.7587
   96SAPC  H11B 9375   4.860   3.651   2.570 -1.1593 -0.0021  0.2336
   96SAPC     P 9376   5.116   3.529   2.623 -0.1523 -0.2454  0.2067
   96SAPC   O13 9377   5.048   3.407   2.581 -0.4588 -0.1102 -0.1852
   96SAPC   O14 9378   5.163   3.617   2.514  0.6769 -0.2684  0.2973
   96SAPC   O12 9379   5.025   3.621   2.711 -0.0043  0.3682 -0.5903
   96SAPC   O11 9380   5.231   3.488   2.722 -0.2620  0.4980  0.0555
   96SAPC    C1 9381   5.314   3.566   2.809 -0.0114  0.4334  0.2071
   96SAPC    HA 9382   5.300   3.676   2.799  1.4031  0.7247  1.1382
   96SAPC    HB 9383   5.287   3.534   2.912 -1.0331  2.2731  0.5473
   96SAPC    C2 9384   5.462   3.536   2.788 -0.2368  0.1378  0.3002
   96SAPC    HS 9385   5.471   3.494   2.686 -1.6602 -2.4131  1.1557
   96SAPC   O21 9386   5.497   3.433   2.884 -0.5353  0.4363 -0.1434
   96SAPC   C21 9387   5.629   3.386   2.872  0.4857 -0.2464  0.2978
   96SAPC   O22 9388   5.703   3.424   2.782 -0.6812  0.3789 -0.5274
   96SAPC   C22 9389   5.656   3.267   2.965 -0.5067  0.1794 -0.1435
   96SAPC   H2R 9390   5.561   3.252   3.020 -1.5448 -0.0903 -1.9336
   96SAPC   H2S 9391   5.668   3.190   2.886  0.9849  1.4462 -1.2154
   96SAPC    C3 9392   5.545   3.673   2.793  0.8810  0.5214 -1.1691
   96SAPC    HX 9393   5.521   3.730   2.700 -2.4424  0.5058 -0.4588
   96SAPC    HY 9394   5.655   3.658   2.795  1.0211  1.4657 -1.1292
   96SAPC   O31 9395   5.495   3.747   2.908  0.3636  0.6856 -0.3218
   96SAPC   C31 9396   5.557   3.726   3.024  0.2797 -0.0544 -0.6784
   96SAPC   O32 9397   5.647   3.645   3.048  0.2020  0.3740 -0.5806
   96SAPC   C32 9398   5.499   3.831   3.123 -0.3158 -0.3374  0.2166
   96SAPC   H2X 9399   5.399   3.860   3.084 -0.5192 -1.4125 -0.0897
   96SAPC   H2Y 9400   5.567   3.918   3.118 -0.4747 -0.2655 -1.5561
   96SAPC   C23 9401   5.788   3.272   3.041 -0.0637 -0.1031  0.1057
   96SAPC   H3R 9402   5.796   3.380   3.069 -0.5677 -0.5712  2.2105
   96SAPC   H3S 9403   5.865   3.233   2.971 -1.6735 -1.6035 -0.9065
   96SAPC   C24 9404   5.780   3.191   3.168  0.4321  0.1954  0.0195
   96SAPC   H4R 9405   5.754   3.087   3.138 -2.2623  0.6267  0.5458
   96SAPC   H4S 9406   5.693   3.232   3.224 -0.1846  1.6788 -1.9095
   96SAPC   C25 9407   5.898   3.196   3.262  0.1056  0.1575 -0.0092
   96SAPC   H5R 9408   5.993   3.170   3.213 -0.1648  4.6215 -3.5228
   96SAPC   C26 9409   5.903   3.233   3.394  0.6465 -0.4053  0.1912
   96SAPC   H6R 9410   5.997   3.249   3.449  0.4006  1.1427  0.2253
   96SAPC   C27 9411   5.789   3.281   3.484  0.0943  0.4122  0.0862
   96SAPC   H7R 9412   5.827   3.298   3.587  0.1323  0.3524  0.0822
   96SAPC   H7S 9413   5.721   3.194   3.488 -0.5455  0.9413  2.6283
   96SAPC   C28 9414   5.707   3.407   3.450  0.1862 -0.0672  0.6102
   96SAPC   H8R 9415   5.698   3.429   3.342 -0.8652 -1.6273  0.3581
   96SAPC   C29 9416   5.654   3.492   3.543 -0.0685  0.3984  0.0268
   96SAPC   H9R 9417   5.603   3.583   3.507  0.1898 -0.5985 -3.1558
   96SAPC  C210 9418   5.663   3.483   3.698 -1.1733  0.9961  0.4787
   96SAPC  H10R 9419   5.750   3.550   3.717 -1.1080  1.5159 -1.4438
   96SAPC  H10S 9420   5.692   3.379   3.723 -1.1507  0.1636 -2.6958
   96SAPC  C211 9421   5.549   3.542   3.782 -1.0441 -0.9345  0.4002
   96SAPC  H11R 9422   5.516   3.639   3.743 -1.0343 -0.1303  2.2719
   96SAPC  C212 9423   5.496   3.491   3.896  0.3796  0.6335  0.0238
   96SAPC  H12R 9424   5.410   3.548   3.935  0.6123  1.6500 -0.8793
   96SAPC  C213 9425   5.507   3.368   3.974  0.0189 -0.7030 -0.1167
   96SAPC  H13R 9426   5.540   3.297   3.896  1.2268 -0.6030  0.2801
   96SAPC  H13S 9427   5.411   3.325   4.009  0.4803 -0.8974  0.9471
   96SAPC  C214 9428   5.603   3.384   4.094  0.0804  1.3091  0.3024
   96SAPC  H14R 9429   5.698   3.330   4.082 -0.6585 -0.0337  0.2539
   96SAPC  C215 9430   5.582   3.447   4.205 -0.0446  0.7045 -0.4771
   96SAPC  H15R 9431   5.660   3.444   4.282 -0.8417 -0.6591  0.3124
   96SAPC  C216 9432   5.453   3.515   4.245  0.0763  0.2961  1.0318
   96SAPC  H16R 9433   5.367   3.478   4.184 -0.0683 -1.0819  2.0572
   96SAPC  H16S 9434   5.467   3.625   4.232  1.0500  0.2687  1.8140
   96SAPC  C217 9435   5.416   3.484   4.391 -0.4952 -0.2851  0.1461
   96SAPC  H17R 9436   5.402   3.374   4.399  0.5199 -0.6974 -2.6977
   96SAPC  H17S 9437   5.319   3.534   4.411  0.3240  1.8066 -0.8758
   96SAPC  C218 9438   5.521   3.537   4.499  0.1676  0.0123  0.3174
   96SAPC  H18R 9439   5.621   3.489   4.495  0.8489  1.2980  1.2165
   96SAPC  H18S 9440   5.474   3.510   4.596 -1.6069  1.3275 -0.1249
   96SAPC  C219 9441   5.541   3.691   4.495  1.0669 -0.2368  0.2862
   96SAPC  H19R 9442   5.439   3.727   4.470  1.7050 -0.3983 -3.0990
   96SAPC  H19S 9443   5.598   3.732   4.409 -0.9271  2.8284  0.2699
   96SAPC  C220 9444   5.600   3.758   4.624 -0.0898  0.3193  0.0836
   96SAPC  H20R 9445   5.702   3.718   4.646  0.6815  1.3136 -1.4540
   96SAPC  H20S 9446   5.543   3.722   4.712 -0.3325  0.7566  0.1051
   96SAPC  H20T 9447   5.596   3.869   4.620 -1.3091  0.2706 -0.4454
   96SAPC   C33 9448   5.493   3.783   3.273  0.5430  0.6738 -0.2184
   96SAPC   H3X 9449   5.596   3.773   3.313 -0.0243 -0.6191  1.0131
   96SAPC   H3Y 9450   5.436   3.688   3.282  0.2511  0.9225  0.6843
   96SAPC   C34 9451   5.415   3.895   3.361 -0.1481  0.6280 -0.2255
   96SAPC   H4X 9452   5.320   3.917   3.308 -0.6166  1.8450  1.0919
   96SAPC   H4Y 9453   5.470   3.990   3.372 -0.0545  0.4476  0.9999
   96SAPC   C35 9454   5.376   3.842   3.506 -0.4899 -0.3889  0.3296
   96SAPC   H5X 9455   5.471   3.806   3.553 -0.6512 -2.0365 -0.5390
   96SAPC   H5Y 9456   5.314   3.752   3.489 -0.2926 -0.3319 -0.7322
   96SAPC   C36 9457   5.300   3.951   3.596 -0.5960  0.4438  0.5276
   96SAPC   H6X 9458   5.204   3.983   3.551 -0.4479  0.3338  0.1308
   96SAPC   H6Y 9459   5.364   4.041   3.587  1.1333 -0.5102  2.4629
   96SAPC   C37 9460   5.287   3.916   3.740  0.1311  0.3844 -0.3416
   96SAPC   H7X 9461   5.252   3.811   3.749  0.7202  0.2569  0.5931
   96SAPC   H7Y 9462   5.211   3.987   3.779  0.4561  0.4077  0.2538
   96SAPC   C38 9463   5.413   3.925   3.829  0.0916  0.0348  0.5805
   96SAPC   H8X 9464   5.428   4.035   3.833 -0.9206  0.3068 -1.5884
   96SAPC   H8Y 9465   5.495   3.872   3.777  1.1978  0.2106  2.0851
   96SAPC   C39 9466   5.395   3.883   3.977 -0.3062  0.2174  0.5372
   96SAPC   H9X 9467   5.486   3.906   4.035 -0.8456 -0.3887  1.6448
   96SAPC   H9Y 9468   5.391   3.772   3.978  0.8762  0.1650  2.2689
   96SAPC  C310 9469   5.263   3.936   4.034 -0.3891 -0.7825 -0.7871
   96SAPC  H10X 9470   5.180   3.869   4.003 -0.8323 -1.5245  1.7351
   96SAPC  H10Y 9471   5.255   4.042   4.003  0.5699 -0.0171  1.3880
   96SAPC  C311 9472   5.267   3.953   4.190 -0.0694  0.0897  0.1444
   96SAPC  H11X 9473   5.357   4.010   4.220  0.5660 -1.4635  1.2926
   96SAPC  H11Y 9474   5.268   3.853   4.239  1.9425  1.5768  3.4830
   96SAPC  C312 9475   5.156   4.033   4.260  0.0244 -0.2469  0.4955
   96SAPC  H12X 9476   5.064   3.971   4.253  0.8357 -1.6119  1.5676
   96SAPC  H12Y 9477   5.146   4.130   4.206  0.8143 -1.6746 -2.4749
   96SAPC  C313 9478   5.210   4.058   4.398 -0.7089  0.6226 -0.7026
   96SAPC  H13X 9479   5.285   4.139   4.383 -1.2282  0.8756 -2.0551
   96SAPC  H13Y 9480   5.263   3.967   4.434 -1.0849  0.8642  0.5039
   96SAPC  C314 9481   5.107   4.087   4.497 -0.0821  0.6297 -0.2339
   96SAPC  H14X 9482   5.048   3.993   4.502  1.6432 -0.4725  0.2607
   96SAPC  H14Y 9483   5.047   4.176   4.467 -1.3791  0.0980  0.6929
   96SAPC  C315 9484   5.160   4.112   4.634 -0.4484  0.1147 -0.1305
   96SAPC  H15X 9485   5.227   4.201   4.620 -0.9094  0.4478 -0.2344
   96SAPC  H15Y 9486   5.232   4.033   4.665 -1.3684 -0.6190  0.1572
   96SAPC  C316 9487   5.050   4.157   4.732  0.0877 -0.4441  0.1513
   96SAPC  H16X 9488   4.979   4.073   4.745  0.2025 -0.8052 -1.3062
   96SAPC  H16Y 9489   5.001   4.243   4.682 -2.7317 -2.1031 -0.1363
   96SAPC  C317 9490   5.102   4.201   4.864 -0.2319 -0.0349  0.0402
   96SAPC  H17X 9491   5.193   4.263   4.850 -0.3533  0.3431  0.8726
   96SAPC  H17Y 9492   5.134   4.110   4.919  3.3356  1.0896  0.0935
   96SAPC  C318 9493   4.994   4.275   4.946 -0.1572  0.0467 -0.4772
   96SAPC  H18X 9494   4.948   4.358   4.888 -1.2742  0.5519  1.0697
   96SAPC  H18Y 9495   5.043   4.303   5.041 -1.2030  2.0955 -0.4807
   96SAPC  H18Z 9496   4.912   4.207   4.979  0.5666 -0.3751  0.4548
   97SAPC     N 9497   4.185   0.716   2.774  0.2061  0.0396 -0.7266
   97SAPC   C12 9498   4.282   0.652   2.685 -0.5227  0.1926  1.0564
   97SAPC  H12A 9499   4.358   0.725   2.660  1.0518 -1.5487  0.5773
   97SAPC  H12B 9500   4.239   0.620   2.591  2.2729  0.7938 -0.5321
   97SAPC   C13 9501   4.079   0.615   2.810  0.3787 -0.0064 -0.1159
   97SAPC  H13A 9502   4.113   0.529   2.866 -0.4356 -0.6753 -0.6398
   97SAPC  H13B 9503   3.998   0.653   2.871 -1.4500 -1.2333 -1.6718
   97SAPC  H13C 9504   4.027   0.572   2.726 -2.1251  0.0946  1.2830
   97SAPC   C14 9505   4.253   0.751   2.900  0.0067 -0.1939  0.4020
   97SAPC  H14A 9506   4.180   0.801   2.961 -0.3929  1.4401 -1.3161
   97SAPC  H14B 9507   4.286   0.659   2.945  0.4002  0.5467  1.7050
   97SAPC  H14C 9508   4.339   0.816   2.887 -0.2930  0.1801  0.2587
   97SAPC   C15 9509   4.120   0.842   2.718 -0.8744 -0.2342 -0.0163
   97SAPC  H15A 9510   4.104   0.835   2.612 -2.5039  1.0354  0.1137
   97SAPC  H15B 9511   4.035   0.866   2.780  0.1332  0.6976  1.0557
   97SAPC  H15C 9512   4.196   0.918   2.729  1.5703 -2.5898  0.6997
   97SAPC   C11 9513   4.360   0.534   2.741  0.2416 -0.5075  0.1230
   97SAPC  H11A 9514   4.400   0.471   2.659  1.5282  1.0202 -0.4703
   97SAPC  H11B 9515   4.299   0.460   2.797  1.9703 -2.5490 -0.5716
   97SAPC     P 9516   4.595   0.497   2.855  0.6418 -0.0141 -0.1781
   97SAPC   O13 9517   4.686   0.497   2.737 -0.2334  0.2031 -0.0416
   97SAPC   O14 9518   4.650   0.548   2.984 -0.2604 -0.0312 -0.4301
   97SAPC   O12 9519   4.464   0.583   2.823 -0.3311  0.4462  0.2744
   97SAPC   O11 9520   4.547   0.349   2.877 -0.8371  0.2676 -0.5558
   97SAPC    C1 9521   4.477   0.314   2.995 -0.0061 -0.1759  0.0705
   97SAPC    HA 9522   4.443   0.404   3.051 -0.7700 -1.3455  1.5659
   97SAPC    HB 9523   4.396   0.242   2.970 -0.9481  0.9634 -0.2583
   97SAPC    C2 9524   4.568   0.252   3.113 -0.4540  0.1767  0.2834
   97SAPC    HS 9525   4.661   0.313   3.106  0.3039 -1.0802 -1.3710
   97SAPC   O21 9526   4.597   0.110   3.097  0.3942  0.1804  0.6665
   97SAPC   C21 9527   4.710   0.074   3.143  0.2952 -0.6997 -0.5098
   97SAPC   O22 9528   4.789   0.145   3.192  0.2487  0.3217 -0.4184
   97SAPC   C22 9529   4.718  -0.073   3.117 -0.3608  0.4179  0.2872
   97SAPC   H2R 9530   4.673  -0.096   3.018  0.2347  0.7232 -0.0614
   97SAPC   H2S 9531   4.826  -0.099   3.111 -0.4701  0.0803 -0.3407
   97SAPC    C3 9532   4.490   0.287   3.245 -0.0774 -0.3306 -0.3886
   97SAPC    HX 9533   4.395   0.232   3.234  0.2016 -1.6980  2.7879
   97SAPC    HY 9534   4.454   0.391   3.235 -1.5805 -0.9220 -1.3811
   97SAPC   O31 9535   4.563   0.254   3.367  0.1330 -0.1765  0.4435
   97SAPC   C31 9536   4.643   0.337   3.420  0.2963 -0.0042 -0.6067
   97SAPC   O32 9537   4.667   0.449   3.381 -0.5512 -0.7761  0.1866
   97SAPC   C32 9538   4.705   0.263   3.541 -0.8121 -0.8084 -0.5961
   97SAPC   H2X 9539   4.775   0.190   3.494  1.2828  0.2463  0.7264
   97SAPC   H2Y 9540   4.640   0.195   3.600 -1.3365 -0.0735 -0.3088
   97SAPC   C23 9541   4.653  -0.161   3.224  0.0081  0.3000  0.1984
   97SAPC   H3R 9542   4.658  -0.263   3.180 -1.3797 -0.3414  1.4368
   97SAPC   H3S 9543   4.553  -0.130   3.259 -0.7724 -1.2158 -0.5794
   97SAPC   C24 9544   4.757  -0.183   3.340  0.1790 -0.1063 -0.4297
   97SAPC   H4R 9545   4.858  -0.195   3.295 -0.1978 -1.4973 -0.9581
   97SAPC   H4S 9546   4.725  -0.280   3.384  1.4724 -0.8317 -1.0547
   97SAPC   C25 9547   4.743  -0.072   3.438 -0.5872  0.0269 -0.1937
   97SAPC   H5R 9548   4.700   0.024   3.406  1.3399  0.6514 -1.0704
   97SAPC   C26 9549   4.770  -0.077   3.570 -0.0249 -0.2320  0.6472
   97SAPC   H6R 9550   4.753   0.006   3.640  2.1687 -0.4063  1.4809
   97SAPC   C27 9551   4.813  -0.204   3.644  0.4134  0.2616 -0.2358
   97SAPC   H7R 9552   4.916  -0.188   3.682  0.2098  0.1764  0.3572
   97SAPC   H7S 9553   4.809  -0.292   3.576  0.6764  0.5417 -0.6180
   97SAPC   C28 9554   4.715  -0.240   3.754  0.0633 -0.4737 -0.1843
   97SAPC   H8R 9555   4.657  -0.331   3.738  0.4502 -0.9950  1.2590
   97SAPC   C29 9556   4.713  -0.190   3.880  0.2281 -0.2985  0.4770
   97SAPC   H9R 9557   4.632  -0.222   3.949  0.1487  1.9476  1.5102
   97SAPC  C210 9558   4.802  -0.083   3.946  0.1588 -0.5181 -0.0539
   97SAPC  H10R 9559   4.746  -0.005   4.002 -3.7145 -2.9337 -0.2650
   97SAPC  H10S 9560   4.854  -0.013   3.877 -1.2533 -0.6407 -1.2770
   97SAPC  C211 9561   4.907  -0.150   4.033 -0.6966 -0.5554  0.2200
   97SAPC  H11R 9562   4.999  -0.182   3.980 -2.2063 -0.8450 -2.3854
   97SAPC  C212 9563   4.907  -0.179   4.167 -0.3837 -0.0165  0.4424
   97SAPC  H12R 9564   4.985  -0.234   4.222 -1.2298  0.3420  2.0815
   97SAPC  C213 9565   4.803  -0.125   4.263 -0.1565 -0.4611 -0.4237
   97SAPC  H13R 9566   4.732  -0.202   4.299 -0.2109 -0.6619 -0.9608
   97SAPC  H13S 9567   4.747  -0.041   4.216 -1.0871 -0.8826 -0.1033
   97SAPC  C214 9568   4.879  -0.064   4.381  0.0881  0.6617 -0.6358
   97SAPC  H14R 9569   4.959   0.002   4.345  1.0956 -0.5755 -0.7309
   97SAPC  C215 9570   4.860  -0.089   4.511  0.0738 -0.2171 -0.5250
   97SAPC  H15R 9571   4.923  -0.040   4.586 -0.2355  2.2775 -1.7786
   97SAPC  C216 9572   4.776  -0.195   4.572  0.2268 -0.1175  0.5669
   97SAPC  H16R 9573   4.836  -0.266   4.632 -0.8525 -0.8942  0.7659
   97SAPC  H16S 9574   4.732  -0.264   4.498  0.0775  0.1614  0.3946
   97SAPC  C217 9575   4.664  -0.164   4.673  0.2481  0.2860 -0.1033
   97SAPC  H17R 9576   4.592  -0.248   4.669  0.8089 -0.2595  0.9693
   97SAPC  H17S 9577   4.608  -0.076   4.636 -0.5508 -0.3479 -0.4492
   97SAPC  C218 9578   4.715  -0.150   4.822 -0.0971 -0.0851  0.5032
   97SAPC  H18R 9579   4.761  -0.245   4.858 -0.6416 -1.5535 -2.3317
   97SAPC  H18S 9580   4.621  -0.146   4.880  1.0726 -1.3136  2.5938
   97SAPC  C219 9581   4.799  -0.025   4.834 -0.2425 -0.3527  0.8981
   97SAPC  H19R 9582   4.738   0.062   4.800  1.6455  0.4637 -0.6248
   97SAPC  H19S 9583   4.892  -0.032   4.773 -0.4622  0.2496  0.4861
   97SAPC  C220 9584   4.843  -0.006   4.978  0.0238  0.4197 -0.6248
   97SAPC  H20R 9585   4.752   0.012   5.040  0.2882 -2.1170  0.6253
   97SAPC  H20S 9586   4.926   0.067   4.982  0.7297 -0.3395 -1.0378
   97SAPC  H20T 9587   4.885  -0.101   5.018 -2.2670 -0.5413 -0.3164
   97SAPC   C33 9588   4.788   0.351   3.638  0.5354 -0.9786  0.4854
   97SAPC   H3X 9589   4.757   0.456   3.623  2.1580 -0.8720 -3.2931
   97SAPC   H3Y 9590   4.892   0.353   3.598  0.3064 -2.5413 -0.2688
   97SAPC   C34 9591   4.791   0.303   3.780  0.7127  0.3175  0.0679
   97SAPC   H4X 9592   4.794   0.193   3.797 -2.0306  0.3089  0.9513
   97SAPC   H4Y 9593   4.704   0.349   3.832  2.0033  2.5731  0.3900
   97SAPC   C35 9594   4.917   0.358   3.842  0.5141 -0.9367 -0.7399
   97SAPC   H5X 9595   4.908   0.468   3.837  3.6055 -0.6574 -1.6304
   97SAPC   H5Y 9596   5.010   0.337   3.786  0.2714  0.6219 -1.7580
   97SAPC   C36 9597   4.935   0.309   3.982 -0.1726 -0.7095 -1.3304
   97SAPC   H6X 9598   4.977   0.207   3.975 -1.6614 -1.5494  0.7641
   97SAPC   H6Y 9599   4.837   0.301   4.034  0.2389  2.1450  0.0884
   97SAPC   C37 9600   5.026   0.406   4.065 -0.1483  0.0356 -0.1475
   97SAPC   H7X 9601   4.982   0.507   4.058  0.2171  0.1586 -0.8416
   97SAPC   H7Y 9602   5.120   0.401   4.006 -0.6593 -0.3464 -0.9574
   97SAPC   C38 9603   5.050   0.359   4.214  0.2781  1.0474  0.4104
   97SAPC   H8X 9604   4.953   0.343   4.266  0.6776 -2.2340  0.3381
   97SAPC   H8Y 9605   5.100   0.440   4.272  0.1381 -0.1329  2.2563
   97SAPC   C39 9606   5.137   0.229   4.220 -0.0115  0.6458  0.3778
   97SAPC   H9X 9607   5.230   0.241   4.161  1.1183  1.3494  2.2268
   97SAPC   H9Y 9608   5.082   0.151   4.162 -2.0019  3.3992 -1.7344
   97SAPC  C310 9609   5.165   0.177   4.360 -0.6311 -0.2434 -0.1078
   97SAPC  H10X 9610   5.185   0.068   4.349 -3.3968 -0.8785  0.5474
   97SAPC  H10Y 9611   5.080   0.193   4.429 -0.1626  0.0124  0.4203
   97SAPC  C311 9612   5.288   0.247   4.421 -0.1677 -0.1135  0.2220
   97SAPC  H11X 9613   5.306   0.205   4.523 -0.8280  0.7023  0.6867
   97SAPC  H11Y 9614   5.256   0.353   4.427 -0.2297 -0.0242 -1.3586
   97SAPC  C312 9615   5.417   0.238   4.332  0.2128  0.2013  0.0486
   97SAPC  H12X 9616   5.400   0.280   4.231  2.0171  2.1434  0.4710
   97SAPC  H12Y 9617   5.441   0.130   4.332 -0.1557  0.0670  2.2666
   97SAPC  C313 9618   5.548   0.313   4.378 -0.8172  0.0949 -0.4800
   97SAPC  H13X 9619   5.534   0.423   4.372 -2.3845 -0.0247  0.4842
   97SAPC  H13Y 9620   5.624   0.291   4.300  0.1097  2.9471 -0.5332
   97SAPC  C314 9621   5.592   0.266   4.511 -0.7807  0.3992 -0.2233
   97SAPC  H14X 9622   5.578   0.157   4.527 -0.0598  0.3594  0.1817
   97SAPC  H14Y 9623   5.531   0.324   4.584 -0.7908  0.5748 -0.3723
   97SAPC  C315 9624   5.735   0.300   4.550  0.2162  0.7265  0.4951
   97SAPC  H15X 9625   5.753   0.409   4.547 -2.4088  1.2111  0.4826
   97SAPC  H15Y 9626   5.811   0.255   4.482  0.3581 -0.0787  1.1624
   97SAPC  C316 9627   5.783   0.256   4.689 -0.2193 -0.1692  0.8890
   97SAPC  H16X 9628   5.706   0.303   4.754 -0.4045  0.7935 -0.0101
   97SAPC  H16Y 9629   5.876   0.315   4.707 -0.4164  0.3608  0.1756
   97SAPC  C317 9630   5.792   0.109   4.726 -0.2986  0.0820 -0.3761
   97SAPC  H17X 9631   5.846   0.053   4.646  3.8003 -0.7747  2.6640
   97SAPC  H17Y 9632   5.691   0.064   4.735  1.0086 -2.8750  0.8307
   97SAPC  C318 9633   5.867   0.077   4.857 -0.4004 -0.1066  0.5487
   97SAPC  H18X 9634   5.938   0.160   4.876 -0.5591  0.4561 -1.1200
   97SAPC  H18Y 9635   5.905  -0.027   4.862 -0.2561 -0.0582  0.4637
   97SAPC  H18Z 9636   5.808   0.084   4.951 -0.5074 -0.8466  0.5419
   98SAPC     N 9637   0.806   3.934   2.621  0.2621 -0.2595 -0.0320
   98SAPC   C12 9638   0.728   3.856   2.721 -0.3412 -0.1154  0.7636
   98SAPC  H12A 9639   0.640   3.821   2.669  0.1445 -2.3603  1.3336
   98SAPC  H12B 9640   0.695   3.923   2.799  0.1744  0.7599  0.2548
   98SAPC   C13 9641   0.717   4.041   2.569  0.6187  0.3267 -0.7477
   98SAPC  H13A 9642   0.678   4.099   2.652 -0.9761  0.1379 -1.3326
   98SAPC  H13B 9643   0.771   4.106   2.501  3.4359 -0.2920  0.7328
   98SAPC  H13C 9644   0.631   4.011   2.512  0.3499  1.6459 -1.0831
   98SAPC   C14 9645   0.932   3.987   2.674  0.5570 -0.2432  0.0140
   98SAPC  H14A 9646   0.909   4.050   2.759 -1.2743  0.5202 -1.0045
   98SAPC  H14B 9647   0.993   3.899   2.693 -0.8208 -1.2756 -0.1844
   98SAPC  H14C 9648   0.980   4.057   2.607 -2.5899 -0.4839 -2.7422
   98SAPC   C15 9649   0.831   3.850   2.496  0.2640  0.0683  0.2094
   98SAPC  H15A 9650   0.890   3.766   2.530  0.4325  1.0290  2.4685
   98SAPC  H15B 9651   0.740   3.800   2.464  0.0563  1.0925 -0.8806
   98SAPC  H15C 9652   0.880   3.910   2.421 -1.0485  0.3851 -0.4274
   98SAPC   C11 9653   0.809   3.756   2.797 -0.0587  0.8047 -0.9762
   98SAPC  H11A 9654   0.735   3.690   2.848  2.1593 -0.1180  1.2504
   98SAPC  H11B 9655   0.864   3.813   2.875  0.1801  1.5211 -1.6598
   98SAPC     P 9656   1.042   3.627   2.777 -0.1050  0.3105  0.1280
   98SAPC   O13 9657   1.086   3.517   2.689 -0.1587 -0.2793  0.2181
   98SAPC   O14 9658   1.129   3.743   2.793 -0.1372 -0.1777 -0.2048
   98SAPC   O12 9659   0.902   3.677   2.726  0.2586 -0.0706  0.1064
   98SAPC   O11 9660   1.016   3.576   2.925 -0.4635  0.3276 -0.1147
   98SAPC    C1 9661   0.943   3.456   2.949 -0.5431  1.2726  0.2649
   98SAPC    HA 9662   0.833   3.473   2.948 -0.6229  0.7687  0.3253
   98SAPC    HB 9663   0.964   3.373   2.879  3.0278  3.1532 -1.1303
   98SAPC    C2 9664   0.981   3.410   3.094  0.1101 -0.3072 -0.6565
   98SAPC    HS 9665   0.927   3.317   3.122 -1.7693  0.9035 -0.1165
   98SAPC   O21 9666   0.954   3.519   3.187  0.0989 -0.2806 -0.7403
   98SAPC   C21 9667   0.828   3.530   3.223  0.1913  0.3867  0.1475
   98SAPC   O22 9668   0.747   3.448   3.187 -0.4442  0.1440  0.7357
   98SAPC   C22 9669   0.816   3.641   3.333  0.4829  0.1923 -0.2766
   98SAPC   H2R 9670   0.913   3.695   3.334 -0.2131  1.5260 -1.0038
   98SAPC   H2S 9671   0.741   3.716   3.300  1.8110  0.9251 -1.7681
   98SAPC    C3 9672   1.128   3.367   3.107 -0.5522  0.3522  0.4812
   98SAPC    HX 9673   1.195   3.451   3.078 -2.0012  1.5217  0.3289
   98SAPC    HY 9674   1.137   3.286   3.032 -3.2621  0.0071  0.4201
   98SAPC   O31 9675   1.156   3.315   3.237  0.6073  0.1375 -0.0943
   98SAPC   C31 9676   1.191   3.406   3.329 -0.5822 -0.0374 -0.3389
   98SAPC   O32 9677   1.230   3.519   3.301  0.4391  0.0145 -1.0295
   98SAPC   C32 9678   1.188   3.341   3.467  0.1684 -0.3045 -0.4522
   98SAPC   H2X 9679   1.274   3.270   3.466 -1.7191 -2.7113  0.0530
   98SAPC   H2Y 9680   1.089   3.295   3.483 -0.5365  1.0181 -0.8510
   98SAPC   C23 9681   0.782   3.590   3.477 -0.3729  0.1464  0.3347
   98SAPC   H3R 9682   0.856   3.510   3.503 -1.8099 -1.3770 -0.1097
   98SAPC   H3S 9683   0.683   3.541   3.475 -0.3972  0.1692  0.8232
   98SAPC   C24 9684   0.795   3.693   3.583 -0.4338  0.4640  0.1938
   98SAPC   H4R 9685   0.888   3.742   3.547 -0.3410  0.9390  1.0642
   98SAPC   H4S 9686   0.831   3.660   3.683 -0.5153  1.5096  0.5817
   98SAPC   C25 9687   0.690   3.798   3.600 -0.5608  0.5722 -0.0951
   98SAPC   H5R 9688   0.667   3.868   3.518 -3.5810  1.1629  1.1276
   98SAPC   C26 9689   0.614   3.814   3.711 -0.6028  0.7343 -1.1234
   98SAPC   H6R 9690   0.534   3.889   3.707  0.4945  2.0507  0.2515
   98SAPC   C27 9691   0.623   3.716   3.828  0.3568  0.2537 -0.0517
   98SAPC   H7R 9692   0.684   3.760   3.909 -0.6606  1.1506  0.2519
   98SAPC   H7S 9693   0.671   3.619   3.802 -1.0336 -0.2765 -0.7281
   98SAPC   C28 9694   0.496   3.656   3.870  0.0291 -0.3868 -0.0954
   98SAPC   H8R 9695   0.461   3.593   3.786 -0.6208  1.0168 -0.9138
   98SAPC   C29 9696   0.435   3.666   3.992  0.0119  1.0605  0.4901
   98SAPC   H9R 9697   0.330   3.635   3.996  1.0792 -2.9051  1.9714
   98SAPC  C210 9698   0.466   3.742   4.112  0.2628 -0.9151  0.3457
   98SAPC  H10R 9699   0.374   3.797   4.144  0.7423  0.2440 -0.1834
   98SAPC  H10S 9700   0.531   3.829   4.087 -0.0769 -1.4134 -2.6347
   98SAPC  C211 9701   0.530   3.661   4.215 -0.0247 -0.1636  1.0281
   98SAPC  H11R 9702   0.596   3.583   4.173  0.5277  1.4610 -1.2912
   98SAPC  C212 9703   0.514   3.682   4.347 -0.2960  0.1734 -0.0859
   98SAPC  H12R 9704   0.570   3.621   4.420 -0.1023  1.2808  0.7304
   98SAPC  C213 9705   0.418   3.794   4.401 -0.2504  0.1617  0.9272
   98SAPC  H13R 9706   0.315   3.753   4.405 -0.0138 -0.5767 -0.1404
   98SAPC  H13S 9707   0.426   3.886   4.340  1.0076 -0.4619  0.1196
   98SAPC  C214 9708   0.435   3.836   4.543  0.0575  0.0152  0.2838
   98SAPC  H14R 9709   0.459   3.943   4.545 -0.2426  0.0961 -0.2217
   98SAPC  C215 9710   0.411   3.756   4.649 -0.6801 -0.3586  0.3447
   98SAPC  H15R 9711   0.436   3.793   4.750 -1.0879 -0.9915  0.6850
   98SAPC  C216 9712   0.351   3.616   4.648 -0.2495  0.2160  0.0309
   98SAPC  H16R 9713   0.387   3.554   4.732 -0.7326  1.1939  0.9867
   98SAPC  H16S 9714   0.361   3.570   4.547 -1.1762 -0.2200  0.1236
   98SAPC  C217 9715   0.200   3.629   4.669  0.4636 -0.5511  0.0141
   98SAPC  H17R 9716   0.157   3.526   4.671 -0.2095 -0.3679 -2.1592
   98SAPC  H17S 9717   0.146   3.676   4.584  0.0312  0.9241  1.0689
   98SAPC  C218 9718   0.151   3.693   4.805 -0.3990  0.5134  0.8023
   98SAPC  H18R 9719   0.187   3.797   4.819  1.1243  0.0792  0.3788
   98SAPC  H18S 9720   0.198   3.625   4.880  1.6864  0.5799 -0.3572
   98SAPC  C219 9721  -0.004   3.703   4.810 -0.3952  0.5490 -0.0860
   98SAPC  H19R 9722  -0.040   3.761   4.722  0.0762  0.6659 -0.2040
   98SAPC  H19S 9723  -0.037   3.756   4.902  0.2851 -2.0902  1.7989
   98SAPC  C220 9724  -0.078   3.565   4.814 -0.1987 -0.4130 -0.6832
   98SAPC  H20R 9725  -0.060   3.512   4.910 -0.7823  0.3735 -0.1246
   98SAPC  H20S 9726  -0.044   3.502   4.730  2.9740 -1.0145  0.8864
   98SAPC  H20T 9727  -0.188   3.580   4.803 -0.2071  0.7816  0.6529
   98SAPC   C33 9728   1.229   3.426   3.589  0.2975 -0.4706 -0.0528
   98SAPC   H3X 9729   1.312   3.488   3.550  2.7012 -3.0008  0.6626
   98SAPC   H3Y 9730   1.270   3.361   3.670 -1.2865 -0.5467  0.7256
   98SAPC   C34 9731   1.116   3.497   3.659 -0.4836  0.2312  0.3052
   98SAPC   H4X 9732   1.044   3.424   3.701 -0.6671  0.1333 -0.1736
   98SAPC   H4Y 9733   1.070   3.572   3.590 -1.0063  1.9528  2.3936
   98SAPC   C35 9734   1.154   3.587   3.781 -0.7678  0.2132  0.7227
   98SAPC   H5X 9735   1.233   3.658   3.748  0.0129 -0.8802  0.1710
   98SAPC   H5Y 9736   1.198   3.512   3.850  0.5229  0.5224  0.2557
   98SAPC   C36 9737   1.045   3.664   3.841  0.0175 -0.6902  0.7303
   98SAPC   H6X 9738   0.963   3.591   3.854 -0.9849  0.0110 -1.2825
   98SAPC   H6Y 9739   1.018   3.755   3.782  3.9548  1.2647  1.5670
   98SAPC   C37 9740   1.083   3.709   3.980 -0.6655 -0.3079  0.2264
   98SAPC   H7X 9741   1.157   3.791   3.972  0.3573 -1.2644 -0.3365
   98SAPC   H7Y 9742   1.139   3.626   4.028 -1.2471 -1.0529 -0.3658
   98SAPC   C38 9743   0.966   3.757   4.073 -0.1264 -0.0631  0.4668
   98SAPC   H8X 9744   0.899   3.670   4.085  0.2176 -0.3563  0.2716
   98SAPC   H8Y 9745   0.910   3.830   4.010 -0.5308 -1.0570 -0.3421
   98SAPC   C39 9746   1.003   3.824   4.203  0.1714  0.3151  0.7672
   98SAPC   H9X 9747   1.080   3.901   4.180 -0.2169  0.4559 -0.1103
   98SAPC   H9Y 9748   1.045   3.746   4.270 -3.2445 -1.6556  0.8120
   98SAPC  C310 9749   0.885   3.892   4.271 -0.4688 -0.1258 -0.2582
   98SAPC  H10X 9750   0.808   3.813   4.264 -1.1611  0.3339  1.5093
   98SAPC  H10Y 9751   0.856   3.989   4.226 -0.4439  0.5847  1.1812
   98SAPC  C311 9752   0.906   3.918   4.418 -0.2511 -0.3151 -0.7737
   98SAPC  H11X 9753   0.988   3.992   4.424  0.6685 -1.3127 -0.8064
   98SAPC  H11Y 9754   0.960   3.839   4.474  1.2335  1.4003  0.3176
   98SAPC  C312 9755   0.778   3.970   4.492 -0.5759  0.9104 -0.3543
   98SAPC  H12X 9756   0.713   3.880   4.500  1.1755 -0.4444 -0.6668
   98SAPC  H12Y 9757   0.721   4.036   4.423 -1.3320  1.2559  0.5847
   98SAPC  C313 9758   0.793   4.045   4.623  0.0174 -0.7723  0.5300
   98SAPC  H13X 9759   0.688   4.056   4.655 -0.4056 -0.4817 -0.8879
   98SAPC  H13Y 9760   0.847   4.137   4.592 -1.6928  0.2836  0.5529
   98SAPC  C314 9761   0.879   3.982   4.730  0.0786  0.3099  0.3645
   98SAPC  H14X 9762   0.989   3.983   4.710 -0.0315 -1.8896 -0.7224
   98SAPC  H14Y 9763   0.848   3.876   4.714 -2.2323  1.2435 -2.1359
   98SAPC  C315 9764   0.849   4.045   4.865 -0.4033 -0.0874  0.4798
   98SAPC  H15X 9765   0.913   3.996   4.941 -1.3157  1.4149  2.3023
   98SAPC  H15Y 9766   0.744   4.034   4.897  0.0107 -2.3749  1.2254
   98SAPC  C316 9767   0.909   4.182   4.875 -0.0695 -0.1632 -0.6789
   98SAPC  H16X 9768   0.845   4.250   4.815 -1.4663 -1.4029 -0.6513
   98SAPC  H16Y 9769   1.010   4.185   4.828 -0.4276 -0.0068 -1.4506
   98SAPC  C317 9770   0.905   4.236   5.013 -0.0199 -0.5175  0.0072
   98SAPC  H17X 9771   0.986   4.312   5.022 -0.3661 -0.0928 -0.4181
   98SAPC  H17Y 9772   0.938   4.165   5.091  2.1255  0.9455  0.5252
   98SAPC  C318 9773   0.772   4.294   5.062  0.5590  0.5619  0.3048
   98SAPC  H18X 9774   0.744   4.384   5.005  0.1506  2.2018  2.9076
   98SAPC  H18Y 9775   0.784   4.320   5.170  2.7288  0.6070  0.1016
   98SAPC  H18Z 9776   0.704   4.209   5.037  0.8438  0.6631 -0.8576
   99SAPC     N 9777   6.585   6.243   2.714 -1.0054  0.0806  0.6545
   99SAPC   C12 9778   6.635   6.341   2.612  0.5265 -0.2870 -0.8571
   99SAPC  H12A 9779   6.724   6.397   2.639  0.5994 -0.7833 -0.0197
   99SAPC  H12B 9780   6.567   6.425   2.610 -1.0125 -1.4348  0.5528
   99SAPC   C13 9781   6.463   6.181   2.659  0.0230  0.2223 -0.0625
   99SAPC  H13A 9782   6.385   6.253   2.636 -0.3574 -0.3822 -0.7023
   99SAPC  H13B 9783   6.483   6.127   2.567 -1.5917  1.5737 -1.2837
   99SAPC  H13C 9784   6.435   6.102   2.727  1.6377 -0.1953  0.1680
   99SAPC   C14 9785   6.683   6.137   2.730 -1.0892  0.0891  0.5745
   99SAPC  H14A 9786   6.647   6.060   2.798  1.1552  0.0612  1.8236
   99SAPC  H14B 9787   6.697   6.080   2.639 -0.3282 -2.1908  2.0339
   99SAPC  H14C 9788   6.783   6.166   2.759  0.5100 -0.2598 -3.8883
   99SAPC   C15 9789   6.561   6.302   2.847 -0.2017 -0.0017 -0.0997
   99SAPC  H15A 9790   6.524   6.216   2.902  0.6106 -1.5334 -1.8283
   99SAPC  H15B 9791   6.657   6.324   2.892 -0.2013 -0.3443  0.0707
   99SAPC  H15C 9792   6.496   6.388   2.844 -0.5208 -0.2367  0.0259
   99SAPC   C11 9793   6.630   6.288   2.468 -0.0309 -0.5875 -0.2141
   99SAPC  H11A 9794   6.647   6.178   2.459  3.5706 -0.0390 -1.7862
   99SAPC  H11B 9795   6.711   6.339   2.412 -0.9432  1.1304 -0.0423
   99SAPC     P 9796   6.454   6.471   2.377 -0.2711 -0.3068  0.3558
   99SAPC   O13 9797   6.501   6.514   2.240  0.3328  0.0792  0.6721
   99SAPC   O14 9798   6.312   6.470   2.393  0.1092 -0.0639  0.6329
   99SAPC   O12 9799   6.500   6.325   2.410 -0.0355  0.5069 -0.3573
   99SAPC   O11 9800   6.527   6.563   2.486 -0.2789  0.4421 -0.3051
   99SAPC    C1 9801   6.467   6.690   2.519 -0.2035 -0.4390  0.2087
   99SAPC    HA 9802   6.519   6.766   2.457 -2.7636  0.2560 -1.2703
   99SAPC    HB 9803   6.360   6.699   2.490  0.5764 -0.3686 -2.9565
   99SAPC    C2 9804   6.485   6.726   2.668  1.1937  0.3833 -0.2452
   99SAPC    HS 9805   6.438   6.827   2.674 -2.0830 -0.9440 -1.0466
   99SAPC   O21 9806   6.618   6.704   2.714 -0.9470 -0.0558 -0.0697
   99SAPC   C21 9807   6.654   6.794   2.800 -0.4435  0.7204  0.0349
   99SAPC   O22 9808   6.594   6.895   2.836 -0.5009  0.2091  0.0900
   99SAPC   C22 9809   6.797   6.748   2.843 -0.0092  0.7980  0.0503
   99SAPC   H2R 9810   6.858   6.748   2.750  1.2773  3.3814  0.8083
   99SAPC   H2S 9811   6.842   6.831   2.902  0.1206  1.2680 -0.6936
   99SAPC    C3 9812   6.398   6.639   2.756  0.7024 -0.2313 -0.0556
   99SAPC    HX 9813   6.432   6.534   2.742 -1.2912 -0.8587 -0.5616
   99SAPC    HY 9814   6.294   6.641   2.718  1.0810 -1.8374 -1.3470
   99SAPC   O31 9815   6.404   6.683   2.894  0.4914  0.7486  0.6517
   99SAPC   C31 9816   6.336   6.789   2.927 -0.0792 -0.4491 -0.6737
   99SAPC   O32 9817   6.243   6.843   2.860 -0.4287 -0.1222 -0.2399
   99SAPC   C32 9818   6.384   6.842   3.061 -0.1982  0.1998  0.5346
   99SAPC   H2X 9819   6.491   6.871   3.050 -0.3085  0.5028  0.2190
   99SAPC   H2Y 9820   6.393   6.755   3.130  1.6024 -0.9794 -1.0629
   99SAPC   C23 9821   6.791   6.621   2.928 -0.0689 -0.5398 -0.1148
   99SAPC   H3R 9822   6.888   6.567   2.934  0.6420  0.8296  1.5316
   99SAPC   H3S 9823   6.717   6.549   2.887 -3.1360  0.4121  3.1619
   99SAPC   C24 9824   6.741   6.656   3.073  0.6272 -0.0535 -0.2018
   99SAPC   H4R 9825   6.714   6.559   3.122  1.7243 -0.2480  0.0340
   99SAPC   H4S 9826   6.639   6.699   3.071  0.5943 -0.0088  1.4757
   99SAPC   C25 9827   6.828   6.747   3.162  0.2014  0.2547 -0.2724
   99SAPC   H5R 9828   6.869   6.832   3.106 -1.0064 -0.0788 -1.7296
   99SAPC   C26 9829   6.837   6.744   3.299 -0.2982 -0.5223  0.5510
   99SAPC   H6R 9830   6.903   6.824   3.336 -2.4323  1.8699 -0.4710
   99SAPC   C27 9831   6.778   6.663   3.408  0.7451  0.9329  0.1913
   99SAPC   H7R 9832   6.845   6.669   3.496  1.0717 -0.1570  0.0336
   99SAPC   H7S 9833   6.786   6.558   3.373 -1.8451  0.4876  0.7089
   99SAPC   C28 9834   6.641   6.704   3.454  0.3522 -1.2874  0.2516
   99SAPC   H8R 9835   6.588   6.776   3.390  1.7277 -0.2963  0.1737
   99SAPC   C29 9836   6.581   6.657   3.566 -0.3884 -0.7874  0.1176
   99SAPC   H9R 9837   6.486   6.704   3.595  1.2487  1.0120  3.1346
   99SAPC  C210 9838   6.637   6.575   3.675  0.1290  0.1609 -0.3129
   99SAPC  H10R 9839   6.746   6.557   3.669  0.4117  0.9276  1.7666
   99SAPC  H10S 9840   6.577   6.483   3.659 -0.1324  0.4312 -0.9326
   99SAPC  C211 9841   6.605   6.629   3.816 -0.6780  0.4387 -0.0771
   99SAPC  H11R 9842   6.510   6.590   3.854  0.3607 -1.4121  0.7988
   99SAPC  C212 9843   6.676   6.719   3.891  0.3525  0.0926  0.4301
   99SAPC  H12R 9844   6.618   6.742   3.982 -1.3350 -0.7381 -0.3982
   99SAPC  C213 9845   6.805   6.789   3.844  0.0624  0.1617 -0.6268
   99SAPC  H13R 9846   6.806   6.780   3.733 -2.6584  1.2683 -0.8130
   99SAPC  H13S 9847   6.896   6.734   3.877  1.8548  2.8385 -0.8111
   99SAPC  C214 9848   6.803   6.935   3.868 -0.1329  0.1967  0.2427
   99SAPC  H14R 9849   6.837   6.951   3.972 -0.9864  0.8425  0.4364
   99SAPC  C215 9850   6.771   7.037   3.785 -0.1503  0.1005  0.1954
   99SAPC  H15R 9851   6.772   7.139   3.826 -1.6761 -0.1559  0.9491
   99SAPC  C216 9852   6.726   7.021   3.638 -0.3353  1.0140 -0.0334
   99SAPC  H16R 9853   6.663   6.929   3.633  0.9486  0.1575 -1.1196
   99SAPC  H16S 9854   6.815   7.005   3.573  0.0077 -0.5007  0.7504
   99SAPC  C217 9855   6.635   7.136   3.586 -0.0311 -0.2401  0.3108
   99SAPC  H17R 9856   6.694   7.227   3.564  0.9208 -1.3986 -2.2558
   99SAPC  H17S 9857   6.554   7.144   3.662 -2.4109  0.5918 -2.1750
   99SAPC  C218 9858   6.557   7.102   3.456 -0.1504  0.4085  0.4125
   99SAPC  H18R 9859   6.493   7.191   3.438 -0.2233  0.0918 -1.0054
   99SAPC  H18S 9860   6.492   7.014   3.473  0.7132 -0.7795 -2.0384
   99SAPC  C219 9861   6.637   7.073   3.332  0.9445 -0.0826  0.4994
   99SAPC  H19R 9862   6.565   7.082   3.248  0.3965  0.0369  0.9747
   99SAPC  H19S 9863   6.685   6.973   3.321  3.2833  0.7400  2.2924
   99SAPC  C220 9864   6.753   7.164   3.316  0.2280  0.0408 -0.0365
   99SAPC  H20R 9865   6.802   7.123   3.225 -0.7715  0.5787 -0.8394
   99SAPC  H20S 9866   6.826   7.158   3.399  0.6271  0.9475 -0.3076
   99SAPC  H20T 9867   6.719   7.269   3.303 -2.9210 -0.7167  1.1853
   99SAPC   C33 9868   6.303   6.970   3.112 -0.4542  0.1434  0.4328
   99SAPC   H3X 9869   6.287   7.041   3.028 -1.0019 -0.0601  0.3661
   99SAPC   H3Y 9870   6.363   7.017   3.193  0.0709 -0.9875  0.7272
   99SAPC   C34 9871   6.174   6.934   3.183  1.3346  0.8099 -0.1730
   99SAPC   H4X 9872   6.130   6.833   3.169 -0.5111  1.2536  1.9381
   99SAPC   H4Y 9873   6.094   7.005   3.155  0.0138 -0.7150 -0.4340
   99SAPC   C35 9874   6.196   6.945   3.329 -0.3119  0.3774 -1.0665
   99SAPC   H5X 9875   6.223   7.046   3.364  1.0195 -0.9663  2.1445
   99SAPC   H5Y 9876   6.277   6.873   3.353  1.4121  2.3939 -0.5614
   99SAPC   C36 9877   6.068   6.903   3.408  0.3115  0.5112  0.4467
   99SAPC   H6X 9878   6.016   6.812   3.372 -0.3262  1.1816 -0.3781
   99SAPC   H6Y 9879   5.991   6.980   3.384  0.7280  0.9597  0.5352
   99SAPC   C37 9880   6.097   6.893   3.562  0.0613 -0.3340 -0.1127
   99SAPC   H7X 9881   6.140   6.799   3.601  1.1812  0.0764 -0.3158
   99SAPC   H7Y 9882   6.001   6.918   3.612 -0.3161 -1.6769 -0.1335
   99SAPC   C38 9883   6.188   7.014   3.612 -0.0385  0.5443 -0.0029
   99SAPC   H8X 9884   6.164   7.117   3.577 -3.6722  0.7239  2.4712
   99SAPC   H8Y 9885   6.294   6.986   3.590  0.0770  0.4652  0.6098
   99SAPC   C39 9886   6.179   7.026   3.764 -0.1057  0.5914  0.1775
   99SAPC   H9X 9887   6.164   6.923   3.805 -2.5460  0.4072 -0.9487
   99SAPC   H9Y 9888   6.084   7.074   3.798 -1.2862 -1.3440 -0.1954
   99SAPC  C310 9889   6.299   7.083   3.828 -0.3780  0.8522 -0.5453
   99SAPC  H10X 9890   6.319   7.192   3.818  0.0459  0.9616  1.3004
   99SAPC  H10Y 9891   6.392   7.030   3.796 -0.7763  0.2597 -0.7353
   99SAPC  C311 9892   6.300   7.067   3.982 -0.0441 -0.7220 -0.0659
   99SAPC  H11X 9893   6.409   7.075   4.003  0.3168 -0.3315 -1.8826
   99SAPC  H11Y 9894   6.266   6.963   3.999 -0.1779 -0.4151  1.7461
   99SAPC  C312 9895   6.214   7.179   4.054  0.3217  0.0494  0.0543
   99SAPC  H12X 9896   6.109   7.164   4.022  0.8145 -0.1724 -1.5385
   99SAPC  H12Y 9897   6.253   7.274   4.012 -1.0518 -0.2113 -1.9162
   99SAPC  C313 9898   6.232   7.198   4.204  0.3733  0.3619  0.2226
   99SAPC  H13X 9899   6.184   7.296   4.225 -2.4132 -0.7339 -0.4972
   99SAPC  H13Y 9900   6.341   7.208   4.220  0.2963  1.5496  0.0583
   99SAPC  C314 9901   6.163   7.100   4.297 -0.1556  0.1473  0.2572
   99SAPC  H14X 9902   6.204   6.999   4.279  2.0954  1.3608 -2.1779
   99SAPC  H14Y 9903   6.055   7.093   4.270  0.0842  0.5525 -0.8912
   99SAPC  C315 9904   6.184   7.137   4.445  0.0410 -0.8642 -0.5646
   99SAPC  H15X 9905   6.293   7.139   4.467 -0.0767  0.1834  0.0011
   99SAPC  H15Y 9906   6.144   7.063   4.517 -1.0712  0.5961  0.3743
   99SAPC  C316 9907   6.129   7.275   4.490  0.1162 -0.7595  0.0327
   99SAPC  H16X 9908   6.032   7.293   4.440  0.7760  0.3953 -0.8839
   99SAPC  H16Y 9909   6.197   7.348   4.441  0.5607 -0.3061  1.2732
   99SAPC  C317 9910   6.144   7.317   4.638  0.4127  0.4507  0.3273
   99SAPC  H17X 9911   6.239   7.280   4.682  0.5832 -1.2163 -1.3180
   99SAPC  H17Y 9912   6.063   7.266   4.693  0.2493  0.8546  0.4627
   99SAPC  C318 9913   6.138   7.467   4.660 -0.0708 -0.0496 -0.7797
   99SAPC  H18X 9914   6.229   7.517   4.620  0.0606 -0.6168 -1.1994
   99SAPC  H18Y 9915   6.117   7.494   4.766 -1.0986 -4.5971  0.4081
   99SAPC  H18Z 9916   6.061   7.504   4.589  0.5372 -1.3626 -2.1673
  100SAPC     N 9917   4.125   5.922   3.102 -0.4353 -0.5783  0.1502
  100SAPC   C12 9918   4.232   5.966   2.999  0.3778  0.2117 -0.8735
  100SAPC  H12A 9919   4.209   6.065   2.963  0.6284  0.3116 -0.7595
  100SAPC  H12B 9920   4.217   5.898   2.916 -0.7770  1.7929 -2.0258
  100SAPC   C13 9921   4.104   6.033   3.210  0.4327  0.0311 -0.3550
  100SAPC  H13A 9922   4.088   6.129   3.164 -1.0901  1.3366  2.6419
  100SAPC  H13B 9923   4.022   6.008   3.275 -0.9560  0.5081 -1.8612
  100SAPC  H13C 9924   4.192   6.033   3.273 -0.8908  1.2091  1.5653
  100SAPC   C14 9925   3.989   5.895   3.034 -0.8998 -0.2364 -0.1947
  100SAPC  H14A 9926   3.914   5.862   3.103 -0.8453  0.5830  0.2687
  100SAPC  H14B 9927   3.960   5.989   2.989  2.1097  0.6069 -0.6049
  100SAPC  H14C 9928   3.997   5.824   2.953 -2.7154  1.9254 -2.4195
  100SAPC   C15 9929   4.169   5.801   3.172 -0.4630 -0.1629 -0.2617
  100SAPC  H15A 9930   4.269   5.812   3.209 -0.6331  0.4449  0.0199
  100SAPC  H15B 9931   4.109   5.769   3.256  0.1607 -0.7658 -0.0401
  100SAPC  H15C 9932   4.178   5.719   3.102 -0.6328  0.2288 -0.7533
  100SAPC   C11 9933   4.381   5.967   3.038  0.1873 -0.7475  0.1659
  100SAPC  H11A 9934   4.380   6.039   3.123 -1.7523 -0.4757 -0.0390
  100SAPC  H11B 9935   4.432   6.006   2.947 -0.9965  0.0414 -0.1787
  100SAPC     P 9936   4.448   5.723   2.949  0.4457  0.4337 -0.2093
  100SAPC   O13 9937   4.316   5.677   2.904 -0.8725  0.0224 -0.7441
  100SAPC   O14 9938   4.542   5.777   2.845  0.4447 -0.4548 -0.4389
  100SAPC   O12 9939   4.435   5.837   3.059  0.6081  0.6399  0.4119
  100SAPC   O11 9940   4.515   5.609   3.033 -0.7157  0.0787  0.1711
  100SAPC    C1 9941   4.651   5.624   3.078 -0.0727 -0.3332  0.2267
  100SAPC    HA 9942   4.699   5.529   3.046  0.2779 -0.0760 -0.0132
  100SAPC    HB 9943   4.708   5.709   3.036 -0.5388  0.2629  0.7823
  100SAPC    C2 9944   4.651   5.640   3.233 -0.4100 -0.3941  0.5066
  100SAPC    HS 9945   4.610   5.741   3.254  1.7096  0.5371  0.4130
  100SAPC   O21 9946   4.785   5.609   3.281  0.1179  1.1139 -0.1796
  100SAPC   C21 9947   4.880   5.702   3.268 -0.2630  0.1919 -0.8350
  100SAPC   O22 9948   4.856   5.819   3.246  0.1948  0.6097 -0.7490
  100SAPC   C22 9949   5.020   5.656   3.317  0.2212  0.1570 -0.4894
  100SAPC   H2R 9950   5.006   5.560   3.372  0.2059  0.4223 -0.0238
  100SAPC   H2S 9951   5.095   5.643   3.236 -0.3004  0.0940 -0.9690
  100SAPC    C3 9952   4.550   5.545   3.302  0.3995  0.7518 -0.5069
  100SAPC    HX 9953   4.553   5.448   3.248 -1.5369  0.5236 -0.2542
  100SAPC    HY 9954   4.446   5.582   3.287 -0.5849 -1.1345  1.2032
  100SAPC   O31 9955   4.571   5.528   3.443 -0.4453 -0.6317 -0.1339
  100SAPC   C31 9956   4.561   5.635   3.525 -0.7967  0.0609 -0.1852
  100SAPC   O32 9957   4.530   5.746   3.490  0.1730 -0.3637 -0.4173
  100SAPC   C32 9958   4.585   5.584   3.665  0.2809 -0.8628 -0.5268
  100SAPC   H2X 9959   4.678   5.525   3.678 -0.3319 -1.9295 -0.8371
  100SAPC   H2Y 9960   4.506   5.510   3.689  0.0254 -0.4851 -0.1866
  100SAPC   C23 9961   5.090   5.761   3.414 -0.3300  0.0760 -0.8855
  100SAPC   H3R 9962   5.103   5.857   3.360  2.0234 -1.1942 -2.7504
  100SAPC   H3S 9963   5.188   5.714   3.436  0.8280  2.2378 -1.2030
  100SAPC   C24 9964   5.009   5.781   3.546 -0.0472 -0.2669 -0.0581
  100SAPC   H4R 9965   4.983   5.685   3.595  0.1595 -0.0440  0.5024
  100SAPC   H4S 9966   4.918   5.839   3.523  1.6196  1.7719 -1.9633
  100SAPC   C25 9967   5.093   5.870   3.645 -0.6948  0.3248  0.2858
  100SAPC   H5R 9968   5.111   5.973   3.612 -0.1128  0.2576  0.3934
  100SAPC   C26 9969   5.138   5.827   3.760 -0.2526 -0.4163  0.2150
  100SAPC   H6R 9970   5.193   5.900   3.821 -0.2782  0.2406 -0.5304
  100SAPC   C27 9971   5.119   5.693   3.830  0.8495 -0.6417  0.2461
  100SAPC   H7R 9972   5.028   5.641   3.793 -0.9301 -0.1280  3.4937
  100SAPC   H7S 9973   5.089   5.705   3.936  2.3424  2.2367  0.4334
  100SAPC   C28 9974   5.239   5.604   3.816  0.1904  0.5172 -0.0436
  100SAPC   H8R 9975   5.267   5.572   3.714  2.0207 -0.7019  0.7804
  100SAPC   C29 9976   5.315   5.560   3.916 -0.3980 -0.1366 -0.5135
  100SAPC   H9R 9977   5.406   5.502   3.898  0.8262  1.1069  1.3034
  100SAPC  C210 9978   5.304   5.582   4.061  0.2960  0.1452  0.4259
  100SAPC  H10R 9979   5.197   5.603   4.082  0.1605 -0.0897 -0.0247
  100SAPC  H10S 9980   5.360   5.672   4.096  0.8675 -0.0809  0.1022
  100SAPC  C211 9981   5.341   5.457   4.141 -0.0605  0.5992 -0.2639
  100SAPC  H11R 9982   5.339   5.365   4.081  0.4062  1.6315 -1.9200
  100SAPC  C212 9983   5.360   5.449   4.277 -0.6644 -0.3598  0.8581
  100SAPC  H12R 9984   5.401   5.356   4.320 -3.3381 -1.1009  2.0184
  100SAPC  C213 9985   5.368   5.574   4.357 -0.1432  0.7051  0.4820
  100SAPC  H13R 9986   5.285   5.637   4.319 -0.0628 -0.8453 -2.4734
  100SAPC  H13S 9987   5.462   5.626   4.330 -1.2197  1.5330 -1.9177
  100SAPC  C214 9988   5.348   5.545   4.505 -0.4137  0.1722  0.1223
  100SAPC  H14R 9989   5.264   5.479   4.532  0.4008 -0.8494  0.2293
  100SAPC  C215 9990   5.427   5.597   4.607  0.2041  0.0681  0.9202
  100SAPC  H15R 9991   5.400   5.574   4.711 -2.0832 -1.1101  0.1472
  100SAPC  C216 9992   5.554   5.680   4.587  0.8579  0.1477  0.1335
  100SAPC  H16R 9993   5.529   5.771   4.529 -0.3906  0.6115  1.3322
  100SAPC  H16S 9994   5.637   5.630   4.532 -0.5132 -0.9400 -1.0022
  100SAPC  C217 9995   5.624   5.728   4.718 -0.4398  0.4016 -0.0757
  100SAPC  H17R 9996   5.728   5.755   4.688 -0.3425 -1.2319 -1.3362
  100SAPC  H17S 9997   5.627   5.654   4.801  0.0325  1.3165  0.7424
  100SAPC  C218 9998   5.551   5.855   4.770 -0.5964  0.1347 -0.0477
  100SAPC  H18R 9999   5.441   5.839   4.774 -0.3171 -2.0030  0.1776
  100SAPC  H18S10000   5.583   5.941   4.708  0.8150  0.5108  1.1452
  100SAPC  C21910001   5.592   5.884   4.914  0.2092  0.3965 -0.5492
  100SAPC  H19R10002   5.548   5.981   4.947  1.9682  1.2119 -0.4897
  100SAPC  H19S10003   5.703   5.892   4.919  0.2365 -0.6868  2.2315
  100SAPC  C22010004   5.554   5.790   5.021  0.2482  0.1806 -0.6370
  100SAPC  H20R10005   5.586   5.686   4.998 -0.8698 -0.3765  0.2248
  100SAPC  H20S10006   5.445   5.789   5.040  0.8092 -1.1252  3.3775
  100SAPC  H20T10007   5.602   5.804   5.120 -0.8558  0.5008 -0.1302
  100SAPC   C3310008   4.602   5.697   3.770  0.3559  0.3139  0.3867
  100SAPC   H3X10009   4.512   5.761   3.755  0.6538  0.5299 -0.5189
  100SAPC   H3Y10010   4.695   5.756   3.757  1.0132 -1.0276 -1.3341
  100SAPC   C3410011   4.595   5.649   3.915 -0.6507 -0.0296  0.1279
  100SAPC   H4X10012   4.675   5.573   3.921  0.8914  1.1600 -2.8176
  100SAPC   H4Y10013   4.496   5.603   3.930 -1.2730  1.0502 -0.4798
  100SAPC   C3510014   4.626   5.762   4.018 -0.5273 -0.0788 -0.7020
  100SAPC   H5X10015   4.547   5.839   4.004 -0.9667 -0.8204 -2.5557
  100SAPC   H5Y10016   4.728   5.805   4.006 -0.3471 -0.7376 -1.5977
  100SAPC   C3610017   4.606   5.703   4.160  0.0339 -0.2938  0.1774
  100SAPC   H6X10018   4.662   5.609   4.180  0.0174 -0.4441 -0.4446
  100SAPC   H6Y10019   4.501   5.665   4.164 -0.7693  1.6378 -1.2095
  100SAPC   C3710020   4.628   5.796   4.277  0.1471 -0.1330  1.1025
  100SAPC   H7X10021   4.569   5.889   4.259 -0.3792 -0.1454  2.6173
  100SAPC   H7Y10022   4.731   5.837   4.280  0.0958  0.3283 -1.3412
  100SAPC   C3810023   4.589   5.750   4.415 -0.1235  0.4424  0.5447
  100SAPC   H8X10024   4.654   5.660   4.422  0.1636  0.3365 -2.3419
  100SAPC   H8Y10025   4.483   5.717   4.421 -0.1138  0.5099  1.2244
  100SAPC   C3910026   4.597   5.833   4.539  0.4086 -0.3789 -0.8787
  100SAPC   H9X10027   4.699   5.864   4.570  0.1658  0.8548 -1.2408
  100SAPC   H9Y10028   4.545   5.781   4.623 -1.1080  1.0790 -0.8615
  100SAPC  C31010029   4.519   5.967   4.527 -0.5137  0.4632 -0.2133
  100SAPC  H10X10030   4.412   5.948   4.501 -1.4038  0.5682  2.9249
  100SAPC  H10Y10031   4.550   6.011   4.430  0.5859  0.5982  0.1944
  100SAPC  C31110032   4.559   6.068   4.627 -0.6198  0.2790 -0.3630
  100SAPC  H11X10033   4.572   6.162   4.570 -0.1708 -0.9367 -2.3893
  100SAPC  H11Y10034   4.658   6.050   4.673 -0.8437  0.6124  0.2599
  100SAPC  C31210035   4.441   6.087   4.727  0.3202 -0.2873 -0.1260
  100SAPC  H12X10036   4.388   5.991   4.742 -0.1603  0.2132  1.7291
  100SAPC  H12Y10037   4.363   6.141   4.668  0.3775  1.8176  1.6090
  100SAPC  C31310038   4.473   6.169   4.852 -0.3794 -0.3850 -0.4996
  100SAPC  H13X10039   4.518   6.261   4.811  0.7853 -1.1501 -0.9955
  100SAPC  H13Y10040   4.551   6.119   4.913 -0.8852 -1.2397 -0.5347
  100SAPC  C31410041   4.344   6.189   4.926  0.0592 -0.2320  0.0453
  100SAPC  H14X10042   4.294   6.101   4.972 -2.0634  0.0105 -1.6425
  100SAPC  H14Y10043   4.272   6.226   4.851  0.4522  0.1673 -0.1418
  100SAPC  C31510044   4.342   6.288   5.042  0.0085 -0.2483 -0.0380
  100SAPC  H15X10045   4.384   6.381   4.998  2.3910 -0.9079  0.6898
  100SAPC  H15Y10046   4.426   6.258   5.108  0.6929  2.0925  0.2628
  100SAPC  C31610047   4.212   6.303   5.111  0.2648  0.1670  0.5590
  100SAPC  H16X10048   4.183   6.197   5.124  2.3281 -0.3210  1.6200
  100SAPC  H16Y10049   4.139   6.351   5.042  0.0226  0.7690  1.2271
  100SAPC  C31710050   4.226   6.365   5.254  0.5964  0.2794 -0.2025
  100SAPC  H17X10051   4.316   6.320   5.303  0.3095 -1.3886 -1.1338
  100SAPC  H17Y10052   4.135   6.330   5.307 -1.2107 -2.7066 -4.6990
  100SAPC  C31810053   4.236   6.516   5.251  0.5046 -0.0479  0.1009
  100SAPC  H18X10054   4.330   6.536   5.196 -0.4394 -0.8448 -1.9034
  100SAPC  H18Y10055   4.237   6.564   5.352 -1.3585 -1.0513  0.6480
  100SAPC  H18Z10056   4.158   6.569   5.192 -0.6048 -2.0270 -0.3017
  101OSM      N10057   1.984   4.059   7.420 -0.2420 -0.3347 -0.6697
  101OSM    C1510058   1.937   3.923   7.469 -0.4599 -0.4392  0.4577
  101OSM   H15A10059   1.831   3.922   7.451 -0.7112  0.7996  1.6911
  101OSM   H15B10060   1.953   3.908   7.575 -0.3107 -0.4045  0.4409
  101OSM   H15C10061   1.984   3.842   7.415  0.7772 -1.2737  2.6415
  101OSM    C1410062   1.930   4.082   7.284 -0.1174 -0.2384 -0.3242
  101OSM   H14A10063   1.965   4.006   7.216 -2.6771 -0.2598 -1.7612
  101OSM   H14B10064   1.959   4.181   7.250  0.6775 -1.1559 -2.4696
  101OSM   H14C10065   1.822   4.079   7.284 -0.1095 -0.8205 -1.2810
  101OSM    C1310066   1.931   4.175   7.505 -0.3041  0.8859  0.9125
  101OSM   H13A10067   1.955   4.264   7.447  0.5756  0.3611  0.4474
  101OSM   H13B10068   1.970   4.177   7.605 -0.4413 -1.8477  1.1069
  101OSM   H13C10069   1.825   4.156   7.515 -0.0159 -1.8816 -0.3197
  101OSM    C1210070   2.133   4.062   7.427  0.4474  0.6349  0.2742
  101OSM   H12A10071   2.184   3.971   7.399  2.9991  2.5676 -1.9802
  101OSM   H12B10072   2.166   4.082   7.528 -0.7903  1.4942  0.5358
  101OSM    C1110073   2.201   4.163   7.337 -0.3579 -0.4232  0.0979
  101OSM   H11A10074   2.187   4.136   7.231 -0.3299 -1.1703  0.2763
  101OSM   H11B10075   2.309   4.145   7.356 -0.5449 -2.0675 -0.1904
  101OSM      P10076   2.249   4.425   7.308  0.0757  0.3279 -0.1668
  101OSM    O1310077   2.190   4.553   7.362  0.2200  0.1096 -0.3729
  101OSM    O1410078   2.392   4.403   7.328 -0.0916  0.1467 -0.6127
  101OSM    O1110079   2.207   4.420   7.155 -0.0378  0.4647  0.1628
  101OSM    O1210080   2.161   4.298   7.359 -0.0653  0.2012 -0.1748
  101OSM    C1S10081   2.291   4.379   7.052 -0.4069 -0.3526  0.1911
  101OSM    H1S10082   2.302   4.268   7.050  0.3654 -0.2838  0.5263
  101OSM    H1T10083   2.386   4.435   7.049 -1.1078  0.8191 -0.9129
  101OSM     NF10084   2.306   4.369   6.799 -0.6726 -0.2155  0.3374
  101OSM    HNF10085   2.326   4.431   6.723 -0.7930  1.9628  1.9633
  101OSM    C2S10086   2.235   4.431   6.908 -0.1551 -0.0334 -0.3698
  101OSM    H2S10087   2.135   4.382   6.915  0.9095 -2.2323  0.4415
  101OSM    C3S10088   2.218   4.583   6.897 -0.3124 -1.0116 -0.5061
  101OSM    H3S10089   2.320   4.626   6.896  0.4387 -2.7080 -0.2770
  101OSM     O310090   2.151   4.644   7.011  0.3926  0.5743  0.2837
  101OSM    HO310091   2.158   4.580   7.082 -2.1684 -0.6062 -0.4215
  101OSM    C4S10092   2.159   4.625   6.764  0.3462  0.7671  0.0723
  101OSM    H4S10093   2.242   4.641   6.694  1.4969 -0.8602  0.9911
  101OSM    C5S10094   2.029   4.626   6.724  0.4346 -0.8531  0.1809
  101OSM    H5S10095   1.940   4.604   6.786 -1.1366  3.7577 -0.0356
  101OSM    C6S10096   1.985   4.666   6.586 -0.0731  0.0268  0.4237
  101OSM    H6S10097   1.977   4.776   6.582  2.0143  0.2266  0.2817
  101OSM    H6T10098   1.882   4.625   6.579 -0.5050  0.8253  1.8171
  101OSM    C7S10099   2.076   4.606   6.468  0.0343 -0.2592 -0.3290
  101OSM    H7S10100   2.080   4.495   6.480 -1.6700 -0.1521  1.9597
  101OSM    H7T10101   2.185   4.628   6.474  0.7896 -1.6154 -5.0202
  101OSM    C8S10102   2.025   4.642   6.330  0.9468 -0.3131 -0.4396
  101OSM    H8S10103   2.005   4.751   6.339  0.7215 -0.3376 -0.6336
  101OSM    H8T10104   1.933   4.582   6.314  0.6667 -0.7664  2.3628
  101OSM    C9S10105   2.113   4.613   6.214 -0.6555  0.1322  0.2481
  101OSM    H9S10106   2.128   4.503   6.201  2.6750  0.3004  1.8067
  101OSM    H9T10107   2.215   4.655   6.225 -1.0308  1.2275 -0.3519
  101OSM   C10S10108   2.040   4.648   6.083 -0.1431  0.0897 -1.1194
  101OSM   H10S10109   2.006   4.754   6.080 -1.1990 -0.1899  0.0332
  101OSM   H10T10110   1.940   4.600   6.079  0.0404 -0.7301  2.0192
  101OSM   C11S10111   2.119   4.616   5.962  0.4466  0.5838 -0.1292
  101OSM   H11S10112   2.145   4.509   5.953  4.3263  1.3660 -0.2406
  101OSM   H11T10113   2.223   4.655   5.969  1.1768 -1.5243  1.8977
  101OSM   C12S10114   2.059   4.666   5.829  0.1577 -0.0139  0.3907
  101OSM   H12S10115   2.015   4.768   5.840 -0.1709  0.0883 -1.4295
  101OSM   H12T10116   1.971   4.601   5.807 -0.5217  0.6927  0.9654
  101OSM   C13S10117   2.148   4.662   5.705  0.9267 -0.1090  0.2093
  101OSM   H13S10118   2.202   4.565   5.711 -0.5290 -1.0743 -1.3305
  101OSM   H13T10119   2.223   4.743   5.718  0.1515  0.5851  0.4441
  101OSM   C14S10120   2.079   4.673   5.566 -0.3497  0.5831  0.1246
  101OSM   H14S10121   1.997   4.748   5.566 -1.6490 -0.6555  3.2977
  101OSM   H14T10122   2.036   4.572   5.546  0.7367 -0.3606  2.2332
  101OSM   C15S10123   2.175   4.712   5.451 -0.4536 -0.4737 -0.0179
  101OSM   H15S10124   2.248   4.629   5.449 -1.0981 -1.0979  1.3824
  101OSM   H15T10125   2.212   4.816   5.464 -1.1716  0.0230 -1.5640
  101OSM   C16S10126   2.109   4.723   5.313 -0.6141 -0.0204 -0.6571
  101OSM   H16S10127   2.025   4.795   5.316 -0.4609  0.1788 -1.0157
  101OSM   H16T10128   2.071   4.622   5.288 -0.0700 -0.2676 -0.4981
  101OSM   C17S10129   2.222   4.761   5.210 -0.6927  0.7910  0.0070
  101OSM   H17S10130   2.313   4.698   5.213 -0.0639  1.7130  1.4335
  101OSM   H17T10131   2.250   4.861   5.250  2.1620 -0.6202  1.8417
  101OSM   C18S10132   2.175   4.781   5.062  1.4256  0.1074  0.0834
  101OSM   H18S10133   2.111   4.871   5.067 -1.1379 -1.6657  3.1570
  101OSM   H18T10134   2.117   4.691   5.030  0.8777  0.8144 -0.9552
  101OSM   H18U10135   2.259   4.798   4.992  1.1325 -0.8635 -0.5265
  101OSM    C1F10136   2.305   4.242   6.773  0.2836 -0.1603 -0.1214
  101OSM     OF10137   2.221   4.173   6.829 -0.2883 -0.8596  0.5411
  101OSM    C2F10138   2.386   4.191   6.654 -0.1216  0.5819  0.2444
  101OSM    H2F10139   2.493   4.220   6.658  0.4043 -0.9967 -1.0992
  101OSM    H2G10140   2.333   4.236   6.567 -0.9800 -1.7799 -0.5304
  101OSM    C3F10141   2.400   4.030   6.665  0.7571 -0.2931 -0.3375
  101OSM    H3F10142   2.300   3.984   6.653  1.0163 -0.4214 -2.4102
  101OSM    H3G10143   2.437   4.002   6.766  0.2738 -0.4303 -0.1959
  101OSM    C4F10144   2.497   3.977   6.562 -0.7603  0.0333  0.7715
  101OSM    H4F10145   2.504   3.869   6.588 -1.3309 -0.0187  0.7294
  101OSM    H4G10146   2.593   4.031   6.568 -0.6038  0.0073 -0.9165
  101OSM    C5F10147   2.435   3.997   6.421 -0.4827 -0.1360 -0.3743
  101OSM    H5F10148   2.350   4.068   6.412  0.0520  0.4474 -0.8430
  101OSM    H5G10149   2.396   3.895   6.398  0.1937 -0.8913  1.6045
  101OSM    C6F10150   2.547   4.016   6.326  0.1362  0.2364  0.7950
  101OSM    H6F10151   2.614   3.928   6.324 -1.4373 -1.2196  4.2795
  101OSM    H6G10152   2.618   4.095   6.360  0.8981 -1.7413  4.2231
  101OSM    C7F10153   2.494   4.052   6.184 -0.1095 -0.9205 -0.3846
  101OSM    H7F10154   2.460   4.157   6.192 -2.0940 -1.3831 -2.0413
  101OSM    H7G10155   2.405   3.996   6.148 -1.5106  1.7427 -1.3455
  101OSM    C8F10156   2.600   4.053   6.077 -0.6653  0.5564 -0.1225
  101OSM    H8F10157   2.694   4.095   6.118 -0.8142  0.4172  0.3594
  101OSM    H8G10158   2.574   4.125   5.996  1.3420  2.2254  0.6364
  101OSM    C9F10159   2.619   3.916   6.025  0.5259  0.2487 -0.1597
  101OSM    H9F10160   2.660   3.842   6.095  0.6759 -0.8002 -1.3135
  101OSM   C10F10161   2.599   3.875   5.898 -0.1943 -0.6675  0.0714
  101OSM   H10F10162   2.618   3.771   5.868 -2.2142 -0.5019 -1.9814
  101OSM   C11F10163   2.551   3.955   5.786 -0.3305 -0.1825 -0.0057
  101OSM   H11F10164   2.559   4.065   5.796  0.2699 -0.0117 -1.9064
  101OSM   H11G10165   2.441   3.937   5.780 -0.6213  1.2180  0.7416
  101OSM   C12F10166   2.613   3.918   5.646  0.2903  0.2750  1.2871
  101OSM   H12F10167   2.579   3.822   5.599 -0.5797  0.7703  0.8726
  101OSM   H12G10168   2.722   3.912   5.663  0.5042 -2.3331 -0.3255
  101OSM   C13F10169   2.556   4.017   5.539  0.2706 -0.2372 -0.1769
  101OSM   H13F10170   2.565   4.121   5.578  0.9524 -0.0997 -0.6841
  101OSM   H13G10171   2.449   3.994   5.525  0.0629  1.3828 -1.6484
  101OSM   C14F10172   2.633   3.994   5.403  0.1282 -0.9615  0.2144
  101OSM   H14F10173   2.619   3.889   5.368  0.1696 -0.2587 -2.1281
  101OSM   H14G10174   2.739   4.025   5.412 -1.0090  4.4451 -1.4338
  101OSM   C15F10175   2.574   4.086   5.292  0.9307 -0.0661  0.5307
  101OSM   H15F10176   2.583   4.193   5.320  1.3188 -0.3208  1.4300
  101OSM   H15G10177   2.465   4.078   5.272  0.7128  1.1335  1.1971
  101OSM   C16F10178   2.646   4.056   5.165  0.2064 -0.5690 -0.2064
  101OSM   H16F10179   2.641   3.950   5.133  1.4123 -0.5351 -0.5717
  101OSM   H16G10180   2.754   4.083   5.168  0.4356 -1.4803  0.0314
  101OSM   C17F10181   2.587   4.125   5.044  0.2897  1.0066  0.2135
  101OSM   H17F10182   2.551   4.223   5.080 -3.4166  0.3414 -1.2441
  101OSM   H17G10183   2.506   4.063   4.999  1.3847  0.1626 -0.6795
  101OSM   C18F10184   2.683   4.146   4.924 -0.4339  0.0713  0.0822
  101OSM   H18F10185   2.633   4.187   4.834  1.2309 -0.1998 -1.0126
  101OSM   H18G10186   2.732   4.051   4.893  2.2336  1.2693  0.3442
  101OSM   H18H10187   2.767   4.214   4.947 -2.0291  2.0496  0.2864
  102OSM      N10188   2.553   3.869   7.799  0.8308 -1.0800  0.1415
  102OSM    C1510189   2.570   3.731   7.763 -0.8852  0.4020  0.3644
  102OSM   H15A10190   2.636   3.679   7.831  0.5343  3.6364  1.6196
  102OSM   H15B10191   2.602   3.722   7.660  1.9243  1.1056  1.0942
  102OSM   H15C10192   2.479   3.676   7.783  1.2185 -2.7220  2.3606
  102OSM    C1410193   2.506   3.885   7.936  0.5356 -0.4788 -0.4007
  102OSM   H14A10194   2.563   3.824   8.004  2.4965 -1.7117 -2.9834
  102OSM   H14B10195   2.405   3.856   7.961  0.4999  0.8141  1.1075
  102OSM   H14C10196   2.512   3.988   7.970 -3.7059 -0.2260  0.1212
  102OSM    C1310197   2.692   3.936   7.791 -0.6453 -0.8553 -0.1127
  102OSM   H13A10198   2.689   4.026   7.850 -0.2239 -0.6548 -0.3874
  102OSM   H13B10199   2.715   3.954   7.687  0.2785 -1.6844 -0.0660
  102OSM   H13C10200   2.770   3.874   7.832  0.7021  0.3894 -0.7239
  102OSM    C1210201   2.448   3.935   7.709  0.8945 -0.3059 -0.4448
  102OSM   H12A10202   2.413   4.026   7.757  1.9692 -0.6654  1.1095
  102OSM   H12B10203   2.362   3.871   7.704  0.8472 -0.1610 -2.2015
  102OSM    C1110204   2.486   3.955   7.562  0.5818 -0.2966  0.1472
  102OSM   H11A10205   2.583   4.009   7.555  0.2702  0.2628  0.1159
  102OSM   H11B10206   2.428   4.029   7.503  2.2144  0.9437  0.0392
  102OSM      P10207   2.365   3.755   7.465  0.0672  0.4722  0.1224
  102OSM    O1310208   2.390   3.613   7.420 -0.3524 -0.3093 -0.3626
  102OSM    O1410209   2.270   3.773   7.575 -0.0980 -0.0866  0.2541
  102OSM    O1110210   2.308   3.834   7.343  0.1178 -0.2386  0.2172
  102OSM    O1210211   2.500   3.831   7.496  0.6452 -0.1005 -0.0861
  102OSM    C1S10212   2.409   3.855   7.238  0.2669  0.1372 -0.3869
  102OSM    H1S10213   2.508   3.811   7.262  0.7878  1.1108 -0.7028
  102OSM    H1T10214   2.431   3.963   7.245 -1.4475  0.6340 -1.8617
  102OSM     NF10215   2.479   3.814   6.998 -0.3924 -0.1234  0.0289
  102OSM    HNF10216   2.493   3.907   6.963  1.1215 -0.2252  0.2885
  102OSM    C2S10217   2.371   3.805   7.093 -0.1064  0.5013  0.0208
  102OSM    H2S10218   2.346   3.697   7.106 -0.7108  0.8504  2.1621
  102OSM    C3S10219   2.244   3.865   7.036 -0.2586 -0.5569 -0.4966
  102OSM    H3S10220   2.269   3.968   7.006  1.7627 -0.4756  1.2099
  102OSM     O310221   2.129   3.877   7.123 -1.0376 -0.6140  0.2094
  102OSM    HO310222   2.159   3.848   7.209  1.0743 -0.1809 -0.3232
  102OSM    C4S10223   2.199   3.815   6.906  0.0393  0.7225  1.0313
  102OSM    H4S10224   2.207   3.886   6.823 -0.1641 -2.1155 -1.5835
  102OSM    C5S10225   2.138   3.694   6.884  0.0579 -0.6017  0.7367
  102OSM    H5S10226   2.116   3.626   6.967 -1.6451 -0.7345  0.2290
  102OSM    C6S10227   2.077   3.645   6.751 -0.1952 -0.4543  0.3478
  102OSM    H6S10228   1.967   3.632   6.758 -0.3478 -0.2783 -1.2800
  102OSM    H6T10229   2.120   3.544   6.734  0.1051 -0.1608 -0.7356
  102OSM    C7S10230   2.112   3.743   6.628  0.0485 -0.1772  0.2644
  102OSM    H7S10231   2.221   3.763   6.623 -0.1612  1.1870  0.5899
  102OSM    H7T10232   2.071   3.845   6.642  1.1151  0.1759  0.9196
  102OSM    C8S10233   2.067   3.685   6.493  0.3296  0.0210  0.8626
  102OSM    H8S10234   1.959   3.712   6.494  0.1656 -0.4572  3.1888
  102OSM    H8T10235   2.076   3.574   6.493  0.2996  0.0077 -0.5003
  102OSM    C9S10236   2.153   3.748   6.378 -0.3193 -0.1686  0.5961
  102OSM    H9S10237   2.258   3.716   6.395 -0.2169  1.4478  3.7985
  102OSM    H9T10238   2.146   3.857   6.398  5.0071  0.7420 -0.9908
  102OSM   C10S10239   2.101   3.718   6.237 -0.0011  0.2407 -0.3830
  102OSM   H10S10240   2.011   3.784   6.231  1.2059  2.1707  1.4009
  102OSM   H10T10241   2.076   3.613   6.213  0.0241  0.1629 -0.0629
  102OSM   C11S10242   2.202   3.750   6.125  0.4839  0.3336 -0.5552
  102OSM   H11S10243   2.293   3.689   6.143 -0.0895 -0.2702  0.3903
  102OSM   H11T10244   2.239   3.855   6.125 -1.9959  1.2746 -0.6450
  102OSM   C12S10245   2.135   3.719   5.993 -0.9720  0.2247 -0.3314
  102OSM   H12S10246   2.036   3.768   5.999 -1.4450 -0.7845  0.4293
  102OSM   H12T10247   2.119   3.609   5.982  0.3616 -0.0143 -0.0675
  102OSM   C13S10248   2.212   3.768   5.873 -0.9763  0.5292 -0.1087
  102OSM   H13S10249   2.320   3.741   5.877 -0.2322  3.3120  0.4167
  102OSM   H13T10250   2.211   3.878   5.857  0.5576  0.4634 -0.7897
  102OSM   C14S10251   2.161   3.702   5.736  0.2637 -0.4013 -0.2393
  102OSM   H14S10252   2.056   3.735   5.724  0.6498  0.9304 -0.0530
  102OSM   H14T10253   2.174   3.592   5.750 -0.0443 -0.2404  1.5022
  102OSM   C15S10254   2.245   3.763   5.625 -0.2364 -0.8053  1.3773
  102OSM   H15S10255   2.352   3.748   5.652 -0.3130  1.0808  2.9121
  102OSM   H15T10256   2.224   3.871   5.620  0.3513 -0.7268 -1.7591
  102OSM   C16S10257   2.205   3.685   5.497 -0.0019 -0.4136 -0.6894
  102OSM   H16S10258   2.099   3.700   5.468 -0.2137 -1.2141 -0.3597
  102OSM   H16T10259   2.232   3.578   5.504 -1.8001 -0.8556  0.0785
  102OSM   C17S10260   2.295   3.726   5.378 -0.3392 -0.0615  1.2572
  102OSM   H17S10261   2.403   3.715   5.404  0.5599  2.4133 -0.9811
  102OSM   H17T10262   2.275   3.832   5.353  0.6299 -0.0587  0.4102
  102OSM   C18S10263   2.266   3.657   5.246  0.5160 -0.0327  0.5840
  102OSM   H18S10264   2.356   3.657   5.181  0.2202 -0.2258  0.1672
  102OSM   H18T10265   2.177   3.711   5.207 -0.3247 -1.0539  1.0358
  102OSM   H18U10266   2.250   3.549   5.267  1.0455  0.1997  2.3283
  102OSM    C1F10267   2.587   3.735   6.997 -0.9131 -0.4251 -0.6910
  102OSM     OF10268   2.584   3.630   7.061 -0.9929 -0.0959 -0.2697
  102OSM    C2F10269   2.713   3.792   6.939  0.5426  0.1829 -0.3585
  102OSM    H2F10270   2.777   3.838   7.017  0.7478 -3.4688  1.8623
  102OSM    H2G10271   2.698   3.879   6.872  2.3132  2.1702  1.6993
  102OSM    C3F10272   2.825   3.697   6.867 -0.5315  0.1557 -0.4886
  102OSM    H3F10273   2.847   3.626   6.949 -1.5988  1.4786  1.0149
  102OSM    H3G10274   2.925   3.738   6.842  0.3804 -0.6660  1.5591
  102OSM    C4F10275   2.782   3.633   6.735 -0.2048  0.2892  0.4003
  102OSM    H4F10276   2.682   3.586   6.745  0.3634 -1.1361 -0.3057
  102OSM    H4G10277   2.850   3.551   6.702  0.1084  1.7239 -2.8580
  102OSM    C5F10278   2.775   3.733   6.620  0.4638  0.2177  0.1202
  102OSM    H5F10279   2.882   3.762   6.607  0.6758 -0.9983 -1.1464
  102OSM    H5G10280   2.710   3.815   6.657  1.2090  0.0618  1.8711
  102OSM    C6F10281   2.702   3.681   6.494 -0.4012 -0.1780 -0.2959
  102OSM    H6F10282   2.696   3.760   6.417  0.6746  1.3771  1.1244
  102OSM    H6G10283   2.599   3.664   6.532 -0.2998  0.0150  0.0702
  102OSM    C7F10284   2.750   3.555   6.428  0.4109  0.5164  0.2860
  102OSM    H7F10285   2.789   3.486   6.506  1.2209 -1.5336 -1.7924
  102OSM    H7G10286   2.839   3.565   6.362  0.8707  2.7121  1.1544
  102OSM    C8F10287   2.623   3.492   6.365 -0.9099  0.1267 -0.5046
  102OSM    H8F10288   2.549   3.490   6.448  1.5559  0.9182  1.8637
  102OSM    H8G10289   2.652   3.389   6.337  2.4316  0.1944  2.1577
  102OSM    C9F10290   2.567   3.574   6.255  0.1274 -0.0689 -0.0830
  102OSM    H9F10291   2.531   3.669   6.297 -1.0691 -0.3715 -0.3776
  102OSM   C10F10292   2.549   3.537   6.124  0.7358  0.0672  0.1509
  102OSM   H10F10293   2.516   3.619   6.059 -1.1859  0.9615  2.1442
  102OSM   C11F10294   2.594   3.411   6.065  0.1524  0.0257 -0.4677
  102OSM   H11F10295   2.576   3.327   6.135  0.6865  1.3115  1.3137
  102OSM   H11G10296   2.702   3.411   6.037 -0.0504  0.9180 -1.3064
  102OSM   C12F10297   2.515   3.377   5.934  0.3631  0.3420  0.2597
  102OSM   H12F10298   2.409   3.358   5.959  0.2035 -1.7851 -1.7340
  102OSM   H12G10299   2.568   3.285   5.901  2.6012  1.4230  0.6518
  102OSM   C13F10300   2.525   3.480   5.818 -0.1283  0.7084  0.1707
  102OSM   H13F10301   2.607   3.551   5.843 -0.1576  1.9586 -2.8852
  102OSM   H13G10302   2.428   3.533   5.823  0.0748  1.0691  0.3080
  102OSM   C14F10303   2.544   3.417   5.681  0.4159 -0.3341  0.2477
  102OSM   H14F10304   2.644   3.369   5.680  1.0007  0.5234  3.9804
  102OSM   H14G10305   2.541   3.490   5.597  2.3842 -1.2147 -0.6717
  102OSM   C15F10306   2.434   3.308   5.651  0.1891  0.1419 -0.4383
  102OSM   H15F10307   2.336   3.358   5.634 -1.5237 -2.8600 -0.1525
  102OSM   H15G10308   2.422   3.238   5.736 -0.5699 -1.1144 -1.5375
  102OSM   C16F10309   2.469   3.221   5.531  0.6148 -0.1388  0.9225
  102OSM   H16F10310   2.385   3.150   5.513 -0.7235  1.1900  1.6999
  102OSM   H16G10311   2.550   3.151   5.562 -1.0953 -2.4137  0.5468
  102OSM   C17F10312   2.507   3.291   5.398 -0.2078  0.0834 -0.2749
  102OSM   H17F10313   2.587   3.361   5.434 -1.4402  0.6329  1.5593
  102OSM   H17G10314   2.422   3.353   5.364 -0.6695 -0.3272  0.1230
  102OSM   C18F10315   2.554   3.192   5.300 -0.3239  0.3552 -0.0515
  102OSM   H18F10316   2.640   3.135   5.341 -1.1511  0.4972  1.9976
  102OSM   H18G10317   2.577   3.236   5.201  0.6465 -0.1396 -0.0528
  102OSM   H18H10318   2.479   3.111   5.286  0.5860 -0.5221  0.0395
  103OSM      N10319   3.318   4.596   7.342 -0.8624  0.9607 -0.6145
  103OSM    C1510320   3.295   4.486   7.440  0.1684 -0.5343 -0.1939
  103OSM   H15A10321   3.227   4.507   7.521 -0.1664 -3.5470  0.4045
  103OSM   H15B10322   3.388   4.449   7.479  0.2732 -0.0345  0.0425
  103OSM   H15C10323   3.264   4.402   7.381  1.3779 -0.3231 -1.1787
  103OSM    C1410324   3.185   4.644   7.300 -0.0472  0.2675  0.7595
  103OSM   H14A10325   3.143   4.573   7.231  1.7925 -1.0240  0.9026
  103OSM   H14B10326   3.187   4.736   7.243 -0.9895  1.9512  3.2471
  103OSM   H14C10327   3.110   4.661   7.376  1.7851  3.1204  2.0897
  103OSM    C1310328   3.402   4.700   7.394 -0.1138 -0.6040 -0.1020
  103OSM   H13A10329   3.391   4.783   7.325 -1.0873 -0.3538  0.3422
  103OSM   H13B10330   3.503   4.665   7.408 -0.6130 -1.6457  0.9966
  103OSM   H13C10331   3.378   4.731   7.494 -1.4689  0.2062 -0.6493
  103OSM    C1210332   3.396   4.542   7.221  0.0658  0.0181  0.1337
  103OSM   H12A10333   3.490   4.509   7.263 -1.2083 -2.7620  1.0888
  103OSM   H12B10334   3.423   4.623   7.156  0.4123 -0.2315 -0.0385
  103OSM    C1110335   3.334   4.428   7.135 -0.1248  0.4323 -0.0998
  103OSM   H11A10336   3.407   4.421   7.052  2.1725 -0.0444  1.8417
  103OSM   H11B10337   3.232   4.463   7.110 -0.0244  0.9617  0.2126
  103OSM      P10338   3.233   4.191   7.147 -0.3137 -0.3327  0.5718
  103OSM    O1310339   3.195   4.093   7.245 -0.0644  0.7138 -0.0579
  103OSM    O1410340   3.123   4.254   7.075  0.5675 -1.3329  0.0533
  103OSM    O1110341   3.325   4.130   7.037  0.2544 -1.0481 -0.2293
  103OSM    O1210342   3.317   4.309   7.213 -0.1000  0.2741  0.7481
  103OSM    C1S10343   3.466   4.105   7.054 -0.6828 -0.0094 -0.4427
  103OSM    H1S10344   3.482   4.013   7.114  0.9949 -0.2722 -1.2265
  103OSM    H1T10345   3.518   4.187   7.108 -1.1364 -0.6704  1.0589
  103OSM     NF10346   3.680   4.044   6.921 -0.1323 -0.1845 -0.2606
  103OSM    HNF10347   3.754   4.108   6.904  1.1955 -0.6772  3.0114
  103OSM    C2S10348   3.540   4.098   6.920 -0.1271 -0.1841  0.1319
  103OSM    H2S10349   3.490   4.023   6.856  2.9097 -0.4200 -2.1943
  103OSM    C3S10350   3.534   4.236   6.840 -0.1847 -0.8930 -0.3382
  103OSM    H3S10351   3.576   4.314   6.907 -1.3646 -1.5724  1.2749
  103OSM     O310352   3.403   4.297   6.817 -0.4862  0.6303 -0.1398
  103OSM    HO310353   3.342   4.234   6.855 -2.4337  0.3031 -3.3762
  103OSM    C4S10354   3.607   4.220   6.709  0.6094 -0.1757 -0.2660
  103OSM    H4S10355   3.714   4.246   6.714  0.9624 -1.2272 -1.6370
  103OSM    C5S10356   3.567   4.156   6.594 -0.2554  0.4334 -0.3357
  103OSM    H5S10357   3.465   4.116   6.582 -0.2731  0.4204 -0.1509
  103OSM    C6S10358   3.658   4.124   6.481 -0.1517 -0.8473 -0.4454
  103OSM    H6S10359   3.761   4.161   6.497  0.3431 -1.5057 -1.9618
  103OSM    H6T10360   3.621   4.165   6.385  1.9835 -0.2098 -1.0359
  103OSM    C7S10361   3.668   3.975   6.476  0.4393 -0.0979 -1.5059
  103OSM    H7S10362   3.569   3.935   6.445  1.0600 -2.8546 -0.2922
  103OSM    H7T10363   3.702   3.930   6.572  2.6222  0.8562 -1.7913
  103OSM    C8S10364   3.765   3.910   6.378 -0.2787  0.3169 -0.3294
  103OSM    H8S10365   3.770   3.805   6.414 -1.8299  0.6671  1.0355
  103OSM    H8T10366   3.863   3.962   6.378 -1.7992  3.4225  0.0057
  103OSM    C9S10367   3.701   3.914   6.239  0.1735  0.6198  0.7615
  103OSM    H9S10368   3.668   4.020   6.240  2.8310  1.5487 -0.5447
  103OSM    H9T10369   3.618   3.840   6.238  0.0716  0.7264 -0.8178
  103OSM   C10S10370   3.799   3.884   6.128 -0.3327 -0.1789 -0.0963
  103OSM   H10S10371   3.840   3.783   6.146 -1.3044 -0.4246  0.8412
  103OSM   H10T10372   3.874   3.966   6.127 -2.8772  2.3310  0.1640
  103OSM   C11S10373   3.741   3.885   5.993 -0.1305 -0.1725  0.3153
  103OSM   H11S10374   3.729   3.992   5.963  0.2173 -0.1300  0.3204
  103OSM   H11T10375   3.639   3.843   6.005  0.6385 -1.6292  2.1139
  103OSM   C12S10376   3.805   3.798   5.879  1.0513  0.1144  0.2572
  103OSM   H12S10377   3.746   3.810   5.786 -1.9766  0.0230  2.0452
  103OSM   H12T10378   3.788   3.697   5.922 -1.9465  0.5907  0.3604
  103OSM   C13S10379   3.951   3.830   5.852  0.1543 -0.7214 -0.0268
  103OSM   H13S10380   3.997   3.864   5.947 -0.5781  1.3708 -0.3752
  103OSM   H13T10381   3.969   3.906   5.772  0.8536 -0.1555  0.6558
  103OSM   C14S10382   4.030   3.695   5.814  0.6756 -0.1277 -0.0477
  103OSM   H14S10383   4.025   3.628   5.902 -1.2098 -0.6592 -0.5205
  103OSM   H14T10384   4.136   3.726   5.796  1.2138  0.2270  3.1386
  103OSM   C15S10385   3.973   3.615   5.692 -0.4965 -0.2231  0.9581
  103OSM   H15S10386   3.870   3.583   5.719 -1.3856  2.0783  0.5288
  103OSM   H15T10387   4.025   3.517   5.684 -1.6205 -0.7428 -0.3663
  103OSM   C16S10388   3.963   3.703   5.565 -0.1131  0.4188 -0.5637
  103OSM   H16S10389   4.063   3.750   5.556  0.7839 -1.2874  0.0579
  103OSM   H16T10390   3.877   3.770   5.587 -0.6273 -0.0768 -1.0139
  103OSM   C17S10391   3.934   3.608   5.449  0.5609 -0.4352  0.0433
  103OSM   H17S10392   3.824   3.594   5.441  0.5059 -0.0408  0.0787
  103OSM   H17T10393   3.974   3.508   5.477 -0.3879 -0.0596  3.2062
  103OSM   C18S10394   3.982   3.666   5.316  0.1341 -0.4517 -0.6095
  103OSM   H18S10395   3.944   3.614   5.225  0.5749  0.5682 -1.3898
  103OSM   H18T10396   4.093   3.674   5.315  0.0622  0.8382  0.1871
  103OSM   H18U10397   3.938   3.766   5.296 -1.0591 -0.7612  0.3969
  103OSM    C1F10398   3.704   3.923   6.958 -0.7906  0.4111  0.7034
  103OSM     OF10399   3.613   3.842   6.972  0.1443 -0.6109  0.3547
  103OSM    C2F10400   3.847   3.887   6.961  0.3526 -0.0083 -0.1884
  103OSM    H2F10401   3.850   3.786   7.007 -0.7710  1.0674  2.4333
  103OSM    H2G10402   3.899   3.965   7.021 -1.1181  1.6307 -0.9798
  103OSM    C3F10403   3.901   3.878   6.818  0.2493  0.9255  0.1968
  103OSM    H3F10404   3.925   3.981   6.786 -0.5887  1.3901  1.0051
  103OSM    H3G10405   3.835   3.814   6.755  3.1536 -1.4360 -0.6745
  103OSM    C4F10406   4.031   3.798   6.813  0.1153  0.7528  0.0423
  103OSM    H4F10407   4.020   3.704   6.870  0.4329  1.4836  1.3518
  103OSM    H4G10408   4.113   3.855   6.862  2.0088  1.3498 -3.4958
  103OSM    C5F10409   4.093   3.780   6.666 -0.0938 -0.0522 -0.1236
  103OSM    H5F10410   4.191   3.732   6.681  0.3053  1.0407  0.9615
  103OSM    H5G10411   4.125   3.880   6.629  2.4186 -1.0902 -0.9339
  103OSM    C6F10412   4.003   3.705   6.568  0.4967 -0.1904 -0.1499
  103OSM    H6F10413   3.903   3.754   6.564 -0.0336 -0.9827  2.1366
  103OSM    H6G10414   3.982   3.605   6.611  0.3358 -1.2493 -2.5059
  103OSM    C7F10415   4.063   3.694   6.431  0.7089  0.0877  0.1034
  103OSM    H7F10416   4.169   3.660   6.433  0.5747 -0.3173  0.5705
  103OSM    H7G10417   4.060   3.799   6.395 -0.4830  0.3955  1.0539
  103OSM    C8F10418   3.978   3.608   6.329  0.4307  0.1080 -0.0002
  103OSM    H8F10419   4.033   3.625   6.234  1.8999  1.4775  1.0497
  103OSM    H8G10420   3.876   3.650   6.314  1.1685  2.4530  1.1225
  103OSM    C9F10421   3.976   3.460   6.357 -0.3532 -0.0440 -0.6028
  103OSM    H9F10422   3.931   3.422   6.450 -1.0090  1.5036 -0.2686
  103OSM   C10F10423   4.033   3.356   6.286 -0.1139 -1.3078  0.4702
  103OSM   H10F10424   4.027   3.257   6.334 -1.1511 -0.9600  1.1177
  103OSM   C11F10425   4.105   3.367   6.146 -0.4283  0.7061  0.5138
  103OSM   H11F10426   4.214   3.358   6.165 -0.8087 -0.1632  2.5560
  103OSM   H11G10427   4.089   3.468   6.103  1.2073  0.8696  0.2350
  103OSM   C12F10428   4.057   3.277   6.036 -0.5912  0.5345 -0.0753
  103OSM   H12F10429   3.946   3.272   6.039 -0.6008 -2.3852 -1.6150
  103OSM   H12G10430   4.088   3.171   6.049 -2.0242  0.1900  0.8253
  103OSM   C13F10431   4.097   3.313   5.890  0.0268 -0.1697  0.2012
  103OSM   H13F10432   4.207   3.315   5.872 -0.5390  0.7470 -4.1880
  103OSM   H13G10433   4.068   3.420   5.884  1.1409  0.2734  1.8108
  103OSM   C14F10434   4.043   3.222   5.780  0.0164 -0.4011 -0.0424
  103OSM   H14F10435   4.077   3.117   5.795  0.5689 -0.6624 -2.6345
  103OSM   H14G10436   4.099   3.252   5.689  0.8597  0.0828  0.6221
  103OSM   C15F10437   3.894   3.243   5.757 -0.2899 -0.2926  0.7020
  103OSM   H15F10438   3.900   3.354   5.752  2.0918 -0.3330  1.2977
  103OSM   H15G10439   3.830   3.216   5.844  1.1037  1.1094  2.2509
  103OSM   C16F10440   3.837   3.182   5.624  0.7728 -0.4058  0.5048
  103OSM   H16F10441   3.823   3.073   5.637  1.8979 -0.6486 -0.1577
  103OSM   H16G10442   3.918   3.199   5.550 -1.0006 -0.8978 -1.6989
  103OSM   C17F10443   3.698   3.256   5.576 -0.9521 -0.3390  0.0013
  103OSM   H17F10444   3.688   3.226   5.469  1.0080  3.0432 -1.2784
  103OSM   H17G10445   3.723   3.364   5.566  3.2449 -0.7582  3.1522
  103OSM   C18F10446   3.573   3.228   5.653  0.0256 -0.3943 -0.2147
  103OSM   H18F10447   3.496   3.303   5.626 -0.7626 -1.9236 -2.5695
  103OSM   H18G10448   3.589   3.228   5.763  0.1124  1.3834 -0.2046
  103OSM   H18H10449   3.539   3.130   5.613 -1.8859 -0.5067  1.5497
  104OSM      N10450   3.241   5.326   7.513  0.2730 -0.2846 -0.4312
  104OSM    C1510451   3.229   5.211   7.603 -0.2149  0.3177 -0.1053
  104OSM   H15A10452   3.140   5.155   7.577  0.3999 -0.7093 -0.0866
  104OSM   H15B10453   3.244   5.228   7.709  2.3354  1.9849 -0.6592
  104OSM   H15C10454   3.312   5.144   7.583 -1.1144 -0.8580 -0.0617
  104OSM    C1410455   3.126   5.424   7.549 -0.1439  0.4581 -0.7425
  104OSM   H14A10456   3.140   5.511   7.486  1.2010  0.4625 -0.4560
  104OSM   H14B10457   3.124   5.451   7.654 -0.6122  0.5209 -0.7651
  104OSM   H14C10458   3.025   5.389   7.531  0.4489 -1.4533 -0.6026
  104OSM    C1310459   3.368   5.395   7.537 -0.2475 -0.4087  0.0383
  104OSM   H13A10460   3.370   5.494   7.494 -0.3409 -0.1750  0.5519
  104OSM   H13B10461   3.449   5.342   7.490  0.3577 -0.2993  0.9347
  104OSM   H13C10462   3.395   5.397   7.642  0.8589  2.6784 -0.1874
  104OSM    C1210463   3.233   5.291   7.360  0.2928 -0.0483  0.1649
  104OSM   H12A10464   3.141   5.238   7.340  0.5741 -0.1725 -0.8637
  104OSM   H12B10465   3.313   5.222   7.336 -0.6726 -1.3815  0.6274
  104OSM    C1110466   3.237   5.405   7.256  0.0754 -0.0008  0.2732
  104OSM   H11A10467   3.235   5.352   7.159  1.3865 -1.0822  0.8217
  104OSM   H11B10468   3.335   5.458   7.261 -0.3221  0.7567  0.2971
  104OSM      P10469   2.996   5.498   7.202  0.4755  0.3199 -0.0497
  104OSM    O1310470   2.942   5.360   7.202  0.0900  0.3256 -0.3165
  104OSM    O1410471   2.912   5.619   7.243  0.2433  0.2425  0.3797
  104OSM    O1110472   3.042   5.525   7.057  0.1091 -0.0225  0.4177
  104OSM    O1210473   3.132   5.504   7.281  0.9523 -0.2536  0.3597
  104OSM    C1S10474   3.141   5.633   7.025  0.8014  0.1902  0.5303
  104OSM    H1S10475   3.239   5.590   7.055 -0.1427 -0.5942  2.7649
  104OSM    H1T10476   3.118   5.723   7.086 -1.0967 -0.1137  0.3326
  104OSM     NF10477   3.254   5.690   6.814  0.8778  0.3254 -0.1922
  104OSM    HNF10478   3.257   5.778   6.768 -4.0912  0.2991 -1.0947
  104OSM    C2S10479   3.125   5.655   6.870  0.7640 -0.3373  0.1150
  104OSM    H2S10480   3.097   5.561   6.818  0.7269 -0.7373  0.8366
  104OSM    C3S10481   2.995   5.747   6.842  0.4309 -0.0569 -0.0228
  104OSM    H3S10482   3.015   5.850   6.879 -3.9209  0.9682 -0.0341
  104OSM     O310483   2.870   5.701   6.890 -0.9074 -0.5714  0.8048
  104OSM    HO310484   2.887   5.619   6.937 -0.6371  0.4545  2.5841
  104OSM    C4S10485   2.970   5.758   6.695  0.5362 -0.4480  0.4218
  104OSM    H4S10486   2.943   5.663   6.647  0.4484  0.7067 -2.0092
  104OSM    C5S10487   2.967   5.872   6.623 -0.5276  0.1185 -0.1870
  104OSM    H5S10488   2.995   5.967   6.671  1.3819 -0.3598 -0.2733
  104OSM    C6S10489   2.924   5.888   6.481 -0.6536  0.1149 -0.8529
  104OSM    H6S10490   3.001   5.941   6.421 -0.7797 -0.7039 -1.7658
  104OSM    H6T10491   2.825   5.935   6.469 -0.6500 -0.1797 -2.1410
  104OSM    C7S10492   2.896   5.759   6.399 -0.1928  0.1429 -0.4475
  104OSM    H7S10493   2.801   5.712   6.431 -0.5055  0.3670 -1.0332
  104OSM    H7T10494   2.966   5.675   6.418  1.0353  1.2026 -0.1915
  104OSM    C8S10495   2.904   5.787   6.252  0.1028  0.7236 -0.1417
  104OSM    H8S10496   2.897   5.895   6.229  0.4319  0.9700  0.8930
  104OSM    H8T10497   2.814   5.742   6.204  0.7561 -1.3358  0.4387
  104OSM    C9S10498   3.034   5.732   6.192 -0.1463 -0.1692 -0.2196
  104OSM    H9S10499   3.036   5.621   6.205 -0.9436 -0.0714  0.8120
  104OSM    H9T10500   3.125   5.773   6.242  0.8413 -0.4510 -1.7320
  104OSM   C10S10501   3.054   5.756   6.044 -0.0603  0.4642 -0.1748
  104OSM   H10S10502   3.033   5.861   6.014 -0.7502  0.4254  0.1797
  104OSM   H10T10503   2.980   5.694   5.988  0.5781  0.0258 -0.5536
  104OSM   C11S10504   3.199   5.719   6.001 -0.3228  0.5454 -0.3280
  104OSM   H11S10505   3.203   5.608   6.011  0.7159  0.5403 -0.7102
  104OSM   H11T10506   3.277   5.771   6.060 -1.9768  0.3752  2.1170
  104OSM   C12S10507   3.233   5.751   5.849 -0.6654  0.3791 -0.7664
  104OSM   H12S10508   3.231   5.861   5.836  0.7124  0.2470 -2.3979
  104OSM   H12T10509   3.154   5.707   5.785 -0.2125 -0.1313 -0.9799
  104OSM   C13S10510   3.373   5.699   5.827  0.0168  0.4760 -1.1844
  104OSM   H13S10511   3.376   5.597   5.872 -1.3258  0.4421 -1.1173
  104OSM   H13T10512   3.435   5.763   5.892 -1.2624  1.2530 -0.7050
  104OSM   C14S10513   3.421   5.705   5.679 -0.2333 -0.7612  0.0350
  104OSM   H14S10514   3.530   5.697   5.661 -0.0873  2.3134 -1.0560
  104OSM   H14T10515   3.389   5.801   5.633 -0.3504 -0.8243 -0.0177
  104OSM   C15S10516   3.354   5.591   5.600 -0.8252 -0.8192 -0.1490
  104OSM   H15S10517   3.244   5.594   5.611 -0.8411  0.5152 -0.4748
  104OSM   H15T10518   3.381   5.494   5.647 -2.8898 -0.9271  0.9195
  104OSM   C16S10519   3.392   5.585   5.453 -0.1173  0.0005 -0.0648
  104OSM   H16S10520   3.503   5.597   5.449 -0.0821  0.2921  1.2599
  104OSM   H16T10521   3.349   5.675   5.405  0.5662  0.1099 -0.4782
  104OSM   C17S10522   3.360   5.458   5.380 -0.2425  0.4311 -0.1388
  104OSM   H17S10523   3.264   5.416   5.418  0.4686  0.5912  1.9935
  104OSM   H17T10524   3.434   5.377   5.395 -0.4259 -0.1554 -2.1953
  104OSM   C18S10525   3.354   5.476   5.232 -0.7831  0.5537  0.1502
  104OSM   H18S10526   3.350   5.375   5.185  0.0054  0.5830 -0.0004
  104OSM   H18T10527   3.445   5.529   5.197  0.2321 -0.5036  1.0928
  104OSM   H18U10528   3.263   5.530   5.198 -1.7794 -1.0309  0.1688
  104OSM    C1F10529   3.354   5.607   6.809 -0.7720  0.3046  0.0299
  104OSM     OF10530   3.349   5.488   6.837  0.1149 -0.4032 -0.2528
  104OSM    C2F10531   3.482   5.665   6.759 -0.6549  0.3789  0.0587
  104OSM    H2F10532   3.569   5.641   6.824  0.6640 -0.4291 -1.8889
  104OSM    H2G10533   3.481   5.776   6.762 -1.9090  0.3911 -0.0923
  104OSM    C3F10534   3.495   5.623   6.608 -0.6577  0.3276 -0.4278
  104OSM    H3F10535   3.474   5.515   6.594 -1.5039  0.5283 -0.7718
  104OSM    H3G10536   3.604   5.635   6.587 -0.6558  0.5465 -0.2955
  104OSM    C4F10537   3.414   5.703   6.511  0.0147 -0.2046 -0.2901
  104OSM    H4F10538   3.428   5.808   6.543 -0.2309 -0.8251  2.0746
  104OSM    H4G10539   3.308   5.671   6.519 -0.0313  0.1875  0.8568
  104OSM    C5F10540   3.461   5.683   6.367  0.2909  0.0037  0.2067
  104OSM    H5F10541   3.564   5.720   6.353  0.8602 -1.7400 -0.5260
  104OSM    H5G10542   3.393   5.739   6.299 -0.0523  2.8650  2.6723
  104OSM    C6F10543   3.476   5.539   6.316  0.0694 -0.2721 -0.0162
  104OSM    H6F10544   3.393   5.473   6.349  0.3269  0.3346  1.9833
  104OSM    H6G10545   3.568   5.504   6.366  2.6351  2.9467 -2.0416
  104OSM    C7F10546   3.492   5.538   6.165  0.0054  0.3095 -0.3576
  104OSM    H7F10547   3.569   5.614   6.138  0.1852 -0.1504 -1.1867
  104OSM    H7G10548   3.405   5.579   6.110  0.8300  0.3652 -1.6692
  104OSM    C8F10549   3.539   5.406   6.106  0.5120  0.3818 -0.2063
  104OSM    H8F10550   3.634   5.374   6.153  0.0496 -0.5770  0.0998
  104OSM    H8G10551   3.565   5.425   6.000  3.4806 -1.2387  0.1234
  104OSM    C9F10552   3.423   5.309   6.129 -0.2161 -0.0882  0.0720
  104OSM    H9F10553   3.417   5.271   6.232 -0.3365  0.1551  0.1558
  104OSM   C10F10554   3.328   5.275   6.039  0.2603  0.3800  0.5056
  104OSM   H10F10555   3.256   5.198   6.070 -1.0739  1.6104  0.5777
  104OSM   C11F10556   3.319   5.318   5.892  0.1896 -0.1303 -0.5384
  104OSM   H11F10557   3.415   5.358   5.853  0.1836  0.6568  0.2315
  104OSM   H11G10558   3.235   5.389   5.887  0.8736  0.8649  1.2372
  104OSM   C12F10559   3.271   5.200   5.799  0.0071 -0.2203  0.9877
  104OSM   H12F10560   3.175   5.163   5.840  0.4540 -1.8524  0.6440
  104OSM   H12G10561   3.351   5.123   5.801  0.0852 -0.3785 -2.4441
  104OSM   C13F10562   3.254   5.233   5.649  0.3623  0.5728  0.0699
  104OSM   H13F10563   3.340   5.289   5.607  1.2944 -1.3951 -0.7795
  104OSM   H13G10564   3.162   5.296   5.643 -0.3228 -0.4774 -0.8190
  104OSM   C14F10565   3.226   5.098   5.571  0.3526 -0.1256  0.2562
  104OSM   H14F10566   3.122   5.067   5.593 -0.3996  2.2107  0.1751
  104OSM   H14G10567   3.287   5.007   5.594 -1.1463 -1.1399  0.3386
  104OSM   C15F10568   3.221   5.126   5.416  0.0726  0.1899 -0.2013
  104OSM   H15F10569   3.323   5.160   5.390 -0.7494  2.3436 -0.8266
  104OSM   H15G10570   3.147   5.204   5.388 -0.6456 -0.2270  0.4972
  104OSM   C16F10571   3.203   4.996   5.324  0.1447 -0.1717 -0.1400
  104OSM   H16F10572   3.096   4.967   5.328  0.5277 -1.5609  0.8144
  104OSM   H16G10573   3.263   4.908   5.357 -0.5689 -1.3140 -1.7588
  104OSM   C17F10574   3.253   5.009   5.176  0.0217 -0.2610 -0.3870
  104OSM   H17F10575   3.317   4.918   5.170  0.3427 -0.2938  2.3548
  104OSM   H17G10576   3.323   5.091   5.153  0.9115 -0.4511  1.4415
  104OSM   C18F10577   3.136   5.004   5.080  0.2004 -1.2505  0.1015
  104OSM   H18F10578   3.054   4.942   5.123  0.1228 -1.0185  0.2866
  104OSM   H18G10579   3.166   4.981   4.976 -0.3344 -0.6611 -0.1891
  104OSM   H18H10580   3.091   5.105   5.079 -0.9897 -1.7619 -0.2961
  105OSM      N10581   3.987   4.391   7.593 -0.1211  0.6879  0.1644
  105OSM    C1510582   4.122   4.428   7.646  0.3639  0.3489  0.0894
  105OSM   H15A10583   4.198   4.421   7.570 -1.1397  1.1950 -1.5513
  105OSM   H15B10584   4.146   4.356   7.723 -1.3207  1.2945  1.5774
  105OSM   H15C10585   4.126   4.530   7.681 -0.4725  1.7378 -3.4396
  105OSM    C1410586   3.994   4.246   7.563 -0.9725 -0.0417  0.0321
  105OSM   H14A10587   4.003   4.186   7.652 -1.8817 -1.3869 -0.7455
  105OSM   H14B10588   4.079   4.228   7.499  0.1728  0.1186  1.4488
  105OSM   H14C10589   3.908   4.207   7.510  1.2901 -2.1230 -2.3608
  105OSM    C1310590   3.873   4.424   7.681 -0.4850 -0.0541 -0.2472
  105OSM   H13A10591   3.846   4.527   7.665 -0.2803 -0.1930 -1.6710
  105OSM   H13B10592   3.908   4.418   7.783 -1.1370  1.7606  0.1182
  105OSM   H13C10593   3.792   4.356   7.661 -0.3056 -0.3648  0.0766
  105OSM    C1210594   3.970   4.462   7.464 -0.7308 -0.1149  0.1406
  105OSM   H12A10595   3.922   4.557   7.485  0.8035  0.7057  0.1061
  105OSM   H12B10596   3.904   4.411   7.396 -2.5347  0.8456  1.1045
  105OSM    C1110597   4.095   4.471   7.376  0.3705 -0.0967 -0.1011
  105OSM   H11A10598   4.172   4.545   7.405  0.1462  0.6261 -1.2807
  105OSM   H11B10599   4.065   4.515   7.278 -0.5503  1.3872  0.8032
  105OSM      P10600   4.295   4.318   7.295  0.2242  0.0673  0.5663
  105OSM    O1310601   4.386   4.288   7.408  0.1938 -0.0608 -0.4609
  105OSM    O1410602   4.295   4.211   7.188  0.0085  0.5245 -0.2713
  105OSM    O1110603   4.329   4.461   7.237  0.5020  0.6082  0.0482
  105OSM    O1210604   4.146   4.341   7.348  0.6572  0.1029 -0.2154
  105OSM    C1S10605   4.428   4.481   7.142  0.1196  0.1851 -1.0309
  105OSM    H1S10606   4.493   4.392   7.128 -1.7976 -1.5214  0.2806
  105OSM    H1T10607   4.482   4.570   7.180  0.1165 -0.6270  1.0599
  105OSM     NF10608   4.498   4.512   6.912 -0.7678 -0.1774  0.0431
  105OSM    HNF10609   4.517   4.591   6.854 -1.5561 -0.8243 -1.1544
  105OSM    C2S10610   4.384   4.515   6.999 -0.6728 -0.3225 -0.1363
  105OSM    H2S10611   4.312   4.438   6.964 -1.4967  0.1039  0.5674
  105OSM    C3S10612   4.298   4.650   7.007 -0.6203  0.0528 -0.5245
  105OSM    H3S10613   4.368   4.734   7.025  0.6016  0.0305 -4.3230
  105OSM     O310614   4.203   4.653   7.112  0.7130  0.7174 -0.0072
  105OSM    HO310615   4.231   4.575   7.161  2.4489  1.1224 -0.2705
  105OSM    C4S10616   4.244   4.677   6.868  0.0821 -0.4482  0.0992
  105OSM    H4S10617   4.190   4.587   6.835  1.4124 -0.9549 -0.7949
  105OSM    C5S10618   4.248   4.796   6.809  1.8833 -0.4815 -0.5122
  105OSM    H5S10619   4.294   4.882   6.860  0.7291  1.2253 -2.1731
  105OSM    C6S10620   4.181   4.821   6.673 -0.2552  0.8123 -0.0414
  105OSM    H6S10621   4.253   4.877   6.609  2.5682 -1.4486  0.9278
  105OSM    H6T10622   4.092   4.887   6.675  1.1247  2.7347  0.6061
  105OSM    C7S10623   4.127   4.695   6.602 -0.2869 -0.4561  0.0772
  105OSM    H7S10624   4.055   4.640   6.667 -0.0692  0.0399  0.7565
  105OSM    H7T10625   4.215   4.630   6.579  0.4018  0.2959  0.5305
  105OSM    C8S10626   4.056   4.719   6.467  0.7202 -0.4295 -0.8284
  105OSM    H8S10627   4.110   4.786   6.398  1.8749 -1.1716 -0.6792
  105OSM    H8T10628   3.957   4.765   6.488  0.1662 -2.6382  2.1867
  105OSM    C9S10629   4.020   4.593   6.385 -0.0195  0.0132 -0.0577
  105OSM    H9S10630   3.921   4.554   6.417 -0.3083  0.5927 -0.2324
  105OSM    H9T10631   4.105   4.526   6.408  1.3670  0.9944 -1.9933
  105OSM   C10S10632   4.024   4.631   6.233 -0.0222  0.1893 -0.3685
  105OSM   H10S10633   4.125   4.676   6.218 -0.1010  0.6121  0.2911
  105OSM   H10T10634   3.961   4.722   6.220  0.4544  0.5560 -0.1423
  105OSM   C11S10635   3.969   4.517   6.146 -0.6785  0.2102 -0.0845
  105OSM   H11S10636   3.980   4.425   6.207 -0.9468 -0.5648 -1.1911
  105OSM   H11T10637   4.022   4.521   6.048 -0.8142  1.0261 -0.1304
  105OSM   C12S10638   3.824   4.534   6.109 -0.4948 -0.1683 -0.6508
  105OSM   H12S10639   3.808   4.624   6.045 -1.2097  0.7118  0.6979
  105OSM   H12T10640   3.770   4.549   6.205  2.0616  2.3671  0.5756
  105OSM   C13S10641   3.781   4.411   6.031 -0.3958 -0.5394  0.5651
  105OSM   H13S10642   3.796   4.319   6.092 -0.3619 -0.7822  0.1935
  105OSM   H13T10643   3.852   4.408   5.945 -0.1183  0.4999  0.7539
  105OSM   C14S10644   3.634   4.413   6.008  0.2186  0.4072 -0.2341
  105OSM   H14S10645   3.598   4.497   5.945 -1.7259 -0.3378 -0.1998
  105OSM   H14T10646   3.583   4.420   6.106  0.5378  0.4705 -0.0736
  105OSM   C15S10647   3.598   4.285   5.926 -0.0936  0.2728 -0.0444
  105OSM   H15S10648   3.641   4.209   5.995  0.7130 -0.3124 -1.1627
  105OSM   H15T10649   3.652   4.269   5.830 -1.6800 -2.2502 -0.6108
  105OSM   C16S10650   3.450   4.242   5.917  0.4194  0.0988 -0.2100
  105OSM   H16S10651   3.399   4.319   5.855  0.2500 -0.8555 -1.2849
  105OSM   H16T10652   3.397   4.242   6.015 -0.0203 -2.0246 -0.4032
  105OSM   C17S10653   3.437   4.101   5.854  0.6876 -0.5314 -0.2162
  105OSM   H17S10654   3.476   4.022   5.922  0.0804 -2.8073 -2.3551
  105OSM   H17T10655   3.512   4.096   5.772  1.1852 -0.9229  0.2508
  105OSM   C18S10656   3.296   4.060   5.824  0.0372  0.2286  0.1124
  105OSM   H18S10657   3.297   3.949   5.812  3.4105  0.1356  0.4337
  105OSM   H18T10658   3.265   4.113   5.732 -1.5781 -2.4397 -1.0268
  105OSM   H18U10659   3.234   4.101   5.907 -0.1077  3.2454 -1.3775
  105OSM    C1F10660   4.578   4.405   6.890 -0.1765 -0.7353  0.0387
  105OSM     OF10661   4.538   4.296   6.925 -0.4014  0.4754 -0.3670
  105OSM    C2F10662   4.711   4.439   6.822  1.0435 -0.1305 -0.9294
  105OSM    H2F10663   4.787   4.430   6.902  0.2467  1.5302  0.0793
  105OSM    H2G10664   4.714   4.542   6.779  0.0564  0.0980 -0.4864
  105OSM    C3F10665   4.743   4.348   6.704 -0.1651 -0.9685 -0.2027
  105OSM    H3F10666   4.761   4.243   6.736  1.0899 -1.2243 -1.6040
  105OSM    H3G10667   4.843   4.381   6.668 -0.7066  0.8436 -0.1387
  105OSM    C4F10668   4.645   4.360   6.588 -0.7834 -0.3876  0.0442
  105OSM    H4F10669   4.622   4.463   6.553 -0.8062 -0.3341  0.2136
  105OSM    H4G10670   4.553   4.323   6.639  1.7287 -4.0292  2.4845
  105OSM    C5F10671   4.681   4.266   6.476  0.0615 -0.7839  0.1099
  105OSM    H5F10672   4.685   4.160   6.510  0.9150 -1.1060 -0.9599
  105OSM    H5G10673   4.778   4.293   6.429 -0.0455  1.0074  0.8166
  105OSM    C6F10674   4.581   4.259   6.356  0.4112  0.7227 -0.0053
  105OSM    H6F10675   4.573   4.351   6.295 -1.3849 -0.8787 -2.3453
  105OSM    H6G10676   4.476   4.228   6.375  0.0503  1.3869 -0.8852
  105OSM    C7F10677   4.631   4.151   6.260  0.5805 -0.0509  0.0736
  105OSM    H7F10678   4.553   4.139   6.181  1.0094 -2.0490 -0.0980
  105OSM    H7G10679   4.645   4.047   6.298  0.7271  0.2217  0.7700
  105OSM    C8F10680   4.754   4.193   6.174 -0.2211 -1.1406 -0.3460
  105OSM    H8F10681   4.837   4.215   6.245 -1.3927 -0.2811  0.8039
  105OSM    H8G10682   4.739   4.291   6.123 -0.2478 -1.7649 -1.5667
  105OSM    C9F10683   4.791   4.091   6.067  0.3206  0.2850 -0.4731
  105OSM    H9F10684   4.866   4.016   6.095  0.2742 -0.8919 -3.2614
  105OSM   C10F10685   4.751   4.089   5.942 -0.0389 -1.0562  0.6185
  105OSM   H10F10686   4.793   4.013   5.875  2.4041  2.0896 -1.7391
  105OSM   C11F10687   4.656   4.190   5.878  0.3064  0.3515  0.3038
  105OSM   H11F10688   4.663   4.285   5.936  2.8839  0.5174 -0.1567
  105OSM   H11G10689   4.556   4.144   5.885  0.9755 -2.1002 -3.3187
  105OSM   C12F10690   4.698   4.216   5.731 -0.0799 -0.2012  0.2645
  105OSM   H12F10691   4.626   4.294   5.700  0.8488  0.6701  0.2169
  105OSM   H12G10692   4.670   4.132   5.664  2.7092 -2.1223  1.2795
  105OSM   C13F10693   4.845   4.266   5.704 -0.6099 -0.1489  0.3205
  105OSM   H13F10694   4.911   4.177   5.719 -0.7346 -0.4869 -1.0406
  105OSM   H13G10695   4.887   4.337   5.779  1.2664  0.3570 -1.1450
  105OSM   C14F10696   4.862   4.325   5.564 -0.3478 -0.1092  1.0803
  105OSM   H14F10697   4.792   4.411   5.552 -1.1787 -0.8532  0.5209
  105OSM   H14G10698   4.850   4.252   5.482  3.5235  1.2817 -0.9733
  105OSM   C15F10699   5.002   4.378   5.544 -0.0512  0.3289  0.0347
  105OSM   H15F10700   5.076   4.301   5.573 -0.0173 -0.0519 -1.0281
  105OSM   H15G10701   5.017   4.459   5.619  2.3753  0.4754 -0.5204
  105OSM   C16F10702   5.027   4.427   5.400 -0.2232  0.0823 -0.5632
  105OSM   H16F10703   5.029   4.340   5.331  0.5544 -0.6769  0.3973
  105OSM   H16G10704   5.131   4.466   5.398  1.1133 -3.2342 -0.5947
  105OSM   C17F10705   4.926   4.530   5.343 -1.1069 -0.2904  0.0140
  105OSM   H17F10706   4.952   4.614   5.411  0.0273  1.0499 -1.9659
  105OSM   H17G10707   4.817   4.513   5.357 -0.9592 -0.8394  0.5457
  105OSM   C18F10708   4.955   4.577   5.199 -0.3958 -0.1878 -0.7234
  105OSM   H18F10709   4.918   4.682   5.191 -2.1688 -0.4666  2.2059
  105OSM   H18G10710   4.914   4.511   5.120 -0.3807 -1.3784  0.2432
  105OSM   H18H10711   5.065   4.584   5.186 -0.6011  0.9235 -2.0498
  106OSM      N10712   2.111   3.289   7.395  0.2674  0.4945  0.3086
  106OSM    C1510713   2.210   3.217   7.486  0.0363  0.2974  0.2975
  106OSM   H15A10714   2.305   3.268   7.494  0.3476 -0.3376  0.7008
  106OSM   H15B10715   2.226   3.116   7.451  1.2349  0.9815 -1.2589
  106OSM   H15C10716   2.176   3.200   7.587  1.6799  0.3079  0.8851
  106OSM    C1410717   2.128   3.236   7.256 -1.3636 -0.4259  0.0448
  106OSM   H14A10718   2.094   3.134   7.247  2.2685 -1.8675  0.9320
  106OSM   H14B10719   2.229   3.238   7.218 -1.2901  0.1564  0.2584
  106OSM   H14C10720   2.054   3.286   7.195 -0.6922  1.7265  0.8999
  106OSM    C1310721   1.977   3.233   7.438  0.4427  0.0974 -0.0930
  106OSM   H13A10722   1.902   3.267   7.368  1.3102  0.1880 -1.0100
  106OSM   H13B10723   1.954   3.252   7.541  2.3825 -0.4034  0.4830
  106OSM   H13C10724   1.978   3.125   7.442  0.3670  0.0491 -1.1180
  106OSM    C1210725   2.123   3.440   7.399 -0.1916  0.4039  0.0914
  106OSM   H12A10726   2.229   3.460   7.398 -0.0728 -0.1477  0.8804
  106OSM   H12B10727   2.081   3.477   7.491 -1.1575  1.2862 -0.6863
  106OSM    C1110728   2.050   3.512   7.279 -0.2583 -0.1044 -0.2262
  106OSM   H11A10729   2.083   3.466   7.184 -1.7618  0.4430 -1.0382
  106OSM   H11B10730   2.072   3.621   7.272  0.3383 -0.2018  0.0391
  106OSM      P10731   1.820   3.582   7.379 -0.2610 -0.0008  0.2085
  106OSM    O1310732   1.681   3.535   7.386  0.0999  0.2427 -0.4225
  106OSM    O1410733   1.887   3.609   7.508 -0.3840  0.2063 -0.1503
  106OSM    O1110734   1.826   3.717   7.300 -0.1524  0.3179 -0.0381
  106OSM    O1210735   1.907   3.492   7.287 -0.1467 -0.2123  0.6810
  106OSM    C1S10736   1.823   3.741   7.159  0.6311 -0.0331 -0.0173
  106OSM    H1S10737   1.868   3.657   7.102 -0.2669 -0.1387 -0.5971
  106OSM    H1T10738   1.874   3.835   7.129  1.8327 -0.9044 -0.7757
  106OSM     NF10739   1.666   3.686   6.965 -0.1929 -1.0179 -0.1589
  106OSM    HNF10740   1.664   3.750   6.888  1.3072 -0.5236  0.1712
  106OSM    C2S10741   1.678   3.737   7.108  0.9989 -0.2354  0.6106
  106OSM    H2S10742   1.619   3.666   7.169 -0.0807  0.7625  0.7671
  106OSM    C3S10743   1.617   3.878   7.121  0.0389 -0.0368 -0.0953
  106OSM    H3S10744   1.677   3.952   7.064  0.0294  0.6633  0.7721
  106OSM     O310745   1.615   3.926   7.258 -0.1450  0.4725 -0.3122
  106OSM    HO310746   1.679   3.874   7.307 -1.2654  0.9524  1.7880
  106OSM    C4S10747   1.466   3.871   7.076 -0.6050  0.5643  0.3420
  106OSM    H4S10748   1.414   3.785   7.120 -0.1426 -0.3213 -0.7860
  106OSM    C5S10749   1.408   3.934   6.979  0.1618 -0.0492  0.5443
  106OSM    H5S10750   1.467   4.017   6.938 -3.3377  2.2093 -0.2969
  106OSM    C6S10751   1.270   3.907   6.926 -0.3684  0.1364  0.0848
  106OSM    H6S10752   1.214   4.001   6.947  0.7578  0.4140  2.2072
  106OSM    H6T10753   1.219   3.834   6.992 -0.3469 -1.5055 -1.6385
  106OSM    C7S10754   1.266   3.867   6.777  0.5768  0.0968 -0.3358
  106OSM    H7S10755   1.163   3.828   6.758  0.4540  0.3466 -0.1904
  106OSM    H7T10756   1.331   3.778   6.763 -0.2945 -0.7813  1.0187
  106OSM    C8S10757   1.300   3.981   6.682 -0.0811 -0.1967 -0.2342
  106OSM    H8S10758   1.403   4.012   6.710  0.9313 -1.4645 -2.2429
  106OSM    H8T10759   1.233   4.066   6.704 -2.1828 -1.8067 -0.1121
  106OSM    C9S10760   1.289   3.940   6.536  0.1215 -0.4233 -0.0399
  106OSM    H9S10761   1.183   3.928   6.506  0.1035  0.0049 -0.1442
  106OSM    H9T10762   1.358   3.855   6.516  0.4955  0.3719 -2.4153
  106OSM   C10S10763   1.328   4.048   6.431 -0.3519  0.1892 -0.3156
  106OSM   H10S10764   1.435   4.061   6.458 -0.3841 -1.0456  0.5004
  106OSM   H10T10765   1.275   4.143   6.453  1.8086  1.4492 -0.2946
  106OSM   C11S10766   1.312   4.004   6.283  0.5202 -0.0274  0.1149
  106OSM   H11S10767   1.204   3.982   6.266  0.7921 -1.5943  0.2546
  106OSM   H11T10768   1.360   3.905   6.263 -0.7890 -1.0952  1.9761
  106OSM   C12S10769   1.347   4.101   6.172 -0.2100  0.2856  0.1295
  106OSM   H12S10770   1.429   4.167   6.209 -0.0458 -1.2610  2.8063
  106OSM   H12T10771   1.264   4.170   6.144  0.5051  1.0871 -0.0796
  106OSM   C13S10772   1.392   4.036   6.037 -0.2579  0.4094  0.5805
  106OSM   H13S10773   1.321   3.954   6.017 -0.6822  1.0586 -0.6689
  106OSM   H13T10774   1.489   3.989   6.063 -1.1879 -3.1891 -1.7847
  106OSM   C14S10775   1.406   4.126   5.915  0.5611 -0.2952  0.6650
  106OSM   H14S10776   1.462   4.220   5.935 -1.2132  1.2120 -1.1581
  106OSM   H14T10777   1.304   4.148   5.878  1.6134  1.5678 -1.3185
  106OSM   C15S10778   1.468   4.046   5.805 -0.4365 -0.0847  0.7814
  106OSM   H15S10779   1.424   3.945   5.799 -1.7234  0.5480 -3.4695
  106OSM   H15T10780   1.574   4.037   5.840 -0.2026  0.1601  0.1504
  106OSM   C16S10781   1.465   4.105   5.667  0.0121  0.1156  0.0848
  106OSM   H16S10782   1.358   4.117   5.640 -0.2064 -2.2367 -0.3289
  106OSM   H16T10783   1.508   4.017   5.615  1.5988  0.4487  0.7545
  106OSM   C17S10784   1.548   4.237   5.656 -0.2022  0.2341  0.4533
  106OSM   H17S10785   1.649   4.206   5.689 -1.0790 -0.4312  2.6537
  106OSM   H17T10786   1.504   4.316   5.720 -0.0790  0.3757  0.3664
  106OSM   C18S10787   1.550   4.288   5.508 -0.7780  0.8735  0.0649
  106OSM   H18S10788   1.632   4.364   5.508 -0.8881  1.0049  0.8263
  106OSM   H18T10789   1.459   4.342   5.476  0.0520  1.1946 -1.8622
  106OSM   H18U10790   1.581   4.202   5.445 -1.8798  1.0718 -0.7633
  106OSM    C1F10791   1.674   3.554   6.942 -0.4343  0.3760 -1.1046
  106OSM     OF10792   1.698   3.481   7.036 -0.0952 -0.4001  0.0796
  106OSM    C2F10793   1.675   3.503   6.802 -0.6973  0.0655  0.3411
  106OSM    H2F10794   1.642   3.397   6.804 -0.2049 -0.1220 -0.5807
  106OSM    H2G10795   1.778   3.487   6.763 -0.0809  0.7527  1.5985
  106OSM    C3F10796   1.610   3.583   6.690 -0.1511 -0.2869  0.2776
  106OSM    H3F10797   1.675   3.670   6.666 -1.5366  0.5080 -0.7691
  106OSM    H3G10798   1.514   3.636   6.708  0.7213  1.1187  1.0134
  106OSM    C4F10799   1.609   3.504   6.561  0.0304  0.9252  0.6212
  106OSM    H4F10800   1.522   3.435   6.551  1.9078 -1.3316 -1.4488
  106OSM    H4G10801   1.711   3.462   6.559  0.6539  2.3411  1.4687
  106OSM    C5F10802   1.597   3.586   6.425  0.3150 -0.1868 -0.9568
  106OSM    H5F10803   1.680   3.659   6.425 -0.3515  0.5876 -0.3365
  106OSM    H5G10804   1.508   3.653   6.423  0.4264 -0.0293 -0.6292
  106OSM    C6F10805   1.625   3.506   6.296  0.0955  0.1704  0.1823
  106OSM    H6F10806   1.568   3.412   6.309  0.2659 -0.1594 -1.2870
  106OSM    H6G10807   1.730   3.472   6.297 -0.4961 -1.7535  1.4553
  106OSM    C7F10808   1.585   3.588   6.165 -0.8541 -0.2253 -0.4102
  106OSM    H7F10809   1.488   3.634   6.192 -1.2068 -0.8832 -0.5276
  106OSM    H7G10810   1.571   3.508   6.089  0.4941 -1.7420  0.8523
  106OSM    C8F10811   1.676   3.695   6.114 -0.2150 -1.3326 -0.3354
  106OSM    H8F10812   1.686   3.778   6.187  1.0142 -0.4443 -1.4339
  106OSM    H8G10813   1.628   3.750   6.030 -1.8226  1.6085  2.3028
  106OSM    C9F10814   1.797   3.628   6.061 -0.0200 -0.3507  0.0413
  106OSM    H9F10815   1.882   3.605   6.127 -0.7780 -2.2207  0.4318
  106OSM   C10F10816   1.805   3.572   5.940  0.6162 -0.0682 -0.1729
  106OSM   H10F10817   1.896   3.517   5.914  0.4877  0.5005 -1.9623
  106OSM   C11F10818   1.698   3.581   5.831 -0.5745  0.1967  0.0234
  106OSM   H11F10819   1.599   3.620   5.865 -1.6527 -2.8378  0.7637
  106OSM   H11G10820   1.683   3.475   5.800  2.1342 -0.3446  0.3158
  106OSM   C12F10821   1.753   3.665   5.713  0.1342 -0.0945 -0.4195
  106OSM   H12F10822   1.851   3.628   5.675  0.5358 -0.2687  0.7385
  106OSM   H12G10823   1.778   3.762   5.762  1.3406 -0.0522 -1.0808
  106OSM   C13F10824   1.641   3.696   5.613  0.5677 -0.0230 -0.4818
  106OSM   H13F10825   1.557   3.755   5.655 -0.1221 -1.2334 -0.0955
  106OSM   H13G10826   1.607   3.598   5.571  3.1943 -1.4628  0.5222
  106OSM   C14F10827   1.699   3.783   5.495  0.1673 -0.8503 -0.2434
  106OSM   H14F10828   1.735   3.871   5.552 -0.0015 -1.8570  1.5041
  106OSM   H14G10829   1.612   3.820   5.436  2.0286  0.7451 -2.1725
  106OSM   C15F10830   1.801   3.720   5.410 -0.3847 -0.0739  0.0257
  106OSM   H15F10831   1.887   3.684   5.470 -0.6135  0.1735  0.5103
  106OSM   H15G10832   1.855   3.789   5.343  0.0044  0.2883  0.7013
  106OSM   C16F10833   1.746   3.609   5.314 -0.0575  0.4269 -0.5120
  106OSM   H16F10834   1.653   3.645   5.264 -1.5651 -0.0404  1.8201
  106OSM   H16G10835   1.711   3.515   5.363 -0.7972  0.2000 -1.4355
  106OSM   C17F10836   1.860   3.569   5.218 -0.0080 -0.7589 -0.4759
  106OSM   H17F10837   1.861   3.459   5.205 -0.3558 -0.7530 -0.5545
  106OSM   H17G10838   1.959   3.600   5.257  0.2671 -2.8672  0.6737
  106OSM   C18F10839   1.842   3.628   5.080  0.2018  0.1294  0.2367
  106OSM   H18F10840   1.849   3.738   5.091  0.1720 -0.1172  4.4461
  106OSM   H18G10841   1.748   3.594   5.032 -0.7958  1.6167  1.0342
  106OSM   H18H10842   1.925   3.591   5.015  0.3812 -2.1116  1.6524
  107OSM      N10843   4.147   0.814   7.280  0.1911  0.1095  0.0301
  107OSM    C1510844   4.270   0.902   7.261  0.1974  0.3191 -0.4312
  107OSM   H15A10845   4.248   0.997   7.215 -0.5672 -1.2398 -3.6213
  107OSM   H15B10846   4.341   0.864   7.189  0.0688 -1.3209  0.2542
  107OSM   H15C10847   4.327   0.920   7.351 -0.3110  0.0489 -0.0503
  107OSM    C1410848   4.177   0.668   7.279 -0.3570 -0.2249 -0.2323
  107OSM   H14A10849   4.090   0.609   7.304 -1.7787  1.4121 -1.1032
  107OSM   H14B10850   4.256   0.657   7.352 -0.6555 -0.8857 -0.0011
  107OSM   H14C10851   4.215   0.647   7.180 -1.8940  3.2519 -1.7453
  107OSM    C1310852   4.085   0.848   7.414  0.0328 -0.4315  0.8943
  107OSM   H13A10853   4.026   0.765   7.451  1.0102 -0.8136  1.6717
  107OSM   H13B10854   4.036   0.943   7.403 -0.1564 -0.5217  0.9682
  107OSM   H13C10855   4.169   0.865   7.481  1.7035 -0.1815 -1.1419
  107OSM    C1210856   4.045   0.849   7.165 -0.5778  0.5796 -0.2598
  107OSM   H12A10857   4.098   0.847   7.071 -1.0325  1.8692 -0.5656
  107OSM   H12B10858   4.031   0.956   7.173  1.4133  0.8605 -0.0301
  107OSM    C1110859   3.906   0.780   7.158  0.4433 -0.1783  0.0457
  107OSM   H11A10860   3.936   0.677   7.127  2.1170 -0.6795  2.9600
  107OSM   H11B10861   3.858   0.836   7.075 -0.4220  0.1782  0.7785
  107OSM      P10862   3.766   0.650   7.344 -0.4031  0.2709  0.0926
  107OSM    O1310863   3.881   0.579   7.408 -0.7394  0.3213  0.0459
  107OSM    O1410864   3.644   0.677   7.428 -0.5262  0.0346  0.3674
  107OSM    O1110865   3.725   0.559   7.224 -0.3836  0.7190 -0.0903
  107OSM    O1210866   3.816   0.783   7.273  0.3974  0.0095 -0.0829
  107OSM    C1S10867   3.591   0.556   7.164 -0.1112 -0.3730  0.1486
  107OSM    H1S10868   3.515   0.621   7.214 -1.5557 -1.0246 -1.1226
  107OSM    H1T10869   3.545   0.456   7.179 -0.2122  0.0849  4.1395
  107OSM     NF10870   3.475   0.643   6.952  0.4406  0.0656 -0.0804
  107OSM    HNF10871   3.437   0.583   6.882  1.8957  0.1206 -0.9471
  107OSM    C2S10872   3.594   0.599   7.017 -0.5071  0.7606  0.2909
  107OSM    H2S10873   3.656   0.691   7.020  1.5899 -0.4998 -1.5006
  107OSM    C3S10874   3.672   0.491   6.932  0.4103 -0.7916  0.0606
  107OSM    H3S10875   3.611   0.400   6.915 -0.8716 -0.0462  0.4949
  107OSM     O310876   3.789   0.448   6.987  0.0378 -0.0188  0.0554
  107OSM    HO310877   3.783   0.469   7.081 -1.1948 -0.6250  0.1345
  107OSM    C4S10878   3.699   0.551   6.792 -0.4723  0.1321  0.0575
  107OSM    H4S10879   3.614   0.534   6.724 -0.6193 -2.7878  0.8278
  107OSM    C5S10880   3.812   0.603   6.742 -0.2390 -1.3233  0.4771
  107OSM    H5S10881   3.897   0.615   6.810 -0.3927 -1.8916  0.7681
  107OSM    C6S10882   3.829   0.651   6.604 -0.0349  0.0718  0.9730
  107OSM    H6S10883   3.936   0.655   6.575 -0.4535  0.6432 -0.6453
  107OSM    H6T10884   3.787   0.754   6.597  1.7206  0.8099  0.7878
  107OSM    C7S10885   3.759   0.557   6.507 -0.1592  0.1042  0.0176
  107OSM    H7S10886   3.652   0.538   6.531  0.1313 -0.1918  1.1766
  107OSM    H7T10887   3.811   0.459   6.503  1.0101  0.6771  0.4834
  107OSM    C8S10888   3.766   0.621   6.369  0.1957  1.1366 -0.0399
  107OSM    H8S10889   3.871   0.649   6.347  0.4230 -0.7927 -1.7068
  107OSM    H8T10890   3.707   0.715   6.363  0.5840  1.3388 -0.7801
  107OSM    C9S10891   3.716   0.520   6.256 -0.9722 -0.5340  0.0763
  107OSM    H9S10892   3.609   0.497   6.280 -1.1788  0.5603  0.2301
  107OSM    H9T10893   3.780   0.429   6.256  1.3186  0.9799 -1.9641
  107OSM   C10S10894   3.713   0.576   6.115 -0.9738  0.1503 -1.0904
  107OSM   H10S10895   3.801   0.644   6.110 -1.5347  0.9574 -0.2998
  107OSM   H10T10896   3.628   0.644   6.093 -1.4940 -0.4886 -1.0900
  107OSM   C11S10897   3.726   0.470   6.010 -0.4815 -0.4764 -0.3377
  107OSM   H11S10898   3.642   0.402   6.036  0.4283 -1.2340  0.6945
  107OSM   H11T10899   3.823   0.420   6.025  1.1476  3.2298  3.1879
  107OSM   C12S10900   3.701   0.519   5.866 -0.1934  0.3732 -0.2109
  107OSM   H12S10901   3.791   0.583   5.850  1.0499 -1.3851 -0.4862
  107OSM   H12T10902   3.607   0.578   5.869 -0.1254  0.5792 -1.4188
  107OSM   C13S10903   3.694   0.407   5.770  0.2297 -0.6711  0.1738
  107OSM   H13S10904   3.623   0.334   5.814 -1.3422 -0.2627 -1.5687
  107OSM   H13T10905   3.784   0.347   5.747  0.9120  1.2881 -2.9901
  107OSM   C14S10906   3.651   0.457   5.630  0.0753  0.2773 -0.3611
  107OSM   H14S10907   3.568   0.530   5.644  1.1087  1.6338 -0.9796
  107OSM   H14T10908   3.610   0.374   5.570  0.2227 -0.0591 -0.0030
  107OSM   C15S10909   3.768   0.522   5.557  0.0119 -0.3298 -0.3026
  107OSM   H15S10910   3.863   0.465   5.572 -0.1721 -0.5176  0.1584
  107OSM   H15T10911   3.802   0.616   5.605 -0.8798 -0.0611 -0.1846
  107OSM   C16S10912   3.749   0.545   5.401  0.7413 -0.8126  0.1573
  107OSM   H16S10913   3.773   0.451   5.348  0.5055 -1.9005  1.9064
  107OSM   H16T10914   3.827   0.617   5.368 -0.0755  0.6252  1.2673
  107OSM   C17S10915   3.609   0.585   5.351  0.1166  0.2842 -0.9823
  107OSM   H17S10916   3.585   0.664   5.425  0.1938  0.5512 -1.2437
  107OSM   H17T10917   3.546   0.497   5.378 -1.5010  1.9589  1.0468
  107OSM   C18S10918   3.587   0.617   5.201 -0.6696  0.5794 -0.9879
  107OSM   H18S10919   3.622   0.539   5.130 -1.4719  0.5910 -1.4144
  107OSM   H18T10920   3.655   0.703   5.184  1.2367 -0.9889 -1.6353
  107OSM   H18U10921   3.485   0.656   5.180 -2.4448 -1.7010  2.4265
  107OSM    C1F10922   3.411   0.752   6.992  0.0675 -1.0911 -0.1463
  107OSM     OF10923   3.461   0.823   7.078 -0.1626 -0.0924 -0.0847
  107OSM    C2F10924   3.281   0.792   6.936 -0.2863 -0.5882  0.0555
  107OSM    H2F10925   3.222   0.846   7.013 -1.7288  0.8944 -2.0029
  107OSM    H2G10926   3.224   0.705   6.897 -0.5037 -0.2683 -0.3400
  107OSM    C3F10927   3.299   0.881   6.813 -0.1969 -0.6352  0.3767
  107OSM    H3F10928   3.348   0.979   6.830 -0.4954 -0.3594 -0.2872
  107OSM    H3G10929   3.202   0.901   6.763  0.4336 -1.5301 -1.2746
  107OSM    C4F10930   3.366   0.812   6.696  0.5295  0.0071  0.8515
  107OSM    H4F10931   3.334   0.706   6.688 -2.8224  1.0232 -1.1247
  107OSM    H4G10932   3.476   0.815   6.714  1.0703 -1.8854 -1.4626
  107OSM    C5F10933   3.346   0.878   6.555  0.5048  0.3752 -0.2028
  107OSM    H5F10934   3.429   0.846   6.488  2.2071  1.3764  1.3206
  107OSM    H5G10935   3.358   0.984   6.584  1.8431 -0.0664  0.9770
  107OSM    C6F10936   3.212   0.859   6.485  0.3959  0.1654  0.1220
  107OSM    H6F10937   3.200   0.925   6.397 -0.2062 -2.3964 -1.8223
  107OSM    H6G10938   3.128   0.892   6.550 -1.0434  1.2667 -2.1579
  107OSM    C7F10939   3.193   0.712   6.442 -0.2992 -0.6825 -0.0403
  107OSM    H7F10940   3.105   0.708   6.374 -0.5463  1.9023  0.0364
  107OSM    H7G10941   3.166   0.640   6.522 -0.7414  0.1511  0.5884
  107OSM    C8F10942   3.311   0.651   6.376 -0.1842  0.2078  0.8604
  107OSM    H8F10943   3.269   0.552   6.348 -1.0150  1.6675 -4.1737
  107OSM    H8G10944   3.395   0.640   6.447 -1.5340 -1.5322  2.2767
  107OSM    C9F10945   3.361   0.727   6.249 -0.1737 -0.2480 -0.0368
  107OSM    H9F10946   3.406   0.824   6.276  2.6659 -0.8147 -2.3034
  107OSM   C10F10947   3.352   0.685   6.120 -0.9536 -0.2683  0.7519
  107OSM   H10F10948   3.380   0.751   6.036 -1.0111 -0.2449  0.7513
  107OSM   C11F10949   3.287   0.557   6.072 -0.2212 -0.6309  0.3983
  107OSM   H11F10950   3.228   0.495   6.144 -0.6954 -1.6320 -0.8153
  107OSM   H11G10951   3.360   0.488   6.025 -1.2870 -0.7474 -1.1689
  107OSM   C12F10952   3.187   0.585   5.947 -0.1291  0.3225 -0.6734
  107OSM   H12F10953   3.115   0.665   5.975  1.0877  1.3880 -0.5170
  107OSM   H12G10954   3.129   0.493   5.925  0.3194 -0.1546  0.1312
  107OSM   C13F10955   3.262   0.613   5.814 -0.3205  0.9041 -0.5114
  107OSM   H13F10956   3.335   0.530   5.810 -1.0900  0.0595  1.5554
  107OSM   H13G10957   3.321   0.707   5.824  0.0624  0.4610  1.9611
  107OSM   C14F10958   3.180   0.598   5.683  0.3497 -0.1411 -0.0877
  107OSM   H14F10959   3.116   0.685   5.660 -0.8770 -1.4642 -1.9908
  107OSM   H14G10960   3.114   0.509   5.693 -0.1626 -0.1957 -3.0365
  107OSM   C15F10961   3.270   0.583   5.558  0.8100  0.2808 -0.4621
  107OSM   H15F10962   3.337   0.496   5.572 -1.2529 -1.2647  0.3604
  107OSM   H15G10963   3.332   0.674   5.543 -1.4276  1.8419 -0.7543
  107OSM   C16F10964   3.179   0.558   5.435 -0.6497  0.8451  0.2349
  107OSM   H16F10965   3.097   0.633   5.432 -1.8369 -0.4426 -0.4319
  107OSM   H16G10966   3.130   0.459   5.444 -0.5316  0.7413 -0.2635
  107OSM   C17F10967   3.261   0.577   5.313 -0.1183  0.9534  0.5813
  107OSM   H17F10968   3.326   0.490   5.294  0.0157  1.3660 -1.0150
  107OSM   H17G10969   3.325   0.667   5.327  0.7632  0.3860  0.1828
  107OSM   C18F10970   3.161   0.580   5.200  0.4447 -0.3025 -0.3462
  107OSM   H18F10971   3.135   0.479   5.162  0.1135  0.0616 -1.1038
  107OSM   H18G10972   3.215   0.628   5.116 -2.2192 -0.5064 -2.2795
  107OSM   H18H10973   3.075   0.645   5.227  0.4523 -1.1515  1.9098
  108OSM      N10974   5.857   2.315   7.255  0.2991  0.0062  0.7618
  108OSM    C1510975   5.828   2.433   7.170 -0.1554 -0.2989  0.2327
  108OSM   H15A10976   5.906   2.508   7.173 -0.7395  0.3013  1.3362
  108OSM   H15B10977   5.735   2.478   7.204 -0.2523  0.0157 -0.4466
  108OSM   H15C10978   5.823   2.397   7.069  0.2059  1.3720 -0.4067
  108OSM    C1410979   5.843   2.354   7.402 -0.0926 -0.9689 -1.2327
  108OSM   H14A10980   5.750   2.408   7.414 -0.0796 -0.8993 -1.4413
  108OSM   H14B10981   5.918   2.420   7.443 -1.7718  0.0954  0.3260
  108OSM   H14C10982   5.850   2.264   7.461  1.3764 -1.3856 -1.9872
  108OSM    C1310983   5.754   2.215   7.237  0.2798  0.4326 -0.0650
  108OSM   H13A10984   5.739   2.197   7.132  4.2580 -1.5524 -0.5000
  108OSM   H13B10985   5.660   2.237   7.285 -0.6769 -0.9921 -1.2132
  108OSM   H13C10986   5.787   2.123   7.285 -0.9366  1.2902  2.6207
  108OSM    C1210987   5.996   2.251   7.224  0.8272 -0.6368 -0.9503
  108OSM   H12A10988   6.076   2.321   7.242 -1.0013  1.4080 -0.3529
  108OSM   H12B10989   6.000   2.236   7.117  1.5003  0.3948 -1.0887
  108OSM    C1110990   6.035   2.134   7.319 -0.2375 -0.0295 -0.1247
  108OSM   H11A10991   6.031   2.170   7.424 -2.9112 -0.7673  0.1065
  108OSM   H11B10992   6.138   2.101   7.295 -0.4863 -0.9353 -0.0013
  108OSM      P10993   5.949   1.910   7.203 -0.0196 -0.3898  0.0686
  108OSM    O1310994   6.072   1.828   7.210  0.4374  0.6813  0.0915
  108OSM    O1410995   5.821   1.837   7.219  0.1149  0.2771  0.4599
  108OSM    O1110996   5.947   1.991   7.073  1.1672 -0.1763  0.2095
  108OSM    O1210997   5.950   2.019   7.314 -0.0738 -0.1341  0.3977
  108OSM    C1S10998   6.054   1.989   6.980 -0.1715  0.6866 -0.3153
  108OSM    H1S10999   6.090   1.885   6.966  0.2482  0.9639 -1.3314
  108OSM    H1T11000   6.142   2.052   7.008  1.8532 -2.3123  0.5463
  108OSM     NF11001   6.130   1.982   6.749  0.4946  0.4458 -0.3973
  108OSM    HNF11002   6.200   2.048   6.724  1.8118 -1.4734 -2.0488
  108OSM    C2S11003   6.015   2.024   6.831  0.3242  0.1139 -1.0068
  108OSM    H2S11004   5.924   1.963   6.816 -0.1600  0.7939 -0.8888
  108OSM    C3S11005   5.978   2.168   6.823  0.2647  0.3369 -0.1780
  108OSM    H3S11006   6.062   2.234   6.855  1.0885 -0.7929  0.0443
  108OSM     O311007   5.870   2.192   6.918 -0.0007  0.1827  0.3292
  108OSM    HO311008   5.883   2.133   6.992 -0.6041 -0.1371  0.1848
  108OSM    C4S11009   5.939   2.194   6.685  0.0790 -0.2314 -0.2005
  108OSM    H4S11010   5.833   2.170   6.675 -0.0131 -0.7017  1.5257
  108OSM    C5S11011   6.021   2.234   6.586  0.8366 -0.4296  0.6996
  108OSM    H5S11012   6.125   2.264   6.609  1.3617 -2.1022  0.6187
  108OSM    C6S11013   5.978   2.244   6.444  0.3084  0.2281 -0.1008
  108OSM    H6S11014   6.007   2.341   6.400 -3.2160  1.5447  0.1555
  108OSM    H6T11015   5.868   2.236   6.431  0.4677 -0.4842 -1.1950
  108OSM    C7S11016   6.038   2.124   6.362  0.6990  0.1389 -0.3719
  108OSM    H7S11017   5.998   2.130   6.258 -0.7406 -2.1258 -0.0171
  108OSM    H7T11018   6.000   2.031   6.408  1.5696 -0.7126 -1.3277
  108OSM    C8S11019   6.191   2.120   6.351  0.0170 -0.2985  0.2473
  108OSM    H8S11020   6.242   2.113   6.449  1.9065  0.0248 -0.6620
  108OSM    H8T11021   6.223   2.221   6.315 -1.1210 -0.2467 -0.7014
  108OSM    C9S11022   6.256   2.009   6.262  0.1387  0.9255  0.1023
  108OSM    H9S11023   6.218   1.911   6.298  1.6190 -0.0051 -0.7351
  108OSM    H9T11024   6.366   2.009   6.275  0.4656 -1.8318 -1.6966
  108OSM   C10S11025   6.215   2.030   6.112 -0.5688  0.8280 -0.6014
  108OSM   H10S11026   6.225   2.135   6.077  2.7811 -0.1878 -3.1300
  108OSM   H10T11027   6.106   2.005   6.113 -0.8663  1.9979  0.5874
  108OSM   C11S11028   6.301   1.947   6.020 -0.6533 -0.4334 -0.8961
  108OSM   H11S11029   6.259   1.844   6.014 -0.7423 -0.3251 -2.6176
  108OSM   H11T11030   6.407   1.947   6.054 -0.8788  0.0181 -0.1640
  108OSM   C12S11031   6.327   2.031   5.889  0.8042 -0.0985  0.5713
  108OSM   H12S11032   6.344   2.139   5.906 -0.7811  0.3121 -0.2863
  108OSM   H12T11033   6.235   2.035   5.827  1.1762  0.2233  0.0316
  108OSM   C13S11034   6.440   1.973   5.806 -0.4960  0.4351  0.7444
  108OSM   H13S11035   6.439   1.864   5.787  2.7466  0.4104  0.0467
  108OSM   H13T11036   6.535   1.995   5.860  0.0376  2.5096 -0.8874
  108OSM   C14S11037   6.445   2.032   5.666  0.7695 -0.3948  0.0154
  108OSM   H14S11038   6.445   2.141   5.686  1.8326 -0.6259  1.4799
  108OSM   H14T11039   6.360   2.017   5.596  0.7470 -0.8304  0.1315
  108OSM   C15S11040   6.575   2.003   5.594 -0.6557  0.4748 -0.1065
  108OSM   H15S11041   6.591   1.894   5.577  1.5268  0.7323 -0.0301
  108OSM   H15T11042   6.658   2.030   5.663 -1.7807 -2.6149  2.6875
  108OSM   C16S11043   6.604   2.075   5.462 -0.2738 -0.0219  0.1665
  108OSM   H16S11044   6.599   2.185   5.472 -0.3782 -0.2182  3.4594
  108OSM   H16T11045   6.530   2.048   5.384  0.5111  1.0773 -0.9810
  108OSM   C17S11046   6.741   2.032   5.415  0.3441 -0.2943  0.6878
  108OSM   H17S11047   6.752   1.922   5.415  1.6953 -0.2515 -1.9099
  108OSM   H17T11048   6.815   2.076   5.485  0.4307  1.6725 -0.5522
  108OSM   C18S11049   6.780   2.092   5.282  0.0915 -0.0019 -0.0187
  108OSM   H18S11050   6.788   2.203   5.281 -1.9659  0.1839  0.0629
  108OSM   H18T11051   6.716   2.057   5.198  0.5667  2.0155 -1.3013
  108OSM   H18U11052   6.878   2.058   5.242  0.6432  1.2820  0.2029
  108OSM    C1F11053   6.160   1.851   6.727  0.1667 -0.5974  0.1459
  108OSM     OF11054   6.099   1.757   6.768  0.6798  0.3823  0.0817
  108OSM    C2F11055   6.277   1.835   6.633 -0.3224  0.1671 -0.1696
  108OSM    H2F11056   6.360   1.838   6.707 -0.2148 -1.8409 -0.1381
  108OSM    H2G11057   6.273   1.922   6.564 -2.8940 -1.0360 -1.7031
  108OSM    C3F11058   6.282   1.712   6.548  1.1740 -0.1371  0.4471
  108OSM    H3F11059   6.196   1.719   6.478 -0.6957 -1.2130  2.4794
  108OSM    H3G11060   6.273   1.620   6.610  1.4873 -1.0013 -0.7709
  108OSM    C4F11061   6.409   1.710   6.452  0.0449 -0.2057  0.0841
  108OSM    H4F11062   6.499   1.693   6.514 -1.3830  0.5176  2.4704
  108OSM    H4G11063   6.417   1.803   6.391 -0.5326  0.2349  0.6718
  108OSM    C5F11064   6.403   1.589   6.355 -0.7663  0.3491  0.2890
  108OSM    H5F11065   6.387   1.498   6.417 -1.5133  0.7801  0.7554
  108OSM    H5G11066   6.496   1.580   6.296  0.1431 -2.6915  1.9717
  108OSM    C6F11067   6.284   1.592   6.252 -0.8766 -0.3037 -0.1168
  108OSM    H6F11068   6.264   1.690   6.203  1.1521  0.3737  0.3172
  108OSM    H6G11069   6.190   1.559   6.300 -2.3552 -0.2177 -2.7650
  108OSM    C7F11070   6.289   1.485   6.147 -0.0625 -0.2212 -0.0040
  108OSM    H7F11071   6.305   1.387   6.197  1.0325 -0.4473 -0.7565
  108OSM    H7G11072   6.368   1.507   6.072  0.3057 -1.2099  0.0797
  108OSM    C8F11073   6.156   1.479   6.076  0.0719 -0.0525 -0.6327
  108OSM    H8F11074   6.148   1.586   6.046  0.1086 -0.1841 -1.1170
  108OSM    H8G11075   6.071   1.461   6.145  0.6501  2.2955  0.8208
  108OSM    C9F11076   6.161   1.398   5.945 -0.0503  0.1320 -1.1359
  108OSM    H9F11077   6.163   1.289   5.962 -2.9089  0.4325  2.1117
  108OSM   C10F11078   6.177   1.451   5.825  0.6870 -0.4148 -0.4860
  108OSM   H10F11079   6.173   1.378   5.742 -0.9294 -0.7756 -0.1258
  108OSM   C11F11080   6.177   1.595   5.775  0.2945  0.2130 -0.1091
  108OSM   H11F11081   6.250   1.601   5.691  0.0740 -0.7872 -0.3906
  108OSM   H11G11082   6.189   1.675   5.850  0.8712  0.8019 -0.8172
  108OSM   C12F11083   6.031   1.619   5.716  0.5991  0.0075  0.1710
  108OSM   H12F11084   5.948   1.596   5.786  0.1899  2.7519  0.7041
  108OSM   H12G11085   6.013   1.543   5.637 -2.1328  0.2052  0.5180
  108OSM   C13F11086   6.005   1.762   5.656 -0.2696 -0.1311  0.1889
  108OSM   H13F11087   6.026   1.849   5.722 -1.1239 -0.0055  0.3068
  108OSM   H13G11088   5.894   1.765   5.659 -0.3059  0.6186 -1.0323
  108OSM   C14F11089   6.066   1.782   5.513 -0.2382  0.4485  0.4279
  108OSM   H14F11090   6.034   1.708   5.437  2.7759 -0.5163 -0.0248
  108OSM   H14G11091   6.176   1.775   5.523  0.1043  0.1511 -2.5558
  108OSM   C15F11092   6.028   1.926   5.454  0.4001 -0.7315 -1.0363
  108OSM   H15F11093   6.023   1.996   5.541  0.5045  0.0918 -1.6809
  108OSM   H15G11094   5.927   1.918   5.409 -0.5443  2.7753  0.1243
  108OSM   C16F11095   6.133   1.966   5.364  0.4467 -0.0021  0.1694
  108OSM   H16F11096   6.155   1.897   5.279  1.0497 -0.3743  0.6191
  108OSM   H16G11097   6.228   1.970   5.422  0.5197 -0.4175  0.0873
  108OSM   C17F11098   6.093   2.100   5.310 -0.5586 -0.4760 -0.4429
  108OSM   H17F11099   6.079   2.170   5.395  0.1826  0.3156 -0.9551
  108OSM   H17G11100   5.996   2.090   5.256 -0.7306  1.0739 -0.4585
  108OSM   C18F11101   6.199   2.153   5.214  0.0127  0.1649 -0.1432
  108OSM   H18F11102   6.233   2.072   5.147  0.4098 -0.4501  0.7847
  108OSM   H18G11103   6.282   2.195   5.275  1.4650 -0.0476 -1.9053
  108OSM   H18H11104   6.166   2.238   5.151  0.7210  0.1019 -0.6109
  109OSM      N11105   1.110   4.640   7.516  0.3861 -0.2460  0.0959
  109OSM    C1511106   1.142   4.780   7.489 -0.6499  0.0390  0.0652
  109OSM   H15A11107   1.247   4.803   7.499 -0.6743 -0.1126  0.7283
  109OSM   H15B11108   1.075   4.849   7.539  0.7718  1.6368 -0.1410
  109OSM   H15C11109   1.142   4.791   7.381  1.3588  1.2121  0.1331
  109OSM    C1411110   1.094   4.621   7.661  0.1284  0.7502 -0.3616
  109OSM   H14A11111   1.027   4.698   7.696 -1.5516  0.7550 -3.2085
  109OSM   H14B11112   1.189   4.637   7.708 -0.0406 -1.2461  0.7665
  109OSM   H14C11113   1.059   4.524   7.695 -0.4322  0.7014 -1.0477
  109OSM    C1311114   0.972   4.625   7.450  0.6641  0.0482 -0.5119
  109OSM   H13A11115   0.970   4.660   7.348  0.2722 -0.0494 -0.5382
  109OSM   H13B11116   0.897   4.682   7.502 -0.3997  0.2991 -2.2286
  109OSM   H13C11117   0.948   4.520   7.460 -0.9380  0.4231 -0.2134
  109OSM    C1211118   1.217   4.551   7.463 -0.0763  0.4643 -0.0389
  109OSM   H12A11119   1.312   4.569   7.510 -1.5039  0.0989  3.2880
  109OSM   H12B11120   1.231   4.567   7.358 -0.3200  0.5961 -0.0533
  109OSM    C1111121   1.188   4.394   7.465  0.5372  0.3734  0.1396
  109OSM   H11A11122   1.175   4.368   7.573 -1.5226  0.4086 -0.0475
  109OSM   H11B11123   1.275   4.335   7.431 -0.6070 -0.6423 -1.1576
  109OSM      P11124   1.040   4.206   7.375 -0.4984  0.1895  0.1037
  109OSM    O1311125   1.142   4.124   7.448 -0.3574 -0.2156 -0.3406
  109OSM    O1411126   0.899   4.190   7.416 -0.6680 -0.2897  0.3250
  109OSM    O1111127   1.047   4.177   7.220  0.3063  0.1635 -0.1424
  109OSM    O1211128   1.067   4.359   7.399  0.0060 -0.7091  0.3348
  109OSM    C1S11129   1.001   4.284   7.133 -0.2454 -0.0348  0.0893
  109OSM    H1S11130   1.069   4.372   7.135 -3.2577  2.4633 -0.0415
  109OSM    H1T11131   0.909   4.330   7.175 -0.6655 -0.4158 -0.4080
  109OSM     NF11132   0.970   4.351   6.896 -0.1800 -0.2082 -0.1495
  109OSM    HNF11133   0.883   4.379   6.854 -0.5649 -0.3696  0.5168
  109OSM    C2S11134   0.972   4.241   6.987 -0.4261 -0.0848 -1.1378
  109OSM    H2S11135   1.065   4.187   6.960  1.2621  1.8954  0.3786
  109OSM    C3S11136   0.853   4.136   6.988  0.3908 -0.0953  0.4035
  109OSM    H3S11137   0.766   4.196   7.022  1.4003  1.6377  0.0740
  109OSM     O311138   0.875   4.022   7.068 -0.4208  0.0590  0.0995
  109OSM    HO311139   0.941   4.065   7.123 -0.8929  1.9863 -0.7722
  109OSM    C4S11140   0.828   4.098   6.841 -0.2794  0.5048  0.4393
  109OSM    H4S11141   0.752   4.167   6.802 -1.7895 -0.8908  0.7748
  109OSM    C5S11142   0.873   3.999   6.759 -0.0342 -0.1903 -0.8831
  109OSM    H5S11143   0.943   3.924   6.798  0.5335  1.0721  0.6222
  109OSM    C6S11144   0.813   3.982   6.621  0.3305 -0.2359 -0.7315
  109OSM    H6S11145   0.719   4.041   6.611  0.9149  0.7678 -0.4325
  109OSM    H6T11146   0.786   3.874   6.620  1.1156 -0.5011  1.4009
  109OSM    C7S11147   0.895   4.029   6.501  0.2128 -0.4568  0.4929
  109OSM    H7S11148   0.972   3.949   6.504  0.2925 -0.3490  1.7686
  109OSM    H7T11149   0.935   4.131   6.517  0.6789 -0.2702 -1.5902
  109OSM    C8S11150   0.815   4.029   6.366 -0.0103  0.4865 -0.4966
  109OSM    H8S11151   0.744   4.113   6.351  0.8469  1.3033 -0.1446
  109OSM    H8T11152   0.761   3.932   6.367  0.5514  0.1390 -1.6423
  109OSM    C9S11153   0.923   4.022   6.246  0.7285  0.0826 -0.1003
  109OSM    H9S11154   0.984   3.930   6.259  0.4296 -0.1446 -0.2764
  109OSM    H9T11155   0.987   4.112   6.237  1.2667 -0.3751 -1.0521
  109OSM   C10S11156   0.840   4.016   6.114 -0.1835 -0.0997  0.3217
  109OSM   H10S11157   0.784   4.112   6.105 -0.6316 -0.2934  0.9508
  109OSM   H10T11158   0.768   3.932   6.118  0.0079 -0.2264  1.6601
  109OSM   C11S11159   0.929   3.999   5.990 -0.6541 -0.4856 -0.6414
  109OSM   H11S11160   0.962   3.894   5.972  1.0498  0.2658 -2.2750
  109OSM   H11T11161   1.021   4.060   6.002  1.7559 -3.8227 -0.3608
  109OSM   C12S11162   0.856   4.049   5.871 -0.1081  0.3519  0.7271
  109OSM   H12S11163   0.811   4.148   5.891 -0.5921  0.0093  1.3704
  109OSM   H12T11164   0.775   3.982   5.837 -1.3286  2.0451  0.1581
  109OSM   C13S11165   0.940   4.061   5.745  0.4552 -0.5838 -0.0557
  109OSM   H13S11166   0.967   3.961   5.704  0.0107 -0.2327 -1.2459
  109OSM   H13T11167   1.027   4.122   5.778 -1.0028  2.2882 -1.1728
  109OSM   C14S11168   0.867   4.143   5.636 -0.4272  0.5767 -0.6119
  109OSM   H14S11169   0.848   4.251   5.656 -3.7634  0.4142 -2.2649
  109OSM   H14T11170   0.765   4.099   5.630 -1.6397  2.7930  1.6983
  109OSM   C15S11171   0.909   4.124   5.492  0.3231 -0.0396 -0.2599
  109OSM   H15S11172   0.855   4.186   5.418 -0.3542  0.8445  0.9413
  109OSM   H15T11173   0.886   4.024   5.449  1.2670 -0.1723 -0.4848
  109OSM   C16S11174   1.057   4.156   5.481  0.4601  0.2189  0.2982
  109OSM   H16S11175   1.125   4.109   5.556  1.7612  0.8551 -0.4574
  109OSM   H16T11176   1.059   4.265   5.501  0.5515 -0.0598  1.9956
  109OSM   C17S11177   1.113   4.127   5.336 -1.0385  0.0093  0.4236
  109OSM   H17S11178   1.077   4.216   5.279  1.0190  1.1329  0.7920
  109OSM   H17T11179   1.051   4.037   5.312 -1.6929  0.3939  0.6520
  109OSM   C18S11180   1.268   4.106   5.319  0.1503  0.1445 -0.0174
  109OSM   H18S11181   1.321   4.153   5.404  0.5976 -1.6441  0.7367
  109OSM   H18T11182   1.307   4.135   5.219 -2.1768  0.6453 -0.8337
  109OSM   H18U11183   1.290   3.997   5.317 -1.3543 -0.3487  3.5944
  109OSM    C1F11184   1.067   4.433   6.860  0.6024 -0.1111 -0.1799
  109OSM     OF11185   1.170   4.441   6.921 -0.6301  0.2786  0.0684
  109OSM    C2F11186   1.035   4.512   6.740 -0.0126  0.3318 -0.0691
  109OSM    H2F11187   1.063   4.617   6.765 -0.1197  0.2371  0.4616
  109OSM    H2G11188   0.926   4.500   6.721  0.1846 -0.9103 -0.5138
  109OSM    C3F11189   1.109   4.443   6.634  0.5281  0.1685  0.2690
  109OSM    H3F11190   1.070   4.341   6.613  0.6489 -0.5474  3.1385
  109OSM    H3G11191   1.217   4.440   6.662 -0.2437  2.1798  4.0428
  109OSM    C4F11192   1.087   4.518   6.508  0.2473 -0.1338  0.5126
  109OSM    H4F11193   1.177   4.583   6.495  0.8662 -0.7735  1.4398
  109OSM    H4G11194   0.997   4.582   6.496  0.8957  0.3921 -2.0960
  109OSM    C5F11195   1.083   4.422   6.386  0.3747 -0.5892  0.0734
  109OSM    H5F11196   1.001   4.347   6.392 -0.9691  0.5947 -2.1385
  109OSM    H5G11197   1.181   4.372   6.375 -0.1267 -1.0115 -3.4149
  109OSM    C6F11198   1.063   4.498   6.257 -0.0535 -0.0815  0.1410
  109OSM    H6F11199   1.109   4.599   6.264 -0.1932 -0.1658  4.2430
  109OSM    H6G11200   0.954   4.515   6.254 -0.1559 -0.5289  1.0739
  109OSM    C7F11201   1.127   4.426   6.137  0.5985  0.1532  0.5153
  109OSM    H7F11202   1.072   4.330   6.121  0.9570 -0.3622  2.1597
  109OSM    H7G11203   1.233   4.407   6.163 -0.0306 -1.2460  2.2915
  109OSM    C8F11204   1.134   4.502   6.001 -0.1501  0.4560 -0.1698
  109OSM    H8F11205   1.190   4.596   6.019  2.9199 -1.4764  1.1907
  109OSM    H8G11206   1.028   4.524   5.976 -0.0849  1.1255  0.1158
  109OSM    C9F11207   1.207   4.433   5.893  0.6149 -0.2001  0.0366
  109OSM    H9F11208   1.301   4.388   5.928  0.6106  1.3795  2.3102
  109OSM   C10F11209   1.181   4.421   5.763 -0.0602 -0.2821  0.4878
  109OSM   H10F11210   1.247   4.364   5.696 -1.6317 -0.8401 -0.6347
  109OSM   C11F11211   1.064   4.488   5.694  0.3262 -0.1769 -0.3187
  109OSM   H11F11212   1.012   4.557   5.764 -0.2954 -0.3850 -0.5699
  109OSM   H11G11213   0.996   4.411   5.651  0.1563  0.5661 -1.4034
  109OSM   C12F11214   1.105   4.596   5.586  0.0091  0.7511  0.4807
  109OSM   H12F11215   1.183   4.664   5.626  2.1606  0.8740 -3.4126
  109OSM   H12G11216   1.028   4.667   5.546  0.8948  0.3890 -2.0332
  109OSM   C13F11217   1.160   4.535   5.452  0.3125 -0.1048 -0.4116
  109OSM   H13F11218   1.082   4.470   5.408  0.3124 -0.6704  0.4168
  109OSM   H13G11219   1.251   4.477   5.479  1.7134  1.2073 -2.0278
  109OSM   C14F11220   1.200   4.633   5.336 -0.2638  0.1917 -0.1437
  109OSM   H14F11221   1.270   4.711   5.374 -2.3931  1.2942  1.7553
  109OSM   H14G11222   1.111   4.682   5.291 -1.1104 -1.7815 -0.7487
  109OSM   C15F11223   1.280   4.547   5.236 -0.2805 -0.6438 -0.4723
  109OSM   H15F11224   1.237   4.445   5.229 -0.8670 -0.4528  0.1927
  109OSM   H15G11225   1.384   4.539   5.275 -1.4575 -2.2100  2.7606
  109OSM   C16F11226   1.276   4.611   5.092 -0.0260  0.2159 -0.0364
  109OSM   H16F11227   1.370   4.580   5.042 -0.6918  0.2417 -1.3424
  109OSM   H16G11228   1.264   4.722   5.096 -1.4804  0.0821 -0.0367
  109OSM   C17F11229   1.163   4.555   4.999 -0.0671 -0.3344 -0.6475
  109OSM   H17F11230   1.063   4.578   5.041  1.2024  1.4169  1.6605
  109OSM   H17G11231   1.177   4.445   5.002 -3.7153 -0.9147 -1.0384
  109OSM   C18F11232   1.178   4.612   4.860  0.5807 -0.6224 -0.6966
  109OSM   H18F11233   1.168   4.722   4.867 -2.0543 -0.8565  0.0977
  109OSM   H18G11234   1.094   4.571   4.800 -1.9570  1.4223  1.2399
  109OSM   H18H11235   1.271   4.590   4.803  0.5580 -1.0425 -0.5737
  110OSM      N11236   4.266   6.537   7.505  0.0818 -0.2634 -0.2307
  110OSM    C1511237   4.352   6.482   7.616 -0.4660  0.1456  0.2270
  110OSM   H15A11238   4.386   6.382   7.596  0.6010  1.0063 -2.7429
  110OSM   H15B11239   4.299   6.478   7.710 -0.2058  0.6532  0.3978
  110OSM   H15C11240   4.443   6.539   7.625 -1.1430  1.2743  0.0669
  110OSM    C1411241   4.133   6.468   7.509  0.0535  0.8254  0.6374
  110OSM   H14A11242   4.064   6.508   7.437  2.2589 -0.2370 -2.2378
  110OSM   H14B11243   4.081   6.475   7.604  0.4874 -0.2020  0.9658
  110OSM   H14C11244   4.143   6.362   7.493 -1.2905  0.8755 -0.7671
  110OSM    C1311245   4.249   6.682   7.534  0.2277  0.1423 -0.4240
  110OSM   H13A11246   4.345   6.729   7.522 -0.4777  1.9386  0.4908
  110OSM   H13B11247   4.218   6.696   7.637 -0.2851 -0.1723 -0.5275
  110OSM   H13C11248   4.191   6.744   7.467 -0.8834  2.7046  2.6408
  110OSM    C1211249   4.328   6.524   7.370 -0.1614  0.1402  1.3398
  110OSM   H12A11250   4.325   6.420   7.340  1.0283  0.3711  0.3472
  110OSM   H12B11251   4.428   6.561   7.355 -0.5254 -0.2293 -3.3166
  110OSM    C1111252   4.254   6.592   7.247  0.6411 -0.4759  0.6821
  110OSM   H11A11253   4.157   6.544   7.223  0.3780 -0.4963  1.7515
  110OSM   H11B11254   4.309   6.569   7.154 -0.8319  2.0107 -0.9218
  110OSM      P11255   4.293   6.830   7.172  0.0557 -0.0055  0.0638
  110OSM    O1311256   4.229   6.962   7.189  0.4320  0.1549 -0.4392
  110OSM    O1411257   4.438   6.817   7.199  0.3637  0.1992  0.0595
  110OSM    O1111258   4.277   6.777   7.027 -0.1513  0.3571 -0.5031
  110OSM    O1211259   4.217   6.733   7.263 -0.3933 -0.5246 -0.3100
  110OSM    C1S11260   4.155   6.774   6.962  0.6520 -0.0424 -0.9165
  110OSM    H1S11261   4.116   6.878   6.950  2.9488  0.9160 -0.5167
  110OSM    H1T11262   4.085   6.703   7.012 -0.2148  2.8018  2.2850
  110OSM     NF11263   4.045   6.762   6.733  0.2476  0.0164  0.2178
  110OSM    HNF11264   3.989   6.682   6.713  0.3908 -0.0741  0.1714
  110OSM    C2S11265   4.165   6.732   6.810 -0.5910 -0.0238 -0.1329
  110OSM    H2S11266   4.240   6.804   6.770 -0.7967  0.0630 -0.3616
  110OSM    C3S11267   4.207   6.588   6.795 -0.7330 -0.4905 -0.3073
  110OSM    H3S11268   4.122   6.520   6.816  0.8955 -1.8865  2.2349
  110OSM     O311269   4.318   6.543   6.876 -0.6362  0.0928  0.0421
  110OSM    HO311270   4.341   6.610   6.942 -0.7023 -2.3065  2.6838
  110OSM    C4S11271   4.247   6.568   6.652 -0.6613 -0.0942  0.1804
  110OSM    H4S11272   4.352   6.595   6.633  0.8836 -3.7535  2.4880
  110OSM    C5S11273   4.185   6.515   6.549  0.3503 -0.6676  0.8412
  110OSM    H5S11274   4.083   6.478   6.567 -0.6907 -0.6886 -3.7802
  110OSM    C6S11275   4.244   6.497   6.413  0.9524 -0.3798  0.1301
  110OSM    H6S11276   4.231   6.392   6.378  1.2491 -0.1071 -0.8202
  110OSM    H6T11277   4.354   6.508   6.427  0.3870  1.8840  4.3814
  110OSM    C7S11278   4.205   6.601   6.307 -0.0096  0.1003  0.0120
  110OSM    H7S11279   4.226   6.704   6.343  0.6236  0.8360 -2.3099
  110OSM    H7T11280   4.095   6.595   6.296 -0.2579  0.7959  1.7757
  110OSM    C8S11281   4.258   6.577   6.164  0.5161 -0.0206  0.5135
  110OSM    H8S11282   4.224   6.475   6.135  1.4389 -0.3318  0.4882
  110OSM    H8T11283   4.368   6.587   6.155  0.3970 -0.1773 -1.9061
  110OSM    C9S11284   4.199   6.687   6.065  0.5141  0.4096  0.6470
  110OSM    H9S11285   4.224   6.787   6.106 -0.0191  0.4780  0.8195
  110OSM    H9T11286   4.089   6.675   6.071  0.4025  1.5545  1.1302
  110OSM   C10S11287   4.246   6.669   5.921  0.4174 -0.2121  0.3711
  110OSM   H10S11288   4.222   6.567   5.886  0.8495  0.7696 -3.1768
  110OSM   H10T11289   4.357   6.676   5.923  0.4688 -0.2694  3.8521
  110OSM   C11S11290   4.187   6.771   5.823  1.0917 -0.1495  0.2475
  110OSM   H11S11291   4.199   6.872   5.867 -1.1150 -0.8162  2.6261
  110OSM   H11T11292   4.080   6.748   5.807  1.0785  0.5338 -0.7235
  110OSM   C12S11293   4.253   6.762   5.681  0.2320 -0.1121  0.2213
  110OSM   H12S11294   4.235   6.665   5.632  0.2642  0.5058 -1.0403
  110OSM   H12T11295   4.363   6.773   5.690  0.2565  1.4077 -1.3716
  110OSM   C13S11296   4.213   6.882   5.600  0.6497 -0.9468  0.3288
  110OSM   H13S11297   4.265   6.976   5.629 -1.6711  1.1382 -1.8018
  110OSM   H13T11298   4.108   6.899   5.632  1.4769  0.3028  2.6611
  110OSM   C14S11299   4.225   6.873   5.448  0.1653 -0.4957 -0.1075
  110OSM   H14S11300   4.151   6.936   5.395  0.1036 -0.1549  0.3777
  110OSM   H14T11301   4.215   6.766   5.422 -1.5643 -0.7066  1.2590
  110OSM   C15S11302   4.368   6.905   5.406  0.1739  0.2391  0.7717
  110OSM   H15S11303   4.435   6.828   5.449  0.1726  0.0565  0.4525
  110OSM   H15T11304   4.391   7.003   5.453 -2.3099  0.7107  1.1496
  110OSM   C16S11305   4.399   6.918   5.256  0.2393  0.2901  0.3127
  110OSM   H16S11306   4.339   7.003   5.217  2.5592  1.3274 -1.1825
  110OSM   H16T11307   4.379   6.828   5.195  2.2975 -0.5838  0.8402
  110OSM   C17S11308   4.544   6.985   5.232 -0.0022  0.5229 -0.2930
  110OSM   H17S11309   4.556   6.975   5.122  0.1407  0.1176 -0.2438
  110OSM   H17T11310   4.621   6.925   5.286 -0.7373  0.0858  0.2884
  110OSM   C18S11311   4.563   7.134   5.252  0.0273  0.8786  0.0288
  110OSM   H18S11312   4.671   7.153   5.263 -0.0206 -0.2950  4.3426
  110OSM   H18T11313   4.518   7.156   5.352 -0.0552 -0.6702  0.3518
  110OSM   H18U11314   4.509   7.176   5.165  0.5526 -0.6034 -1.0489
  110OSM    C1F11315   3.992   6.886   6.713  0.0902  0.4266 -0.1893
  110OSM     OF11316   4.061   6.984   6.724  0.0039 -0.0520 -0.1293
  110OSM    C2F11317   3.835   6.880   6.698 -0.6428  0.2178 -0.2935
  110OSM    H2F11318   3.793   6.887   6.801  0.5257 -0.2176  0.2267
  110OSM    H2G11319   3.804   6.783   6.655  2.9646 -1.1948  0.0027
  110OSM    C3F11320   3.759   6.988   6.617  0.3831  1.0255 -0.5542
  110OSM    H3F11321   3.796   7.083   6.662  0.6704  0.7579 -0.2249
  110OSM    H3G11322   3.651   6.987   6.644  0.2528  0.7036 -1.0878
  110OSM    C4F11323   3.761   6.979   6.461  0.1550  0.3854  0.4112
  110OSM    H4F11324   3.861   7.016   6.430 -0.8054  1.0480 -2.1494
  110OSM    H4G11325   3.687   7.048   6.414 -0.4111  0.6159  1.6185
  110OSM    C5F11326   3.738   6.841   6.396  0.5127 -0.2278 -0.4696
  110OSM    H5F11327   3.627   6.831   6.393  0.3881 -1.7961  3.8206
  110OSM    H5G11328   3.782   6.758   6.454  0.6563 -0.0209 -0.2833
  110OSM    C6F11329   3.807   6.819   6.263  0.1122  0.1756  0.0684
  110OSM    H6F11330   3.798   6.711   6.238  1.9691  0.4109 -1.9319
  110OSM    H6G11331   3.917   6.834   6.259  0.2555 -0.3489  1.4257
  110OSM    C7F11332   3.751   6.896   6.142  0.5125 -0.3227 -0.2962
  110OSM    H7F11333   3.760   7.003   6.170  0.5971 -0.5110  0.4292
  110OSM    H7G11334   3.643   6.875   6.127  0.2233 -0.4659  1.6940
  110OSM    C8F11335   3.823   6.874   6.008 -0.5701  0.4915  0.0259
  110OSM    H8F11336   3.929   6.906   6.008 -0.0579 -1.1364  0.4387
  110OSM    H8G11337   3.773   6.943   5.937 -2.6653 -1.3747 -0.4141
  110OSM    C9F11338   3.820   6.733   5.971  0.6794  0.4523  0.1547
  110OSM    H9F11339   3.865   6.670   6.050 -1.3385 -0.2945  0.7881
  110OSM   C10F11340   3.765   6.686   5.863  0.0004 -0.4303  1.1007
  110OSM   H10F11341   3.780   6.577   5.852  2.2384 -0.0230 -0.7196
  110OSM   C11F11342   3.704   6.776   5.748  0.2668 -0.3267 -0.4982
  110OSM   H11F11343   3.650   6.868   5.780  0.9667  0.4438 -1.5004
  110OSM   H11G11344   3.626   6.713   5.700 -0.9709 -0.0623  1.0697
  110OSM   C12F11345   3.812   6.813   5.644 -0.3818 -0.1945 -0.0346
  110OSM   H12F11346   3.848   6.719   5.596 -0.9816 -0.9844  1.0280
  110OSM   H12G11347   3.908   6.843   5.691 -0.2566 -0.4212 -0.1372
  110OSM   C13F11348   3.783   6.912   5.538  0.1565  0.3094  0.3546
  110OSM   H13F11349   3.833   7.011   5.536  1.1982 -0.1903 -1.9217
  110OSM   H13G11350   3.676   6.942   5.540 -0.1108 -0.3548 -1.5578
  110OSM   C14F11351   3.807   6.857   5.396  0.3416  0.3509  0.1022
  110OSM   H14F11352   3.726   6.785   5.369  1.3644 -0.1636 -1.7456
  110OSM   H14G11353   3.903   6.803   5.383  0.8289  1.0211  0.8603
  110OSM   C15F11354   3.804   6.968   5.276  0.5685  0.2893  0.3667
  110OSM   H15F11355   3.731   7.050   5.292  0.3943  0.0444  0.8279
  110OSM   H15G11356   3.769   6.901   5.194 -2.3080  1.6160  0.3955
  110OSM   C16F11357   3.932   7.037   5.244 -0.2021  0.1129 -0.5591
  110OSM   H16F11358   4.015   6.964   5.236 -0.2396  0.1674 -1.6994
  110OSM   H16G11359   3.958   7.117   5.316  0.5941 -0.9574  0.3698
  110OSM   C17F11360   3.919   7.105   5.105 -0.0563 -0.2379 -0.0255
  110OSM   H17F11361   3.824   7.163   5.098 -0.4814 -0.9046  0.1032
  110OSM   H17G11362   3.923   7.036   5.018  2.6562 -1.4656  0.9751
  110OSM   C18F11363   4.034   7.200   5.080 -0.4806 -0.4433  0.1062
  110OSM   H18F11364   4.056   7.258   5.172 -1.7934  0.2679 -0.0154
  110OSM   H18G11365   3.992   7.265   5.001 -0.1778 -0.1964  0.1466
  110OSM   H18H11366   4.125   7.147   5.045 -0.8339 -1.4247  0.6229
  111OSM      N11367   6.396   4.815   6.891  0.2787 -0.3112  0.3506
  111OSM    C1511368   6.329   4.830   7.027  0.5397 -0.2705 -0.4973
  111OSM   H15A11369   6.308   4.935   7.042 -3.3930 -0.9542 -0.0819
  111OSM   H15B11370   6.387   4.794   7.110  1.7745 -2.5099 -2.2160
  111OSM   H15C11371   6.230   4.788   7.021  0.4673 -0.0205 -1.2342
  111OSM    C1411372   6.544   4.822   6.896 -0.3536  0.1927  0.6534
  111OSM   H14A11373   6.585   4.911   6.941  1.2099 -0.4394  0.5524
  111OSM   H14B11374   6.579   4.810   6.795  0.4456 -0.4821  1.0050
  111OSM   H14C11375   6.589   4.746   6.957  1.3944  1.4810  1.0357
  111OSM    C1311376   6.360   4.677   6.848  0.0537  0.1100 -0.0112
  111OSM   H13A11377   6.403   4.595   6.903 -2.7266 -1.1316  0.4531
  111OSM   H13B11378   6.395   4.656   6.748 -0.4989  3.4259 -1.0171
  111OSM   H13C11379   6.255   4.663   6.828 -0.1431  1.5797 -0.1158
  111OSM    C1211380   6.340   4.912   6.786  0.2983  1.0649 -0.0662
  111OSM   H12A11381   6.232   4.908   6.783  0.2732 -1.2210  1.0850
  111OSM   H12B11382   6.380   4.880   6.691 -2.9936 -1.7542 -0.7162
  111OSM    C1111383   6.379   5.062   6.803 -0.5016  0.5941  0.7247
  111OSM   H11A11384   6.365   5.118   6.708  1.9128 -0.7972 -0.5568
  111OSM   H11B11385   6.486   5.067   6.835 -0.2456 -1.0094  0.1818
  111OSM      P11386   6.156   5.143   6.879 -0.0428 -0.2605 -0.4565
  111OSM    O1311387   6.077   5.018   6.881 -0.0559 -0.1944  0.3172
  111OSM    O1411388   6.107   5.234   6.986 -0.5336 -0.3456  0.3965
  111OSM    O1111389   6.138   5.197   6.738 -0.4172  0.2893 -0.3573
  111OSM    O1211390   6.306   5.111   6.903 -0.0328 -1.0674 -0.1239
  111OSM    C1S11391   6.166   5.333   6.691  0.2430  0.5142 -0.5531
  111OSM    H1S11392   6.272   5.359   6.709  0.7202  1.1912 -3.7352
  111OSM    H1T11393   6.106   5.411   6.743  0.4225 -0.6126  1.4617
  111OSM     NF11394   6.196   5.455   6.474  0.3026  0.0535 -0.0460
  111OSM    HNF11395   6.143   5.525   6.426 -0.5864 -1.2076 -0.9882
  111OSM    C2S11396   6.135   5.336   6.535 -0.5252 -0.3420  0.0004
  111OSM    H2S11397   6.192   5.255   6.486  0.2283  1.1311 -1.6710
  111OSM    C3S11398   5.984   5.315   6.507 -0.4133  0.5548  0.0744
  111OSM    H3S11399   5.931   5.411   6.528 -1.9887 -0.2852  0.0927
  111OSM     O311400   5.927   5.213   6.585 -0.2194  0.7569  0.2308
  111OSM    HO311401   6.004   5.189   6.637 -1.6047 -1.2999  1.4606
  111OSM    C4S11402   5.968   5.289   6.359  0.2493 -0.0177  0.3468
  111OSM    H4S11403   5.933   5.375   6.300  0.0821  0.3127  0.9184
  111OSM    C5S11404   5.978   5.170   6.299  0.0127 -0.2183  0.0301
  111OSM    H5S11405   5.996   5.081   6.361  1.2619  0.9905  1.4933
  111OSM    C6S11406   5.964   5.143   6.155 -0.2504  0.2367  0.7243
  111OSM    H6S11407   5.860   5.107   6.140 -0.1519 -0.5363  1.8252
  111OSM    H6T11408   6.025   5.052   6.137  0.5367  1.1343 -1.5111
  111OSM    C7S11409   6.002   5.252   6.042  0.0688  0.4381  0.3164
  111OSM    H7S11410   6.098   5.299   6.073 -0.1238  0.4245  0.9473
  111OSM    H7T11411   5.919   5.327   6.047 -1.9181 -1.5322 -0.9907
  111OSM    C8S11412   6.022   5.186   5.905  0.0756 -0.1145  0.0387
  111OSM    H8S11413   5.944   5.107   5.905 -0.4856  0.3685 -2.3655
  111OSM    H8T11414   6.126   5.152   5.888  0.3754  1.1050 -0.6893
  111OSM    C9S11415   5.985   5.282   5.787  0.4276  0.0727 -0.2111
  111OSM    H9S11416   6.059   5.364   5.783 -0.6280  0.9875 -2.5913
  111OSM    H9T11417   5.890   5.335   5.811  2.0683  3.5561 -0.7761
  111OSM   C10S11418   5.963   5.217   5.653  0.9568 -0.7016  0.2108
  111OSM   H10S11419   5.953   5.298   5.578  2.1683  0.6726  1.4599
  111OSM   H10T11420   5.872   5.153   5.656  2.0988 -2.3701  0.3289
  111OSM   C11S11421   6.081   5.126   5.608  0.2819 -0.2462  0.9184
  111OSM   H11S11422   6.089   5.038   5.676  0.5741 -3.3308 -2.7390
  111OSM   H11T11423   6.176   5.181   5.626  1.6049 -1.9525 -0.5060
  111OSM   C12S11424   6.056   5.056   5.469 -0.7796 -0.0134 -0.6008
  111OSM   H12S11425   5.964   4.996   5.488  0.9023 -2.6257 -0.2450
  111OSM   H12T11426   6.129   4.975   5.452 -1.7604 -1.1269  0.3105
  111OSM   C13S11427   6.042   5.140   5.339 -0.3339  1.3329 -0.1372
  111OSM   H13S11428   5.945   5.195   5.337 -1.6795 -0.9553 -1.1918
  111OSM   H13T11429   6.045   5.071   5.252  0.2337  0.3738  0.6251
  111OSM   C14S11430   6.140   5.254   5.332 -0.7061 -0.2196 -0.0653
  111OSM   H14S11431   6.235   5.227   5.381 -1.0923 -0.1200  0.7513
  111OSM   H14T11432   6.098   5.344   5.381 -0.3258  0.4007 -0.8543
  111OSM   C15S11433   6.187   5.287   5.185 -0.5670  0.2900  0.3046
  111OSM   H15S11434   6.248   5.203   5.145  0.6403  0.4267  1.7754
  111OSM   H15T11435   6.260   5.370   5.182  0.9577 -0.9582 -3.0588
  111OSM   C16S11436   6.069   5.328   5.093 -0.1712  0.5886 -0.5973
  111OSM   H16S11437   6.016   5.418   5.131  0.9102  0.6459  0.8621
  111OSM   H16T11438   5.994   5.246   5.086 -0.0357  0.4552 -0.5005
  111OSM   C17S11439   6.117   5.362   4.955 -1.0597  0.2101  0.2390
  111OSM   H17S11440   6.199   5.437   4.955 -1.3921  0.5819 -0.4097
  111OSM   H17T11441   6.035   5.413   4.900  0.4727  2.3875 -0.1552
  111OSM   C18S11442   6.160   5.237   4.873  0.6571  0.1874 -0.3028
  111OSM   H18S11443   6.249   5.183   4.912 -1.3162 -2.2563  1.1049
  111OSM   H18T11444   6.177   5.261   4.765  1.7604 -0.4976 -0.2958
  111OSM   H18U11445   6.078   5.163   4.866  2.0640 -1.2752 -3.2642
  111OSM    C1F11446   6.324   5.491   6.484  0.1313  0.5003 -0.4250
  111OSM     OF11447   6.405   5.417   6.531  0.2433 -0.3912  0.0018
  111OSM    C2F11448   6.365   5.627   6.439 -0.0585 -0.6887  0.2815
  111OSM    H2F11449   6.367   5.704   6.519  1.6334  2.5447 -2.5942
  111OSM    H2G11450   6.294   5.669   6.365 -1.8324 -1.3200  1.5750
  111OSM    C3F11451   6.501   5.633   6.370  0.0590 -0.1847 -0.0145
  111OSM    H3F11452   6.500   5.570   6.279 -3.6556  0.2371 -0.4470
  111OSM    H3G11453   6.574   5.582   6.436  1.1272  0.9151 -0.3042
  111OSM    C4F11454   6.563   5.771   6.335  1.0490 -0.3880  0.4764
  111OSM    H4F11455   6.666   5.752   6.295 -0.4503 -0.7693 -3.7442
  111OSM    H4G11456   6.566   5.832   6.427 -1.1147 -1.8789  1.6211
  111OSM    C5F11457   6.481   5.837   6.218  0.1844 -0.4456 -0.2953
  111OSM    H5F11458   6.531   5.932   6.189 -0.5136  0.0716  0.1607
  111OSM    H5G11459   6.383   5.880   6.248  1.4588  1.9815  0.6737
  111OSM    C6F11460   6.474   5.760   6.093  0.3122  0.0723 -0.3026
  111OSM    H6F11461   6.404   5.823   6.033 -1.5858 -3.4273 -2.0513
  111OSM    H6G11462   6.424   5.662   6.094 -0.2741  0.3600 -0.8937
  111OSM    C7F11463   6.603   5.748   6.016  0.0985 -0.5585 -0.4198
  111OSM    H7F11464   6.666   5.664   6.052  0.8720  0.9548  1.9320
  111OSM    H7G11465   6.673   5.827   6.049  0.6865 -0.4966 -1.7642
  111OSM    C8F11466   6.594   5.733   5.865 -0.0435 -0.3144  0.2946
  111OSM    H8F11467   6.549   5.632   5.851 -0.4671 -0.1833  0.6887
  111OSM    H8G11468   6.690   5.706   5.815 -0.7735 -1.9473 -0.3380
  111OSM    C9F11469   6.519   5.844   5.794  0.0642 -0.8025  0.2432
  111OSM    H9F11470   6.489   5.929   5.858 -1.8684 -1.7397  0.6805
  111OSM   C10F11471   6.489   5.839   5.668 -0.0007 -0.0892 -0.3677
  111OSM   H10F11472   6.422   5.915   5.624  1.5883  1.6077  0.0600
  111OSM   C11F11473   6.518   5.715   5.583  0.2303  0.0459  0.6092
  111OSM   H11F11474   6.447   5.636   5.615 -0.6611 -0.4085 -2.1789
  111OSM   H11G11475   6.620   5.673   5.584  0.6124  0.7931 -1.4643
  111OSM   C12F11476   6.503   5.766   5.436  0.2057 -0.9164 -0.0882
  111OSM   H12F11477   6.562   5.854   5.403 -0.5297 -0.3566  0.0642
  111OSM   H12G11478   6.396   5.794   5.424 -0.3512 -3.5873 -2.2751
  111OSM   C13F11479   6.529   5.658   5.332 -0.5342  0.4471 -0.4904
  111OSM   H13F11480   6.463   5.680   5.245  1.2868 -0.6945 -2.2523
  111OSM   H13G11481   6.498   5.559   5.372  1.0755  0.9287  2.2006
  111OSM   C14F11482   6.681   5.641   5.296  0.4749  0.0875 -0.0057
  111OSM   H14F11483   6.745   5.636   5.386  0.4541 -0.1769 -0.0044
  111OSM   H14G11484   6.702   5.743   5.257 -0.0024  0.4064  0.5491
  111OSM   C15F11485   6.705   5.532   5.188 -0.2131 -0.1023 -0.1358
  111OSM   H15F11486   6.635   5.445   5.194 -0.3149  0.0397  0.8039
  111OSM   H15G11487   6.806   5.499   5.221 -0.4321  0.9130  1.6168
  111OSM   C16F11488   6.703   5.586   5.048  0.2024 -0.4528  0.1315
  111OSM   H16F11489   6.779   5.667   5.055 -0.9668  0.6756  0.1792
  111OSM   H16G11490   6.601   5.619   5.020  0.0938 -0.1108  0.9135
  111OSM   C17F11491   6.748   5.487   4.941  0.4179  0.3645  0.5585
  111OSM   H17F11492   6.681   5.400   4.956 -0.7390  1.3707  1.3798
  111OSM   H17G11493   6.855   5.464   4.961  0.6710  0.1670 -0.8519
  111OSM   C18F11494   6.745   5.540   4.804 -0.1854 -0.2978  0.2124
  111OSM   H18F11495   6.787   5.467   4.731  0.3917  0.5370 -0.3096
  111OSM   H18G11496   6.812   5.627   4.789  0.1739 -0.6146 -0.0586
  111OSM   H18H11497   6.641   5.568   4.775 -0.3125 -0.6849  0.2825
  112OSM      N11498   2.612   1.484   7.407 -0.2752 -0.1799  0.2172
  112OSM    C1511499   2.634   1.567   7.289  0.1359 -0.1264 -0.0004
  112OSM   H15A11500   2.543   1.563   7.231  1.3394 -0.9164 -1.8918
  112OSM   H15B11501   2.703   1.529   7.216 -1.3453 -2.8015 -0.1370
  112OSM   H15C11502   2.629   1.671   7.318 -0.6612 -0.3673  0.7999
  112OSM    C1411503   2.477   1.513   7.466  1.2133 -0.1975 -0.0956
  112OSM   H14A11504   2.456   1.448   7.550  0.4365  1.4264  1.0158
  112OSM   H14B11505   2.408   1.478   7.391  1.6483 -0.8962 -0.1857
  112OSM   H14C11506   2.470   1.617   7.494  2.8680  0.5180 -2.0204
  112OSM    C1311507   2.610   1.338   7.360 -0.3931 -0.2270 -0.1918
  112OSM   H13A11508   2.709   1.309   7.326  0.4869  1.8218  0.4534
  112OSM   H13B11509   2.555   1.330   7.268  0.3949 -2.6113 -0.5360
  112OSM   H13C11510   2.564   1.274   7.434 -0.9217  0.4839  0.1074
  112OSM    C1211511   2.725   1.493   7.510 -0.2335 -0.5290  0.0669
  112OSM   H12A11512   2.818   1.467   7.461  0.6582  2.6471 -0.1624
  112OSM   H12B11513   2.705   1.412   7.579  0.1015 -1.4098 -0.8416
  112OSM    C1111514   2.749   1.632   7.579 -0.2141  0.4552 -0.4031
  112OSM   H11A11515   2.809   1.610   7.669  1.2080 -0.9886 -1.6452
  112OSM   H11B11516   2.649   1.661   7.620  0.3793  1.4387  0.4055
  112OSM      P11517   2.921   1.813   7.513 -0.0023  0.2872 -1.0090
  112OSM    O1311518   2.889   1.932   7.598 -0.2213 -0.9008 -0.1518
  112OSM    O1411519   3.031   1.728   7.565  0.0097  0.2017  0.4330
  112OSM    O1111520   2.946   1.856   7.365  0.3485 -1.2547 -0.1293
  112OSM    O1211521   2.799   1.731   7.493 -0.2343 -0.5009 -0.4952
  112OSM    C1S11522   2.871   1.801   7.259 -0.2552 -0.1447  0.0553
  112OSM    H1S11523   2.763   1.824   7.265 -0.5815 -1.5267 -0.2055
  112OSM    H1T11524   2.890   1.692   7.258  0.4260 -0.0499  1.3706
  112OSM     NF11525   2.830   1.806   7.023 -0.2851  0.5501  0.2344
  112OSM    HNF11526   2.870   1.740   6.959  0.0469  0.4276  0.5644
  112OSM    C2S11527   2.916   1.863   7.126  0.1275 -0.2027 -0.0141
  112OSM    H2S11528   2.883   1.969   7.130  0.2505 -0.1936  1.1795
  112OSM    C3S11529   3.069   1.854   7.104  0.6972 -0.2054 -0.0126
  112OSM    H3S11530   3.077   1.745   7.085 -0.8440 -0.2923 -0.3292
  112OSM     O311531   3.155   1.875   7.217 -0.6309 -0.0422 -0.0048
  112OSM    HO311532   3.095   1.872   7.291 -0.2416 -2.0192  0.2835
  112OSM    C4S11533   3.102   1.936   6.979  0.2825 -0.0354 -0.7547
  112OSM    H4S11534   3.090   1.878   6.887  1.6878  1.1369 -1.7343
  112OSM    C5S11535   3.147   2.060   6.981 -0.0698 -0.0367  0.0861
  112OSM    H5S11536   3.163   2.116   7.074 -0.4445 -0.8896  0.6751
  112OSM    C6S11537   3.183   2.140   6.853 -0.3330  0.6085  0.3737
  112OSM    H6S11538   3.285   2.182   6.853 -0.3317  0.6049  0.4279
  112OSM    H6T11539   3.125   2.235   6.852 -1.7392 -0.2153 -0.7083
  112OSM    C7S11540   3.149   2.072   6.724 -0.1275  1.2442  0.1825
  112OSM    H7S11541   3.040   2.053   6.729  0.1496 -0.3314  0.6094
  112OSM    H7T11542   3.205   1.978   6.707 -1.2134  0.5156  0.5154
  112OSM    C8S11543   3.183   2.158   6.605  0.5087 -0.6542 -0.2508
  112OSM    H8S11544   3.289   2.190   6.604 -0.1756  1.7509 -1.7449
  112OSM    H8T11545   3.132   2.256   6.603 -1.4932 -1.6523 -1.7449
  112OSM    C9S11546   3.142   2.085   6.472 -0.4205 -0.1850  0.2230
  112OSM    H9S11547   3.034   2.059   6.472 -0.6891  0.8853  0.1038
  112OSM    H9T11548   3.208   1.996   6.473  1.1809  0.9715  0.6670
  112OSM   C10S11549   3.173   2.161   6.351  0.0585  0.6382  0.8199
  112OSM   H10S11550   3.275   2.204   6.362  1.8072 -1.9351 -3.2326
  112OSM   H10T11551   3.104   2.241   6.318  1.2349  1.4807  0.3037
  112OSM   C11S11552   3.167   2.062   6.229  0.4394 -0.0628 -0.0030
  112OSM   H11S11553   3.059   2.037   6.215  0.2066  1.4246 -1.0805
  112OSM   H11T11554   3.214   1.964   6.253 -0.8292 -0.6444  0.2378
  112OSM   C12S11555   3.226   2.122   6.100  0.3514 -0.5234 -0.4866
  112OSM   H12S11556   3.330   2.158   6.118  0.3126 -0.5464 -0.2245
  112OSM   H12T11557   3.154   2.200   6.066  0.3258 -0.9343 -1.4249
  112OSM   C13S11558   3.234   2.017   5.989  0.1268  0.2905  0.4124
  112OSM   H13S11559   3.133   1.987   5.954  0.2421  0.0589  0.2806
  112OSM   H13T11560   3.283   1.925   6.027 -2.1073 -0.8817  0.6019
  112OSM   C14S11561   3.311   2.062   5.868  0.4629 -0.4021  0.3565
  112OSM   H14S11562   3.415   2.081   5.900 -0.0981  0.6389  1.7040
  112OSM   H14T11563   3.275   2.161   5.833  2.3831  1.1920  2.5500
  112OSM   C15S11564   3.315   1.961   5.747  0.0687  0.0030 -0.6145
  112OSM   H15S11565   3.315   1.861   5.797  2.4046 -0.6317 -1.7214
  112OSM   H15T11566   3.411   1.970   5.691  0.2820 -3.8360 -1.1787
  112OSM   C16S11567   3.194   1.964   5.660  0.2977 -0.4962  0.6844
  112OSM   H16S11568   3.170   2.071   5.645 -0.5547 -0.4903  1.9077
  112OSM   H16T11569   3.098   1.927   5.701  0.5594 -0.1971  1.5822
  112OSM   C17S11570   3.228   1.907   5.522  0.2076  0.0302 -0.3380
  112OSM   H17S11571   3.252   1.801   5.545 -2.9955 -1.1308 -1.6862
  112OSM   H17T11572   3.313   1.952   5.467  0.4362  0.7028  0.5518
  112OSM   C18S11573   3.100   1.898   5.430  0.6852  0.7129  0.9117
  112OSM   H18S11574   3.134   1.844   5.340  0.0528  1.5089  0.1763
  112OSM   H18T11575   3.073   1.998   5.390  0.8694  0.6385  0.6027
  112OSM   H18U11576   3.022   1.844   5.487 -1.0781  1.1698 -0.9555
  112OSM    C1F11577   2.699   1.826   7.020  0.3528  0.5140 -0.1700
  112OSM     OF11578   2.637   1.906   7.094 -0.0646  0.3293  0.1520
  112OSM    C2F11579   2.633   1.731   6.924  0.4495  0.0380 -0.6757
  112OSM    H2F11580   2.543   1.684   6.968  1.4592 -0.9840  0.3487
  112OSM    H2G11581   2.710   1.652   6.910  0.8407 -0.2372  2.4135
  112OSM    C3F11582   2.586   1.794   6.790 -0.5323 -0.4796  0.6959
  112OSM    H3F11583   2.673   1.841   6.739 -1.9826 -1.2838 -2.8137
  112OSM    H3G11584   2.518   1.873   6.829 -0.6863 -0.6587  0.7957
  112OSM    C4F11585   2.523   1.698   6.687 -0.2900 -0.1598 -0.0143
  112OSM    H4F11586   2.421   1.672   6.721 -0.4673 -1.1440 -1.2495
  112OSM    H4G11587   2.599   1.619   6.670  0.2108  0.7326 -2.2442
  112OSM    C5F11588   2.499   1.764   6.555  0.1755  0.1656 -0.5393
  112OSM    H5F11589   2.435   1.853   6.576 -0.4663 -0.2974 -0.4950
  112OSM    H5G11590   2.439   1.687   6.501 -2.4735  0.9516  1.0787
  112OSM    C6F11591   2.631   1.806   6.479  0.2101  0.3579  0.8304
  112OSM    H6F11592   2.672   1.720   6.421 -0.4806 -0.9426  2.1960
  112OSM    H6G11593   2.714   1.843   6.543  0.2231 -0.8459  1.5530
  112OSM    C7F11594   2.601   1.917   6.376  0.6001 -0.0540 -0.0824
  112OSM    H7F11595   2.696   1.935   6.321  1.2724 -1.4108  0.5769
  112OSM    H7G11596   2.570   2.013   6.424 -0.8697 -0.2978 -0.4870
  112OSM    C8F11597   2.485   1.875   6.284 -0.2542 -0.0617  0.3310
  112OSM    H8F11598   2.459   1.960   6.216 -0.0165  0.9285  1.4389
  112OSM    H8G11599   2.394   1.855   6.345 -0.6207 -1.6635 -0.6948
  112OSM    C9F11600   2.531   1.765   6.195 -0.4659  0.0564  0.3094
  112OSM    H9F11601   2.637   1.742   6.183 -0.6875 -0.5681 -0.5811
  112OSM   C10F11602   2.443   1.702   6.113  0.2865  0.1004 -0.3807
  112OSM   H10F11603   2.475   1.623   6.044  0.2707  1.8371 -2.4645
  112OSM   C11F11604   2.290   1.707   6.134 -0.4967  0.4471  0.4036
  112OSM   H11F11605   2.258   1.782   6.209 -2.1102  1.2173 -0.9913
  112OSM   H11G11606   2.256   1.609   6.174 -0.3431 -0.5478 -1.7219
  112OSM   C12F11607   2.205   1.735   6.002  0.0287  0.5153 -0.8255
  112OSM   H12F11608   2.097   1.724   6.025  0.5746 -1.5606  1.0163
  112OSM   H12G11609   2.242   1.656   5.933  0.3318 -2.0848  2.0945
  112OSM   C13F11610   2.222   1.873   5.935 -0.4148 -0.1901 -0.5695
  112OSM   H13F11611   2.331   1.883   5.917 -0.2531 -1.0163 -0.1239
  112OSM   H13G11612   2.203   1.954   6.009 -0.9714  1.9654 -2.9249
  112OSM   C14F11613   2.138   1.882   5.800 -0.3445 -0.3692  0.3304
  112OSM   H14F11614   2.110   1.779   5.772 -1.7715 -0.0008  0.3499
  112OSM   H14G11615   2.198   1.937   5.724 -2.7675  2.4590  0.2703
  112OSM   C15F11616   2.017   1.974   5.827  0.1352 -0.4020  0.1350
  112OSM   H15F11617   2.047   2.081   5.837  1.4064 -0.8998  2.4201
  112OSM   H15G11618   1.966   1.944   5.921  1.5535 -1.3480  0.6493
  112OSM   C16F11619   1.920   1.965   5.713  0.5228 -0.1709  0.0412
  112OSM   H16F11620   1.873   1.866   5.729  2.5333 -1.0320  0.9740
  112OSM   H16G11621   1.972   1.978   5.615 -0.4142  0.5041 -0.3748
  112OSM   C17F11622   1.820   2.085   5.708  0.1725 -0.1334 -0.4181
  112OSM   H17F11623   1.877   2.180   5.709 -0.7559  0.4348  0.2896
  112OSM   H17G11624   1.766   2.083   5.805  2.0897  0.8614  0.7217
  112OSM   C18F11625   1.721   2.063   5.591  0.7532 -0.3549  0.1751
  112OSM   H18F11626   1.665   2.157   5.571 -1.6285 -1.4349  1.3660
  112OSM   H18G11627   1.651   1.985   5.629 -1.8118  0.9667 -1.5059
  112OSM   H18H11628   1.770   2.024   5.499  1.2576  0.2018  0.2030
  113OSM      N11629   6.561   4.190   7.491  0.2909  0.0679  0.7660
  113OSM    C1511630   6.455   4.130   7.571 -1.2228 -0.2644 -0.1089
  113OSM   H15A11631   6.492   4.033   7.601 -1.2075  0.0068  0.7621
  113OSM   H15B11632   6.362   4.107   7.521 -0.5196 -1.3548 -0.9511
  113OSM   H15C11633   6.430   4.182   7.662  1.5242  1.9534 -0.4858
  113OSM    C1411634   6.521   4.322   7.434  0.3558  0.1893  0.3126
  113OSM   H14A11635   6.431   4.300   7.379  0.3918 -1.0108  0.6953
  113OSM   H14B11636   6.591   4.356   7.359  1.2195  0.1325  1.0702
  113OSM   H14C11637   6.506   4.399   7.508  0.5454 -0.1674  0.7253
  113OSM    C1311638   6.685   4.214   7.569 -0.1756 -0.9977 -0.2606
  113OSM   H13A11639   6.756   4.257   7.500 -1.1033 -0.1734 -0.7342
  113OSM   H13B11640   6.721   4.123   7.613 -0.5730 -0.0413  2.1740
  113OSM   H13C11641   6.658   4.283   7.648  1.2759 -0.1617 -0.4652
  113OSM    C1211642   6.592   4.090   7.377 -0.0532 -0.0554 -0.0289
  113OSM   H12A11643   6.495   4.051   7.351 -1.0298  2.7581 -1.0214
  113OSM   H12B11644   6.647   4.004   7.411  1.0646  1.0063  0.9566
  113OSM    C1111645   6.675   4.131   7.253  0.2497  0.0876  0.1320
  113OSM   H11A11646   6.625   4.217   7.203  0.3292 -0.4788 -0.9304
  113OSM   H11B11647   6.680   4.043   7.186 -0.6837 -0.6178  0.9612
  113OSM      P11648   6.917   4.054   7.300 -0.2314  0.4007  0.0112
  113OSM    O1311649   7.037   4.128   7.343 -0.2773 -0.6017  0.3062
  113OSM    O1411650   6.866   3.949   7.390 -0.1339  0.3568  0.2372
  113OSM    O1111651   6.935   3.989   7.156 -0.3138 -0.4925  0.1461
  113OSM    O1211652   6.810   4.168   7.272  0.1553 -0.3624  0.3112
  113OSM    C1S11653   6.961   4.067   7.038  0.0735  0.0703  0.2420
  113OSM    H1S11654   7.049   4.133   7.055  0.9644 -1.0028 -0.1254
  113OSM    H1T11655   6.871   4.128   7.015  0.4400  0.3899 -0.3624
  113OSM     NF11656   7.019   4.059   6.798 -0.2096 -0.0224  0.2010
  113OSM    HNF11657   6.949   4.069   6.728 -1.1714 -1.8641  0.8201
  113OSM    C2S11658   6.976   3.979   6.908  0.0182  0.3983 -0.0307
  113OSM    H2S11659   7.044   3.894   6.929 -1.3083 -0.6469  0.1943
  113OSM    C3S11660   6.845   3.898   6.880 -0.8397  0.1008 -0.5090
  113OSM    H3S11661   6.761   3.966   6.856 -3.1433 -2.0165  0.9782
  113OSM     O311662   6.779   3.830   6.995  0.2628 -0.5351 -0.5376
  113OSM    HO311663   6.824   3.877   7.066 -0.5821 -0.5886  0.0579
  113OSM    C4S11664   6.851   3.812   6.752  0.8517  0.7757 -0.7915
  113OSM    H4S11665   6.821   3.863   6.660 -0.4367 -0.3164 -1.0218
  113OSM    C5S11666   6.878   3.683   6.749  0.5169  0.3760  0.6917
  113OSM    H5S11667   6.905   3.633   6.844 -1.8848  1.0222  1.8176
  113OSM    C6S11668   6.896   3.612   6.618  0.3148  0.2153 -0.1962
  113OSM    H6S11669   6.836   3.520   6.606  1.5684 -0.7945  0.9525
  113OSM    H6T11670   7.001   3.576   6.623  0.1589 -0.2188 -0.0560
  113OSM    C7S11671   6.876   3.689   6.481  0.0284  0.5875 -0.0007
  113OSM    H7S11672   6.943   3.777   6.472 -1.0558  1.2057 -2.8981
  113OSM    H7T11673   6.774   3.733   6.473  1.1733  3.2141 -1.2340
  113OSM    C8S11674   6.906   3.611   6.355 -0.0372  0.0144  0.2307
  113OSM    H8S11675   6.843   3.520   6.367 -0.9696  0.7762  1.2719
  113OSM    H8T11676   7.014   3.587   6.345 -0.1789 -0.6737  0.3336
  113OSM    C9S11677   6.854   3.690   6.233 -0.8912  0.2935 -0.2618
  113OSM    H9S11678   6.919   3.780   6.233  0.9062 -0.9385 -1.7747
  113OSM    H9T11679   6.748   3.719   6.251 -0.3511  2.1226  0.1691
  113OSM   C10S11680   6.882   3.623   6.095  0.6711  0.0191  0.3504
  113OSM   H10S11681   6.794   3.556   6.091 -1.2318  2.2570  1.7250
  113OSM   H10T11682   6.984   3.580   6.103  0.3038 -0.7081  1.3080
  113OSM   C11S11683   6.870   3.715   5.977 -0.4824  0.6815  0.8586
  113OSM   H11S11684   6.953   3.789   5.968  1.5347 -1.7417 -2.8801
  113OSM   H11T11685   6.773   3.769   5.979 -0.0999  1.3811  1.1035
  113OSM   C12S11686   6.874   3.618   5.846  0.1280 -0.9123  0.0422
  113OSM   H12S11687   6.809   3.531   5.870 -1.3081  0.1189  0.0522
  113OSM   H12T11688   6.974   3.571   5.834  0.3389 -0.4853  0.1199
  113OSM   C13S11689   6.845   3.693   5.714 -0.3027 -0.1537  0.5957
  113OSM   H13S11690   6.904   3.787   5.710 -0.8801  0.2068  0.5961
  113OSM   H13T11691   6.736   3.714   5.720 -0.3436  0.0886 -0.8030
  113OSM   C14S11692   6.868   3.608   5.590  0.2684  0.7037 -0.4632
  113OSM   H14S11693   6.829   3.506   5.609  0.6682 -0.1519 -3.5755
  113OSM   H14T11694   6.976   3.599   5.565 -0.0839 -2.6419 -1.2090
  113OSM   C15S11695   6.788   3.672   5.476  0.4682 -0.4632 -0.1853
  113OSM   H15S11696   6.791   3.783   5.478 -1.3611 -0.2647 -2.7599
  113OSM   H15T11697   6.683   3.656   5.511 -0.4830  1.2793 -2.0153
  113OSM   C16S11698   6.797   3.603   5.327  0.2467  0.5214 -0.3835
  113OSM   H16S11699   6.769   3.496   5.341  1.2377  0.2743 -0.1604
  113OSM   H16T11700   6.903   3.586   5.297  0.7002  1.4016  0.6490
  113OSM   C17S11701   6.716   3.673   5.225 -0.1939 -0.1814 -0.4774
  113OSM   H17S11702   6.736   3.618   5.131 -1.5205 -1.5405 -0.0038
  113OSM   H17T11703   6.748   3.778   5.212  1.3769 -0.2503  1.9580
  113OSM   C18S11704   6.562   3.668   5.250  0.5900  0.1667 -0.1046
  113OSM   H18S11705   6.531   3.562   5.262 -0.2436  0.6678  3.4691
  113OSM   H18T11706   6.505   3.706   5.162  0.2158  0.4943  0.2724
  113OSM   H18U11707   6.537   3.719   5.346  0.7836  2.9780 -1.4381
  113OSM    C1F11708   7.133   4.121   6.780 -0.9602  0.2448 -0.1220
  113OSM     OF11709   7.227   4.102   6.854  0.0963  0.1008 -0.0121
  113OSM    C2F11710   7.144   4.213   6.650  0.3844 -0.5143 -1.0074
  113OSM    H2F11711   7.137   4.318   6.685 -0.0705 -0.3981 -1.4341
  113OSM    H2G11712   7.056   4.195   6.585 -0.4126 -0.3026 -0.0150
  113OSM    C3F11713   7.270   4.197   6.568 -0.8567  0.6381 -0.3498
  113OSM    H3F11714   7.282   4.091   6.536 -1.5283  0.7466 -0.9593
  113OSM    H3G11715   7.361   4.229   6.624 -1.3568  0.8622  0.3552
  113OSM    C4F11716   7.277   4.282   6.443 -0.0137  0.1768 -0.1215
  113OSM    H4F11717   7.379   4.297   6.400  0.7777 -2.7149  0.5326
  113OSM    H4G11718   7.242   4.387   6.455 -0.2386  0.3097 -1.6442
  113OSM    C5F11719   7.194   4.219   6.331 -0.5233  1.0274 -0.3872
  113OSM    H5F11720   7.168   4.296   6.255  1.5460  2.5426  0.3483
  113OSM    H5G11721   7.099   4.174   6.370  0.6080 -1.6617 -0.5024
  113OSM    C6F11722   7.281   4.110   6.266  0.5937  0.0376 -0.1940
  113OSM    H6F11723   7.307   4.038   6.346  1.4037  1.0234  0.4454
  113OSM    H6G11724   7.375   4.145   6.218  0.3857  1.2775  0.2951
  113OSM    C7F11725   7.206   4.019   6.163  0.1893  0.1041 -0.0087
  113OSM    H7F11726   7.126   3.955   6.206  1.0644 -0.6745  0.4977
  113OSM    H7G11727   7.278   3.944   6.125 -1.1104 -1.3153  0.2233
  113OSM    C8F11728   7.147   4.092   6.036 -0.1215  0.2871 -0.5692
  113OSM    H8F11729   7.078   4.175   6.064  2.1819  1.0970  3.4993
  113OSM    H8G11730   7.081   4.014   5.993  0.2358 -1.9194  2.5853
  113OSM    C9F11731   7.266   4.134   5.955  0.5262 -1.3068  0.6188
  113OSM    H9F11732   7.321   4.216   6.004  0.7693 -0.8867 -0.3329
  113OSM   C10F11733   7.308   4.095   5.833 -0.6366  0.0046 -0.9281
  113OSM   H10F11734   7.404   4.135   5.796 -1.0810 -0.0144 -2.1279
  113OSM   C11F11735   7.251   3.999   5.730  0.2418 -0.1468 -0.6987
  113OSM   H11F11736   7.179   3.929   5.778 -0.2501 -0.4292 -1.8292
  113OSM   H11G11737   7.329   3.934   5.684 -1.2452 -1.0899 -2.0044
  113OSM   C12F11738   7.179   4.086   5.629 -0.2591 -0.0508  1.0960
  113OSM   H12F11739   7.250   4.148   5.570 -1.7873  0.7428 -0.0074
  113OSM   H12G11740   7.111   4.156   5.683  0.1223  1.7190 -0.5739
  113OSM   C13F11741   7.096   4.000   5.533 -0.0972  0.5936 -0.6071
  113OSM   H13F11742   7.030   4.073   5.481  1.3030  1.9446 -0.5474
  113OSM   H13G11743   7.033   3.930   5.592 -0.7068  0.8863 -0.9000
  113OSM   C14F11744   7.180   3.923   5.428  0.2677 -0.3097  0.7203
  113OSM   H14F11745   7.257   3.861   5.479 -0.5228 -0.0615  2.2576
  113OSM   H14G11746   7.249   3.992   5.375  2.5013 -2.0901  1.1467
  113OSM   C15F11747   7.106   3.841   5.321  0.2321  0.6154  0.3336
  113OSM   H15F11748   7.073   3.757   5.386 -1.1109  1.1914  0.4184
  113OSM   H15G11749   7.186   3.798   5.256  0.7838 -0.8503  1.9061
  113OSM   C16F11750   6.996   3.909   5.237 -0.2096 -0.5431 -0.1596
  113OSM   H16F11751   6.902   3.936   5.290  0.3457 -1.0051  1.0936
  113OSM   H16G11752   6.957   3.840   5.159  0.5335  0.3143 -1.3237
  113OSM   C17F11753   7.045   4.030   5.152 -0.8009 -0.3213 -0.1151
  113OSM   H17F11754   7.127   3.999   5.083 -0.9489  0.5371 -0.6955
  113OSM   H17G11755   7.092   4.100   5.225  1.2572 -1.3006 -0.4231
  113OSM   C18F11756   6.928   4.107   5.079 -0.2099  0.2585  0.1704
  113OSM   H18F11757   6.832   4.116   5.135 -1.3137 -1.3324 -1.3592
  113OSM   H18G11758   6.896   4.045   4.992  3.0356 -1.6369  0.1435
  113OSM   H18H11759   6.975   4.204   5.053  1.3123 -0.3182  0.6691
  114OSM      N11760   0.082   1.894   7.112 -0.0399 -0.1442 -0.5423
  114OSM    C1511761   0.161   2.014   7.071  0.5815 -0.3313 -0.4670
  114OSM   H15A11762   0.112   2.110   7.075  1.5964  0.3689 -2.8319
  114OSM   H15B11763   0.220   1.994   6.982  0.7672  0.1891 -0.4640
  114OSM   H15C11764   0.240   2.029   7.142  0.0195 -1.6863  0.4782
  114OSM    C1411765  -0.011   1.860   6.994  0.4706  0.0838 -0.3803
  114OSM   H14A11766  -0.053   1.760   6.997  2.4969 -0.9067 -2.0396
  114OSM   H14B11767   0.041   1.850   6.899 -0.4015 -2.9760 -0.6585
  114OSM   H14C11768  -0.087   1.937   6.989 -0.5408 -0.7791  0.9820
  114OSM    C1311769   0.170   1.775   7.131  0.0245 -0.8119 -0.3034
  114OSM   H13A11770   0.239   1.782   7.214  0.6350 -0.7394 -0.8031
  114OSM   H13B11771   0.231   1.750   7.045 -0.1167 -0.7875 -0.4108
  114OSM   H13C11772   0.105   1.693   7.156 -0.8740  0.2433  0.9350
  114OSM    C1211773   0.011   1.928   7.241 -0.3405  0.4298  0.0038
  114OSM   H12A11774   0.088   1.935   7.316  0.2221  1.0140 -0.6164
  114OSM   H12B11775  -0.051   1.844   7.270 -0.4927  1.0275  1.4744
  114OSM    C1111776  -0.084   2.052   7.263 -0.4425 -0.6326  0.5949
  114OSM   H11A11777  -0.018   2.139   7.241 -1.3968 -0.0390 -0.0066
  114OSM   H11B11778  -0.118   2.066   7.368 -0.7938 -1.3155  0.5755
  114OSM      P11779  -0.331   1.985   7.216  0.0410 -0.1505  0.4201
  114OSM    O1311780  -0.349   1.842   7.194 -0.2121 -0.0917  0.7008
  114OSM    O1411781  -0.355   2.012   7.356  0.2948 -0.1162 -0.4325
  114OSM    O1111782  -0.445   2.060   7.128 -0.1643 -0.4947  0.6324
  114OSM    O1211783  -0.192   2.047   7.170 -0.1206  0.0584 -0.1647
  114OSM    C1S11784  -0.416   2.082   6.986  0.2209 -0.3428 -0.9241
  114OSM    H1S11785  -0.495   2.025   6.932 -0.5703 -1.0184  0.8841
  114OSM    H1T11786  -0.319   2.036   6.957  1.4287  1.8192 -0.5218
  114OSM     NF11787  -0.323   2.254   6.841  0.0868  0.7214 -0.0784
  114OSM    HNF11788  -0.227   2.276   6.858  1.8062 -5.0071 -0.3435
  114OSM    C2S11789  -0.413   2.237   6.948 -0.2926  0.0652 -0.2819
  114OSM    H2S11790  -0.517   2.263   6.918 -0.5713 -0.8050 -0.1098
  114OSM    C3S11791  -0.387   2.334   7.070  0.3718 -0.2057  0.0551
  114OSM    H3S11792  -0.291   2.312   7.122  0.5615  0.6041  0.0704
  114OSM     O311793  -0.481   2.317   7.174  0.4702  0.4302  0.2301
  114OSM    HO311794  -0.514   2.230   7.151 -0.1732  0.6113  0.4364
  114OSM    C4S11795  -0.401   2.481   7.031  1.0143 -0.1728  0.0985
  114OSM    H4S11796  -0.499   2.513   6.995  0.5541  1.7194  2.7463
  114OSM    C5S11797  -0.307   2.575   7.040 -0.3329  0.6618 -0.3095
  114OSM    H5S11798  -0.207   2.538   7.071 -0.2067  1.4043  0.1798
  114OSM    C6S11799  -0.327   2.716   7.003 -0.3724  0.1671  0.0864
  114OSM    H6S11800  -0.248   2.767   7.062 -0.9453  0.7739  0.3327
  114OSM    H6T11801  -0.427   2.757   7.025 -0.9178 -0.4400 -1.1616
  114OSM    C7S11802  -0.305   2.742   6.853  0.0159  0.1946 -0.1787
  114OSM    H7S11803  -0.207   2.700   6.821 -0.7026 -0.8846 -1.0530
  114OSM    H7T11804  -0.309   2.851   6.836 -0.4405  0.1836 -0.1555
  114OSM    C8S11805  -0.417   2.688   6.768  0.1867 -0.2336  0.4995
  114OSM    H8S11806  -0.505   2.752   6.792 -0.5549 -0.7459 -0.7219
  114OSM    H8T11807  -0.443   2.580   6.775 -0.3350 -0.3105 -1.6999
  114OSM    C9S11808  -0.388   2.710   6.624 -0.0768  0.9356 -0.2077
  114OSM    H9S11809  -0.292   2.663   6.594  0.6719  2.7556 -0.8218
  114OSM    H9T11810  -0.371   2.816   6.595  1.1715  0.6817 -0.4646
  114OSM   C10S11811  -0.511   2.665   6.541 -0.2503  0.3606  0.6627
  114OSM   H10S11812  -0.599   2.729   6.563 -1.1675 -0.4270 -0.5786
  114OSM   H10T11813  -0.520   2.559   6.572 -0.3853 -0.2829 -1.3870
  114OSM   C11S11814  -0.474   2.672   6.393  0.1564 -0.4128 -0.8386
  114OSM   H11S11815  -0.390   2.608   6.359 -0.2299 -0.9878 -0.7269
  114OSM   H11T11816  -0.450   2.777   6.363 -1.3495 -0.8263 -3.9701
  114OSM   C12S11817  -0.598   2.663   6.294 -0.2015 -0.2176 -0.2834
  114OSM   H12S11818  -0.660   2.754   6.309  2.1778  1.1088  2.4116
  114OSM   H12T11819  -0.655   2.570   6.316  0.8435 -0.8819 -0.3080
  114OSM   C13S11820  -0.541   2.649   6.157 -0.5759  0.0365  0.4539
  114OSM   H13S11821  -0.617   2.623   6.081  1.4152 -2.2685 -0.8827
  114OSM   H13T11822  -0.487   2.552   6.153 -2.7145 -1.1886 -3.0987
  114OSM   C14S11823  -0.446   2.765   6.114  0.1291  0.8353 -0.3730
  114OSM   H14S11824  -0.355   2.753   6.176 -0.7007 -1.0549  0.5725
  114OSM   H14T11825  -0.504   2.858   6.132 -0.0443  0.8148 -0.7875
  114OSM   C15S11826  -0.423   2.754   5.962 -0.1949  0.4307 -0.2516
  114OSM   H15S11827  -0.408   2.852   5.912 -0.3787  0.3425 -0.4836
  114OSM   H15T11828  -0.511   2.709   5.911 -0.0142 -0.1515 -0.0660
  114OSM   C16S11829  -0.320   2.650   5.928  0.3191  0.4508 -0.8065
  114OSM   H16S11830  -0.361   2.550   5.954  0.3087  0.6731  0.0663
  114OSM   H16T11831  -0.222   2.665   5.977  0.0140 -2.4320  0.8587
  114OSM   C17S11832  -0.268   2.660   5.786 -0.0263 -0.0515  0.3500
  114OSM   H17S11833  -0.223   2.761   5.774  0.9048 -0.5170 -0.2355
  114OSM   H17T11834  -0.351   2.652   5.712 -0.0569 -1.5765  0.5102
  114OSM   C18S11835  -0.156   2.561   5.749  0.4758 -0.5074 -0.2120
  114OSM   H18S11836  -0.196   2.460   5.722 -0.9353  0.2018 -0.8982
  114OSM   H18T11837  -0.105   2.541   5.846 -0.2948  0.7749  0.4824
  114OSM   H18U11838  -0.094   2.611   5.672  0.4516  2.9022  1.7881
  114OSM    C1F11839  -0.359   2.217   6.720 -0.6315 -0.2270  0.5636
  114OSM     OF11840  -0.473   2.174   6.696  0.1099  0.3261  0.1477
  114OSM    C2F11841  -0.250   2.241   6.619  0.5581  0.2572 -0.6992
  114OSM    H2F11842  -0.170   2.164   6.622 -0.5948 -1.0038 -1.3256
  114OSM    H2G11843  -0.209   2.344   6.630  0.8992  0.2973 -2.1762
  114OSM    C3F11844  -0.307   2.234   6.478 -0.5228  0.4582 -0.0504
  114OSM    H3F11845  -0.410   2.275   6.471 -1.3555 -1.4376  0.5227
  114OSM    H3G11846  -0.327   2.130   6.445 -1.3537  0.4247  0.5265
  114OSM    C4F11847  -0.209   2.304   6.386 -0.1999  0.2153 -0.4911
  114OSM    H4F11848  -0.119   2.239   6.387 -0.3587 -0.0051 -0.3911
  114OSM    H4G11849  -0.187   2.405   6.426 -1.7652  0.2381  0.4054
  114OSM    C5F11850  -0.260   2.327   6.243 -0.1920 -0.4178  0.2176
  114OSM    H5F11851  -0.358   2.379   6.248 -0.7827 -0.9816 -3.0766
  114OSM    H5G11852  -0.277   2.227   6.196 -0.1789 -0.7645  0.9409
  114OSM    C6F11853  -0.159   2.406   6.156  0.2755  0.3284  0.4580
  114OSM    H6F11854  -0.157   2.514   6.182 -0.9103  1.5380 -3.6643
  114OSM    H6G11855  -0.212   2.404   6.059  1.1287  0.7894 -0.0370
  114OSM    C7F11856  -0.014   2.350   6.135  0.5282 -0.1944  0.3534
  114OSM    H7F11857   0.034   2.346   6.236 -0.3860  0.0461  0.8082
  114OSM    H7G11858   0.036   2.430   6.077 -1.4778  0.2004 -0.9031
  114OSM    C8F11859  -0.021   2.216   6.056  0.2891  0.1337  0.8807
  114OSM    H8F11860  -0.087   2.143   6.108 -0.0112  0.6342  1.2202
  114OSM    H8G11861   0.080   2.171   6.065  0.4217  0.2780  0.1463
  114OSM    C9F11862  -0.048   2.212   5.907  0.3138  0.0190  0.4346
  114OSM    H9F11863  -0.133   2.274   5.874 -0.9023 -1.5114  0.5676
  114OSM   C10F11864   0.015   2.157   5.807  0.1191  0.2785 -0.6118
  114OSM   H10F11865  -0.029   2.173   5.707 -1.8766 -0.8128  0.0261
  114OSM   C11F11866   0.133   2.062   5.798  0.1917 -0.7122 -0.4285
  114OSM   H11F11867   0.177   2.063   5.900 -2.4065  0.8389  0.7541
  114OSM   H11G11868   0.206   2.114   5.733  0.0232  2.2015  1.5065
  114OSM   C12F11869   0.093   1.924   5.751  0.3726  0.3449 -0.9027
  114OSM   H12F11870   0.048   1.924   5.649 -0.3509 -0.2955 -0.5959
  114OSM   H12G11871   0.013   1.888   5.820 -0.6628  0.6174 -1.9283
  114OSM   C13F11872   0.213   1.812   5.754  0.3879  0.0088 -0.2226
  114OSM   H13F11873   0.170   1.715   5.721  0.5307  0.1919 -0.9796
  114OSM   H13G11874   0.245   1.802   5.860  2.1524 -1.5217 -0.8300
  114OSM   C14F11875   0.341   1.849   5.681  0.5409  0.5102  0.0671
  114OSM   H14F11876   0.407   1.760   5.673  0.0006  0.1729 -0.7315
  114OSM   H14G11877   0.395   1.915   5.752  2.9952 -1.5016  0.2084
  114OSM   C15F11878   0.321   1.913   5.545  0.0147  0.1425  0.4345
  114OSM   H15F11879   0.309   2.023   5.549  1.8882  0.3637  1.1451
  114OSM   H15G11880   0.234   1.879   5.485 -2.0371  3.2726  1.3836
  114OSM   C16F11881   0.453   1.894   5.471  0.8634 -0.1018 -0.0354
  114OSM   H16F11882   0.463   1.790   5.435  0.3949 -0.4806  0.9038
  114OSM   H16G11883   0.544   1.913   5.533  1.0086 -0.3304 -0.1776
  114OSM   C17F11884   0.448   1.977   5.349 -0.4737 -0.3320 -0.3191
  114OSM   H17F11885   0.471   2.076   5.393  0.0905 -1.0469  1.0784
  114OSM   H17G11886   0.348   1.964   5.302 -0.7677 -2.5411  0.7879
  114OSM   C18F11887   0.565   1.948   5.255 -0.0514  0.0425  0.5925
  114OSM   H18F11888   0.571   2.032   5.183 -0.0682  0.8590  1.5119
  114OSM   H18G11889   0.552   1.850   5.205 -0.7461  0.4582 -0.0655
  114OSM   H18H11890   0.666   1.950   5.301 -0.2502 -2.0205  1.2079
  115OSM      N11891   4.773   4.296   7.476  0.6854  0.0669  0.0816
  115OSM    C1511892   4.839   4.383   7.576  0.2691  0.6094  0.9243
  115OSM   H15A11893   4.775   4.462   7.612 -1.1049 -0.6818  1.4540
  115OSM   H15B11894   4.920   4.436   7.529  0.6248  0.4820  1.3856
  115OSM   H15C11895   4.877   4.319   7.655  0.2255  1.2040  1.4338
  115OSM    C1411896   4.877   4.213   7.417  0.2846 -0.0306 -0.3049
  115OSM   H14A11897   4.839   4.165   7.329 -1.5163 -0.2862  0.5660
  115OSM   H14B11898   4.921   4.134   7.477  0.3208  0.4599  0.3313
  115OSM   H14C11899   4.956   4.280   7.386 -0.1127 -0.0017 -1.2840
  115OSM    C1311900   4.668   4.223   7.548  0.0320  0.7085 -0.1872
  115OSM   H13A11901   4.693   4.196   7.650 -4.5382 -0.2373  0.8945
  115OSM   H13B11902   4.635   4.133   7.499 -0.2710  1.6039 -1.6923
  115OSM   H13C11903   4.582   4.285   7.568 -0.8636 -0.2538 -0.9731
  115OSM    C1211904   4.707   4.368   7.359 -0.8018  0.8051 -0.1542
  115OSM   H12A11905   4.610   4.410   7.378 -0.0225  2.9045 -0.5202
  115OSM   H12B11906   4.680   4.291   7.289  0.9949 -0.5829  0.5849
  115OSM    C1111907   4.794   4.478   7.283 -0.6610 -0.0052  0.3033
  115OSM   H11A11908   4.749   4.494   7.183  0.5774  2.3679  0.0681
  115OSM   H11B11909   4.895   4.440   7.260 -0.3181  0.3576  1.1554
  115OSM      P11910   4.710   4.713   7.371  0.2902 -0.0015  0.0724
  115OSM    O1311911   4.578   4.655   7.398  0.0356  0.4777  0.1403
  115OSM    O1411912   4.759   4.812   7.468  0.1956 -0.3810  0.5093
  115OSM    O1111913   4.706   4.770   7.223 -0.1933 -0.2648 -0.0670
  115OSM    O1211914   4.816   4.595   7.358  0.0374 -0.3279  0.1096
  115OSM    C1S11915   4.829   4.801   7.155  0.4016  0.0970 -0.0696
  115OSM    H1S11916   4.893   4.711   7.159 -0.6804 -0.7274 -0.7561
  115OSM    H1T11917   4.883   4.884   7.207  1.3500  0.0995 -1.0184
  115OSM     NF11918   4.934   4.837   6.926  0.8578  0.1325 -0.4441
  115OSM    HNF11919   4.961   4.915   6.870 -1.6271  0.1630 -1.7102
  115OSM    C2S11920   4.807   4.834   7.002 -0.2051 -0.1154  0.2185
  115OSM    H2S11921   4.749   4.753   6.952 -1.3788 -0.3187  1.8236
  115OSM    C3S11922   4.703   4.955   6.970  0.6179 -0.1246  0.2285
  115OSM    H3S11923   4.773   5.040   6.983  1.6078 -0.9365  0.3939
  115OSM     O311924   4.595   4.969   7.062 -0.1425  0.3522  1.0725
  115OSM    HO311925   4.626   4.909   7.130  3.0556 -1.1361 -1.4738
  115OSM    C4S11926   4.666   4.954   6.822 -0.2857 -0.2520  0.5630
  115OSM    H4S11927   4.712   5.039   6.770  1.0426 -0.1931  1.7880
  115OSM    C5S11928   4.576   4.882   6.760  0.3920  0.1886 -0.3913
  115OSM    H5S11929   4.522   4.804   6.815 -0.1662  1.0816  0.3569
  115OSM    C6S11930   4.557   4.886   6.614  0.3823  0.2789 -0.3533
  115OSM    H6S11931   4.635   4.954   6.573  2.2546 -1.6043 -0.1092
  115OSM    H6T11932   4.456   4.931   6.611  0.0249 -0.3869  0.9822
  115OSM    C7S11933   4.583   4.747   6.534  0.3215 -0.0035  0.4490
  115OSM    H7S11934   4.532   4.667   6.593  0.0871 -2.1358 -2.4010
  115OSM    H7T11935   4.689   4.715   6.528  0.8478  0.9265  3.2652
  115OSM    C8S11936   4.517   4.756   6.387 -0.4652 -0.3003 -0.1485
  115OSM    H8S11937   4.573   4.840   6.340 -0.0105 -1.0664 -0.9921
  115OSM    H8T11938   4.413   4.791   6.404  0.1363  1.9934 -0.7734
  115OSM    C9S11939   4.542   4.636   6.296  0.0479  0.4140 -0.0428
  115OSM    H9S11940   4.494   4.550   6.347  2.0402 -1.4960 -1.2213
  115OSM    H9T11941   4.650   4.616   6.310  0.5243  3.1142  0.6871
  115OSM   C10S11942   4.492   4.653   6.153  0.1079 -0.6888 -0.5504
  115OSM   H10S11943   4.558   4.735   6.117  0.1382  0.2741  1.4955
  115OSM   H10T11944   4.387   4.690   6.161  0.5879  0.3337  3.3726
  115OSM   C11S11945   4.506   4.528   6.076 -0.7760  0.1764  0.3286
  115OSM   H11S11946   4.426   4.454   6.097 -0.4576  0.0902  1.3125
  115OSM   H11T11947   4.590   4.464   6.110 -0.7089  1.4495  2.7957
  115OSM   C12S11948   4.518   4.550   5.922  0.1285 -0.4784 -0.3707
  115OSM   H12S11949   4.520   4.447   5.880  0.3467 -0.7107  0.2060
  115OSM   H12T11950   4.618   4.594   5.903  0.0640  0.4523  1.2580
  115OSM   C13S11951   4.399   4.614   5.853 -0.5895  0.6403 -0.1848
  115OSM   H13S11952   4.368   4.714   5.888 -0.7649  1.4064 -2.3979
  115OSM   H13T11953   4.301   4.561   5.851 -1.0838  1.4686 -2.9725
  115OSM   C14S11954   4.444   4.628   5.701 -0.0312 -0.4224 -0.5991
  115OSM   H14S11955   4.462   4.526   5.662 -1.3396 -1.6422  1.7898
  115OSM   H14T11956   4.536   4.691   5.701 -1.6142  2.1048  1.2544
  115OSM   C15S11957   4.334   4.695   5.611 -0.8713  0.0915  0.8145
  115OSM   H15S11958   4.316   4.801   5.638  1.6652  0.7106  0.3183
  115OSM   H15T11959   4.238   4.641   5.627 -1.4841  0.5403 -1.0584
  115OSM   C16S11960   4.365   4.692   5.459 -1.1179 -0.1311 -0.3898
  115OSM   H16S11961   4.448   4.764   5.444 -0.7822 -0.0544  1.6342
  115OSM   H16T11962   4.276   4.731   5.405  0.0598  2.1385 -0.8154
  115OSM   C17S11963   4.403   4.556   5.391 -0.1403 -0.8194 -0.1063
  115OSM   H17S11964   4.312   4.492   5.384  0.3951 -1.3929 -2.5524
  115OSM   H17T11965   4.473   4.497   5.453 -1.6374 -1.5067  1.0082
  115OSM   C18S11966   4.456   4.560   5.246 -0.0903  0.2924  0.0736
  115OSM   H18S11967   4.466   4.460   5.197 -1.4265 -0.3179  0.9797
  115OSM   H18T11968   4.553   4.614   5.244  0.0778  0.0073  0.5718
  115OSM   H18U11969   4.384   4.616   5.181 -0.4097 -0.3949 -0.1800
  115OSM    C1F11970   4.994   4.728   6.904 -0.4895 -0.3615 -0.7353
  115OSM     OF11971   4.961   4.623   6.955  0.3089  0.1639 -0.7801
  115OSM    C2F11972   5.100   4.742   6.799  0.2129  0.5927  0.0481
  115OSM    H2F11973   5.161   4.650   6.808  1.9737  1.9179  2.6795
  115OSM    H2G11974   5.169   4.826   6.821  2.3700 -0.9511 -0.5922
  115OSM    C3F11975   5.051   4.749   6.644 -0.1586 -0.2571  0.4246
  115OSM    H3F11976   5.148   4.757   6.590  0.7541 -1.1616  1.8512
  115OSM    H3G11977   5.003   4.846   6.620  1.5111  0.1090 -1.7738
  115OSM    C4F11978   4.969   4.628   6.598  0.5336 -0.0836  0.1053
  115OSM    H4F11979   4.865   4.658   6.623  0.2514 -1.3077  0.4604
  115OSM    H4G11980   4.986   4.544   6.668 -1.3928 -1.2616 -0.7578
  115OSM    C5F11981   4.996   4.574   6.461 -0.2233  0.4036 -0.3629
  115OSM    H5F11982   4.930   4.485   6.450 -0.0915  0.3727 -0.9552
  115OSM    H5G11983   5.098   4.531   6.449  0.8545  2.9369 -1.1337
  115OSM    C6F11984   4.954   4.666   6.348 -0.2745 -0.1748  0.0696
  115OSM    H6F11985   5.042   4.731   6.329 -0.1456 -0.5416 -0.6628
  115OSM    H6G11986   4.872   4.731   6.384 -0.7101 -0.3362 -0.5998
  115OSM    C7F11987   4.907   4.590   6.216  0.1457 -0.2231  0.5239
  115OSM    H7F11988   4.824   4.525   6.250  0.9998 -1.3262  0.5532
  115OSM    H7G11989   4.980   4.526   6.162  1.5246  1.0094  0.8610
  115OSM    C8F11990   4.856   4.690   6.119 -1.2851  0.2099 -0.2589
  115OSM    H8F11991   4.799   4.767   6.176  0.8647  1.8773 -0.2566
  115OSM    H8G11992   4.785   4.631   6.057 -0.9602 -0.4946  0.0271
  115OSM    C9F11993   4.980   4.751   6.055 -0.7876 -0.1596  0.2474
  115OSM    H9F11994   5.048   4.800   6.126 -0.4890  0.9347 -0.7767
  115OSM   C10F11995   5.025   4.743   5.931 -0.1643 -0.3099  1.1139
  115OSM   H10F11996   5.126   4.781   5.908  0.3393 -2.1452  0.1229
  115OSM   C11F11997   4.961   4.656   5.826  0.0323  0.0101 -0.3882
  115OSM   H11F11998   4.931   4.563   5.879  0.0468  0.8831  1.1765
  115OSM   H11G11999   5.041   4.636   5.751 -0.0217 -0.1186 -0.4115
  115OSM   C12F12000   4.842   4.708   5.748 -0.2449 -0.7765  0.5808
  115OSM   H12F12001   4.766   4.748   5.819  1.2101 -0.0620  1.7951
  115OSM   H12G12002   4.786   4.630   5.693 -0.7395 -0.5258  0.7219
  115OSM   C13F12003   4.882   4.822   5.655 -0.2413 -0.4561  0.5487
  115OSM   H13F12004   4.978   4.799   5.603  0.2345  0.0279  1.1994
  115OSM   H13G12005   4.895   4.912   5.719  1.4229 -1.5503  1.8554
  115OSM   C14F12006   4.785   4.839   5.532 -0.1137  0.7257 -0.5379
  115OSM   H14F12007   4.688   4.871   5.574 -1.0384  0.1981 -2.1854
  115OSM   H14G12008   4.778   4.739   5.485 -0.4723  0.5015 -0.0148
  115OSM   C15F12009   4.839   4.950   5.435  0.4770  0.2977  0.1545
  115OSM   H15F12010   4.938   4.913   5.401  0.0145  0.5487 -1.5560
  115OSM   H15G12011   4.856   5.034   5.506  0.5072 -0.3574  0.9387
  115OSM   C16F12012   4.741   4.997   5.325 -0.0176 -0.1111 -0.3299
  115OSM   H16F12013   4.708   4.910   5.263 -1.8860 -1.1296  1.9201
  115OSM   H16G12014   4.787   5.083   5.272  0.8387 -0.3722 -0.0314
  115OSM   C17F12015   4.602   5.055   5.379 -0.2461  0.1794 -0.4887
  115OSM   H17F12016   4.638   5.132   5.451 -0.1687 -1.4099  1.2596
  115OSM   H17G12017   4.561   4.972   5.440 -0.6456  0.4187 -0.4294
  115OSM   C18F12018   4.497   5.111   5.280  0.1529 -0.5314 -0.0763
  115OSM   H18F12019   4.407   5.153   5.332  0.6393 -1.4280  1.5351
  115OSM   H18G12020   4.452   5.026   5.225  1.6416 -0.6464 -1.1759
  115OSM   H18H12021   4.539   5.184   5.208  0.3015 -1.0228 -0.4854
  116OSM      N12022   6.742   2.414   7.493  0.1141 -0.1213 -0.0025
  116OSM    C1512023   6.638   2.358   7.396 -0.0456 -1.2031  0.5326
  116OSM   H15A12024   6.581   2.281   7.446 -1.4557  1.0646  2.6957
  116OSM   H15B12025   6.685   2.315   7.310  1.7128 -1.4927  1.5848
  116OSM   H15C12026   6.571   2.439   7.371  0.6685 -0.5763  0.6076
  116OSM    C1412027   6.676   2.491   7.601 -0.5746 -0.5866 -0.2010
  116OSM   H14A12028   6.620   2.575   7.563 -0.0847 -0.2093 -0.0977
  116OSM   H14B12029   6.743   2.533   7.675 -0.8582 -0.6163  0.0798
  116OSM   H14C12030   6.605   2.441   7.667 -1.7100  1.4668  0.2184
  116OSM    C1312031   6.812   2.291   7.553 -0.0500 -0.3197 -0.6272
  116OSM   H13A12032   6.882   2.245   7.485  0.7732 -0.1701  0.1104
  116OSM   H13B12033   6.744   2.215   7.589  0.8339  0.0771  2.0783
  116OSM   H13C12034   6.852   2.326   7.647 -2.3574 -0.5524  0.5125
  116OSM    C1212035   6.839   2.502   7.421 -0.3627 -0.1300 -0.3475
  116OSM   H12A12036   6.913   2.542   7.488  1.1961  0.7980 -2.5138
  116OSM   H12B12037   6.793   2.596   7.392  1.8525  0.8095 -1.0628
  116OSM    C1112038   6.924   2.449   7.299  0.4100  0.6812 -0.3739
  116OSM   H11A12039   6.978   2.539   7.262 -1.1919  1.3562 -1.2117
  116OSM   H11B12040   6.858   2.410   7.218 -0.4685 -1.7424  1.4043
  116OSM      P12041   7.163   2.385   7.372 -0.2342 -0.1004  0.2512
  116OSM    O1312042   7.160   2.493   7.472 -0.4193 -0.3801  0.3609
  116OSM    O1412043   7.241   2.265   7.396  0.1339  0.3203  0.2145
  116OSM    O1112044   7.221   2.453   7.239 -0.0587  0.6323  0.4003
  116OSM    O1212045   7.015   2.348   7.333  0.0401  0.5104 -0.0120
  116OSM    C1S12046   7.236   2.381   7.117  0.1865  0.1660  0.2024
  116OSM    H1S12047   7.166   2.294   7.115  0.9836 -0.5202  1.1271
  116OSM    H1T12048   7.341   2.344   7.108  0.0769 -0.4934  1.3988
  116OSM     NF12049   7.183   2.398   6.880 -0.6989 -0.8626  0.3529
  116OSM    HNF12050   7.242   2.418   6.803  0.7181 -1.2909  1.3004
  116OSM    C2S12051   7.212   2.482   6.995  0.7198 -0.2388 -0.7878
  116OSM    H2S12052   7.128   2.553   7.012  0.7311  0.1634 -2.3301
  116OSM    C3S12053   7.332   2.586   6.991 -0.0935 -0.2713  0.0264
  116OSM    H3S12054   7.426   2.528   6.979  0.9899  1.3731  0.1728
  116OSM     O312055   7.354   2.651   7.114  0.2621 -0.0173  0.1289
  116OSM    HO312056   7.316   2.583   7.170  0.7454 -0.9886 -0.7053
  116OSM    C4S12057   7.328   2.693   6.882  0.5589  0.1050 -0.2566
  116OSM    H4S12058   7.249   2.769   6.886  1.2269  0.9585 -2.1879
  116OSM    C5S12059   7.422   2.716   6.788  0.3970  0.0711  0.2269
  116OSM    H5S12060   7.512   2.653   6.777 -0.8480 -1.4742 -2.2293
  116OSM    C6S12061   7.414   2.815   6.674 -0.2577 -0.2807 -0.0858
  116OSM    H6S12062   7.497   2.888   6.669  0.1809 -0.8547 -2.6656
  116OSM    H6T12063   7.323   2.878   6.687 -1.3770 -1.0968 -3.0482
  116OSM    C7S12064   7.404   2.741   6.546  0.6493  0.3631  0.1477
  116OSM    H7S12065   7.322   2.666   6.540  2.0659 -1.1645 -4.2928
  116OSM    H7T12066   7.503   2.692   6.529  0.7711  0.8497 -0.5949
  116OSM    C8S12067   7.395   2.838   6.425  0.6873  0.2252  0.2004
  116OSM    H8S12068   7.478   2.911   6.436 -0.9037  2.1051  0.3940
  116OSM    H8T12069   7.301   2.897   6.420 -1.0026 -2.4308 -1.6761
  116OSM    C9S12070   7.416   2.764   6.292  0.4786 -0.1503  0.3864
  116OSM    H9S12071   7.326   2.703   6.268 -0.5249  1.6409 -0.6443
  116OSM    H9T12072   7.506   2.700   6.302  0.7972  0.2763  0.2473
  116OSM   C10S12073   7.418   2.858   6.173  0.5187  0.2696  0.0821
  116OSM   H10S12074   7.511   2.918   6.177  0.2181  1.0134 -2.3264
  116OSM   H10T12075   7.338   2.934   6.184 -0.1537 -0.6070  1.6111
  116OSM   C11S12076   7.393   2.778   6.039 -0.2277  0.2903  0.0731
  116OSM   H11S12077   7.283   2.767   6.030 -0.4013  0.4297  1.7478
  116OSM   H11T12078   7.446   2.681   6.050  0.8328  0.8823  0.3329
  116OSM   C12S12079   7.445   2.857   5.924  0.8836 -0.6502 -0.1091
  116OSM   H12S12080   7.554   2.872   5.944  0.4539  0.7751  1.3439
  116OSM   H12T12081   7.400   2.958   5.922  0.2688 -0.9165  0.1224
  116OSM   C13S12082   7.442   2.795   5.788 -0.8158 -0.6934  0.2698
  116OSM   H13S12083   7.344   2.746   5.769 -0.7580 -1.0463  0.8671
  116OSM   H13T12084   7.512   2.709   5.786 -1.1734 -1.0943  2.4239
  116OSM   C14S12085   7.471   2.890   5.672 -1.1508 -0.5920 -0.2632
  116OSM   H14S12086   7.575   2.924   5.692 -0.7179 -1.6592 -0.6430
  116OSM   H14T12087   7.406   2.980   5.667 -2.8670 -1.5272  2.5929
  116OSM   C15S12088   7.474   2.817   5.535 -0.6408  0.0714  0.2898
  116OSM   H15S12089   7.376   2.768   5.516 -0.1972 -0.1096 -1.7542
  116OSM   H15T12090   7.541   2.729   5.540 -0.2935  0.3355  0.3026
  116OSM   C16S12091   7.509   2.901   5.417 -0.4539  0.2923  0.5431
  116OSM   H16S12092   7.610   2.946   5.423  0.9842 -2.7066  0.9842
  116OSM   H16T12093   7.431   2.980   5.409 -1.2092 -0.3811  1.0351
  116OSM   C17S12094   7.506   2.832   5.275 -0.6001  0.3214 -0.6167
  116OSM   H17S12095   7.400   2.814   5.246 -0.8057  1.6741 -0.7700
  116OSM   H17T12096   7.559   2.735   5.282 -0.8574  0.2635  0.6477
  116OSM   C18S12097   7.562   2.928   5.162  0.0348 -0.0024 -0.1696
  116OSM   H18S12098   7.600   2.859   5.084  1.3869 -1.2242  1.4891
  116OSM   H18T12099   7.649   2.987   5.196 -1.3603  1.6435  0.6918
  116OSM   H18U12100   7.473   2.987   5.130  1.5359  1.5554 -1.6414
  116OSM    C1F12101   7.092   2.300   6.869  0.0828  0.6703 -0.0404
  116OSM     OF12102   7.003   2.276   6.953 -0.0246  0.6642 -0.3467
  116OSM    C2F12103   7.110   2.212   6.750  0.1251  0.4592 -0.0450
  116OSM    H2F12104   7.140   2.109   6.779  0.1982  0.4951  0.0084
  116OSM    H2G12105   7.191   2.258   6.689  1.0843  0.0688  0.8947
  116OSM    C3F12106   6.984   2.199   6.664  1.1958  0.6676  0.5263
  116OSM    H3F12107   6.934   2.292   6.630  0.9826  0.3459 -0.0608
  116OSM    H3G12108   6.914   2.138   6.724 -1.1054 -1.1418 -3.5856
  116OSM    C4F12109   7.013   2.121   6.532  0.4716  0.3451 -0.4700
  116OSM    H4F12110   6.912   2.094   6.495  1.5638 -3.2231 -1.2002
  116OSM    H4G12111   7.066   2.030   6.567  0.7286  0.5281 -0.3795
  116OSM    C5F12112   7.091   2.194   6.417 -0.1588 -0.1247 -0.6403
  116OSM    H5F12113   7.191   2.211   6.462 -0.2445 -1.2310  0.0035
  116OSM    H5G12114   7.031   2.284   6.391 -1.1883 -0.6823 -0.2818
  116OSM    C6F12115   7.103   2.103   6.294  0.3900  0.0692  0.6205
  116OSM    H6F12116   7.145   2.167   6.213  2.0594  1.5261  2.5240
  116OSM    H6G12117   6.998   2.077   6.272  0.5767 -0.9176  0.8378
  116OSM    C7F12118   7.189   1.978   6.308 -0.1967 -1.0797  0.0937
  116OSM    H7F12119   7.137   1.916   6.384 -2.3062  0.9591  0.4416
  116OSM    H7G12120   7.290   2.009   6.342  0.2437 -2.0108 -0.3497
  116OSM    C8F12121   7.218   1.912   6.173  0.5631 -0.6202 -0.1688
  116OSM    H8F12122   7.263   1.991   6.109  1.5974 -0.9542  0.1297
  116OSM    H8G12123   7.115   1.909   6.130  1.4897 -2.0332 -2.4699
  116OSM    C9F12124   7.287   1.776   6.182  0.1000  0.0502 -0.1132
  116OSM    H9F12125   7.272   1.722   6.277 -0.3392 -2.7934 -1.6632
  116OSM   C10F12126   7.387   1.734   6.113 -0.4022  0.4757  0.5852
  116OSM   H10F12127   7.413   1.629   6.136 -2.7635 -0.4349 -0.5358
  116OSM   C11F12128   7.453   1.790   5.987  0.7318  0.3752  0.0789
  116OSM   H11F12129   7.540   1.857   6.002  0.3031  1.1872 -0.9160
  116OSM   H11G12130   7.382   1.856   5.933 -0.6578 -1.2807 -0.1878
  116OSM   C12F12131   7.508   1.674   5.902  0.2223  0.4357  0.1597
  116OSM   H12F12132   7.426   1.599   5.904 -0.5407  1.2207 -0.7091
  116OSM   H12G12133   7.591   1.619   5.951 -0.4438 -0.6258  0.1162
  116OSM   C13F12134   7.530   1.708   5.756  0.5631  0.9179  0.3985
  116OSM   H13F12135   7.438   1.762   5.724  1.5239  1.8093 -1.0211
  116OSM   H13G12136   7.540   1.611   5.703 -1.7739 -1.3659  3.8427
  116OSM   C14F12137   7.653   1.789   5.705  0.4737 -0.2396  0.2479
  116OSM   H14F12138   7.746   1.744   5.745  2.2558  1.9781 -1.0915
  116OSM   H14G12139   7.654   1.893   5.745  0.4066 -0.2540  0.2860
  116OSM   C15F12140   7.660   1.800   5.549  0.0521  0.0611 -0.2057
  116OSM   H15F12141   7.578   1.865   5.510 -0.8576 -0.0495  1.4200
  116OSM   H15G12142   7.649   1.695   5.515  0.8244 -0.3194  0.6733
  116OSM   C16F12143   7.795   1.869   5.497  0.8762  0.2927  0.2783
  116OSM   H16F12144   7.877   1.795   5.484 -0.1055 -0.7247 -0.3973
  116OSM   H16G12145   7.823   1.923   5.590 -0.6452 -0.7033  1.3599
  116OSM   C17F12146   7.774   1.970   5.376  0.2072  0.1716 -0.8412
  116OSM   H17F12147   7.735   2.067   5.414  0.2689 -0.6786  1.5524
  116OSM   H17G12148   7.693   1.926   5.313 -2.3184  4.1275 -0.6938
  116OSM   C18F12149   7.901   1.996   5.289  0.0070  0.3938 -0.2853
  116OSM   H18F12150   7.956   1.902   5.265 -0.7213 -0.4107  1.0604
  116OSM   H18G12151   7.969   2.058   5.351 -0.3628  0.0080  0.5258
  116OSM   H18H12152   7.861   2.049   5.200  0.9579  1.5841 -0.0257
  117OSM      N12153   5.984   5.639   7.159  0.2505 -0.2660 -0.1486
  117OSM    C1512154   6.075   5.755   7.204 -0.1497  0.0333 -0.2184
  117OSM   H15A12155   6.043   5.852   7.169  3.3188  1.4693  0.2869
  117OSM   H15B12156   6.173   5.740   7.164  0.9664  0.8030  2.0453
  117OSM   H15C12157   6.077   5.761   7.312 -0.6650  1.1306 -0.2579
  117OSM    C1412158   6.018   5.510   7.228  0.0925  0.0198 -0.4901
  117OSM   H14A12159   5.960   5.433   7.180 -1.2539  0.1346  0.9069
  117OSM   H14B12160   5.978   5.508   7.328  0.6265 -1.3538 -0.2806
  117OSM   H14C12161   6.124   5.491   7.237  0.3696  0.9931 -1.4193
  117OSM    C1312162   5.851   5.681   7.208 -0.0161 -0.4679  0.5420
  117OSM   H13A12163   5.788   5.594   7.214  0.6256 -0.9145  1.0952
  117OSM   H13B12164   5.812   5.755   7.141  0.2197 -2.7828 -2.3556
  117OSM   H13C12165   5.864   5.707   7.312 -1.8486  2.2919  0.1670
  117OSM    C1212166   5.983   5.636   7.006  0.0386  0.0161  0.5223
  117OSM   H12A12167   6.084   5.625   6.968  0.0884 -1.1751  0.9589
  117OSM   H12B12168   5.946   5.731   6.970  1.1613  1.1451  2.1978
  117OSM    C1112169   5.903   5.534   6.925  0.3216  0.7756  0.5434
  117OSM   H11A12170   5.927   5.427   6.947 -3.3013 -0.4058 -0.4977
  117OSM   H11B12171   5.932   5.555   6.820  0.3679  0.8435  0.5703
  117OSM      P12172   5.657   5.605   6.845  0.9369 -0.0635  0.6393
  117OSM    O1312173   5.527   5.554   6.891  0.1299 -0.2272 -0.6073
  117OSM    O1412174   5.673   5.753   6.851 -0.3644 -0.1639 -0.4893
  117OSM    O1112175   5.678   5.558   6.695 -0.0587  0.1280  0.4233
  117OSM    O1212176   5.764   5.543   6.941  0.2758 -0.0878 -0.3186
  117OSM    C1S12177   5.749   5.634   6.596  0.0017  0.3888 -0.1393
  117OSM    H1S12178   5.854   5.602   6.608 -0.0222 -0.5135 -1.9889
  117OSM    H1T12179   5.741   5.743   6.617 -1.1790  0.3111 -0.1214
  117OSM     NF12180   5.775   5.700   6.358 -0.5473  0.4416 -0.8772
  117OSM    HNF12181   5.718   5.757   6.299 -1.5015  0.6904  0.2590
  117OSM    C2S12182   5.724   5.596   6.445 -0.0929 -0.1951 -0.6614
  117OSM    H2S12183   5.774   5.498   6.431 -0.4945 -0.5582  0.3642
  117OSM    C3S12184   5.575   5.568   6.422  0.1298 -0.1504 -0.0969
  117OSM    H3S12185   5.532   5.668   6.444 -0.3483 -0.6888  1.5139
  117OSM     O312186   5.504   5.494   6.518  0.0520 -0.7613  0.0754
  117OSM    HO312187   5.549   5.508   6.602  1.3713  0.6155 -0.7970
  117OSM    C4S12188   5.558   5.516   6.285  0.1907  0.0952  0.2257
  117OSM    H4S12189   5.535   5.590   6.207 -0.7815  0.5549  0.9261
  117OSM    C5S12190   5.570   5.388   6.247 -0.1008  0.6657  0.5720
  117OSM    H5S12191   5.576   5.303   6.317  0.8652 -0.2556 -0.5777
  117OSM    C6S12192   5.582   5.335   6.107 -0.5012  0.1317 -0.4256
  117OSM    H6S12193   5.515   5.250   6.079 -3.4134  1.5856  1.5862
  117OSM    H6T12194   5.681   5.285   6.101 -0.4130  0.3925 -1.2293
  117OSM    C7S12195   5.564   5.439   5.997  0.0318 -0.1201 -1.0008
  117OSM    H7S12196   5.644   5.517   5.991  1.7711 -1.4098  2.5581
  117OSM    H7T12197   5.461   5.479   6.015  0.2795  0.4067 -0.7100
  117OSM    C8S12198   5.574   5.369   5.868 -0.6242  0.1205 -0.2124
  117OSM    H8S12199   5.493   5.293   5.863 -0.7057 -0.0751  2.6015
  117OSM    H8T12200   5.671   5.320   5.848 -1.1671 -1.8774  1.6678
  117OSM    C9S12201   5.552   5.468   5.746  0.0007  0.3425  0.1780
  117OSM    H9S12202   5.562   5.408   5.653 -2.8619 -0.4470  0.2808
  117OSM    H9T12203   5.639   5.538   5.747  0.7910 -0.6127  0.0809
  117OSM   C10S12204   5.418   5.546   5.752  0.2460 -0.2476 -0.6290
  117OSM   H10S12205   5.415   5.601   5.849  0.3333 -2.1394  0.5205
  117OSM   H10T12206   5.337   5.470   5.745  2.2466 -2.3720 -1.9268
  117OSM   C11S12207   5.396   5.657   5.648 -0.7570  1.0659  0.1046
  117OSM   H11S12208   5.404   5.602   5.552  0.7089  0.1837  0.6998
  117OSM   H11T12209   5.487   5.716   5.668 -0.0055 -0.7759  2.5830
  117OSM   C12S12210   5.259   5.726   5.646  0.2294  0.3391  0.0619
  117OSM   H12S12211   5.215   5.765   5.740  1.6203 -1.8427  1.7088
  117OSM   H12T12212   5.194   5.641   5.619 -1.1097  1.2424  0.3557
  117OSM   C13S12213   5.244   5.830   5.530  0.5023 -0.1911  0.0098
  117OSM   H13S12214   5.313   5.808   5.445  1.3666 -0.3486  0.7313
  117OSM   H13T12215   5.276   5.925   5.578 -0.8093  0.5071 -0.4418
  117OSM   C14S12216   5.104   5.859   5.482  0.5121  0.2352 -0.0648
  117OSM   H14S12217   5.036   5.868   5.570 -1.9174  0.0603 -1.8346
  117OSM   H14T12218   5.069   5.768   5.429 -2.2161  2.2889 -2.0623
  117OSM   C15S12219   5.074   5.985   5.394  0.2491 -0.5771  0.5914
  117OSM   H15S12220   4.979   5.975   5.338  0.2116  1.9027  0.0752
  117OSM   H15T12221   5.142   5.991   5.306 -3.2554 -0.8201 -2.3513
  117OSM   C16S12222   5.073   6.128   5.464 -0.6078  0.4634 -0.1916
  117OSM   H16S12223   5.046   6.205   5.388 -1.1671 -0.3226 -0.7986
  117OSM   H16T12224   5.177   6.145   5.499  0.5496 -3.9684 -0.8918
  117OSM   C17S12225   4.975   6.133   5.579 -0.1733  0.0398  0.3173
  117OSM   H17S12226   5.023   6.064   5.652 -1.4116 -0.2732  0.8813
  117OSM   H17T12227   4.876   6.090   5.552  0.2317  0.7516 -2.5597
  117OSM   C18S12228   4.962   6.267   5.647  0.2352 -0.2486 -0.9512
  117OSM   H18S12229   4.930   6.262   5.753  0.5033  4.7892 -0.3908
  117OSM   H18T12230   4.895   6.332   5.586  0.8944  0.3078 -1.0987
  117OSM   H18U12231   5.067   6.304   5.638  0.8878 -1.9884 -0.7748
  117OSM    C1F12232   5.907   5.713   6.347 -0.0652 -0.7142  0.3509
  117OSM     OF12233   5.989   5.645   6.412 -0.2843 -0.3054 -0.0230
  117OSM    C2F12234   5.961   5.815   6.250  1.0749 -0.2419 -0.6551
  117OSM    H2F12235   6.062   5.846   6.283 -0.1590 -0.1934  3.7745
  117OSM    H2G12236   5.884   5.895   6.259 -2.6342 -3.6262  1.2916
  117OSM    C3F12237   5.973   5.763   6.102  0.1098  0.1687 -0.5856
  117OSM    H3F12238   6.008   5.844   6.034  0.2902  1.2718  0.7728
  117OSM    H3G12239   5.878   5.732   6.052  0.2528  0.2460 -0.9065
  117OSM    C4F12240   6.058   5.633   6.093  0.6675 -0.3501 -0.6724
  117OSM    H4F12241   6.002   5.558   6.154 -1.8875  0.5542 -1.7541
  117OSM    H4G12242   6.165   5.633   6.124  0.8962 -0.5133 -1.4629
  117OSM    C5F12243   6.049   5.571   5.950 -0.0518 -0.5737  0.2981
  117OSM    H5F12244   5.943   5.547   5.926 -0.6219  0.9904  1.0653
  117OSM    H5G12245   6.113   5.481   5.943  0.6232  0.0079 -2.4399
  117OSM    C6F12246   6.101   5.671   5.844 -0.1575  1.0281 -0.6248
  117OSM    H6F12247   6.199   5.701   5.889 -0.5325 -1.0382  1.7529
  117OSM    H6G12248   6.040   5.764   5.850  0.3000  1.2445  2.8367
  117OSM    C7F12249   6.112   5.614   5.704  0.8159  0.1532  0.2471
  117OSM    H7F12250   6.021   5.556   5.678  1.9002 -0.6362 -1.9935
  117OSM    H7G12251   6.193   5.540   5.691  1.2694  1.1315 -3.8292
  117OSM    C8F12252   6.133   5.723   5.599  0.0892 -0.3007  0.0183
  117OSM    H8F12253   6.224   5.777   5.634 -1.5818  2.6709  0.1010
  117OSM    H8G12254   6.042   5.779   5.629  0.3499 -0.2630  0.7647
  117OSM    C9F12255   6.138   5.655   5.465 -0.3870  0.3577  0.2107
  117OSM    H9F12256   6.233   5.607   5.436 -1.2524 -0.1872 -1.9039
  117OSM   C10F12257   6.035   5.630   5.380 -0.1640 -0.0712 -1.2972
  117OSM   H10F12258   6.037   5.566   5.290 -0.2350  0.9973 -2.0832
  117OSM   C11F12259   5.892   5.677   5.390 -0.2008  0.6991  0.0497
  117OSM   H11F12260   5.869   5.718   5.290 -0.4513 -0.1686 -0.2601
  117OSM   H11G12261   5.903   5.762   5.461 -3.5071  0.3964  1.0905
  117OSM   C12F12262   5.781   5.578   5.433 -1.3378 -0.3828 -0.4644
  117OSM   H12F12263   5.687   5.635   5.449  0.1292  1.5515  1.9371
  117OSM   H12G12264   5.800   5.534   5.533 -0.7220 -0.1120 -0.4598
  117OSM   C13F12265   5.778   5.464   5.329 -0.3845 -0.7746 -0.4748
  117OSM   H13F12266   5.870   5.404   5.343 -1.1312 -1.8624  0.0424
  117OSM   H13G12267   5.771   5.507   5.227  2.9766 -0.5813 -0.7161
  117OSM   C14F12268   5.651   5.380   5.355  0.5094  0.4064  0.7431
  117OSM   H14F12269   5.557   5.439   5.347 -0.1221 -0.6302  0.2291
  117OSM   H14G12270   5.655   5.330   5.454  0.3227  1.4499  1.3000
  117OSM   C15F12271   5.644   5.270   5.253 -0.0307  0.0293  0.4185
  117OSM   H15F12272   5.576   5.186   5.280  2.4464 -1.7054  1.6353
  117OSM   H15G12273   5.741   5.217   5.245  0.4341  0.5286  2.1968
  117OSM   C16F12274   5.589   5.309   5.115  0.1451  0.3233  0.5311
  117OSM   H16F12275   5.637   5.400   5.074 -1.8037  0.3001 -2.0676
  117OSM   H16G12276   5.481   5.331   5.130 -0.3226  0.3863 -2.3346
  117OSM   C17F12277   5.595   5.197   5.010 -0.2369  0.4502 -0.2910
  117OSM   H17F12278   5.550   5.106   5.056 -0.2076 -0.2605 -1.6267
  117OSM   H17G12279   5.702   5.171   4.999 -0.1487 -0.4325  2.0098
  117OSM   C18F12280   5.522   5.217   4.874 -0.0739 -0.4067 -0.5411
  117OSM   H18F12281   5.583   5.291   4.818  0.0527  0.1053  0.2630
  117OSM   H18G12282   5.420   5.257   4.889  0.2983  1.4256 -2.5273
  117OSM   H18H12283   5.517   5.123   4.814 -3.0204 -0.9803  0.4672
  118OSM      N12284   6.623   3.392   7.674  0.2777  0.1366 -0.3494
  118OSM    C1512285   6.728   3.505   7.698 -0.3306  0.0001 -0.2879
  118OSM   H15A12286   6.825   3.461   7.683  0.1824  1.6683 -2.3783
  118OSM   H15B12287   6.720   3.540   7.800  0.3290 -0.7940  0.0487
  118OSM   H15C12288   6.705   3.592   7.638  0.1163  0.8475  0.7482
  118OSM    C1412289   6.611   3.363   7.526  0.1229  0.6692  0.3263
  118OSM   H14A12290   6.573   3.456   7.486 -0.7454  0.3316  0.3374
  118OSM   H14B12291   6.544   3.281   7.508  0.0844  0.7793 -0.0300
  118OSM   H14C12292   6.711   3.334   7.498 -0.5342 -2.5528  0.9718
  118OSM    C1312293   6.663   3.269   7.742 -0.2651  0.2363  0.3850
  118OSM   H13A12294   6.670   3.278   7.849 -0.8217 -2.8241  0.7630
  118OSM   H13B12295   6.760   3.238   7.705 -0.5172  1.3489 -1.2962
  118OSM   H13C12296   6.591   3.193   7.715  0.2447 -0.1212  0.0008
  118OSM    C1212297   6.488   3.435   7.736 -0.4555 -0.8004 -0.1295
  118OSM   H12A12298   6.486   3.423   7.843  0.4105  1.6006  0.2258
  118OSM   H12B12299   6.412   3.370   7.696 -1.1416 -0.2333  0.2216
  118OSM    C1112300   6.437   3.582   7.710  0.6478  0.0527 -0.1832
  118OSM   H11A12301   6.502   3.653   7.765 -0.8368  0.8421  0.6229
  118OSM   H11B12302   6.331   3.592   7.745 -0.3358  0.0251 -2.8979
  118OSM      P12303   6.434   3.755   7.521  0.3785 -0.0196 -0.4153
  118OSM    O1312304   6.325   3.830   7.590 -0.1245 -0.4896 -0.5081
  118OSM    O1412305   6.570   3.802   7.526 -0.1030  1.0235  0.1049
  118OSM    O1112306   6.396   3.736   7.370 -0.5443 -0.4496  0.2555
  118OSM    O1212307   6.436   3.614   7.571  0.4320 -0.2189 -0.0241
  118OSM    C1S12308   6.482   3.673   7.271  0.2548  0.0604  0.0976
  118OSM    H1S12309   6.482   3.563   7.288  0.4688 -0.3209 -2.0805
  118OSM    H1T12310   6.587   3.709   7.280  0.0969  0.3560  0.8421
  118OSM     NF12311   6.493   3.590   7.037  0.1247  0.0060  0.3739
  118OSM    HNF12312   6.562   3.629   6.977  0.1582  0.8176  0.9285
  118OSM    C2S12313   6.423   3.683   7.127  0.5008  0.9650  0.3655
  118OSM    H2S12314   6.314   3.661   7.133  0.4261  1.6467  2.1073
  118OSM    C3S12315   6.436   3.835   7.086 -0.6367 -0.1460  0.9215
  118OSM    H3S12316   6.543   3.865   7.085 -0.8864  0.7444 -0.0914
  118OSM     O312317   6.373   3.921   7.174 -0.5478 -0.3634 -0.0225
  118OSM    HO312318   6.373   3.864   7.251  0.0259  1.5729  1.5126
  118OSM    C4S12319   6.385   3.853   6.944 -0.1704  0.4726 -0.1670
  118OSM    H4S12320   6.290   3.801   6.924  0.8332 -1.0349 -1.3204
  118OSM    C5S12321   6.461   3.885   6.837  0.0548 -0.0265 -0.4880
  118OSM    H5S12322   6.561   3.930   6.848  0.4582 -0.8646 -0.5985
  118OSM    C6S12323   6.432   3.860   6.696 -0.3432  0.5557  0.1472
  118OSM    H6S12324   6.479   3.939   6.634 -0.6073  0.5672 -0.0402
  118OSM    H6T12325   6.325   3.875   6.672  0.0394  1.6606 -0.9649
  118OSM    C7S12326   6.465   3.716   6.640 -0.5047 -0.6792  0.7021
  118OSM    H7S12327   6.384   3.644   6.665 -0.6669 -1.5588 -2.0175
  118OSM    H7T12328   6.557   3.675   6.685  0.7935  1.3595  0.0456
  118OSM    C8S12329   6.482   3.708   6.484 -0.0130 -0.7786 -0.1363
  118OSM    H8S12330   6.579   3.756   6.460 -0.8252 -0.3157 -2.7804
  118OSM    H8T12331   6.399   3.759   6.431  1.5785  0.9898 -1.0449
  118OSM    C9S12332   6.473   3.559   6.443  0.0220 -0.4441  0.0017
  118OSM    H9S12333   6.377   3.521   6.485  0.4951 -0.6782  0.8992
  118OSM    H9T12334   6.558   3.501   6.485 -1.5923 -1.7895  1.5977
  118OSM   C10S12335   6.484   3.538   6.294  0.5828  0.2746 -0.5346
  118OSM   H10S12336   6.496   3.428   6.287  1.4167  0.0851  2.4984
  118OSM   H10T12337   6.587   3.569   6.265  1.5706 -1.1548  1.2671
  118OSM   C11S12338   6.389   3.604   6.201 -0.4041 -0.1885  0.0419
  118OSM   H11S12339   6.380   3.713   6.222  0.6341 -0.5379  2.6504
  118OSM   H11T12340   6.285   3.567   6.216 -0.9551  0.4116 -2.0444
  118OSM   C12S12341   6.421   3.588   6.052  0.1469  0.1152  0.2216
  118OSM   H12S12342   6.410   3.480   6.032  0.8701  0.3044 -1.3322
  118OSM   H12T12343   6.529   3.607   6.034 -0.1322 -0.0766 -1.9076
  118OSM   C13S12344   6.332   3.669   5.957  0.1212  0.2677 -0.3822
  118OSM   H13S12345   6.348   3.778   5.971 -0.8322  0.0541  3.8044
  118OSM   H13T12346   6.223   3.657   5.979 -0.0708  2.1678 -0.0946
  118OSM   C14S12347   6.349   3.644   5.803 -0.0541  0.1049 -0.4648
  118OSM   H14S12348   6.341   3.534   5.792  1.0424  0.1418 -1.9981
  118OSM   H14T12349   6.449   3.676   5.765  0.7577 -1.3207  0.3825
  118OSM   C15S12350   6.244   3.718   5.719 -0.3315  0.6934 -0.4147
  118OSM   H15S12351   6.286   3.820   5.723  1.2598  0.0368  1.1488
  118OSM   H15T12352   6.145   3.713   5.770 -0.1819  2.1802  0.0561
  118OSM   C16S12353   6.238   3.673   5.573 -0.0561 -0.0729 -0.9216
  118OSM   H16S12354   6.192   3.572   5.565  0.2296 -0.5637  2.3595
  118OSM   H16T12355   6.340   3.661   5.530  1.2989 -0.5228  2.1276
  118OSM   C17S12356   6.150   3.770   5.491 -0.1718 -0.2612  0.7158
  118OSM   H17S12357   6.192   3.871   5.506 -1.5935  0.6799 -1.1885
  118OSM   H17T12358   6.042   3.759   5.515 -0.8744  2.9233 -0.5924
  118OSM   C18S12359   6.157   3.743   5.340 -0.4201  0.6752  0.0517
  118OSM   H18S12360   6.117   3.832   5.287  0.7916  1.2286  0.0402
  118OSM   H18T12361   6.097   3.652   5.320  2.8910 -1.7585  0.3342
  118OSM   H18U12362   6.264   3.727   5.315 -0.2117 -0.3206  1.4457
  118OSM    C1F12363   6.470   3.461   7.026  0.2260 -0.3718 -0.2261
  118OSM     OF12364   6.383   3.406   7.092  0.2159  0.0240  0.5390
  118OSM    C2F12365   6.547   3.374   6.928  0.1306 -0.4552 -0.8227
  118OSM    H2F12366   6.633   3.432   6.887  0.6043 -0.4589  0.1430
  118OSM    H2G12367   6.477   3.356   6.843 -2.0141  0.1301  0.7387
  118OSM    C3F12368   6.603   3.240   6.983  0.1098 -0.1496 -0.3651
  118OSM    H3F12369   6.517   3.170   6.989  0.6827 -0.8193  0.2409
  118OSM    H3G12370   6.647   3.250   7.084  0.4523  3.0684 -0.7261
  118OSM    C4F12371   6.714   3.185   6.877  0.1650 -0.3778 -0.4169
  118OSM    H4F12372   6.752   3.094   6.927 -2.2361 -0.7651  0.8681
  118OSM    H4G12373   6.791   3.265   6.869  1.2045 -1.4425 -1.3538
  118OSM    C5F12374   6.659   3.122   6.743  0.1062 -0.1738 -0.2930
  118OSM    H5F12375   6.590   3.204   6.713  2.1470  1.8103  0.0933
  118OSM    H5G12376   6.600   3.029   6.759 -0.5529  0.4392  0.9776
  118OSM    C6F12377   6.774   3.111   6.638  0.5670  0.2884 -0.2937
  118OSM    H6F12378   6.860   3.055   6.681  0.7008  1.8054  1.5476
  118OSM    H6G12379   6.810   3.215   6.630 -1.6236  1.1701  0.3907
  118OSM    C7F12380   6.721   3.051   6.508 -0.1504 -0.0499 -0.9645
  118OSM    H7F12381   6.683   2.948   6.525 -0.2157 -0.1546 -1.7322
  118OSM    H7G12382   6.811   3.046   6.444  0.7438  1.5239  0.0842
  118OSM    C8F12383   6.615   3.131   6.427  0.6746 -0.0681 -0.5968
  118OSM    H8F12384   6.651   3.233   6.405  2.4369  0.3603  3.4056
  118OSM    H8G12385   6.522   3.144   6.487  0.2819  3.5487 -1.8104
  118OSM    C9F12386   6.577   3.049   6.312  0.0884 -0.1771 -0.6579
  118OSM    H9F12387   6.550   2.949   6.349 -0.1754  1.2929  3.6887
  118OSM   C10F12388   6.575   3.079   6.182  0.2724  0.4592  0.4796
  118OSM   H10F12389   6.549   2.996   6.114 -1.5900  0.9973  0.4714
  118OSM   C11F12390   6.597   3.219   6.125 -0.0485 -1.2821  0.1935
  118OSM   H11F12391   6.648   3.286   6.197 -0.6826 -3.0294  2.4016
  118OSM   H11G12392   6.491   3.254   6.120  0.4721  0.3334 -0.1383
  118OSM   C12F12393   6.683   3.244   6.008 -0.2952 -0.4480  0.0960
  118OSM   H12F12394   6.778   3.192   6.032 -1.0864 -1.7614  0.5460
  118OSM   H12G12395   6.687   3.351   5.980 -2.4889 -1.0633 -3.0854
  118OSM   C13F12396   6.622   3.185   5.886 -0.3118  0.6845  0.0143
  118OSM   H13F12397   6.515   3.214   5.883 -0.7375 -0.4931  2.0046
  118OSM   H13G12398   6.634   3.074   5.892  2.2300  0.6928 -2.5104
  118OSM   C14F12399   6.682   3.236   5.754 -0.5517  0.2471 -0.8506
  118OSM   H14F12400   6.793   3.238   5.764 -0.6860 -0.8150  1.5879
  118OSM   H14G12401   6.653   3.343   5.751  0.1660  0.5077  0.5164
  118OSM   C15F12402   6.637   3.152   5.639 -0.1139 -0.4372 -0.0011
  118OSM   H15F12403   6.528   3.135   5.654  0.1252  0.5325  3.8466
  118OSM   H15G12404   6.684   3.053   5.653 -1.3076 -0.8194  1.5214
  118OSM   C16F12405   6.670   3.214   5.503 -0.5035  0.6548 -0.3767
  118OSM   H16F12406   6.775   3.249   5.496  0.4126 -1.8443 -0.1549
  118OSM   H16G12407   6.600   3.301   5.497  0.0756  1.2492  1.0092
  118OSM   C17F12408   6.658   3.120   5.382 -0.8271 -0.2707  0.0675
  118OSM   H17F12409   6.736   3.041   5.378 -0.1352  0.3064  1.5548
  118OSM   H17G12410   6.673   3.188   5.296 -1.3640 -0.5491 -0.2518
  118OSM   C18F12411   6.527   3.046   5.363  0.4980 -0.1877  0.3030
  118OSM   H18F12412   6.514   2.979   5.451  1.6846  0.2841  0.8622
  118OSM   H18G12413   6.531   2.990   5.268  0.1062  2.6053 -1.4811
  118OSM   H18H12414   6.447   3.124   5.361  1.3059  0.7190  1.4461
  119OSM      N12415   1.089   1.630   7.086  0.4019 -0.2833  0.3564
  119OSM    C1512416   1.143   1.671   6.954  0.2529  0.2935  0.3592
  119OSM   H15A12417   1.212   1.602   6.909  0.1383 -0.0247  0.6636
  119OSM   H15B12418   1.194   1.766   6.960 -0.1971  0.6242 -0.7170
  119OSM   H15C12419   1.062   1.694   6.886 -0.5031 -2.6489  0.1526
  119OSM    C1412420   1.202   1.618   7.184  0.6883  0.3318  0.0042
  119OSM   H14A12421   1.285   1.562   7.145  0.8493  0.5398  0.0464
  119OSM   H14B12422   1.164   1.560   7.267 -0.1560 -0.6031 -0.9958
  119OSM   H14C12423   1.231   1.718   7.214  0.5667 -0.0567  1.4995
  119OSM    C1312424   0.990   1.724   7.138  0.1743 -0.0918 -0.0059
  119OSM   H13A12425   1.030   1.824   7.148  0.4447 -0.1067 -0.9120
  119OSM   H13B12426   0.969   1.697   7.241 -2.7966  2.2841  0.1526
  119OSM   H13C12427   0.895   1.733   7.087  0.6786  2.1044 -0.6437
  119OSM    C1212428   1.018   1.491   7.089  0.3668 -0.0509 -0.5431
  119OSM   H12A12429   0.979   1.482   7.189  1.5975  2.5780  0.2789
  119OSM   H12B12430   1.088   1.409   7.095  0.7181  0.0697 -2.4348
  119OSM    C1112431   0.903   1.449   6.998  0.1979  0.0766 -0.5531
  119OSM   H11A12432   0.813   1.511   7.019 -0.9166 -1.2644 -1.2492
  119OSM   H11B12433   0.861   1.352   7.033  1.4026  0.0602  0.9933
  119OSM      P12434   1.010   1.360   6.780 -0.1032 -0.0851  0.2321
  119OSM    O1312435   1.020   1.404   6.638  0.7326 -0.2292 -0.1457
  119OSM    O1412436   1.134   1.322   6.849  0.3080  0.0026 -0.5009
  119OSM    O1112437   0.923   1.232   6.777  0.0361  0.0461 -0.3957
  119OSM    O1212438   0.930   1.462   6.866  0.4878 -0.2195  0.1199
  119OSM    C1S12439   0.788   1.228   6.745  0.6257 -0.2004 -0.4517
  119OSM    H1S12440   0.730   1.297   6.810 -0.5043 -0.6172 -0.9806
  119OSM    H1T12441   0.739   1.132   6.772  0.4806 -0.2226 -0.7917
  119OSM     NF12442   0.609   1.250   6.580 -1.3231 -0.0082 -0.0013
  119OSM    HNF12443   0.562   1.163   6.578 -2.3410  0.5348 -0.4960
  119OSM    C2S12444   0.750   1.244   6.597 -0.2878 -1.4364  0.6832
  119OSM    H2S12445   0.798   1.333   6.551 -1.8619 -0.1986  1.3517
  119OSM    C3S12446   0.814   1.129   6.515  0.1800 -0.3370  0.0550
  119OSM    H3S12447   0.772   1.030   6.541 -0.1977 -0.1803  0.0595
  119OSM     O312448   0.959   1.116   6.538 -0.3010  0.3687  0.7946
  119OSM    HO312449   0.975   1.187   6.601  1.8459  1.1024 -0.4605
  119OSM    C4S12450   0.797   1.145   6.366  0.1886 -0.3208 -0.2593
  119OSM    H4S12451   0.866   1.222   6.330 -2.0246  1.6583 -0.5532
  119OSM    C5S12452   0.699   1.090   6.294  0.2478  0.4716  0.1737
  119OSM    H5S12453   0.635   1.017   6.346 -1.4673  2.4125  0.8948
  119OSM    C6S12454   0.669   1.091   6.142 -0.2663 -0.3601 -1.0399
  119OSM    H6S12455   0.569   1.130   6.115 -0.4284 -1.4110 -2.0230
  119OSM    H6T12456   0.679   0.986   6.106 -1.9507 -1.0320  0.2976
  119OSM    C7S12457   0.771   1.171   6.066  0.3730  0.3822 -0.4727
  119OSM    H7S12458   0.879   1.157   6.089  0.6439 -0.8498 -2.2605
  119OSM    H7T12459   0.737   1.277   6.071 -1.4306 -0.1879  0.0771
  119OSM    C8S12460   0.752   1.149   5.917  0.4563  0.3229  0.4329
  119OSM    H8S12461   0.644   1.149   5.890  0.6097  0.1372 -0.1929
  119OSM    H8T12462   0.783   1.046   5.890  0.9355  0.8795 -1.3154
  119OSM    C9S12463   0.826   1.251   5.837 -0.8482 -0.3427  0.2191
  119OSM    H9S12464   0.933   1.270   5.861 -0.6747  2.8280 -2.3430
  119OSM    H9T12465   0.779   1.351   5.846  1.3725  1.2080 -3.2191
  119OSM   C10S12466   0.821   1.212   5.684 -0.0635 -0.2098 -0.0481
  119OSM   H10S12467   0.716   1.199   5.651  0.3934  0.3526 -1.8439
  119OSM   H10T12468   0.872   1.115   5.671 -1.4505 -0.6650 -2.7277
  119OSM   C11S12469   0.880   1.318   5.588 -0.6182 -0.8315  0.5672
  119OSM   H11S12470   0.829   1.416   5.601 -2.3807 -1.5395 -0.6264
  119OSM   H11T12471   0.839   1.298   5.487 -1.4951  1.3941  0.4271
  119OSM   C12S12472   1.036   1.324   5.586  0.2221  0.2578 -0.2793
  119OSM   H12S12473   1.084   1.232   5.546  1.0332  0.3056  0.5564
  119OSM   H12T12474   1.069   1.320   5.692  0.0985 -2.1941 -0.2824
  119OSM   C13S12475   1.076   1.444   5.499 -0.2514 -0.1160 -0.5772
  119OSM   H13S12476   1.180   1.465   5.530 -0.2983  1.5491 -1.4527
  119OSM   H13T12477   1.017   1.533   5.529  0.0143 -0.4050  0.8772
  119OSM   C14S12478   1.068   1.419   5.347 -0.2474  0.0996 -0.2066
  119OSM   H14S12479   1.062   1.515   5.291  0.0593 -0.0767 -0.5456
  119OSM   H14T12480   0.978   1.356   5.329  0.6027 -2.6493  3.8924
  119OSM   C15S12481   1.179   1.328   5.295  0.4089 -0.0107  0.3022
  119OSM   H15S12482   1.170   1.238   5.359 -0.2066 -1.5687 -1.8452
  119OSM   H15T12483   1.274   1.384   5.302  0.7737 -0.1394 -2.5038
  119OSM   C16S12484   1.158   1.281   5.150  0.8394 -1.0496 -0.0450
  119OSM   H16S12485   1.178   1.358   5.072 -0.3337 -1.7601 -1.0860
  119OSM   H16T12486   1.052   1.252   5.137 -0.1981  1.8364  1.3405
  119OSM   C17S12487   1.245   1.159   5.099 -0.7631  0.3051 -0.5476
  119OSM   H17S12488   1.339   1.201   5.057 -0.3987  0.6750  0.5938
  119OSM   H17T12489   1.206   1.098   5.015  0.6889  0.9310 -1.7344
  119OSM   C18S12490   1.275   1.056   5.212 -0.1664  0.5590 -0.1643
  119OSM   H18S12491   1.307   0.957   5.171 -1.4103  1.5340 -3.8588
  119OSM   H18T12492   1.183   1.038   5.271 -0.7716  0.0117 -1.2514
  119OSM   H18U12493   1.346   1.100   5.285  0.0484 -1.3056  0.8185
  119OSM    C1F12494   0.542   1.366   6.582 -0.7559 -0.2647  0.4741
  119OSM     OF12495   0.597   1.467   6.615 -0.4186 -0.5180  0.0364
  119OSM    C2F12496   0.391   1.350   6.553  0.5523 -0.0545 -0.0123
  119OSM    H2F12497   0.341   1.376   6.649 -0.6819  3.0523 -1.3507
  119OSM    H2G12498   0.357   1.244   6.555  1.9963 -0.6435 -2.2192
  119OSM    C3F12499   0.338   1.435   6.436 -0.7375  0.0385 -0.3512
  119OSM    H3F12500   0.405   1.523   6.421  1.6281 -1.3972  1.2025
  119OSM    H3G12501   0.235   1.465   6.464 -1.0172 -0.4403 -0.8629
  119OSM    C4F12502   0.331   1.360   6.291 -0.1347  0.6407  0.0268
  119OSM    H4F12503   0.240   1.297   6.299  1.0327 -1.1738 -0.4950
  119OSM    H4G12504   0.416   1.289   6.283 -0.0538  0.3994  2.3018
  119OSM    C5F12505   0.315   1.460   6.181  0.2556 -0.5477 -0.0282
  119OSM    H5F12506   0.408   1.520   6.180  1.2253 -2.0164 -0.1935
  119OSM    H5G12507   0.226   1.521   6.208 -0.0382 -1.0033  0.0452
  119OSM    C6F12508   0.291   1.387   6.047 -0.0394 -0.0728 -0.2798
  119OSM    H6F12509   0.221   1.302   6.061 -0.5700  0.5422  0.9158
  119OSM    H6G12510   0.388   1.347   6.009  0.3003 -0.5371  1.0343
  119OSM    C7F12511   0.230   1.487   5.946  0.7304 -0.0051  0.0676
  119OSM    H7F12512   0.277   1.587   5.950 -0.1491  0.3902  1.2994
  119OSM    H7G12513   0.123   1.495   5.975  1.0086 -0.7095  1.3997
  119OSM    C8F12514   0.255   1.435   5.800  0.3123 -0.4149  0.3019
  119OSM    H8F12515   0.359   1.404   5.776 -0.1894 -0.0003 -2.9707
  119OSM    H8G12516   0.240   1.525   5.736 -1.1224  0.4337  1.7784
  119OSM    C9F12517   0.141   1.337   5.771 -0.6275  0.0386  0.1981
  119OSM    H9F12518   0.041   1.359   5.810 -0.1552 -2.6434  3.4233
  119OSM   C10F12519   0.161   1.214   5.713  0.0417  0.6967  0.5784
  119OSM   H10F12520   0.087   1.133   5.707 -1.3520  1.9796 -0.1089
  119OSM   C11F12521   0.298   1.169   5.656 -0.2265  0.4938  0.4652
  119OSM   H11F12522   0.342   1.094   5.724 -0.1922  0.2018  0.1269
  119OSM   H11G12523   0.368   1.253   5.639 -0.0291  0.7165  2.2050
  119OSM   C12F12524   0.273   1.099   5.521  0.1008 -0.5815 -0.1669
  119OSM   H12F12525   0.183   1.035   5.526 -0.2969  0.0689  1.8750
  119OSM   H12G12526   0.352   1.022   5.506  1.3805  0.8665 -1.1701
  119OSM   C13F12527   0.253   1.199   5.407  0.4606  0.0159  0.3143
  119OSM   H13F12528   0.344   1.263   5.403 -0.0542  0.7327 -0.0416
  119OSM   H13G12529   0.166   1.262   5.434  0.5183  0.1003  0.3039
  119OSM   C14F12530   0.234   1.131   5.269 -0.5891 -0.4154 -0.3758
  119OSM   H14F12531   0.132   1.091   5.253 -0.0574 -0.8689 -3.2139
  119OSM   H14G12532   0.300   1.043   5.253  0.3660 -0.0347  1.2418
  119OSM   C15F12533   0.287   1.216   5.151 -0.5300 -0.3225 -0.1236
  119OSM   H15F12534   0.389   1.257   5.168 -1.0751  0.7373  0.6779
  119OSM   H15G12535   0.233   1.313   5.147 -2.2899 -1.2852 -1.1113
  119OSM   C16F12536   0.282   1.143   5.005  0.1522  1.3180 -0.4866
  119OSM   H16F12537   0.283   1.219   4.924  1.1963 -0.5711 -2.3486
  119OSM   H16G12538   0.192   1.078   4.994 -1.2973  3.2619 -0.6051
  119OSM   C17F12539   0.411   1.058   4.978  0.2165  0.1874 -0.6740
  119OSM   H17F12540   0.420   0.997   5.070  0.3086  1.5191  0.2342
  119OSM   H17G12541   0.500   1.125   4.977 -0.3820  1.3123  3.3018
  119OSM   C18F12542   0.394   0.965   4.854 -0.3306 -0.0772  0.2734
  119OSM   H18F12543   0.485   0.913   4.818  1.1996  3.0983 -0.8221
  119OSM   H18G12544   0.352   1.013   4.763  0.8836 -5.8784 -3.8895
  119OSM   H18H12545   0.320   0.894   4.895  1.4091 -1.2081  1.6063
  120OSM      N12546   3.813   0.132   7.350 -0.6477 -0.5563 -0.6563
  120OSM    C1512547   3.772   0.274   7.380 -0.0663 -0.0074  0.0295
  120OSM   H15A12548   3.677   0.284   7.329  0.0091 -2.8925 -0.9068
  120OSM   H15B12549   3.844   0.348   7.349 -0.3552  0.4715  0.4801
  120OSM   H15C12550   3.755   0.284   7.486 -2.3922 -3.1304  0.1275
  120OSM    C1412551   3.951   0.109   7.405  0.0782 -0.2175  0.1972
  120OSM   H14A12552   3.975   0.003   7.409 -0.0043 -0.3988 -2.3507
  120OSM   H14B12553   3.957   0.143   7.507 -3.3239 -0.3992  0.5568
  120OSM   H14C12554   4.031   0.147   7.342 -0.4837 -0.0676 -0.4384
  120OSM    C1312555   3.729   0.037   7.433 -0.5410  0.6887  0.2898
  120OSM   H13A12556   3.630   0.057   7.396 -0.1867  1.0961 -0.4709
  120OSM   H13B12557   3.737   0.051   7.540  0.0340  5.4059 -0.1181
  120OSM   H13C12558   3.756  -0.064   7.407 -1.0202  0.3649  1.0180
  120OSM    C1212559   3.814   0.111   7.203 -0.1376  0.0902  0.0684
  120OSM   H12A12560   3.884   0.177   7.154  0.2455  0.7004  1.3848
  120OSM   H12B12561   3.718   0.137   7.161  0.8509  1.1205 -1.6622
  120OSM    C1112562   3.831  -0.031   7.152 -0.4914 -0.4876  0.1323
  120OSM   H11A12563   3.926  -0.073   7.190 -0.8178 -0.2441  1.2462
  120OSM   H11B12564   3.851  -0.010   7.045 -0.3223  1.1095  0.4582
  120OSM      P12565   3.709  -0.250   7.226 -0.1922 -0.1966  0.2578
  120OSM    O1312566   3.762  -0.253   7.365  0.0003 -0.0768 -0.0717
  120OSM    O1412567   3.578  -0.314   7.199 -0.1277  0.1994 -0.1203
  120OSM    O1112568   3.812  -0.316   7.132 -0.1360 -0.4707  0.0439
  120OSM    O1212569   3.713  -0.107   7.169 -0.4398  0.2075 -0.2919
  120OSM    C1S12570   3.763  -0.349   6.994 -0.2423  0.5398 -0.5845
  120OSM    H1S12571   3.750  -0.259   6.931 -2.3238  0.4205 -0.3876
  120OSM    H1T12572   3.664  -0.400   6.990  0.9994 -2.4220  1.8397
  120OSM     NF12573   3.791  -0.473   6.787 -0.2512  0.7934  0.2884
  120OSM    HNF12574   3.767  -0.568   6.768  1.7246 -0.3163  2.6626
  120OSM    C2S12575   3.859  -0.446   6.919  0.9571 -0.5794  0.9611
  120OSM    H2S12576   3.954  -0.395   6.893  0.2611  0.9985  1.4010
  120OSM    C3S12577   3.883  -0.574   7.010 -0.3099  0.6036 -0.4801
  120OSM    H3S12578   3.791  -0.634   7.019 -0.4612  0.2849 -3.3340
  120OSM     O312579   3.931  -0.553   7.144 -0.1271 -0.2972  0.4433
  120OSM    HO312580   3.895  -0.469   7.172 -1.8761 -1.1970  1.0481
  120OSM    C4S12581   3.972  -0.672   6.931  0.0936  0.1527  0.3245
  120OSM    H4S12582   3.932  -0.774   6.913 -0.3646  0.2034  1.0113
  120OSM    C5S12583   4.101  -0.657   6.891  0.1455 -0.4145 -0.5377
  120OSM    H5S12584   4.151  -0.562   6.915 -0.0921 -0.2088 -0.8527
  120OSM    C6S12585   4.179  -0.766   6.822 -0.0726  0.6934  0.2545
  120OSM    H6S12586   4.127  -0.859   6.855 -0.1063  0.4658 -0.4314
  120OSM    H6T12587   4.286  -0.772   6.855 -0.5464  0.9045  1.9441
  120OSM    C7S12588   4.169  -0.757   6.673 -0.1077 -0.2430 -0.2904
  120OSM    H7S12589   4.184  -0.652   6.640  0.8272  0.5726  2.4129
  120OSM    H7T12590   4.062  -0.776   6.652 -0.4210 -1.8957  2.2429
  120OSM    C8S12591   4.239  -0.870   6.592 -0.0187  0.2236 -0.0042
  120OSM    H8S12592   4.192  -0.964   6.629  2.4495 -0.6230  1.2628
  120OSM    H8T12593   4.343  -0.875   6.633 -0.6867 -1.0963  1.6422
  120OSM    C9S12594   4.214  -0.857   6.444  0.3550 -0.4408  0.3378
  120OSM    H9S12595   4.258  -0.761   6.410  1.1602 -0.5684  0.9659
  120OSM    H9T12596   4.103  -0.862   6.437  0.1209  3.1312 -0.2933
  120OSM   C10S12597   4.284  -0.967   6.357 -0.5670  0.4534  0.2126
  120OSM   H10S12598   4.262  -1.066   6.402  1.4288  0.2298  0.7976
  120OSM   H10T12599   4.394  -0.952   6.363 -0.0960 -2.9865  3.0948
  120OSM   C11S12600   4.250  -0.957   6.211  0.9324  0.3673 -0.7957
  120OSM   H11S12601   4.147  -0.991   6.188  0.9549 -0.5301  0.3668
  120OSM   H11T12602   4.311  -1.030   6.154 -1.6713 -1.3596 -1.5335
  120OSM   C12S12603   4.264  -0.821   6.140  0.4307  0.4136  0.2404
  120OSM   H12S12604   4.372  -0.793   6.144  0.2610  1.2429 -0.4982
  120OSM   H12T12605   4.208  -0.744   6.196  0.5327  0.0089  0.9009
  120OSM   C13S12606   4.227  -0.834   5.994 -0.6848  0.0911  0.0090
  120OSM   H13S12607   4.278  -0.749   5.943 -0.1067 -1.2034 -1.6521
  120OSM   H13T12608   4.121  -0.805   5.974 -0.7355  0.2223  0.4512
  120OSM   C14S12609   4.262  -0.959   5.922  0.0504  0.6128 -0.1832
  120OSM   H14S12610   4.207  -1.046   5.964  1.0359 -0.9871 -2.0282
  120OSM   H14T12611   4.367  -0.982   5.951  0.5929  2.3807 -0.6051
  120OSM   C15S12612   4.245  -0.956   5.771  0.8562 -0.3916  0.1993
  120OSM   H15S12613   4.304  -0.870   5.732  1.0925  0.2993  1.9972
  120OSM   H15T12614   4.136  -0.940   5.755  0.6991 -2.5719 -1.3156
  120OSM   C16S12615   4.283  -1.086   5.701  0.2677  0.2560  0.4904
  120OSM   H16S12616   4.214  -1.160   5.746  1.3595 -0.5072  0.9424
  120OSM   H16T12617   4.386  -1.118   5.724  0.4414 -0.0054 -0.6023
  120OSM   C17S12618   4.256  -1.081   5.550 -0.5124 -0.1624 -0.8014
  120OSM   H17S12619   4.343  -1.023   5.512 -0.5788 -0.4233 -1.3697
  120OSM   H17T12620   4.173  -1.010   5.527 -0.9044 -0.6011 -0.7663
  120OSM   C18S12621   4.250  -1.207   5.465 -0.7853  0.5549  0.5862
  120OSM   H18S12622   4.223  -1.190   5.359 -0.4581  0.4771  0.4876
  120OSM   H18T12623   4.183  -1.285   5.507 -1.6192 -0.2274 -2.0015
  120OSM   H18U12624   4.351  -1.254   5.463 -1.3403 -0.7430  1.5389
  120OSM    C1F12625   3.799  -0.385   6.687  0.0722  0.3906 -0.3206
  120OSM     OF12626   3.844  -0.276   6.702 -0.1728 -0.2705 -0.0878
  120OSM    C2F12627   3.740  -0.422   6.556  0.2855  0.0712 -0.1931
  120OSM    H2F12628   3.694  -0.330   6.513  1.7238  1.2053  0.5869
  120OSM    H2G12629   3.675  -0.510   6.574  0.4391  0.1191  0.6458
  120OSM    C3F12630   3.854  -0.448   6.456 -0.7366 -0.1015  0.3536
  120OSM    H3F12631   3.931  -0.522   6.485  1.4804  1.3190 -1.5542
  120OSM    H3G12632   3.907  -0.351   6.451  0.3591 -0.7119 -0.5297
  120OSM    C4F12633   3.799  -0.477   6.315 -0.2411  0.1501  0.2275
  120OSM    H4F12634   3.707  -0.418   6.297 -0.7771 -0.5350  0.6822
  120OSM    H4G12635   3.776  -0.586   6.310  0.6928 -0.0497 -0.0204
  120OSM    C5F12636   3.900  -0.452   6.207  0.2486 -0.5158 -0.0924
  120OSM    H5F12637   3.994  -0.499   6.245 -1.1420 -1.6551  2.1709
  120OSM    H5G12638   3.912  -0.342   6.197 -1.8609 -0.4442 -2.9401
  120OSM    C6F12639   3.888  -0.513   6.068  0.5171  0.2904  0.2114
  120OSM    H6F12640   3.783  -0.494   6.036  0.2776  0.1973  0.9088
  120OSM    H6G12641   3.906  -0.622   6.071  0.6582  0.2918 -0.4092
  120OSM    C7F12642   3.970  -0.448   5.963 -0.0085 -0.3949 -0.1059
  120OSM    H7F12643   4.074  -0.469   5.996 -0.3231 -1.2851  0.3760
  120OSM    H7G12644   3.953  -0.340   5.979  0.5774 -0.5906  2.1884
  120OSM    C8F12645   3.936  -0.495   5.823 -0.0379 -0.0062 -0.8304
  120OSM    H8F12646   3.826  -0.508   5.823 -0.0361 -0.5952  2.0966
  120OSM    H8G12647   3.978  -0.596   5.804  0.0324  0.0200 -0.8163
  120OSM    C9F12648   3.975  -0.403   5.718  0.2025 -0.5400  0.3740
  120OSM    H9F12649   3.937  -0.302   5.735  1.5431  0.2290 -0.9006
  120OSM   C10F12650   4.064  -0.428   5.615 -0.4677  0.0684  0.3902
  120OSM   H10F12651   4.080  -0.354   5.535  2.3671 -0.4229  0.3985
  120OSM   C11F12652   4.141  -0.559   5.589  0.0162  0.1848 -0.1278
  120OSM   H11F12653   4.174  -0.607   5.683  2.6347 -0.0064 -1.0564
  120OSM   H11G12654   4.231  -0.545   5.524 -0.4902 -0.2740 -0.9375
  120OSM   C12F12655   4.072  -0.657   5.503  0.3480 -0.0984 -0.1849
  120OSM   H12F12656   4.141  -0.723   5.446  1.3420 -0.4308  1.3339
  120OSM   H12G12657   4.010  -0.606   5.427  0.4676  1.9569  1.0217
  120OSM   C13F12658   3.977  -0.736   5.581  0.4106  0.5233 -0.2920
  120OSM   H13F12659   3.886  -0.679   5.608 -0.5251 -1.5127  1.0957
  120OSM   H13G12660   4.020  -0.772   5.676  1.2587  1.4646 -0.3077
  120OSM   C14F12661   3.916  -0.864   5.514 -0.0129  0.0937  0.7428
  120OSM   H14F12662   3.919  -0.952   5.582 -2.0135 -0.3931  0.2568
  120OSM   H14G12663   3.995  -0.884   5.439 -1.5226 -0.1987 -0.8212
  120OSM   C15F12664   3.785  -0.846   5.434  0.3864 -0.4748 -0.5037
  120OSM   H15F12665   3.789  -0.746   5.385  3.0865  0.2401  0.9408
  120OSM   H15G12666   3.700  -0.841   5.506  0.2778 -2.1269 -0.4742
  120OSM   C16F12667   3.746  -0.954   5.332 -0.3373 -0.2437 -0.1319
  120OSM   H16F12668   3.758  -1.057   5.373  2.1874 -0.6073 -1.5917
  120OSM   H16G12669   3.811  -0.951   5.243  1.4472  2.4747  1.1242
  120OSM   C17F12670   3.590  -0.957   5.294  0.2579 -0.5094 -0.5309
  120OSM   H17F12671   3.533  -0.939   5.388  0.1582  2.0901 -1.0282
  120OSM   H17G12672   3.570  -1.057   5.250  2.3203 -1.2896  0.2050
  120OSM   C18F12673   3.552  -0.849   5.189  0.7708 -0.1900  0.3344
  120OSM   H18F12674   3.584  -0.748   5.224  2.9781 -1.3252  1.8756
  120OSM   H18G12675   3.443  -0.842   5.169  1.2987  0.6206 -2.8023
  120OSM   H18H12676   3.608  -0.876   5.097 -2.9883 -2.3325 -1.5650
  121OSM      N12677   0.628   3.473   7.755 -0.2329  0.3274 -0.5638
  121OSM    C1512678   0.662   3.434   7.895 -0.0602  0.4656  0.0086
  121OSM   H15A12679   0.710   3.511   7.953 -0.5128  0.0812  0.9250
  121OSM   H15B12680   0.741   3.360   7.894  1.8450  2.4198 -1.7413
  121OSM   H15C12681   0.584   3.378   7.944 -0.1906 -0.5388 -1.3067
  121OSM    C1412682   0.505   3.555   7.753 -0.3148 -0.1008  0.3997
  121OSM   H14A12683   0.516   3.636   7.824 -1.8041  1.7937 -1.4122
  121OSM   H14B12684   0.416   3.499   7.779 -1.3217  2.6713  3.6874
  121OSM   H14C12685   0.500   3.618   7.666  2.2736 -0.1396  0.1396
  121OSM    C1312686   0.733   3.554   7.681  0.2270 -0.0274  0.0156
  121OSM   H13A12687   0.739   3.650   7.730  5.2564  0.2424 -0.6173
  121OSM   H13B12688   0.695   3.569   7.581  2.8678 -1.0928 -1.2479
  121OSM   H13C12689   0.831   3.511   7.668  0.1016 -0.6379  0.9898
  121OSM    C1212690   0.597   3.348   7.676 -0.0188  1.1570  0.1042
  121OSM   H12A12691   0.684   3.292   7.645 -1.5159 -0.7859 -0.7674
  121OSM   H12B12692   0.558   3.382   7.582 -1.9860  1.1157  0.8517
  121OSM    C1112693   0.490   3.235   7.722 -0.6044 -0.3391  0.3888
  121OSM   H11A12694   0.502   3.200   7.827 -1.1066  0.3351  0.6763
  121OSM   H11B12695   0.511   3.139   7.670  2.1132 -0.1719  1.0242
  121OSM      P12696   0.259   3.301   7.601 -0.2120  0.2108  0.0504
  121OSM    O1312697   0.137   3.208   7.619 -0.5723 -0.4032 -0.2223
  121OSM    O1412698   0.228   3.445   7.584 -0.6758  0.3294  0.2731
  121OSM    O1112699   0.334   3.246   7.471  0.4357  0.4718 -0.4448
  121OSM    O1212700   0.354   3.280   7.716 -0.0094  0.4492 -0.8676
  121OSM    C1S12701   0.315   3.116   7.428  0.0390  0.2896  0.0631
  121OSM    H1S12702   0.213   3.082   7.401 -0.4568  0.8693  1.1168
  121OSM    H1T12703   0.359   3.043   7.500 -2.2099  1.8993  3.3525
  121OSM     NF12704   0.352   2.969   7.226 -0.5350  0.1344 -0.2393
  121OSM    HNF12705   0.399   2.889   7.263 -0.1992  0.5523  0.2583
  121OSM    C2S12706   0.389   3.092   7.292 -0.1625 -0.2355  0.2055
  121OSM    H2S12707   0.362   3.175   7.223  2.0553  0.5633  0.2112
  121OSM    C3S12708   0.543   3.113   7.309 -0.3973 -0.1635 -0.2358
  121OSM    H3S12709   0.583   3.035   7.377 -0.0235 -1.7857 -2.2198
  121OSM     O312710   0.563   3.247   7.353 -0.1720  0.1785  0.2472
  121OSM    HO312711   0.472   3.265   7.378 -0.4576  0.0419 -0.6701
  121OSM    C4S12712   0.601   3.112   7.172  0.3724  0.3272 -0.0064
  121OSM    H4S12713   0.587   3.211   7.127 -0.8533  0.6186  0.9593
  121OSM    C5S12714   0.659   3.015   7.101  0.2012  0.2624 -0.3093
  121OSM    H5S12715   0.668   2.916   7.149  0.6023  1.0882  1.4062
  121OSM    C6S12716   0.719   3.025   6.964 -0.1206  0.1816  0.8443
  121OSM    H6S12717   0.650   2.971   6.896  0.0277 -1.3274  1.8385
  121OSM    H6T12718   0.819   2.977   6.963 -0.2558 -0.1145 -0.0506
  121OSM    C7S12719   0.750   3.167   6.915 -0.7765  0.3063 -0.1894
  121OSM    H7S12720   0.808   3.224   6.991  1.7354 -1.1929 -0.8670
  121OSM    H7T12721   0.645   3.201   6.900 -0.9923 -0.4515 -0.4285
  121OSM    C8S12722   0.819   3.180   6.784  0.4759  0.6964  0.3383
  121OSM    H8S12723   0.792   3.089   6.728  2.6439  0.3002 -0.1564
  121OSM    H8T12724   0.929   3.165   6.793  0.3935 -2.7112 -2.3726
  121OSM    C9S12725   0.797   3.308   6.698  0.4536 -0.4006  0.3307
  121OSM    H9S12726   0.871   3.386   6.726  1.4093 -0.9625 -0.5727
  121OSM    H9T12727   0.696   3.353   6.714  1.5777  2.3600  0.2881
  121OSM   C10S12728   0.820   3.284   6.547  0.1921 -0.0766 -0.7561
  121OSM   H10S12729   0.909   3.218   6.541  0.8456  0.7214 -0.1314
  121OSM   H10T12730   0.844   3.373   6.485 -0.9446  0.1789 -0.8513
  121OSM   C11S12731   0.707   3.223   6.476 -0.2132 -0.5404  0.0887
  121OSM   H11S12732   0.640   3.311   6.461 -0.4515 -0.6183  0.6842
  121OSM   H11T12733   0.666   3.139   6.536 -0.0133 -0.7779 -0.1024
  121OSM   C12S12734   0.748   3.170   6.332  0.5188  0.2251  0.1255
  121OSM   H12S12735   0.662   3.116   6.288 -0.4371 -0.4666  2.6411
  121OSM   H12T12736   0.811   3.080   6.346 -0.4729 -0.5464 -0.2594
  121OSM   C13S12737   0.803   3.271   6.229  0.1109 -0.1410  0.6196
  121OSM   H13S12738   0.888   3.325   6.276  1.2653 -1.1987 -0.1586
  121OSM   H13T12739   0.724   3.341   6.197 -1.4807 -1.3957  1.6386
  121OSM   C14S12740   0.854   3.205   6.096  0.2916  0.5844 -0.1875
  121OSM   H14S12741   0.771   3.153   6.043 -0.2441  0.5102  0.6931
  121OSM   H14T12742   0.926   3.120   6.106  0.6859  0.7458 -1.5033
  121OSM   C15S12743   0.926   3.283   5.991  0.2468  0.0090  0.0702
  121OSM   H15S12744   1.026   3.310   6.032  1.4806  1.0800 -3.3088
  121OSM   H15T12745   0.869   3.375   5.964  0.3307 -0.2089 -0.8518
  121OSM   C16S12746   0.941   3.207   5.852  0.0361  0.1313 -0.4898
  121OSM   H16S12747   0.970   3.101   5.863  0.1157  0.2424  0.5173
  121OSM   H16T12748   1.031   3.247   5.801  1.7917 -1.1701  1.4233
  121OSM   C17S12749   0.813   3.220   5.772  0.1172  0.5856 -0.2202
  121OSM   H17S12750   0.777   3.320   5.802  3.2239  1.5219  0.7395
  121OSM   H17T12751   0.742   3.136   5.792  1.1174 -0.2016  0.0948
  121OSM   C18S12752   0.827   3.226   5.619  0.5415 -0.3259 -0.4489
  121OSM   H18S12753   0.741   3.263   5.559  0.5492 -0.4300 -0.5255
  121OSM   H18T12754   0.842   3.122   5.581  0.2305 -0.1363 -1.1150
  121OSM   H18U12755   0.915   3.286   5.589 -0.0995 -0.1828 -2.1368
  121OSM    C1F12756   0.229   2.960   7.182 -0.5388  0.1117  0.0567
  121OSM     OF12757   0.178   3.063   7.142 -0.4017 -0.2929 -0.4613
  121OSM    C2F12758   0.176   2.818   7.176 -0.5385 -0.3045 -0.0686
  121OSM    H2F12759   0.172   2.776   7.279 -0.6939 -1.1466 -0.4101
  121OSM    H2G12760   0.245   2.753   7.118  0.9886  1.0091  0.2088
  121OSM    C3F12761   0.038   2.821   7.094  0.2827 -0.7116 -0.0476
  121OSM    H3F12762  -0.017   2.910   7.129  1.0507 -0.1243 -0.2980
  121OSM    H3G12763  -0.013   2.726   7.121  0.9263 -0.8907  0.5611
  121OSM    C4F12764   0.053   2.834   6.943  0.0760 -0.8617  0.8988
  121OSM    H4F12765   0.135   2.908   6.930  0.3160 -1.0794  1.1622
  121OSM    H4G12766  -0.045   2.872   6.906  0.5769 -0.7020 -0.3206
  121OSM    C5F12767   0.080   2.702   6.877  1.0639 -0.6123  0.1889
  121OSM    H5F12768  -0.001   2.629   6.902 -0.3665  0.4555 -1.0967
  121OSM    H5G12769   0.168   2.643   6.910  0.3227 -2.6395 -1.2676
  121OSM    C6F12770   0.080   2.713   6.726 -0.9083  0.8806  0.1555
  121OSM    H6F12771   0.132   2.803   6.687  0.8299 -0.9319 -1.9389
  121OSM    H6G12772  -0.019   2.701   6.678 -1.2502 -1.2164  1.2448
  121OSM    C7F12773   0.158   2.595   6.665  0.2479 -0.6746  0.2748
  121OSM    H7F12774   0.120   2.502   6.712 -1.1662 -0.8345 -1.0772
  121OSM    H7G12775   0.266   2.605   6.688 -0.1126  1.5675  1.1729
  121OSM    C8F12776   0.150   2.581   6.509  0.6790  0.7760  0.5269
  121OSM    H8F12777   0.045   2.568   6.475  0.9402  0.8030 -0.2955
  121OSM    H8G12778   0.193   2.484   6.477 -0.2502 -0.0857  1.7784
  121OSM    C9F12779   0.219   2.694   6.440  0.2340  0.5138  0.1949
  121OSM    H9F12780   0.319   2.712   6.480 -0.1425  2.1347  0.4922
  121OSM   C10F12781   0.171   2.775   6.347  0.4495  0.3262 -0.2584
  121OSM   H10F12782   0.242   2.839   6.293 -1.0316 -0.3130 -3.1447
  121OSM   C11F12783   0.034   2.751   6.283  0.0913  0.8321  0.7456
  121OSM   H11F12784  -0.044   2.777   6.358 -0.2423 -1.1217  1.1357
  121OSM   H11G12785   0.028   2.641   6.267 -0.9389  0.8829  0.7209
  121OSM   C12F12786   0.019   2.823   6.147 -0.1015  0.4341 -0.1972
  121OSM   H12F12787   0.037   2.932   6.157 -0.0447  0.6000 -1.8452
  121OSM   H12G12788  -0.087   2.803   6.121  0.6822 -2.4356 -1.6866
  121OSM   C13F12789   0.103   2.769   6.034  0.4587  0.5905  0.8939
  121OSM   H13F12790   0.083   2.662   6.009  1.2864  0.3534  1.2038
  121OSM   H13G12791   0.212   2.775   6.057  0.8001  0.4476 -0.5939
  121OSM   C14F12792   0.066   2.843   5.909  0.1329 -0.8412 -0.3346
  121OSM   H14F12793   0.079   2.951   5.929 -0.2923 -1.2199  2.3364
  121OSM   H14G12794  -0.043   2.826   5.892 -0.7317  2.3499  1.2040
  121OSM   C15F12795   0.158   2.820   5.788  1.2769 -0.0502  0.5038
  121OSM   H15F12796   0.138   2.717   5.753 -0.4199  0.1024  0.9318
  121OSM   H15G12797   0.263   2.837   5.821  1.1199 -0.0165  0.9947
  121OSM   C16F12798   0.119   2.913   5.671 -0.8877  0.3073  0.1586
  121OSM   H16F12799   0.087   3.012   5.710 -2.0342 -0.0982  0.2998
  121OSM   H16G12800   0.045   2.856   5.611 -0.1617 -1.9302  1.2861
  121OSM   C17F12801   0.230   2.921   5.562 -1.1946 -0.8820 -0.7535
  121OSM   H17F12802   0.276   2.824   5.536  2.0141 -0.3665  2.2326
  121OSM   H17G12803   0.308   2.970   5.623  0.0974 -2.5615 -0.9963
  121OSM   C18F12804   0.195   3.000   5.437  0.0755 -0.1837  0.2562
  121OSM   H18F12805   0.278   3.032   5.371 -1.0088 -0.7654 -1.4607
  121OSM   H18G12806   0.134   3.093   5.449  0.7545  0.4427 -0.9172
  121OSM   H18H12807   0.129   2.936   5.375  0.7631  0.9203 -1.6811
  122OSM      N12808   4.971   5.982   7.175 -0.1589  0.1691  0.5610
  122OSM    C1512809   5.014   5.875   7.275 -0.1660  0.1824  0.4439
  122OSM   H15A12810   5.015   5.919   7.373  2.2132 -2.7034  1.8883
  122OSM   H15B12811   5.116   5.840   7.266 -0.2834  0.1303 -0.9420
  122OSM   H15C12812   4.944   5.793   7.268  1.2942 -1.0255 -0.7049
  122OSM    C1412813   4.823   6.001   7.191  0.2455 -0.0170  0.4216
  122OSM   H14A12814   4.766   5.909   7.186 -0.9124  0.6659  0.6765
  122OSM   H14B12815   4.780   6.071   7.121  0.1019  1.4867  1.9492
  122OSM   H14C12816   4.803   6.045   7.288  1.9380  2.1567 -0.1350
  122OSM    C1312817   5.049   6.109   7.206  0.6410 -0.4176 -0.4774
  122OSM   H13A12818   5.024   6.192   7.141 -0.6799 -1.4837 -1.3864
  122OSM   H13B12819   5.154   6.096   7.189  0.7515  0.6099 -0.6567
  122OSM   H13C12820   5.040   6.143   7.309  0.2973  0.7847 -0.8858
  122OSM    C1212821   5.010   5.944   7.034  0.3198  0.0938 -0.7308
  122OSM   H12A12822   5.117   5.929   7.028  0.2474 -0.2388 -1.2186
  122OSM   H12B12823   4.999   6.032   6.973  3.1720  0.6249 -0.6358
  122OSM    C1112824   4.935   5.828   6.964 -0.2056  0.1022  0.1897
  122OSM   H11A12825   4.969   5.842   6.859  0.1727  1.6842  0.5062
  122OSM   H11B12826   4.829   5.857   6.983  0.0873  0.9815  0.5260
  122OSM      P12827   5.082   5.613   6.978  0.1637  0.2397 -0.3620
  122OSM    O1312828   5.215   5.664   7.022 -0.2183 -0.6805 -0.3371
  122OSM    O1412829   5.040   5.480   7.035  0.5497  0.0127  0.3084
  122OSM    O1112830   5.068   5.622   6.820  0.0844  0.1410 -0.8112
  122OSM    O1212831   4.962   5.705   7.034 -0.0306  0.3658 -0.6126
  122OSM    C1S12832   5.142   5.525   6.741 -0.3203 -0.0221 -0.5497
  122OSM    H1S12833   5.107   5.423   6.767 -0.5618  0.7110  2.3525
  122OSM    H1T12834   5.245   5.524   6.781  0.0710 -1.3058 -1.5427
  122OSM     NF12835   5.210   5.422   6.527  0.2158  0.1491 -0.0055
  122OSM    HNF12836   5.308   5.439   6.513 -0.3167  0.9876 -3.6361
  122OSM    C2S12837   5.131   5.534   6.592 -0.6829  0.2589 -0.5283
  122OSM    H2S12838   5.026   5.515   6.562 -0.4481 -0.6481 -0.8115
  122OSM    C3S12839   5.166   5.681   6.548 -0.5423 -0.0604  0.0409
  122OSM    H3S12840   5.277   5.683   6.553 -0.2491 -0.5050 -3.7882
  122OSM     O312841   5.112   5.784   6.624  0.8986  0.6488 -0.1958
  122OSM    HO312842   5.069   5.743   6.700 -0.9028 -2.3560 -2.6048
  122OSM    C4S12843   5.125   5.697   6.408  0.5958 -0.3179  0.0815
  122OSM    H4S12844   5.031   5.751   6.391  0.4637 -0.0606  1.5084
  122OSM    C5S12845   5.187   5.646   6.305  0.1613  0.1387 -0.2091
  122OSM    H5S12846   5.281   5.590   6.320 -0.8661 -1.2467  1.5802
  122OSM    C6S12847   5.138   5.671   6.162 -0.7182  0.4017 -0.2973
  122OSM    H6S12848   5.201   5.737   6.098 -0.6094 -0.4593 -1.1117
  122OSM    H6T12849   5.037   5.716   6.159 -1.9287 -2.1546 -0.5353
  122OSM    C7S12850   5.131   5.530   6.095  0.7210  0.2272 -0.1621
  122OSM    H7S12851   5.063   5.462   6.151  1.3189  0.5803  1.0261
  122OSM    H7T12852   5.235   5.491   6.089  0.6513  0.1908 -1.3164
  122OSM    C8S12853   5.101   5.537   5.945  0.0804 -0.1402 -0.8717
  122OSM    H8S12854   5.143   5.452   5.888  0.1145 -0.1721 -0.7993
  122OSM    H8T12855   5.147   5.632   5.909  1.5160 -0.9560 -1.2490
  122OSM    C9S12856   4.946   5.538   5.915  0.4127 -0.5034  0.4067
  122OSM    H9S12857   4.892   5.621   5.967  1.3382  0.4887 -0.1770
  122OSM    H9T12858   4.896   5.446   5.954 -0.8177  1.2537  3.3584
  122OSM   C10S12859   4.918   5.568   5.767  0.0644  0.0109  1.2755
  122OSM   H10S12860   4.984   5.509   5.701  1.4215  1.5747  1.1799
  122OSM   H10T12861   4.954   5.668   5.734  0.6275 -1.1377 -1.9374
  122OSM   C11S12862   4.772   5.556   5.728 -0.5097  0.1056  0.5045
  122OSM   H11S12863   4.720   5.643   5.774 -0.4592  0.7670 -0.6208
  122OSM   H11T12864   4.738   5.460   5.770 -1.6352 -0.1528 -0.9080
  122OSM   C12S12865   4.759   5.574   5.572 -0.6005  0.3947 -0.0510
  122OSM   H12S12866   4.809   5.672   5.552  1.3038 -0.5231 -0.0013
  122OSM   H12T12867   4.652   5.578   5.546 -0.2569 -0.3822 -1.6826
  122OSM   C13S12868   4.818   5.464   5.481  0.1387  0.0730  0.3460
  122OSM   H13S12869   4.813   5.362   5.525  0.3019 -0.0940 -0.0167
  122OSM   H13T12870   4.927   5.470   5.462 -0.1664 -2.1097 -3.0056
  122OSM   C14S12871   4.752   5.442   5.347 -0.6037 -0.4531  0.4858
  122OSM   H14S12872   4.741   5.540   5.295 -0.4959  0.2080  1.6736
  122OSM   H14T12873   4.658   5.385   5.361  0.8275 -2.8471  0.7489
  122OSM   C15S12874   4.833   5.361   5.247  0.6212  0.3225  0.1911
  122OSM   H15S12875   4.774   5.332   5.158  4.0669 -0.7599 -1.9547
  122OSM   H15T12876   4.872   5.272   5.301  0.2116  1.2462  2.1132
  122OSM   C16S12877   4.954   5.443   5.189  0.2495  0.1066  0.5529
  122OSM   H16S12878   4.928   5.546   5.156 -1.2066 -0.3921  0.0814
  122OSM   H16T12879   4.979   5.384   5.098 -1.3888 -0.2979  0.3407
  122OSM   C17S12880   5.081   5.446   5.275  0.1675 -0.0330  0.4377
  122OSM   H17S12881   5.070   5.372   5.357 -1.8026 -0.0252  0.2282
  122OSM   H17T12882   5.082   5.539   5.337  0.1617 -1.2245  2.3092
  122OSM   C18S12883   5.218   5.450   5.209  1.0140 -0.0332 -0.2213
  122OSM   H18S12884   5.281   5.531   5.252  3.1779 -0.9643 -1.4723
  122OSM   H18T12885   5.201   5.469   5.101  1.5424 -0.4126 -0.3704
  122OSM   H18U12886   5.270   5.355   5.230  0.9086 -0.3579 -1.3402
  122OSM    C1F12887   5.182   5.299   6.528  0.3640  0.2300 -0.1257
  122OSM     OF12888   5.084   5.251   6.590 -0.0605 -0.4656 -0.2293
  122OSM    C2F12889   5.293   5.211   6.478  0.5651 -0.0783  0.1592
  122OSM    H2F12890   5.332   5.152   6.563  0.6798  0.4914  0.5110
  122OSM    H2G12891   5.374   5.272   6.431  0.7494 -1.3953 -1.3366
  122OSM    C3F12892   5.245   5.118   6.353  0.3689  0.2115 -0.3838
  122OSM    H3F12893   5.164   5.053   6.394  0.4963 -0.0008 -0.4658
  122OSM    H3G12894   5.330   5.051   6.328 -1.6623 -1.1744 -4.4001
  122OSM    C4F12895   5.224   5.195   6.222  0.3864 -0.6177  0.4772
  122OSM    H4F12896   5.285   5.288   6.219 -2.2645  1.2519  0.2194
  122OSM    H4G12897   5.123   5.240   6.231  0.1118 -1.3915  1.4327
  122OSM    C5F12898   5.238   5.110   6.097 -0.2804 -0.4532 -0.4894
  122OSM    H5F12899   5.177   5.018   6.109 -1.2406  0.3380  0.9808
  122OSM    H5G12900   5.341   5.074   6.081 -0.3515 -0.5183 -0.8102
  122OSM    C6F12901   5.190   5.183   5.969 -0.3263 -0.1216  0.3904
  122OSM    H6F12902   5.254   5.269   5.942  1.0625 -1.0082  0.7614
  122OSM    H6G12903   5.086   5.217   5.990  0.8089  1.8896  3.3754
  122OSM    C7F12904   5.168   5.085   5.850 -0.6689  0.4583  0.6934
  122OSM    H7F12905   5.084   5.018   5.877  0.0522  0.0437  2.0447
  122OSM    H7G12906   5.259   5.024   5.833  0.0909  1.4154  1.2243
  122OSM    C8F12907   5.139   5.163   5.720  0.7228  0.2223 -0.0611
  122OSM    H8F12908   5.071   5.248   5.742  2.0460  1.1528  0.6620
  122OSM    H8G12909   5.075   5.098   5.657  0.2050  0.5417  0.1311
  122OSM    C9F12910   5.257   5.215   5.634 -0.2585  0.1317  0.7207
  122OSM    H9F12911   5.313   5.307   5.657  1.6380 -1.0939  1.2281
  122OSM   C10F12912   5.321   5.131   5.545 -0.5234 -0.3391 -0.6762
  122OSM   H10F12913   5.419   5.159   5.502 -1.1369  1.3395 -1.0745
  122OSM   C11F12914   5.273   4.986   5.509 -0.0516 -0.3248 -0.5629
  122OSM   H11F12915   5.200   4.940   5.579  2.3455  1.3201  3.4160
  122OSM   H11G12916   5.358   4.915   5.516  0.3242 -0.0263 -1.8652
  122OSM   C12F12917   5.211   4.986   5.366 -0.1316  0.8136 -1.0519
  122OSM   H12F12918   5.134   5.066   5.370 -1.0880 -0.1026  2.2728
  122OSM   H12G12919   5.161   4.888   5.355  0.1427  0.6787 -1.0926
  122OSM   C13F12920   5.309   4.997   5.257  0.1032  0.6049 -0.1150
  122OSM   H13F12921   5.391   4.922   5.258  3.1500  3.6724  1.7840
  122OSM   H13G12922   5.362   5.094   5.269 -0.2827  0.6050  1.9389
  122OSM   C14F12923   5.247   4.985   5.119 -0.0402 -0.5009  0.2334
  122OSM   H14F12924   5.178   4.898   5.120 -3.8181  2.2650  0.6791
  122OSM   H14G12925   5.329   4.969   5.045  0.3508  2.7811 -0.2241
  122OSM   C15F12926   5.160   5.110   5.078 -0.1135  0.1474 -0.3966
  122OSM   H15F12927   5.223   5.201   5.085  0.1596 -0.0615 -0.1366
  122OSM   H15G12928   5.066   5.127   5.134 -1.0665  0.9700 -2.1591
  122OSM   C16F12929   5.110   5.107   4.923 -0.2975 -0.7607 -0.7429
  122OSM   H16F12930   5.201   5.087   4.862  0.8305  1.1287  0.2350
  122OSM   H16G12931   5.083   5.213   4.902  3.1412  0.9622  2.3770
  122OSM   C17F12932   4.987   5.018   4.900 -0.1027  0.1127  0.4502
  122OSM   H17F12933   5.003   4.931   4.967 -0.9771 -0.5902 -0.2327
  122OSM   H17G12934   4.989   4.973   4.799 -1.4794  0.0693  0.4310
  122OSM   C18F12935   4.852   5.080   4.928 -0.4768 -0.0222 -0.1525
  122OSM   H18F12936   4.853   5.191   4.914 -3.3122 -0.0824 -1.3504
  122OSM   H18G12937   4.801   5.055   5.023 -1.6197 -0.1803 -0.7965
  122OSM   H18H12938   4.782   5.038   4.854  0.9803 -1.3934 -0.8054
  123OSM      N12939   3.629   3.856   2.837  1.0473 -0.6621  0.3868
  123OSM    C1512940   3.519   3.760   2.861 -0.1307  0.9696  0.6996
  123OSM   H15A12941   3.438   3.810   2.912  0.8544  1.9882  1.2990
  123OSM   H15B12942   3.549   3.674   2.919 -1.4489  0.0916  0.1326
  123OSM   H15C12943   3.475   3.731   2.767  0.5716 -0.0644  0.6711
  123OSM    C1412944   3.730   3.787   2.739 -0.0777 -0.6324 -0.2454
  123OSM   H14A12945   3.677   3.728   2.667  0.4700 -0.8039 -0.5164
  123OSM   H14B12946   3.793   3.718   2.793 -0.1880 -2.3461 -2.2209
  123OSM   H14C12947   3.791   3.865   2.695  0.4253 -0.7529  0.2126
  123OSM    C1312948   3.572   3.981   2.770 -0.2377 -0.2386  0.2276
  123OSM   H13A12949   3.647   4.052   2.739  1.2631 -1.2467  1.4183
  123OSM   H13B12950   3.502   4.045   2.821 -0.5790  0.5868 -1.2025
  123OSM   H13C12951   3.522   3.953   2.678  0.5233 -0.1908 -0.2110
  123OSM    C1212952   3.689   3.888   2.976  0.0854 -0.6516  0.1085
  123OSM   H12A12953   3.640   3.978   3.010  2.9640  1.1653 -0.2218
  123OSM   H12B12954   3.790   3.925   2.964 -0.9373  1.9461 -1.4069
  123OSM    C1112955   3.680   3.792   3.094 -0.7267  0.3506 -0.7216
  123OSM   H11A12956   3.572   3.770   3.110 -1.0032  1.6770 -0.6672
  123OSM   H11B12957   3.704   3.830   3.195  0.2739  1.4708 -1.3623
  123OSM      P12958   3.899   3.652   3.066  0.2911  0.5833  0.2316
  123OSM    O1312959   3.929   3.511   3.101  0.6074  0.2305  0.8437
  123OSM    O1412960   3.950   3.709   2.943  0.1727 -0.5408  0.5571
  123OSM    O1112961   3.956   3.733   3.187  0.1222 -0.1635  0.2112
  123OSM    O1212962   3.741   3.662   3.074 -0.3987 -0.0659 -0.2343
  123OSM    C1S12963   3.935   3.710   3.331 -0.1628  0.0718  0.2769
  123OSM    H1S12964   3.894   3.607   3.342  1.0914 -0.5427 -0.5800
  123OSM    H1T12965   3.866   3.787   3.373 -1.3885 -1.5056  1.2464
  123OSM     NF12966   4.045   3.666   3.544 -0.0351  0.0012 -0.4062
  123OSM    HNF12967   4.068   3.735   3.612  2.2851  0.4186 -1.5176
  123OSM    C2S12968   4.068   3.706   3.409  0.4246  0.5135 -0.0895
  123OSM    H2S12969   4.138   3.637   3.358 -0.4981 -0.1079 -0.5444
  123OSM    C3S12970   4.134   3.848   3.407 -0.6540  1.3236 -0.5326
  123OSM    H3S12971   4.071   3.912   3.473 -0.0402  0.4524  0.9638
  123OSM     O312972   4.147   3.903   3.276 -0.0099 -0.7819  0.2209
  123OSM    HO312973   4.091   3.844   3.225 -1.2524  0.6595 -0.1788
  123OSM    C4S12974   4.271   3.844   3.465  0.2052 -0.2079 -0.5987
  123OSM    H4S12975   4.338   3.771   3.418 -0.1614 -0.6952 -0.3776
  123OSM    C5S12976   4.327   3.922   3.563 -0.3546  0.3337  0.5778
  123OSM    H5S12977   4.265   4.002   3.606  2.2176  2.2837  0.8623
  123OSM    C6S12978   4.470   3.913   3.610  0.3303 -0.5504 -0.1899
  123OSM    H6S12979   4.533   4.001   3.582 -0.6330 -0.6873 -3.0407
  123OSM    H6T12980   4.520   3.833   3.551  0.2499 -2.8111  2.5782
  123OSM    C7S12981   4.469   3.866   3.761  0.3660 -0.0874  0.2929
  123OSM    H7S12982   4.575   3.833   3.776  0.1952 -1.1862 -0.7928
  123OSM    H7T12983   4.408   3.775   3.781  0.1071  0.3028  1.3183
  123OSM    C8S12984   4.438   3.972   3.867  0.5575  0.3368 -0.1265
  123OSM    H8S12985   4.334   4.001   3.842  0.1722 -1.1327 -0.3335
  123OSM    H8T12986   4.519   4.047   3.852  1.8415 -0.7722  0.9714
  123OSM    C9S12987   4.432   3.927   4.018 -0.3181  0.2867 -0.1940
  123OSM    H9S12988   4.531   3.892   4.054 -0.2853  0.9052  0.3393
  123OSM    H9T12989   4.361   3.842   4.026 -0.2642  0.2743  0.2022
  123OSM   C10S12990   4.402   4.045   4.107 -0.2452 -0.2798  0.4076
  123OSM   H10S12991   4.304   4.084   4.072  0.0342 -0.6218 -0.8134
  123OSM   H10T12992   4.477   4.127   4.105  0.9362 -1.2141  2.6426
  123OSM   C11S12993   4.386   4.006   4.253  0.4311 -0.8194 -0.2951
  123OSM   H11S12994   4.468   3.943   4.291 -0.7809 -2.0193  0.4121
  123OSM   H11T12995   4.307   3.931   4.275  0.3933 -1.2953 -1.8924
  123OSM   C12S12996   4.371   4.129   4.348 -0.2902 -0.2966  0.5394
  123OSM   H12S12997   4.270   4.166   4.319  0.5069 -0.1525 -2.4551
  123OSM   H12T12998   4.444   4.204   4.312 -0.6020 -0.6567 -0.9299
  123OSM   C13S12999   4.376   4.095   4.493  0.4536 -0.5516 -0.6846
  123OSM   H13S13000   4.477   4.055   4.516  0.0310 -0.7377  0.9353
  123OSM   H13T13001   4.313   4.008   4.523  0.4617 -0.0946  0.7154
  123OSM   C14S13002   4.342   4.217   4.571  0.0933 -0.1105 -0.7680
  123OSM   H14S13003   4.389   4.311   4.535 -0.5696  0.2741 -0.6644
  123OSM   H14T13004   4.379   4.205   4.675  2.0207  0.3805 -1.3712
  123OSM   C15S13005   4.192   4.249   4.598 -0.0640  0.1622  0.0420
  123OSM   H15S13006   4.135   4.163   4.639  0.2251 -0.0073  0.0956
  123OSM   H15T13007   4.150   4.282   4.501  0.5738  0.9158  0.0109
  123OSM   C16S13008   4.167   4.366   4.693 -0.1882  0.4393  0.0038
  123OSM   H16S13009   4.063   4.403   4.683 -0.5859 -0.6992 -0.2114
  123OSM   H16T13010   4.244   4.440   4.661  2.9864 -3.7651 -3.2704
  123OSM   C17S13011   4.191   4.321   4.843  0.5925 -0.0500 -0.1983
  123OSM   H17S13012   4.297   4.290   4.852  1.3662  2.0989 -1.1488
  123OSM   H17T13013   4.122   4.235   4.859  0.7194 -0.5851 -2.2619
  123OSM   C18S13014   4.175   4.439   4.937  0.0208  0.5496 -0.4481
  123OSM   H18S13015   4.075   4.486   4.921 -1.0540 -1.4496 -0.0408
  123OSM   H18T13016   4.257   4.508   4.909  0.3557  0.1673 -0.4087
  123OSM   H18U13017   4.177   4.400   5.041 -1.1050  1.7254  0.0501
  123OSM    C1F13018   4.009   3.544   3.579 -0.6756  0.0900  0.2633
  123OSM     OF13019   3.989   3.450   3.505  0.2448  0.0298 -0.3835
  123OSM    C2F13020   4.007   3.529   3.726 -0.2332 -0.7364 -0.5943
  123OSM    H2F13021   3.910   3.566   3.764  1.5452  3.0114  0.7972
  123OSM    H2G13022   4.089   3.594   3.764 -0.3075  0.5731 -2.5452
  123OSM    C3F13023   4.033   3.379   3.768  0.1203 -0.4029 -0.6475
  123OSM    H3F13024   4.129   3.340   3.729 -0.3500  0.3123 -2.6685
  123OSM    H3G13025   3.949   3.322   3.721  2.9129 -1.8795 -4.3829
  123OSM    C4F13026   4.029   3.366   3.921  0.5260 -0.9584 -0.2512
  123OSM    H4F13027   3.958   3.443   3.960  1.7055  1.4150 -2.4804
  123OSM    H4G13028   4.115   3.421   3.963 -2.6438  2.5830  2.2802
  123OSM    C5F13029   4.029   3.217   3.970  0.3433 -0.0398 -0.1887
  123OSM    H5F13030   4.131   3.178   3.951  0.9555  1.1851  0.4333
  123OSM    H5G13031   3.945   3.162   3.922 -1.9205  2.1443  1.0066
  123OSM    C6F13032   4.015   3.204   4.126  0.0303 -0.6221  0.1236
  123OSM    H6F13033   3.963   3.109   4.151  0.1721 -0.3158  1.6899
  123OSM    H6G13034   3.964   3.300   4.148 -1.3592 -1.0177 -1.1882
  123OSM    C7F13035   4.151   3.199   4.196  0.1597  0.8688  0.0668
  123OSM    H7F13036   4.212   3.286   4.164 -1.6741  1.8220 -0.9969
  123OSM    H7G13037   4.184   3.096   4.170 -1.7402  1.1125 -4.0001
  123OSM    C8F13038   4.135   3.200   4.352 -0.5172 -0.0904 -0.5062
  123OSM    H8F13039   4.217   3.151   4.407 -0.5602  1.6314  1.1726
  123OSM    H8G13040   4.048   3.132   4.364  0.5699 -1.7454 -1.6838
  123OSM    C9F13041   4.100   3.333   4.419 -0.3734 -0.6244 -0.2345
  123OSM    H9F13042   4.109   3.411   4.342  2.3768 -0.4181  0.1853
  123OSM   C10F13043   4.089   3.362   4.550  0.1832  0.8325  0.3392
  123OSM   H10F13044   4.075   3.466   4.583 -2.6783  0.9852 -1.0165
  123OSM   C11F13045   4.096   3.261   4.661  0.2904 -0.3869  0.0642
  123OSM   H11F13046   4.147   3.166   4.634  0.5830 -1.2621  3.2643
  123OSM   H11G13047   3.997   3.227   4.699  0.6564 -2.6235 -0.8284
  123OSM   C12F13048   4.156   3.325   4.784  0.4635 -0.0414 -0.0238
  123OSM   H12F13049   4.222   3.412   4.764 -0.1545  0.3764 -0.2638
  123OSM   H12G13050   4.214   3.252   4.844  0.7699  0.1813 -0.0473
  123OSM   C13F13051   4.044   3.364   4.877  0.6025 -0.1069  0.2050
  123OSM   H13F13052   3.981   3.277   4.906  0.4912 -0.6655 -1.5899
  123OSM   H13G13053   3.973   3.432   4.826  2.8403  0.2714 -2.6585
  123OSM   C14F13054   4.089   3.429   5.011 -0.2234 -0.9087  0.3047
  123OSM   H14F13055   3.999   3.459   5.070 -0.6342  1.7479 -1.4827
  123OSM   H14G13056   4.125   3.529   4.979 -0.8119 -0.5511  0.7373
  123OSM   C15F13057   4.191   3.362   5.105  0.7736 -0.0290  0.3140
  123OSM   H15F13058   4.208   3.418   5.199  2.6311 -1.1012  0.6636
  123OSM   H15G13059   4.290   3.360   5.055  1.0438  4.9685  0.1389
  123OSM   C16F13060   4.136   3.221   5.129 -0.0523 -0.1665 -1.1227
  123OSM   H16F13061   4.130   3.160   5.036  1.2238 -1.7021 -0.2530
  123OSM   H16G13062   4.039   3.227   5.183  1.5679  2.5192  1.8049
  123OSM   C17F13063   4.228   3.144   5.228 -0.0430  0.0072 -0.2284
  123OSM   H17F13064   4.321   3.110   5.179  0.3612  0.4890  0.1903
  123OSM   H17G13065   4.185   3.047   5.258 -1.1378  0.6153  0.2288
  123OSM   C18F13066   4.281   3.221   5.347 -0.0646  0.2166 -0.8633
  123OSM   H18F13067   4.192   3.265   5.397 -0.1134  0.0086 -0.7624
  123OSM   H18G13068   4.346   3.302   5.308 -1.1887  2.9883  2.5525
  123OSM   H18H13069   4.340   3.154   5.413  0.0106 -0.6098 -1.7386
  124OSM      N13070   4.978   4.363   2.591  0.4479  0.3963 -0.6058
  124OSM    C1513071   4.932   4.262   2.690  0.1217  0.4657  0.3779
  124OSM   H15A13072   4.920   4.310   2.787  0.7003  2.1743 -0.3520
  124OSM   H15B13073   4.989   4.173   2.711 -1.1943 -0.1632  1.4993
  124OSM   H15C13074   4.834   4.229   2.658  0.1289  1.0929 -0.3153
  124OSM    C1413075   5.119   4.408   2.639  0.2681 -0.2010  0.1341
  124OSM   H14A13076   5.160   4.470   2.561 -1.4258  0.9931  0.1393
  124OSM   H14B13077   5.190   4.327   2.642  0.1391 -0.2743  1.9154
  124OSM   H14C13078   5.117   4.450   2.738 -0.5826 -2.1307  0.9976
  124OSM    C1313079   4.986   4.312   2.451 -0.1613 -0.1252 -0.1579
  124OSM   H13A13080   5.013   4.383   2.375  0.5624 -0.4012 -0.1641
  124OSM   H13B13081   4.893   4.264   2.424 -0.1618 -0.1294 -0.1502
  124OSM   H13C13082   5.061   4.234   2.455 -2.4342 -2.4568 -0.0048
  124OSM    C1213083   4.874   4.479   2.593 -0.2933 -0.1861 -0.0408
  124OSM   H12A13084   4.926   4.550   2.530 -0.1854 -0.5364 -0.3471
  124OSM   H12B13085   4.869   4.520   2.693 -1.5479 -0.1032 -0.1263
  124OSM    C1113086   4.736   4.447   2.539  0.4456  0.4747 -0.0045
  124OSM   H11A13087   4.730   4.388   2.446  3.0904  1.4722 -0.9004
  124OSM   H11B13088   4.700   4.545   2.501  1.2268  0.2607 -1.3162
  124OSM      P13089   4.585   4.486   2.747  0.1002 -0.0709 -0.1596
  124OSM    O1313090   4.494   4.567   2.672 -0.5584 -0.5873  0.2800
  124OSM    O1413091   4.521   4.408   2.860 -0.3550  0.0854 -0.5020
  124OSM    O1113092   4.699   4.567   2.810  0.3560 -0.2076  0.2411
  124OSM    O1213093   4.664   4.391   2.649  0.3622  0.8348  0.6786
  124OSM    C1S13094   4.730   4.705   2.791 -0.3141 -0.0816  0.0350
  124OSM    H1S13095   4.650   4.766   2.745 -0.0901 -1.6752 -2.6891
  124OSM    H1T13096   4.809   4.712   2.713 -1.4558  0.7969 -1.0877
  124OSM     NF13097   4.817   4.907   2.924 -0.4779  0.4155 -0.1365
  124OSM    HNF13098   4.911   4.939   2.916  0.2638 -0.9688  2.1117
  124OSM    C2S13099   4.787   4.765   2.932 -0.2703 -0.5778 -0.5395
  124OSM    H2S13100   4.715   4.750   3.015  0.5739  0.2428  0.3619
  124OSM    C3S13101   4.917   4.678   2.963  0.0575  0.3258 -0.4996
  124OSM    H3S13102   4.973   4.679   2.868 -1.9115 -1.5796 -1.7604
  124OSM     O313103   4.880   4.540   2.988  0.3315 -0.7331 -0.0203
  124OSM    HO313104   4.795   4.531   2.945  0.6319  0.3871 -0.8882
  124OSM    C4S13105   5.005   4.729   3.075  0.8119 -0.7216 -0.2567
  124OSM    H4S13106   5.092   4.788   3.041  0.6970  0.0703  0.7609
  124OSM    C5S13107   4.984   4.711   3.204  0.0174 -0.1549 -0.9871
  124OSM    H5S13108   4.899   4.653   3.240  0.6378  1.1838  3.1426
  124OSM    C6S13109   5.076   4.769   3.309  0.3473  0.1239  0.2027
  124OSM    H6S13110   5.139   4.688   3.353  1.4497 -0.3127 -2.0131
  124OSM    H6T13111   5.011   4.820   3.383 -1.7105 -0.7113 -0.9420
  124OSM    C7S13112   5.187   4.869   3.267  0.6166 -0.5122  0.5098
  124OSM    H7S13113   5.139   4.969   3.265  0.2333 -0.6955  0.2806
  124OSM    H7T13114   5.230   4.844   3.167 -0.7074 -3.0263  0.4772
  124OSM    C8S13115   5.307   4.870   3.364 -0.1862 -0.0995  0.1959
  124OSM    H8S13116   5.397   4.917   3.319  0.9218 -2.4176 -0.1282
  124OSM    H8T13117   5.342   4.765   3.373  0.3285  0.2243  3.3584
  124OSM    C9S13118   5.274   4.927   3.494  0.2607  0.8159  0.0248
  124OSM    H9S13119   5.196   4.870   3.549  0.9195  0.6124  0.7756
  124OSM    H9T13120   5.230   5.027   3.475  0.0069  0.6457 -0.2849
  124OSM   C10S13121   5.402   4.940   3.583 -0.4324  0.1554 -0.1740
  124OSM   H10S13122   5.479   4.975   3.510 -0.5480  1.4704  0.3115
  124OSM   H10T13123   5.433   4.840   3.619  0.5041 -0.4476 -2.4267
  124OSM   C11S13124   5.386   5.047   3.690 -0.4578 -0.4290  0.5702
  124OSM   H11S13125   5.312   5.124   3.663  1.3994  1.6007  0.9832
  124OSM   H11T13126   5.483   5.101   3.689 -1.4069  1.4435 -2.2971
  124OSM   C12S13127   5.353   4.972   3.820 -0.3119  0.3017 -0.4275
  124OSM   H12S13128   5.414   4.884   3.846  1.4298  1.1184 -1.5594
  124OSM   H12T13129   5.247   4.939   3.824 -0.1493 -0.0615  2.7451
  124OSM   C13S13130   5.365   5.060   3.946  0.0054 -0.0484  0.1831
  124OSM   H13S13131   5.336   5.165   3.924  3.0013  0.6904 -0.6719
  124OSM   H13T13132   5.474   5.073   3.963  0.1181  0.1216 -0.6278
  124OSM   C14S13133   5.280   5.011   4.074  0.2276  0.9125  0.9747
  124OSM   H14S13134   5.302   4.902   4.076 -2.1718  0.3652  0.4631
  124OSM   H14T13135   5.174   5.037   4.056  0.3929  0.5165 -0.6741
  124OSM   C15S13136   5.327   5.078   4.204  0.0422  0.3875  1.1307
  124OSM   H15S13137   5.324   5.189   4.200  2.4438  0.4833 -1.9181
  124OSM   H15T13138   5.434   5.050   4.214  0.0267 -0.4854 -0.7404
  124OSM   C16S13139   5.233   5.037   4.319 -0.3460 -0.2819 -0.3312
  124OSM   H16S13140   5.263   4.936   4.354 -1.8050 -0.4355  0.5425
  124OSM   H16T13141   5.128   5.033   4.284 -0.2692  1.2536 -0.8039
  124OSM   C17S13142   5.253   5.130   4.443  0.2255  0.5798  0.4156
  124OSM   H17S13143   5.224   5.229   4.402 -0.5100 -0.7553 -2.5435
  124OSM   H17T13144   5.354   5.115   4.487  0.9236  1.5882 -0.7698
  124OSM   C18S13145   5.151   5.090   4.554  0.2660 -0.4375 -0.4087
  124OSM   H18S13146   5.049   5.089   4.510 -0.7437  3.0459  1.4499
  124OSM   H18T13147   5.131   5.173   4.626  0.6598  0.2824 -1.1137
  124OSM   H18U13148   5.176   4.994   4.604  2.5042  0.6859  0.7509
  124OSM    C1F13149   4.717   4.998   2.920  0.0362 -0.5876 -0.0150
  124OSM     OF13150   4.603   4.957   2.899  0.4802 -0.2558 -0.0361
  124OSM    C2F13151   4.753   5.149   2.940 -0.0121  0.6150  1.0242
  124OSM    H2F13152   4.733   5.194   2.841 -0.8717 -2.3194 -0.2560
  124OSM    H2G13153   4.861   5.166   2.959  0.5100 -2.1730  0.9789
  124OSM    C3F13154   4.659   5.207   3.045  0.2255  0.2324  0.4324
  124OSM    H3F13155   4.553   5.199   3.012 -1.0239  2.6422  3.3025
  124OSM    H3G13156   4.669   5.317   3.058  3.2986  0.0892  0.0228
  124OSM    C4F13157   4.670   5.166   3.195 -0.3784  0.1941 -0.2928
  124OSM    H4F13158   4.683   5.056   3.204 -0.8120  0.2450  1.1400
  124OSM    H4G13159   4.578   5.184   3.255 -0.6274 -0.0914 -0.5804
  124OSM    C5F13160   4.794   5.231   3.267 -0.2235 -0.4828  0.3530
  124OSM    H5F13161   4.793   5.341   3.284  0.8104 -0.6299  1.5896
  124OSM    H5G13162   4.885   5.209   3.207  0.3361 -0.3562  1.1340
  124OSM    C6F13163   4.836   5.165   3.392  0.2890  0.3735 -0.0218
  124OSM    H6F13164   4.870   5.066   3.356 -1.8446 -0.4330  0.0353
  124OSM    H6G13165   4.746   5.145   3.453 -0.4605  1.8577 -0.5862
  124OSM    C7F13166   4.945   5.241   3.469 -0.6855 -0.6824  0.6337
  124OSM    H7F13167   4.906   5.343   3.485  0.5740 -0.3064  1.5071
  124OSM    H7G13168   5.031   5.250   3.399 -1.1887  0.0051  0.0874
  124OSM    C8F13169   4.976   5.188   3.609 -0.5156  0.0759 -0.1096
  124OSM    H8F13170   5.026   5.089   3.600  1.2340  1.0054 -1.1406
  124OSM    H8G13171   4.874   5.179   3.651 -1.1062  3.8032 -0.4546
  124OSM    C9F13172   5.055   5.283   3.693  0.9467 -0.2674 -0.0333
  124OSM    H9F13173   5.155   5.304   3.651  0.2311 -0.4456 -1.9342
  124OSM   C10F13174   5.016   5.312   3.820  0.1661 -0.3510 -0.1004
  124OSM   H10F13175   5.087   5.377   3.874  0.3245  0.2482 -1.0048
  124OSM   C11F13176   4.892   5.288   3.899 -0.1556 -0.0529 -0.8676
  124OSM   H11F13177   4.848   5.196   3.856 -0.4302 -0.4491  0.2316
  124OSM   H11G13178   4.825   5.374   3.874 -0.1092  0.0639 -0.5940
  124OSM   C12F13179   4.901   5.265   4.055  0.7532  0.0950 -0.5482
  124OSM   H12F13180   4.978   5.189   4.079  1.7955  1.9006  2.2538
  124OSM   H12G13181   4.801   5.234   4.091  0.3909  1.4349 -0.3514
  124OSM   C13F13182   4.935   5.395   4.132  0.2636 -0.0446 -0.4080
  124OSM   H13F13183   4.884   5.482   4.086  2.1346  0.7238 -1.1450
  124OSM   H13G13184   5.046   5.403   4.134  0.3568 -0.7269  2.8665
  124OSM   C14F13185   4.895   5.381   4.276 -0.0989  0.0037 -0.8025
  124OSM   H14F13186   4.921   5.278   4.309 -2.7175 -0.5804 -0.3351
  124OSM   H14G13187   4.784   5.385   4.279 -0.0485  1.3641  1.5025
  124OSM   C15F13188   4.949   5.494   4.365 -0.3141 -0.6266  0.3872
  124OSM   H15F13189   4.919   5.582   4.304  1.5518  1.5814  2.4378
  124OSM   H15G13190   5.059   5.480   4.361 -0.2791 -2.1556  3.4157
  124OSM   C16F13191   4.890   5.518   4.510 -0.3472 -0.4165  0.3713
  124OSM   H16F13192   4.780   5.523   4.496 -0.3490  2.5512  0.9448
  124OSM   H16G13193   4.921   5.619   4.545 -1.9802  0.6264 -1.0519
  124OSM   C17F13194   4.935   5.421   4.620 -0.0864  0.5597 -0.5226
  124OSM   H17F13195   5.043   5.399   4.611  0.1833  0.9972  1.3127
  124OSM   H17G13196   4.876   5.328   4.605 -1.1506  1.2104 -0.5513
  124OSM   C18F13197   4.908   5.477   4.763 -0.0545  0.0936 -0.5468
  124OSM   H18F13198   4.918   5.398   4.840  1.3391  0.9293  0.1809
  124OSM   H18G13199   4.805   5.518   4.770  0.3457  1.3667 -1.5228
  124OSM   H18H13200   4.977   5.562   4.781 -0.4730  0.4934 -0.8060
  125OSM      N13201   5.628   1.674   2.308 -0.0999 -0.1195  0.2338
  125OSM    C1513202   5.580   1.555   2.230  0.2101  0.3301 -0.1353
  125OSM   H15A13203   5.668   1.497   2.206  1.9962  2.3073  1.1954
  125OSM   H15B13204   5.541   1.581   2.133 -0.3211 -0.2111 -0.0694
  125OSM   H15C13205   5.509   1.499   2.288 -3.3309  1.4932 -2.9824
  125OSM    C1413206   5.744   1.731   2.233  0.5743  0.2741 -0.0275
  125OSM   H14A13207   5.791   1.812   2.286 -0.4284 -0.4028  2.0090
  125OSM   H14B13208   5.710   1.772   2.138  0.1179  2.0639  0.8607
  125OSM   H14C13209   5.822   1.660   2.211  0.5023 -0.1106  0.9198
  125OSM    C1313210   5.524   1.783   2.314 -0.1615 -0.0928  1.0326
  125OSM   H13A13211   5.567   1.875   2.348  0.3982  0.5916 -1.3191
  125OSM   H13B13212   5.450   1.749   2.385 -0.8727 -1.6631 -0.3806
  125OSM   H13C13213   5.490   1.788   2.211 -0.3031 -1.8034  0.9666
  125OSM    C1213214   5.674   1.642   2.449  0.1278  0.2625 -0.3630
  125OSM   H12A13215   5.697   1.730   2.507 -0.1458 -0.0150  0.1667
  125OSM   H12B13216   5.756   1.572   2.440  0.7677  1.0245 -0.6106
  125OSM    C1113217   5.569   1.568   2.540 -0.6367 -0.1369 -0.1851
  125OSM   H11A13218   5.611   1.536   2.638  1.1192  3.9635  0.5693
  125OSM   H11B13219   5.558   1.472   2.485  1.0216  0.0144 -0.8446
  125OSM      P13220   5.310   1.557   2.572 -0.1071  0.4636  0.2764
  125OSM    O1313221   5.198   1.647   2.585  0.4422 -0.0010 -0.0525
  125OSM    O1413222   5.301   1.463   2.455 -0.4949  0.0810  0.5673
  125OSM    O1113223   5.326   1.483   2.707 -0.2360  0.6323 -0.6768
  125OSM    O1213224   5.449   1.641   2.559  0.7116  0.2797 -0.4168
  125OSM    C1S13225   5.351   1.544   2.831 -0.1571  0.3219  0.0586
  125OSM    H1S13226   5.281   1.629   2.842 -1.6039 -0.7047 -0.8643
  125OSM    H1T13227   5.453   1.586   2.845  0.3492 -1.4951  2.3201
  125OSM     NF13228   5.321   1.511   3.060 -0.2042 -0.1736 -0.3094
  125OSM    HNF13229   5.405   1.547   3.101 -0.8248  2.0629 -0.8335
  125OSM    C2S13230   5.331   1.436   2.937 -0.5671  0.1402 -0.0282
  125OSM    H2S13231   5.234   1.385   2.918 -0.0951 -1.1913  0.9901
  125OSM    C3S13232   5.452   1.334   2.930 -0.2550  1.0282  0.9132
  125OSM    H3S13233   5.541   1.384   2.974  1.9773 -1.0282 -0.9511
  125OSM     O313234   5.485   1.286   2.799 -0.9100 -0.9043 -0.3367
  125OSM    HO313235   5.434   1.337   2.736  0.0097  0.6179  0.0839
  125OSM    C4S13236   5.434   1.215   3.027  0.2567  0.1293 -0.0754
  125OSM    H4S13237   5.475   1.235   3.127  1.6245  1.8818 -0.9336
  125OSM    C5S13238   5.361   1.105   3.000 -0.5748 -0.3139  0.0082
  125OSM    H5S13239   5.297   1.111   2.911 -1.3343  1.1294  0.6058
  125OSM    C6S13240   5.340   0.990   3.088 -0.2350  0.5615 -0.5612
  125OSM    H6S13241   5.351   0.891   3.039 -0.2880  1.5809 -2.7136
  125OSM    H6T13242   5.235   0.990   3.124 -0.5665  1.4710 -1.4846
  125OSM    C7S13243   5.435   0.975   3.212  0.3551  0.5705 -0.2163
  125OSM    H7S13244   5.441   1.055   3.288  2.1460 -1.1997  1.6195
  125OSM    H7T13245   5.538   0.962   3.173 -0.0575  1.1328 -1.5589
  125OSM    C8S13246   5.408   0.837   3.292 -0.9564 -0.2212  0.0972
  125OSM    H8S13247   5.395   0.761   3.212  1.5252 -0.0220 -0.5824
  125OSM    H8T13248   5.309   0.849   3.342 -1.3088  1.8108 -0.9788
  125OSM    C9S13249   5.519   0.795   3.390 -0.0877 -0.6280  0.4192
  125OSM    H9S13250   5.603   0.773   3.321 -2.7042  0.2616 -3.3711
  125OSM    H9T13251   5.488   0.695   3.427 -2.6388 -0.4256 -0.9462
  125OSM   C10S13252   5.545   0.891   3.504 -0.1849  0.0710  0.8216
  125OSM   H10S13253   5.454   0.935   3.550 -0.5856 -0.2956  0.3945
  125OSM   H10T13254   5.604   0.974   3.462  1.0559 -1.5127 -0.6961
  125OSM   C11S13255   5.630   0.833   3.616  0.2932 -0.2349  0.3302
  125OSM   H11S13256   5.731   0.798   3.585  0.2990 -1.4493  1.6456
  125OSM   H11T13257   5.587   0.744   3.667 -1.6866  1.5813  2.0219
  125OSM   C12S13258   5.658   0.933   3.738 -0.7249  0.7063  0.2856
  125OSM   H12S13259   5.564   0.916   3.795 -0.4638  0.7857  0.7380
  125OSM   H12T13260   5.660   1.032   3.688  2.0072  0.3949 -0.3650
  125OSM   C13S13261   5.786   0.918   3.816  0.0085 -0.2319  0.4653
  125OSM   H13S13262   5.875   0.916   3.749  1.2668  1.5241  1.9846
  125OSM   H13T13263   5.789   0.821   3.870  0.1703 -0.2926  0.3468
  125OSM   C14S13264   5.812   1.041   3.906  0.0839 -0.2207 -0.0496
  125OSM   H14S13265   5.812   1.132   3.842 -1.1100 -0.6576 -0.6943
  125OSM   H14T13266   5.909   1.026   3.958 -1.0423 -1.6731  1.7367
  125OSM   C15S13267   5.700   1.050   4.006 -0.3623 -0.4592 -0.4742
  125OSM   H15S13268   5.701   0.959   4.068  0.3709 -1.6095 -2.1003
  125OSM   H15T13269   5.598   1.074   3.971 -0.4459  1.2175  0.7931
  125OSM   C16S13270   5.731   1.163   4.107  0.1629 -0.2075 -0.2264
  125OSM   H16S13271   5.709   1.263   4.065  0.9570  0.1430  0.1855
  125OSM   H16T13272   5.840   1.163   4.128  0.3605  1.8853 -1.1098
  125OSM   C17S13273   5.648   1.146   4.239 -0.0035  0.7646  0.6037
  125OSM   H17S13274   5.671   1.050   4.291 -0.4829 -0.2302 -0.9583
  125OSM   H17T13275   5.541   1.137   4.213 -0.2477  0.0848  1.7994
  125OSM   C18S13276   5.660   1.259   4.350  0.2340  0.8100 -0.0112
  125OSM   H18S13277   5.599   1.226   4.437  1.8468 -2.4118  0.0363
  125OSM   H18T13278   5.619   1.350   4.302 -4.2715 -0.4303  0.9796
  125OSM   H18U13279   5.767   1.260   4.378  0.1590 -1.6058  0.6387
  125OSM    C1F13280   5.200   1.555   3.106 -0.2755  0.2991 -0.2039
  125OSM     OF13281   5.106   1.524   3.038  0.5296 -0.5693 -0.3595
  125OSM    C2F13282   5.190   1.637   3.233  0.1877  0.5997  0.6151
  125OSM    H2F13283   5.181   1.744   3.206  2.3641  0.9656  1.1652
  125OSM    H2G13284   5.282   1.618   3.291  1.0655  1.3677 -0.4833
  125OSM    C3F13285   5.067   1.593   3.324  0.2032 -0.1848 -0.1264
  125OSM    H3F13286   5.060   1.488   3.359 -0.3938 -0.3120 -0.5989
  125OSM    H3G13287   4.973   1.626   3.273 -1.0673 -2.9586  0.2231
  125OSM    C4F13288   5.088   1.673   3.465 -0.2488 -0.0400  0.0095
  125OSM    H4F13289   5.079   1.781   3.439 -1.1562  0.2702  1.4683
  125OSM    H4G13290   5.195   1.663   3.492  0.0782  1.1043 -0.7811
  125OSM    C5F13291   4.980   1.630   3.563  0.5707  0.5379 -0.6747
  125OSM    H5F13292   4.972   1.520   3.575 -1.9312  0.6954 -0.1866
  125OSM    H5G13293   4.882   1.667   3.525  0.3999  0.0957 -0.6720
  125OSM    C6F13294   5.010   1.689   3.710 -0.6271  0.1115 -0.1263
  125OSM    H6F13295   5.015   1.800   3.706  0.7748  0.0229 -1.3673
  125OSM    H6G13296   5.112   1.651   3.730  0.0061  1.9943  0.4438
  125OSM    C7F13297   4.910   1.643   3.817 -0.2436 -0.0608  0.0629
  125OSM    H7F13298   4.913   1.533   3.833  0.9371  0.1619  1.6782
  125OSM    H7G13299   4.807   1.651   3.778 -0.3229 -0.4400  0.1897
  125OSM    C8F13300   4.936   1.713   3.949  0.6877 -0.2927  0.4279
  125OSM    H8F13301   4.836   1.734   3.991  0.6147  1.1462 -0.4019
  125OSM    H8G13302   4.979   1.813   3.927 -0.7012  0.4962  1.1658
  125OSM    C9F13303   5.039   1.640   4.030 -0.6103 -0.0270  0.3298
  125OSM    H9F13304   5.092   1.563   3.973 -0.3937  0.4967 -0.1947
  125OSM   C10F13305   5.072   1.658   4.154  0.0861  0.5009 -0.3038
  125OSM   H10F13306   5.161   1.601   4.186  1.0303  0.4907 -2.7410
  125OSM   C11F13307   5.014   1.755   4.255 -0.4351 -0.2085  0.9426
  125OSM   H11F13308   4.960   1.831   4.194 -1.0190 -1.1039  0.3180
  125OSM   H11G13309   5.097   1.804   4.310  0.0417  3.7001 -2.7305
  125OSM   C12F13310   4.912   1.697   4.358 -0.7960 -0.5378  0.5314
  125OSM   H12F13311   4.953   1.603   4.400  3.1582  1.4345  1.5922
  125OSM   H12G13312   4.815   1.668   4.312 -0.4166 -2.5259  0.9339
  125OSM   C13F13313   4.883   1.789   4.478 -0.9102 -0.7063  0.0345
  125OSM   H13F13314   4.774   1.785   4.500 -0.8176 -0.6291  0.5307
  125OSM   H13G13315   4.893   1.898   4.462 -0.0159 -0.8026 -0.1215
  125OSM   C14F13316   4.950   1.749   4.615  0.1033 -0.2884  0.4169
  125OSM   H14F13317   5.057   1.778   4.612 -0.1810  0.8401  0.8545
  125OSM   H14G13318   4.952   1.638   4.623  1.8289 -0.3364 -0.2818
  125OSM   C15F13319   4.890   1.814   4.735  0.2597  0.2615 -0.1212
  125OSM   H15F13320   4.782   1.792   4.750  0.6094 -0.5088  1.5793
  125OSM   H15G13321   4.909   1.923   4.728  0.4685  0.1482 -1.7354
  125OSM   C16F13322   4.965   1.778   4.863  0.2593 -0.9500 -0.5704
  125OSM   H16F13323   4.924   1.842   4.944 -1.6816 -0.4901 -1.8576
  125OSM   H16G13324   5.071   1.810   4.854 -0.1588  0.2686 -1.4519
  125OSM   C17F13325   4.959   1.635   4.903 -0.1882  0.1339  0.6514
  125OSM   H17F13326   5.016   1.564   4.838  1.1360  0.4250  1.4552
  125OSM   H17G13327   4.855   1.600   4.887 -0.3525  0.5347  0.8289
  125OSM   C18F13328   4.990   1.614   5.057  0.4298  0.6788  0.6110
  125OSM   H18F13329   5.093   1.639   5.090  0.0581  1.0153  1.5575
  125OSM   H18G13330   4.972   1.505   5.067 -0.0003  0.5807 -0.9289
  125OSM   H18H13331   4.913   1.679   5.103 -0.6681  0.4263 -0.7969
  126OSM      N13332   4.879   2.453   2.327 -0.3247 -0.2433  0.6346
  126OSM    C1513333   4.968   2.442   2.211 -0.5157  0.0296  0.4550
  126OSM   H15A13334   5.005   2.344   2.189  2.4698  1.7706 -3.4781
  126OSM   H15B13335   5.060   2.496   2.225 -0.0563 -0.2318 -1.3436
  126OSM   H15C13336   4.918   2.483   2.124  0.5423  0.6348  0.1209
  126OSM    C1413337   4.825   2.596   2.336 -0.3952  0.0818  0.8191
  126OSM   H14A13338   4.746   2.606   2.264 -0.7067  0.6265  1.2315
  126OSM   H14B13339   4.900   2.673   2.330  0.2792 -0.5734  0.6296
  126OSM   H14C13340   4.784   2.612   2.435 -0.8293  1.6111  0.4197
  126OSM    C1313341   4.758   2.357   2.306  0.5258 -0.7911 -0.8867
  126OSM   H13A13342   4.693   2.374   2.391 -0.6729  2.5199 -2.3187
  126OSM   H13B13343   4.788   2.253   2.314 -1.2125 -1.2485  0.3882
  126OSM   H13C13344   4.696   2.359   2.218  0.2817  0.1918 -0.7039
  126OSM    C1213345   4.955   2.427   2.456  0.4962  1.0115  0.5160
  126OSM   H12A13346   5.030   2.505   2.456  0.3033  1.3081 -2.6470
  126OSM   H12B13347   5.012   2.336   2.447 -2.8045 -1.2224  0.7437
  126OSM    C1113348   4.880   2.420   2.594 -0.3801  0.1688  0.2402
  126OSM   H11A13349   4.961   2.403   2.669 -0.8962  1.1863  1.0492
  126OSM   H11B13350   4.814   2.330   2.589  0.1190 -0.1338 -2.9041
  126OSM      P13351   4.650   2.529   2.652 -0.1580 -0.1792 -0.3217
  126OSM    O1313352   4.600   2.665   2.682  0.6222 -0.2695 -0.1871
  126OSM    O1413353   4.583   2.443   2.543 -0.0643  0.0806  0.0677
  126OSM    O1113354   4.661   2.451   2.790  0.2501 -0.6817  0.7203
  126OSM    O1213355   4.803   2.536   2.615 -0.4065 -0.1513  0.2854
  126OSM    C1S13356   4.739   2.485   2.901  0.1125  0.1792 -0.5029
  126OSM    H1S13357   4.700   2.582   2.939  1.5327  1.1678 -1.4843
  126OSM    H1T13358   4.844   2.505   2.870 -0.7191  0.6700 -3.2444
  126OSM     NF13359   4.782   2.430   3.134 -0.1168 -0.1281 -0.0217
  126OSM    HNF13360   4.875   2.397   3.148  0.1496  0.6674  0.1075
  126OSM    C2S13361   4.726   2.379   3.008 -0.2957  0.3927 -0.4153
  126OSM    H2S13362   4.622   2.357   3.040 -0.0031 -0.4092  0.0180
  126OSM    C3S13363   4.783   2.241   2.956 -0.2063 -0.2416 -0.4900
  126OSM    H3S13364   4.881   2.268   2.912 -0.1279  1.6795  0.7391
  126OSM     O313365   4.701   2.184   2.854  0.0287 -0.5327 -0.1316
  126OSM    HO313366   4.661   2.262   2.815 -0.2959 -0.9322 -0.6096
  126OSM    C4S13367   4.789   2.143   3.073 -0.0155 -0.3729 -0.4565
  126OSM    H4S13368   4.694   2.090   3.087 -0.3130 -0.0883 -1.3024
  126OSM    C5S13369   4.888   2.115   3.153 -0.7843 -0.4882 -0.6958
  126OSM    H5S13370   4.982   2.173   3.148 -1.3739  0.3925 -2.6885
  126OSM    C6S13371   4.864   2.023   3.268  0.2143 -0.0557  0.1684
  126OSM    H6S13372   4.962   1.983   3.300 -0.1840 -2.1955 -1.0691
  126OSM    H6T13373   4.811   1.930   3.237  0.7983 -0.9101  1.6259
  126OSM    C7S13374   4.771   2.074   3.383 -0.1447 -0.2536  0.0304
  126OSM    H7S13375   4.678   2.101   3.329 -2.1888  2.2365  4.2924
  126OSM    H7T13376   4.815   2.156   3.444  1.7307 -1.3451  0.2268
  126OSM    C8S13377   4.741   1.957   3.476  0.4975 -0.2435 -0.2718
  126OSM    H8S13378   4.836   1.919   3.518  0.3625 -1.4784 -1.0260
  126OSM    H8T13379   4.687   1.873   3.428  1.8728 -0.6454 -1.1857
  126OSM    C9S13380   4.644   2.002   3.589  0.1269 -1.1264 -0.9527
  126OSM    H9S13381   4.544   2.012   3.542 -0.1760 -0.4201 -0.1755
  126OSM    H9T13382   4.670   2.103   3.626 -2.7287 -0.2111 -1.2167
  126OSM   C10S13383   4.639   1.890   3.695  0.3649 -0.0644 -0.0567
  126OSM   H10S13384   4.732   1.892   3.756  0.8309 -4.3916 -0.2780
  126OSM   H10T13385   4.646   1.796   3.636  0.2415 -0.2986  0.2940
  126OSM   C11S13386   4.511   1.896   3.782  0.3107  1.1097  0.3176
  126OSM   H11S13387   4.426   1.876   3.713  0.1750 -0.8784  1.0124
  126OSM   H11T13388   4.511   1.997   3.828  3.3391  1.4135 -0.0871
  126OSM   C12S13389   4.514   1.782   3.890  0.5032 -0.1475  0.3757
  126OSM   H12S13390   4.618   1.780   3.930 -0.3576  0.6796  2.8401
  126OSM   H12T13391   4.500   1.677   3.856 -1.4283 -0.0948  0.9081
  126OSM   C13S13392   4.427   1.809   4.020  0.0075  0.5979 -0.4310
  126OSM   H13S13393   4.323   1.791   3.984 -0.2632 -0.1086  0.6406
  126OSM   H13T13394   4.441   1.916   4.048  0.3021  0.5364 -0.3393
  126OSM   C14S13395   4.452   1.708   4.141 -0.4833 -0.6405  0.5890
  126OSM   H14S13396   4.561   1.705   4.161 -0.2424  1.7401 -0.0963
  126OSM   H14T13397   4.432   1.602   4.113 -3.6805 -0.2802  1.0708
  126OSM   C15S13398   4.367   1.734   4.263 -0.6626 -0.1758 -0.5109
  126OSM   H15S13399   4.261   1.704   4.254 -0.8488 -0.9818  2.9233
  126OSM   H15T13400   4.362   1.841   4.293  1.0139  0.4558 -2.2534
  126OSM   C16S13401   4.419   1.660   4.385  0.0075  0.2068 -0.1780
  126OSM   H16S13402   4.519   1.699   4.413 -0.9091  1.9603  0.8136
  126OSM   H16T13403   4.436   1.561   4.338  0.8754  1.1740 -2.0176
  126OSM   C17S13404   4.318   1.671   4.510  0.6309 -0.3395  0.0980
  126OSM   H17S13405   4.222   1.624   4.481 -0.2076  0.3350  1.6379
  126OSM   H17T13406   4.303   1.780   4.526 -0.7149 -0.4499 -0.3372
  126OSM   C18S13407   4.369   1.608   4.643  0.1303  0.1157 -0.6972
  126OSM   H18S13408   4.291   1.601   4.722 -0.3185 -1.8023 -1.2597
  126OSM   H18T13409   4.453   1.672   4.678  0.3491 -0.3186 -0.4229
  126OSM   H18U13410   4.397   1.501   4.638 -0.9160 -0.2903  1.0524
  126OSM    C1F13411   4.725   2.525   3.210  0.5903 -0.4181  0.6278
  126OSM     OF13412   4.612   2.561   3.183  0.2028 -0.0700  0.3048
  126OSM    C2F13413   4.794   2.576   3.331 -0.8314 -0.4908 -0.7459
  126OSM    H2F13414   4.823   2.682   3.315 -3.5729  0.6208  0.9768
  126OSM    H2G13415   4.883   2.516   3.359 -2.1284 -1.5215  1.4641
  126OSM    C3F13416   4.706   2.562   3.464  0.4111  1.0331 -0.1006
  126OSM    H3F13417   4.670   2.457   3.465 -1.6513  1.6425 -2.0926
  126OSM    H3G13418   4.622   2.634   3.462 -0.2579  0.3594  1.7994
  126OSM    C4F13419   4.785   2.596   3.593 -0.0482  0.1402  0.5332
  126OSM    H4F13420   4.833   2.696   3.588 -1.6002  0.9236  0.6409
  126OSM    H4G13421   4.851   2.516   3.634  0.7057  0.2892 -0.3658
  126OSM    C5F13422   4.692   2.615   3.715  0.2679  0.4125 -0.0909
  126OSM    H5F13423   4.636   2.520   3.731  1.0660  0.0400  0.5746
  126OSM    H5G13424   4.632   2.704   3.689  0.3668  0.1733 -1.1782
  126OSM    C6F13425   4.776   2.646   3.838 -0.6786 -0.3750 -1.1326
  126OSM    H6F13426   4.865   2.581   3.844 -1.2905 -1.0957  0.9588
  126OSM    H6G13427   4.716   2.616   3.927  1.8166 -0.5104  0.5918
  126OSM    C7F13428   4.811   2.797   3.849  0.8727  0.0703 -0.2003
  126OSM    H7F13429   4.729   2.871   3.848  1.0841  0.3075 -1.7568
  126OSM    H7G13430   4.884   2.830   3.772  0.3043 -0.4284 -0.9646
  126OSM    C8F13431   4.891   2.824   3.987  0.2754  0.5995 -0.4802
  126OSM    H8F13432   4.831   2.789   4.073  2.0135  0.3681  0.6980
  126OSM    H8G13433   4.916   2.932   4.000 -0.3010  0.5468  1.3536
  126OSM    C9F13434   5.025   2.757   3.977 -0.1632  0.1075 -0.4690
  126OSM    H9F13435   5.079   2.780   3.884 -1.9571  0.6111 -1.4253
  126OSM   C10F13436   5.080   2.675   4.065  0.5375 -0.5335 -0.8735
  126OSM   H10F13437   5.185   2.650   4.047  0.9994  0.4802  0.2387
  126OSM   C11F13438   5.023   2.655   4.206  0.2940  0.8735 -0.7475
  126OSM   H11F13439   5.072   2.561   4.239 -0.1773  0.9413  0.1861
  126OSM   H11G13440   4.914   2.639   4.215  0.0993  2.6565  0.7803
  126OSM   C12F13441   5.062   2.767   4.308  0.3766  0.1193  0.1264
  126OSM   H12F13442   5.013   2.859   4.272  0.6624  0.6046  0.9488
  126OSM   H12G13443   5.170   2.792   4.312 -0.2304  2.8595  0.8112
  126OSM   C13F13444   5.019   2.739   4.446  0.3300 -0.6966  0.0839
  126OSM   H13F13445   5.080   2.655   4.487  0.7567 -1.2596 -1.6245
  126OSM   H13G13446   4.913   2.706   4.442 -0.7208  2.4471 -0.9316
  126OSM   C14F13447   5.035   2.869   4.528  0.7065  0.2660 -0.2027
  126OSM   H14F13448   4.999   2.953   4.465  2.7549  0.1556 -1.6391
  126OSM   H14G13449   5.143   2.883   4.553  0.9232 -0.1903 -0.8644
  126OSM   C15F13450   4.945   2.857   4.656 -0.5026  0.1135 -0.2774
  126OSM   H15F13451   4.991   2.765   4.698  1.1639  0.6071 -0.9082
  126OSM   H15G13452   4.839   2.836   4.632 -0.4029  0.3984 -0.9816
  126OSM   C16F13453   4.963   2.969   4.759  0.0232 -0.5431 -0.8513
  126OSM   H16F13454   4.915   3.058   4.712  1.4379  0.6810 -0.0364
  126OSM   H16G13455   5.070   2.977   4.789 -0.8104 -0.6085  2.6614
  126OSM   C17F13456   4.889   2.959   4.896 -0.4015  0.6210 -1.1455
  126OSM   H17F13457   4.942   2.877   4.949 -2.5637 -0.0448  0.1421
  126OSM   H17G13458   4.788   2.913   4.884  0.5275 -1.9316  0.1287
  126OSM   C18F13459   4.897   3.083   4.989  0.8890 -0.0743  0.5674
  126OSM   H18F13460   4.855   3.178   4.948  0.4637 -0.6664 -0.4026
  126OSM   H18G13461   5.001   3.119   5.006  0.4282  1.0876  1.0192
  126OSM   H18H13462   4.842   3.063   5.083 -1.1536 -0.1757 -0.5816
  127OSM      N13463   3.531   5.008   2.924 -0.6110 -0.1054 -0.1237
  127OSM    C1513464   3.679   5.018   2.906  0.5536 -0.0048 -0.6184
  127OSM   H15A13465   3.721   4.933   2.855  0.4487 -0.8057  0.5845
  127OSM   H15B13466   3.734   5.025   2.999 -1.0637  0.2024  0.3597
  127OSM   H15C13467   3.700   5.113   2.859 -0.1458  0.6644  0.3928
  127OSM    C1413468   3.494   5.125   3.012  0.4823  0.3053  0.7268
  127OSM   H14A13469   3.517   5.222   2.969 -1.2747  0.0821 -0.8187
  127OSM   H14B13470   3.521   5.109   3.115  0.0767  0.5891  0.8781
  127OSM   H14C13471   3.386   5.126   3.012  0.4478 -0.6699 -0.9489
  127OSM    C1313472   3.468   5.031   2.792 -0.1216 -0.0978  0.3423
  127OSM   H13A13473   3.477   4.939   2.736 -0.9061  0.2103 -0.3100
  127OSM   H13B13474   3.509   5.118   2.743 -2.7586  2.2943  2.0734
  127OSM   H13C13475   3.361   5.047   2.799 -0.0717  0.7037 -0.4853
  127OSM    C1213476   3.481   4.877   2.992  0.4298  0.3179 -0.0450
  127OSM   H12A13477   3.508   4.884   3.096 -1.8638  3.8772  0.4768
  127OSM   H12B13478   3.523   4.792   2.939 -0.3723 -1.0105  1.3656
  127OSM    C1113479   3.331   4.837   2.984  0.0753 -0.3569  1.0194
  127OSM   H11A13480   3.319   4.726   2.982  1.2896 -0.5195 -2.0611
  127OSM   H11B13481   3.287   4.880   2.892 -1.0389  0.5552  1.9457
  127OSM      P13482   3.148   4.995   3.106 -0.2867 -0.1742 -0.3129
  127OSM    O1313483   3.187   5.137   3.112  0.0083  0.6227  0.5869
  127OSM    O1413484   3.064   4.953   2.987 -0.0281  0.5485 -0.6629
  127OSM    O1113485   3.078   4.956   3.247  0.5411 -0.2692  0.4961
  127OSM    O1213486   3.273   4.892   3.103 -0.0195 -0.3525  0.1102
  127OSM    C1S13487   3.045   4.824   3.281 -0.4373  0.0578  0.1191
  127OSM    H1S13488   3.136   4.762   3.263  0.6209  0.5619  3.0978
  127OSM    H1T13489   2.957   4.783   3.227 -0.4914  0.7802 -0.3509
  127OSM     NF13490   2.994   4.652   3.461  0.2730 -0.2455  0.1163
  127OSM    HNF13491   2.900   4.623   3.445  0.1120 -0.6061  1.5340
  127OSM    C2S13492   3.021   4.793   3.435 -0.3869  0.0342 -0.7477
  127OSM    H2S13493   3.123   4.812   3.476  0.7008 -4.2705 -0.9169
  127OSM    C3S13494   2.917   4.888   3.483 -0.3325  0.3145 -0.1860
  127OSM    H3S13495   2.822   4.862   3.432 -1.0062  0.2303  1.0731
  127OSM     O313496   2.950   5.026   3.458 -0.7989  0.3728 -0.5338
  127OSM    HO313497   3.016   5.013   3.389  1.8635  1.5323  1.5938
  127OSM    C4S13498   2.910   4.866   3.633 -0.5327  0.0401 -0.5936
  127OSM    H4S13499   2.994   4.914   3.685  0.2146 -0.7771 -1.0148
  127OSM    C5S13500   2.812   4.808   3.706  0.6969  0.0414  0.3191
  127OSM    H5S13501   2.732   4.773   3.640 -0.1714 -0.9382  1.8317
  127OSM    C6S13502   2.791   4.799   3.857 -0.2208  0.6952 -0.3380
  127OSM    H6S13503   2.775   4.694   3.891 -1.7909  0.7827 -0.7214
  127OSM    H6T13504   2.690   4.835   3.885 -0.3029 -1.2555  2.1797
  127OSM    C7S13505   2.889   4.874   3.946 -0.3125 -0.6745 -1.0673
  127OSM    H7S13506   2.893   4.985   3.947 -3.2666 -0.3817  3.3101
  127OSM    H7T13507   2.989   4.828   3.927  0.2552 -0.3667  0.9335
  127OSM    C8S13508   2.884   4.828   4.095  0.0698 -0.3772  0.2944
  127OSM    H8S13509   2.977   4.872   4.136 -1.1926  1.9554  0.8148
  127OSM    H8T13510   2.881   4.717   4.102 -1.1886 -0.4717 -1.2404
  127OSM    C9S13511   2.773   4.890   4.192 -0.5915 -0.3699  0.1177
  127OSM    H9S13512   2.809   4.872   4.295 -1.8943 -2.6104  0.2561
  127OSM    H9T13513   2.683   4.826   4.179 -1.3424  0.5195  0.8340
  127OSM   C10S13514   2.755   5.041   4.168 -0.3438 -0.0091  0.4774
  127OSM   H10S13515   2.723   5.069   4.066 -0.5431  0.1580  0.5856
  127OSM   H10T13516   2.850   5.090   4.199  0.3158 -1.9394  1.7640
  127OSM   C11S13517   2.641   5.094   4.253 -0.0506 -1.0319 -0.5886
  127OSM   H11S13518   2.562   5.016   4.259 -0.3918 -0.6672 -0.2721
  127OSM   H11T13519   2.607   5.190   4.209  0.8276 -0.2438  0.3861
  127OSM   C12S13520   2.677   5.117   4.402 -0.6959  0.5123  0.4914
  127OSM   H12S13521   2.746   5.204   4.405 -2.0843  1.8716 -2.4815
  127OSM   H12T13522   2.726   5.022   4.432  0.8018  1.3218  0.7180
  127OSM   C13S13523   2.565   5.137   4.494 -0.0404 -0.4330  0.1139
  127OSM   H13S13524   2.504   5.044   4.496 -1.2298  0.3254  0.4383
  127OSM   H13T13525   2.496   5.218   4.462  0.4143  0.3686  1.1157
  127OSM   C14S13526   2.609   5.159   4.639 -0.2968 -0.0794  0.1075
  127OSM   H14S13527   2.519   5.188   4.698  1.0388  1.9679  1.2721
  127OSM   H14T13528   2.682   5.241   4.658 -0.6137  0.2683 -0.1674
  127OSM   C15S13529   2.670   5.036   4.705  0.1453  0.0547 -0.3254
  127OSM   H15S13530   2.763   5.012   4.650  2.2278  3.2220  1.4572
  127OSM   H15T13531   2.606   4.946   4.697  0.2569 -0.1567  0.9636
  127OSM   C16S13532   2.706   5.059   4.854  0.3812  0.7581 -0.1798
  127OSM   H16S13533   2.802   5.114   4.863  2.2944 -2.4557  0.6470
  127OSM   H16T13534   2.724   4.960   4.902 -1.8633 -0.4255 -1.5995
  127OSM   C17S13535   2.600   5.121   4.951  0.0500  0.1581 -0.1511
  127OSM   H17S13536   2.607   5.066   5.048 -1.6152  0.9264  0.4397
  127OSM   H17T13537   2.502   5.102   4.902 -0.4698 -0.1277  0.9602
  127OSM   C18S13538   2.627   5.273   4.978  0.0828 -0.4125  0.4096
  127OSM   H18S13539   2.630   5.313   4.875  0.5736 -2.7505 -0.5458
  127OSM   H18T13540   2.728   5.278   5.025  1.0355 -1.9057 -1.3330
  127OSM   H18U13541   2.553   5.330   5.038  1.8360  1.6222  0.7924
  127OSM    C1F13542   3.084   4.549   3.456 -0.2197  0.1243  0.0378
  127OSM     OF13543   3.204   4.571   3.426  0.0132  0.2424 -0.3975
  127OSM    C2F13544   3.031   4.417   3.484 -0.7814 -0.0691  0.7738
  127OSM    H2F13545   3.062   4.355   3.396  1.1003  0.4474  1.0186
  127OSM    H2G13546   2.922   4.436   3.484 -0.9632 -0.9952 -0.2257
  127OSM    C3F13547   3.074   4.359   3.619 -0.4325  0.0038  0.2218
  127OSM    H3F13548   3.184   4.366   3.634 -0.4925  2.9687 -0.1014
  127OSM    H3G13549   3.043   4.253   3.620  1.7025 -0.8834 -4.1846
  127OSM    C4F13550   3.009   4.417   3.745 -0.2483 -1.1392 -0.3862
  127OSM    H4F13551   2.903   4.440   3.719 -0.1664  1.1192  1.0783
  127OSM    H4G13552   3.043   4.519   3.772  1.5011 -0.5141 -4.2476
  127OSM    C5F13553   3.032   4.347   3.875  0.2146  0.1067 -0.4136
  127OSM    H5F13554   3.142   4.339   3.888  0.0169 -0.4995  0.9913
  127OSM    H5G13555   2.989   4.245   3.872 -1.2451  0.6480  0.9636
  127OSM    C6F13556   2.980   4.423   3.989 -0.3933 -0.4168 -0.4758
  127OSM    H6F13557   2.872   4.407   4.011  0.3978 -3.4384  1.8436
  127OSM    H6G13558   2.996   4.533   3.982  0.8612 -0.4963  0.7938
  127OSM    C7F13559   3.026   4.383   4.129 -0.6431  0.5783 -0.4139
  127OSM    H7F13560   3.136   4.383   4.115 -0.7162  1.9117 -1.1170
  127OSM    H7G13561   2.985   4.285   4.163  2.5581 -0.7440 -0.0476
  127OSM    C8F13562   2.988   4.489   4.237  0.3410 -0.5467  0.0710
  127OSM    H8F13563   2.878   4.487   4.251  0.5772  2.2174  3.7337
  127OSM    H8G13564   3.018   4.586   4.192  2.0067 -2.2155 -2.7099
  127OSM    C9F13565   3.049   4.471   4.372  0.1016  0.8015  0.3105
  127OSM    H9F13566   3.132   4.399   4.379 -0.3978 -0.2020 -2.5705
  127OSM   C10F13567   3.018   4.536   4.484  0.2215  1.5886  0.0511
  127OSM   H10F13568   3.073   4.500   4.573  0.4163 -2.0903 -1.3872
  127OSM   C11F13569   2.914   4.644   4.501 -0.2536  0.2887 -0.5246
  127OSM   H11F13570   2.852   4.631   4.592  0.4370  1.2878  0.1118
  127OSM   H11G13571   2.842   4.628   4.419 -1.7223  0.9936  0.5825
  127OSM   C12F13572   2.973   4.785   4.514  0.0530 -0.8689  0.2274
  127OSM   H12F13573   2.903   4.866   4.487  1.5034  0.8564  1.4368
  127OSM   H12G13574   3.049   4.793   4.434 -0.0454  0.4565  0.2523
  127OSM   C13F13575   3.035   4.824   4.645 -0.2486 -0.0526 -0.1168
  127OSM   H13F13576   3.105   4.746   4.683 -1.5037 -0.1325  2.1729
  127OSM   H13G13577   2.961   4.840   4.726  1.7740 -0.0478  1.8376
  127OSM   C14F13578   3.121   4.955   4.639 -0.7919  0.3967 -0.1097
  127OSM   H14F13579   3.171   4.947   4.540 -0.7787 -0.4573 -0.0456
  127OSM   H14G13580   3.194   4.952   4.722 -0.3635  2.1433 -0.3823
  127OSM   C15F13581   3.031   5.075   4.647 -0.6978 -0.2809 -0.1566
  127OSM   H15F13582   2.964   5.071   4.736 -2.5183 -2.0498 -1.4853
  127OSM   H15G13583   2.961   5.069   4.561 -0.3197  0.3892 -0.5120
  127OSM   C16F13584   3.111   5.202   4.640  0.0853 -0.1373  0.2814
  127OSM   H16F13585   3.173   5.192   4.549  0.5408  0.2816  0.5389
  127OSM   H16G13586   3.173   5.196   4.733 -2.8607 -0.6795  2.3507
  127OSM   C17F13587   3.016   5.331   4.646  0.1075 -0.0676 -0.6477
  127OSM   H17F13588   2.950   5.327   4.736  2.8594  0.1191  1.5093
  127OSM   H17G13589   2.952   5.335   4.555 -0.8373  0.6048  0.0249
  127OSM   C18F13590   3.107   5.458   4.660  0.5799  0.3700  0.3322
  127OSM   H18F13591   3.035   5.543   4.660  2.3461  1.9281  0.8172
  127OSM   H18G13592   3.182   5.466   4.578  0.1449 -0.6052 -0.1762
  127OSM   H18H13593   3.161   5.444   4.755  1.2448 -0.6430 -0.1790
  128OSM      N13594   4.111   3.031   2.644 -0.4939  0.1958  0.0074
  128OSM    C1513595   4.102   3.179   2.596  0.2162  0.6038 -0.0123
  128OSM   H15A13596   4.053   3.242   2.669  1.7661 -0.6714  2.2626
  128OSM   H15B13597   4.050   3.186   2.502  0.1271  2.1095  0.1251
  128OSM   H15C13598   4.201   3.223   2.594  1.1906 -1.0302  3.5719
  128OSM    C1413599   3.973   2.963   2.638  0.4472 -0.1812  0.6747
  128OSM   H14A13600   3.934   2.960   2.537 -1.6846 -0.4619  1.4383
  128OSM   H14B13601   3.899   3.007   2.704  0.4021  0.1234  0.4245
  128OSM   H14C13602   3.985   2.860   2.668 -1.6594 -0.9787 -0.8676
  128OSM    C1313603   4.192   2.964   2.535  0.5300 -0.2020  0.0289
  128OSM   H13A13604   4.270   3.030   2.500 -0.4265  0.0228 -1.8190
  128OSM   H13B13605   4.134   2.942   2.447 -1.7637 -1.3594  1.7313
  128OSM   H13C13606   4.237   2.869   2.560 -0.6485 -0.9966 -0.8086
  128OSM    C1213607   4.175   3.013   2.779 -0.3709 -0.1887 -1.2459
  128OSM   H12A13608   4.277   3.049   2.780  0.1080 -1.3099  1.8639
  128OSM   H12B13609   4.188   2.909   2.804  2.8046  0.2948 -0.3896
  128OSM    C1113610   4.105   3.084   2.905 -0.2769  0.2505 -0.2978
  128OSM   H11A13611   4.123   3.040   3.006 -3.7770  0.2262  0.4392
  128OSM   H11B13612   4.001   3.059   2.876 -0.1610 -0.3511 -0.2236
  128OSM      P13613   4.266   3.288   2.947  0.2776  0.3915  0.2289
  128OSM    O1313614   4.369   3.230   2.863  0.4769  0.0722  0.3719
  128OSM    O1413615   4.259   3.439   2.940  0.0659  0.9316 -0.0544
  128OSM    O1113616   4.291   3.251   3.097 -0.4082  0.3156 -0.1111
  128OSM    O1213617   4.122   3.227   2.909 -0.0560 -0.1446  0.2330
  128OSM    C1S13618   4.175   3.271   3.187 -0.2061  0.1060  0.3625
  128OSM    H1S13619   4.095   3.196   3.171 -0.9835  1.1336 -0.6936
  128OSM    H1T13620   4.125   3.368   3.163 -0.0878 -0.3331 -1.9097
  128OSM     NF13621   4.093   3.221   3.421 -1.0890  0.5195  0.2414
  128OSM    HNF13622   4.044   3.289   3.475 -1.3919 -0.5779  1.3958
  128OSM    C2S13623   4.207   3.265   3.339 -0.8172  0.1404  1.3211
  128OSM    H2S13624   4.278   3.179   3.340  0.3875  0.9321 -2.4178
  128OSM    C3S13625   4.296   3.381   3.377  0.9745 -0.3866 -0.7914
  128OSM    H3S13626   4.243   3.477   3.388  4.1341  1.2381  2.3390
  128OSM     O313627   4.395   3.424   3.283  0.4207 -0.1911  0.1073
  128OSM    HO313628   4.374   3.365   3.210 -1.2390  1.3033 -0.6940
  128OSM    C4S13629   4.366   3.360   3.515 -0.4530 -0.0918 -0.3090
  128OSM    H4S13630   4.300   3.369   3.603  0.4617  0.0983  0.3601
  128OSM    C5S13631   4.486   3.302   3.537 -0.4517 -0.0698  0.1193
  128OSM    H5S13632   4.538   3.267   3.447  2.1048  2.8619  0.2974
  128OSM    C6S13633   4.548   3.270   3.674 -0.3214  0.1433 -0.3654
  128OSM    H6S13634   4.656   3.293   3.678 -0.4847  1.3569 -2.0154
  128OSM    H6T13635   4.537   3.160   3.680 -1.4323  0.1746 -1.3682
  128OSM    C7S13636   4.470   3.330   3.795 -0.1387 -0.2650  0.7895
  128OSM    H7S13637   4.387   3.259   3.813  0.5808 -1.5783 -0.8388
  128OSM    H7T13638   4.437   3.432   3.767  0.7400 -0.3575 -0.6654
  128OSM    C8S13639   4.555   3.344   3.922  0.1659  0.0314  0.1387
  128OSM    H8S13640   4.639   3.414   3.902 -0.4138  0.8268  0.4623
  128OSM    H8T13641   4.589   3.244   3.955 -0.8057 -0.3179  0.1270
  128OSM    C9S13642   4.474   3.400   4.043 -0.4305  0.5295  0.0289
  128OSM    H9S13643   4.543   3.403   4.130 -0.8949  0.5792  0.4002
  128OSM    H9T13644   4.401   3.317   4.054  1.1436 -0.8664  0.3958
  128OSM   C10S13645   4.407   3.532   4.022 -0.1141  0.2115 -0.1751
  128OSM   H10S13646   4.340   3.522   3.933  0.2201 -1.5794 -0.2602
  128OSM   H10T13647   4.476   3.615   3.995 -0.1237  0.2329 -0.1350
  128OSM   C11S13648   4.331   3.584   4.151 -0.5047 -0.2405 -0.2852
  128OSM   H11S13649   4.274   3.493   4.180 -0.6885 -1.4908 -3.9747
  128OSM   H11T13650   4.255   3.662   4.130  0.2957  0.3938 -0.9270
  128OSM   C12S13651   4.427   3.637   4.265 -0.0540  0.9458  0.2132
  128OSM   H12S13652   4.458   3.740   4.237  0.0378  0.6025 -0.9788
  128OSM   H12T13653   4.518   3.573   4.261 -0.6404  0.1654 -1.4580
  128OSM   C13S13654   4.357   3.644   4.403  0.0999 -0.3866 -0.1309
  128OSM   H13S13655   4.311   3.545   4.423  0.6541 -1.3113 -2.8802
  128OSM   H13T13656   4.273   3.712   4.378  1.3822  0.2281 -3.3689
  128OSM   C14S13657   4.449   3.698   4.520  0.1487  0.1919 -0.3674
  128OSM   H14S13658   4.467   3.806   4.501  1.8032  0.4446  2.2073
  128OSM   H14T13659   4.549   3.650   4.518 -0.1257 -0.4320  0.4045
  128OSM   C15S13660   4.371   3.683   4.650  0.2187 -0.0516 -0.1295
  128OSM   H15S13661   4.445   3.669   4.731  1.4534 -1.7023 -1.4776
  128OSM   H15T13662   4.312   3.589   4.647  0.6042 -0.3568  1.1936
  128OSM   C16S13663   4.277   3.797   4.669  0.7955 -0.4871 -0.2000
  128OSM   H16S13664   4.207   3.792   4.584 -0.0740 -2.4870  0.5652
  128OSM   H16T13665   4.332   3.894   4.669  1.2476 -0.7084  1.3994
  128OSM   C17S13666   4.197   3.768   4.795  0.5208 -0.0528  0.8184
  128OSM   H17S13667   4.272   3.772   4.877  0.2617 -0.2269  1.0657
  128OSM   H17T13668   4.145   3.670   4.792 -0.7291  0.6092 -0.0730
  128OSM   C18S13669   4.088   3.876   4.813 -0.2986  0.0247 -0.8197
  128OSM   H18S13670   4.014   3.838   4.887  2.0860 -1.4510  0.9593
  128OSM   H18T13671   4.043   3.897   4.713  0.4449  0.5388 -1.0557
  128OSM   H18U13672   4.137   3.970   4.846 -2.3580  0.6639  0.6310
  128OSM    C1F13673   4.033   3.105   3.408  0.1418  0.2845 -0.0321
  128OSM     OF13674   4.050   3.027   3.317 -0.7246 -0.7293  1.0689
  128OSM    C2F13675   3.940   3.081   3.515 -0.2930 -0.0491  0.0115
  128OSM    H2F13676   3.851   3.147   3.515 -1.2148 -1.1483 -2.7796
  128OSM    H2G13677   3.995   3.101   3.609 -0.6488  2.6368 -0.2804
  128OSM    C3F13678   3.890   2.933   3.517 -0.4108 -0.3355 -0.0602
  128OSM    H3F13679   3.971   2.859   3.509 -0.5526 -0.4341 -0.5986
  128OSM    H3G13680   3.835   2.919   3.422  2.8277 -1.1065 -1.9628
  128OSM    C4F13681   3.794   2.896   3.629  0.2602  0.1931  0.5344
  128OSM    H4F13682   3.756   2.792   3.621 -1.3670  0.7083  1.1412
  128OSM    H4G13683   3.705   2.963   3.626 -0.1373 -0.2963  1.1363
  128OSM    C5F13684   3.855   2.904   3.771 -0.5163 -0.0463  0.5262
  128OSM    H5F13685   3.878   3.012   3.785  0.2271 -0.1062 -0.1498
  128OSM    H5G13686   3.946   2.841   3.771  0.0622  0.7682  0.1465
  128OSM    C6F13687   3.761   2.843   3.878 -0.5279 -0.9354  0.1103
  128OSM    H6F13688   3.732   2.739   3.855  1.3995 -1.1200 -1.8176
  128OSM    H6G13689   3.667   2.903   3.876 -0.5841 -1.0189  0.2155
  128OSM    C7F13690   3.832   2.839   4.014  0.1430 -0.4653 -0.5347
  128OSM    H7F13691   3.832   2.940   4.060 -0.6878 -0.1330 -1.2402
  128OSM    H7G13692   3.937   2.808   3.999  0.2130  0.5744 -2.5631
  128OSM    C8F13693   3.762   2.739   4.106  0.2996  0.5950 -0.1989
  128OSM    H8F13694   3.835   2.710   4.185  0.0072  2.9506  1.0509
  128OSM    H8G13695   3.748   2.647   4.045 -1.8633  1.3637 -0.9757
  128OSM    C9F13696   3.634   2.791   4.170 -0.3224 -0.4361 -0.1056
  128OSM    H9F13697   3.544   2.732   4.146  0.9344 -2.4426 -0.1586
  128OSM   C10F13698   3.624   2.876   4.275  0.4215  0.3413 -0.1150
  128OSM   H10F13699   3.522   2.888   4.313 -0.4690  0.7780 -2.4935
  128OSM   C11F13700   3.730   2.957   4.343 -0.5074  0.3591  0.0654
  128OSM   H11F13701   3.727   3.066   4.325  2.1709  0.3401 -1.0365
  128OSM   H11G13702   3.832   2.933   4.305  0.7839  1.3618  2.6949
  128OSM   C12F13703   3.726   2.934   4.491  0.2422 -0.4593 -0.0345
  128OSM   H12F13704   3.748   2.827   4.509 -0.0561 -0.8907 -2.0578
  128OSM   H12G13705   3.625   2.964   4.527 -1.4059 -3.6401 -1.5976
  128OSM   C13F13706   3.834   3.020   4.569 -0.3247 -0.1321 -0.0758
  128OSM   H13F13707   3.817   3.130   4.571 -1.5558 -0.2785 -1.2482
  128OSM   H13G13708   3.931   3.004   4.516 -0.6595  2.2159 -1.5350
  128OSM   C14F13709   3.854   2.995   4.711 -0.9296  0.1730 -0.1251
  128OSM   H14F13710   3.951   3.036   4.745 -0.4012 -0.4050 -0.9024
  128OSM   H14G13711   3.874   2.887   4.729 -0.7285  0.0727 -0.9362
  128OSM   C15F13712   3.741   3.055   4.803 -0.1509 -0.0670  0.0632
  128OSM   H15F13713   3.638   3.019   4.786 -0.2215  0.4182 -0.5913
  128OSM   H15G13714   3.736   3.164   4.779  1.7611 -0.0643 -0.4652
  128OSM   C16F13715   3.774   3.037   4.950  0.0074  0.1737  0.2780
  128OSM   H16F13716   3.883   3.052   4.967  0.0313  0.0240  0.2578
  128OSM   H16G13717   3.752   2.932   4.978  0.7863 -0.0248  0.1678
  128OSM   C17F13718   3.686   3.135   5.041  0.0209 -0.0261 -0.3841
  128OSM   H17F13719   3.705   3.105   5.146  1.1534 -0.5197 -0.7091
  128OSM   H17G13720   3.582   3.106   5.012 -0.4401  0.5654  0.6332
  128OSM   C18F13721   3.708   3.282   5.029  0.3951  0.0566  0.0797
  128OSM   H18F13722   3.638   3.336   5.097 -1.0604  0.1424 -1.4260
  128OSM   H18G13723   3.705   3.316   4.923  1.6168  2.9365  0.8530
  128OSM   H18H13724   3.811   3.305   5.066  0.6281 -2.7484  1.4157
  129OSM      N13725   5.599   0.221   2.558  0.2449 -0.0088 -0.8588
  129OSM    C1513726   5.539   0.356   2.582  0.1737  0.0444  0.4234
  129OSM   H15A13727   5.470   0.395   2.509  0.0920  1.6819  1.3104
  129OSM   H15B13728   5.614   0.434   2.588 -1.9118  2.1868  0.5714
  129OSM   H15C13729   5.496   0.353   2.681 -1.2102 -0.3388 -0.1586
  129OSM    C1413730   5.640   0.213   2.410  0.4908  0.5933 -0.0406
  129OSM   H14A13731   5.678   0.113   2.398 -3.1028 -1.0307  0.8132
  129OSM   H14B13732   5.721   0.277   2.380  1.5732 -0.7398 -0.0565
  129OSM   H14C13733   5.552   0.228   2.349  0.1661 -1.5070 -0.1569
  129OSM    C1313734   5.716   0.198   2.650 -0.3523  0.2478 -0.0360
  129OSM   H13A13735   5.760   0.100   2.636 -1.0086 -0.3550  1.7764
  129OSM   H13B13736   5.690   0.213   2.754  1.6196  0.0742  0.5146
  129OSM   H13C13737   5.798   0.266   2.633  1.2589 -1.3898  0.8652
  129OSM    C1213738   5.489   0.114   2.575 -0.7989 -0.1747 -0.5695
  129OSM   H12A13739   5.542   0.020   2.578  2.6196  1.5714  1.7601
  129OSM   H12B13740   5.421   0.125   2.492  1.6736  0.7986 -2.6044
  129OSM    C1113741   5.408   0.115   2.706 -0.7249 -0.1801  0.0058
  129OSM   H11A13742   5.471   0.120   2.797 -0.4110  0.2275 -0.2306
  129OSM   H11B13743   5.355   0.018   2.707 -0.3817 -0.3957 -1.0772
  129OSM      P13744   5.178   0.217   2.629 -0.1497  0.1958 -0.2957
  129OSM    O1313745   5.170   0.319   2.520 -0.1128  0.1566  0.0123
  129OSM    O1413746   5.152   0.081   2.587  0.1247  0.1967  0.1270
  129OSM    O1113747   5.069   0.253   2.732 -0.4573 -0.1100  0.3661
  129OSM    O1213748   5.317   0.234   2.703 -0.0652  0.4390  0.1118
  129OSM    C1S13749   5.055   0.166   2.847  0.3341  0.0572  0.0726
  129OSM    H1S13750   5.129   0.084   2.857  0.9148  0.5071 -0.4775
  129OSM    H1T13751   4.961   0.107   2.842  1.1160 -1.2152 -0.0574
  129OSM     NF13752   5.046   0.171   3.097  0.9257 -0.2310  0.5211
  129OSM    HNF13753   4.953   0.174   3.134  0.7355 -1.0984  0.1399
  129OSM    C2S13754   5.077   0.251   2.976 -0.1947  0.1922 -0.0862
  129OSM    H2S13755   5.181   0.288   2.991 -0.6615  1.5950 -0.1494
  129OSM    C3S13756   4.983   0.376   2.972  0.0906  0.5721  1.2264
  129OSM    H3S13757   4.879   0.339   2.973  1.2282 -3.0143  1.2301
  129OSM     O313758   5.009   0.455   2.857  0.0920  0.5304 -0.4687
  129OSM    HO313759   5.046   0.392   2.795  0.2304  0.6887 -0.5448
  129OSM    C4S13760   4.993   0.453   3.092 -0.6849  0.1477  0.5414
  129OSM    H4S13761   4.904   0.442   3.154 -0.2122 -0.6877  1.0860
  129OSM    C5S13762   5.074   0.558   3.126 -0.2292 -0.2110  0.1046
  129OSM    H5S13763   5.161   0.572   3.061  1.3399 -1.4686  1.8156
  129OSM    C6S13764   5.076   0.644   3.251  0.3707 -0.8291  0.1675
  129OSM    H6S13765   5.034   0.744   3.229  0.2625 -0.7081  0.9068
  129OSM    H6T13766   5.179   0.669   3.285 -0.1626  0.4474  0.9179
  129OSM    C7S13767   5.007   0.563   3.360  0.0103 -0.7238  0.1112
  129OSM    H7S13768   5.058   0.465   3.373 -1.0357 -1.5562 -1.6593
  129OSM    H7T13769   4.897   0.558   3.345 -0.0131 -0.7287  0.2740
  129OSM    C8S13770   5.025   0.641   3.492  0.1371 -0.3546  0.4352
  129OSM    H8S13771   4.938   0.616   3.557  0.4849 -0.9220  0.6893
  129OSM    H8T13772   5.015   0.749   3.466 -2.6212 -0.4429  0.8824
  129OSM    C9S13773   5.146   0.620   3.583 -0.3049  0.2494 -0.9803
  129OSM    H9S13774   5.239   0.609   3.524  0.5246  0.5225  0.2401
  129OSM    H9T13775   5.130   0.525   3.639 -2.6217  1.3128  0.3221
  129OSM   C10S13776   5.174   0.732   3.683  0.0079 -0.5878 -0.7533
  129OSM   H10S13777   5.082   0.772   3.731  1.1069  0.5052  0.5389
  129OSM   H10T13778   5.201   0.819   3.620  0.6811 -0.7819 -0.7390
  129OSM   C11S13779   5.272   0.698   3.796 -0.0666 -0.0706 -1.1899
  129OSM   H11S13780   5.366   0.655   3.754  1.3768 -0.4376  2.0931
  129OSM   H11T13781   5.236   0.600   3.836  1.6858 -0.6658 -0.9598
  129OSM   C12S13782   5.292   0.794   3.904 -0.1987 -0.1220  0.1895
  129OSM   H12S13783   5.197   0.846   3.926  0.0301  0.8860 -1.1250
  129OSM   H12T13784   5.372   0.867   3.879  1.0352 -0.8933  1.6227
  129OSM   C13S13785   5.332   0.718   4.037  0.0888 -0.7251 -0.0879
  129OSM   H13S13786   5.425   0.659   4.020  1.9054  1.0459  2.8773
  129OSM   H13T13787   5.246   0.651   4.061 -1.3316  0.6475 -1.1410
  129OSM   C14S13788   5.355   0.811   4.163  0.4872 -0.2183  0.4605
  129OSM   H14S13789   5.261   0.864   4.186 -0.4390 -0.7994 -1.7246
  129OSM   H14T13790   5.435   0.882   4.130 -0.4808 -0.2205 -2.0985
  129OSM   C15S13791   5.394   0.738   4.291 -0.1259 -0.5304  0.1288
  129OSM   H15S13792   5.460   0.652   4.270 -1.3249 -1.1170 -1.4174
  129OSM   H15T13793   5.301   0.701   4.339 -1.5531  2.0991 -0.4052
  129OSM   C16S13794   5.472   0.835   4.384 -0.7597 -0.6688 -0.5274
  129OSM   H16S13795   5.403   0.921   4.395  2.1681  1.9431 -1.1345
  129OSM   H16T13796   5.564   0.884   4.346 -1.2829 -0.1981 -1.2025
  129OSM   C17S13797   5.483   0.773   4.527  0.2991  0.0861 -0.1600
  129OSM   H17S13798   5.555   0.688   4.531  0.0151 -0.2340 -1.4647
  129OSM   H17T13799   5.379   0.740   4.548  0.4888 -1.8830 -1.9213
  129OSM   C18S13800   5.529   0.892   4.615  0.2785  0.2143  0.2057
  129OSM   H18S13801   5.463   0.981   4.605  0.4609  0.2832 -0.3964
  129OSM   H18T13802   5.634   0.919   4.591 -0.4546  1.7524 -1.4628
  129OSM   H18U13803   5.533   0.855   4.720  0.1425  0.4225  0.2850
  129OSM    C1F13804   5.136   0.083   3.146  0.5424 -0.0965  0.3783
  129OSM     OF13805   5.240   0.073   3.086  0.0101 -0.2612 -0.5272
  129OSM    C2F13806   5.081  -0.011   3.250 -0.2886 -0.5446 -0.7542
  129OSM    H2F13807   5.054  -0.108   3.203 -0.8545  0.4915 -2.6786
  129OSM    H2G13808   4.988   0.039   3.283  1.7200  2.6177  0.5557
  129OSM    C3F13809   5.168  -0.030   3.371 -0.3006 -0.1581  0.1348
  129OSM    H3F13810   5.249  -0.104   3.350 -0.3561 -0.4667  0.9557
  129OSM    H3G13811   5.109  -0.072   3.455  0.1040 -0.1381  0.4321
  129OSM    C4F13812   5.223   0.099   3.426 -0.3461 -0.1282 -0.0126
  129OSM    H4F13813   5.146   0.175   3.451 -0.1072  0.3676 -0.7320
  129OSM    H4G13814   5.287   0.160   3.358 -1.3183  0.5300 -0.3488
  129OSM    C5F13815   5.289   0.072   3.572  1.1287 -1.0836  0.3933
  129OSM    H5F13816   5.382   0.012   3.557  1.2646 -0.7207 -0.2719
  129OSM    H5G13817   5.222   0.009   3.634 -0.0096  1.0365  1.4236
  129OSM    C6F13818   5.329   0.205   3.626  0.1455 -0.2951  0.3341
  129OSM    H6F13819   5.237   0.260   3.654 -0.6811 -1.9547  1.0301
  129OSM    H6G13820   5.381   0.266   3.549 -1.2311  2.2602  1.3451
  129OSM    C7F13821   5.416   0.194   3.751  0.2227  1.0405 -0.5343
  129OSM    H7F13822   5.429   0.298   3.788 -0.7932  1.0531 -0.1751
  129OSM    H7G13823   5.509   0.141   3.723  2.1705  2.3827  2.7446
  129OSM    C8F13824   5.353   0.099   3.857 -0.9859  0.4265 -0.0470
  129OSM    H8F13825   5.353  -0.003   3.812  0.4465  0.5097 -0.2656
  129OSM    H8G13826   5.249   0.135   3.873 -0.9868 -0.5091  2.4852
  129OSM    C9F13827   5.427   0.100   3.989 -0.4174 -0.6641 -0.1016
  129OSM    H9F13828   5.451   0.202   4.023  0.7105 -0.6577 -0.8571
  129OSM   C10F13829   5.471  -0.005   4.062 -0.0321  0.1572  0.6394
  129OSM   H10F13830   5.538   0.015   4.147  1.4825 -2.3811  0.1441
  129OSM   C11F13831   5.445  -0.154   4.032  0.6133  0.1773  1.0242
  129OSM   H11F13832   5.535  -0.208   4.070  0.9241  0.8592  1.2804
  129OSM   H11G13833   5.428  -0.173   3.924 -1.6679 -0.0493  1.3732
  129OSM   C12F13834   5.317  -0.206   4.103 -1.3447  0.2923 -0.1399
  129OSM   H12F13835   5.235  -0.139   4.068 -1.7590  1.0329  2.0813
  129OSM   H12G13836   5.324  -0.184   4.212 -2.4621 -1.3176  0.2876
  129OSM   C13F13837   5.301  -0.347   4.061  0.5956  0.2393 -0.0886
  129OSM   H13F13838   5.329  -0.357   3.954 -0.7023  1.8037 -0.5956
  129OSM   H13G13839   5.194  -0.377   4.063  0.7474 -0.3146 -0.1721
  129OSM   C14F13840   5.389  -0.449   4.134 -0.1489  0.4885 -0.0627
  129OSM   H14F13841   5.495  -0.432   4.105 -0.0326 -0.9933 -0.6363
  129OSM   H14G13842   5.362  -0.550   4.095 -1.0271  1.1676 -1.3068
  129OSM   C15F13843   5.370  -0.436   4.286 -0.0341 -0.2128  0.1217
  129OSM   H15F13844   5.260  -0.434   4.300  0.1242 -0.2029  1.4542
  129OSM   H15G13845   5.414  -0.340   4.320 -0.5917  0.6179 -1.3973
  129OSM   C16F13846   5.414  -0.557   4.362  0.0575 -0.1258 -0.6427
  129OSM   H16F13847   5.522  -0.580   4.344 -0.2786 -2.1796 -0.2986
  129OSM   H16G13848   5.358  -0.647   4.329  1.7657 -1.3470 -0.3786
  129OSM   C17F13849   5.395  -0.540   4.517 -0.0168  0.5766 -0.2249
  129OSM   H17F13850   5.289  -0.529   4.550  0.4630  2.3509  0.8747
  129OSM   H17G13851   5.443  -0.451   4.564  1.0000 -1.8909  3.8497
  129OSM   C18F13852   5.448  -0.658   4.581  0.7195  0.1863 -0.2475
  129OSM   H18F13853   5.556  -0.671   4.556  0.4674 -0.8036 -0.9002
  129OSM   H18G13854   5.403  -0.746   4.531  0.1228  0.0255  0.5609
  129OSM   H18H13855   5.442  -0.655   4.691 -1.0416  0.8920 -0.3376
  130OSM      N13856   5.640   4.712   2.428 -0.1688 -0.7864  0.0577
  130OSM    C1513857   5.636   4.640   2.563 -0.1221 -0.4663 -0.0623
  130OSM   H15A13858   5.729   4.592   2.593  0.0593  0.0611  0.2280
  130OSM   H15B13859   5.552   4.573   2.566 -0.8751  0.4911  2.4377
  130OSM   H15C13860   5.632   4.716   2.640  2.7088  1.4445 -1.5995
  130OSM    C1413861   5.753   4.813   2.418  0.2019 -0.8762 -0.4275
  130OSM   H14A13862   5.840   4.756   2.449  0.9214  1.1852  1.6249
  130OSM   H14B13863   5.742   4.894   2.490 -0.6198 -1.6343  0.3267
  130OSM   H14C13864   5.765   4.856   2.320 -2.0077 -0.7062 -0.6640
  130OSM    C1313865   5.670   4.601   2.330  0.1348  0.6316  0.4562
  130OSM   H13A13866   5.768   4.557   2.330  0.6498  1.6168 -1.6875
  130OSM   H13B13867   5.659   4.631   2.227  0.4217 -1.6560 -0.2927
  130OSM   H13C13868   5.594   4.524   2.330 -0.0744  0.8252 -0.3578
  130OSM    C1213869   5.506   4.779   2.399  0.0007  0.1722 -0.4932
  130OSM   H12A13870   5.520   4.841   2.312  0.9630 -1.4744 -1.5595
  130OSM   H12B13871   5.482   4.846   2.480  0.1585 -0.1915 -0.1473
  130OSM    C1113872   5.382   4.692   2.369  0.1896  0.3402  0.2181
  130OSM   H11A13873   5.375   4.623   2.456  0.5279  0.2156  0.1486
  130OSM   H11B13874   5.401   4.642   2.272  1.5171 -2.2127  1.6851
  130OSM      P13875   5.127   4.742   2.431  0.3960  0.3950  0.1153
  130OSM    O1313876   5.051   4.869   2.405  1.0200  0.4304  0.0015
  130OSM    O1413877   5.065   4.619   2.374 -0.8654  0.3992  0.6516
  130OSM    O1113878   5.155   4.722   2.585 -0.4225 -0.0663 -0.2673
  130OSM    O1213879   5.271   4.773   2.358  0.2065  0.9414  0.8169
  130OSM    C1S13880   5.203   4.844   2.651 -0.3290  0.4484 -0.4113
  130OSM    H1S13881   5.121   4.918   2.670 -0.0308  0.5377  0.5813
  130OSM    H1T13882   5.285   4.896   2.597 -1.1895  0.8539 -1.3700
  130OSM     NF13883   5.311   4.937   2.864 -0.0133  0.1974 -0.5114
  130OSM    HNF13884   5.402   4.974   2.850 -0.8855  1.7075 -2.7732
  130OSM    C2S13885   5.268   4.815   2.793 -0.7825  0.2443  0.7079
  130OSM    H2S13886   5.193   4.762   2.855 -0.3522  0.6253  1.5787
  130OSM    C3S13887   5.383   4.711   2.779 -0.4621  0.4583  0.7350
  130OSM    H3S13888   5.458   4.753   2.709  1.5422 -0.8411  2.0202
  130OSM     O313889   5.351   4.578   2.731  0.3250  0.0341 -0.2432
  130OSM    HO313890   5.270   4.594   2.681 -0.6378  1.3711  1.6115
  130OSM    C4S13891   5.451   4.688   2.918  0.2162 -0.3211  0.4659
  130OSM    H4S13892   5.541   4.746   2.942  1.1703 -2.8258  3.7256
  130OSM    C5S13893   5.406   4.606   3.015  0.4515 -0.0777  0.2887
  130OSM    H5S13894   5.319   4.543   2.992  0.9126 -0.3043 -0.9066
  130OSM    C6S13895   5.461   4.577   3.154  0.3045 -0.2747  0.1823
  130OSM    H6S13896   5.505   4.476   3.159  0.3533 -0.3247 -1.0581
  130OSM    H6T13897   5.382   4.576   3.233  1.3789 -1.6446  1.2869
  130OSM    C7S13898   5.565   4.683   3.194  0.1414  0.0196 -0.0877
  130OSM    H7S13899   5.517   4.783   3.181  0.2989  0.1837  0.5437
  130OSM    H7T13900   5.654   4.667   3.129  0.9479  0.4328  0.8794
  130OSM    C8S13901   5.618   4.676   3.343  0.8083 -0.3643  1.0587
  130OSM    H8S13902   5.638   4.571   3.369 -1.5703 -2.0845 -3.0339
  130OSM    H8T13903   5.537   4.701   3.415 -1.5269 -3.6015 -0.1964
  130OSM    C9S13904   5.739   4.770   3.365  0.1316 -0.3596 -0.3994
  130OSM    H9S13905   5.723   4.861   3.302  0.5381  0.2544  0.3795
  130OSM    H9T13906   5.821   4.713   3.316  2.3863  1.7946  0.6632
  130OSM   C10S13907   5.760   4.805   3.509 -0.1243  0.6407  0.7541
  130OSM   H10S13908   5.684   4.878   3.544 -2.3254 -1.1891  0.0960
  130OSM   H10T13909   5.851   4.867   3.515 -1.6242  2.9806  0.7666
  130OSM   C11S13910   5.754   4.689   3.614 -0.3425  0.3366  0.4921
  130OSM   H11S13911   5.804   4.593   3.589  0.7058  0.3299  2.4332
  130OSM   H11T13912   5.646   4.663   3.616  0.1454 -1.7838  1.2033
  130OSM   C12S13913   5.797   4.731   3.756  0.2696 -1.1630 -0.4216
  130OSM   H12S13914   5.768   4.838   3.758  0.7522 -1.0044 -1.4826
  130OSM   H12T13915   5.907   4.735   3.771  0.3579  0.6191 -1.2783
  130OSM   C13S13916   5.728   4.658   3.869  0.4305 -0.1196  0.0051
  130OSM   H13S13917   5.771   4.555   3.875  3.0089  0.8626 -0.1969
  130OSM   H13T13918   5.619   4.663   3.852  0.5500 -0.3737 -0.8976
  130OSM   C14S13919   5.753   4.715   4.009  0.3067  0.2670  0.2407
  130OSM   H14S13920   5.857   4.744   4.033 -0.0522  2.0111 -0.2154
  130OSM   H14T13921   5.728   4.625   4.069 -2.0109 -0.5240 -1.7371
  130OSM   C15S13922   5.656   4.828   4.041  0.7873 -0.1728 -0.3277
  130OSM   H15S13923   5.551   4.795   4.024  0.1265  2.0917 -0.9728
  130OSM   H15T13924   5.661   4.904   3.960  1.0964 -0.9681 -1.0719
  130OSM   C16S13925   5.681   4.890   4.175 -0.7951 -0.0973 -0.2794
  130OSM   H16S13926   5.650   4.997   4.182 -1.5553 -0.1371 -2.4818
  130OSM   H16T13927   5.787   4.871   4.203 -0.8513 -1.4082 -0.9017
  130OSM   C17S13928   5.607   4.822   4.294 -0.0304  0.2897  0.4071
  130OSM   H17S13929   5.657   4.723   4.292 -1.5132 -0.4919  0.3342
  130OSM   H17T13930   5.498   4.807   4.280  0.3771 -2.4519 -0.5858
  130OSM   C18S13931   5.635   4.901   4.417  0.1305 -0.0663 -0.0217
  130OSM   H18S13932   5.580   4.997   4.405  0.7105  0.0431 -2.3769
  130OSM   H18T13933   5.741   4.934   4.413  0.0010  0.2931 -0.8192
  130OSM   H18U13934   5.606   4.857   4.514  1.3592 -1.8377 -0.4110
  130OSM    C1F13935   5.222   5.018   2.914 -0.3601  0.0164 -0.0356
  130OSM     OF13936   5.103   5.000   2.886 -0.0875  0.1674  0.4790
  130OSM    C2F13937   5.265   5.136   2.989 -0.8430 -0.9704  0.4811
  130OSM    H2F13938   5.305   5.211   2.917 -2.4234  0.7978  1.3375
  130OSM    H2G13939   5.344   5.098   3.058  1.4073 -1.1317 -2.0377
  130OSM    C3F13940   5.151   5.207   3.064  0.2328  0.1122  0.4023
  130OSM    H3F13941   5.105   5.138   3.138 -3.4803  0.6038 -1.2097
  130OSM    H3G13942   5.075   5.237   2.989  0.9226  0.1136 -0.3144
  130OSM    C4F13943   5.200   5.335   3.141  0.2792 -0.5107 -0.3751
  130OSM    H4F13944   5.126   5.363   3.219 -1.3727 -2.7201 -1.0506
  130OSM    H4G13945   5.198   5.425   3.074 -4.3132 -0.7192 -0.8185
  130OSM    C5F13946   5.331   5.311   3.219 -0.4628 -0.7181 -0.2934
  130OSM    H5F13947   5.424   5.317   3.158 -0.9132 -0.3742 -0.9503
  130OSM    H5G13948   5.325   5.207   3.257 -2.2368 -0.6841 -0.4087
  130OSM    C6F13949   5.348   5.402   3.338  0.4056  0.0096 -0.3252
  130OSM    H6F13950   5.260   5.398   3.405  0.6821 -0.1497  0.0324
  130OSM    H6G13951   5.335   5.507   3.304 -0.0737  0.0961  0.1102
  130OSM    C7F13952   5.474   5.378   3.426  0.2003 -0.4003  0.1174
  130OSM    H7F13953   5.562   5.370   3.358  1.0331  0.3570  1.0861
  130OSM    H7G13954   5.451   5.278   3.470 -1.0284 -1.4703 -2.6887
  130OSM    C8F13955   5.470   5.494   3.528  0.0217 -0.1170  0.3681
  130OSM    H8F13956   5.394   5.461   3.602 -2.8340  1.0973 -1.8556
  130OSM    H8G13957   5.428   5.587   3.484  1.6782 -0.3459 -1.8356
  130OSM    C9F13958   5.605   5.533   3.590 -0.8420  0.0415 -0.1880
  130OSM    H9F13959   5.671   5.445   3.598 -0.1413  0.6137  0.4743
  130OSM   C10F13960   5.651   5.659   3.627  1.0287  0.6652 -0.0477
  130OSM   H10F13961   5.749   5.661   3.678  1.2359 -3.3165  0.0563
  130OSM   C11F13962   5.559   5.783   3.620  0.3660 -0.0772  0.1308
  130OSM   H11F13963   5.558   5.840   3.715 -3.6923  1.9406 -0.9117
  130OSM   H11G13964   5.456   5.747   3.600  1.0713 -1.3221 -1.6203
  130OSM   C12F13965   5.576   5.886   3.511 -0.3236 -0.2172 -0.2684
  130OSM   H12F13966   5.606   5.837   3.416 -1.8577 -2.2203  0.2102
  130OSM   H12G13967   5.668   5.945   3.531 -0.0926 -0.5165 -0.4381
  130OSM   C13F13968   5.469   5.992   3.488 -0.0691 -0.1182  0.0690
  130OSM   H13F13969   5.373   5.941   3.464  0.2673 -0.9896  0.5223
  130OSM   H13G13970   5.507   6.053   3.403  1.9016 -3.5660 -1.7166
  130OSM   C14F13971   5.443   6.093   3.599 -0.0903 -0.0529  0.1824
  130OSM   H14F13972   5.543   6.118   3.640  0.7659 -0.4939 -1.5305
  130OSM   H14G13973   5.407   6.030   3.684  1.3858 -2.0488 -0.6026
  130OSM   C15F13974   5.357   6.212   3.557  0.8394 -0.3187 -0.6001
  130OSM   H15F13975   5.255   6.171   3.539  0.2250 -0.2148  2.1583
  130OSM   H15G13976   5.400   6.265   3.470  0.0870 -0.6877 -1.2139
  130OSM   C16F13977   5.330   6.321   3.660 -0.1965  0.0501  1.0339
  130OSM   H16F13978   5.436   6.340   3.684  0.2079  0.2845 -0.7704
  130OSM   H16G13979   5.287   6.284   3.756  1.4066 -0.3929  1.5996
  130OSM   C17F13980   5.246   6.435   3.611 -0.0009  0.0860  0.2542
  130OSM   H17F13981   5.151   6.385   3.581  0.9285 -2.4042  1.1797
  130OSM   H17G13982   5.288   6.474   3.516 -0.3395 -1.9372 -0.7838
  130OSM   C18F13983   5.215   6.554   3.699 -0.1206  0.1593  0.0282
  130OSM   H18F13984   5.158   6.629   3.640  0.2903 -0.5491 -1.2929
  130OSM   H18G13985   5.310   6.606   3.725  1.0167 -1.4586 -0.7357
  130OSM   H18H13986   5.168   6.515   3.792  1.4789 -3.0462 -0.3969
  131OSM      N13987   3.672   2.338   2.970 -0.2174 -0.6964  0.0945
  131OSM    C1513988   3.571   2.241   2.922  1.1964  0.0811 -0.6908
  131OSM   H15A13989   3.583   2.213   2.818 -0.5279  0.4945 -1.0262
  131OSM   H15B13990   3.467   2.269   2.934  1.1906  0.1809 -0.9642
  131OSM   H15C13991   3.578   2.149   2.978 -0.5601 -1.2114 -2.4448
  131OSM    C1413992   3.661   2.455   2.874  0.0573 -0.7349 -1.1918
  131OSM   H14A13993   3.720   2.541   2.901 -1.4396  0.4696 -1.6261
  131OSM   H14B13994   3.557   2.485   2.872  0.6246  1.4917 -0.5615
  131OSM   H14C13995   3.696   2.440   2.774 -0.4436  1.0331 -1.6658
  131OSM    C1313996   3.634   2.389   3.106 -0.7284  0.3555  0.4091
  131OSM   H13A13997   3.702   2.466   3.139 -1.6134  1.7492 -0.8975
  131OSM   H13B13998   3.636   2.317   3.186  0.5506  1.9206  1.8488
  131OSM   H13C13999   3.533   2.427   3.109 -0.8007  0.1276  0.9649
  131OSM    C1214000   3.807   2.278   2.976 -0.4563  0.3668  0.2313
  131OSM   H12A14001   3.825   2.224   2.884  1.1599  1.0052  0.1241
  131OSM   H12B14002   3.818   2.215   3.063  1.6813 -2.1043 -1.6621
  131OSM    C1114003   3.933   2.376   2.986  0.5841  0.0862  0.3208
  131OSM   H11A14004   4.017   2.314   3.025 -0.0228 -1.6776 -1.0188
  131OSM   H11B14005   3.904   2.454   3.060 -1.6185  0.0308 -0.4050
  131OSM      P14006   4.051   2.339   2.756  0.8329 -0.5213  0.1816
  131OSM    O1314007   4.000   2.202   2.745 -0.3897  0.2471 -0.0819
  131OSM    O1414008   4.067   2.410   2.627 -1.2035  0.9888 -0.0053
  131OSM    O1114009   4.198   2.332   2.815 -0.1541  0.4834  0.7269
  131OSM    O1214010   3.960   2.423   2.854  0.0476  0.2866 -0.1508
  131OSM    C1S14011   4.263   2.457   2.853  0.0909 -0.4134  0.2778
  131OSM    H1S14012   4.222   2.549   2.806 -1.9328  0.0210  2.6869
  131OSM    H1T14013   4.368   2.452   2.817  0.3965  0.1858  1.0624
  131OSM     NF14014   4.363   2.593   3.047 -0.4178  0.3894  0.3148
  131OSM    HNF14015   4.451   2.570   3.088  0.4166  0.5061 -1.3751
  131OSM    C2S14016   4.277   2.478   3.009  0.1585  0.1416  0.0135
  131OSM    H2S14017   4.171   2.501   3.032 -0.3283 -0.5560 -1.4189
  131OSM    C3S14018   4.315   2.349   3.082 -0.3683 -0.2029  0.0207
  131OSM    H3S14019   4.421   2.322   3.063 -0.8249 -1.2811 -1.1374
  131OSM     O314020   4.246   2.230   3.054  0.4193 -1.0729  0.0319
  131OSM    HO314021   4.227   2.233   2.960 -1.0053 -0.0674  0.3174
  131OSM    C4S14022   4.316   2.375   3.226  0.4582  0.0093 -0.3932
  131OSM    H4S14023   4.422   2.390   3.250  1.7379 -3.2986 -3.0581
  131OSM    C5S14024   4.217   2.371   3.317  0.6031  0.0623 -0.0749
  131OSM    H5S14025   4.117   2.336   3.289  0.4511  0.3515  0.1033
  131OSM    C6S14026   4.250   2.410   3.461 -0.2931 -0.3646  0.3587
  131OSM    H6S14027   4.152   2.444   3.501 -0.4184  2.3058 -1.9048
  131OSM    H6T14028   4.319   2.497   3.458 -0.5358 -0.1694  0.3934
  131OSM    C7S14029   4.314   2.297   3.543 -0.2223 -0.6168  0.4171
  131OSM    H7S14030   4.404   2.262   3.488 -1.3373  1.1159 -2.7816
  131OSM    H7T14031   4.241   2.217   3.567 -1.9688  1.2880  1.7832
  131OSM    C8S14032   4.360   2.351   3.678 -0.1382 -0.2364  0.5115
  131OSM    H8S14033   4.268   2.357   3.740  1.1584 -1.0754  2.5843
  131OSM    H8T14034   4.388   2.458   3.663 -1.5399  0.0993  0.0925
  131OSM    C9S14035   4.460   2.266   3.743  0.5685  0.0235  0.1327
  131OSM    H9S14036   4.544   2.265   3.672 -1.0549  0.7854 -1.8997
  131OSM    H9T14037   4.416   2.164   3.752 -2.3062  1.2099  0.8184
  131OSM   C10S14038   4.497   2.301   3.895 -0.4849 -0.0301 -0.0021
  131OSM   H10S14039   4.525   2.408   3.904  0.4006 -0.2053 -0.4854
  131OSM   H10T14040   4.586   2.244   3.928  0.8693  2.8514  1.6478
  131OSM   C11S14041   4.379   2.257   3.995 -0.0265 -1.0062 -0.0659
  131OSM   H11S14042   4.363   2.149   4.012 -1.4554 -0.4144  3.1821
  131OSM   H11T14043   4.290   2.308   3.950  2.5036  2.4287 -1.6760
  131OSM   C12S14044   4.387   2.324   4.134  0.4289  0.6626  0.5214
  131OSM   H12S14045   4.395   2.433   4.114  0.3839  0.7953  1.2015
  131OSM   H12T14046   4.482   2.299   4.186 -0.9455 -1.8859  2.0328
  131OSM   C13S14047   4.276   2.280   4.226 -0.1894 -0.1211 -0.0608
  131OSM   H13S14048   4.296   2.293   4.334 -3.7313 -1.4499  0.8864
  131OSM   H13T14049   4.275   2.169   4.220  0.4770 -0.2757  1.9861
  131OSM   C14S14050   4.136   2.336   4.188 -0.0002  0.2897  0.2546
  131OSM   H14S14051   4.062   2.267   4.235 -1.2580 -1.0850 -3.3609
  131OSM   H14T14052   4.108   2.329   4.081 -1.8671 -1.9992  0.7963
  131OSM   C15S14053   4.108   2.487   4.227  0.6439 -0.9355 -1.0849
  131OSM   H15S14054   4.054   2.544   4.148 -2.2960  2.1175  2.7379
  131OSM   H15T14055   4.203   2.541   4.242  0.7418 -1.4238  0.2137
  131OSM   C16S14056   4.024   2.508   4.359 -0.5747 -0.0174 -0.2672
  131OSM   H16S14057   4.033   2.412   4.415  2.6287  0.4012  0.1206
  131OSM   H16T14058   3.923   2.545   4.333  0.3992  3.3280  0.2274
  131OSM   C17S14059   4.090   2.616   4.444  0.0637 -0.6656 -0.4818
  131OSM   H17S14060   4.200   2.609   4.455  0.2343  1.9189  0.2396
  131OSM   H17T14061   4.051   2.631   4.547  1.9972  1.9314 -0.0293
  131OSM   C18S14062   4.071   2.750   4.380  0.6749  0.1022 -0.0454
  131OSM   H18S14063   3.992   2.802   4.436  0.7509 -1.2104  1.3276
  131OSM   H18T14064   4.035   2.724   4.278  1.8612 -1.1934 -0.1681
  131OSM   H18U14065   4.173   2.796   4.379  1.2669 -0.8939  3.2565
  131OSM    C1F14066   4.348   2.721   2.996 -0.1333  0.1068  0.2114
  131OSM     OF14067   4.254   2.748   2.928  0.8471  0.0812 -0.0118
  131OSM    C2F14068   4.458   2.826   3.009  0.1443 -0.0586 -0.0520
  131OSM    H2F14069   4.466   2.855   2.903  0.0340 -2.5705 -0.8284
  131OSM    H2G14070   4.550   2.771   3.038  1.6710  1.9400 -0.9348
  131OSM    C3F14071   4.429   2.949   3.099 -0.7889  0.0257 -0.6720
  131OSM    H3F14072   4.324   2.984   3.105 -1.2009 -1.0226 -1.3374
  131OSM    H3G14073   4.480   3.034   3.050 -2.6550  1.1522 -0.7444
  131OSM    C4F14074   4.477   2.933   3.239 -0.0677 -0.2802  0.1997
  131OSM    H4F14075   4.444   3.025   3.293  3.5760  1.0382  0.4977
  131OSM    H4G14076   4.588   2.926   3.241  0.0753  1.2077 -0.7922
  131OSM    C5F14077   4.405   2.825   3.315  0.3337 -0.2511 -0.3215
  131OSM    H5F14078   4.448   2.723   3.305  3.8578  1.2000 -1.1193
  131OSM    H5G14079   4.300   2.823   3.276  0.4043 -0.4725 -0.5013
  131OSM    C6F14080   4.418   2.859   3.467  0.5186  0.0133 -0.5423
  131OSM    H6F14081   4.438   2.968   3.475  1.7427  0.0704 -3.3519
  131OSM    H6G14082   4.499   2.803   3.519 -1.4997 -1.8856  0.7592
  131OSM    C7F14083   4.280   2.836   3.535  0.1806 -0.7615 -0.5175
  131OSM    H7F14084   4.242   2.733   3.519  0.8418 -0.5867 -3.8027
  131OSM    H7G14085   4.215   2.905   3.478  3.4825  0.8403 -2.6987
  131OSM    C8F14086   4.281   2.879   3.685 -0.1403 -0.0421 -0.5878
  131OSM    H8F14087   4.181   2.908   3.725  0.4539  1.5127 -0.1554
  131OSM    H8G14088   4.333   2.977   3.688 -0.5835  0.1805 -0.0801
  131OSM    C9F14089   4.335   2.769   3.775 -0.3696  0.7716 -0.3456
  131OSM    H9F14090   4.367   2.681   3.716 -2.3672 -1.2412  1.3574
  131OSM   C10F14091   4.343   2.769   3.907  0.0116 -0.3957 -0.4161
  131OSM   H10F14092   4.386   2.682   3.958 -0.0778 -0.1632  0.0635
  131OSM   C11F14093   4.307   2.892   3.990 -0.2474 -0.4445  0.3470
  131OSM   H11F14094   4.274   2.854   4.089  0.5004  0.0582  0.8010
  131OSM   H11G14095   4.232   2.958   3.939  0.2263 -0.4828 -0.4180
  131OSM   C12F14096   4.434   2.981   4.009  0.0753 -0.2804  0.6550
  131OSM   H12F14097   4.416   3.080   4.055  2.2951  0.0344  0.9617
  131OSM   H12G14098   4.476   3.003   3.908 -2.9180  0.2409 -0.5803
  131OSM   C13F14099   4.544   2.927   4.096 -0.7094  0.7165 -0.4951
  131OSM   H13F14100   4.621   3.007   4.100  0.3803 -0.3103  2.8304
  131OSM   H13G14101   4.584   2.834   4.051 -1.1111  0.0255  0.5258
  131OSM   C14F14102   4.515   2.917   4.246  0.2079  0.3712  0.1246
  131OSM   H14F14103   4.406   2.937   4.256 -0.1563 -1.5534  0.2580
  131OSM   H14G14104   4.574   2.986   4.311 -0.9252  0.4416  1.1280
  131OSM   C15F14105   4.514   2.767   4.299  0.0214 -0.1250 -0.0889
  131OSM   H15F14106   4.618   2.729   4.289  0.5006  0.9672  0.5260
  131OSM   H15G14107   4.438   2.706   4.246 -2.0117  0.4889  1.9591
  131OSM   C16F14108   4.473   2.757   4.452 -0.9360 -0.1112  0.1535
  131OSM   H16F14109   4.365   2.780   4.459 -0.9347  0.3771 -1.1767
  131OSM   H16G14110   4.528   2.830   4.516  0.1899  0.6787 -1.6510
  131OSM   C17F14111   4.506   2.626   4.514  0.0413  0.3179  0.1605
  131OSM   H17F14112   4.610   2.599   4.485 -0.0055 -0.3598  0.5971
  131OSM   H17G14113   4.442   2.551   4.462  0.4916 -1.0620  1.5328
  131OSM   C18F14114   4.478   2.617   4.662  0.3794  0.2418 -0.3332
  131OSM   H18F14115   4.547   2.542   4.705  0.4744  0.1751 -0.6015
  131OSM   H18G14116   4.374   2.583   4.683  0.4316  1.2261  1.7898
  131OSM   H18H14117   4.492   2.716   4.711 -0.7155  1.6316 -2.6785
  132OSM      N14118   2.964   1.250   2.410  0.6407  0.0529 -0.2241
  132OSM    C1514119   3.093   1.206   2.450 -0.4800  0.4283 -0.5382
  132OSM   H15A14120   3.086   1.159   2.547 -1.5461 -1.6780 -1.5603
  132OSM   H15B14121   3.157   1.292   2.462 -0.9231  0.8965 -1.4081
  132OSM   H15C14122   3.146   1.144   2.379  0.1231 -0.1544  0.3985
  132OSM    C1414123   2.959   1.262   2.262  0.3754  0.9692  0.7793
  132OSM   H14A14124   2.973   1.164   2.217 -1.3982  1.5039 -1.1301
  132OSM   H14B14125   3.038   1.321   2.219  0.5671  0.8347  0.9441
  132OSM   H14C14126   2.862   1.290   2.223  0.0823  1.2740  1.6976
  132OSM    C1314127   2.868   1.147   2.464 -0.0392  0.8330  0.2908
  132OSM   H13A14128   2.780   1.143   2.401  2.4152 -1.7414 -3.3699
  132OSM   H13B14129   2.850   1.170   2.568  1.4841  1.9163  0.3473
  132OSM   H13C14130   2.901   1.046   2.452  0.4525  1.1798 -1.5367
  132OSM    C1214131   2.931   1.392   2.464 -0.1689  0.0005 -0.1626
  132OSM   H12A14132   2.842   1.418   2.408  0.4635 -0.2304 -1.3065
  132OSM   H12B14133   3.007   1.464   2.438 -1.1996  1.1670 -0.0254
  132OSM    C1114134   2.902   1.405   2.618 -0.5757  0.4129  0.4485
  132OSM   H11A14135   2.905   1.509   2.657 -1.3701  1.5106 -2.1293
  132OSM   H11B14136   2.989   1.351   2.660  0.4381 -0.3189 -2.3259
  132OSM      P14137   2.645   1.408   2.633 -0.6622  0.0135 -0.3379
  132OSM    O1314138   2.654   1.496   2.520 -0.7037 -0.2731 -0.0322
  132OSM    O1414139   2.539   1.302   2.635  0.7732  0.0570  0.6734
  132OSM    O1114140   2.626   1.489   2.767  0.5041  0.0570 -0.0071
  132OSM    O1214141   2.787   1.332   2.656  0.0214 -0.2029 -0.1737
  132OSM    C1S14142   2.713   1.481   2.881 -0.1110 -0.7572  0.3370
  132OSM    H1S14143   2.793   1.557   2.865  1.3413 -2.7093 -2.6042
  132OSM    H1T14144   2.761   1.381   2.887 -0.7916 -1.0739  0.6006
  132OSM     NF14145   2.750   1.549   3.118  0.0277 -0.1776 -0.0805
  132OSM    HNF14146   2.766   1.475   3.183  2.8049 -1.4447 -2.0121
  132OSM    C2S14147   2.650   1.515   3.015 -0.2713 -0.7910 -0.4636
  132OSM    H2S14148   2.594   1.610   3.002 -0.1744 -0.6855 -0.1165
  132OSM    C3S14149   2.559   1.398   3.052  0.1302  0.7508  0.4752
  132OSM    H3S14150   2.619   1.305   3.056  1.8303  1.6704 -1.6806
  132OSM     O314151   2.469   1.365   2.947 -0.4893 -0.4713 -0.1631
  132OSM    HO314152   2.504   1.418   2.875  0.7700 -0.1839  0.6094
  132OSM    C4S14153   2.485   1.416   3.179 -0.5530 -0.0849 -1.1645
  132OSM    H4S14154   2.537   1.368   3.264 -1.0449 -1.0761 -1.4004
  132OSM    C5S14155   2.364   1.465   3.208 -0.1820 -0.0161  0.5942
  132OSM    H5S14156   2.312   1.515   3.125 -0.4930 -0.1840  0.6886
  132OSM    C6S14157   2.294   1.476   3.340 -0.2024 -0.7246  0.2169
  132OSM    H6S14158   2.188   1.443   3.332 -0.6754  0.7653  0.0075
  132OSM    H6T14159   2.290   1.583   3.371  0.5566 -0.6889  0.2030
  132OSM    C7S14160   2.354   1.388   3.455 -0.3805  0.0559  0.0946
  132OSM    H7S14161   2.464   1.398   3.468 -0.2906 -0.3235 -0.3553
  132OSM    H7T14162   2.342   1.283   3.422 -2.9812  0.9367 -2.2026
  132OSM    C8S14163   2.293   1.409   3.592 -0.4879 -0.6572  0.4990
  132OSM    H8S14164   2.187   1.381   3.577 -0.4387 -0.1626 -0.9582
  132OSM    H8T14165   2.278   1.518   3.600 -3.0044 -0.8155 -1.0168
  132OSM    C9S14166   2.361   1.354   3.709  0.4200  0.4574 -0.4626
  132OSM    H9S14167   2.463   1.397   3.713 -0.5413  2.7818  2.1917
  132OSM    H9T14168   2.371   1.246   3.688 -0.0978  0.5880 -1.4452
  132OSM   C10S14169   2.299   1.380   3.850 -0.4784  0.0053  0.5022
  132OSM   H10S14170   2.193   1.346   3.852 -0.8596  0.8234 -1.8695
  132OSM   H10T14171   2.289   1.489   3.866  0.4124  0.0407  0.8545
  132OSM   C11S14172   2.377   1.295   3.959  0.1908  0.2786 -0.0784
  132OSM   H11S14173   2.479   1.336   3.975  0.1016  0.0522  1.1543
  132OSM   H11T14174   2.392   1.189   3.932 -0.2803  0.4011 -0.8521
  132OSM   C12S14175   2.301   1.293   4.098 -0.3277  0.2531 -0.4128
  132OSM   H12S14176   2.203   1.244   4.081 -0.4625  0.8900 -1.5579
  132OSM   H12T14177   2.281   1.398   4.129 -1.1522 -0.5095  1.8112
  132OSM   C13S14178   2.368   1.202   4.202 -0.5887  0.1362  0.1323
  132OSM   H13S14179   2.476   1.229   4.205 -0.6633  0.6708 -1.3549
  132OSM   H13T14180   2.370   1.097   4.166  1.6150  0.9574 -2.4811
  132OSM   C14S14181   2.297   1.209   4.335  0.2961  0.6500  0.0078
  132OSM   H14S14182   2.187   1.201   4.327  0.2209  0.5193  1.0360
  132OSM   H14T14183   2.322   1.305   4.386  2.2698 -0.0191  0.4068
  132OSM   C15S14184   2.353   1.109   4.434  0.9236  0.7649  0.1421
  132OSM   H15S14185   2.463   1.119   4.447  1.0437  1.5837 -1.3248
  132OSM   H15T14186   2.319   1.010   4.398 -1.1078  1.6193 -0.4286
  132OSM   C16S14187   2.283   1.123   4.566 -0.9567 -0.4714 -0.2893
  132OSM   H16S14188   2.181   1.079   4.556 -1.9384  2.1756 -3.6265
  132OSM   H16T14189   2.285   1.229   4.601  0.2236 -0.8823  0.9790
  132OSM   C17S14190   2.357   1.045   4.676 -0.1527  0.4014 -0.2214
  132OSM   H17S14191   2.459   1.088   4.684  0.1312 -0.2712 -0.1529
  132OSM   H17T14192   2.365   0.941   4.638 -0.3335  0.2879  0.0508
  132OSM   C18S14193   2.276   1.054   4.805 -0.0404  0.1555  0.1352
  132OSM   H18S14194   2.180   0.998   4.802  0.3626 -0.8051  2.6547
  132OSM   H18T14195   2.247   1.158   4.833  1.9739  0.0976  2.8369
  132OSM   H18U14196   2.330   1.014   4.894  0.2798 -0.2383 -0.2379
  132OSM    C1F14197   2.829   1.658   3.121  0.4225 -0.4622  0.0782
  132OSM     OF14198   2.812   1.753   3.041 -0.6767 -0.3497 -0.1250
  132OSM    C2F14199   2.925   1.669   3.230  0.1549 -0.2799 -0.2177
  132OSM    H2F14200   3.023   1.683   3.180 -0.3101 -0.3217 -1.1569
  132OSM    H2G14201   2.933   1.572   3.284  0.2169 -0.7297 -1.0184
  132OSM    C3F14202   2.910   1.785   3.327 -0.2764  0.3093  0.4087
  132OSM    H3F14203   2.896   1.882   3.274  0.1573 -0.4095 -1.0723
  132OSM    H3G14204   2.995   1.778   3.399 -2.6639  0.2506  3.4352
  132OSM    C4F14205   2.787   1.768   3.417 -0.1589 -0.1195 -0.4150
  132OSM    H4F14206   2.769   1.660   3.437  0.0159 -0.0354  0.2155
  132OSM    H4G14207   2.693   1.815   3.381 -2.0780 -0.9433  2.9987
  132OSM    C5F14208   2.802   1.829   3.552  0.3740 -0.2354 -0.0873
  132OSM    H5F14209   2.816   1.939   3.549  2.4521 -0.4615 -0.1122
  132OSM    H5G14210   2.888   1.782   3.604 -0.1302 -0.3437  0.6531
  132OSM    C6F14211   2.679   1.807   3.642  0.1357  0.2123  0.5639
  132OSM    H6F14212   2.675   1.697   3.652 -0.7412 -0.1025 -2.2260
  132OSM    H6G14213   2.594   1.835   3.577 -1.0414  0.7467  2.2693
  132OSM    C7F14214   2.698   1.884   3.776 -0.5184  0.8704  0.6572
  132OSM    H7F14215   2.596   1.892   3.820 -0.4800  0.5645  0.8080
  132OSM    H7G14216   2.724   1.989   3.751 -0.8823  0.9266  0.5130
  132OSM    C8F14217   2.783   1.813   3.878 -0.1963  0.8020 -0.1020
  132OSM    H8F14218   2.807   1.886   3.958  0.1319  1.0984 -0.4674
  132OSM    H8G14219   2.872   1.766   3.831  0.6206 -0.0388  2.1520
  132OSM    C9F14220   2.696   1.703   3.940  0.3614 -0.0971  0.5177
  132OSM    H9F14221   2.587   1.718   3.950  0.3077  0.3163 -0.5229
  132OSM   C10F14222   2.748   1.600   4.010 -0.6862 -0.2591 -0.4059
  132OSM   H10F14223   2.685   1.513   4.034  0.5217 -0.5388  1.9825
  132OSM   C11F14224   2.892   1.569   4.033 -0.3357  0.1050  0.1116
  132OSM   H11F14225   2.956   1.656   4.007 -0.8775  0.7896  1.0310
  132OSM   H11G14226   2.924   1.482   3.970 -1.4078 -0.2753  0.0826
  132OSM   C12F14227   2.914   1.541   4.180  0.3931 -0.2111  0.6144
  132OSM   H12F14228   3.023   1.531   4.201  1.2333 -0.0993 -3.0490
  132OSM   H12G14229   2.847   1.456   4.205 -2.0939  1.6066  0.4037
  132OSM   C13F14230   2.875   1.658   4.273  0.3885  0.2254  0.6607
  132OSM   H13F14231   2.769   1.690   4.259  0.2007 -0.2819  0.9197
  132OSM   H13G14232   2.934   1.747   4.243 -0.8195  0.5480 -0.9424
  132OSM   C14F14233   2.892   1.634   4.424  0.0713  0.1275 -0.1989
  132OSM   H14F14234   2.998   1.609   4.444 -0.4659 -1.0828  1.3618
  132OSM   H14G14235   2.833   1.544   4.450  0.8802 -0.4681 -0.3978
  132OSM   C15F14236   2.851   1.753   4.510  0.3974 -0.3528  0.1824
  132OSM   H15F14237   2.742   1.770   4.500  0.6576  1.7571  0.4573
  132OSM   H15G14238   2.899   1.848   4.478 -1.7025  0.1485 -1.7280
  132OSM   C16F14239   2.888   1.728   4.661  0.4360 -0.1704  0.4267
  132OSM   H16F14240   2.867   1.622   4.686  0.9562  0.0163  1.7294
  132OSM   H16G14241   2.832   1.792   4.733  0.9559 -0.4787  1.1238
  132OSM   C17F14242   3.032   1.758   4.696  0.3413  0.1110 -0.3154
  132OSM   H17F14243   3.055   1.867   4.694  0.4753  0.1060  0.5586
  132OSM   H17G14244   3.108   1.720   4.625  0.4859  0.4169 -0.3260
  132OSM   C18F14245   3.071   1.717   4.836  0.1239  0.6527  0.2194
  132OSM   H18F14246   3.069   1.607   4.851  0.1765  0.9450  2.7383
  132OSM   H18G14247   2.992   1.762   4.900 -5.3368 -4.5276 -1.9057
  132OSM   H18H14248   3.171   1.755   4.868  0.9731 -0.2109 -1.2684
  133OSM      N14249   6.816   2.068   2.647  0.9710  0.2883  0.2820
  133OSM    C1514250   6.894   1.977   2.730  0.0648  0.2417 -0.4986
  133OSM   H15A14251   6.823   1.913   2.780 -1.2562  1.0452 -1.2657
  133OSM   H15B14252   6.948   2.028   2.809  1.4008 -0.3413 -1.0092
  133OSM   H15C14253   6.976   1.921   2.688 -0.5750 -1.6460  0.6489
  133OSM    C1414254   6.911   2.146   2.561  0.4384 -0.0281 -0.0756
  133OSM   H14A14255   6.952   2.094   2.476 -1.9573 -1.3850 -0.4809
  133OSM   H14B14256   6.988   2.194   2.619  0.0267  0.4156  0.1126
  133OSM   H14C14257   6.849   2.224   2.520 -0.5577  0.9692  3.0120
  133OSM    C1314258   6.725   1.989   2.559  0.2104  0.0440 -0.1654
  133OSM   H13A14259   6.664   1.936   2.630  2.8119 -0.3656  1.9181
  133OSM   H13B14260   6.784   1.921   2.499 -0.1987  2.2951 -3.4230
  133OSM   H13C14261   6.673   2.055   2.491 -0.6696 -0.3286  0.1358
  133OSM    C1214262   6.737   2.157   2.745 -0.1288 -1.5818 -0.4939
  133OSM   H12A14263   6.687   2.236   2.690 -0.8172 -1.9972 -0.4642
  133OSM   H12B14264   6.812   2.212   2.801 -0.0794 -0.8336 -1.2769
  133OSM    C1114265   6.631   2.084   2.834 -0.3842 -0.0720  0.2546
  133OSM   H11A14266   6.603   2.159   2.912  0.2367  0.7190 -0.2610
  133OSM   H11B14267   6.680   1.999   2.886  0.4534  1.7338  2.6703
  133OSM      P14268   6.397   2.129   2.718 -0.1225 -0.6357  0.2783
  133OSM    O1314269   6.456   2.237   2.646 -0.2021  0.0921  0.1602
  133OSM    O1414270   6.291   2.049   2.652 -0.1741 -0.5151 -0.1770
  133OSM    O1114271   6.350   2.175   2.855  0.3018  0.7453 -0.1140
  133OSM    O1214272   6.520   2.035   2.758  0.1849 -0.1624  0.1821
  133OSM    C1S14273   6.295   2.069   2.938  0.0550 -0.0918 -0.2143
  133OSM    H1S14274   6.369   1.987   2.941  0.1432 -0.1349 -2.2640
  133OSM    H1T14275   6.202   2.021   2.899  0.0580 -0.9794  0.8582
  133OSM     NF14276   6.259   2.016   3.178 -0.0272  0.3829  0.1579
  133OSM    HNF14277   6.167   2.012   3.216  0.2150  1.1765  0.8607
  133OSM    C2S14278   6.278   2.123   3.083  0.1765 -0.1350 -0.4671
  133OSM    H2S14279   6.370   2.179   3.110 -1.5541  2.4264  0.5027
  133OSM    C3S14280   6.166   2.236   3.080 -0.2753 -0.0340 -0.1988
  133OSM    H3S14281   6.069   2.187   3.054  0.1669 -1.6874  1.0646
  133OSM     O314282   6.190   2.340   2.990 -0.1949 -0.5949  0.6916
  133OSM    HO314283   6.260   2.297   2.940 -0.2852  0.9987 -0.9201
  133OSM    C4S14284   6.140   2.302   3.216 -0.7887  0.4756 -0.0858
  133OSM    H4S14285   6.049   2.267   3.266 -1.9675 -1.2320 -3.1748
  133OSM    C5S14286   6.238   2.374   3.281 -0.0377  0.2083  0.2712
  133OSM    H5S14287   6.316   2.414   3.215  2.2542 -1.9305  1.4909
  133OSM    C6S14288   6.233   2.423   3.421  0.1405 -1.0313  0.2409
  133OSM    H6S14289   6.239   2.534   3.420 -0.0173 -1.0283 -0.6715
  133OSM    H6T14290   6.312   2.393   3.494  1.4924  0.5877 -0.4984
  133OSM    C7S14291   6.102   2.392   3.490 -0.3346  0.0580 -0.1962
  133OSM    H7S14292   6.058   2.292   3.471 -1.7480  0.5839  0.1524
  133OSM    H7T14293   6.030   2.466   3.450 -0.9956  0.5471  1.7611
  133OSM    C8S14294   6.120   2.417   3.642  0.1601  1.0835  0.0127
  133OSM    H8S14295   6.203   2.353   3.679  0.1095  1.8885  1.6387
  133OSM    H8T14296   6.026   2.396   3.697  1.1422  0.5264  1.5591
  133OSM    C9S14297   6.144   2.570   3.667 -0.1853  0.3060  0.6318
  133OSM    H9S14298   6.053   2.623   3.632 -0.8957 -0.3920  1.4097
  133OSM    H9T14299   6.236   2.603   3.613  0.1490 -1.7504 -0.1354
  133OSM   C10S14300   6.175   2.622   3.811  0.6160  0.6238  1.0167
  133OSM   H10S14301   6.217   2.723   3.793  0.1685  0.2692 -2.9479
  133OSM   H10T14302   6.258   2.556   3.842  0.6560  0.6383  0.9412
  133OSM   C11S14303   6.049   2.620   3.891 -0.1020 -0.2547  0.2365
  133OSM   H11S14304   6.022   2.515   3.915  3.4388 -1.7456 -1.5079
  133OSM   H11T14305   5.965   2.662   3.832 -1.2872 -0.2210  1.8820
  133OSM   C12S14306   6.076   2.697   4.019 -0.6022 -0.2451 -0.1707
  133OSM   H12S14307   6.090   2.804   3.990 -2.0929 -0.1605 -0.6278
  133OSM   H12T14308   6.173   2.666   4.066 -0.1963  0.9533 -0.1756
  133OSM   C13S14309   5.969   2.670   4.122  1.1486  0.1322  0.1371
  133OSM   H13S14310   5.961   2.560   4.140 -0.6074  0.1653 -0.3115
  133OSM   H13T14311   5.864   2.690   4.092  0.2644 -1.4460  1.9071
  133OSM   C14S14312   5.998   2.735   4.249  0.5769 -1.1299 -0.4397
  133OSM   H14S14313   5.997   2.846   4.243 -1.6955 -1.0672  0.3074
  133OSM   H14T14314   6.096   2.697   4.287 -0.1530 -3.0338 -0.3219
  133OSM   C15S14315   5.887   2.699   4.349  0.2642  0.0383  0.2629
  133OSM   H15S14316   5.868   2.591   4.335 -0.6025  0.2678 -0.4073
  133OSM   H15T14317   5.790   2.740   4.314 -0.4995 -1.3783  0.6141
  133OSM   C16S14318   5.901   2.725   4.500 -0.0987 -0.0882  0.4340
  133OSM   H16S14319   5.911   2.835   4.506  0.9759 -0.1753  0.4394
  133OSM   H16T14320   5.990   2.672   4.540  0.5089  0.7643  0.2290
  133OSM   C17S14321   5.777   2.686   4.585  0.3230  0.3213  0.6734
  133OSM   H17S14322   5.750   2.586   4.547 -0.6990  1.2203 -1.0961
  133OSM   H17T14323   5.694   2.756   4.559  1.0930  0.3101 -2.1514
  133OSM   C18S14324   5.801   2.684   4.736  0.0821 -0.0698  0.7744
  133OSM   H18S14325   5.846   2.777   4.778  0.3656  0.8201 -1.3768
  133OSM   H18T14326   5.881   2.608   4.749 -1.3536 -2.0404 -1.3048
  133OSM   H18U14327   5.711   2.644   4.788  1.0922 -1.8956  1.2181
  133OSM    C1F14328   6.345   1.916   3.207  0.3835  0.1695  0.0352
  133OSM     OF14329   6.449   1.906   3.150  0.0057  0.4229 -0.5118
  133OSM    C2F14330   6.301   1.830   3.311  0.0167  0.0803 -0.1835
  133OSM    H2F14331   6.231   1.751   3.277 -0.8434  0.1353  1.3557
  133OSM    H2G14332   6.237   1.895   3.374  0.4389 -0.4919  0.8529
  133OSM    C3F14333   6.419   1.775   3.393 -0.8763  0.4091  0.4999
  133OSM    H3F14334   6.494   1.854   3.413  0.0191 -0.3261  0.1333
  133OSM    H3G14335   6.465   1.701   3.323 -3.4360  0.5226 -1.4445
  133OSM    C4F14336   6.380   1.697   3.519 -0.5146  0.1858 -0.1165
  133OSM    H4F14337   6.324   1.602   3.509  1.5246 -1.2106  0.9313
  133OSM    H4G14338   6.325   1.768   3.584  1.3420 -0.0333  1.8316
  133OSM    C5F14339   6.506   1.658   3.605  0.1574 -0.3959  0.2026
  133OSM    H5F14340   6.563   1.753   3.619 -0.2204 -0.1964  0.4049
  133OSM    H5G14341   6.567   1.592   3.541 -2.4269 -0.9058 -1.8964
  133OSM    C6F14342   6.485   1.575   3.728  0.1498 -0.2182 -0.5156
  133OSM    H6F14343   6.587   1.547   3.761 -0.7797 -2.3795  0.7191
  133OSM    H6G14344   6.421   1.488   3.701  0.4891 -0.2965 -1.0829
  133OSM    C7F14345   6.432   1.654   3.846  0.4642 -0.3455 -0.0139
  133OSM    H7F14346   6.321   1.656   3.837  0.4487 -2.4839 -1.1213
  133OSM    H7G14347   6.467   1.759   3.847 -1.2287  0.2611 -0.6966
  133OSM    C8F14348   6.462   1.575   3.977 -0.3354 -0.2215 -0.3783
  133OSM    H8F14349   6.573   1.578   3.983 -0.2354 -1.6324 -1.2190
  133OSM    H8G14350   6.445   1.467   3.958  0.0145 -0.0774 -1.5932
  133OSM    C9F14351   6.382   1.638   4.095  0.4243  0.2862 -0.0952
  133OSM    H9F14352   6.273   1.635   4.087  0.4349  0.0253 -0.1757
  133OSM   C10F14353   6.432   1.690   4.216  0.2715 -0.3914 -0.1573
  133OSM   H10F14354   6.365   1.745   4.284  1.1370 -0.7726  1.0307
  133OSM   C11F14355   6.577   1.686   4.244  0.0481  0.3333  0.4195
  133OSM   H11F14356   6.600   1.778   4.302  3.2480 -0.1568  0.1115
  133OSM   H11G14357   6.646   1.701   4.157  1.6880 -0.0298  1.6156
  133OSM   C12F14358   6.627   1.568   4.330  0.0057 -0.1215  0.6218
  133OSM   H12F14359   6.584   1.470   4.303 -1.4045  0.0623  2.1211
  133OSM   H12G14360   6.582   1.600   4.426 -0.9062 -0.4896  0.3269
  133OSM   C13F14361   6.775   1.558   4.333  0.0158 -0.1575 -0.2621
  133OSM   H13F14362   6.834   1.651   4.319  1.6294 -1.3255 -1.7359
  133OSM   H13G14363   6.813   1.503   4.244  0.8139 -0.9929  0.5687
  133OSM   C14F14364   6.826   1.489   4.451  0.1134  0.0177  0.0533
  133OSM   H14F14365   6.774   1.391   4.456  0.7227 -0.2961  0.3949
  133OSM   H14G14366   6.803   1.543   4.546 -1.3483  1.4072 -1.0230
  133OSM   C15F14367   6.977   1.459   4.452 -0.3146  0.9199  0.0516
  133OSM   H15F14368   7.038   1.550   4.472  1.9831 -0.5212  0.0777
  133OSM   H15G14369   7.005   1.426   4.350 -1.0697  0.8492 -0.1388
  133OSM   C16F14370   7.019   1.352   4.565 -0.0279  0.1001 -0.2871
  133OSM   H16F14371   6.954   1.263   4.582  2.1854 -1.5278  0.1461
  133OSM   H16G14372   6.998   1.404   4.660 -0.1073 -2.9512  1.4873
  133OSM   C17F14373   7.167   1.309   4.561  0.2796 -0.6379 -0.3751
  133OSM   H17F14374   7.173   1.269   4.457 -3.5592 -1.6660 -0.3508
  133OSM   H17G14375   7.190   1.229   4.635 -2.5767 -0.5625  0.7340
  133OSM   C18F14376   7.257   1.432   4.583  0.6711 -0.2476  0.1085
  133OSM   H18F14377   7.364   1.406   4.590 -0.0699 -3.9162 -0.4521
  133OSM   H18G14378   7.209   1.500   4.657  0.3969  2.4993 -2.4002
  133OSM   H18H14379   7.260   1.489   4.487 -2.2953  1.0295  0.6399
  134OSM      N14380   0.486   6.753   2.465 -0.2250 -0.5910 -0.0838
  134OSM    C1514381   0.606   6.694   2.393 -0.0870 -0.5713  0.9021
  134OSM   H15A14382   0.674   6.761   2.342 -1.9375 -0.7412 -2.0406
  134OSM   H15B14383   0.582   6.618   2.320 -0.1872  0.9099 -0.6542
  134OSM   H15C14384   0.667   6.649   2.470  1.1201 -0.3675  0.1040
  134OSM    C1414385   0.539   6.841   2.570  0.7947  0.9630 -0.1468
  134OSM   H14A14386   0.572   6.932   2.522  1.2525  1.2870  0.7695
  134OSM   H14B14387   0.620   6.786   2.615 -1.1478 -0.9450  1.2156
  134OSM   H14C14388   0.461   6.868   2.639  1.8326  1.1660  0.9689
  134OSM    C1314389   0.398   6.832   2.370  0.8577 -0.2458  0.5541
  134OSM   H13A14390   0.307   6.862   2.419  0.5312  1.2834 -0.9070
  134OSM   H13B14391   0.358   6.774   2.288  1.2431 -0.8364  0.7762
  134OSM   H13C14392   0.449   6.922   2.339  0.6947 -0.1867  0.4544
  134OSM    C1214393   0.411   6.637   2.527  0.0164 -0.3083  0.1340
  134OSM   H12A14394   0.379   6.568   2.451  3.2260 -2.2020  0.3168
  134OSM   H12B14395   0.316   6.677   2.557  0.4217  0.6689  0.1722
  134OSM    C1114396   0.462   6.572   2.652 -1.3941  0.4954  0.4256
  134OSM   H11A14397   0.381   6.497   2.664  0.5516 -1.7260  0.2109
  134OSM   H11B14398   0.469   6.634   2.745 -2.0118 -0.7909  1.3562
  134OSM      P14399   0.587   6.353   2.594 -0.1062 -0.0576  0.1846
  134OSM    O1314400   0.455   6.308   2.539 -0.0890 -0.5219 -0.1968
  134OSM    O1414401   0.708   6.319   2.509  0.0698  0.2128  0.4743
  134OSM    O1114402   0.607   6.280   2.731 -0.1169 -0.0138  0.2358
  134OSM    O1214403   0.589   6.511   2.623 -0.2070 -0.1016  0.4864
  134OSM    C1S14404   0.529   6.292   2.846  0.0434 -0.2410 -0.8747
  134OSM    H1S14405   0.433   6.243   2.823 -0.6875  0.9112 -0.3566
  134OSM    H1T14406   0.503   6.398   2.865 -0.2108 -0.3436 -0.6541
  134OSM     NF14407   0.535   6.274   3.096  0.0553 -0.4820  0.1257
  134OSM    HNF14408   0.586   6.353   3.130  0.5915 -0.3637 -0.9199
  134OSM    C2S14409   0.591   6.222   2.970  0.8257 -0.0169 -0.1033
  134OSM    H2S14410   0.569   6.114   2.952  2.1319 -0.2159 -0.5675
  134OSM    C3S14411   0.752   6.226   2.972  0.6011 -0.3595 -0.3032
  134OSM    H3S14412   0.770   6.336   2.978  0.0800 -0.2116 -1.2893
  134OSM     O314413   0.812   6.183   2.854  0.2137  0.3319  0.0947
  134OSM    HO314414   0.747   6.199   2.785  1.3001  1.3150 -0.7440
  134OSM    C4S14415   0.820   6.158   3.089 -0.2196  1.1879  0.3449
  134OSM    H4S14416   0.859   6.230   3.162 -0.3011  1.6900 -0.0982
  134OSM    C5S14417   0.855   6.026   3.095  0.0796 -0.0325  0.1745
  134OSM    H5S14418   0.820   5.970   3.008  1.4279 -1.6586  0.6287
  134OSM    C6S14419   0.935   5.957   3.197 -0.3501  0.3674 -0.3029
  134OSM    H6S14420   0.981   6.027   3.270 -1.4008  1.6247 -0.8295
  134OSM    H6T14421   1.024   5.906   3.154 -1.3617 -1.7633 -0.0172
  134OSM    C7S14422   0.859   5.851   3.271  0.0110 -0.6681 -0.4483
  134OSM    H7S14423   0.832   5.766   3.204 -1.6722  0.4462 -1.2497
  134OSM    H7T14424   0.764   5.898   3.304 -0.2410  0.3176 -2.4446
  134OSM    C8S14425   0.932   5.777   3.387  0.1149  0.4841 -0.3837
  134OSM    H8S14426   0.970   5.853   3.458  0.9049 -0.2022 -0.0618
  134OSM    H8T14427   1.010   5.716   3.338  1.1789  0.0861  1.7156
  134OSM    C9S14428   0.839   5.675   3.463  0.0636 -0.2573 -0.2741
  134OSM    H9S14429   0.798   5.597   3.395 -0.4758 -1.1228  1.0034
  134OSM    H9T14430   0.757   5.736   3.505  1.3964  1.7188 -0.4204
  134OSM   C10S14431   0.920   5.592   3.560 -0.4147  0.1470  0.0577
  134OSM   H10S14432   0.958   5.666   3.633  2.0627 -1.4608  0.5200
  134OSM   H10T14433   1.002   5.535   3.512 -1.6445 -1.1959 -0.5099
  134OSM   C11S14434   0.843   5.491   3.653 -0.1696 -0.8488  0.1551
  134OSM   H11S14435   0.821   5.403   3.590  2.1327 -1.9962  0.8190
  134OSM   H11T14436   0.749   5.532   3.696  0.3369 -1.0020  1.4719
  134OSM   C12S14437   0.929   5.431   3.767 -0.3924 -0.5597 -0.0879
  134OSM   H12S14438   0.962   5.514   3.833 -0.0859  0.3126 -1.3095
  134OSM   H12T14439   1.017   5.392   3.713 -1.7823 -1.2919 -1.9508
  134OSM   C13S14440   0.858   5.324   3.850  0.2466 -0.3298 -0.3536
  134OSM   H13S14441   0.943   5.260   3.882  0.5872  0.6205  0.6887
  134OSM   H13T14442   0.786   5.267   3.787  0.3618 -1.3746  0.4265
  134OSM   C14S14443   0.764   5.356   3.964  0.2278  0.6175  0.2905
  134OSM   H14S14444   0.736   5.264   4.019 -1.4418  1.5197  1.0316
  134OSM   H14T14445   0.668   5.399   3.930  0.8883  1.5808 -0.4153
  134OSM   C15S14446   0.817   5.454   4.073  0.1552  0.0983  0.3807
  134OSM   H15S14447   0.840   5.553   4.030  0.4066 -1.3184 -3.0771
  134OSM   H15T14448   0.919   5.423   4.106  0.8282 -0.1411 -1.7977
  134OSM   C16S14449   0.711   5.460   4.187 -0.5105  0.2761 -0.0411
  134OSM   H16S14450   0.714   5.363   4.242  0.7618  0.6872  0.6357
  134OSM   H16T14451   0.605   5.478   4.156 -0.5191 -0.9867 -0.8386
  134OSM   C17S14452   0.739   5.584   4.272  0.3888  0.8026  0.1326
  134OSM   H17S14453   0.731   5.677   4.213 -0.6720  0.7332  0.1571
  134OSM   H17T14454   0.847   5.567   4.295  0.7819 -0.2000 -2.1187
  134OSM   C18S14455   0.672   5.579   4.409  0.1923  0.1459  0.1095
  134OSM   H18S14456   0.562   5.573   4.397  0.1261  0.9662  0.2836
  134OSM   H18T14457   0.683   5.678   4.457  2.1288  0.2174 -0.4095
  134OSM   H18U14458   0.719   5.500   4.472  2.4815  2.0652  0.9616
  134OSM    C1F14459   0.409   6.260   3.123 -0.0158  0.0909 -0.2668
  134OSM     OF14460   0.333   6.188   3.056  0.3783 -0.6956  0.5941
  134OSM    C2F14461   0.354   6.336   3.238  0.7023  0.0430 -0.5709
  134OSM    H2F14462   0.296   6.422   3.198 -0.1902 -0.7447 -1.0075
  134OSM    H2G14463   0.439   6.385   3.291  0.1801 -0.1473  0.4647
  134OSM    C3F14464   0.281   6.243   3.338  0.5709  0.4351 -0.2111
  134OSM    H3F14465   0.368   6.187   3.379  1.5595 -0.9192 -3.7708
  134OSM    H3G14466   0.217   6.166   3.289  1.0518  0.1113 -0.3516
  134OSM    C4F14467   0.193   6.302   3.455 -0.1724 -0.7692 -0.4542
  134OSM    H4F14468   0.119   6.226   3.487  0.3849 -0.6003  1.2902
  134OSM    H4G14469   0.135   6.384   3.407 -0.6417 -1.2074 -0.6425
  134OSM    C5F14470   0.286   6.351   3.566  0.1722 -0.0950 -0.8338
  134OSM    H5F14471   0.331   6.445   3.527 -0.7327 -0.0391 -1.7963
  134OSM    H5G14472   0.366   6.279   3.592 -0.4526 -0.2548  0.7404
  134OSM    C6F14473   0.196   6.364   3.690  0.2431  0.0045 -0.3145
  134OSM    H6F14474   0.089   6.369   3.660  0.3769  0.8517 -0.6774
  134OSM    H6G14475   0.218   6.458   3.745 -2.6240  0.5634 -0.0031
  134OSM    C7F14476   0.205   6.238   3.783  0.5641 -0.9307 -0.3480
  134OSM    H7F14477   0.302   6.248   3.836  1.3282  0.6165 -1.9006
  134OSM    H7G14478   0.196   6.142   3.728 -0.6107 -0.6368 -0.7022
  134OSM    C8F14479   0.092   6.235   3.892 -0.2841  0.6993  0.2157
  134OSM    H8F14480   0.099   6.144   3.955  0.7424 -0.5213 -1.5783
  134OSM    H8G14481  -0.005   6.241   3.839 -0.6154  1.6704  0.9089
  134OSM    C9F14482   0.103   6.364   3.970  0.2358 -0.6339  0.0813
  134OSM    H9F14483   0.065   6.458   3.927 -1.6342 -0.5329  1.8332
  134OSM   C10F14484   0.120   6.377   4.099  0.5351  0.2373  0.0070
  134OSM   H10F14485   0.119   6.479   4.140 -2.4484  1.6685 -3.1126
  134OSM   C11F14486   0.172   6.271   4.194 -0.2958 -0.1045 -0.1901
  134OSM   H11F14487   0.122   6.171   4.190  0.9386 -0.7630  0.1299
  134OSM   H11G14488   0.173   6.292   4.303  3.0891 -1.1503  0.0897
  134OSM   C12F14489   0.319   6.238   4.167 -0.7015  0.1384  0.5241
  134OSM   H12F14490   0.333   6.170   4.080 -1.1282 -1.2146  1.4853
  134OSM   H12G14491   0.365   6.178   4.248 -0.9037  1.8092  1.9126
  134OSM   C13F14492   0.409   6.356   4.130  0.4062  0.6980 -0.2790
  134OSM   H13F14493   0.362   6.449   4.169 -0.3028  0.2992 -0.1664
  134OSM   H13G14494   0.411   6.357   4.019  1.2894 -1.6818 -0.3496
  134OSM   C14F14495   0.551   6.349   4.194 -0.3802  0.2539  0.4925
  134OSM   H14F14496   0.608   6.439   4.162 -0.0152 -0.2375 -0.2464
  134OSM   H14G14497   0.601   6.264   4.143 -3.3551 -0.0099 -2.2287
  134OSM   C15F14498   0.573   6.342   4.347  0.5891  0.4653  0.2358
  134OSM   H15F14499   0.679   6.321   4.371  0.2552 -3.0054 -0.7767
  134OSM   H15G14500   0.518   6.255   4.389 -0.9205  1.2186 -0.1091
  134OSM   C16F14501   0.525   6.471   4.415 -0.0150  0.7544 -0.0334
  134OSM   H16F14502   0.415   6.480   4.404 -0.1215 -0.6601 -0.2492
  134OSM   H16G14503   0.569   6.565   4.373 -1.2306  2.1734  1.7066
  134OSM   C17F14504   0.561   6.458   4.569 -0.9828  0.2743  0.4869
  134OSM   H17F14505   0.671   6.449   4.579 -1.0422 -2.7321 -0.4383
  134OSM   H17G14506   0.509   6.366   4.606  1.1051 -1.1151  0.1350
  134OSM   C18F14507   0.508   6.569   4.661 -0.4157 -0.3737 -0.2230
  134OSM   H18F14508   0.554   6.663   4.625 -0.6333 -0.2178 -0.0990
  134OSM   H18G14509   0.521   6.564   4.771 -1.6230  2.9585  0.2024
  134OSM   H18H14510   0.398   6.576   4.645 -0.7298  0.4161  1.8923
  135OSM      N14511   2.802   3.805   2.720  0.2535 -0.3172  1.2384
  135OSM    C1514512   2.773   3.871   2.589  0.1238 -0.5414  0.6645
  135OSM   H15A14513   2.836   3.825   2.514  1.2366  1.4663  0.3071
  135OSM   H15B14514   2.787   3.977   2.600 -2.2571 -0.0190 -0.6742
  135OSM   H15C14515   2.668   3.875   2.563  0.6155  1.9041 -1.3096
  135OSM    C1414516   2.757   3.659   2.718 -0.4134  0.3985  0.5576
  135OSM   H14A14517   2.649   3.660   2.717 -0.6007 -0.8761 -3.7739
  135OSM   H14B14518   2.791   3.606   2.805  1.8253  2.3675  1.0016
  135OSM   H14C14519   2.794   3.606   2.631 -0.0927 -2.4850  2.3249
  135OSM    C1314520   2.948   3.807   2.732  0.1390 -0.0287 -0.0638
  135OSM   H13A14521   2.969   3.781   2.834 -2.7384 -2.1720  0.0920
  135OSM   H13B14522   2.980   3.908   2.708  0.7980 -0.4371 -0.9581
  135OSM   H13C14523   3.005   3.744   2.665 -0.0167 -1.2461  0.9102
  135OSM    C1214524   2.733   3.873   2.834  0.4917 -0.2366  0.5248
  135OSM   H12A14525   2.628   3.881   2.811 -0.0175 -2.1276  1.9855
  135OSM   H12B14526   2.771   3.974   2.827  0.7717 -0.4512 -1.5718
  135OSM    C1114527   2.739   3.828   2.980 -0.7580  0.4055 -0.7418
  135OSM   H11A14528   2.703   3.909   3.046  0.9631  1.0061 -0.4730
  135OSM   H11B14529   2.843   3.811   3.015  0.1151 -0.1440 -3.3244
  135OSM      P14530   2.503   3.715   2.974  0.0258  0.7846  0.0666
  135OSM    O1314531   2.484   3.755   2.834 -0.1291 -0.7620 -0.3876
  135OSM    O1414532   2.452   3.584   3.015  0.4228 -0.1237  0.2144
  135OSM    O1114533   2.458   3.831   3.073  0.4844 -0.7934  0.7183
  135OSM    O1214534   2.663   3.709   3.001  0.5291 -0.3113  0.4119
  135OSM    C1S14535   2.409   3.796   3.202  0.0725 -0.3315 -0.3554
  135OSM    H1S14536   2.460   3.705   3.239 -0.4348  0.0082  1.2655
  135OSM    H1T14537   2.303   3.762   3.196  0.2395 -0.7938 -0.8017
  135OSM     NF14538   2.414   3.861   3.450 -0.3185  0.1531  0.1859
  135OSM    HNF14539   2.326   3.879   3.493 -0.3701  1.2072 -0.3362
  135OSM    C2S14540   2.423   3.908   3.311  0.1567  0.2557 -0.2201
  135OSM    H2S14541   2.521   3.956   3.292  1.0678 -2.0665 -1.8951
  135OSM    C3S14542   2.310   4.014   3.282  0.4874 -0.2325  0.9288
  135OSM    H3S14543   2.214   3.959   3.294  1.2609 -1.5635  1.2029
  135OSM     O314544   2.311   4.068   3.152  0.3048 -0.0828 -0.0731
  135OSM    HO314545   2.331   3.989   3.101  0.2033 -0.0183 -0.2179
  135OSM    C4S14546   2.303   4.129   3.379 -0.5924  0.5371 -0.6473
  135OSM    H4S14547   2.401   4.177   3.395 -0.0357 -0.8161  0.1801
  135OSM    C5S14548   2.197   4.172   3.449  0.1264  0.1836 -0.1708
  135OSM    H5S14549   2.094   4.137   3.432 -0.0828  0.5471  0.3065
  135OSM    C6S14550   2.212   4.271   3.560  0.2148  0.2880  0.1919
  135OSM    H6S14551   2.210   4.218   3.657  0.7307 -0.8291 -0.3827
  135OSM    H6T14552   2.122   4.335   3.549 -0.7342 -1.1840 -0.9957
  135OSM    C7S14553   2.342   4.355   3.560  0.2592  0.5084  0.2169
  135OSM    H7S14554   2.358   4.402   3.461  0.3762  0.9914  0.4595
  135OSM    H7T14555   2.427   4.288   3.582 -0.9316 -0.6715  1.3808
  135OSM    C8S14556   2.330   4.454   3.677  0.0302  0.2488  0.2101
  135OSM    H8S14557   2.312   4.385   3.762 -0.2297  0.4638  0.3320
  135OSM    H8T14558   2.239   4.514   3.657  0.6398  1.8917  2.1286
  135OSM    C9S14559   2.458   4.537   3.693  0.1533  0.0873 -0.0355
  135OSM    H9S14560   2.459   4.597   3.599 -2.9026 -1.1272 -0.9600
  135OSM    H9T14561   2.545   4.468   3.707  0.6122  0.7205  0.2860
  135OSM   C10S14562   2.464   4.631   3.817 -0.3017 -0.2063 -0.0780
  135OSM   H10S14563   2.378   4.701   3.820 -2.3498 -2.5958  1.8356
  135OSM   H10T14564   2.557   4.688   3.793 -1.4377  0.8426 -2.2820
  135OSM   C11S14565   2.460   4.555   3.953 -0.6060 -0.0845  0.0301
  135OSM   H11S14566   2.532   4.470   3.955 -0.1668  0.0075 -3.9739
  135OSM   H11T14567   2.359   4.508   3.964 -0.2326 -0.4977  2.2089
  135OSM   C12S14568   2.487   4.642   4.072  0.2186 -0.3034 -0.2277
  135OSM   H12S14569   2.421   4.732   4.066  0.1479 -0.3737 -0.5080
  135OSM   H12T14570   2.587   4.689   4.058 -0.1213  0.1690 -1.1406
  135OSM   C13S14571   2.456   4.569   4.206  0.0430 -0.4885 -0.1419
  135OSM   H13S14572   2.355   4.522   4.204 -0.3095  0.2536 -0.1831
  135OSM   H13T14573   2.452   4.643   4.289 -0.2582 -0.0903 -0.5073
  135OSM   C14S14574   2.574   4.482   4.257  0.2218 -0.2028 -0.9496
  135OSM   H14S14575   2.669   4.537   4.245 -0.5450  1.1350 -1.0106
  135OSM   H14T14576   2.579   4.391   4.192 -0.4725  1.2551 -3.1465
  135OSM   C15S14577   2.564   4.451   4.406 -0.6983 -0.1850  0.0674
  135OSM   H15S14578   2.467   4.398   4.419  0.1792 -2.0667 -0.6443
  135OSM   H15T14579   2.580   4.541   4.469  0.8700 -0.6508  0.3697
  135OSM   C16S14580   2.672   4.348   4.456 -0.2536  0.6000 -0.0288
  135OSM   H16S14581   2.663   4.333   4.566  1.1304  0.7308  0.1232
  135OSM   H16T14582   2.778   4.375   4.434 -0.4723  0.2924 -1.5922
  135OSM   C17S14583   2.654   4.204   4.399 -0.0047  0.3602  0.6200
  135OSM   H17S14584   2.645   4.202   4.289  0.7134 -0.8470  0.5703
  135OSM   H17T14585   2.551   4.177   4.431  0.0743 -1.3706 -0.4640
  135OSM   C18S14586   2.760   4.107   4.455  0.2499  0.0081 -0.0147
  135OSM   H18S14587   2.751   4.097   4.565  1.6111  0.4297  0.1544
  135OSM   H18T14588   2.864   4.145   4.443  0.2967 -0.1366 -0.0609
  135OSM   H18U14589   2.761   4.003   4.418  1.0094 -0.4987  1.3637
  135OSM    C1F14590   2.513   3.797   3.495 -0.8678  0.0843 -0.9520
  135OSM     OF14591   2.623   3.811   3.443 -0.0631 -0.1559  0.3083
  135OSM    C2F14592   2.497   3.705   3.622 -0.8012 -0.7015  0.3674
  135OSM    H2F14593   2.432   3.620   3.592 -1.6634 -0.3485  1.1791
  135OSM    H2G14594   2.443   3.769   3.695 -1.6004 -0.8027 -0.1280
  135OSM    C3F14595   2.633   3.656   3.676 -0.0200  0.0458 -0.2145
  135OSM    H3F14596   2.696   3.744   3.702 -1.4103  0.8976  0.3713
  135OSM    H3G14597   2.697   3.605   3.601  3.5629  2.9128  0.5838
  135OSM    C4F14598   2.613   3.564   3.792 -0.1553 -0.2902 -0.2732
  135OSM    H4F14599   2.531   3.492   3.774  0.3045 -1.8824  3.1056
  135OSM    H4G14600   2.562   3.620   3.873  0.4753 -1.0566  0.6785
  135OSM    C5F14601   2.741   3.507   3.846 -0.1198  0.0170 -0.2755
  135OSM    H5F14602   2.807   3.589   3.883 -2.5378  1.2037  1.6784
  135OSM    H5G14603   2.794   3.434   3.781  1.5905 -0.1760  1.2326
  135OSM    C6F14604   2.710   3.422   3.977 -0.3161 -0.1843  0.4619
  135OSM    H6F14605   2.679   3.487   4.061  0.9780  0.1944  0.6716
  135OSM    H6G14606   2.812   3.396   4.012 -0.3679 -2.7338 -0.9974
  135OSM    C7F14607   2.625   3.291   3.960  0.3984  0.0433 -0.9866
  135OSM    H7F14608   2.671   3.228   3.882 -0.7145 -1.2077 -0.6829
  135OSM    H7G14609   2.517   3.311   3.938 -0.4373 -0.3690  2.2482
  135OSM    C8F14610   2.618   3.208   4.090  0.2673  0.3764 -0.0537
  135OSM    H8F14611   2.558   3.116   4.073 -0.5241  0.2258  3.1014
  135OSM    H8G14612   2.563   3.248   4.177 -1.9639 -0.4738 -0.9991
  135OSM    C9F14613   2.758   3.166   4.104  0.3757  0.0105  0.4270
  135OSM    H9F14614   2.797   3.111   4.017 -0.4492  0.4155 -0.2232
  135OSM   C10F14615   2.834   3.185   4.207  0.2074 -0.3988 -0.1502
  135OSM   H10F14616   2.931   3.132   4.206  0.0008 -0.7819  0.0419
  135OSM   C11F14617   2.797   3.268   4.332 -0.2211  0.8191 -0.5041
  135OSM   H11F14618   2.693   3.308   4.328 -0.5242 -0.0099 -1.5361
  135OSM   H11G14619   2.866   3.352   4.351  1.2415 -0.7891  1.7669
  135OSM   C12F14620   2.800   3.181   4.461  0.4520 -0.0335  0.3393
  135OSM   H12F14621   2.908   3.171   4.484  0.8233  0.8850 -0.8897
  135OSM   H12G14622   2.759   3.078   4.451 -1.1341  0.4070  1.7484
  135OSM   C13F14623   2.741   3.236   4.594  0.5083 -0.1806 -0.6214
  135OSM   H13F14624   2.631   3.250   4.589  0.0628 -1.8243  2.4398
  135OSM   H13G14625   2.797   3.330   4.614 -1.0203  0.2703  2.1305
  135OSM   C14F14626   2.750   3.129   4.705 -0.1832  0.1818  0.1976
  135OSM   H14F14627   2.851   3.083   4.700 -0.0835  0.5132 -0.9931
  135OSM   H14G14628   2.674   3.052   4.678 -1.0980  1.3145 -0.5170
  135OSM   C15F14629   2.740   3.171   4.849  0.2839 -0.1847  0.4139
  135OSM   H15F14630   2.669   3.257   4.843  1.5518  0.8148 -0.7152
  135OSM   H15G14631   2.829   3.224   4.889  1.1134  1.1865 -2.9141
  135OSM   C16F14632   2.681   3.057   4.937 -0.2162 -0.4199 -0.4333
  135OSM   H16F14633   2.674   3.094   5.042 -1.7592 -1.6691 -0.0583
  135OSM   H16G14634   2.755   2.975   4.933  2.2287  1.6374 -0.0804
  135OSM   C17F14635   2.543   3.013   4.900  0.8228  0.8720 -0.6097
  135OSM   H17F14636   2.550   2.946   4.811 -0.5216  2.4522 -1.9833
  135OSM   H17G14637   2.485   3.104   4.873  2.0427  2.0176  0.5108
  135OSM   C18F14638   2.472   2.925   5.009 -0.3330  0.3130  1.0306
  135OSM   H18F14639   2.383   2.875   4.963 -2.1483  3.0889  1.2979
  135OSM   H18G14640   2.436   2.983   5.097  2.8703  2.0226  1.3419
  135OSM   H18H14641   2.542   2.850   5.051 -1.4251 -1.9073 -0.9086
  136OSM      N14642   6.407   1.424   2.575 -0.0906 -0.0390  0.4023
  136OSM    C1514643   6.358   1.470   2.709 -0.4900 -0.1296 -0.1011
  136OSM   H15A14644   6.436   1.451   2.781 -0.6700  1.4694  0.5666
  136OSM   H15B14645   6.267   1.418   2.733 -0.4713  0.2266  0.7807
  136OSM   H15C14646   6.327   1.574   2.711 -3.4880 -0.9199 -1.1631
  136OSM    C1414647   6.300   1.475   2.480  0.4143  0.6785  0.1845
  136OSM   H14A14648   6.311   1.438   2.379 -1.4888  1.4140 -0.3397
  136OSM   H14B14649   6.288   1.582   2.487 -0.0975  0.9402 -3.0521
  136OSM   H14C14650   6.209   1.422   2.503  0.7024 -1.5136 -3.0024
  136OSM    C1314651   6.529   1.505   2.547  0.2949  0.0368 -0.0190
  136OSM   H13A14652   6.619   1.478   2.599  0.9627 -1.0582 -1.6615
  136OSM   H13B14653   6.507   1.607   2.574 -4.4722 -0.6018 -0.5534
  136OSM   H13C14654   6.554   1.507   2.442  0.5033  0.1293  0.0317
  136OSM    C1214655   6.421   1.272   2.564 -1.0290  0.3782 -0.4847
  136OSM   H12A14656   6.457   1.260   2.463 -0.9972  0.7345 -0.5161
  136OSM   H12B14657   6.329   1.214   2.560 -1.8767  1.7106 -1.1513
  136OSM    C1114658   6.518   1.194   2.659 -0.0772  0.2439  0.2626
  136OSM   H11A14659   6.506   1.101   2.600 -0.1161  1.0498 -1.0429
  136OSM   H11B14660   6.472   1.175   2.758  0.5972  1.5655  0.8606
  136OSM      P14661   6.756   1.211   2.552  0.3122  0.2163 -0.2223
  136OSM    O1314662   6.706   1.148   2.427  0.2294 -0.0809  0.2300
  136OSM    O1414663   6.843   1.324   2.533 -0.2725 -0.1290  0.1750
  136OSM    O1114664   6.849   1.104   2.624  0.3261  0.6712  0.4709
  136OSM    O1214665   6.657   1.239   2.661  0.1522 -0.2626 -0.0158
  136OSM    C1S14666   6.883   1.118   2.761 -0.1456 -0.0195  0.1361
  136OSM    H1S14667   6.890   1.224   2.794  0.7235  0.2114 -0.7442
  136OSM    H1T14668   6.983   1.070   2.765  1.0157  1.4886 -4.5700
  136OSM     NF14669   6.839   1.067   2.996  0.0653  0.0061 -0.1378
  136OSM    HNF14670   6.870   0.985   3.043 -2.0276 -1.6298 -1.4057
  136OSM    C2S14671   6.792   1.037   2.861 -0.2510 -0.1464  0.0505
  136OSM    H2S14672   6.690   1.083   2.857 -1.8677 -3.3771  0.8391
  136OSM    C3S14673   6.768   0.888   2.828 -0.2867  0.0940 -0.8222
  136OSM    H3S14674   6.870   0.843   2.819  0.1737  1.1529 -1.0416
  136OSM     O314675   6.719   0.860   2.700  0.1611  0.3216  0.0956
  136OSM    HO314676   6.716   0.947   2.659  0.4539  1.3596  2.1444
  136OSM    C4S14677   6.685   0.826   2.929 -0.3147 -0.2170 -0.8339
  136OSM    H4S14678   6.597   0.889   2.949 -0.2608  0.7108 -3.1666
  136OSM    C5S14679   6.700   0.705   2.986 -0.2479  0.1705  0.1123
  136OSM    H5S14680   6.783   0.640   2.955  0.3704 -0.7126  3.2815
  136OSM    C6S14681   6.603   0.645   3.082  0.1482 -0.6286 -0.5320
  136OSM    H6S14682   6.624   0.688   3.182 -3.0485  0.3733 -0.1814
  136OSM    H6T14683   6.632   0.538   3.088  0.2732 -0.4941  2.1595
  136OSM    C7S14684   6.454   0.652   3.045 -0.0891 -0.4095  0.1912
  136OSM    H7S14685   6.442   0.588   2.955 -0.5644 -0.4235  0.2637
  136OSM    H7T14686   6.393   0.743   3.028 -0.3680 -0.5829  0.2547
  136OSM    C8S14687   6.370   0.568   3.144 -0.1236  0.2168  0.1024
  136OSM    H8S14688   6.409   0.465   3.153 -1.1557 -0.0502  2.1439
  136OSM    H8T14689   6.266   0.567   3.103  0.0784  1.8890 -0.5458
  136OSM    C9S14690   6.374   0.617   3.292 -0.0521  0.1704  0.8862
  136OSM    H9S14691   6.383   0.728   3.284 -0.1076  0.0413 -1.7847
  136OSM    H9T14692   6.469   0.592   3.344 -0.2048 -1.0798  0.5782
  136OSM   C10S14693   6.244   0.588   3.367  0.7577  0.4488  0.1462
  136OSM   H10S14694   6.215   0.482   3.353  0.8357  0.6578 -1.9283
  136OSM   H10T14695   6.157   0.646   3.330 -0.5244 -1.1563  0.5451
  136OSM   C11S14696   6.256   0.606   3.522 -0.1830  0.6730  0.3917
  136OSM   H11S14697   6.327   0.690   3.541 -2.5054  3.0842 -0.8275
  136OSM   H11T14698   6.287   0.511   3.569 -1.2012  0.5373  0.8207
  136OSM   C12S14699   6.118   0.634   3.588  0.4175  1.1197  0.3354
  136OSM   H12S14700   6.055   0.544   3.568  0.3404  1.4025 -0.7635
  136OSM   H12T14701   6.066   0.726   3.554 -2.5021 -0.2826  0.6874
  136OSM   C13S14702   6.129   0.668   3.741  0.0450  0.5752 -0.2676
  136OSM   H13S14703   6.177   0.576   3.783 -1.3909  0.1303  0.5033
  136OSM   H13T14704   6.028   0.673   3.788  0.7029 -0.4585  1.3726
  136OSM   C14S14705   6.203   0.794   3.790 -0.1635  0.1383 -0.5346
  136OSM   H14S14706   6.144   0.878   3.747 -0.0862  0.4563 -0.0377
  136OSM   H14T14707   6.306   0.793   3.749  0.3019 -1.4495  0.5638
  136OSM   C15S14708   6.217   0.810   3.941  0.5384 -0.3038 -0.5182
  136OSM   H15S14709   6.287   0.741   3.992  2.5228  0.6246 -1.8680
  136OSM   H15T14710   6.114   0.800   3.983  0.7604 -1.6236 -0.2638
  136OSM   C16S14711   6.267   0.960   3.969  0.6373  0.8378 -0.4013
  136OSM   H16S14712   6.199   1.033   3.920 -0.1050  0.6459  0.3136
  136OSM   H16T14713   6.368   0.973   3.924  2.0628  0.2210  2.3644
  136OSM   C17S14714   6.272   1.001   4.112  0.7206  0.2723 -0.8517
  136OSM   H17S14715   6.169   1.009   4.152  0.1077 -2.5330 -1.5954
  136OSM   H17T14716   6.323   1.099   4.118  0.3515  0.4403  5.1305
  136OSM   C18S14717   6.345   0.902   4.196 -0.4904  0.4069  0.0883
  136OSM   H18S14718   6.385   0.947   4.289  3.7445  0.2311 -1.4222
  136OSM   H18T14719   6.435   0.855   4.150  0.1787  0.7537  1.0162
  136OSM   H18U14720   6.278   0.820   4.230 -1.5257  0.3468 -1.9456
  136OSM    C1F14721   6.824   1.187   3.056  0.1581 -0.8711 -0.2036
  136OSM     OF14722   6.782   1.287   2.999  0.3462  0.0346  0.3424
  136OSM    C2F14723   6.873   1.194   3.202  0.2067  0.4050  0.1584
  136OSM    H2F14724   6.976   1.152   3.199  0.1235  0.2236 -0.4831
  136OSM    H2G14725   6.800   1.125   3.250  0.2731 -0.3972 -0.8585
  136OSM    C3F14726   6.886   1.333   3.254 -0.8066 -0.4078 -0.3023
  136OSM    H3F14727   6.787   1.382   3.253 -0.9180 -0.5576 -2.7832
  136OSM    H3G14728   6.965   1.387   3.197  3.8144 -1.6811  4.0779
  136OSM    C4F14729   6.942   1.333   3.396 -0.3216  0.2919  0.2377
  136OSM    H4F14730   7.049   1.305   3.403 -0.4787 -0.4967 -0.4674
  136OSM    H4G14731   6.888   1.263   3.464  2.2297 -1.4090  0.6497
  136OSM    C5F14732   6.914   1.471   3.467 -0.7447  0.5038  0.3774
  136OSM    H5F14733   6.924   1.455   3.577  0.0052  2.1425  0.5775
  136OSM    H5G14734   6.806   1.489   3.448 -0.2552  1.2078 -2.0419
  136OSM    C6F14735   7.014   1.578   3.426  0.2386  0.2828 -0.5090
  136OSM    H6F14736   6.979   1.603   3.324 -2.0952 -0.6765 -0.0170
  136OSM    H6G14737   7.110   1.522   3.424 -0.4508 -1.0527  1.0011
  136OSM    C7F14738   7.025   1.701   3.519 -0.2852  0.0451 -0.1182
  136OSM    H7F14739   7.098   1.774   3.478 -0.5439  0.0249 -0.6198
  136OSM    H7G14740   7.077   1.677   3.614 -0.7984  2.7506  0.9446
  136OSM    C8F14741   6.889   1.766   3.554  1.0120  0.0291  0.1094
  136OSM    H8F14742   6.840   1.700   3.628  0.0163 -0.2246 -0.7450
  136OSM    H8G14743   6.819   1.746   3.470  0.9248 -1.4343  0.5023
  136OSM    C9F14744   6.907   1.905   3.601 -0.0162 -0.2337  0.1817
  136OSM    H9F14745   6.908   1.989   3.530 -0.7837  1.6169  2.2371
  136OSM   C10F14746   6.898   1.940   3.736 -0.6690  0.6004  0.5454
  136OSM   H10F14747   6.913   2.044   3.766  0.0842 -0.0401  2.5260
  136OSM   C11F14748   6.891   1.849   3.859 -0.6007 -0.6860  0.4154
  136OSM   H11F14749   6.931   1.746   3.846 -1.2002 -0.8130 -0.5146
  136OSM   H11G14750   6.787   1.843   3.897 -1.2225 -0.2977 -1.1544
  136OSM   C12F14751   6.989   1.910   3.966 -0.2950  0.3170  0.8404
  136OSM   H12F14752   6.970   2.017   3.988  1.2963  0.6302  0.8101
  136OSM   H12G14753   7.092   1.902   3.924 -0.1980 -1.0489  1.2791
  136OSM   C13F14754   6.984   1.831   4.096  0.9332 -0.4502 -0.5568
  136OSM   H13F14755   7.021   1.727   4.078  0.2771 -0.4103 -2.3229
  136OSM   H13G14756   6.875   1.827   4.115  1.2947 -2.7429  1.4622
  136OSM   C14F14757   7.050   1.897   4.215 -0.4254  0.0522 -0.3398
  136OSM   H14F14758   7.060   1.822   4.296 -2.3095 -0.7976 -0.8448
  136OSM   H14G14759   6.985   1.977   4.256  0.0351 -0.2480  1.0267
  136OSM   C15F14760   7.186   1.963   4.184 -0.2282  0.3860 -0.5003
  136OSM   H15F14761   7.180   2.036   4.100 -2.0133 -0.1751 -0.9033
  136OSM   H15G14762   7.242   1.870   4.157 -1.7345 -0.7424  0.1040
  136OSM   C16F14763   7.254   2.030   4.302  0.1004 -0.0484 -1.0753
  136OSM   H16F14764   7.248   1.961   4.389  0.6231 -1.4708 -2.1197
  136OSM   H16G14765   7.190   2.119   4.318  0.2291  0.0406 -1.0495
  136OSM   C17F14766   7.402   2.068   4.286  0.3669 -0.0734 -0.1630
  136OSM   H17F14767   7.418   2.137   4.200  0.8731  1.1507  0.8898
  136OSM   H17G14768   7.460   1.975   4.268 -0.3333 -0.3278 -1.2600
  136OSM   C18F14769   7.456   2.144   4.408 -0.1153  0.0943 -0.6566
  136OSM   H18F14770   7.387   2.224   4.442 -1.3186 -1.0981 -0.1552
  136OSM   H18G14771   7.561   2.179   4.402  0.0003 -0.1328  0.0140
  136OSM   H18H14772   7.468   2.082   4.500  2.3469  0.5692 -0.6026
  137OSM      N14773   1.683   4.098   2.482 -0.3754  0.4227 -0.0073
  137OSM    C1514774   1.792   4.189   2.442  0.5950  0.1498 -0.3158
  137OSM   H15A14775   1.786   4.280   2.501 -2.3641 -0.5483  0.6243
  137OSM   H15B14776   1.788   4.226   2.340 -2.1043 -0.4204 -0.4837
  137OSM   H15C14777   1.889   4.147   2.460  0.7545  1.5016  2.4875
  137OSM    C1414778   1.714   3.954   2.443 -0.3376 -1.2470 -0.1355
  137OSM   H14A14779   1.794   3.918   2.506 -0.5549  0.0754  0.9351
  137OSM   H14B14780   1.746   3.950   2.340 -1.7791 -1.6883 -0.5883
  137OSM   H14C14781   1.633   3.884   2.461  0.9179 -2.3224  1.6404
  137OSM    C1314782   1.672   4.098   2.631 -0.3656  0.8069 -0.3011
  137OSM   H13A14783   1.768   4.078   2.674  0.6353  4.8510 -0.3329
  137OSM   H13B14784   1.600   4.023   2.660 -0.8685  1.1750 -0.5839
  137OSM   H13C14785   1.645   4.192   2.677 -2.8125  0.9409 -1.7963
  137OSM    C1214786   1.553   4.140   2.411 -0.0578  0.1831  0.4760
  137OSM   H12A14787   1.576   4.147   2.306  0.6276  3.3166  0.7489
  137OSM   H12B14788   1.544   4.244   2.438  1.3679 -0.2263  2.8460
  137OSM    C1114789   1.421   4.062   2.445 -0.2326  0.0672 -0.3717
  137OSM   H11A14790   1.436   3.953   2.429 -1.0929 -0.4857  2.2503
  137OSM   H11B14791   1.344   4.102   2.376  0.0515  1.4437  0.0769
  137OSM      P14792   1.289   4.189   2.629  0.1645 -0.4603 -0.1393
  137OSM    O1314793   1.366   4.319   2.638 -0.3567 -0.5250 -0.5011
  137OSM    O1414794   1.169   4.201   2.541  0.0897 -0.1339  0.0264
  137OSM    O1114795   1.238   4.136   2.769 -0.5569 -0.5647  0.1709
  137OSM    O1214796   1.376   4.069   2.581 -0.1913 -0.1568 -0.1133
  137OSM    C1S14797   1.312   4.058   2.855 -0.5590 -0.1799 -0.8340
  137OSM    H1S14798   1.418   4.093   2.863 -0.5162 -0.2202 -1.2087
  137OSM    H1T14799   1.311   3.951   2.826 -0.8594 -0.5435  0.4365
  137OSM     NF14800   1.305   3.953   3.083  0.1151  0.4972  0.5315
  137OSM    HNF14801   1.246   3.880   3.117  0.9166 -0.5365 -0.2231
  137OSM    C2S14802   1.244   4.058   2.995 -0.6043  0.0654 -0.1540
  137OSM    H2S14803   1.273   4.156   3.039  0.2093  0.4927 -1.5802
  137OSM    C3S14804   1.087   4.054   2.991 -0.3287  0.1819 -0.2890
  137OSM    H3S14805   1.045   3.957   2.956 -2.8228  0.2125  2.2281
  137OSM     O314806   1.016   4.150   2.907  0.1624 -0.1601 -0.6334
  137OSM    HO314807   1.087   4.191   2.857 -0.1237 -1.8993 -2.6065
  137OSM    C4S14808   1.035   4.082   3.133 -0.1115 -0.4821  0.1835
  137OSM    H4S14809   1.030   4.190   3.152  0.8376 -0.5590  0.9554
  137OSM    C5S14810   0.972   3.990   3.218 -0.2194  0.2557  0.6821
  137OSM    H5S14811   0.962   3.887   3.180 -0.5727 -0.1664  1.8647
  137OSM    C6S14812   0.937   4.021   3.357 -0.6590  0.5530  0.0084
  137OSM    H6S14813   0.839   3.976   3.384 -0.7386 -0.0295 -1.1382
  137OSM    H6T14814   0.926   4.129   3.379 -0.7322  0.8710 -1.4475
  137OSM    C7S14815   1.056   3.956   3.433 -0.5676 -0.4978 -0.2925
  137OSM    H7S14816   1.149   3.990   3.383  0.2298 -0.9771  0.8405
  137OSM    H7T14817   1.062   3.845   3.432 -3.9549 -0.7846 -0.2552
  137OSM    C8S14818   1.061   4.005   3.575 -0.7923  0.4720 -0.6628
  137OSM    H8S14819   0.962   3.991   3.623 -0.3863  0.9434  0.3469
  137OSM    H8T14820   1.082   4.114   3.572  0.4658  0.2221 -2.1833
  137OSM    C9S14821   1.179   3.950   3.657 -0.3564 -0.7377 -0.2740
  137OSM    H9S14822   1.273   3.975   3.604  0.0571  0.1657  0.8271
  137OSM    H9T14823   1.161   3.841   3.671  1.9253 -1.1358 -0.0191
  137OSM   C10S14824   1.183   4.017   3.801 -0.8336  0.1798 -0.4433
  137OSM   H10S14825   1.273   3.976   3.853 -1.5072  1.5352  1.9479
  137OSM   H10T14826   1.094   3.980   3.856 -0.3829  0.7136  0.6847
  137OSM   C11S14827   1.199   4.170   3.806  0.5010  0.1647  0.2503
  137OSM   H11S14828   1.109   4.211   3.756 -0.1979 -0.4804  0.9451
  137OSM   H11T14829   1.288   4.213   3.755 -0.5187  0.7779 -1.0624
  137OSM   C12S14830   1.201   4.219   3.951 -0.2828 -0.6646 -0.6848
  137OSM   H12S14831   1.239   4.324   3.951 -0.6871 -0.5151  0.1758
  137OSM   H12T14832   1.278   4.174   4.018 -0.4416  1.3571  0.9741
  137OSM   C13S14833   1.065   4.232   4.011 -0.3945  0.1196  0.0188
  137OSM   H13S14834   1.020   4.131   4.011 -0.6139  0.2124  0.8473
  137OSM   H13T14835   1.009   4.294   3.938  0.1058  1.2410  0.5585
  137OSM   C14S14836   1.057   4.304   4.148 -0.5584  0.7653  0.3516
  137OSM   H14S14837   0.952   4.334   4.168 -0.7355  0.6379 -0.3605
  137OSM   H14T14838   1.120   4.395   4.141  0.9298 -0.3475 -2.3091
  137OSM   C15S14839   1.098   4.224   4.275 -0.2412 -0.4107 -0.5589
  137OSM   H15S14840   1.202   4.190   4.254  0.4380  1.8024 -1.0325
  137OSM   H15T14841   1.038   4.132   4.293 -1.0422 -0.3609 -2.6059
  137OSM   C16S14842   1.099   4.325   4.393 -0.4307  0.1672 -0.3342
  137OSM   H16S14843   1.178   4.396   4.359  0.4958  0.6495  2.5521
  137OSM   H16T14844   1.126   4.263   4.482 -1.3032 -1.9553 -1.4742
  137OSM   C17S14845   0.962   4.396   4.421 -0.4161 -0.1811 -0.7163
  137OSM   H17S14846   0.887   4.320   4.451  1.2228 -0.9805  1.6785
  137OSM   H17T14847   0.940   4.461   4.333  1.1037  1.8879  0.3240
  137OSM   C18S14848   0.975   4.503   4.539  0.1180  0.0829  0.4848
  137OSM   H18S14849   0.980   4.435   4.627 -2.9446 -1.2187 -0.2332
  137OSM   H18T14850   0.880   4.551   4.567  0.4094  1.1837 -0.3497
  137OSM   H18U14851   1.065   4.568   4.534  0.5678 -0.4829  1.0574
  137OSM    C1F14852   1.434   3.933   3.117  0.1704 -0.6414  0.4945
  137OSM     OF14853   1.517   3.998   3.051  0.2359 -0.3175  0.4203
  137OSM    C2F14854   1.461   3.821   3.214  0.6676 -0.1509  0.1898
  137OSM    H2F14855   1.547   3.764   3.172  0.6484  1.2489 -1.8409
  137OSM    H2G14856   1.377   3.749   3.230  0.0860  0.3564 -0.5085
  137OSM    C3F14857   1.491   3.885   3.357  0.1150  0.4164  0.6537
  137OSM    H3F14858   1.410   3.957   3.382 -1.3814 -0.4855 -1.3277
  137OSM    H3G14859   1.589   3.937   3.349 -0.6488  2.4938  3.3050
  137OSM    C4F14860   1.511   3.775   3.467  0.0236  0.1476  0.2287
  137OSM    H4F14861   1.579   3.708   3.410 -1.3223 -1.9244  0.9304
  137OSM    H4G14862   1.416   3.720   3.486  0.5836  0.0248  3.1537
  137OSM    C5F14863   1.582   3.822   3.589 -0.5380  0.1007  0.1078
  137OSM    H5F14864   1.519   3.911   3.613  0.6858  0.5595  1.7931
  137OSM    H5G14865   1.688   3.841   3.563  0.8766 -4.3851  1.7663
  137OSM    C6F14866   1.583   3.717   3.701 -0.5891 -0.3178  0.1253
  137OSM    H6F14867   1.640   3.632   3.657  0.3744  0.9603 -1.1605
  137OSM    H6G14868   1.482   3.684   3.734 -0.1196 -0.0402  1.9827
  137OSM    C7F14869   1.662   3.753   3.830  0.4579 -0.8560 -0.2442
  137OSM    H7F14870   1.632   3.860   3.840  2.2213 -0.4157  0.8272
  137OSM    H7G14871   1.772   3.747   3.819  0.4848 -1.2368  0.2030
  137OSM    C8F14872   1.610   3.675   3.950  0.8464  1.2275 -0.1480
  137OSM    H8F14873   1.622   3.565   3.960  0.5595  1.2853  0.9197
  137OSM    H8G14874   1.501   3.684   3.969  0.5062 -2.2275  0.0811
  137OSM    C9F14875   1.693   3.735   4.062  0.4164  0.1148 -0.1570
  137OSM    H9F14876   1.784   3.677   4.086  0.4224 -1.6106 -3.7464
  137OSM   C10F14877   1.649   3.839   4.137 -0.8301  0.0491 -0.3852
  137OSM   H10F14878   1.706   3.865   4.228 -2.1345  0.2836  0.3891
  137OSM   C11F14879   1.523   3.919   4.117  0.2439  0.2607 -0.0760
  137OSM   H11F14880   1.461   3.859   4.048 -0.2496 -2.0564  2.2155
  137OSM   H11G14881   1.550   4.018   4.076 -0.4867  0.6080  0.2659
  137OSM   C12F14882   1.443   3.940   4.250  0.4890  0.0468 -0.1443
  137OSM   H12F14883   1.350   3.987   4.210 -0.3084 -0.9958  0.4394
  137OSM   H12G14884   1.491   4.006   4.325 -0.7424 -1.0998  1.7508
  137OSM   C13F14885   1.409   3.810   4.326 -0.3204  0.4844  0.4253
  137OSM   H13F14886   1.502   3.755   4.350 -1.2322 -0.7585  1.2215
  137OSM   H13G14887   1.362   3.738   4.256  1.4841  1.3887 -1.8569
  137OSM   C14F14888   1.329   3.838   4.454 -0.1291 -0.5244 -0.1332
  137OSM   H14F14889   1.227   3.872   4.426  0.8313  1.1175 -1.8964
  137OSM   H14G14890   1.385   3.912   4.515 -0.1607 -1.7521  1.4418
  137OSM   C15F14891   1.307   3.710   4.538  0.0826 -0.7891  0.0474
  137OSM   H15F14892   1.404   3.679   4.583  0.6741 -0.1203 -0.7479
  137OSM   H15G14893   1.266   3.625   4.480  2.4022 -1.2963 -0.9640
  137OSM   C16F14894   1.212   3.746   4.651 -0.1649  0.2706 -0.1770
  137OSM   H16F14895   1.111   3.704   4.629  0.1757  0.0892 -1.4359
  137OSM   H16G14896   1.193   3.855   4.666 -0.6959  0.3816 -1.5685
  137OSM   C17F14897   1.240   3.687   4.792  0.3284  0.0246 -0.2500
  137OSM   H17F14898   1.164   3.726   4.863 -1.5305  1.0220 -2.6094
  137OSM   H17G14899   1.340   3.725   4.820  0.7149 -0.4668 -0.9220
  137OSM   C18F14900   1.245   3.530   4.792  0.0706 -0.0373  0.6666
  137OSM   H18F14901   1.260   3.495   4.896  0.5418  1.3019  1.0655
  137OSM   H18G14902   1.318   3.485   4.720  0.5962  0.5436  0.8261
  137OSM   H18H14903   1.147   3.486   4.763  0.5511 -1.4707  1.1544
  138OSM      N14904   1.730   0.637   2.672 -0.0713 -0.1379  0.0890
  138OSM    C1514905   1.748   0.697   2.535 -0.6414  0.0038 -0.3338
  138OSM   H15A14906   1.828   0.770   2.534  0.6964 -1.4089  0.2254
  138OSM   H15B14907   1.663   0.748   2.492 -0.8591 -0.8839 -0.9920
  138OSM   H15C14908   1.784   0.613   2.477  0.3007  1.2294 -1.6073
  138OSM    C1414909   1.863   0.571   2.707 -1.2102 -0.7716  0.6808
  138OSM   H14A14910   1.950   0.630   2.685 -0.4638 -0.1380  4.6146
  138OSM   H14B14911   1.885   0.487   2.642 -1.1525 -0.2943  0.0759
  138OSM   H14C14912   1.877   0.531   2.806  2.9355  0.5560  0.8033
  138OSM    C1314913   1.699   0.753   2.764 -0.1287 -0.7099 -0.4629
  138OSM   H13A14914   1.694   0.712   2.864 -1.1661  0.2692 -0.0937
  138OSM   H13B14915   1.602   0.790   2.735 -0.6910 -3.0193 -1.8482
  138OSM   H13C14916   1.766   0.837   2.756 -1.3748  0.5291  1.2832
  138OSM    C1214917   1.621   0.529   2.674  0.1315  0.2952 -0.7424
  138OSM   H12A14918   1.639   0.459   2.594 -1.6308  0.7850 -1.6017
  138OSM   H12B14919   1.519   0.557   2.653  0.4204  0.8520 -1.4301
  138OSM    C1114920   1.614   0.447   2.804 -0.1300  0.0432 -0.1504
  138OSM   H11A14921   1.630   0.512   2.893 -0.9698  0.1163 -0.0474
  138OSM   H11B14922   1.689   0.366   2.792 -0.9993 -0.8920  0.5527
  138OSM      P14923   1.337   0.428   2.792 -0.1290  0.0007  0.4633
  138OSM    O1314924   1.328   0.490   2.661  0.1510  0.1477  0.2838
  138OSM    O1414925   1.230   0.337   2.837  0.1436  0.2301 -0.6884
  138OSM    O1114926   1.339   0.556   2.887 -0.1656 -0.3456 -0.5347
  138OSM    O1214927   1.485   0.385   2.817 -0.3411  0.1307  0.2482
  138OSM    C1S14928   1.280   0.545   3.022 -0.1615  0.5719  1.0362
  138OSM    H1S14929   1.248   0.444   3.053 -0.8555  0.4478 -0.0432
  138OSM    H1T14930   1.190   0.610   3.034  0.6319  1.8517  0.3607
  138OSM     NF14931   1.338   0.547   3.266  0.2224 -0.3878 -0.2991
  138OSM    HNF14932   1.304   0.621   3.323  3.0655  0.4233  0.5190
  138OSM    C2S14933   1.387   0.584   3.132  0.4441  0.1646  0.0656
  138OSM    H2S14934   1.480   0.524   3.118  0.0300 -0.6343  0.6159
  138OSM    C3S14935   1.419   0.740   3.120  0.8697  0.4915 -0.5823
  138OSM    H3S14936   1.328   0.805   3.125 -0.3564 -1.2874  2.2231
  138OSM     O314937   1.486   0.775   2.999 -0.6329 -0.2241 -0.1414
  138OSM    HO314938   1.479   0.695   2.946 -0.1038 -2.0244  2.2625
  138OSM    C4S14939   1.508   0.787   3.233 -0.6727 -0.2610  0.0482
  138OSM    H4S14940   1.610   0.748   3.221 -0.8903 -0.6292 -0.6168
  138OSM    C5S14941   1.480   0.868   3.336 -0.6986 -0.0200 -0.8619
  138OSM    H5S14942   1.379   0.911   3.338 -0.6975  0.0766 -1.8790
  138OSM    C6S14943   1.572   0.925   3.447  0.0397  0.6296  0.2101
  138OSM    H6S14944   1.558   1.035   3.455 -1.2599  0.5183 -0.2415
  138OSM    H6T14945   1.676   0.902   3.417  0.3361  0.6764  1.1944
  138OSM    C7S14946   1.536   0.854   3.571  0.4130 -0.2258  0.3820
  138OSM    H7S14947   1.520   0.744   3.572  2.1594 -0.6094  3.7824
  138OSM    H7T14948   1.436   0.897   3.595  1.5249  3.0363 -0.2289
  138OSM    C8S14949   1.637   0.881   3.684 -0.0944 -0.1416  0.4353
  138OSM    H8S14950   1.670   0.987   3.689 -1.1423  0.2147  0.0923
  138OSM    H8T14951   1.721   0.810   3.671  0.0223  0.1243 -0.2638
  138OSM    C9S14952   1.581   0.853   3.825  0.3518 -0.5363  0.3156
  138OSM    H9S14953   1.655   0.836   3.905  0.2916  1.8647  0.9512
  138OSM    H9T14954   1.526   0.758   3.808  1.6108 -0.9806 -1.5175
  138OSM   C10S14955   1.487   0.960   3.884  0.2157 -0.0202  0.1202
  138OSM   H10S14956   1.418   0.919   3.961  1.2544  2.5080  2.5609
  138OSM   H10T14957   1.426   0.999   3.800 -0.5103 -1.8331 -0.2455
  138OSM   C11S14958   1.548   1.076   3.965 -0.9981  0.1072 -1.0063
  138OSM   H11S14959   1.582   1.154   3.894  0.1240 -1.4266 -2.2411
  138OSM   H11T14960   1.639   1.029   4.010 -0.8796  0.5904 -0.7418
  138OSM   C12S14961   1.458   1.145   4.070  0.4503 -0.0144 -0.3677
  138OSM   H12S14962   1.392   1.067   4.114 -0.6996 -0.0411 -2.0184
  138OSM   H12T14963   1.406   1.228   4.019 -0.6758 -0.0595  0.6602
  138OSM   C13S14964   1.541   1.216   4.186 -0.0661  0.4497  0.0813
  138OSM   H13S14965   1.599   1.304   4.152 -3.6546  3.1257  0.3099
  138OSM   H13T14966   1.612   1.136   4.218 -0.3227  0.0696 -0.2903
  138OSM   C14S14967   1.445   1.263   4.295  0.5859 -0.4527 -1.0581
  138OSM   H14S14968   1.358   1.195   4.294 -1.5071  1.9126  1.9984
  138OSM   H14T14969   1.418   1.367   4.265 -0.4518 -0.3057  0.3365
  138OSM   C15S14970   1.502   1.258   4.435 -0.7035 -0.3055  0.7779
  138OSM   H15S14971   1.588   1.328   4.436 -1.6975  0.9701  2.3589
  138OSM   H15T14972   1.529   1.151   4.446 -3.6644 -1.3660 -0.9823
  138OSM   C16S14973   1.390   1.297   4.530  0.0295  0.1346 -0.8398
  138OSM   H16S14974   1.300   1.233   4.520 -1.0568  1.7575 -1.9595
  138OSM   H16T14975   1.365   1.402   4.502 -3.0414 -0.5908 -1.0767
  138OSM   C17S14976   1.448   1.292   4.673 -0.2251 -0.0071 -0.2192
  138OSM   H17S14977   1.533   1.362   4.683 -0.7694  0.3648  2.6010
  138OSM   H17T14978   1.488   1.191   4.699  0.9404  1.1933  3.1020
  138OSM   C18S14979   1.347   1.333   4.777  0.4509 -0.1363  0.0200
  138OSM   H18S14980   1.387   1.319   4.880 -1.4792 -1.6252  0.6160
  138OSM   H18T14981   1.258   1.267   4.777  0.1660  0.1707  2.0272
  138OSM   H18U14982   1.318   1.440   4.771  2.2183  0.3969  0.2935
  138OSM    C1F14983   1.348   0.418   3.302 -0.6254 -0.3279 -0.1753
  138OSM     OF14984   1.363   0.338   3.215  0.4801  0.8810  0.4238
  138OSM    C2F14985   1.329   0.376   3.449  0.5065  0.1834 -0.2856
  138OSM    H2F14986   1.230   0.329   3.466  0.9061 -1.2403 -1.6749
  138OSM    H2G14987   1.340   0.464   3.515 -2.3000  1.2556 -1.1272
  138OSM    C3F14988   1.439   0.280   3.496  0.0898 -0.4488  0.3386
  138OSM    H3F14989   1.535   0.326   3.464  1.3987 -0.6485  3.6539
  138OSM    H3G14990   1.423   0.184   3.442  1.3618 -0.2972 -0.3663
  138OSM    C4F14991   1.456   0.255   3.647  0.6348  0.6929 -0.3591
  138OSM    H4F14992   1.553   0.202   3.654  0.7323  1.1068  2.3645
  138OSM    H4G14993   1.374   0.191   3.686  1.4178  0.0993  0.3271
  138OSM    C5F14994   1.465   0.377   3.749  0.3800  0.0797 -0.2513
  138OSM    H5F14995   1.364   0.420   3.763  0.8115  0.7550  0.9604
  138OSM    H5G14996   1.528   0.458   3.707  0.8957 -0.3732 -0.3654
  138OSM    C6F14997   1.523   0.336   3.890 -0.8661  0.4035 -0.2656
  138OSM    H6F14998   1.616   0.279   3.869 -0.2365  0.3702  2.2722
  138OSM    H6G14999   1.437   0.286   3.939 -0.9356  0.0400 -0.7485
  138OSM    C7F15000   1.563   0.471   3.963  0.1782 -0.1347 -0.0948
  138OSM    H7F15001   1.472   0.535   3.961  0.0446 -0.3218 -0.0572
  138OSM    H7G15002   1.642   0.539   3.926  0.7096  0.2683  1.6880
  138OSM    C8F15003   1.603   0.447   4.112 -0.2861  0.0610  0.5269
  138OSM    H8F15004   1.697   0.387   4.118 -0.6343 -0.6092 -0.3790
  138OSM    H8G15005   1.525   0.374   4.142 -1.4944  0.5913 -1.1614
  138OSM    C9F15006   1.593   0.570   4.197 -0.3312 -0.4220 -0.2213
  138OSM    H9F15007   1.541   0.652   4.146 -0.1692 -0.0494  0.2122
  138OSM   C10F15008   1.648   0.598   4.312 -0.5273  0.1895 -0.2950
  138OSM   H10F15009   1.627   0.700   4.346 -0.3770  0.3016 -0.5371
  138OSM   C11F15010   1.740   0.503   4.391 -0.7715 -0.0666 -0.2440
  138OSM   H11F15011   1.830   0.559   4.425  0.5103 -1.3554 -1.4279
  138OSM   H11G15012   1.793   0.442   4.315  0.0641 -0.4230  0.6062
  138OSM   C12F15013   1.684   0.426   4.509  0.3487  0.1688  0.3341
  138OSM   H12F15014   1.597   0.365   4.476 -0.0589  0.8794  0.0561
  138OSM   H12G15015   1.635   0.490   4.585 -0.4437 -2.8334  2.5081
  138OSM   C13F15016   1.787   0.327   4.570  0.2345 -0.1027  0.5080
  138OSM   H13F15017   1.869   0.387   4.615 -0.2125  2.1624 -1.5009
  138OSM   H13G15018   1.828   0.264   4.487 -0.3887  1.2294 -0.8466
  138OSM   C14F15019   1.748   0.236   4.688  0.0238 -0.0360  0.0321
  138OSM   H14F15020   1.819   0.152   4.676 -0.3574 -0.3338 -0.1373
  138OSM   H14G15021   1.647   0.192   4.679  0.5837 -1.1842 -0.8761
  138OSM   C15F15022   1.780   0.310   4.822  0.5926  0.1856 -0.1586
  138OSM   H15F15023   1.727   0.408   4.825  0.0162 -0.1365  0.2569
  138OSM   H15G15024   1.891   0.326   4.824  0.7607  0.1328 -3.5353
  138OSM   C16F15025   1.735   0.234   4.943  0.6934 -0.4835 -0.0708
  138OSM   H16F15026   1.624   0.232   4.936  0.6834  1.3211 -1.0544
  138OSM   H16G15027   1.765   0.289   5.035  0.2477  1.6899 -1.1390
  138OSM   C17F15028   1.780   0.087   4.955  0.4154  0.7256  0.1840
  138OSM   H17F15029   1.738   0.028   4.871 -1.1761 -0.3652  1.6505
  138OSM   H17G15030   1.743   0.052   5.054  1.7666 -1.9894 -0.1890
  138OSM   C18F15031   1.937   0.073   4.967 -0.1218  0.3366  0.3133
  138OSM   H18F15032   1.978   0.149   4.897 -1.6724  2.6114  1.7273
  138OSM   H18G15033   1.973  -0.030   4.949 -2.8436 -0.7191  0.4663
  138OSM   H18H15034   1.967   0.106   5.069 -0.9682  0.0751  0.6564
  139OSM      N15035   2.447   4.310   2.828  0.1813  0.4475 -0.3347
  139OSM    C1515036   2.322   4.351   2.753 -0.4185  0.2334  0.2250
  139OSM   H15A15037   2.336   4.439   2.693  0.0558 -0.8409 -1.2953
  139OSM   H15B15038   2.230   4.365   2.808 -1.6925  1.5505 -2.0833
  139OSM   H15C15039   2.303   4.270   2.684 -1.0365 -0.9930  1.7658
  139OSM    C1415040   2.433   4.173   2.887 -0.1340 -0.2689 -0.1351
  139OSM   H14A15041   2.520   4.158   2.949 -0.7729  0.9865  1.1023
  139OSM   H14B15042   2.431   4.102   2.805 -2.5270  0.3009 -0.6307
  139OSM   H14C15043   2.347   4.171   2.953  1.0859 -0.3181  1.5193
  139OSM    C1315044   2.558   4.303   2.733  0.3155  0.2899 -0.4279
  139OSM   H13A15045   2.650   4.266   2.776 -0.1276  0.1237  0.3897
  139OSM   H13B15046   2.581   4.404   2.700 -2.6204  1.0173 -0.4581
  139OSM   H13C15047   2.529   4.254   2.641 -0.9973 -0.9414  0.6106
  139OSM    C1215048   2.479   4.414   2.937 -0.4303 -0.0933 -0.5207
  139OSM   H12A15049   2.398   4.429   3.006  0.7975 -0.2356  1.0245
  139OSM   H12B15050   2.502   4.508   2.889  1.2026 -1.8353 -3.4375
  139OSM    C1115051   2.602   4.382   3.032  0.1637  0.2843 -0.3444
  139OSM   H11A15052   2.574   4.289   3.085  1.7601 -0.5251 -0.8790
  139OSM   H11B15053   2.601   4.463   3.108 -1.9110  0.3157 -0.3445
  139OSM      P15054   2.859   4.388   3.033 -0.1191 -0.0930  0.5011
  139OSM    O1315055   2.968   4.329   2.951 -0.0956 -0.5024 -0.1555
  139OSM    O1415056   2.856   4.534   3.046 -0.6017  0.3413 -0.2944
  139OSM    O1115057   2.861   4.307   3.167  0.3108 -0.1042 -0.0585
  139OSM    O1215058   2.724   4.350   2.962  0.1814  0.2182  0.7229
  139OSM    C1S15059   2.850   4.164   3.170 -0.2510  0.2223 -0.0016
  139OSM    H1S15060   2.942   4.116   3.132 -0.0319  0.6982 -0.0887
  139OSM    H1T15061   2.759   4.129   3.118  0.3293  0.3508 -1.1218
  139OSM     NF15062   2.832   3.973   3.342 -0.6680  0.0294 -0.2410
  139OSM    HNF15063   2.750   3.920   3.362 -0.2844 -1.3982 -2.2323
  139OSM    C2S15064   2.825   4.119   3.321 -0.7391 -0.7074 -0.5687
  139OSM    H2S15065   2.906   4.160   3.385 -1.1535 -0.9401  0.1221
  139OSM    C3S15066   2.705   4.185   3.385 -0.7635 -0.2533 -0.3740
  139OSM    H3S15067   2.615   4.151   3.330 -1.3824  2.9827 -1.5776
  139OSM     O315068   2.695   4.330   3.376 -0.2274  0.3755  0.8209
  139OSM    HO315069   2.774   4.363   3.333 -0.2748 -1.3214 -0.6733
  139OSM    C4S15070   2.688   4.140   3.531 -0.4594 -0.4143  0.1119
  139OSM    H4S15071   2.648   4.038   3.541  1.1485 -0.9122  2.1094
  139OSM    C5S15072   2.735   4.186   3.648 -0.2696 -0.1541 -0.3653
  139OSM    H5S15073   2.798   4.276   3.661  2.0207 -1.8374  0.9612
  139OSM    C6S15074   2.713   4.117   3.779  0.1716  0.2931  0.1264
  139OSM    H6S15075   2.805   4.113   3.842  0.3825 -0.2033 -0.2051
  139OSM    H6T15076   2.692   4.010   3.762  0.1629  0.1847  0.7932
  139OSM    C7S15077   2.602   4.177   3.864  0.6467 -0.2151 -0.4707
  139OSM    H7S15078   2.502   4.144   3.829  0.0011  0.6259  0.5011
  139OSM    H7T15079   2.608   4.288   3.873  1.5130 -0.2311 -0.7946
  139OSM    C8S15080   2.621   4.137   4.011 -0.1822 -0.9661 -0.1465
  139OSM    H8S15081   2.542   4.179   4.078  1.5747  0.0744  1.3817
  139OSM    H8T15082   2.720   4.162   4.054 -0.1595 -0.8995 -0.2378
  139OSM    C9S15083   2.617   3.984   4.033  0.2923  0.0285  0.6185
  139OSM    H9S15084   2.706   3.953   3.973 -1.5681  0.9378 -2.9082
  139OSM    H9T15085   2.533   3.942   3.973  1.3970  0.2762 -1.1918
  139OSM   C10S15086   2.621   3.924   4.171 -0.2961  0.4310  0.1059
  139OSM   H10S15087   2.536   3.966   4.228 -0.4336  1.6102 -0.9102
  139OSM   H10T15088   2.720   3.943   4.217 -1.1829  1.4994  1.6667
  139OSM   C11S15089   2.602   3.769   4.170  0.5732 -0.0744  0.8078
  139OSM   H11S15090   2.690   3.713   4.132 -1.7143 -2.3835 -1.5235
  139OSM   H11T15091   2.523   3.749   4.095 -0.5689  1.8287  1.4126
  139OSM   C12S15092   2.564   3.713   4.312  0.1552 -0.1532 -0.2078
  139OSM   H12S15093   2.486   3.781   4.353  0.2104 -0.0550 -0.2650
  139OSM   H12T15094   2.654   3.706   4.376  0.3815  0.5843 -0.4245
  139OSM   C13S15095   2.496   3.578   4.302 -0.3025 -0.3664  0.2340
  139OSM   H13S15096   2.576   3.502   4.289 -1.8871 -1.8376 -1.5273
  139OSM   H13T15097   2.426   3.584   4.216  0.6059 -4.6083 -1.0428
  139OSM   C14S15098   2.413   3.556   4.429 -0.5435  0.5520  0.0457
  139OSM   H14S15099   2.335   3.477   4.423 -1.1745  1.0980  0.8699
  139OSM   H14T15100   2.352   3.647   4.449  1.5051  2.2586 -1.0978
  139OSM   C15S15101   2.507   3.551   4.550  1.0310 -0.1073  0.6734
  139OSM   H15S15102   2.550   3.653   4.543  0.5890  0.1240  1.2374
  139OSM   H15T15103   2.582   3.470   4.535  3.0656  1.6247  0.9513
  139OSM   C16S15104   2.434   3.514   4.684  0.4656  0.0982  0.1685
  139OSM   H16S15105   2.381   3.417   4.674 -0.0241  0.1710  1.8036
  139OSM   H16T15106   2.362   3.595   4.708  1.2952 -0.2097  4.5275
  139OSM   C17S15107   2.529   3.500   4.792  0.2048  0.5391  0.1832
  139OSM   H17S15108   2.575   3.599   4.815 -0.8229  1.0146  0.2231
  139OSM   H17T15109   2.612   3.435   4.757  0.8364  1.3219  0.2089
  139OSM   C18S15110   2.459   3.442   4.916 -0.4748  0.0133  0.1435
  139OSM   H18S15111   2.387   3.524   4.935  1.0172  2.0166 -2.2518
  139OSM   H18T15112   2.525   3.421   5.003  0.5942  0.5237 -0.5158
  139OSM   H18U15113   2.402   3.349   4.894 -0.3040  0.0266 -0.3657
  139OSM    C1F15114   2.947   3.907   3.336  0.2774  0.6593  0.7527
  139OSM     OF15115   3.052   3.970   3.329  0.2038  0.5040  0.0293
  139OSM    C2F15116   2.941   3.763   3.327  0.2688  0.5973  0.5231
  139OSM    H2F15117   2.946   3.730   3.221  0.5086 -0.8226  0.9503
  139OSM    H2G15118   2.846   3.727   3.371  0.7731  0.0821  1.2137
  139OSM    C3F15119   3.050   3.676   3.407  0.4554 -0.2557 -0.5233
  139OSM    H3F15120   3.152   3.713   3.380  1.6152 -2.4205  0.6080
  139OSM    H3G15121   3.045   3.575   3.362  0.1629 -0.2103 -0.5939
  139OSM    C4F15122   3.036   3.659   3.561  0.0116 -0.1577 -0.6402
  139OSM    H4F15123   3.122   3.596   3.591 -0.5096 -0.3054  0.6152
  139OSM    H4G15124   2.948   3.593   3.580  0.6190 -0.7994 -0.0203
  139OSM    C5F15125   3.040   3.789   3.640  0.5240 -0.8561 -0.8717
  139OSM    H5F15126   2.936   3.829   3.645  1.7675  2.5576  3.6408
  139OSM    H5G15127   3.098   3.863   3.582  0.1985 -1.3466 -1.8615
  139OSM    C6F15128   3.097   3.760   3.784 -0.2101  0.4021 -0.0976
  139OSM    H6F15129   3.186   3.695   3.768 -0.6861 -0.5682  1.0447
  139OSM    H6G15130   3.022   3.704   3.844  1.7043 -2.7249 -0.3996
  139OSM    C7F15131   3.132   3.894   3.850 -0.8872 -0.9555 -0.5393
  139OSM    H7F15132   3.035   3.944   3.874 -0.4551 -0.0726 -0.5943
  139OSM    H7G15133   3.174   3.953   3.766 -1.3538  0.2657  0.0623
  139OSM    C8F15134   3.226   3.867   3.971  0.4801  0.0664 -0.6985
  139OSM    H8F15135   3.317   3.816   3.933  1.0468  0.1579  0.4855
  139OSM    H8G15136   3.175   3.796   4.039 -0.2359 -0.4821 -1.8064
  139OSM    C9F15137   3.253   4.003   4.038 -0.0612 -0.5445  0.0168
  139OSM    H9F15138   3.340   4.055   3.996 -1.2228  0.3926 -1.3062
  139OSM   C10F15139   3.189   4.059   4.142 -0.3663  0.1694  0.4894
  139OSM   H10F15140   3.229   4.152   4.185  0.9690 -0.8941  1.6082
  139OSM   C11F15141   3.081   4.000   4.224  0.0243  0.2125 -0.4464
  139OSM   H11F15142   3.031   3.912   4.179 -1.8952  1.9478 -1.8841
  139OSM   H11G15143   2.994   4.068   4.232 -1.1694 -0.8202 -3.3622
  139OSM   C12F15144   3.135   3.959   4.356 -0.0407  0.0694  0.2782
  139OSM   H12F15145   3.227   3.897   4.355  1.0334  1.5330  1.9525
  139OSM   H12G15146   3.051   3.896   4.392  1.2813 -1.0630  1.4951
  139OSM   C13F15147   3.167   4.070   4.453  0.1365  0.2572 -0.0523
  139OSM   H13F15148   3.086   4.145   4.437 -1.0463 -0.9675 -0.0233
  139OSM   H13G15149   3.266   4.106   4.418  0.0659 -0.8448 -1.4803
  139OSM   C14F15150   3.183   4.044   4.608 -0.3809 -0.2585 -0.0125
  139OSM   H14F15151   3.248   3.955   4.619  1.7040  1.2633  0.6052
  139OSM   H14G15152   3.086   4.012   4.653  0.5566  0.1347  2.4350
  139OSM   C15F15153   3.226   4.172   4.693 -1.1108  0.1827 -0.7320
  139OSM   H15F15154   3.166   4.260   4.664  0.0019  0.6739 -1.6387
  139OSM   H15G15155   3.332   4.189   4.664 -0.6874 -1.4194 -0.2158
  139OSM   C16F15156   3.227   4.144   4.847 -0.1727  0.0643 -0.3256
  139OSM   H16F15157   3.121   4.145   4.879  0.1685  0.6757  0.8461
  139OSM   H16G15158   3.271   4.231   4.900  2.1251 -2.0120  1.4178
  139OSM   C17F15159   3.300   4.012   4.889 -0.2580 -0.1462 -0.3978
  139OSM   H17F15160   3.394   3.996   4.832 -0.3164  0.5841 -0.7049
  139OSM   H17G15161   3.230   3.926   4.880 -1.9698  0.8417  2.2550
  139OSM   C18F15162   3.330   4.005   5.041  0.3985 -0.1082  0.0947
  139OSM   H18F15163   3.414   3.937   5.069 -0.4648 -1.4120 -0.3818
  139OSM   H18G15164   3.244   3.988   5.109  0.9901 -0.9014  0.6631
  139OSM   H18H15165   3.366   4.103   5.079 -1.2027  0.6015 -0.1602
  140OSM      N15166   1.645   1.262   2.563 -0.0086 -0.5775 -0.0949
  140OSM    C1515167   1.670   1.182   2.439 -0.2225 -0.7325  0.5152
  140OSM   H15A15168   1.767   1.204   2.397 -0.0256  0.3538  1.4847
  140OSM   H15B15169   1.596   1.209   2.365 -0.7382  1.9202  1.8776
  140OSM   H15C15170   1.668   1.075   2.456 -1.0190 -0.5515  1.7081
  140OSM    C1415171   1.643   1.406   2.532 -0.1844 -0.0725 -0.7552
  140OSM   H14A15172   1.623   1.453   2.627  2.7255 -1.3858  0.6522
  140OSM   H14B15173   1.571   1.435   2.456 -2.4889 -0.0948  1.3039
  140OSM   H14C15174   1.741   1.444   2.507 -0.9883  1.1574 -2.2161
  140OSM    C1315175   1.512   1.228   2.616 -0.5448  0.7568  0.3720
  140OSM   H13A15176   1.432   1.262   2.551 -1.7522 -1.0277  0.8526
  140OSM   H13B15177   1.510   1.276   2.713  0.1105  1.4155  0.0758
  140OSM   H13C15178   1.501   1.122   2.635 -1.1451  0.9957  1.4194
  140OSM    C1215179   1.753   1.231   2.661  0.3098  0.3967  0.1478
  140OSM   H12A15180   1.736   1.291   2.749 -0.8887 -0.0758  0.2484
  140OSM   H12B15181   1.850   1.262   2.625  0.7922  1.3034  2.0815
  140OSM    C1115182   1.761   1.082   2.698 -0.5203 -0.1623  0.6402
  140OSM   H11A15183   1.659   1.039   2.685 -1.2440  1.9511 -1.3639
  140OSM   H11B15184   1.776   1.073   2.807 -0.5804  1.7408  0.8244
  140OSM      P15185   1.997   1.021   2.659  0.0698  0.5775  0.0103
  140OSM    O1315186   2.075   0.931   2.577  0.1587  0.3783  0.4783
  140OSM    O1415187   2.036   1.163   2.659  0.1734  0.5291  0.0604
  140OSM    O1115188   2.003   0.959   2.808 -0.4379  0.0315 -0.0307
  140OSM    O1215189   1.848   1.002   2.618  0.8398 -0.1034 -0.4010
  140OSM    C1S15190   2.117   0.921   2.880  0.0989  0.3817  0.9702
  140OSM    H1S15191   2.211   0.951   2.828 -0.3265 -0.2390 -0.1830
  140OSM    H1T15192   2.119   0.810   2.892 -0.4273  0.2569  0.0045
  140OSM     NF15193   2.247   0.944   3.082  0.0008  0.0851  0.1612
  140OSM    HNF15194   2.227   0.860   3.131 -3.1731  0.3110 -0.5007
  140OSM    C2S15195   2.118   0.984   3.023 -0.6060  0.3575 -0.5305
  140OSM    H2S15196   2.115   1.095   3.021  1.9235  0.6150  2.2524
  140OSM    C3S15197   1.996   0.927   3.102  0.0284  0.0446 -0.3642
  140OSM    H3S15198   2.004   0.816   3.104  0.4499  0.0769 -0.0094
  140OSM     O315199   1.873   0.951   3.035  0.1419  0.4905 -0.0479
  140OSM    HO315200   1.898   0.974   2.945 -0.0024 -1.1952 -0.5580
  140OSM    C4S15201   1.995   0.964   3.251  0.2815  0.0922  0.5759
  140OSM    H4S15202   2.068   0.906   3.309  0.2439 -1.0423 -0.4692
  140OSM    C5S15203   1.921   1.055   3.316 -0.6470 -0.9423  0.3382
  140OSM    H5S15204   1.841   1.108   3.261  0.8621  1.7106  0.5175
  140OSM    C6S15205   1.926   1.083   3.464  0.3902 -0.1666 -0.4406
  140OSM    H6S15206   1.830   1.113   3.510  0.8922  0.4240  0.2543
  140OSM    H6T15207   1.987   1.175   3.473 -1.0538  0.6334  4.4123
  140OSM    C7S15208   1.996   0.986   3.557 -0.5424 -0.0048  0.7661
  140OSM    H7S15209   2.099   0.962   3.523 -2.1012 -2.2224 -3.1119
  140OSM    H7T15210   1.943   0.888   3.554 -0.5256  0.0068  0.1395
  140OSM    C8S15211   1.987   1.043   3.703 -0.1455 -0.4458 -0.3669
  140OSM    H8S15212   1.879   1.059   3.725 -0.0536 -0.5159  0.1637
  140OSM    H8T15213   2.047   1.136   3.709  0.5845 -0.8806 -0.7757
  140OSM    C9S15214   2.043   0.958   3.817  0.3971  0.2565  0.1496
  140OSM    H9S15215   2.150   0.933   3.798  0.5165  0.3502  0.6805
  140OSM    H9T15216   1.985   0.863   3.813 -0.8914  1.0052  0.5006
  140OSM   C10S15217   2.026   1.012   3.958 -0.2026 -0.8781  0.5118
  140OSM   H10S15218   1.917   1.036   3.962 -0.4311 -2.0510  2.1875
  140OSM   H10T15219   2.082   1.107   3.968 -1.3855 -0.3253  2.3885
  140OSM   C11S15220   2.064   0.907   4.065 -0.0643 -0.4147  0.0391
  140OSM   H11S15221   2.174   0.901   4.069 -0.1051 -0.5928  1.2197
  140OSM   H11T15222   2.021   0.806   4.047  1.2800 -1.4106  2.1233
  140OSM   C12S15223   2.028   0.951   4.201 -0.3056  0.1535  0.0680
  140OSM   H12S15224   2.061   1.057   4.210 -0.5513  0.1809  0.6601
  140OSM   H12T15225   2.083   0.883   4.268 -0.2896  1.4416  1.4096
  140OSM   C13S15226   1.880   0.955   4.239  0.2991  0.1748  0.2481
  140OSM   H13S15227   1.820   0.872   4.196  0.4938 -0.7022  1.6105
  140OSM   H13T15228   1.834   1.042   4.187  0.4279  0.3760  0.4667
  140OSM   C14S15229   1.858   0.970   4.394 -0.3460 -0.2554 -0.5177
  140OSM   H14S15230   1.926   0.897   4.444  1.1192 -0.2716 -2.4433
  140OSM   H14T15231   1.752   0.940   4.410 -1.2594  1.8109 -2.3013
  140OSM   C15S15232   1.884   1.108   4.462  0.7874 -0.1952  0.8135
  140OSM   H15S15233   1.794   1.163   4.429  0.2385 -0.5493  1.6720
  140OSM   H15T15234   1.968   1.157   4.409  0.5178  0.8674  1.3416
  140OSM   C16S15235   1.885   1.112   4.615 -0.0155  0.1399 -0.0916
  140OSM   H16S15236   1.953   1.032   4.652  1.4493  1.2907 -0.1653
  140OSM   H16T15237   1.787   1.087   4.659  0.6496 -0.6672  0.9768
  140OSM   C17S15238   1.928   1.245   4.671  0.3488 -0.8148 -0.5699
  140OSM   H17S15239   2.008   1.290   4.608  0.4403 -0.5557 -0.2734
  140OSM   H17T15240   1.967   1.238   4.775  1.0183  0.9301 -0.6655
  140OSM   C18S15241   1.814   1.344   4.689  0.4024  0.8155  0.0689
  140OSM   H18S15242   1.850   1.446   4.713  0.1948  0.6758  0.9933
  140OSM   H18T15243   1.748   1.311   4.772 -0.9873  2.5531 -0.2773
  140OSM   H18U15244   1.760   1.339   4.592 -0.5460 -0.1690  0.6225
  140OSM    C1F15245   2.362   0.993   3.060  0.2222 -0.3995  0.7859
  140OSM     OF15246   2.382   1.093   2.991  0.7011 -0.3676 -0.2424
  140OSM    C2F15247   2.477   0.916   3.117  0.2744 -0.1763 -0.4560
  140OSM    H2F15248   2.563   0.906   3.047 -0.1529 -4.6052 -0.6355
  140OSM    H2G15249   2.443   0.812   3.139 -2.4317  0.4386 -1.4412
  140OSM    C3F15250   2.539   0.985   3.245  0.0809 -0.7069 -0.0943
  140OSM    H3F15251   2.564   1.091   3.222 -0.9078 -0.3012  0.6289
  140OSM    H3G15252   2.630   0.926   3.270  0.5926  0.1012 -0.0051
  140OSM    C4F15253   2.445   0.999   3.362  0.4324 -0.4844  0.8966
  140OSM    H4F15254   2.409   0.895   3.379  0.5114 -0.6251  0.2070
  140OSM    H4G15255   2.358   1.058   3.327  0.5340 -0.6758  0.3195
  140OSM    C5F15256   2.524   1.044   3.482  0.7177 -0.1106  0.1267
  140OSM    H5F15257   2.468   1.117   3.544  1.3487  0.7987 -0.3605
  140OSM    H5G15258   2.616   1.091   3.442 -0.2081 -0.0989 -2.1409
  140OSM    C6F15259   2.562   0.922   3.573 -0.9929 -0.6046  0.7664
  140OSM    H6F15260   2.654   0.963   3.620 -0.1805  1.8841 -2.6180
  140OSM    H6G15261   2.592   0.834   3.513 -1.4923  1.2130 -2.3451
  140OSM    C7F15262   2.456   0.901   3.676 -0.3675  0.2543  0.3736
  140OSM    H7F15263   2.360   0.894   3.620 -0.4692 -1.2717  0.6904
  140OSM    H7G15264   2.445   0.995   3.733  0.8971  2.5682 -2.8960
  140OSM    C8F15265   2.486   0.775   3.761 -0.5182  0.0300 -0.1666
  140OSM    H8F15266   2.593   0.776   3.793  0.6537 -3.5768 -3.1958
  140OSM    H8G15267   2.477   0.692   3.687  0.2052 -0.3796  0.1869
  140OSM    C9F15268   2.398   0.740   3.873  0.1398  0.3582  0.8105
  140OSM    H9F15269   2.292   0.730   3.848  0.0030  3.9011 -0.5543
  140OSM   C10F15270   2.439   0.720   3.996  0.4941 -0.7908 -0.2906
  140OSM   H10F15271   2.356   0.706   4.067 -0.1450 -0.7687 -1.0272
  140OSM   C11F15272   2.580   0.750   4.050  0.4294 -0.5408 -0.3080
  140OSM   H11F15273   2.596   0.859   4.039 -0.9680 -0.2825  0.0169
  140OSM   H11G15274   2.650   0.703   3.977 -1.2849 -1.0823 -1.6954
  140OSM   C12F15275   2.605   0.700   4.194  0.1335  0.1698 -0.4595
  140OSM   H12F15276   2.714   0.718   4.207 -0.2646  1.5554  1.4076
  140OSM   H12G15277   2.592   0.590   4.202 -2.5761  0.5639  3.3340
  140OSM   C13F15278   2.532   0.780   4.310 -0.1508 -0.8502  0.3071
  140OSM   H13F15279   2.422   0.769   4.306 -0.2872 -0.2326  1.7436
  140OSM   H13G15280   2.558   0.887   4.294 -0.9450 -0.9030 -1.5979
  140OSM   C14F15281   2.581   0.748   4.449  1.0002 -0.4622 -0.5798
  140OSM   H14F15282   2.562   0.641   4.473 -0.8857 -0.3686 -1.4646
  140OSM   H14G15283   2.516   0.809   4.516 -0.1207 -0.6065 -1.5067
  140OSM   C15F15284   2.729   0.782   4.469 -0.4826 -0.1052  0.4833
  140OSM   H15F15285   2.764   0.883   4.440  0.3532 -0.6891 -0.6302
  140OSM   H15G15286   2.789   0.712   4.407 -2.3618 -1.5783  0.2453
  140OSM   C16F15287   2.762   0.746   4.616 -0.0905 -0.6004  0.0770
  140OSM   H16F15288   2.870   0.726   4.633 -0.1659 -0.6179  0.5499
  140OSM   H16G15289   2.708   0.652   4.643  1.3746 -1.8411 -1.1450
  140OSM   C17F15290   2.742   0.866   4.714  0.3051 -0.5382 -0.1178
  140OSM   H17F15291   2.719   0.840   4.820 -2.7305  1.5857 -0.1351
  140OSM   H17G15292   2.656   0.926   4.678  0.7311  0.2147  0.1082
  140OSM   C18F15293   2.868   0.958   4.721 -0.2225  0.0619 -0.1717
  140OSM   H18F15294   2.907   0.990   4.622  0.3577  1.4428  0.4768
  140OSM   H18G15295   2.942   0.894   4.774  1.0990  1.0302 -0.8022
  140OSM   H18H15296   2.843   1.045   4.785 -1.4090 -1.2709  1.2492
  141OSM      N15297   3.550   5.470   2.361 -0.2851 -0.1957  0.0771
  141OSM    C1515298   3.583   5.604   2.291 -0.0269  0.1348 -0.8652
  141OSM   H15A15299   3.492   5.661   2.295 -1.2263 -1.5325  4.4921
  141OSM   H15B15300   3.643   5.589   2.202  0.6688 -1.8942 -0.1207
  141OSM   H15C15301   3.653   5.654   2.356 -0.7511 -1.8170  1.6048
  141OSM    C1415302   3.456   5.392   2.268 -0.2384 -0.0197  0.1152
  141OSM   H14A15303   3.364   5.448   2.255 -1.1064 -1.2105  0.8531
  141OSM   H14B15304   3.428   5.301   2.319 -1.6695  0.4088  0.1330
  141OSM   H14C15305   3.509   5.365   2.178  1.6969  0.7801  0.9501
  141OSM    C1315306   3.675   5.381   2.385  0.7036  0.2690 -0.3103
  141OSM   H13A15307   3.740   5.425   2.460 -0.1308 -1.1728  1.3474
  141OSM   H13B15308   3.738   5.377   2.298  1.2272  0.1382  0.0735
  141OSM   H13C15309   3.644   5.280   2.408  0.5104 -0.2591 -2.6172
  141OSM    C1215310   3.474   5.499   2.490 -0.4007  0.7857  0.1509
  141OSM   H12A15311   3.437   5.409   2.536 -0.4766  0.8370  0.1898
  141OSM   H12B15312   3.386   5.557   2.470  0.2969  1.7867 -0.1243
  141OSM    C1115313   3.555   5.581   2.593 -0.3574 -0.8049 -0.7163
  141OSM   H11A15314   3.481   5.616   2.668 -0.3151  0.2596 -1.1572
  141OSM   H11B15315   3.596   5.671   2.542 -1.4651 -0.2802 -0.7128
  141OSM      P15316   3.612   5.382   2.754 -0.5730  0.0004 -0.3006
  141OSM    O1315317   3.484   5.414   2.822  0.4599  0.2861  0.2281
  141OSM    O1415318   3.623   5.260   2.674  0.3875  0.0440  0.1120
  141OSM    O1115319   3.719   5.382   2.872 -0.1644  0.2005  0.2002
  141OSM    O1215320   3.653   5.500   2.658  0.0830  0.2106 -0.2799
  141OSM    C1S15321   3.741   5.502   2.962 -0.2468  0.1187  0.0805
  141OSM    H1S15322   3.652   5.565   2.944 -1.8776 -2.3905 -1.2360
  141OSM    H1T15323   3.841   5.543   2.935  1.2259 -3.6697 -0.8954
  141OSM     NF15324   3.765   5.558   3.210  0.2387 -0.3234  0.7289
  141OSM    HNF15325   3.839   5.554   3.277 -0.4269 -0.5591  1.4759
  141OSM    C2S15326   3.757   5.451   3.111 -0.0727  0.7190 -0.2249
  141OSM    H2S15327   3.666   5.393   3.138 -0.2250  1.0501 -0.0235
  141OSM    C3S15328   3.875   5.349   3.120 -0.9287  0.3131  0.9097
  141OSM    H3S15329   3.967   5.411   3.127  0.3588 -1.4749  0.5740
  141OSM     O315330   3.895   5.280   2.999  0.2566  0.0671  0.6467
  141OSM    HO315331   3.823   5.319   2.949  0.5253 -0.2270  0.0168
  141OSM    C4S15332   3.874   5.261   3.239 -0.6694 -0.8187 -0.3084
  141OSM    H4S15333   3.930   5.317   3.315  2.5196 -0.7893 -2.4983
  141OSM    C5S15334   3.795   5.156   3.266  0.0856  0.1020 -0.1052
  141OSM    H5S15335   3.719   5.140   3.188  1.7202  1.3473 -2.0742
  141OSM    C6S15336   3.783   5.090   3.401  0.0287 -0.0544  0.0802
  141OSM    H6S15337   3.832   4.991   3.403  0.1931  0.0207  2.1097
  141OSM    H6T15338   3.673   5.073   3.412 -0.0406  0.2305 -0.1462
  141OSM    C7S15339   3.836   5.160   3.530 -0.2176 -0.6253  0.9652
  141OSM    H7S15340   3.817   5.269   3.529 -0.6703 -0.7038  0.6277
  141OSM    H7T15341   3.946   5.149   3.516 -0.6350 -2.4212 -1.5836
  141OSM    C8S15342   3.792   5.100   3.660 -0.0033  0.2132 -0.2204
  141OSM    H8S15343   3.792   4.989   3.664 -0.5165  0.1896 -0.8135
  141OSM    H8T15344   3.686   5.134   3.670 -0.7891 -1.8133 -1.1665
  141OSM    C9S15345   3.875   5.163   3.773  0.1043  0.1359  0.0252
  141OSM    H9S15346   3.877   5.274   3.768  0.2431  0.1767  0.7610
  141OSM    H9T15347   3.974   5.113   3.772 -0.2576 -0.6965 -3.0934
  141OSM   C10S15348   3.824   5.133   3.915 -0.2169 -0.0259  0.8315
  141OSM   H10S15349   3.833   5.023   3.928 -0.8599 -0.3482 -1.1735
  141OSM   H10T15350   3.718   5.165   3.921 -0.5240 -0.7913 -0.2806
  141OSM   C11S15351   3.900   5.201   4.030 -0.8932 -0.2463  0.5062
  141OSM   H11S15352   3.886   5.311   4.021  0.8206 -0.0753 -0.5415
  141OSM   H11T15353   4.008   5.189   4.005 -0.4936  1.1253  1.4198
  141OSM   C12S15354   3.857   5.147   4.165 -0.2043 -0.3956 -0.0244
  141OSM   H12S15355   3.901   5.047   4.186 -0.2151 -0.1226  1.3465
  141OSM   H12T15356   3.747   5.142   4.178 -0.2750 -0.4891 -0.6117
  141OSM   C13S15357   3.907   5.244   4.270 -0.8582  0.2644  0.5658
  141OSM   H13S15358   3.863   5.346   4.263  0.9380  0.9723 -2.0564
  141OSM   H13T15359   4.014   5.259   4.244 -1.4776  2.0267 -1.2407
  141OSM   C14S15360   3.901   5.183   4.406 -0.2838 -0.8668  0.2308
  141OSM   H14S15361   3.958   5.088   4.417  0.0192 -0.7832 -0.5545
  141OSM   H14T15362   3.795   5.157   4.422 -0.7999  0.0031 -1.5332
  141OSM   C15S15363   3.946   5.283   4.518 -0.2977  0.0161  0.0999
  141OSM   H15S15364   3.890   5.378   4.501  0.5178  0.4222 -0.3898
  141OSM   H15T15365   4.054   5.297   4.499  0.0179 -1.4218  0.7092
  141OSM   C16S15366   3.933   5.235   4.658  0.5213  0.1506  0.2187
  141OSM   H16S15367   4.013   5.159   4.672  0.9462 -0.3821 -4.0124
  141OSM   H16T15368   3.833   5.188   4.670 -1.1941  2.3834 -3.5482
  141OSM   C17S15369   3.979   5.337   4.754  0.5326  0.1401  0.4371
  141OSM   H17S15370   3.921   5.431   4.752 -0.8359 -0.6999 -0.6634
  141OSM   H17T15371   4.086   5.349   4.725 -0.0430 -0.4327 -2.1714
  141OSM   C18S15372   3.963   5.288   4.898 -0.2956  0.5799  0.5565
  141OSM   H18S15373   3.991   5.365   4.972  1.1575  0.5347  0.0900
  141OSM   H18T15374   4.023   5.194   4.905  0.2221  0.7591 -1.0575
  141OSM   H18U15375   3.861   5.257   4.928 -0.7401  0.4374 -0.9987
  141OSM    C1F15376   3.662   5.645   3.228 -0.1916  0.1712 -0.2758
  141OSM     OF15377   3.558   5.618   3.167 -0.5685 -0.8055  0.2456
  141OSM    C2F15378   3.681   5.760   3.316  0.0588 -0.4622 -0.1723
  141OSM    H2F15379   3.681   5.848   3.250  1.4741 -1.6379 -1.8256
  141OSM    H2G15380   3.786   5.757   3.354  1.0275  1.7458 -2.4371
  141OSM    C3F15381   3.592   5.778   3.446  0.6814  0.6980 -0.0448
  141OSM    H3F15382   3.576   5.680   3.494  0.0397  0.2620 -1.0929
  141OSM    H3G15383   3.493   5.809   3.406  1.3611  0.9202 -1.6220
  141OSM    C4F15384   3.641   5.878   3.548 -0.7182  0.8760  0.0381
  141OSM    H4F15385   3.610   5.974   3.502  0.6802  0.3174 -2.2111
  141OSM    H4G15386   3.752   5.882   3.551 -0.7554  1.9967  0.6175
  141OSM    C5F15387   3.573   5.858   3.677 -0.4460 -0.5303 -0.3374
  141OSM    H5F15388   3.583   5.756   3.719  0.5424 -1.0233 -1.6998
  141OSM    H5G15389   3.466   5.884   3.667 -0.3185 -0.1415 -0.7278
  141OSM    C6F15390   3.629   5.949   3.789  0.1263  0.5947 -0.8235
  141OSM    H6F15391   3.614   6.055   3.757 -1.0292  0.7047  0.0355
  141OSM    H6G15392   3.738   5.932   3.799 -0.1128 -0.9764 -0.5914
  141OSM    C7F15393   3.577   5.920   3.933  0.5220  0.0347  0.5993
  141OSM    H7F15394   3.630   5.829   3.969  1.4463 -0.8192 -2.5631
  141OSM    H7G15395   3.467   5.910   3.932  0.3088  0.9626 -3.3305
  141OSM    C8F15396   3.626   6.028   4.031 -0.7012  0.3459  0.3701
  141OSM    H8F15397   3.735   6.010   4.028 -1.0054 -1.8096  0.2223
  141OSM    H8G15398   3.594   5.996   4.133  0.2334  1.0205  0.8841
  141OSM    C9F15399   3.589   6.168   3.997  0.9996 -0.5696  0.3960
  141OSM    H9F15400   3.592   6.204   3.893 -1.0412 -0.7176  0.2522
  141OSM   C10F15401   3.540   6.259   4.082  0.0479 -0.6060  0.0990
  141OSM   H10F15402   3.499   6.349   4.032  0.1060 -0.0474  1.0299
  141OSM   C11F15403   3.520   6.235   4.230  0.1162 -0.2457  1.2742
  141OSM   H11F15404   3.535   6.129   4.261 -0.3640 -1.3157 -1.8158
  141OSM   H11G15405   3.414   6.269   4.239 -0.6119 -0.6572 -3.2124
  141OSM   C12F15406   3.599   6.332   4.308  0.4768 -0.3980 -0.0046
  141OSM   H12F15407   3.571   6.436   4.279 -1.5031 -1.1232 -0.7823
  141OSM   H12G15408   3.708   6.318   4.288  0.5602  1.5660 -1.2272
  141OSM   C13F15409   3.575   6.313   4.454 -0.2842  0.9071  0.0024
  141OSM   H13F15410   3.595   6.214   4.501 -2.6837  0.5159  0.3031
  141OSM   H13G15411   3.468   6.338   4.469 -1.1061 -1.9393 -0.3870
  141OSM   C14F15412   3.661   6.402   4.546 -0.2918 -0.0629  0.5996
  141OSM   H14F15413   3.767   6.391   4.512 -0.5810  2.6670 -1.5326
  141OSM   H14G15414   3.650   6.374   4.653  3.6943 -1.5953  0.8170
  141OSM   C15F15415   3.624   6.549   4.534 -0.7797  0.4197 -0.9227
  141OSM   H15F15416   3.516   6.567   4.550 -0.5459  1.1797 -0.1668
  141OSM   H15G15417   3.655   6.573   4.430  1.8101  1.1060 -0.0598
  141OSM   C16F15418   3.715   6.640   4.627  0.7432  0.5007  0.2702
  141OSM   H16F15419   3.821   6.614   4.608  0.9784  2.6405 -1.8390
  141OSM   H16G15420   3.689   6.627   4.734 -1.6129  0.6367 -0.2293
  141OSM   C17F15421   3.699   6.784   4.586  0.0072 -0.4284 -0.1630
  141OSM   H17F15422   3.591   6.808   4.598 -0.3623 -1.7033 -0.8418
  141OSM   H17G15423   3.714   6.783   4.476 -0.5640 -2.8053 -0.2666
  141OSM   C18F15424   3.791   6.891   4.649 -0.3097  0.3664  1.0434
  141OSM   H18F15425   3.894   6.865   4.617 -0.9890 -0.1579 -0.8466
  141OSM   H18G15426   3.783   6.888   4.760  3.1930  0.6938  1.4210
  141OSM   H18H15427   3.767   6.998   4.634 -0.9164 -0.0358 -1.1737
  142OSM      N15428   4.781   0.999   2.473  0.5174 -0.0104  0.3309
  142OSM    C1515429   4.920   1.013   2.515  0.3327  0.2899  0.2401
  142OSM   H15A15430   4.973   0.921   2.496 -0.5746 -0.0824 -0.5262
  142OSM   H15B15431   4.932   1.040   2.619 -2.2912  1.7783  0.2349
  142OSM   H15C15432   4.969   1.090   2.457 -2.1343  0.1856 -2.1401
  142OSM    C1415433   4.733   1.137   2.470  0.4166  0.3690  0.6163
  142OSM   H14A15434   4.625   1.140   2.469  0.4200  1.2976 -1.4268
  142OSM   H14B15435   4.765   1.197   2.386 -0.9328 -0.2613 -0.3905
  142OSM   H14C15436   4.763   1.183   2.563 -1.5161 -1.3563  2.2268
  142OSM    C1315437   4.770   0.947   2.335 -0.1769  0.9850 -0.3648
  142OSM   H13A15438   4.671   0.912   2.308  0.1398 -1.6252  1.4089
  142OSM   H13B15439   4.823   0.853   2.325 -4.1486 -1.5725 -0.0109
  142OSM   H13C15440   4.818   1.011   2.263  0.2928 -0.3271 -1.2477
  142OSM    C1215441   4.691   0.909   2.556  0.0024  0.5404 -0.2355
  142OSM   H12A15442   4.706   0.804   2.537 -1.1455  0.4175 -0.5597
  142OSM   H12B15443   4.590   0.929   2.522  0.3155  2.3622 -0.2204
  142OSM    C1115444   4.685   0.920   2.713 -0.1435 -0.0096 -0.3158
  142OSM   H11A15445   4.789   0.904   2.750 -0.4777 -0.6275  0.3738
  142OSM   H11B15446   4.634   0.837   2.766 -0.2982  0.2496 -0.0569
  142OSM      P15447   4.484   1.079   2.789 -0.1039 -0.0771  0.6170
  142OSM    O1315448   4.483   1.215   2.850  0.3499 -0.5463  0.1060
  142OSM    O1415449   4.398   1.052   2.674 -0.0281  0.3963  0.0471
  142OSM    O1115450   4.451   0.984   2.911 -0.4468 -0.0718  1.0657
  142OSM    O1215451   4.638   1.050   2.746  0.4674  0.2207  0.1279
  142OSM    C1S15452   4.550   0.962   3.017  0.3043  1.1794  0.5329
  142OSM    H1S15453   4.653   0.983   2.979  0.8009  1.4830  1.9620
  142OSM    H1T15454   4.542   0.855   3.045  1.0127  1.4581  1.9307
  142OSM     NF15455   4.652   1.046   3.222  0.8050 -0.1879  0.8256
  142OSM    HNF15456   4.638   0.999   3.308  2.3287 -0.4290  0.9561
  142OSM    C2S15457   4.532   1.054   3.134 -0.3051  0.2868 -0.5713
  142OSM    H2S15458   4.520   1.161   3.108  1.6710  0.8526  0.7090
  142OSM    C3S15459   4.399   1.017   3.204 -0.4258 -0.7103 -0.2271
  142OSM    H3S15460   4.409   0.912   3.239  0.4663 -0.1526  1.2954
  142OSM     O315461   4.290   1.026   3.110  0.9476 -0.4363 -0.1730
  142OSM    HO315462   4.329   0.981   3.035  1.8360 -0.0778  0.0646
  142OSM    C4S15463   4.358   1.110   3.315  0.2795 -0.1848 -0.1506
  142OSM    H4S15464   4.324   1.212   3.295  0.7469  0.1640  0.7933
  142OSM    C5S15465   4.353   1.075   3.440  0.7353  0.8555  0.3763
  142OSM    H5S15466   4.377   0.974   3.478 -2.0154  0.1604  0.4747
  142OSM    C6S15467   4.328   1.164   3.564 -0.3964  0.6901  0.4920
  142OSM    H6S15468   4.428   1.207   3.587 -0.7221  1.4879  0.4637
  142OSM    H6T15469   4.300   1.108   3.655 -0.7017  0.5919  0.3396
  142OSM    C7S15470   4.235   1.289   3.544  0.2841 -0.3358  0.7520
  142OSM    H7S15471   4.136   1.256   3.508  0.2465 -0.1846  0.7167
  142OSM    H7T15472   4.284   1.345   3.461 -2.1106  0.4352 -0.2189
  142OSM    C8S15473   4.210   1.385   3.659 -0.0542  0.4378 -0.4272
  142OSM    H8S15474   4.135   1.454   3.614  1.0342  0.2348 -2.7071
  142OSM    H8T15475   4.297   1.453   3.668  0.2223 -0.0751  1.1092
  142OSM    C9S15476   4.195   1.323   3.790  0.6259  0.4045 -0.2755
  142OSM    H9S15477   4.295   1.298   3.833 -0.2660 -1.6429  0.7736
  142OSM    H9T15478   4.134   1.230   3.787  0.5723  0.3248  1.9489
  142OSM   C10S15479   4.126   1.419   3.892  0.0418 -0.0174 -0.4905
  142OSM   H10S15480   4.025   1.449   3.857  0.6845  0.8067 -1.6859
  142OSM   H10T15481   4.185   1.512   3.880 -1.0139  0.3290 -4.2410
  142OSM   C11S15482   4.144   1.358   4.032 -0.3602  0.1776 -0.3197
  142OSM   H11S15483   4.251   1.345   4.061 -0.6786 -1.8593  0.0631
  142OSM   H11T15484   4.108   1.253   4.036  0.5575 -0.3577 -3.4482
  142OSM   C12S15485   4.063   1.431   4.140  0.0001  0.0185 -0.3144
  142OSM   H12S15486   3.956   1.412   4.116 -0.2431 -1.1071  1.4942
  142OSM   H12T15487   4.087   1.539   4.133  2.4090 -0.5560 -4.4810
  142OSM   C13S15488   4.070   1.386   4.287 -0.2882  1.4616 -0.7225
  142OSM   H13S15489   4.177   1.397   4.312  0.0314 -1.8661 -0.1492
  142OSM   H13T15490   4.052   1.277   4.294  0.3596  1.3233 -1.2169
  142OSM   C14S15491   3.986   1.473   4.386 -0.5160  0.4827  0.3871
  142OSM   H14S15492   3.886   1.495   4.341  0.5666  2.1394 -1.3729
  142OSM   H14T15493   4.040   1.569   4.374 -2.2434  1.4203 -0.3993
  142OSM   C15S15494   3.973   1.445   4.537  0.2650 -0.1040 -0.8278
  142OSM   H15S15495   4.070   1.407   4.577 -0.0050  0.6460  0.6254
  142OSM   H15T15496   3.915   1.351   4.549  0.8039 -0.5401 -1.5654
  142OSM   C16S15497   3.902   1.560   4.606 -0.3947  0.0004  0.2920
  142OSM   H16S15498   3.810   1.571   4.545  1.7005 -2.7898 -3.8087
  142OSM   H16T15499   3.970   1.647   4.593 -1.8146  0.7702 -2.7753
  142OSM   C17S15500   3.866   1.520   4.749  0.0214  0.4607 -0.2211
  142OSM   H17S15501   3.793   1.440   4.728 -0.7554  1.5802 -1.9922
  142OSM   H17T15502   3.821   1.612   4.791  0.4772  0.3929  0.4333
  142OSM   C18S15503   3.980   1.480   4.842  0.1130 -0.2599 -0.0918
  142OSM   H18S15504   3.986   1.553   4.926 -0.4836  2.7429 -2.4895
  142OSM   H18T15505   4.082   1.502   4.805  0.3784 -0.4427  0.5243
  142OSM   H18U15506   3.968   1.373   4.870 -1.4411  0.2995  1.6046
  142OSM    C1F15507   4.763   1.111   3.196 -0.0220  0.6160 -0.0923
  142OSM     OF15508   4.774   1.180   3.102 -0.0552 -0.0281 -0.3346
  142OSM    C2F15509   4.868   1.093   3.300 -0.6768  0.4133  0.0887
  142OSM    H2F15510   4.884   0.984   3.319  2.7902  1.0747  1.7009
  142OSM    H2G15511   4.825   1.153   3.382  1.9107  0.7025  1.3234
  142OSM    C3F15512   5.000   1.155   3.254 -0.1881 -0.3859  0.1428
  142OSM    H3F15513   4.991   1.255   3.206 -1.5832 -1.3761 -1.7444
  142OSM    H3G15514   5.016   1.086   3.168  1.2265 -0.8848  0.7731
  142OSM    C4F15515   5.120   1.135   3.352 -0.1476  0.0497 -0.3479
  142OSM    H4F15516   5.210   1.182   3.306 -0.1639 -0.2015 -0.6399
  142OSM    H4G15517   5.135   1.025   3.361  0.5572  0.2265  0.8817
  142OSM    C5F15518   5.083   1.187   3.494 -0.3828  0.2964  0.0810
  142OSM    H5F15519   4.983   1.150   3.525 -1.5353  1.7545 -1.7220
  142OSM    H5G15520   5.067   1.297   3.495 -1.1037  0.1995 -0.4941
  142OSM    C6F15521   5.202   1.155   3.586 -0.1436  0.1756  0.1470
  142OSM    H6F15522   5.281   1.233   3.582  0.7513 -0.5686  1.9801
  142OSM    H6G15523   5.243   1.057   3.556 -2.2763 -0.9123  0.6009
  142OSM    C7F15524   5.154   1.141   3.739 -0.3580 -0.7448 -0.2485
  142OSM    H7F15525   5.238   1.090   3.790 -0.4096 -1.7738 -1.1562
  142OSM    H7G15526   5.068   1.070   3.744 -0.5781 -0.5616 -1.1534
  142OSM    C8F15527   5.116   1.273   3.804  0.0895  0.4247  0.0154
  142OSM    H8F15528   5.084   1.339   3.720  0.5392  1.0315  0.3111
  142OSM    H8G15529   5.214   1.308   3.841 -1.0063 -0.5528  4.3490
  142OSM    C9F15530   5.014   1.269   3.916 -0.0672 -0.4060 -0.0585
  142OSM    H9F15531   4.917   1.320   3.907  0.3133  0.5388  1.0621
  142OSM   C10F15532   5.033   1.220   4.037  0.3930  0.6926  0.1663
  142OSM   H10F15533   4.949   1.222   4.108 -0.9707  1.1897 -1.3913
  142OSM   C11F15534   5.161   1.158   4.087 -0.5026  0.1053  0.3738
  142OSM   H11F15535   5.255   1.180   4.033 -0.1388 -1.7961  0.1624
  142OSM   H11G15536   5.146   1.047   4.083  0.7903 -0.0794  0.3855
  142OSM   C12F15537   5.189   1.194   4.235 -0.3627  0.5165  0.0445
  142OSM   H12F15538   5.295   1.166   4.250 -0.1552  1.8340  1.2462
  142OSM   H12G15539   5.113   1.146   4.300  0.3982 -1.1888 -0.2895
  142OSM   C13F15540   5.187   1.341   4.257  0.5966 -0.5504 -0.2631
  142OSM   H13F15541   5.086   1.385   4.241  0.5027  0.0079  1.6624
  142OSM   H13G15542   5.264   1.399   4.199 -1.4048  1.6215 -0.9082
  142OSM   C14F15543   5.213   1.365   4.411 -0.1791  0.9343 -0.0139
  142OSM   H14F15544   5.295   1.292   4.432 -0.1362 -0.0089 -2.9956
  142OSM   H14G15545   5.120   1.353   4.471 -0.7784 -1.4619 -1.2831
  142OSM   C15F15546   5.278   1.494   4.449  0.3268  0.0469  0.7627
  142OSM   H15F15547   5.188   1.560   4.456 -1.2616 -1.8745 -0.4043
  142OSM   H15G15548   5.345   1.526   4.366 -1.3295 -0.7854 -0.9828
  142OSM   C16F15549   5.360   1.478   4.576 -0.1937 -0.0612  0.5279
  142OSM   H16F15550   5.448   1.415   4.549 -1.0773 -0.6225 -1.1811
  142OSM   H16G15551   5.296   1.420   4.646  0.2147 -2.6550 -1.1153
  142OSM   C17F15552   5.414   1.608   4.619  0.0579  0.9384  0.3443
  142OSM   H17F15553   5.478   1.648   4.538 -0.2645  0.5062 -0.1339
  142OSM   H17G15554   5.489   1.596   4.700 -0.2710  1.7710  0.7863
  142OSM   C18F15555   5.301   1.696   4.660  0.6596 -0.3766 -0.4391
  142OSM   H18F15556   5.343   1.778   4.723 -0.3878 -0.4380  0.3625
  142OSM   H18G15557   5.219   1.647   4.717  0.9812  1.4598  1.7673
  142OSM   H18H15558   5.259   1.744   4.569 -2.3812 -0.7554  0.6515
  143OSM      N15559   3.267   0.560   2.691  0.0992  0.1131 -0.2805
  143OSM    C1515560   3.322   0.667   2.783 -0.7399 -0.2409  0.2851
  143OSM   H15A15561   3.415   0.705   2.744 -1.9371  1.0058 -1.5089
  143OSM   H15B15562   3.343   0.631   2.882 -1.7622  1.8187  1.3127
  143OSM   H15C15563   3.250   0.745   2.803  1.2890  1.9670 -0.5194
  143OSM    C1415564   3.159   0.479   2.767 -0.6192  0.2127 -0.2012
  143OSM   H14A15565   3.124   0.401   2.700  1.4784 -1.0093  0.0299
  143OSM   H14B15566   3.084   0.547   2.803 -0.8523 -0.4442  0.5720
  143OSM   H14C15567   3.197   0.433   2.857 -0.9273 -2.3764 -1.2947
  143OSM    C1315568   3.202   0.623   2.568 -0.2367 -0.4589 -0.0048
  143OSM   H13A15569   3.125   0.695   2.593 -1.0594 -1.5115  0.5824
  143OSM   H13B15570   3.167   0.538   2.512  1.4098 -0.3305 -1.3054
  143OSM   H13C15571   3.275   0.671   2.505  0.0580 -0.1566  0.5548
  143OSM    C1215572   3.378   0.462   2.649  1.2864  0.3114  0.1807
  143OSM   H12A15573   3.413   0.404   2.733  1.7564  0.0451 -0.1964
  143OSM   H12B15574   3.458   0.525   2.615  3.2518 -1.9063  0.4650
  143OSM    C1115575   3.339   0.357   2.539  0.7951  0.3917 -0.1708
  143OSM   H11A15576   3.430   0.302   2.507  1.6950 -0.2557  3.1401
  143OSM   H11B15577   3.307   0.407   2.445  0.5094  2.3457  0.9042
  143OSM      P15578   3.253   0.113   2.590  0.4057 -0.3806 -0.4104
  143OSM    O1315579   3.116   0.051   2.614  0.1850 -0.0710 -0.0722
  143OSM    O1415580   3.328   0.069   2.470 -0.2417  0.6513 -0.2439
  143OSM    O1115581   3.343   0.093   2.708  0.0139 -0.0529  0.7225
  143OSM    O1215582   3.235   0.266   2.581  0.0895 -0.1146  0.4146
  143OSM    C1S15583   3.315   0.144   2.839 -0.5736  0.1764 -0.4979
  143OSM    H1S15584   3.211   0.184   2.838 -0.1393  1.3747  0.2168
  143OSM    H1T15585   3.377   0.235   2.854 -0.0499  0.1302 -2.2083
  143OSM     NF15586   3.285   0.086   3.085 -0.0648 -0.8638  0.3217
  143OSM    HNF15587   3.358   0.119   3.144  1.1320 -2.0275 -0.4356
  143OSM    C2S15588   3.342   0.039   2.957  0.3431  0.5744 -0.7279
  143OSM    H2S15589   3.273  -0.047   2.943 -3.6380  3.2724  0.4083
  143OSM    C3S15590   3.486  -0.015   2.959 -0.0343  0.5783  0.1401
  143OSM    H3S15591   3.561   0.063   2.986  2.2438 -1.1532 -0.8434
  143OSM     O315592   3.533  -0.045   2.826  0.0588 -0.0537 -0.4338
  143OSM    HO315593   3.480   0.004   2.763 -0.5601 -0.0167  0.0946
  143OSM    C4S15594   3.495  -0.144   3.037  0.3564  0.3663 -0.4157
  143OSM    H4S15595   3.476  -0.240   2.987  2.8034 -0.0482 -0.7092
  143OSM    C5S15596   3.561  -0.140   3.156 -0.5418  0.6413 -0.4442
  143OSM    H5S15597   3.604  -0.043   3.184 -0.6239  0.6598 -0.3830
  143OSM    C6S15598   3.606  -0.257   3.237  0.3010 -0.3783  0.3664
  143OSM    H6S15599   3.702  -0.234   3.288  0.2359  0.0997  0.2793
  143OSM    H6T15600   3.632  -0.342   3.171  1.9748 -0.4237  1.0241
  143OSM    C7S15601   3.496  -0.306   3.327  0.5248 -0.1555  0.0940
  143OSM    H7S15602   3.533  -0.397   3.379 -0.1351  0.6351  2.0179
  143OSM    H7T15603   3.408  -0.324   3.262 -1.1025  1.6983  1.6761
  143OSM    C8S15604   3.457  -0.203   3.434 -0.4799  0.4949  0.5549
  143OSM    H8S15605   3.433  -0.106   3.386  0.2614 -0.1806 -1.2862
  143OSM    H8T15606   3.549  -0.182   3.492 -0.8494  2.0936  0.5903
  143OSM    C9S15607   3.342  -0.258   3.516  0.7211  0.2201  0.5725
  143OSM    H9S15608   3.371  -0.353   3.567 -0.5842 -1.1723 -1.1537
  143OSM    H9T15609   3.263  -0.292   3.446  1.2490  0.0012  0.0737
  143OSM   C10S15610   3.279  -0.164   3.622 -0.2178 -0.2214 -0.3215
  143OSM   H10S15611   3.199  -0.216   3.679  1.9638 -2.0798  1.2286
  143OSM   H10T15612   3.232  -0.082   3.564  2.6218  0.4345 -1.9044
  143OSM   C11S15613   3.386  -0.103   3.718  0.0293 -0.0178 -0.2993
  143OSM   H11S15614   3.458  -0.046   3.656  1.3390  0.6296  1.6919
  143OSM   H11T15615   3.437  -0.192   3.763  1.2772  0.4581 -0.7380
  143OSM   C12S15616   3.305  -0.020   3.815 -0.0853  0.5806 -0.4809
  143OSM   H12S15617   3.231  -0.075   3.878  0.8747  2.1558  2.1649
  143OSM   H12T15618   3.247   0.049   3.750  1.8022  2.6875 -0.0549
  143OSM   C13S15619   3.383   0.069   3.909 -0.4432 -0.0582  0.6123
  143OSM   H13S15620   3.334   0.168   3.918  0.1882  0.6787 -2.7324
  143OSM   H13T15621   3.485   0.090   3.871 -1.1231  1.6339 -0.3894
  143OSM   C14S15622   3.386   0.007   4.047 -0.1116 -0.5350  0.0673
  143OSM   H14S15623   3.465  -0.069   4.068  0.5024  0.7744  3.0302
  143OSM   H14T15624   3.291  -0.041   4.079 -1.0283  2.4608  2.2621
  143OSM   C15S15625   3.411   0.116   4.156 -0.2031  0.4580 -0.3749
  143OSM   H15S15626   3.335   0.197   4.144  1.1804  1.7377 -0.9251
  143OSM   H15T15627   3.506   0.167   4.129  0.0646 -0.5412 -1.3972
  143OSM   C16S15628   3.414   0.055   4.300  0.2193 -0.3881 -0.4129
  143OSM   H16S15629   3.515   0.010   4.310  0.0826 -0.4760  0.6418
  143OSM   H16T15630   3.331  -0.017   4.316 -2.3299  2.5857  0.8794
  143OSM   C17S15631   3.408   0.166   4.410  0.0327  0.4511  0.1854
  143OSM   H17S15632   3.417   0.118   4.510 -1.9056  0.7120  0.5413
  143OSM   H17T15633   3.310   0.217   4.399 -0.9029 -1.3040 -0.0429
  143OSM   C18S15634   3.529   0.265   4.401  0.3361  0.6145 -0.0239
  143OSM   H18S15635   3.531   0.331   4.490 -1.0722 -2.3260  2.3689
  143OSM   H18T15636   3.528   0.318   4.303  0.4470  1.1666  0.2717
  143OSM   H18U15637   3.618   0.198   4.405 -0.5517 -0.5668  0.5444
  143OSM    C1F15638   3.154   0.098   3.108  0.2234  0.5364  0.1719
  143OSM     OF15639   3.074   0.064   3.022  0.4204  0.4770  0.0993
  143OSM    C2F15640   3.114   0.160   3.232  0.0126 -0.1968 -0.4423
  143OSM    H2F15641   3.046   0.247   3.224  0.5383  0.3834  1.0752
  143OSM    H2G15642   3.205   0.200   3.281 -0.8682  2.5206 -0.8827
  143OSM    C3F15643   3.052   0.041   3.307 -0.5168 -0.2737 -0.1205
  143OSM    H3F15644   3.119  -0.046   3.327 -0.7005  0.0754  2.4179
  143OSM    H3G15645   2.968   0.001   3.247  0.0271 -1.2502 -0.2510
  143OSM    C4F15646   3.008   0.077   3.450  0.3156 -0.0813 -0.5126
  143OSM    H4F15647   2.956   0.174   3.438  1.9173  0.9215  0.3126
  143OSM    H4G15648   3.091   0.091   3.522 -1.4565  1.2018  1.3737
  143OSM    C5F15649   2.920  -0.030   3.508 -0.3747  0.3571 -0.2492
  143OSM    H5F15650   2.984  -0.113   3.544  1.9529  2.6337  1.1211
  143OSM    H5G15651   2.851  -0.068   3.429 -1.0796  0.4686  0.3051
  143OSM    C6F15652   2.826   0.025   3.625 -0.2789  0.2484 -0.4402
  143OSM    H6F15653   2.736  -0.033   3.655  0.7658 -0.5329  1.3213
  143OSM    H6G15654   2.798   0.131   3.604  2.5570  0.6754 -2.7422
  143OSM    C7F15655   2.914   0.022   3.755  0.8169 -0.0326  0.0564
  143OSM    H7F15656   3.010   0.076   3.739 -0.2486  2.0236  0.2345
  143OSM    H7G15657   2.932  -0.085   3.779 -1.1276 -0.4577 -0.1807
  143OSM    C8F15658   2.853   0.085   3.884 -0.1450  0.3113 -0.4273
  143OSM    H8F15659   2.765   0.021   3.909 -1.0987  1.4208 -0.8405
  143OSM    H8G15660   2.803   0.184   3.873 -0.5383 -0.0367 -1.8953
  143OSM    C9F15661   2.958   0.106   3.991  0.2644 -0.3451  0.3204
  143OSM    H9F15662   3.047   0.158   3.955  0.1415 -0.6598 -0.4413
  143OSM   C10F15663   2.946   0.081   4.125  0.4395  0.8083  0.1373
  143OSM   H10F15664   3.019   0.110   4.202 -0.7289  2.9417  0.5192
  143OSM   C11F15665   2.835  -0.002   4.186  0.2573  0.0749  0.3534
  143OSM   H11F15666   2.870  -0.078   4.259  1.5689  1.8833  1.6940
  143OSM   H11G15667   2.770  -0.055   4.113 -0.4330  0.8755  0.3763
  143OSM   C12F15668   2.732   0.083   4.277  0.1007 -0.1357 -0.8489
  143OSM   H12F15669   2.647   0.018   4.304 -1.9940  3.3559  1.8523
  143OSM   H12G15670   2.700   0.163   4.206  1.0591  0.9604 -0.0822
  143OSM   C13F15671   2.793   0.149   4.403  0.0560 -1.1388  0.0615
  143OSM   H13F15672   2.878   0.215   4.374 -0.6008 -0.2534  0.1318
  143OSM   H13G15673   2.826   0.067   4.471  0.3738 -2.2752 -1.4108
  143OSM   C14F15674   2.690   0.253   4.474 -0.2682 -0.0843 -0.3209
  143OSM   H14F15675   2.654   0.322   4.395 -1.2869  0.6745  0.7790
  143OSM   H14G15676   2.745   0.314   4.549 -0.4775 -1.9834  1.4855
  143OSM   C15F15677   2.581   0.182   4.554 -0.8086  0.2389  0.8345
  143OSM   H15F15678   2.620   0.130   4.644  0.6680 -0.5038 -0.2063
  143OSM   H15G15679   2.539   0.101   4.491 -2.7391  1.9174 -0.1732
  143OSM   C16F15680   2.478   0.277   4.609 -0.3011 -0.8242  0.6916
  143OSM   H16F15681   2.405   0.294   4.526 -1.0583 -0.8722  1.3392
  143OSM   H16G15682   2.519   0.379   4.629 -0.6623 -0.1451 -1.6950
  143OSM   C17F15683   2.398   0.236   4.734  0.0267 -0.3693  0.3462
  143OSM   H17F15684   2.329   0.313   4.772 -1.2928 -0.2668 -2.0751
  143OSM   H17G15685   2.469   0.219   4.818 -2.2748  0.3827  2.5426
  143OSM   C18F15686   2.314   0.113   4.709 -0.5519  0.8159 -0.0913
  143OSM   H18F15687   2.383   0.030   4.683 -1.0285  0.8739 -1.6441
  143OSM   H18G15688   2.240   0.125   4.626  0.2439 -0.8438 -1.0930
  143OSM   H18H15689   2.261   0.103   4.806 -0.5520  1.3641 -0.0326
  144OSM      N15690   3.787   0.195   2.536 -0.2097  0.0590 -0.0206
  144OSM    C1515691   3.895   0.091   2.506 -0.5606  0.3415  0.2502
  144OSM   H15A15692   3.943   0.048   2.593  0.7205 -0.2230 -0.7077
  144OSM   H15B15693   3.967   0.125   2.433  0.2485  0.2650  0.9989
  144OSM   H15C15694   3.845   0.005   2.463 -2.3872  0.6535  1.6048
  144OSM    C1415695   3.731   0.243   2.408  0.0955  0.3589  0.6068
  144OSM   H14A15696   3.686   0.165   2.348 -0.1861  0.1673  1.0551
  144OSM   H14B15697   3.810   0.287   2.350  0.4915 -1.2123 -0.1129
  144OSM   H14C15698   3.651   0.314   2.426 -0.8407 -0.8159  1.2580
  144OSM    C1315699   3.672   0.130   2.607  0.3436  0.1139  0.1041
  144OSM   H13A15700   3.701   0.067   2.690 -0.1805 -0.3075 -0.0322
  144OSM   H13B15701   3.611   0.077   2.536 -0.6779  0.6467  0.5551
  144OSM   H13C15702   3.612   0.206   2.656 -1.5509 -0.3547 -1.3665
  144OSM    C1215703   3.839   0.316   2.610 -0.4463 -0.0366  0.3043
  144OSM   H12A15704   3.919   0.359   2.552 -0.6530 -0.6030 -0.4124
  144OSM   H12B15705   3.892   0.286   2.699 -1.0299  2.5372  1.6261
  144OSM    C1115706   3.739   0.425   2.657  0.8329 -0.4174  0.2776
  144OSM   H11A15707   3.682   0.478   2.578  1.8766  2.2728  1.1989
  144OSM   H11B15708   3.793   0.515   2.692 -0.5748  0.6531 -0.2077
  144OSM      P15709   3.686   0.362   2.911  0.0234  0.0606  0.3692
  144OSM    O1315710   3.555   0.364   2.980  0.3456  0.4877 -0.3557
  144OSM    O1415711   3.775   0.250   2.929 -0.0209 -0.0462 -0.7967
  144OSM    O1115712   3.751   0.507   2.943  0.1525  0.0059  0.9928
  144OSM    O1215713   3.649   0.372   2.756  0.2408 -0.2946  0.4331
  144OSM    C1S15714   3.660   0.618   2.928 -0.1598 -0.0088  0.1474
  144OSM    H1S15715   3.556   0.596   2.899  0.4420 -0.8825 -1.4945
  144OSM    H1T15716   3.699   0.685   2.848  0.6813 -1.7055 -0.9137
  144OSM     NF15717   3.563   0.811   3.068  0.1758  0.1783  0.2203
  144OSM    HNF15718   3.597   0.905   3.063 -0.6998  0.4878 -0.1771
  144OSM    C2S15719   3.659   0.700   3.065  0.6219 -0.4619  0.3856
  144OSM    H2S15720   3.636   0.621   3.140 -1.0685 -0.5386 -0.1807
  144OSM    C3S15721   3.803   0.745   3.092 -0.0948  0.0133 -0.0627
  144OSM    H3S15722   3.838   0.816   3.014  1.3614  0.3924  0.8947
  144OSM     O315723   3.915   0.661   3.076  0.4334  0.0058 -0.1728
  144OSM    HO315724   3.875   0.583   3.037  0.3347  1.5102 -3.4520
  144OSM    C4S15725   3.806   0.810   3.227  0.1114 -0.3947  0.1479
  144OSM    H4S15726   3.732   0.777   3.301 -0.2504  2.1303  1.0197
  144OSM    C5S15727   3.867   0.926   3.255 -0.0685 -0.0912  0.8628
  144OSM    H5S15728   3.924   0.972   3.173  0.8610 -1.7657  0.5218
  144OSM    C6S15729   3.851   1.016   3.372  0.4919 -0.0479 -0.1711
  144OSM    H6S15730   3.827   1.121   3.345 -0.1561 -0.0002  0.5350
  144OSM    H6T15731   3.947   1.021   3.427 -0.9476 -0.7696  2.6010
  144OSM    C7S15732   3.741   0.978   3.476  0.5195 -0.1724 -0.3758
  144OSM    H7S15733   3.746   0.870   3.503  2.7353 -0.7251 -2.5817
  144OSM    H7T15734   3.641   0.994   3.430  0.7363  1.4685 -0.3233
  144OSM    C8S15735   3.741   1.077   3.600 -0.2844  0.7008  0.2125
  144OSM    H8S15736   3.644   1.068   3.653 -2.7796  1.0332 -3.8335
  144OSM    H8T15737   3.741   1.184   3.568 -0.3501  0.5611 -0.2553
  144OSM    C9S15738   3.859   1.045   3.691  0.3170  0.9922  0.0483
  144OSM    H9S15739   3.949   1.052   3.626 -0.0787 -2.8949 -1.1978
  144OSM    H9T15740   3.846   0.938   3.718 -3.4627  1.3294  0.0328
  144OSM   C10S15741   3.856   1.137   3.818  0.5943 -0.4020 -0.0068
  144OSM   H10S15742   3.860   1.246   3.796  0.6133 -0.2624  0.6635
  144OSM   H10T15743   3.952   1.121   3.873  1.7422  0.8495 -1.5652
  144OSM   C11S15744   3.749   1.115   3.927  0.0575  0.1199 -0.1813
  144OSM   H11S15745   3.760   1.019   3.983 -0.2130  1.3622  2.1213
  144OSM   H11T15746   3.644   1.128   3.892 -0.0874  0.6331  0.4257
  144OSM   C12S15747   3.760   1.221   4.044  0.6890  0.2312 -0.2959
  144OSM   H12S15748   3.779   1.322   4.002 -0.7027  0.6957  0.1068
  144OSM   H12T15749   3.842   1.185   4.109  0.8223 -1.1758 -1.2095
  144OSM   C13S15750   3.632   1.232   4.132  0.2607 -0.0149  0.0285
  144OSM   H13S15751   3.603   1.129   4.160  1.1146 -1.0276 -2.5243
  144OSM   H13T15752   3.541   1.272   4.083 -0.8911 -0.9480  1.3215
  144OSM   C14S15753   3.651   1.336   4.243 -0.0842 -0.7347 -0.1667
  144OSM   H14S15754   3.647   1.432   4.187 -2.2686 -1.3729 -1.2144
  144OSM   H14T15755   3.754   1.326   4.284  0.6531  1.1339 -1.4024
  144OSM   C15S15756   3.534   1.337   4.338 -0.7719  0.4663 -0.2025
  144OSM   H15S15757   3.530   1.232   4.376  2.2915  0.4787  0.4266
  144OSM   H15T15758   3.445   1.352   4.273  0.6287 -0.8556 -2.5719
  144OSM   C16S15759   3.555   1.447   4.445  0.6620  0.6491  0.5426
  144OSM   H16S15760   3.537   1.545   4.396  1.2260  0.7221  0.4712
  144OSM   H16T15761   3.662   1.444   4.476  1.3054  2.0950 -1.3399
  144OSM   C17S15762   3.456   1.437   4.563  1.0069  0.1462  0.1211
  144OSM   H17S15763   3.493   1.512   4.636 -1.0047  0.6548  0.6548
  144OSM   H17T15764   3.457   1.335   4.608 -1.1142  0.1252  0.2207
  144OSM   C18S15765   3.306   1.466   4.529  0.3278  0.1730 -0.1064
  144OSM   H18S15766   3.293   1.563   4.476 -1.6299  0.5485  0.9848
  144OSM   H18T15767   3.256   1.467   4.628  0.3969  1.3617 -0.0646
  144OSM   H18U15768   3.261   1.391   4.461 -0.1429  1.8898 -1.7888
  144OSM    C1F15769   3.439   0.788   3.088 -0.1749 -0.4381  0.1067
  144OSM     OF15770   3.406   0.668   3.091  0.3859 -0.7902  0.3248
  144OSM    C2F15771   3.349   0.910   3.097  0.1467  0.1864  0.3890
  144OSM    H2F15772   3.291   0.902   3.003  1.3741  1.8326 -0.5733
  144OSM    H2G15773   3.408   1.004   3.086  1.8988 -0.7794  1.0914
  144OSM    C3F15774   3.264   0.922   3.228 -0.5619  0.3093 -0.8601
  144OSM    H3F15775   3.236   0.819   3.259 -2.6276  0.9548 -0.4308
  144OSM    H3G15776   3.173   0.985   3.220 -1.3603 -0.6816  0.1225
  144OSM    C4F15777   3.340   0.982   3.354  0.1103  0.4125 -0.4497
  144OSM    H4F15778   3.377   1.081   3.320 -0.8635  1.4960  1.4917
  144OSM    H4G15779   3.428   0.924   3.389  0.0023  1.2357  1.3336
  144OSM    C5F15780   3.240   1.006   3.475 -0.2040 -0.1046  0.0339
  144OSM    H5F15781   3.186   0.920   3.520  1.1266  0.1338  2.2625
  144OSM    H5G15782   3.164   1.075   3.434 -1.5906 -1.5375  0.0841
  144OSM    C6F15783   3.316   1.089   3.585  0.0409  0.4616  0.3805
  144OSM    H6F15784   3.387   1.156   3.531 -1.3385  1.5427 -0.1550
  144OSM    H6G15785   3.380   1.007   3.625  0.9655 -0.3580 -2.5253
  144OSM    C7F15786   3.221   1.173   3.671 -0.1303  0.4826 -0.0006
  144OSM    H7F15787   3.128   1.119   3.700  0.4807 -1.8102 -1.9425
  144OSM    H7G15788   3.195   1.270   3.623  1.5711  1.0583  0.1733
  144OSM    C8F15789   3.307   1.201   3.795 -0.1741  0.0212 -0.6547
  144OSM    H8F15790   3.404   1.251   3.772  0.8878 -0.2837  2.6332
  144OSM    H8G15791   3.329   1.104   3.846  1.7625 -0.1025 -1.6092
  144OSM    C9F15792   3.226   1.277   3.896 -0.6948  0.3118  0.4090
  144OSM    H9F15793   3.193   1.215   3.981 -0.2736 -0.1936  0.2097
  144OSM   C10F15794   3.213   1.407   3.905 -0.2842 -0.3800  0.4599
  144OSM   H10F15795   3.134   1.442   3.973  1.0931 -0.9810  2.4699
  144OSM   C11F15796   3.265   1.507   3.802 -0.1479  0.2162 -0.4459
  144OSM   H11F15797   3.298   1.464   3.705  0.4466  0.7495 -0.4817
  144OSM   H11G15798   3.357   1.550   3.847  0.7258 -0.2801 -1.6866
  144OSM   C12F15799   3.170   1.620   3.777 -0.0120  0.1434 -0.1950
  144OSM   H12F15800   3.129   1.657   3.873  1.4255  1.8757 -0.1914
  144OSM   H12G15801   3.093   1.609   3.697 -0.9605 -0.1897  0.7458
  144OSM   C13F15802   3.251   1.742   3.732 -0.1876 -0.1196  0.3780
  144OSM   H13F15803   3.332   1.768   3.803  0.3144  2.2168 -0.9419
  144OSM   H13G15804   3.180   1.828   3.738  0.4538  0.3251  2.4184
  144OSM   C14F15805   3.300   1.736   3.581  0.1603  0.4234  0.6153
  144OSM   H14F15806   3.213   1.709   3.517  0.1931  1.0561  0.2950
  144OSM   H14G15807   3.383   1.664   3.564 -1.1453 -0.7292 -1.3849
  144OSM   C15F15808   3.346   1.865   3.527 -0.8576  0.0939 -0.1639
  144OSM   H15F15809   3.437   1.900   3.579  1.3559  0.4086 -3.9241
  144OSM   H15G15810   3.266   1.941   3.544 -1.5508 -0.4953 -0.7081
  144OSM   C16F15811   3.360   1.860   3.369  0.1845 -0.4546 -0.5824
  144OSM   H16F15812   3.259   1.876   3.327  0.8483 -0.2209 -2.1764
  144OSM   H16G15813   3.400   1.759   3.341  1.0420 -0.4225  0.4712
  144OSM   C17F15814   3.452   1.963   3.308  0.3286  0.1755 -0.0735
  144OSM   H17F15815   3.542   1.979   3.372 -0.3031  1.8850  0.4322
  144OSM   H17G15816   3.395   2.058   3.306  0.2158  0.2153  2.1788
  144OSM   C18F15817   3.506   1.932   3.161  0.2585 -0.0172  0.3470
  144OSM   H18F15818   3.590   1.999   3.133  0.6762  0.1384  1.8684
  144OSM   H18G15819   3.425   1.959   3.091 -0.0200  1.0476  1.0487
  144OSM   H18H15820   3.541   1.827   3.150 -3.5414 -1.4474  0.5290
  145SAPE     N15821   0.845   2.599   7.413  0.3000  0.0757  0.0264
  145SAPE   HN115822   0.781   2.668   7.457 -0.0705 -1.0095  1.2249
  145SAPE   HN215823   0.906   2.560   7.487  0.5898 -1.5370 -1.0185
  145SAPE   HN315824   0.903   2.643   7.338 -0.8626  1.1700 -0.2676
  145SAPE   C1215825   0.743   2.505   7.354  1.0830 -0.3264 -0.8813
  145SAPE  H12A15826   0.665   2.570   7.309  1.1136 -0.2455 -0.8189
  145SAPE  H12B15827   0.695   2.449   7.437  1.2565  1.7655  0.7147
  145SAPE   C1115828   0.801   2.408   7.260 -0.2351 -0.0481 -0.1325
  145SAPE  H11A15829   0.845   2.462   7.173 -1.1073 -0.9620 -1.1709
  145SAPE  H11B15830   0.721   2.343   7.219  0.1339 -0.2714 -0.4997
  145SAPE     P15831   0.919   2.180   7.261  0.1539  0.2893  0.3538
  145SAPE   O1315832   1.048   2.129   7.308  0.1942  0.4398 -0.0620
  145SAPE   O1415833   0.806   2.096   7.305  0.0492  0.2517  0.2156
  145SAPE   O1215834   0.901   2.331   7.326 -0.1798  0.1147  0.4042
  145SAPE   O1115835   0.914   2.203   7.103  0.6173  0.2035 -0.3124
  145SAPE    C115836   0.901   2.098   7.016 -0.6130 -0.4593 -0.1585
  145SAPE    HA15837   0.983   2.025   7.033 -1.1829 -0.8632  0.9704
  145SAPE    HB15838   0.799   2.057   7.031 -0.1708 -0.6643  2.9731
  145SAPE    C215839   0.893   2.140   6.866  0.1712 -0.1045 -0.6382
  145SAPE    HS15840   0.845   2.056   6.811 -0.8418 -0.3732  0.6090
  145SAPE   O2115841   1.018   2.175   6.793 -0.6298  0.3177 -0.6836
  145SAPE   C2115842   1.075   2.061   6.759 -0.3749 -0.7386  0.3055
  145SAPE   O2215843   1.040   1.948   6.790  0.2496 -0.3160  0.0547
  145SAPE   C2215844   1.197   2.087   6.675  0.3059 -0.2922  0.0954
  145SAPE   H2R15845   1.224   2.194   6.681  1.7500 -0.5384 -1.4092
  145SAPE   H2S15846   1.282   2.028   6.716  1.0551  2.6083  3.2147
  145SAPE    C315847   0.790   2.259   6.849 -0.1823 -0.6532  0.0143
  145SAPE    HX15848   0.826   2.348   6.905 -1.4894 -0.4941  0.6354
  145SAPE    HY15849   0.694   2.226   6.892  0.0362 -1.4362 -0.0847
  145SAPE   O3115850   0.789   2.284   6.707 -0.3894 -0.0204  0.0723
  145SAPE   C3115851   0.685   2.356   6.656  0.3156 -0.3143 -0.4837
  145SAPE   O3215852   0.602   2.417   6.727  0.1783  0.3949 -0.5928
  145SAPE   C3215853   0.685   2.381   6.508  0.0164 -0.6197  0.4526
  145SAPE   H2X15854   0.789   2.416   6.492  0.6111 -2.3117  0.3514
  145SAPE   H2Y15855   0.607   2.459   6.495 -1.1262 -1.3212  2.5811
  145SAPE   C2315856   1.179   2.054   6.520  0.0613 -0.0538 -0.4043
  145SAPE   H3R15857   1.160   1.946   6.504  1.3472 -0.6410  1.7064
  145SAPE   H3S15858   1.275   2.073   6.466  0.8220  0.2250  0.9952
  145SAPE   C2415859   1.072   2.148   6.454 -0.5462  0.5031 -0.3531
  145SAPE   H4R15860   1.131   2.237   6.421  1.4024  0.6772  3.1395
  145SAPE   H4S15861   0.995   2.183   6.525 -1.8883 -0.5481 -1.2547
  145SAPE   C2515862   1.003   2.077   6.347 -0.4721  0.0197  0.9558
  145SAPE   H5R15863   0.941   1.993   6.382  2.2664 -2.2363  0.7524
  145SAPE   C2615864   1.017   2.085   6.213  0.5254  0.5778 -0.4343
  145SAPE   H6R15865   0.952   2.020   6.152  1.0108  0.6253 -1.0106
  145SAPE   C2715866   1.109   2.181   6.135  0.0555 -0.2239  0.1841
  145SAPE   H7R15867   1.117   2.283   6.177  1.0308  0.1925 -0.9696
  145SAPE   H7S15868   1.076   2.198   6.030  0.6654  0.5766  0.1115
  145SAPE   C2815869   1.257   2.133   6.146 -0.0047 -0.8842 -0.0500
  145SAPE   H8R15870   1.292   2.092   6.242  2.6732 -0.7825 -0.9153
  145SAPE   C2915871   1.342   2.132   6.041  0.2380  0.0333  0.3998
  145SAPE   H9R15872   1.442   2.089   6.060  0.6452  0.3827 -0.8714
  145SAPE  C21015873   1.317   2.180   5.900  0.4880 -0.2384 -0.4678
  145SAPE  H10R15874   1.417   2.222   5.876  0.6625  0.2364  0.9799
  145SAPE  H10S15875   1.244   2.263   5.914  2.3428  1.0097  3.2573
  145SAPE  C21115876   1.251   2.073   5.810  0.8852 -0.4068  0.9507
  145SAPE  H11R15877   1.179   2.005   5.860 -1.9898  0.3126 -1.8567
  145SAPE  C21215878   1.256   2.075   5.680 -0.8602 -0.6354  0.2145
  145SAPE  H12R15879   1.203   1.992   5.630 -0.7590 -0.7818  0.3497
  145SAPE  C21315880   1.347   2.164   5.599 -0.9940  0.0739 -0.5063
  145SAPE  H13R15881   1.393   2.119   5.509  1.3874  3.9298 -1.4418
  145SAPE  H13S15882   1.429   2.202   5.663 -0.5033 -0.2785 -0.9270
  145SAPE  C21415883   1.283   2.287   5.540  0.0903  0.3933 -0.5334
  145SAPE  H14R15884   1.218   2.339   5.612  0.4920  0.8885 -0.5182
  145SAPE  C21515885   1.275   2.331   5.415 -0.2939  0.2403  0.4058
  145SAPE  H15R15886   1.218   2.424   5.401 -2.6842 -1.3323 -1.0353
  145SAPE  C21615887   1.330   2.281   5.287 -0.2107  0.0855 -0.0862
  145SAPE  H16R15888   1.253   2.280   5.206  0.5141  2.8790 -0.9110
  145SAPE  H16S15889   1.349   2.174   5.311  3.4594  0.8078  0.8450
  145SAPE  C21715890   1.454   2.347   5.221  1.5063  0.3056 -0.0143
  145SAPE  H17R15891   1.449   2.451   5.259  1.2025  0.1240  0.4570
  145SAPE  H17S15892   1.443   2.361   5.111 -0.2496 -0.3166  0.0456
  145SAPE  C21815893   1.581   2.278   5.251 -0.6301  0.3197 -0.6286
  145SAPE  H18R15894   1.582   2.186   5.189  0.3218  0.1051 -0.3140
  145SAPE  H18S15895   1.594   2.241   5.355  0.6300 -1.7017 -1.4459
  145SAPE  C21915896   1.700   2.371   5.228  0.6119 -0.8610 -0.2141
  145SAPE  H19R15897   1.679   2.453   5.299 -0.6014 -0.7940 -0.6374
  145SAPE  H19S15898   1.704   2.410   5.124 -0.8697 -1.8621 -0.6772
  145SAPE  C22015899   1.843   2.320   5.267  0.0033 -0.1653  0.3580
  145SAPE  H20R15900   1.888   2.270   5.178 -2.1515 -0.5353 -0.6001
  145SAPE  H20S15901   1.826   2.247   5.349 -1.4272  0.9965  1.1512
  145SAPE  H20T15902   1.917   2.399   5.295 -1.1290  1.6161 -1.3642
  145SAPE   C3315903   0.662   2.251   6.420  0.8148 -0.5810  0.0126
  145SAPE   H3X15904   0.570   2.196   6.450 -0.0364 -0.0813 -1.5670
  145SAPE   H3Y15905   0.752   2.189   6.439  0.1166 -0.9943  2.3255
  145SAPE   C3415906   0.659   2.283   6.266 -0.4015  0.0334  0.6457
  145SAPE   H4X15907   0.645   2.189   6.208 -0.3585 -0.0977  0.8479
  145SAPE   H4Y15908   0.760   2.322   6.244  0.0094 -0.3665  1.7617
  145SAPE   C3515909   0.552   2.390   6.231  0.5268  0.9022  0.8913
  145SAPE   H5X15910   0.578   2.496   6.247  1.5622  0.9997 -1.1656
  145SAPE   H5Y15911   0.463   2.372   6.295  0.5317  1.9069  1.1865
  145SAPE   C3615912   0.520   2.376   6.074 -0.1504  0.2941 -0.5089
  145SAPE   H6X15913   0.493   2.272   6.048  1.3670 -0.9698  2.4478
  145SAPE   H6Y15914   0.608   2.418   6.019  0.3502 -0.4324 -0.2709
  145SAPE   C3715915   0.396   2.457   6.038 -0.0888  0.3106  0.3402
  145SAPE   H7X15916   0.392   2.554   6.092  0.8741  0.8944 -0.6018
  145SAPE   H7Y15917   0.310   2.393   6.069  0.9489 -1.4509 -0.2876
  145SAPE   C3815918   0.403   2.499   5.891  0.3829  0.0610  0.0146
  145SAPE   H8X15919   0.509   2.524   5.869  0.3955 -0.7587 -0.9472
  145SAPE   H8Y15920   0.349   2.596   5.886  0.3594 -0.0033 -1.7244
  145SAPE   C3915921   0.359   2.397   5.788 -0.5725  0.2486  0.0660
  145SAPE   H9X15922   0.261   2.354   5.820  0.9674 -3.3330  0.5125
  145SAPE   H9Y15923   0.421   2.306   5.806 -0.0578  0.4280 -0.7272
  145SAPE  C31015924   0.347   2.445   5.645 -0.4624  0.1346  0.2747
  145SAPE  H10X15925   0.447   2.430   5.598  1.0459 -0.1064  3.3148
  145SAPE  H10Y15926   0.335   2.555   5.631  0.1181  0.0860 -0.7086
  145SAPE  C31115927   0.243   2.365   5.564  0.1102  0.4275 -0.3695
  145SAPE  H11X15928   0.151   2.378   5.624 -0.2655 -0.1893 -0.7947
  145SAPE  H11Y15929   0.264   2.255   5.566 -2.8384 -0.3061 -2.8655
  145SAPE  C31215930   0.203   2.403   5.418  0.0153  0.3217  0.4807
  145SAPE  H12X15931   0.154   2.502   5.410  1.0443  0.7949 -0.2266
  145SAPE  H12Y15932   0.129   2.333   5.372  0.2249  2.0292 -2.6901
  145SAPE  C31315933   0.332   2.424   5.335  0.0971  0.0557 -0.6859
  145SAPE  H13X15934   0.393   2.334   5.359  0.0786  0.2005 -0.0856
  145SAPE  H13Y15935   0.373   2.515   5.383 -1.2593 -0.8973  2.5694
  145SAPE  C31415936   0.314   2.432   5.183  0.5823 -0.2174 -0.0559
  145SAPE  H14X15937   0.405   2.480   5.143  0.7041 -0.0825  0.3770
  145SAPE  H14Y15938   0.229   2.494   5.148 -0.4852 -1.5603  0.0735
  145SAPE  C31515939   0.291   2.287   5.133 -0.4855 -0.4312 -0.5363
  145SAPE  H15X15940   0.233   2.213   5.192 -2.0246  2.4143  1.7750
  145SAPE  H15Y15941   0.393   2.245   5.131  0.3901  1.5752  0.0544
  145SAPE  C31615942   0.231   2.283   4.989  0.2245 -0.0121 -0.1125
  145SAPE  H16X15943   0.272   2.377   4.946 -0.4419 -0.3871 -1.6405
  145SAPE  H16Y15944   0.121   2.295   4.999 -0.3437 -3.9459 -0.1724
  145SAPE  C31715945   0.266   2.155   4.909 -0.6955 -0.2629 -0.0194
  145SAPE  H17X15946   0.171   2.109   4.873  0.3806 -3.4309  0.8843
  145SAPE  H17Y15947   0.312   2.087   4.983 -0.4573 -0.0075  0.0714
  145SAPE  C31815948   0.362   2.170   4.785 -0.2409 -0.5667  0.5415
  145SAPE  H18X15949   0.303   2.208   4.699  1.0535 -0.9780 -0.5734
  145SAPE  H18Y15950   0.407   2.074   4.753 -1.6167 -1.0597  0.0082
  145SAPE  H18Z15951   0.448   2.239   4.804 -0.1088  0.3168 -2.6491
  146SAPE     N15952   3.372   1.692   7.283  0.1178  0.6963  0.3602
  146SAPE   HN115953   3.281   1.653   7.252  0.7734  0.5070 -1.4142
  146SAPE   HN215954   3.403   1.769   7.220  2.0527  0.4989  1.0270
  146SAPE   HN315955   3.444   1.618   7.272 -0.3844  0.3365 -0.6375
  146SAPE   C1215956   3.368   1.747   7.422 -0.0442 -0.0993  0.5688
  146SAPE  H12A15957   3.392   1.662   7.489  1.4751  0.5891  0.9346
  146SAPE  H12B15958   3.269   1.795   7.436  0.4731  1.4007 -0.6012
  146SAPE   C1115959   3.478   1.856   7.431 -1.4335 -0.4178  0.4888
  146SAPE  H11A15960   3.471   1.894   7.535  2.7649 -1.2825  1.2700
  146SAPE  H11B15961   3.444   1.926   7.351 -0.5635 -0.8232 -0.2525
  146SAPE     P15962   3.744   1.856   7.449  0.0381 -0.0639  0.1230
  146SAPE   O1315963   3.729   1.993   7.505  0.1645 -0.2929  0.0343
  146SAPE   O1415964   3.815   1.764   7.538 -0.0610 -0.1383  0.2733
  146SAPE   O1215965   3.606   1.795   7.409 -0.2686 -0.0880 -0.3569
  146SAPE   O1115966   3.825   1.865   7.319  0.1552 -0.4475 -0.1362
  146SAPE    C115967   3.768   1.854   7.188  0.3345 -0.0410 -0.0069
  146SAPE    HA15968   3.848   1.832   7.114  1.1001  1.2115  0.4173
  146SAPE    HB15969   3.685   1.780   7.182 -1.5786  2.1187 -1.9472
  146SAPE    C215970   3.704   1.983   7.135  0.5085  0.1100  0.1642
  146SAPE    HS15971   3.627   2.023   7.204 -1.0567 -2.6326  0.1727
  146SAPE   O2115972   3.644   1.974   7.003 -0.0780  0.2193 -0.0969
  146SAPE   C2115973   3.528   1.902   6.995 -0.0716  0.4907 -0.9524
  146SAPE   O2215974   3.474   1.853   7.096  0.4316 -0.0485  0.2854
  146SAPE   C2215975   3.484   1.887   6.848  0.6214  0.0970  0.4222
  146SAPE   H2R15976   3.437   1.986   6.831  1.1462  0.6478  2.0455
  146SAPE   H2S15977   3.579   1.893   6.791  0.2949 -0.4811 -0.1972
  146SAPE    C315978   3.816   2.096   7.132  0.0966  0.9039 -0.1368
  146SAPE    HX15979   3.838   2.121   7.238 -0.6220  0.8246  0.0343
  146SAPE    HY15980   3.781   2.186   7.077  3.0378  0.5354 -2.9453
  146SAPE   O3115981   3.931   2.044   7.064 -0.1700 -0.3578  0.2247
  146SAPE   C3115982   3.956   2.091   6.945  0.3950 -0.1512 -0.6214
  146SAPE   O3215983   3.915   2.195   6.896  0.3651  0.1267 -0.4625
  146SAPE   C3215984   4.064   2.005   6.875 -0.2719 -0.5233  0.0011
  146SAPE   H2X15985   4.133   1.989   6.961 -1.1580 -1.2759  0.5827
  146SAPE   H2Y15986   4.106   2.067   6.792 -1.7877  0.9233  0.2646
  146SAPE   C2315987   3.411   1.761   6.813  0.1271  0.1165 -0.2036
  146SAPE   H3R15988   3.309   1.760   6.857  0.0711  0.0682 -0.3337
  146SAPE   H3S15989   3.464   1.673   6.854  2.1129  1.7653  0.9431
  146SAPE   C2415990   3.385   1.746   6.658 -0.3139 -0.7414  0.5765
  146SAPE   H4R15991   3.486   1.733   6.613 -0.6522 -1.2868 -0.0523
  146SAPE   H4S15992   3.334   1.837   6.619  0.1511 -0.4700  0.5968
  146SAPE   C2515993   3.316   1.622   6.621 -0.6407  0.8330 -0.6969
  146SAPE   H5R15994   3.379   1.532   6.619 -1.0839  0.3664  2.1018
  146SAPE   C2615995   3.201   1.612   6.560  0.9940 -0.1420 -0.5079
  146SAPE   H6R15996   3.163   1.510   6.550  1.1803 -0.2167 -0.4622
  146SAPE   C2715997   3.096   1.725   6.541  0.1210 -1.0437 -0.2829
  146SAPE   H7R15998   3.145   1.808   6.485  0.2683 -2.1604 -1.8831
  146SAPE   H7S15999   3.073   1.766   6.641  1.1845  3.0447 -1.5359
  146SAPE   C2816000   2.971   1.686   6.474 -0.4102  0.3739 -0.5704
  146SAPE   H8R16001   2.895   1.668   6.552  0.8115  2.3927  1.2050
  146SAPE   C2916002   2.950   1.660   6.347  0.2305 -0.0075 -0.0264
  146SAPE   H9R16003   2.843   1.644   6.323  0.1875 -1.1753  0.8107
  146SAPE  C21016004   3.045   1.687   6.232 -0.3159 -0.4358 -0.2904
  146SAPE  H10R16005   3.139   1.728   6.275  0.7786 -2.2304 -0.8506
  146SAPE  H10S16006   2.992   1.768   6.177 -1.2187 -1.0945 -0.4185
  146SAPE  C21116007   3.063   1.559   6.148  0.7114  0.5813 -0.6010
  146SAPE  H11R16008   3.081   1.468   6.207  0.4047  1.4480  0.8650
  146SAPE  C21216009   3.067   1.551   6.013  0.6673 -0.4918 -0.8441
  146SAPE  H12R16010   3.063   1.449   5.972  0.8435 -0.9514  0.2478
  146SAPE  C21316011   3.039   1.669   5.924 -0.2871  0.1552  0.0182
  146SAPE  H13R16012   3.054   1.764   5.980 -1.1651 -1.6398  3.5728
  146SAPE  H13S16013   2.928   1.671   5.923 -0.2989 -0.2119 -1.9341
  146SAPE  C21416014   3.106   1.648   5.790  0.3810 -0.2888  0.3140
  146SAPE  H14R16015   3.208   1.686   5.777  1.3488 -1.4336  3.5702
  146SAPE  C21516016   3.053   1.601   5.675 -0.6353  0.7523 -0.0697
  146SAPE  H15R16017   3.109   1.617   5.582  0.3309  1.0739  0.5506
  146SAPE  C21616018   2.925   1.527   5.654  0.3868 -0.5223  0.9946
  146SAPE  H16R16019   2.871   1.542   5.749  0.2027  1.9825  0.5663
  146SAPE  H16S16020   2.951   1.421   5.633  0.8835 -0.0386 -1.1999
  146SAPE  C21716021   2.834   1.575   5.532  0.2243  0.2239  0.3870
  146SAPE  H17R16022   2.814   1.683   5.550 -1.4799  0.0457 -0.2004
  146SAPE  H17S16023   2.738   1.519   5.539  1.2498 -1.5509  0.6347
  146SAPE  C21816024   2.910   1.543   5.398  0.5824  0.1172 -0.2833
  146SAPE  H18R16025   2.905   1.435   5.374  2.5900  0.5413 -3.0161
  146SAPE  H18S16026   3.014   1.577   5.415  0.2882  0.8051  0.1988
  146SAPE  C21916027   2.841   1.601   5.275 -0.4905 -0.3230  0.1524
  146SAPE  H19R16028   2.789   1.695   5.306 -0.6913  0.5235 -2.4782
  146SAPE  H19S16029   2.764   1.533   5.231 -4.1067  3.4563  0.0193
  146SAPE  C22016030   2.946   1.636   5.169  0.5559  0.6003 -0.0407
  146SAPE  H20R16031   2.988   1.538   5.139  1.3153  0.2731  1.9416
  146SAPE  H20S16032   3.021   1.699   5.221  2.8372 -0.3705 -1.9621
  146SAPE  H20T16033   2.899   1.694   5.086  0.1864 -0.1032 -0.3296
  146SAPE   C3316034   4.025   1.866   6.827  0.3919  0.2626  0.4160
  146SAPE   H3X16035   3.988   1.806   6.913 -0.3522  1.5102  0.9969
  146SAPE   H3Y16036   4.114   1.815   6.784  0.8842  0.8829  0.6785
  146SAPE   C3416037   3.915   1.886   6.714  0.4373 -0.1798 -0.3902
  146SAPE   H4X16038   3.929   1.977   6.653 -0.9825 -0.3999 -1.0825
  146SAPE   H4Y16039   3.821   1.905   6.770 -0.6990 -1.3431 -1.8277
  146SAPE   C3516040   3.904   1.768   6.615 -0.0346 -0.1219 -0.3923
  146SAPE   H5X16041   3.944   1.679   6.668 -0.7905 -1.2414 -1.6295
  146SAPE   H5Y16042   3.968   1.805   6.532 -1.5501  0.3184 -1.4151
  146SAPE   C3616043   3.759   1.749   6.563 -0.0404  0.2806 -0.0698
  146SAPE   H6X16044   3.706   1.845   6.546  1.5641  0.9220 -1.7420
  146SAPE   H6Y16045   3.698   1.703   6.644  1.2693  0.8275  1.2846
  146SAPE   C3716046   3.745   1.650   6.449 -0.3877  0.6033  0.2776
  146SAPE   H7X16047   3.793   1.551   6.460 -0.2438  0.0264 -3.8168
  146SAPE   H7Y16048   3.808   1.699   6.371  1.7421  0.4318  1.8129
  146SAPE   C3816049   3.599   1.617   6.404 -0.3102 -0.5786 -0.4124
  146SAPE   H8X16050   3.544   1.714   6.399  1.9847  0.7602 -4.1717
  146SAPE   H8Y16051   3.550   1.546   6.472  0.0110 -0.0789  0.3523
  146SAPE   C3916052   3.590   1.554   6.263 -0.5691  0.3061 -0.7994
  146SAPE   H9X16053   3.656   1.464   6.265  0.3493  0.9466  1.8732
  146SAPE   H9Y16054   3.628   1.628   6.190  0.3110  1.0933  0.4222
  146SAPE  C31016055   3.443   1.519   6.226  0.8314 -1.0441 -0.0203
  146SAPE  H10X16056   3.381   1.610   6.217 -1.4330 -2.4008  0.8939
  146SAPE  H10Y16057   3.406   1.454   6.308  0.8279  1.9963  2.5608
  146SAPE  C31116058   3.432   1.441   6.094  0.4614  0.5041  0.0376
  146SAPE  H11X16059   3.326   1.409   6.085  0.7996 -1.4320  2.1221
  146SAPE  H11Y16060   3.495   1.350   6.084 -0.9228 -0.3980 -0.8662
  146SAPE  C31216061   3.469   1.532   5.970 -0.0056 -0.2011 -0.5148
  146SAPE  H12X16062   3.574   1.567   5.957  0.0886  0.1249  0.9860
  146SAPE  H12Y16063   3.417   1.629   5.983  1.7743  0.8224 -0.8288
  146SAPE  C31316064   3.425   1.472   5.839  0.2703 -0.2044 -0.4355
  146SAPE  H13X16065   3.317   1.445   5.845  0.4567 -0.7674  0.4447
  146SAPE  H13Y16066   3.471   1.371   5.828  1.3157 -0.0300  1.7812
  146SAPE  C31416067   3.456   1.554   5.712 -0.0075  0.1551 -0.3375
  146SAPE  H14X16068   3.567   1.563   5.712  0.0053  0.1530  0.8159
  146SAPE  H14Y16069   3.414   1.657   5.714  1.3302  0.7081  1.2784
  146SAPE  C31516070   3.413   1.477   5.584 -0.2040  0.0285  0.1104
  146SAPE  H15X16071   3.302   1.470   5.595 -0.3606  1.5423 -0.2788
  146SAPE  H15Y16072   3.452   1.373   5.581 -0.4652 -0.1276  1.4778
  146SAPE  C31616073   3.464   1.554   5.460 -0.5193 -0.4995  0.2924
  146SAPE  H16X16074   3.575   1.547   5.459 -0.5615 -1.3906 -0.9787
  146SAPE  H16Y16075   3.423   1.655   5.482 -1.3782 -0.9236  0.7124
  146SAPE  C31716076   3.435   1.491   5.324  0.4177 -0.6251 -0.6283
  146SAPE  H17X16077   3.479   1.389   5.322  1.2141 -0.3537  0.8007
  146SAPE  H17Y16078   3.471   1.560   5.244  0.4169  0.8535  0.5871
  146SAPE  C31816079   3.284   1.489   5.303 -0.2990 -0.4026  0.0162
  146SAPE  H18X16080   3.228   1.417   5.366 -0.8732 -0.0546 -0.0874
  146SAPE  H18Y16081   3.258   1.462   5.198  0.2875  0.8811 -0.4760
  146SAPE  H18Z16082   3.250   1.593   5.324  0.7442 -0.3241  1.4602
  147SAPE     N16083   3.548   6.233   7.398 -0.5547  0.8420 -0.0306
  147SAPE   HN116084   3.485   6.163   7.445  1.9925 -0.7453  1.2382
  147SAPE   HN216085   3.634   6.239   7.456  0.6695 -0.2852 -1.6382
  147SAPE   HN316086   3.500   6.324   7.412  1.2337  1.7722  0.3390
  147SAPE   C1216087   3.584   6.174   7.262  0.2547 -0.3478 -0.4282
  147SAPE  H12A16088   3.619   6.068   7.268 -0.4712 -0.6431 -1.1479
  147SAPE  H12B16089   3.668   6.235   7.224 -0.1661 -1.4202 -3.2908
  147SAPE   C1116090   3.467   6.188   7.163 -0.3888 -0.0025 -0.1997
  147SAPE  H11A16091   3.503   6.151   7.065  0.0140 -1.5789  0.5058
  147SAPE  H11B16092   3.444   6.297   7.156 -0.0899  0.2891  2.2676
  147SAPE     P16093   3.200   6.159   7.195 -0.6702 -0.1595  0.1090
  147SAPE   O1316094   3.119   6.088   7.290  0.5021 -0.1309  0.3345
  147SAPE   O1416095   3.200   6.309   7.210  0.2697 -0.0766 -0.1040
  147SAPE   O1216096   3.354   6.116   7.205 -0.2201  0.2443  0.3217
  147SAPE   O1116097   3.150   6.135   7.051  0.1450  0.6639 -0.3477
  147SAPE    C116098   3.240   6.133   6.937  0.8912 -0.0326  0.0360
  147SAPE    HA16099   3.324   6.206   6.940  1.1119 -0.2857  0.1372
  147SAPE    HB16100   3.285   6.031   6.934 -0.0638 -0.4411 -1.0766
  147SAPE    C216101   3.164   6.167   6.809 -0.0232  0.0558 -0.0423
  147SAPE    HS16102   3.087   6.091   6.785  0.6183 -1.0635  1.2868
  147SAPE   O2116103   3.264   6.183   6.703  0.3170  0.2498  0.0667
  147SAPE   C2116104   3.311   6.067   6.649  0.7022 -0.1508 -0.5617
  147SAPE   O2216105   3.267   5.956   6.669 -0.2383 -0.4375 -0.4288
  147SAPE   C2216106   3.437   6.099   6.567 -0.8714 -0.2952 -0.3324
  147SAPE   H2R16107   3.487   6.194   6.595 -0.8823  0.4434 -2.5996
  147SAPE   H2S16108   3.511   6.019   6.590 -0.1244  1.0867  2.5712
  147SAPE    C316109   3.078   6.296   6.816  0.0427  0.4296 -0.6762
  147SAPE    HX16110   3.123   6.378   6.875  0.4726 -1.9589  2.5934
  147SAPE    HY16111   2.989   6.273   6.879 -1.4599  2.7375 -1.8179
  147SAPE   O3116112   3.038   6.359   6.690  0.0373 -0.5158  0.4455
  147SAPE   C3116113   2.923   6.328   6.646  0.2779 -0.0049  0.7918
  147SAPE   O3216114   2.862   6.225   6.681 -0.2451  0.1183  0.0213
  147SAPE   C3216115   2.876   6.442   6.561 -0.6586  0.5832  0.7466
  147SAPE   H2X16116   2.918   6.536   6.601  2.4335 -0.4121  0.1145
  147SAPE   H2Y16117   2.765   6.449   6.558 -0.8321  2.5734  4.6583
  147SAPE   C2316118   3.401   6.126   6.420  0.7911  0.4402 -0.0343
  147SAPE   H3R16119   3.489   6.142   6.355 -1.1636 -0.1980 -3.0413
  147SAPE   H3S16120   3.337   6.217   6.416 -0.2641 -0.2705  0.1306
  147SAPE   C2416121   3.329   6.020   6.342  0.0211  0.4192  0.7965
  147SAPE   H4R16122   3.225   6.008   6.381 -0.0666  0.8740  0.7106
  147SAPE   H4S16123   3.368   5.917   6.358 -0.5078  0.3473  1.6603
  147SAPE   C2516124   3.306   6.045   6.192  0.1503 -0.5873 -0.3120
  147SAPE   H5R16125   3.210   6.084   6.156  0.2729 -1.5717 -1.7954
  147SAPE   C2616126   3.385   6.025   6.088 -0.3209  0.0738  0.3574
  147SAPE   H6R16127   3.350   6.051   5.987  1.0872  0.3959 -0.0665
  147SAPE   C2716128   3.525   5.968   6.091  0.3453  0.2562  0.0609
  147SAPE   H7R16129   3.520   5.859   6.071  0.2442  0.5223 -1.4529
  147SAPE   H7S16130   3.560   5.991   6.194 -0.4478 -0.5299  0.5203
  147SAPE   C2816131   3.616   6.035   5.997 -0.8044  0.2133  0.3462
  147SAPE   H8R16132   3.614   6.145   5.998  2.5913  0.3908 -0.7654
  147SAPE   C2916133   3.702   5.969   5.912 -0.2425 -0.1579  0.3749
  147SAPE   H9R16134   3.762   6.029   5.842 -0.6871  3.3820  2.7519
  147SAPE  C21016135   3.719   5.824   5.890  0.0598 -0.2442  0.4540
  147SAPE  H10R16136   3.670   5.801   5.793  1.0454  1.8241 -0.6121
  147SAPE  H10S16137   3.659   5.778   5.972  0.4954  0.8232  1.3990
  147SAPE  C21116138   3.858   5.764   5.902 -0.7242  0.4466  0.2791
  147SAPE  H11R16139   3.909   5.815   5.985 -1.0530 -0.4061  1.0121
  147SAPE  C21216140   3.908   5.652   5.850 -0.1537  0.2729  0.1167
  147SAPE  H12R16141   4.016   5.637   5.861 -0.4735 -0.6432  2.4740
  147SAPE  C21316142   3.825   5.564   5.760  0.3615  0.2770  0.3454
  147SAPE  H13R16143   3.824   5.611   5.659 -1.4559  3.3601  1.6575
  147SAPE  H13S16144   3.718   5.559   5.790  0.7816  1.1481  2.1420
  147SAPE  C21416145   3.895   5.433   5.737  0.1822 -0.3997  0.5034
  147SAPE  H14R16146   4.005   5.429   5.729  0.0567 -2.7042 -1.4219
  147SAPE  C21516147   3.844   5.314   5.701  0.1293  0.4978 -0.2597
  147SAPE  H15R16148   3.909   5.227   5.684  0.4176  0.6743 -0.0710
  147SAPE  C21616149   3.692   5.291   5.683  0.0287 -0.0156  0.3583
  147SAPE  H16R16150   3.634   5.384   5.698  1.6057  0.7860  1.8290
  147SAPE  H16S16151   3.646   5.225   5.760  0.4521 -0.4422  0.2484
  147SAPE  C21716152   3.654   5.227   5.550 -0.4593 -0.1136  0.8195
  147SAPE  H17R16153   3.546   5.207   5.535 -0.3055  0.5203 -1.6785
  147SAPE  H17S16154   3.706   5.129   5.541 -0.1206  0.0631  0.8484
  147SAPE  C21816155   3.704   5.315   5.425  0.9222  0.3401 -0.5367
  147SAPE  H18R16156   3.812   5.339   5.436  0.6751  0.5308  2.4544
  147SAPE  H18S16157   3.633   5.401   5.424  0.6643  0.1267 -0.7904
  147SAPE  C21916158   3.679   5.240   5.294 -0.2167  0.2010 -0.4502
  147SAPE  H19R16159   3.572   5.214   5.276  0.3372 -2.3597 -0.4785
  147SAPE  H19S16160   3.734   5.144   5.287 -2.3602 -1.0648 -1.0334
  147SAPE  C22016161   3.713   5.332   5.180 -0.6469 -0.6438 -0.1527
  147SAPE  H20R16162   3.819   5.363   5.192 -0.7778  0.0472 -0.7629
  147SAPE  H20S16163   3.656   5.427   5.180  0.9226  0.3315 -0.4946
  147SAPE  H20T16164   3.708   5.281   5.082 -1.8717 -1.5906  0.3642
  147SAPE   C3316165   2.946   6.420   6.423  0.2856  0.5416 -0.2266
  147SAPE   H3X16166   3.050   6.382   6.436 -0.0904 -0.8244 -0.9823
  147SAPE   H3Y16167   2.945   6.520   6.376 -1.3242  1.1067  0.9431
  147SAPE   C3416168   2.868   6.307   6.337  0.1909 -0.7120 -0.2131
  147SAPE   H4X16169   2.768   6.353   6.323  0.0663 -0.8234  0.3138
  147SAPE   H4Y16170   2.867   6.209   6.389  2.4951 -0.3825  0.5777
  147SAPE   C3516171   2.921   6.291   6.195  0.5339 -0.2162  0.9139
  147SAPE   H5X16172   3.030   6.272   6.204  0.9059  1.3486  0.0297
  147SAPE   H5Y16173   2.902   6.382   6.135  0.5317 -0.9766 -0.2672
  147SAPE   C3616174   2.859   6.171   6.119 -0.2741 -0.9355  0.0826
  147SAPE   H6X16175   2.751   6.177   6.140 -0.0931 -1.1336  1.1376
  147SAPE   H6Y16176   2.894   6.077   6.167 -1.0032 -1.2349  0.0299
  147SAPE   C3716177   2.891   6.172   5.964  0.3220  0.1428 -0.7063
  147SAPE   H7X16178   2.851   6.266   5.918  1.8662  0.0626 -2.3287
  147SAPE   H7Y16179   2.841   6.082   5.922 -0.6408  1.3402 -2.2421
  147SAPE   C3816180   3.039   6.169   5.915 -0.4543  0.9730 -1.2460
  147SAPE   H8X16181   3.102   6.099   5.974  0.0688  0.5755 -2.2378
  147SAPE   H8Y16182   3.080   6.271   5.930  0.9811  0.2466  0.0118
  147SAPE   C3916183   3.046   6.132   5.766  0.1982  0.1223  0.2240
  147SAPE   H9X16184   2.991   6.198   5.697 -0.4874  0.5184  1.1318
  147SAPE   H9Y16185   3.009   6.028   5.754  1.0511 -0.1801  0.0818
  147SAPE  C31016186   3.187   6.123   5.699 -0.8645  0.2221 -0.2329
  147SAPE  H10X16187   3.259   6.100   5.780  0.1110 -1.5896 -1.5538
  147SAPE  H10Y16188   3.208   6.227   5.668  4.4308 -0.6840 -0.5857
  147SAPE  C31116189   3.206   6.019   5.582 -0.2129 -0.3389 -0.4266
  147SAPE  H11X16190   3.164   5.921   5.614  2.9182 -2.1540 -1.4815
  147SAPE  H11Y16191   3.316   6.005   5.577 -0.4582 -2.0637 -1.7594
  147SAPE  C31216192   3.151   6.068   5.446 -0.9776 -0.2831  0.8530
  147SAPE  H12X16193   3.197   6.167   5.430 -1.3306 -0.5267 -2.4046
  147SAPE  H12Y16194   3.043   6.086   5.463 -0.3678  3.0184  1.8136
  147SAPE  C31316195   3.167   5.962   5.331  0.0525  0.7487  0.0474
  147SAPE  H13X16196   3.117   5.865   5.354  2.5015 -0.4600  0.5474
  147SAPE  H13Y16197   3.266   5.918   5.308 -0.4487  0.6338 -2.1768
  147SAPE  C31416198   3.099   6.009   5.196 -0.1154 -0.0349  0.1046
  147SAPE  H14X16199   3.152   6.092   5.145 -0.2524  0.5914  0.9488
  147SAPE  H14Y16200   3.007   6.059   5.234  0.9061  1.1247  1.1906
  147SAPE  C31516201   3.073   5.895   5.108  0.2659 -0.1981  0.1759
  147SAPE  H15X16202   3.014   5.931   5.021  1.1661 -0.2725 -0.4843
  147SAPE  H15Y16203   3.009   5.824   5.163  0.3869 -0.8891 -0.5534
  147SAPE  C31616204   3.199   5.828   5.047  0.5897  0.4007  0.0495
  147SAPE  H16X16205   3.255   5.774   5.127  1.6945  1.0333 -0.2684
  147SAPE  H16Y16206   3.264   5.908   5.006 -1.5526  2.2905  0.1099
  147SAPE  C31716207   3.169   5.732   4.931  0.3745 -0.2258  0.6727
  147SAPE  H17X16208   3.097   5.777   4.860 -0.8157 -1.7960  0.8265
  147SAPE  H17Y16209   3.116   5.641   4.967 -1.3964  0.6552  0.4397
  147SAPE  C31816210   3.300   5.690   4.869  0.0734  0.2185  0.2005
  147SAPE  H18X16211   3.345   5.612   4.934  2.3913 -0.4002 -2.0023
  147SAPE  H18Y16212   3.363   5.781   4.869 -1.3410  1.2590 -1.7000
  147SAPE  H18Z16213   3.287   5.644   4.769  2.9783 -2.0398  0.7298
  148SAPE     N16214   1.769   0.781   7.330  0.2068  0.6409  0.7462
  148SAPE   HN116215   1.673   0.803   7.296  0.2021 -0.1961  0.1697
  148SAPE   HN216216   1.838   0.824   7.264  1.1188 -1.0444  0.5375
  148SAPE   HN316217   1.786   0.678   7.327  1.2667  0.7282  2.2521
  148SAPE   C1216218   1.787   0.823   7.479 -0.8062 -0.0132  0.3717
  148SAPE  H12A16219   1.781   0.933   7.482  0.5544  0.1460 -1.3287
  148SAPE  H12B16220   1.894   0.799   7.499 -0.4586  0.2232 -1.1095
  148SAPE   C1116221   1.686   0.761   7.576 -0.6536  0.0859  0.0933
  148SAPE  H11A16222   1.580   0.780   7.548 -0.3278  1.3331 -0.3506
  148SAPE  H11B16223   1.689   0.826   7.666 -0.5677 -1.4962  1.2759
  148SAPE     P16224   1.615   0.504   7.556  0.1771  0.3660  0.0768
  148SAPE   O1316225   1.689   0.375   7.559  0.1539  0.5256 -0.3707
  148SAPE   O1416226   1.484   0.523   7.631 -0.9073  0.0560 -0.1355
  148SAPE   O1216227   1.711   0.620   7.607  0.1510 -0.0540  0.2063
  148SAPE   O1116228   1.590   0.544   7.411  0.2419  0.2124 -0.6551
  148SAPE    C116229   1.507   0.470   7.323  0.4187  0.2695 -0.1957
  148SAPE    HA16230   1.412   0.440   7.373  0.1671  2.2840  0.6096
  148SAPE    HB16231   1.470   0.539   7.244  1.5013  1.1970  0.0816
  148SAPE    C216232   1.586   0.360   7.249 -0.6362 -0.5530 -0.0955
  148SAPE    HS16233   1.682   0.339   7.303 -0.1089 -0.7585 -1.0946
  148SAPE   O2116234   1.626   0.401   7.113 -0.1480  0.8216 -0.0939
  148SAPE   C2116235   1.726   0.492   7.108  0.2565  0.5678 -0.0794
  148SAPE   O2216236   1.792   0.534   7.202  0.3860  0.2734 -0.2126
  148SAPE   C2216237   1.753   0.533   6.963 -0.1154 -0.3119  0.3767
  148SAPE   H2R16238   1.855   0.578   6.969 -0.8095  1.2939  0.8755
  148SAPE   H2S16239   1.758   0.441   6.901  2.4945 -0.8765  1.2976
  148SAPE    C316240   1.502   0.232   7.250  0.1079 -0.1242  0.2477
  148SAPE    HX16241   1.403   0.243   7.200  0.1761 -2.1523 -0.4058
  148SAPE    HY16242   1.475   0.208   7.355 -1.7026  1.5293  0.2235
  148SAPE   O3116243   1.576   0.129   7.179  0.2255 -0.2364  0.2342
  148SAPE   C3116244   1.528   0.012   7.189 -0.0450 -0.3613 -0.0958
  148SAPE   O3216245   1.432  -0.029   7.254  0.4202  0.2194  0.3025
  148SAPE   C3216246   1.616  -0.074   7.096 -0.2086  0.8561 -0.4167
  148SAPE   H2X16247   1.720  -0.075   7.135 -0.5015 -2.5795  0.6205
  148SAPE   H2Y16248   1.605  -0.023   6.998 -0.1110  0.6552 -0.5336
  148SAPE   C2316249   1.677   0.654   6.894 -0.1255 -0.5293  0.6422
  148SAPE   H3R16250   1.731   0.665   6.798  0.1551 -3.0679  0.4288
  148SAPE   H3S16251   1.715   0.745   6.945 -0.2166 -0.2497  0.2154
  148SAPE   C2416252   1.525   0.645   6.873 -0.3191  0.2015  0.2903
  148SAPE   H4R16253   1.470   0.636   6.970 -1.0043  2.6352  0.1966
  148SAPE   H4S16254   1.504   0.550   6.820  0.5851  0.1419  0.0227
  148SAPE   C2516255   1.471   0.765   6.808  0.2041  0.1799 -0.1519
  148SAPE   H5R16256   1.428   0.846   6.868  1.5620 -0.0792  1.2471
  148SAPE   C2616257   1.462   0.796   6.677  0.3276  0.4817  0.0846
  148SAPE   H6R16258   1.404   0.884   6.646  3.2710  2.2923 -0.7010
  148SAPE   C2716259   1.516   0.706   6.568  0.1491 -0.8217  0.3890
  148SAPE   H7R16260   1.424   0.666   6.522 -1.5453  2.4686  0.5883
  148SAPE   H7S16261   1.584   0.630   6.613  1.3848  0.3697  0.6287
  148SAPE   C2816262   1.596   0.790   6.470 -0.2464 -0.1392 -0.5254
  148SAPE   H8R16263   1.662   0.866   6.514 -1.3414  0.2658  0.4727
  148SAPE   C2916264   1.607   0.770   6.341  0.4799  0.1163 -1.0387
  148SAPE   H9R16265   1.663   0.844   6.281  0.1204  2.0668  0.9233
  148SAPE  C21016266   1.531   0.659   6.266 -0.7808  0.0499 -0.3681
  148SAPE  H10R16267   1.472   0.708   6.185 -0.9430 -0.9181 -0.8657
  148SAPE  H10S16268   1.447   0.612   6.322 -0.2470 -5.0268 -3.1779
  148SAPE  C21116269   1.624   0.546   6.234  0.0111  0.3783 -0.1443
  148SAPE  H11R16270   1.686   0.508   6.317  1.2320  1.7002 -0.4192
  148SAPE  C21216271   1.663   0.506   6.117  0.7636 -0.0314 -0.4069
  148SAPE  H12R16272   1.735   0.423   6.111 -0.8051 -1.7647  2.5849
  148SAPE  C21316273   1.609   0.543   5.981 -0.4456 -0.4031 -0.4639
  148SAPE  H13R16274   1.509   0.587   5.999 -0.0178 -0.0755  1.3141
  148SAPE  H13S16275   1.594   0.441   5.938  1.3285 -1.1072  0.4751
  148SAPE  C21416276   1.700   0.628   5.897 -0.0877 -0.5102 -0.1747
  148SAPE  H14R16277   1.741   0.720   5.942  2.3845 -1.5615 -0.1321
  148SAPE  C21516278   1.729   0.607   5.766  0.1715  0.7274 -0.0301
  148SAPE  H15R16279   1.794   0.679   5.713 -1.0585  1.9732  0.0945
  148SAPE  C21616280   1.670   0.495   5.683 -0.3804 -0.1794  0.5528
  148SAPE  H16R16281   1.580   0.527   5.627  1.1663  0.7766 -1.5263
  148SAPE  H16S16282   1.648   0.407   5.747  0.3893 -0.0966  0.9470
  148SAPE  C21716283   1.779   0.444   5.577  0.1350 -0.3238  0.2333
  148SAPE  H17R16284   1.876   0.440   5.631  0.8697 -1.7736 -1.1110
  148SAPE  H17S16285   1.793   0.516   5.494  0.3225 -0.9716 -0.3043
  148SAPE  C21816286   1.749   0.300   5.524 -0.2983  0.6817  0.1444
  148SAPE  H18R16287   1.719   0.238   5.611 -0.0885 -0.4893 -0.5900
  148SAPE  H18S16288   1.839   0.261   5.471 -0.4718 -1.4761  1.3244
  148SAPE  C21916289   1.639   0.299   5.410 -0.4679 -0.5550  0.6125
  148SAPE  H19R16290   1.644   0.381   5.335  0.0775 -0.3170  0.9046
  148SAPE  H19S16291   1.551   0.329   5.471  0.5834  2.5573  0.8065
  148SAPE  C22016292   1.617   0.165   5.339 -0.1206 -0.5407  0.2022
  148SAPE  H20R16293   1.701   0.122   5.280 -0.3611 -0.7275 -0.0017
  148SAPE  H20S16294   1.528   0.172   5.273 -0.2531  1.0906  0.4960
  148SAPE  H20T16295   1.596   0.091   5.418 -1.5953  0.5659  0.8966
  148SAPE   C3316296   1.568  -0.218   7.082 -0.0595 -0.2068 -0.5978
  148SAPE   H3X16297   1.461  -0.218   7.052 -0.3193 -0.4963  0.3154
  148SAPE   H3Y16298   1.581  -0.272   7.178  2.1598 -0.6749 -1.0999
  148SAPE   C3416299   1.657  -0.292   6.980  0.8942  0.3166  0.2145
  148SAPE   H4X16300   1.607  -0.389   6.959  0.4720  0.9889 -2.2041
  148SAPE   H4Y16301   1.757  -0.319   7.019  1.6703  0.3125 -1.6547
  148SAPE   C3516302   1.660  -0.215   6.853 -0.4009  0.1126  0.3630
  148SAPE   H5X16303   1.732  -0.131   6.863 -1.2856  1.0852 -1.0198
  148SAPE   H5Y16304   1.562  -0.173   6.821 -0.3015 -0.7339 -1.1806
  148SAPE   C3616305   1.714  -0.304   6.736 -0.0464  0.0497 -0.0629
  148SAPE   H6X16306   1.640  -0.386   6.725 -2.9477  2.5183 -0.1994
  148SAPE   H6Y16307   1.813  -0.350   6.759 -0.6965 -0.9098  0.8975
  148SAPE   C3716308   1.721  -0.233   6.604 -0.8239  0.5442  0.2588
  148SAPE   H7X16309   1.801  -0.156   6.614  0.1960 -0.3016 -1.0892
  148SAPE   H7Y16310   1.622  -0.188   6.582 -0.7639  0.7211  0.3483
  148SAPE   C3816311   1.755  -0.336   6.486 -0.5810 -0.1173  0.4001
  148SAPE   H8X16312   1.678  -0.411   6.460  2.2185 -3.4138  0.8764
  148SAPE   H8Y16313   1.856  -0.379   6.500  0.2958  1.0235 -1.8176
  148SAPE   C3916314   1.755  -0.246   6.359 -0.5515  0.6292 -0.4091
  148SAPE   H9X16315   1.820  -0.158   6.374  1.2229 -0.7629  0.4807
  148SAPE   H9Y16316   1.650  -0.215   6.339 -0.4836  0.9353 -0.2937
  148SAPE  C31016317   1.799  -0.312   6.235 -0.2666  0.6872  0.6217
  148SAPE  H10X16318   1.725  -0.387   6.199  1.4023 -0.8556  0.2620
  148SAPE  H10Y16319   1.894  -0.361   6.267  1.1489  2.4194 -0.7843
  148SAPE  C31116320   1.830  -0.220   6.116 -0.5494  0.9313  0.1391
  148SAPE  H11X16321   1.915  -0.160   6.154 -1.5621  2.4494  0.0743
  148SAPE  H11Y16322   1.746  -0.151   6.095 -1.0418 -0.0779 -1.3774
  148SAPE  C31216323   1.856  -0.293   5.982 -0.6241 -0.1340 -0.5309
  148SAPE  H12X16324   1.772  -0.364   5.966  0.6562 -1.7420 -0.2587
  148SAPE  H12Y16325   1.945  -0.355   6.003 -1.0489  0.2493  2.9614
  148SAPE  C31316326   1.891  -0.199   5.863  0.9831  0.2444 -0.3927
  148SAPE  H13X16327   1.998  -0.169   5.867  1.9669 -2.3474 -3.0986
  148SAPE  H13Y16328   1.826  -0.109   5.865  0.2910 -0.2352 -0.8403
  148SAPE  C31416329   1.861  -0.257   5.729  0.2283 -0.4570  0.2093
  148SAPE  H14X16330   1.752  -0.277   5.736 -0.2578  2.0195  0.9230
  148SAPE  H14Y16331   1.920  -0.347   5.701  1.0628  0.5012 -1.2667
  148SAPE  C31516332   1.908  -0.161   5.611  0.3829  0.1236  0.2375
  148SAPE  H15X16333   2.007  -0.189   5.568  0.2108  1.6879 -1.2781
  148SAPE  H15Y16334   1.925  -0.058   5.649  4.0106 -0.0961 -0.4487
  148SAPE  C31616335   1.800  -0.148   5.504 -0.2148  0.4127 -0.3683
  148SAPE  H16X16336   1.810  -0.054   5.445  0.6491 -0.9544 -2.5194
  148SAPE  H16Y16337   1.701  -0.131   5.553  0.5703 -0.0645  1.4592
  148SAPE  C31716338   1.789  -0.271   5.411  0.3849  0.1531 -0.3500
  148SAPE  H17X16339   1.770  -0.357   5.478 -1.3879  0.7416 -0.0301
  148SAPE  H17Y16340   1.888  -0.292   5.366 -0.5447  0.1772 -2.5577
  148SAPE  C31816341   1.686  -0.263   5.305  0.3284  0.0850  0.6167
  148SAPE  H18X16342   1.668  -0.359   5.252 -0.4085  1.3994 -1.6883
  148SAPE  H18Y16343   1.735  -0.191   5.236 -0.5879  0.2990  0.1729
  148SAPE  H18Z16344   1.589  -0.217   5.331 -0.0251 -0.1320 -0.2676
  149SAPE     N16345   0.967   6.276   7.280  0.1291  0.2424  0.0545
  149SAPE   HN116346   1.064   6.305   7.252  0.5399 -0.7898  0.3775
  149SAPE   HN216347   0.913   6.226   7.207  0.8267  0.2546 -0.4943
  149SAPE   HN316348   0.909   6.360   7.298 -2.6216 -2.1921  3.9022
  149SAPE   C1216349   0.971   6.205   7.411 -0.0337  0.0622  0.2616
  149SAPE  H12A16350   1.024   6.267   7.487 -0.7099 -0.6956  1.3925
  149SAPE  H12B16351   1.033   6.113   7.404  0.7108  0.3893  1.9198
  149SAPE   C1116352   0.836   6.168   7.467  0.4901  0.0918 -0.6747
  149SAPE  H11A16353   0.760   6.248   7.461  1.4092  1.0956  0.5378
  149SAPE  H11B16354   0.850   6.149   7.575  0.8111 -3.3462 -1.2097
  149SAPE     P16355   0.653   5.975   7.474 -0.4366 -0.4287 -0.3405
  149SAPE   O1316356   0.616   6.044   7.595  0.0889 -1.1156  0.5426
  149SAPE   O1416357   0.542   5.958   7.379 -0.5691  0.3818 -0.5553
  149SAPE   O1216358   0.774   6.053   7.396 -0.4236  0.6503  0.4701
  149SAPE   O1116359   0.717   5.840   7.518 -0.2453  0.3746  0.1545
  149SAPE    C116360   0.845   5.789   7.503 -0.1804  0.0850 -0.0369
  149SAPE    HA16361   0.916   5.874   7.497 -2.1727  1.7169 -1.8601
  149SAPE    HB16362   0.869   5.718   7.586 -1.5665 -1.3676 -0.8158
  149SAPE    C216363   0.854   5.698   7.375 -0.0454  0.2991 -0.1278
  149SAPE    HS16364   0.948   5.641   7.390  0.8461  2.1850  2.2665
  149SAPE   O2116365   0.844   5.783   7.256  0.0658 -0.4613  0.7803
  149SAPE   C2116366   0.961   5.841   7.220  0.4622 -0.2674 -0.0378
  149SAPE   O2216367   1.065   5.824   7.286  0.4605 -0.7450 -0.4905
  149SAPE   C2216368   0.928   5.940   7.104 -0.0422  0.1143  0.0276
  149SAPE   H2R16369   0.822   5.923   7.076  0.1705 -1.3134  0.0399
  149SAPE   H2S16370   0.934   6.036   7.160  0.5761 -1.2230  2.4073
  149SAPE    C316371   0.739   5.596   7.385  0.0719 -0.4157  0.1490
  149SAPE    HX16372   0.644   5.650   7.406 -0.6140 -2.2866  2.2482
  149SAPE    HY16373   0.755   5.533   7.475 -1.2504 -0.4348  0.3896
  149SAPE   O3116374   0.724   5.517   7.261  0.0786  0.2054  0.0814
  149SAPE   C3116375   0.789   5.409   7.257 -0.0232 -0.4368 -0.4343
  149SAPE   O3216376   0.856   5.361   7.347  0.1860  0.3893 -0.0907
  149SAPE   C3216377   0.763   5.339   7.122  0.1096  0.3984 -0.4791
  149SAPE   H2X16378   0.673   5.373   7.066  0.4287 -0.5096 -1.5859
  149SAPE   H2Y16379   0.740   5.232   7.140 -1.5883  0.3945 -2.2893
  149SAPE   C2316380   1.026   5.918   6.986  1.2496  0.0826  0.0006
  149SAPE   H3R16381   1.018   5.812   6.952  0.8539  0.2478 -0.4443
  149SAPE   H3S16382   1.131   5.940   7.013  1.2666  3.4273 -2.1188
  149SAPE   C2416383   0.999   6.008   6.873  0.5757  0.7332  0.2071
  149SAPE   H4R16384   1.088   6.029   6.809 -0.7342 -1.2841 -2.4901
  149SAPE   H4S16385   0.963   6.107   6.909 -1.9875 -0.2172  0.4929
  149SAPE   C2516386   0.888   5.944   6.791  0.2591  0.0916 -0.4722
  149SAPE   H5R16387   0.793   5.936   6.846  0.7053  1.7026  0.6056
  149SAPE   C2616388   0.892   5.896   6.663  0.7532  0.1685  0.4151
  149SAPE   H6R16389   0.810   5.834   6.624  1.2516 -0.0390 -0.3242
  149SAPE   C2716390   1.010   5.901   6.572 -1.1897 -0.6312  0.2997
  149SAPE   H7R16391   1.072   5.987   6.605  0.2182 -0.9480 -1.3638
  149SAPE   H7S16392   0.973   5.921   6.469 -0.9806  2.2483  0.6994
  149SAPE   C2816393   1.103   5.776   6.587 -0.4403 -0.1611  0.4013
  149SAPE   H8R16394   1.147   5.753   6.685 -2.2807 -1.2978  1.0235
  149SAPE   C2916395   1.152   5.707   6.479  0.2037  0.6085 -0.2038
  149SAPE   H9R16396   1.213   5.618   6.502 -1.7911  0.1051  4.0704
  149SAPE  C21016397   1.125   5.733   6.329  0.0916 -0.4703 -0.1881
  149SAPE  H10R16398   1.156   5.837   6.306 -2.9543  1.3792  2.9536
  149SAPE  H10S16399   1.016   5.743   6.308  0.1863  0.2106 -0.3702
  149SAPE  C21116400   1.187   5.638   6.232  0.5057 -0.1069  0.2650
  149SAPE  H11R16401   1.199   5.534   6.265  1.4821  0.3663  1.4865
  149SAPE  C21216402   1.224   5.679   6.109 -0.2190 -0.1952 -0.5919
  149SAPE  H12R16403   1.253   5.596   6.042  2.5059 -0.9222  1.3245
  149SAPE  C21316404   1.201   5.814   6.046  0.0374 -0.8980  0.2654
  149SAPE  H13R16405   1.170   5.898   6.112  0.8815  0.1222 -0.5816
  149SAPE  H13S16406   1.119   5.798   5.973  0.6413  0.1000 -0.6681
  149SAPE  C21416407   1.332   5.837   5.975 -0.2489  0.3345  0.3179
  149SAPE  H14R16408   1.425   5.854   6.031 -0.8190 -0.9651  1.7382
  149SAPE  C21516409   1.348   5.820   5.837  0.5648  0.3113  0.0517
  149SAPE  H15R16410   1.449   5.830   5.794  0.7264  2.8373  0.8299
  149SAPE  C21616411   1.239   5.786   5.738  0.4245  0.0910 -0.1273
  149SAPE  H16R16412   1.150   5.853   5.742  1.1373  1.0628 -0.1904
  149SAPE  H16S16413   1.200   5.684   5.755  0.1389  0.1667 -0.3190
  149SAPE  C21716414   1.287   5.791   5.584 -0.0334 -0.1826 -0.1590
  149SAPE  H17R16415   1.391   5.753   5.576  0.1399  0.6634 -2.4260
  149SAPE  H17S16416   1.290   5.891   5.538 -2.4859 -0.8689 -1.9892
  149SAPE  C21816417   1.176   5.719   5.501  0.4812  0.6937 -0.0975
  149SAPE  H18R16418   1.076   5.764   5.514  0.2765  0.0874  0.4624
  149SAPE  H18S16419   1.158   5.613   5.529  0.6179  0.9069  0.8343
  149SAPE  C21916420   1.201   5.733   5.351  0.4049  0.0530  0.3401
  149SAPE  H19R16421   1.244   5.834   5.332 -0.2898  0.3908  0.5352
  149SAPE  H19S16422   1.104   5.715   5.301  1.0362 -0.9641 -0.5847
  149SAPE  C22016423   1.294   5.629   5.290  0.2445  0.0319 -0.7328
  149SAPE  H20R16424   1.296   5.648   5.180 -1.8318 -2.9929 -1.4230
  149SAPE  H20S16425   1.264   5.525   5.312  1.0155 -0.5645 -2.3577
  149SAPE  H20T16426   1.395   5.637   5.336  0.9974 -0.4407 -2.2265
  149SAPE   C3316427   0.890   5.336   7.033  0.2874  0.2964  0.2135
  149SAPE   H3X16428   0.861   5.269   6.950  2.8751  1.2185 -1.5569
  149SAPE   H3Y16429   0.980   5.282   7.071 -0.3152 -1.1815 -0.3790
  149SAPE   C3416430   0.922   5.480   6.993 -0.2238 -0.1895  0.7312
  149SAPE   H4X16431   1.009   5.490   6.924 -0.9257  2.1087  0.0707
  149SAPE   H4Y16432   0.929   5.540   7.086 -0.6937 -0.0082  0.6525
  149SAPE   C3516433   0.803   5.548   6.921 -0.1350  0.4658 -0.1176
  149SAPE   H5X16434   0.828   5.650   6.885  0.7492 -0.0369 -0.9677
  149SAPE   H5Y16435   0.717   5.558   6.991 -0.7972 -2.0192 -0.4735
  149SAPE   C3616436   0.755   5.465   6.801 -0.2130 -0.1186  0.6886
  149SAPE   H6X16437   0.666   5.510   6.752 -0.5916 -0.3748  1.1230
  149SAPE   H6Y16438   0.727   5.360   6.827 -2.2369 -0.2481 -1.6803
  149SAPE   C3716439   0.861   5.455   6.690  0.4548 -0.2504  0.3410
  149SAPE   H7X16440   0.945   5.395   6.730 -0.9204  0.1732  4.3730
  149SAPE   H7Y16441   0.904   5.555   6.668 -1.9041  1.0054  1.0655
  149SAPE   C3816442   0.815   5.393   6.556 -0.3143  0.4321 -0.1201
  149SAPE   H8X16443   0.711   5.428   6.536 -0.8655 -0.5079  0.9694
  149SAPE   H8Y16444   0.803   5.285   6.579  1.8411  0.4155  1.1315
  149SAPE   C3916445   0.896   5.426   6.431  0.6075  0.1225 -0.0217
  149SAPE   H9X16446   0.997   5.382   6.446  0.0457 -0.4729  2.4814
  149SAPE   H9Y16447   0.892   5.536   6.416 -0.7426 -0.0654 -1.1572
  149SAPE  C31016448   0.816   5.377   6.309 -0.6262 -0.0686 -0.6579
  149SAPE  H10X16449   0.716   5.425   6.318 -1.1009 -0.8245 -1.7308
  149SAPE  H10Y16450   0.805   5.267   6.313  1.7303 -0.3874  4.0071
  149SAPE  C31116451   0.893   5.426   6.184 -0.2546 -0.2944 -0.4515
  149SAPE  H11X16452   0.993   5.377   6.189 -0.7807 -1.3984 -0.2986
  149SAPE  H11Y16453   0.898   5.537   6.189 -1.2742 -0.2798  1.2913
  149SAPE  C31216454   0.818   5.384   6.054 -0.3166  0.4852 -0.6447
  149SAPE  H12X16455   0.713   5.413   6.071 -1.2977 -1.9688 -1.9915
  149SAPE  H12Y16456   0.818   5.273   6.052 -1.7615  0.4492  0.0081
  149SAPE  C31316457   0.894   5.421   5.928 -0.6934 -0.2848  0.0014
  149SAPE  H13X16458   0.978   5.349   5.913 -0.4955 -0.1175  0.2945
  149SAPE  H13Y16459   0.937   5.524   5.933 -2.3670  0.3936  1.0740
  149SAPE  C31416460   0.811   5.419   5.795  0.2567 -0.6564  0.1720
  149SAPE  H14X16461   0.751   5.513   5.792  0.5953 -0.4064  1.0421
  149SAPE  H14Y16462   0.749   5.330   5.813 -1.0924  0.5748  1.9033
  149SAPE  C31516463   0.901   5.398   5.669  0.0024  0.9430 -0.5945
  149SAPE  H15X16464   0.961   5.305   5.680  0.6068  1.5471  1.8178
  149SAPE  H15Y16465   0.977   5.479   5.673  0.4938  0.4631  0.1348
  149SAPE  C31616466   0.822   5.411   5.537  0.5165  0.3307  0.1446
  149SAPE  H16X16467   0.740   5.486   5.549  0.4936  0.5747 -1.3525
  149SAPE  H16Y16468   0.775   5.314   5.508  2.4214 -0.1846 -1.4870
  149SAPE  C31716469   0.910   5.451   5.422 -0.5136  0.5152 -0.2965
  149SAPE  H17X16470   1.016   5.418   5.426 -0.1556  1.7630  2.0530
  149SAPE  H17Y16471   0.924   5.561   5.429  1.4987  0.2164  1.0511
  149SAPE  C31816472   0.857   5.412   5.287  1.0861  0.6314 -0.7053
  149SAPE  H18X16473   0.756   5.440   5.250  0.3217 -1.9745 -0.7822
  149SAPE  H18Y16474   0.841   5.302   5.292  0.1634  0.6761 -1.9918
  149SAPE  H18Z16475   0.929   5.432   5.204  3.3778  0.5086  1.1637
  150SAPE     N16476   5.076   3.373   7.217  0.5791  0.1464  0.2059
  150SAPE   HN116477   5.126   3.463   7.209  1.4209 -0.2755  0.6593
  150SAPE   HN216478   5.009   3.378   7.297  0.6506  2.1710  0.1913
  150SAPE   HN316479   5.157   3.310   7.230 -0.6719 -1.7511 -0.6254
  150SAPE   C1216480   5.013   3.331   7.085  0.4067  1.3471  0.2209
  150SAPE  H12A16481   5.094   3.336   7.010  2.5627 -0.0640  2.3058
  150SAPE  H12B16482   4.934   3.402   7.052  0.6737  2.3975  1.6922
  150SAPE   C1116483   4.956   3.188   7.093  0.7858  0.1694 -0.8705
  150SAPE  H11A16484   5.046   3.125   7.103  0.3549 -0.1908  1.3003
  150SAPE  H11B16485   4.896   3.174   7.000 -0.4741 -1.3890  0.1200
  150SAPE     P16486   4.718   3.136   7.213  0.1273 -0.0988  0.1757
  150SAPE   O1316487   4.701   3.051   7.334  0.0496  0.3107  0.1448
  150SAPE   O1416488   4.644   3.264   7.219 -0.1215  0.6875  0.0118
  150SAPE   O1216489   4.869   3.171   7.203  0.2119 -0.1575 -0.0979
  150SAPE   O1116490   4.689   3.052   7.079 -0.4431 -0.1105  0.1386
  150SAPE    C116491   4.734   2.917   7.061 -0.4731 -0.0463 -0.2944
  150SAPE    HA16492   4.816   2.905   6.987 -0.5376 -1.5428 -0.1650
  150SAPE    HB16493   4.762   2.869   7.157  1.4180 -0.6787 -1.1165
  150SAPE    C216494   4.616   2.827   7.009 -0.1700  0.2944  0.1371
  150SAPE    HS16495   4.643   2.721   7.029 -0.6563  0.6549  3.1197
  150SAPE   O2116496   4.595   2.847   6.872 -0.0647  0.4433 -0.2183
  150SAPE   C2116497   4.689   2.789   6.795  0.6607 -0.0212  0.4749
  150SAPE   O2216498   4.780   2.720   6.835  0.1305 -0.5171 -0.1707
  150SAPE   C2216499   4.656   2.827   6.652  0.0094  0.0077  0.0636
  150SAPE   H2R16500   4.547   2.814   6.635 -0.3204 -2.0765  2.9147
  150SAPE   H2S16501   4.692   2.931   6.638  0.6634 -0.3835 -1.2742
  150SAPE    C316502   4.482   2.853   7.084  0.6182  0.0621 -0.3232
  150SAPE    HX16503   4.466   2.963   7.092  1.0943  0.0137  1.7791
  150SAPE    HY16504   4.497   2.830   7.192 -0.4149 -0.8538 -0.3591
  150SAPE   O3116505   4.366   2.782   7.039  0.2037  0.6459  0.5412
  150SAPE   C3116506   4.295   2.828   6.941 -0.0503 -0.2086 -0.0118
  150SAPE   O3216507   4.329   2.922   6.870 -0.4125 -0.0679  0.3442
  150SAPE   C3216508   4.173   2.740   6.917 -0.0646  0.1874 -0.0574
  150SAPE   H2X16509   4.116   2.729   7.011 -0.5002  0.8816 -0.2362
  150SAPE   H2Y16510   4.215   2.639   6.900 -2.2995 -1.0435  1.2917
  150SAPE   C2316511   4.739   2.747   6.548  0.3579  0.6313 -0.4593
  150SAPE   H3R16512   4.845   2.739   6.581  0.1019  2.7526  1.1044
  150SAPE   H3S16513   4.736   2.783   6.443  0.5609 -1.1610 -1.1190
  150SAPE   C2416514   4.677   2.604   6.526 -0.4914 -0.2948  0.0673
  150SAPE   H4R16515   4.689   2.547   6.621  0.5485  0.3126  0.3225
  150SAPE   H4S16516   4.749   2.551   6.461 -1.4223 -1.0982 -0.3325
  150SAPE   C2516517   4.531   2.595   6.490 -0.1201  0.1010  0.1885
  150SAPE   H5R16518   4.456   2.597   6.570 -0.3253  0.9451 -0.0162
  150SAPE   C2616519   4.478   2.589   6.364 -0.3931  1.0259  0.3451
  150SAPE   H6R16520   4.370   2.581   6.345 -0.3773  0.7630  0.3689
  150SAPE   C2716521   4.565   2.599   6.242  0.8976 -0.3150 -0.1277
  150SAPE   H7R16522   4.591   2.494   6.213 -2.2117 -1.5353  1.0566
  150SAPE   H7S16523   4.662   2.646   6.269  1.0077  0.9107 -2.4417
  150SAPE   C2816524   4.503   2.681   6.127  0.7542  0.6574 -0.3761
  150SAPE   H8R16525   4.418   2.747   6.152 -0.5165 -0.2409 -2.1233
  150SAPE   C2916526   4.534   2.655   6.001  0.4506 -0.2180  1.0730
  150SAPE   H9R16527   4.489   2.722   5.926 -0.5208  0.1332  1.9563
  150SAPE  C21016528   4.615   2.539   5.939 -0.3498  0.2449  0.6744
  150SAPE  H10R16529   4.625   2.459   6.016  2.3195 -0.2312 -0.0460
  150SAPE  H10S16530   4.716   2.577   5.912 -0.5364 -0.1697 -0.7028
  150SAPE  C21116531   4.564   2.475   5.814 -0.0481 -0.1072 -0.1180
  150SAPE  H11R16532   4.500   2.386   5.817 -0.6333  0.3093 -0.0648
  150SAPE  C21216533   4.612   2.496   5.692  0.3217 -0.2971  0.9900
  150SAPE  H12R16534   4.574   2.427   5.615  0.1713  0.8309  0.0141
  150SAPE  C21316535   4.727   2.591   5.657  0.0016 -0.3812  0.2235
  150SAPE  H13R16536   4.748   2.659   5.742  0.7666 -1.4686  0.9205
  150SAPE  H13S16537   4.685   2.650   5.572 -2.0322 -0.5883  1.0131
  150SAPE  C21416538   4.844   2.513   5.616 -0.9483  0.8557  0.1486
  150SAPE  H14R16539   4.829   2.452   5.526  0.3493 -1.0579  1.1652
  150SAPE  C21516540   4.967   2.513   5.667  0.3214  0.8744  0.1632
  150SAPE  H15R16541   5.048   2.458   5.617 -0.7171 -2.4015  1.7944
  150SAPE  C21616542   5.019   2.604   5.781  0.0667  0.2567  0.4011
  150SAPE  H16R16543   4.960   2.697   5.794 -1.0675 -0.5050  0.8602
  150SAPE  H16S16544   5.115   2.654   5.755 -0.9823  2.2400  0.1133
  150SAPE  C21716545   5.026   2.535   5.912 -0.0462  0.3853 -0.1112
  150SAPE  H17R16546   5.098   2.450   5.913 -1.0592 -0.5374  2.0498
  150SAPE  H17S16547   4.931   2.483   5.937 -0.3528  0.8769 -0.2388
  150SAPE  C21816548   5.068   2.633   6.027  0.1732 -0.2711  0.3448
  150SAPE  H18R16549   4.999   2.720   6.016  0.3230 -0.1006  0.7172
  150SAPE  H18S16550   5.171   2.669   6.008  0.6313 -1.1211  1.1142
  150SAPE  C21916551   5.069   2.558   6.161  0.4273 -0.1768 -0.0262
  150SAPE  H19R16552   5.154   2.488   6.179  1.4336  0.9206 -0.3985
  150SAPE  H19S16553   4.973   2.504   6.175  0.9620 -2.0394 -2.7846
  150SAPE  C22016554   5.075   2.662   6.279 -0.0636  0.3150  0.0823
  150SAPE  H20R16555   5.076   2.621   6.383  2.2121  0.4672  0.1760
  150SAPE  H20S16556   4.990   2.732   6.272 -0.9832 -0.7996 -0.2903
  150SAPE  H20T16557   5.172   2.717   6.276 -0.3456  0.7587 -1.2240
  150SAPE   C3316558   4.072   2.775   6.804 -0.1966  0.3277  0.1960
  150SAPE   H3X16559   4.044   2.882   6.794 -1.8434 -0.0512  0.3783
  150SAPE   H3Y16560   3.976   2.725   6.831 -0.7136  0.0258 -2.0195
  150SAPE   C3416561   4.124   2.718   6.671  0.1672  0.1688 -0.7353
  150SAPE   H4X16562   4.121   2.607   6.679 -0.3470  0.2396  0.1174
  150SAPE   H4Y16563   4.230   2.751   6.656  0.0595  2.9522  3.1839
  150SAPE   C3516564   4.047   2.778   6.553 -0.6969  0.2755 -0.2421
  150SAPE   H5X16565   4.051   2.888   6.544 -3.1627  0.3465 -1.0934
  150SAPE   H5Y16566   3.940   2.751   6.563 -0.7369  0.7443  0.7387
  150SAPE   C3616567   4.099   2.711   6.423  0.0877 -0.0282 -0.0868
  150SAPE   H6X16568   4.072   2.604   6.424  1.2463 -0.3356 -0.2896
  150SAPE   H6Y16569   4.210   2.721   6.424  0.1503  0.5963  3.7643
  150SAPE   C3716570   4.050   2.788   6.300  0.5998 -0.0411 -0.8685
  150SAPE   H7X16571   4.069   2.897   6.311  2.0433 -0.4536  1.3900
  150SAPE   H7Y16572   3.941   2.770   6.305  0.5428  0.5711  0.6315
  150SAPE   C3816573   4.089   2.742   6.157  0.7856 -0.3582  0.3454
  150SAPE   H8X16574   4.067   2.634   6.144  0.0092 -0.0623 -0.9658
  150SAPE   H8Y16575   4.197   2.764   6.147  0.7744  0.4719  1.7607
  150SAPE   C3916576   4.003   2.821   6.052 -1.4173  0.4853 -0.1419
  150SAPE   H9X16577   3.977   2.926   6.078  0.6523  1.4366 -1.6290
  150SAPE   H9Y16578   3.902   2.776   6.045 -1.7251  1.0564  0.5623
  150SAPE  C31016579   4.066   2.819   5.913  0.2607 -0.3608 -0.2815
  150SAPE  H10X16580   4.149   2.894   5.917 -0.5014  0.7287 -2.6491
  150SAPE  H10Y16581   3.987   2.850   5.841 -1.8599 -2.5160  0.9972
  150SAPE  C31116582   4.126   2.685   5.874 -0.2789  0.5982  0.4049
  150SAPE  H11X16583   4.055   2.608   5.910  1.0607 -1.4796 -1.1605
  150SAPE  H11Y16584   4.217   2.667   5.934  0.9438  1.3791 -1.1277
  150SAPE  C31216585   4.137   2.661   5.722  0.3374 -1.2674 -0.7239
  150SAPE  H12X16586   4.178   2.557   5.725  1.4992 -0.8267 -0.8824
  150SAPE  H12Y16587   4.227   2.718   5.691  1.2573 -0.9842  2.1714
  150SAPE  C31316588   4.012   2.683   5.647  0.3751 -0.2031  0.2664
  150SAPE  H13X16589   3.980   2.789   5.639  0.0630 -0.2986  0.2433
  150SAPE  H13Y16590   3.924   2.627   5.685 -0.4797  0.5549 -0.5736
  150SAPE  C31416591   4.015   2.627   5.504 -0.0292 -0.1094 -0.1950
  150SAPE  H14X16592   4.008   2.517   5.515  0.7908 -0.3521 -1.7994
  150SAPE  H14Y16593   4.120   2.649   5.475  0.0744 -0.8654 -0.4144
  150SAPE  C31516594   3.910   2.691   5.416  0.6980 -0.0293  0.2453
  150SAPE  H15X16595   3.949   2.796   5.419 -0.2251  0.3897 -1.3255
  150SAPE  H15Y16596   3.808   2.699   5.458  0.1213  1.2292 -1.2851
  150SAPE  C31616597   3.911   2.636   5.279  0.1685 -0.5230 -1.4030
  150SAPE  H16X16598   3.832   2.684   5.217 -0.9558 -1.1761 -0.5047
  150SAPE  H16Y16599   3.877   2.531   5.281 -0.3775 -0.3747  1.6021
  150SAPE  C31716600   4.047   2.629   5.202  0.1042 -0.6564  0.9285
  150SAPE  H17X16601   4.027   2.553   5.123  1.5631 -1.5267  1.3628
  150SAPE  H17Y16602   4.123   2.595   5.275 -0.7523 -1.3910  1.4912
  150SAPE  C31816603   4.090   2.763   5.148  0.1052 -0.5086 -0.2186
  150SAPE  H18X16604   4.007   2.804   5.087  0.1619 -1.0850 -0.6911
  150SAPE  H18Y16605   4.191   2.756   5.102  0.2034  0.0449 -0.0992
  150SAPE  H18Z16606   4.087   2.842   5.226 -0.6086  0.3963 -1.1387
  151SAPE     N16607   6.109   0.122   7.032 -0.9759 -0.0465  0.1774
  151SAPE   HN116608   6.066   0.028   7.042 -0.3388 -0.2656  0.9092
  151SAPE   HN216609   6.182   0.110   6.959 -1.1632  0.0613 -0.0264
  151SAPE   HN316610   6.150   0.153   7.123 -1.3257 -2.1460  1.0999
  151SAPE   C1216611   6.008   0.224   6.982 -0.3298 -0.4279  0.0739
  151SAPE  H12A16612   5.921   0.221   7.050  1.2826  0.4583  2.3257
  151SAPE  H12B16613   5.980   0.200   6.877 -1.5937 -0.4394  0.3967
  151SAPE   C1116614   6.079   0.362   6.980 -0.3933  0.1468  0.0528
  151SAPE  H11A16615   6.018   0.430   6.916 -2.0262 -2.0047 -0.7829
  151SAPE  H11B16616   6.186   0.355   6.952  0.0835 -0.9582  1.9698
  151SAPE     P16617   6.184   0.505   7.169 -0.0506  0.1493 -0.0186
  151SAPE   O1316618   6.128   0.575   7.287  0.6330 -0.2870 -0.1497
  151SAPE   O1416619   6.307   0.423   7.189  0.2441  0.3164  0.0814
  151SAPE   O1216620   6.077   0.405   7.113 -0.5433 -0.4734  0.2621
  151SAPE   O1116621   6.206   0.601   7.044 -0.0281 -0.5390  0.1396
  151SAPE    C116622   6.151   0.727   7.027  0.1299 -0.0109  0.2062
  151SAPE    HA16623   6.095   0.760   7.117  1.0680 -0.9056  1.1586
  151SAPE    HB16624   6.229   0.804   7.009  0.3795 -0.0757  0.9821
  151SAPE    C216625   6.047   0.737   6.907  0.3280 -0.2605  0.5214
  151SAPE    HS16626   5.962   0.670   6.930 -0.2457  0.6358  1.1056
  151SAPE   O2116627   6.112   0.695   6.787 -0.5158 -0.6970  0.2239
  151SAPE   C2116628   6.049   0.616   6.711  0.6533 -0.0198  0.3398
  151SAPE   O2216629   5.939   0.566   6.731  0.3936 -0.1688 -0.2000
  151SAPE   C2216630   6.118   0.605   6.583 -0.6482  0.4560  0.4303
  151SAPE   H2R16631   6.172   0.697   6.550  2.4064 -1.4458 -0.2965
  151SAPE   H2S16632   6.193   0.525   6.600 -1.6982 -0.4888  0.7173
  151SAPE    C316633   5.998   0.888   6.898  0.9177  0.3893  0.1178
  151SAPE    HX16634   6.090   0.948   6.884  0.2208  0.9922 -2.5011
  151SAPE    HY16635   5.947   0.924   6.990  1.6050 -1.6025  1.3329
  151SAPE   O3116636   5.917   0.920   6.786 -0.0249 -0.7484 -0.0229
  151SAPE   C3116637   5.795   0.875   6.785  0.3469 -0.5482  0.2984
  151SAPE   O3216638   5.736   0.817   6.873 -0.3248  0.2695  0.1755
  151SAPE   C3216639   5.745   0.900   6.640 -0.2819  0.3937  0.5185
  151SAPE   H2X16640   5.832   0.935   6.581  0.2802  0.9350  1.6557
  151SAPE   H2Y16641   5.664   0.976   6.649 -1.4172 -0.3166 -2.2738
  151SAPE   C2316642   6.023   0.563   6.468  0.2247  0.7510 -0.2240
  151SAPE   H3R16643   6.049   0.621   6.377 -2.2420  2.2246 -0.0842
  151SAPE   H3S16644   5.917   0.593   6.487 -0.5601 -1.3014 -1.1048
  151SAPE   C2416645   6.021   0.408   6.443 -0.8921 -0.8866  0.0218
  151SAPE   H4R16646   5.931   0.400   6.377 -0.2955  1.7227 -1.2165
  151SAPE   H4S16647   5.996   0.350   6.534  0.6440 -3.0824 -0.8687
  151SAPE   C2516648   6.139   0.349   6.369 -1.2153 -0.1927 -0.0235
  151SAPE   H5R16649   6.210   0.297   6.436 -1.6693  0.5597  1.0682
  151SAPE   C2616650   6.143   0.340   6.234  0.1327  0.2657 -0.7470
  151SAPE   H6R16651   6.225   0.299   6.172 -0.3589  0.6452 -1.6688
  151SAPE   C2716652   6.046   0.398   6.137  0.2898 -0.0414 -0.3624
  151SAPE   H7R16653   6.110   0.457   6.068  2.8765 -1.1511  0.9767
  151SAPE   H7S16654   5.983   0.469   6.196  0.3636 -0.6855  0.5003
  151SAPE   C2816655   5.959   0.296   6.068  0.0752 -0.0382  0.5764
  151SAPE   H8R16656   5.911   0.225   6.136 -0.5851 -1.6170 -1.4194
  151SAPE   C2916657   5.918   0.295   5.939  0.1506  0.5781  0.1706
  151SAPE   H9R16658   5.851   0.214   5.906 -0.4658  1.4229 -0.7229
  151SAPE  C21016659   5.969   0.391   5.833  0.0876  0.0833 -0.5911
  151SAPE  H10R16660   6.055   0.452   5.870 -0.3119  1.0344 -1.1810
  151SAPE  H10S16661   5.884   0.461   5.821  1.7462  2.2244 -0.6301
  151SAPE  C21116662   6.009   0.330   5.700 -0.4930 -0.1409 -0.7506
  151SAPE  H11R16663   6.106   0.277   5.698 -0.9088 -0.9647 -0.1000
  151SAPE  C21216664   5.935   0.329   5.593  0.7007 -0.9648  0.4085
  151SAPE  H12R16665   5.972   0.298   5.494  2.3530  2.7406 -0.2941
  151SAPE  C21316666   5.796   0.394   5.583 -0.2010  0.0613  0.1681
  151SAPE  H13R16667   5.800   0.501   5.552 -0.6746  0.6170  1.9166
  151SAPE  H13S16668   5.748   0.406   5.682  0.4736  2.5751  0.2555
  151SAPE  C21416669   5.702   0.305   5.496 -0.6668 -0.0356 -0.1918
  151SAPE  H14R16670   5.673   0.208   5.540 -0.4272  0.3910  0.9378
  151SAPE  C21516671   5.648   0.344   5.380  0.0471 -0.2305 -0.1062
  151SAPE  H15R16672   5.574   0.280   5.330 -1.2661  0.4687  0.8835
  151SAPE  C21616673   5.669   0.477   5.303 -0.7338  0.7672 -0.7690
  151SAPE  H16R16674   5.724   0.551   5.365  2.3934 -0.5821 -1.7364
  151SAPE  H16S16675   5.572   0.525   5.278 -0.4708  1.3685 -0.6466
  151SAPE  C21716676   5.765   0.458   5.179 -0.2713 -0.2175 -0.7082
  151SAPE  H17R16677   5.736   0.365   5.125  0.2494 -0.8393  0.0368
  151SAPE  H17S16678   5.864   0.430   5.222 -0.7018  0.6724  0.9777
  151SAPE  C21816679   5.775   0.577   5.088 -0.0449  0.2566  0.7705
  151SAPE  H18R16680   5.810   0.677   5.120  1.4556  0.9128 -2.4997
  151SAPE  H18S16681   5.671   0.576   5.050 -0.4159 -0.8889  1.7299
  151SAPE  C21916682   5.878   0.552   4.976  0.0522  0.7962  0.3425
  151SAPE  H19R16683   5.872   0.629   4.895 -0.1380 -0.2406 -0.6521
  151SAPE  H19S16684   5.866   0.459   4.918  1.4023  1.2940 -0.8022
  151SAPE  C22016685   6.023   0.544   5.032 -0.7333 -0.0355 -0.6905
  151SAPE  H20R16686   6.043   0.640   5.084  1.6061 -0.1780 -1.2234
  151SAPE  H20S16687   6.101   0.519   4.957  0.1167  1.1647 -0.2245
  151SAPE  H20T16688   6.030   0.460   5.105  2.4120  1.1482  0.5563
  151SAPE   C3316689   5.674   0.776   6.574  0.3250  0.4086 -0.0445
  151SAPE   H3X16690   5.584   0.752   6.635  0.7641 -0.3828  0.3137
  151SAPE   H3Y16691   5.736   0.684   6.570 -0.4973 -0.2335  1.1207
  151SAPE   C3416692   5.624   0.812   6.433  0.1909  0.2420 -0.4435
  151SAPE   H4X16693   5.609   0.922   6.434 -2.4325 -0.0478  1.4958
  151SAPE   H4Y16694   5.523   0.784   6.396  0.2353  2.5572 -2.6021
  151SAPE   C3516695   5.724   0.777   6.323  0.3050  0.4170  0.0138
  151SAPE   H5X16696   5.767   0.675   6.327  0.8517  0.5449 -1.8768
  151SAPE   H5Y16697   5.815   0.841   6.326  0.0394  0.7736  1.2826
  151SAPE   C3616698   5.657   0.780   6.186  0.1720  0.2789  0.4151
  151SAPE   H6X16699   5.649   0.891   6.178  0.8300  0.2765 -0.3499
  151SAPE   H6Y16700   5.554   0.740   6.172 -0.3768  1.2337  1.5418
  151SAPE   C3716701   5.733   0.733   6.062  0.4707 -0.5723  0.2575
  151SAPE   H7X16702   5.715   0.624   6.050 -1.1745 -0.1996 -0.9595
  151SAPE   H7Y16703   5.842   0.745   6.078  0.3095  2.4671 -0.4484
  151SAPE   C3816704   5.677   0.814   5.942 -0.5274  0.3579  0.7937
  151SAPE   H8X16705   5.716   0.916   5.963  0.5876  0.2921 -0.7750
  151SAPE   H8Y16706   5.568   0.796   5.936 -0.2867 -0.7322 -0.9013
  151SAPE   C3916707   5.736   0.773   5.805 -0.6524  0.3752  0.3670
  151SAPE   H9X16708   5.698   0.673   5.775 -1.0739  0.4627  0.5904
  151SAPE   H9Y16709   5.846   0.783   5.804 -0.6921  0.8962  0.4702
  151SAPE  C31016710   5.689   0.870   5.702 -0.6864  0.2135  0.4654
  151SAPE  H10X16711   5.743   0.965   5.720  1.4070 -1.2482  2.4239
  151SAPE  H10Y16712   5.578   0.875   5.694 -0.7490 -0.1666  1.0383
  151SAPE  C31116713   5.740   0.827   5.563  0.0064  0.0838 -1.1930
  151SAPE  H11X16714   5.677   0.739   5.542 -2.0512  1.4094 -0.8442
  151SAPE  H11Y16715   5.849   0.807   5.553  0.6380  3.0641 -1.3303
  151SAPE  C31216716   5.705   0.944   5.465 -0.0065 -0.0050  1.1016
  151SAPE  H12X16717   5.730   1.045   5.504  0.5051  1.5236 -2.7341
  151SAPE  H12Y16718   5.597   0.933   5.444  0.0113  0.9547  0.4422
  151SAPE  C31316719   5.782   0.934   5.338  0.2264  0.8791  0.3262
  151SAPE  H13X16720   5.754   0.836   5.293  2.1204  1.0309 -1.3492
  151SAPE  H13Y16721   5.891   0.935   5.359  0.0212  0.6183  1.4719
  151SAPE  C31416722   5.752   1.050   5.239  0.0584 -0.5787  0.8228
  151SAPE  H14X16723   5.747   1.143   5.300 -1.8653  0.3933 -0.7025
  151SAPE  H14Y16724   5.651   1.039   5.195  0.3545 -0.9800  0.2242
  151SAPE  C31516725   5.865   1.055   5.129  0.2608 -0.0683 -0.5653
  151SAPE  H15X16726   5.864   0.950   5.093 -1.6681 -0.7189  1.1857
  151SAPE  H15Y16727   5.952   1.090   5.189 -0.5080 -0.8263  1.0524
  151SAPE  C31616728   5.845   1.161   5.025  0.2662  0.4155 -0.3164
  151SAPE  H16X16729   5.936   1.161   4.960  0.8277  0.0838  0.4583
  151SAPE  H16Y16730   5.837   1.263   5.067  1.2298 -0.5576  2.4543
  151SAPE  C31716731   5.726   1.128   4.930 -0.3742  0.7208 -0.1190
  151SAPE  H17X16732   5.636   1.159   4.987 -2.1485 -1.5380 -1.5536
  151SAPE  H17Y16733   5.721   1.020   4.909 -1.7100  1.1495 -2.2759
  151SAPE  C31816734   5.736   1.201   4.798  0.2341 -0.1772  0.5741
  151SAPE  H18X16735   5.811   1.160   4.728  1.4412  3.8072 -0.7624
  151SAPE  H18Y16736   5.743   1.312   4.809 -0.3106 -0.0112 -0.5449
  151SAPE  H18Z16737   5.644   1.187   4.738  1.4210  0.2802 -1.4547
  152SAPE     N16738   5.667   3.172   7.441 -0.5294  0.1926 -0.4754
  152SAPE   HN116739   5.628   3.239   7.510 -1.0432 -0.0409 -0.5303
  152SAPE   HN216740   5.716   3.232   7.373 -0.5529  0.3903 -0.3178
  152SAPE   HN316741   5.597   3.127   7.379  0.2604  0.5483 -1.6499
  152SAPE   C1216742   5.744   3.048   7.491  0.2604 -0.9104 -0.3394
  152SAPE  H12A16743   5.762   2.985   7.402 -1.6617 -0.3316 -1.1778
  152SAPE  H12B16744   5.679   2.988   7.559 -0.2927  0.4981  0.4014
  152SAPE   C1116745   5.870   3.080   7.564  0.5922 -0.0213  0.2929
  152SAPE  H11A16746   5.908   2.998   7.627  1.4747  0.6702  0.6804
  152SAPE  H11B16747   5.842   3.158   7.638 -2.0647 -1.4372  0.8928
  152SAPE     P16748   6.096   3.041   7.422  0.1977  0.2372  0.4184
  152SAPE   O1316749   6.212   3.130   7.408 -0.3144 -0.1893 -0.1890
  152SAPE   O1416750   6.107   2.920   7.509  0.2028  0.2833 -1.0494
  152SAPE   O1216751   5.970   3.122   7.473  0.0313 -0.6719 -0.4256
  152SAPE   O1116752   6.060   2.985   7.278  0.3131 -0.2601 -0.4683
  152SAPE    C116753   6.012   3.072   7.182  0.2390 -0.0474  0.6766
  152SAPE    HA16754   5.902   3.063   7.166  0.3582  0.0221 -0.2502
  152SAPE    HB16755   6.043   3.178   7.195 -2.6072  0.8735  0.6845
  152SAPE    C216756   6.081   3.024   7.049  0.5865 -0.7980  0.1820
  152SAPE    HS16757   6.025   3.085   6.974  3.4245  0.7157 -0.8444
  152SAPE   O2116758   6.076   2.885   7.041  0.4841  0.2747 -0.6584
  152SAPE   C2116759   6.060   2.845   6.920 -0.3329  0.4351  0.4693
  152SAPE   O2216760   6.057   2.912   6.819  0.2902  0.2646 -0.1505
  152SAPE   C2216761   6.067   2.689   6.916 -0.3775  0.2509  0.0093
  152SAPE   H2R16762   6.176   2.666   6.910 -0.0948  1.3274  0.7483
  152SAPE   H2S16763   6.022   2.649   7.009 -0.7812 -0.1639 -0.3585
  152SAPE    C316764   6.227   3.071   7.040 -0.6546  0.3034 -0.4789
  152SAPE    HX16765   6.281   2.994   7.100 -1.9434 -1.6059 -1.6527
  152SAPE    HY16766   6.233   3.174   7.081 -2.1352  0.5950 -0.9625
  152SAPE   O3116767   6.273   3.076   6.909 -0.5613  0.6434 -0.3445
  152SAPE   C3116768   6.216   3.175   6.836  0.2421  0.6558  0.1041
  152SAPE   O3216769   6.144   3.264   6.880 -0.3263  0.3734 -0.4357
  152SAPE   C3216770   6.237   3.146   6.693  0.0552 -0.0017 -0.8157
  152SAPE   H2X16771   6.188   3.051   6.665 -0.4855  0.0411 -0.0506
  152SAPE   H2Y16772   6.348   3.138   6.685  0.1790  1.2404 -0.5899
  152SAPE   C2316773   6.012   2.622   6.787 -0.0100  0.7557 -0.1156
  152SAPE   H3R16774   6.041   2.514   6.793  3.0900  1.4627 -0.6004
  152SAPE   H3S16775   6.051   2.666   6.693 -1.0480 -0.2269 -1.0250
  152SAPE   C2416776   5.857   2.629   6.783  0.3528  0.3886  0.3144
  152SAPE   H4R16777   5.835   2.735   6.758  2.7092  0.9860  0.4641
  152SAPE   H4S16778   5.831   2.617   6.890  0.6125 -0.9430  0.2381
  152SAPE   C2516779   5.793   2.533   6.687 -0.0923  0.3125 -0.5650
  152SAPE   H5R16780   5.783   2.429   6.721 -0.0295  0.3337 -0.4835
  152SAPE   C2616781   5.766   2.550   6.554 -0.2197 -0.4789  0.1388
  152SAPE   H6R16782   5.719   2.466   6.502 -0.5902 -0.8059  0.9714
  152SAPE   C2716783   5.789   2.675   6.471  0.2741  0.7618  0.1968
  152SAPE   H7R16784   5.839   2.748   6.538  0.9744 -0.4186  1.0117
  152SAPE   H7S16785   5.697   2.732   6.450 -0.7796 -0.7586  0.5195
  152SAPE   C2816786   5.862   2.653   6.344  0.2153 -0.4796 -0.2908
  152SAPE   H8R16787   5.934   2.570   6.334 -1.3732 -1.6880 -2.8468
  152SAPE   C2916788   5.842   2.715   6.226 -0.2020  0.4740 -0.2701
  152SAPE   H9R16789   5.906   2.675   6.146  0.9806 -1.5225  1.5598
  152SAPE  C21016790   5.767   2.844   6.201 -0.2932  0.1018  0.0723
  152SAPE  H10R16791   5.849   2.918   6.193  1.1528 -1.5932 -2.3396
  152SAPE  H10S16792   5.694   2.867   6.282 -0.8607  0.7938 -0.6289
  152SAPE  C21116793   5.694   2.859   6.071 -0.2178  0.2724 -0.0689
  152SAPE  H11R16794   5.589   2.825   6.074  0.2182 -1.5180 -2.3033
  152SAPE  C21216795   5.733   2.903   5.954  0.2769 -0.1759  0.5530
  152SAPE  H12R16796   5.658   2.901   5.873  1.9132  0.2432 -1.0311
  152SAPE  C21316797   5.872   2.951   5.912  0.4270  0.0930 -0.4887
  152SAPE  H13R16798   5.935   2.863   5.891 -2.3656 -2.1874  0.0450
  152SAPE  H13S16799   5.920   3.008   5.995 -0.7581 -1.5750  1.4311
  152SAPE  C21416800   5.871   3.039   5.792  0.8855 -0.4050  0.4301
  152SAPE  H14R16801   5.891   3.146   5.810  4.8125 -0.5976 -1.8208
  152SAPE  C21516802   5.897   3.015   5.662  0.1495 -0.4595 -0.4363
  152SAPE  H15R16803   5.910   3.099   5.592  5.7082  0.6149  1.4024
  152SAPE  C21616804   5.907   2.883   5.594  0.0301  0.7368  0.2315
  152SAPE  H16R16805   5.903   2.884   5.483 -0.3070 -3.0050  0.0819
  152SAPE  H16S16806   5.829   2.818   5.639 -1.0259  0.7168 -1.5512
  152SAPE  C21716807   6.045   2.824   5.619  0.2574 -0.8674 -0.3550
  152SAPE  H17R16808   6.066   2.838   5.728  1.5709  0.7418 -0.7771
  152SAPE  H17S16809   6.128   2.870   5.562 -0.3711 -0.3334 -0.8427
  152SAPE  C21816810   6.055   2.676   5.570 -0.1211  1.1148 -0.8582
  152SAPE  H18R16811   6.013   2.664   5.467 -1.3284 -0.6663 -0.2029
  152SAPE  H18S16812   5.987   2.624   5.641  0.7052  2.1101  0.7185
  152SAPE  C21916813   6.193   2.611   5.569  0.0066 -0.1627  0.7364
  152SAPE  H19R16814   6.238   2.612   5.671  0.3172  0.4203  0.5981
  152SAPE  H19S16815   6.264   2.662   5.500  1.4376 -2.2000  0.6171
  152SAPE  C22016816   6.176   2.473   5.503 -0.4963 -0.2886  0.1626
  152SAPE  H20R16817   6.267   2.410   5.489  0.6921  1.4344 -0.1368
  152SAPE  H20S16818   6.126   2.487   5.405 -2.6714 -1.5217  1.0397
  152SAPE  H20T16819   6.114   2.424   5.581  0.9271 -2.3081  0.0966
  152SAPE   C3316820   6.190   3.259   6.594 -0.2971  0.2377 -1.2342
  152SAPE   H3X16821   6.240   3.354   6.618 -0.5470  0.0103  0.2626
  152SAPE   H3Y16822   6.082   3.279   6.614 -0.0321  0.0767  0.5156
  152SAPE   C3416823   6.213   3.222   6.446  0.0033  0.4190  0.3359
  152SAPE   H4X16824   6.318   3.202   6.415 -0.4055 -0.9504 -0.2246
  152SAPE   H4Y16825   6.190   3.317   6.394 -3.8279 -1.4286 -1.7569
  152SAPE   C3516826   6.119   3.101   6.393 -0.4475 -0.5675  0.5839
  152SAPE   H5X16827   6.013   3.134   6.400 -0.0738  0.7253  0.4125
  152SAPE   H5Y16828   6.132   3.024   6.471 -1.1693 -1.2103  0.0773
  152SAPE   C3616829   6.161   3.051   6.252 -0.4836  0.1643 -0.6667
  152SAPE   H6X16830   6.109   2.959   6.218 -0.4359 -0.8689  1.7864
  152SAPE   H6Y16831   6.265   3.019   6.276 -1.7231 -3.2331  0.8778
  152SAPE   C3716832   6.139   3.158   6.147  0.6412  0.1347  0.2857
  152SAPE   H7X16833   6.192   3.251   6.176  0.2587  0.9161 -1.3992
  152SAPE   H7Y16834   6.031   3.184   6.137  0.2477 -1.7174 -0.5472
  152SAPE   C3816835   6.189   3.109   6.011  1.0849  0.0988  0.7421
  152SAPE   H8X16836   6.127   3.023   5.977  1.5737  0.7960 -2.2328
  152SAPE   H8Y16837   6.292   3.067   6.019  1.7024  1.4919  0.4372
  152SAPE   C3916838   6.194   3.213   5.900  0.3660 -0.2550  0.5384
  152SAPE   H9X16839   6.231   3.310   5.940  1.1659 -0.2614 -0.1700
  152SAPE   H9Y16840   6.087   3.232   5.876  0.2669 -3.1547 -1.9316
  152SAPE  C31016841   6.261   3.181   5.770  0.2143 -0.0591 -0.2085
  152SAPE  H10X16842   6.276   3.072   5.756 -1.6460 -0.4393  0.4668
  152SAPE  H10Y16843   6.360   3.231   5.770 -0.6275  1.6841 -0.0808
  152SAPE  C31116844   6.191   3.242   5.655  0.5776  0.0209  0.5512
  152SAPE  H11X16845   6.197   3.352   5.663  3.9502 -0.0408  0.1446
  152SAPE  H11Y16846   6.086   3.205   5.663  0.8473 -0.9054  0.0078
  152SAPE  C31216847   6.253   3.191   5.530 -0.0171  0.7669  1.0094
  152SAPE  H12X16848   6.246   3.080   5.532 -0.7927  0.8101  1.1656
  152SAPE  H12Y16849   6.363   3.206   5.533 -0.1455  1.5715  2.3028
  152SAPE  C31316850   6.178   3.231   5.405  0.0839 -0.0845 -0.7422
  152SAPE  H13X16851   6.256   3.249   5.328  2.2051  1.4940  1.5857
  152SAPE  H13Y16852   6.126   3.329   5.416  0.5922  0.2333 -1.1217
  152SAPE  C31416853   6.074   3.119   5.355  0.2151 -0.2242 -0.0082
  152SAPE  H14X16854   6.050   3.056   5.443  0.8086 -1.8305 -0.9526
  152SAPE  H14Y16855   6.122   3.047   5.285  0.5704  1.0436 -1.1186
  152SAPE  C31516856   5.942   3.179   5.310 -0.3438  0.3586 -0.1600
  152SAPE  H15X16857   5.961   3.278   5.263  2.1785  1.0250  2.0416
  152SAPE  H15Y16858   5.885   3.212   5.399  0.9806  1.1102  0.4508
  152SAPE  C31616859   5.849   3.093   5.237  0.6199  0.9774 -0.3699
  152SAPE  H16X16860   5.741   3.118   5.240 -0.2029 -1.7960 -2.2081
  152SAPE  H16Y16861   5.852   2.992   5.283  1.9213  0.2044 -2.0188
  152SAPE  C31716862   5.880   3.079   5.085 -0.1771  0.5359  0.2652
  152SAPE  H17X16863   5.985   3.049   5.065 -1.2030 -1.2979 -3.4698
  152SAPE  H17Y16864   5.854   3.179   5.045  2.6193  0.9758 -0.6785
  152SAPE  C31816865   5.789   2.981   5.009 -0.3832  0.2301  0.0077
  152SAPE  H18X16866   5.808   2.979   4.900 -2.2754  0.4483 -0.3694
  152SAPE  H18Y16867   5.681   2.999   5.030 -0.5546 -1.3018  0.5590
  152SAPE  H18Z16868   5.824   2.883   5.047  1.0683  0.3838 -0.8946
  153SAPE     N16869   4.187   2.550   7.469 -0.5902 -0.4033  0.1248
  153SAPE   HN116870   4.166   2.450   7.448 -0.3058 -0.1551 -1.4958
  153SAPE   HN216871   4.172   2.583   7.567 -1.2299 -0.6595  0.1120
  153SAPE   HN316872   4.129   2.600   7.400 -0.8317  2.4936  2.2478
  153SAPE   C1216873   4.337   2.573   7.450  0.2106 -0.0505  0.0615
  153SAPE  H12A16874   4.391   2.527   7.536  1.6876  0.1416 -0.7164
  153SAPE  H12B16875   4.351   2.681   7.472 -0.4531  0.2133 -0.7976
  153SAPE   C1116876   4.394   2.535   7.310 -0.6074 -0.2964  0.1811
  153SAPE  H11A16877   4.494   2.583   7.313 -0.2256 -1.1248  1.6866
  153SAPE  H11B16878   4.333   2.579   7.228 -0.7474 -0.9319 -0.0634
  153SAPE     P16879   4.521   2.304   7.267 -0.1276 -0.0125  0.6461
  153SAPE   O1316880   4.634   2.373   7.327 -0.2063 -0.9079 -0.4030
  153SAPE   O1416881   4.485   2.161   7.308 -0.1253 -0.3223 -0.5035
  153SAPE   O1216882   4.399   2.397   7.284  0.0955 -0.2413  0.1609
  153SAPE   O1116883   4.545   2.309   7.109  0.1396  0.7772 -0.1693
  153SAPE    C116884   4.563   2.431   7.035  0.3304  0.1232  0.2138
  153SAPE    HA16885   4.468   2.489   7.039  0.0224 -0.2055 -1.4287
  153SAPE    HB16886   4.634   2.504   7.079  0.2673  1.0603 -1.1480
  153SAPE    C216887   4.609   2.402   6.890  0.0562  0.1448  0.5328
  153SAPE    HS16888   4.601   2.497   6.833  0.1726 -0.8066 -1.1121
  153SAPE   O2116889   4.521   2.302   6.828  0.0375 -0.6030 -0.2003
  153SAPE   C2116890   4.409   2.362   6.784  0.4169 -0.6516 -0.5909
  153SAPE   O2216891   4.382   2.482   6.784 -0.0881 -0.0674 -0.0354
  153SAPE   C2216892   4.326   2.253   6.711 -0.4322  0.4148 -0.2216
  153SAPE   H2R16893   4.406   2.205   6.651  0.5493 -0.4582  1.6944
  153SAPE   H2S16894   4.292   2.175   6.781  1.9838 -1.0735 -0.5965
  153SAPE    C316895   4.759   2.364   6.884 -0.7656  0.3785 -0.2811
  153SAPE    HX16896   4.770   2.292   6.969  1.2740  1.4798  0.4792
  153SAPE    HY16897   4.826   2.453   6.893 -0.4215  0.2112 -1.1199
  153SAPE   O3116898   4.796   2.311   6.753 -0.1476  0.5313 -0.3662
  153SAPE   C3116899   4.813   2.183   6.746  0.2959 -0.1392 -0.3795
  153SAPE   O3216900   4.801   2.096   6.834 -0.1832 -0.5390 -0.0570
  153SAPE   C3216901   4.835   2.137   6.604 -0.2381 -0.5245 -0.2685
  153SAPE   H2X16902   4.831   2.027   6.590  1.1098 -0.4814 -1.1788
  153SAPE   H2Y16903   4.938   2.171   6.579 -0.3472 -0.8167 -1.1484
  153SAPE   C2316904   4.208   2.311   6.620  0.3000  0.1051  0.7022
  153SAPE   H3R16905   4.242   2.415   6.599 -0.8136  0.5902  1.2412
  153SAPE   H3S16906   4.120   2.327   6.685  0.2801  2.6356  0.1645
  153SAPE   C2416907   4.171   2.216   6.505  0.0553  0.3597  0.5409
  153SAPE   H4R16908   4.079   2.259   6.460  1.3802 -0.2475 -3.0522
  153SAPE   H4S16909   4.152   2.113   6.540  1.4776 -0.8724 -2.0680
  153SAPE   C2516910   4.287   2.214   6.409  0.4332 -0.6534 -0.2633
  153SAPE   H5R16911   4.375   2.162   6.448 -0.2059 -1.3073  0.3311
  153SAPE   C2616912   4.280   2.258   6.284 -0.1830 -0.1565  0.1370
  153SAPE   H6R16913   4.375   2.250   6.229 -0.7774 -0.1880 -0.9023
  153SAPE   C2716914   4.155   2.308   6.214 -0.0494  0.6516  0.1838
  153SAPE   H7R16915   4.097   2.373   6.284 -1.7143 -2.6949  2.1572
  153SAPE   H7S16916   4.084   2.228   6.184  2.4022 -1.2828 -0.7438
  153SAPE   C2816917   4.205   2.390   6.098 -0.7129  0.0610  0.4311
  153SAPE   H8R16918   4.250   2.488   6.119 -1.9497  1.0649 -1.2704
  153SAPE   C2916919   4.189   2.353   5.965 -0.0962  0.0919  0.8499
  153SAPE   H9R16920   4.223   2.411   5.878 -1.6072  1.2687  0.9970
  153SAPE  C21016921   4.129   2.221   5.909 -0.1893  0.0913 -0.0157
  153SAPE  H10R16922   4.070   2.168   5.986  0.3025  2.7724  2.3719
  153SAPE  H10S16923   4.219   2.157   5.900 -0.0974 -0.1309  2.0338
  153SAPE  C21116924   4.060   2.228   5.771  0.6230 -0.2575  0.3810
  153SAPE  H11R16925   3.951   2.233   5.776  0.5929  0.1170 -0.4050
  153SAPE  C21216926   4.117   2.239   5.651 -0.2590  0.4048  0.3337
  153SAPE  H12R16927   4.040   2.264   5.576  1.4239  3.3424 -0.5573
  153SAPE  C21316928   4.265   2.244   5.620  0.2739 -0.6137  0.0291
  153SAPE  H13R16929   4.295   2.144   5.582 -2.2425 -1.3721 -0.1870
  153SAPE  H13S16930   4.333   2.259   5.706  1.5514  0.7116 -1.1523
  153SAPE  C21416931   4.298   2.338   5.504 -0.1173 -0.2327  0.6114
  153SAPE  H14R16932   4.303   2.445   5.530  0.8897  0.7776 -3.1434
  153SAPE  C21516933   4.313   2.305   5.371 -0.1533 -0.0673 -0.2981
  153SAPE  H15R16934   4.317   2.388   5.299  0.7966 -1.1749 -1.5801
  153SAPE  C21616935   4.308   2.176   5.295 -0.7904 -0.2161  0.0170
  153SAPE  H16R16936   4.305   2.091   5.366  0.4612 -0.3784 -0.1079
  153SAPE  H16S16937   4.404   2.156   5.243 -0.6696 -0.6708  0.4159
  153SAPE  C21716938   4.192   2.165   5.197 -0.1630  0.4424 -0.0523
  153SAPE  H17R16939   4.220   2.227   5.109 -2.8617 -0.1856 -1.4712
  153SAPE  H17S16940   4.094   2.201   5.236 -0.8678  0.6888 -1.9446
  153SAPE  C21816941   4.164   2.020   5.141 -0.1661 -0.0941 -0.2330
  153SAPE  H18R16942   4.131   1.958   5.226 -1.7612  3.2864  1.8203
  153SAPE  H18S16943   4.265   1.985   5.109  0.7024 -0.7495  2.8657
  153SAPE  C21916944   4.055   2.011   5.026 -0.5859  1.0647 -0.1166
  153SAPE  H19R16945   4.086   2.081   4.946 -0.4368  0.9983 -0.1182
  153SAPE  H19S16946   3.954   2.037   5.064 -0.4947  0.1421  0.8282
  153SAPE  C22016947   4.041   1.869   4.961 -0.2058 -0.2177  0.1806
  153SAPE  H20R16948   3.959   1.860   4.887  1.2765  1.7904 -1.8677
  153SAPE  H20S16949   4.026   1.799   5.046  1.0003  3.0558  3.3857
  153SAPE  H20T16950   4.137   1.846   4.908 -0.8958 -3.7843  0.2234
  153SAPE   C3316951   4.728   2.209   6.515 -0.0392  0.3117  0.1950
  153SAPE   H3X16952   4.749   2.318   6.512 -0.7410  0.4693  0.7932
  153SAPE   H3Y16953   4.627   2.200   6.559 -0.6289 -1.2743 -1.3538
  153SAPE   C3416954   4.722   2.160   6.372  0.5169  0.1531  1.0394
  153SAPE   H4X16955   4.647   2.226   6.323  0.4617  0.2490  1.2496
  153SAPE   H4Y16956   4.688   2.055   6.361  0.8650  0.0063  1.3752
  153SAPE   C3516957   4.851   2.189   6.301  0.7964  0.7462  0.4270
  153SAPE   H5X16958   4.937   2.135   6.345  2.0147  0.3632 -2.2014
  153SAPE   H5Y16959   4.866   2.299   6.301 -1.2339  1.0989 -1.3603
  153SAPE   C3616960   4.850   2.155   6.148  0.6199 -0.4276  0.3381
  153SAPE   H6X16961   4.778   2.218   6.091  0.9121  0.6894  1.1541
  153SAPE   H6Y16962   4.825   2.048   6.137  0.2526 -0.3091 -0.0174
  153SAPE   C3716963   4.983   2.181   6.084 -0.0196  0.1006  0.7852
  153SAPE   H7X16964   5.055   2.115   6.137 -0.9476 -0.9667  0.7478
  153SAPE   H7Y16965   5.012   2.286   6.107  1.6367  0.1927 -1.3787
  153SAPE   C3816966   4.987   2.156   5.928 -0.1887 -0.1910  0.3723
  153SAPE   H8X16967   4.928   2.239   5.883  1.8289  1.2940  0.3130
  153SAPE   H8Y16968   4.939   2.057   5.912 -1.8221  0.8563 -1.6175
  153SAPE   C3916969   5.128   2.140   5.871  0.7192 -0.3479 -0.0558
  153SAPE   H9X16970   5.179   2.066   5.936 -1.2743  0.9054  3.1627
  153SAPE   H9Y16971   5.181   2.237   5.883 -1.1445  0.5898  0.9985
  153SAPE  C31016972   5.113   2.099   5.721  0.1837  0.4659 -0.8532
  153SAPE  H10X16973   5.065   2.173   5.653 -0.3711 -1.5973 -2.8402
  153SAPE  H10Y16974   5.068   1.998   5.713 -0.6753  0.9740 -3.4196
  153SAPE  C31116975   5.259   2.096   5.657  0.4517  0.5000 -0.0577
  153SAPE  H11X16976   5.250   2.033   5.566  1.4129  0.0233  0.1642
  153SAPE  H11Y16977   5.320   2.036   5.727  2.5518  1.5730 -0.8790
  153SAPE  C31216978   5.324   2.225   5.627  0.0085  0.1385  0.3508
  153SAPE  H12X16979   5.331   2.280   5.724  1.3660  0.3895  0.1332
  153SAPE  H12Y16980   5.243   2.279   5.573 -0.2681 -0.8452 -0.2365
  153SAPE  C31316981   5.452   2.235   5.548  0.7164  0.4353 -0.0761
  153SAPE  H13X16982   5.483   2.340   5.527  0.1902  0.2665 -1.9065
  153SAPE  H13Y16983   5.426   2.196   5.447 -1.5045  0.6468  0.3594
  153SAPE  C31416984   5.569   2.183   5.630  0.6713  0.6331 -0.3923
  153SAPE  H14X16985   5.565   2.072   5.635 -1.7337  0.7153  2.5652
  153SAPE  H14Y16986   5.557   2.208   5.737 -2.1926  1.7745 -0.9061
  153SAPE  C31516987   5.702   2.235   5.563  0.1325 -0.1168  0.2021
  153SAPE  H15X16988   5.696   2.345   5.565  2.1626  0.0326  1.5369
  153SAPE  H15Y16989   5.705   2.199   5.458  0.0733  0.3023  0.0583
  153SAPE  C31616990   5.818   2.190   5.652 -0.3510  0.0165 -0.2798
  153SAPE  H16X16991   5.913   2.204   5.596 -1.3345 -0.0384 -2.0286
  153SAPE  H16Y16992   5.811   2.082   5.678  0.6680  0.3621  1.7173
  153SAPE  C31716993   5.834   2.264   5.789  0.3464 -0.2179 -0.0488
  153SAPE  H17X16994   5.752   2.233   5.857  0.0407 -1.6696 -1.0275
  153SAPE  H17Y16995   5.823   2.374   5.776  0.5199 -0.2255 -0.2846
  153SAPE  C31816996   5.974   2.232   5.854  0.0681  0.2221 -0.3221
  153SAPE  H18X16997   6.065   2.251   5.793  0.4580  2.1089  0.7530
  153SAPE  H18Y16998   5.978   2.143   5.921 -0.5347 -0.7273 -1.5040
  153SAPE  H18Z16999   5.994   2.325   5.911 -0.4428 -0.6096  1.2638
  154SAPE     N17000   4.069   1.643   7.437 -0.2650 -0.4925 -0.1675
  154SAPE   HN117001   4.123   1.731   7.421 -0.1739 -0.2835  1.2224
  154SAPE   HN217002   4.024   1.623   7.345  0.0763  1.4689 -0.8304
  154SAPE   HN317003   3.983   1.669   7.489 -1.2697 -0.1747 -1.8730
  154SAPE   C1217004   4.151   1.535   7.496 -0.6791 -0.1275  0.0487
  154SAPE  H12A17005   4.079   1.464   7.541 -0.4020 -1.5296 -1.6369
  154SAPE  H12B17006   4.217   1.572   7.577 -0.6672 -0.0818  0.0182
  154SAPE   C1117007   4.218   1.435   7.396 -0.2868 -0.7484 -0.4499
  154SAPE  H11A17008   4.263   1.358   7.464 -0.9071 -0.1866  0.6291
  154SAPE  H11B17009   4.293   1.494   7.340  2.0885 -2.4152  0.7643
  154SAPE     P17010   4.175   1.267   7.216  0.4548 -0.2865  0.5293
  154SAPE   O1317011   4.298   1.216   7.276 -0.3456 -0.0306  0.6946
  154SAPE   O1417012   4.075   1.160   7.189 -0.5547 -0.2771  0.1756
  154SAPE   O1217013   4.113   1.371   7.315  0.1607  0.4506 -0.1464
  154SAPE   O1117014   4.205   1.345   7.083  0.1853 -0.2951  0.3387
  154SAPE    C117015   4.199   1.491   7.069 -0.7794  0.3430  0.3083
  154SAPE    HA17016   4.121   1.534   7.135 -3.0027 -2.8652  0.0181
  154SAPE    HB17017   4.297   1.529   7.104 -1.3827  1.1477  1.1655
  154SAPE    C217018   4.159   1.542   6.929 -0.0796 -0.0051  0.3865
  154SAPE    HS17019   4.144   1.652   6.936 -0.3369 -0.1091  1.7991
  154SAPE   O2117020   4.046   1.474   6.885  0.5500  0.3170 -0.0006
  154SAPE   C2117021   3.922   1.505   6.938  0.0363  0.5798 -0.3484
  154SAPE   O2217022   3.903   1.601   7.014  0.2650 -0.0892  0.3537
  154SAPE   C2217023   3.809   1.415   6.884 -0.0946 -0.0313  0.0418
  154SAPE   H2R17024   3.829   1.420   6.775  0.7861  2.7686  0.2603
  154SAPE   H2S17025   3.836   1.316   6.929  1.8218 -0.0174 -0.9465
  154SAPE    C317026   4.279   1.517   6.834 -0.0823  0.3456 -0.3523
  154SAPE    HX17027   4.311   1.412   6.848  0.1761  0.5256  0.4909
  154SAPE    HY17028   4.371   1.571   6.868  0.1819 -0.9959  1.2059
  154SAPE   O3117029   4.253   1.557   6.695  0.1423 -0.0403 -0.0538
  154SAPE   C3117030   4.210   1.465   6.619 -0.9267 -0.2361 -0.2522
  154SAPE   O3217031   4.188   1.345   6.646  0.0163 -0.1473 -0.2071
  154SAPE   C3217032   4.180   1.522   6.481  0.0690  0.0007 -0.1065
  154SAPE   H2X17033   4.274   1.545   6.427  0.4160  0.7050  0.7556
  154SAPE   H2Y17034   4.119   1.615   6.491 -0.0309 -0.0919  0.1473
  154SAPE   C2317035   3.667   1.464   6.921  0.7082  0.5863 -0.0337
  154SAPE   H3R17036   3.652   1.574   6.909 -2.0997  0.1760 -0.7477
  154SAPE   H3S17037   3.660   1.441   7.030 -0.6272 -0.3308 -0.2985
  154SAPE   C2417038   3.552   1.401   6.833 -0.2433 -0.2255 -0.1906
  154SAPE   H4R17039   3.576   1.425   6.727 -0.4905  0.2240 -0.1497
  154SAPE   H4S17040   3.464   1.454   6.874  0.4706 -0.1329  1.3052
  154SAPE   C2517041   3.535   1.258   6.866  0.7069  0.4178  0.4585
  154SAPE   H5R17042   3.507   1.233   6.969 -2.2761  0.7719 -0.1661
  154SAPE   C2617043   3.584   1.156   6.789  0.1571 -0.0662 -0.0953
  154SAPE   H6R17044   3.581   1.052   6.825  0.0701  0.0561  0.2642
  154SAPE   C2717045   3.653   1.168   6.656  0.3838  0.0071  0.6293
  154SAPE   H7R17046   3.663   1.276   6.633 -0.1998 -0.0218  0.2099
  154SAPE   H7S17047   3.589   1.108   6.587  1.8858 -1.1115  0.1325
  154SAPE   C2817048   3.789   1.110   6.656  1.1318  0.2945  0.2733
  154SAPE   H8R17049   3.830   1.093   6.756  2.9921 -0.9668 -0.6432
  154SAPE   C2917050   3.872   1.101   6.550  0.1594  0.2920  0.0261
  154SAPE   H9R17051   3.969   1.053   6.565  0.3175  0.6208  0.0718
  154SAPE  C21017052   3.837   1.124   6.400  0.3297 -0.2686 -0.4781
  154SAPE  H10R17053   3.918   1.187   6.358 -1.5002  2.0370 -0.7539
  154SAPE  H10S17054   3.759   1.203   6.400  0.7590  0.1625 -0.1636
  154SAPE  C21117055   3.799   1.007   6.323  0.5521 -0.1086 -0.4020
  154SAPE  H11R17056   3.885   0.941   6.303 -0.6320 -1.6539 -0.5626
  154SAPE  C21217057   3.683   0.990   6.243 -0.7834  0.0387 -0.3283
  154SAPE  H12R17058   3.678   0.894   6.190  2.0369 -0.0200 -0.6645
  154SAPE  C21317059   3.569   1.088   6.244  0.4807  1.2426  0.0634
  154SAPE  H13R17060   3.603   1.192   6.225  3.3521  0.5530  0.8934
  154SAPE  H13S17061   3.521   1.091   6.344 -1.1791  0.6689 -0.6787
  154SAPE  C21417062   3.461   1.043   6.146 -0.1048  0.3629  0.3332
  154SAPE  H14R17063   3.371   1.001   6.193  0.5869 -1.1782  0.3603
  154SAPE  C21517064   3.462   1.032   6.009 -0.2275 -0.3453 -0.2143
  154SAPE  H15R17065   3.372   0.999   5.955 -2.5579  2.6694  1.4879
  154SAPE  C21617066   3.577   1.065   5.917 -0.0009 -0.1279  0.0523
  154SAPE  H16R17067   3.665   1.092   5.979 -1.3098 -1.4748  2.6406
  154SAPE  H16S17068   3.545   1.146   5.848 -2.4378 -2.6134 -2.0063
  154SAPE  C21717069   3.622   0.953   5.826  0.2818 -0.1712 -0.7571
  154SAPE  H17R17070   3.536   0.911   5.769  0.6690  1.8216 -2.9925
  154SAPE  H17S17071   3.667   0.878   5.894  0.4176  1.3844  0.9191
  154SAPE  C21817072   3.724   1.000   5.722 -0.4339  0.9240  0.5923
  154SAPE  H18R17073   3.813   1.044   5.771 -0.0560 -1.2078  1.9239
  154SAPE  H18S17074   3.674   1.086   5.671 -0.7028 -1.4070 -3.5326
  154SAPE  C21917075   3.773   0.889   5.630 -0.6978  0.1614  0.3536
  154SAPE  H19R17076   3.688   0.830   5.588  0.6450 -0.6441 -1.3783
  154SAPE  H19S17077   3.841   0.829   5.694  0.6725 -0.3007 -1.4310
  154SAPE  C22017078   3.859   0.939   5.514 -0.3786 -0.6712  0.4030
  154SAPE  H20R17079   3.932   0.867   5.471  1.4306  0.9116  0.6954
  154SAPE  H20S17080   3.914   1.029   5.549  2.5807 -1.9768 -0.6183
  154SAPE  H20T17081   3.792   0.976   5.433  1.0272 -0.8335 -0.8923
  154SAPE   C3317082   4.099   1.419   6.399  0.3244 -0.3995  0.0592
  154SAPE   H3X17083   4.015   1.392   6.467  0.2438 -3.5411 -1.1264
  154SAPE   H3Y17084   4.157   1.326   6.381  0.1064 -1.0424  2.4144
  154SAPE   C3417085   4.058   1.469   6.258  0.0953  0.6124  0.0026
  154SAPE   H4X17086   4.144   1.495   6.193 -0.0652 -1.6238 -1.2059
  154SAPE   H4Y17087   4.004   1.565   6.276  1.4680  2.1245 -3.1446
  154SAPE   C3517088   3.958   1.375   6.185 -0.2216 -0.7781 -0.6096
  154SAPE   H5X17089   3.866   1.358   6.245 -2.0868  0.0400 -3.0823
  154SAPE   H5Y17090   4.010   1.277   6.175 -0.5193 -0.7175 -3.4463
  154SAPE   C3617091   3.922   1.443   6.053 -0.2636 -0.2235  1.0700
  154SAPE   H6X17092   4.010   1.470   5.991 -0.3308 -1.4203  0.4167
  154SAPE   H6Y17093   3.865   1.536   6.069  1.4127  0.8434  1.0938
  154SAPE   C3717094   3.829   1.349   5.975  0.2650  0.2082  0.1610
  154SAPE   H7X17095   3.736   1.328   6.032  0.5408 -0.5164  0.3592
  154SAPE   H7Y17096   3.882   1.252   5.960  3.8400  1.7843  1.4558
  154SAPE   C3817097   3.799   1.405   5.834 -0.3694  0.3277  0.3200
  154SAPE   H8X17098   3.754   1.505   5.851 -0.6049  0.2121  0.3800
  154SAPE   H8Y17099   3.726   1.333   5.791 -0.3620 -0.0709  0.9571
  154SAPE   C3917100   3.919   1.417   5.733  0.1498  0.5901 -0.2359
  154SAPE   H9X17101   3.999   1.341   5.742  1.4978  2.1057  1.9127
  154SAPE   H9Y17102   3.973   1.514   5.743 -0.3014  1.1010 -2.3399
  154SAPE  C31017103   3.860   1.415   5.593  0.0363  0.1673 -0.4696
  154SAPE  H10X17104   3.777   1.486   5.574  0.3569  0.6556 -0.0765
  154SAPE  H10Y17105   3.822   1.313   5.572  0.7702 -0.6591  1.9339
  154SAPE  C31117106   3.965   1.439   5.479  0.0469 -0.5328  0.2231
  154SAPE  H11X17107   4.036   1.354   5.468  0.4784 -0.4372  1.9320
  154SAPE  H11Y17108   4.012   1.530   5.524  0.0879 -0.1323 -0.6201
  154SAPE  C31217109   3.899   1.484   5.341  0.0054 -0.1956  0.1301
  154SAPE  H12X17110   3.985   1.521   5.280 -1.2786  1.6551 -0.6500
  154SAPE  H12Y17111   3.820   1.560   5.356  0.7047  0.2000  2.1241
  154SAPE  C31317112   3.845   1.363   5.263  0.0705 -0.5732  0.0403
  154SAPE  H13X17113   3.783   1.403   5.180  0.0755  0.6814  0.6112
  154SAPE  H13Y17114   3.771   1.307   5.324  0.1003  0.2940  0.9036
  154SAPE  C31417115   3.958   1.271   5.208 -0.3454 -1.2665 -0.3555
  154SAPE  H14X17116   4.013   1.227   5.295  0.4567 -1.6781 -1.0572
  154SAPE  H14Y17117   4.025   1.331   5.144 -1.0015 -0.6306 -0.4647
  154SAPE  C31517118   3.894   1.150   5.140  0.0163  0.0438 -0.0681
  154SAPE  H15X17119   3.793   1.177   5.102  1.1628  1.3404 -2.4751
  154SAPE  H15Y17120   3.868   1.076   5.219 -0.6047  0.3742  0.0480
  154SAPE  C31617121   3.980   1.093   5.024 -0.0226  0.3063  0.1021
  154SAPE  H16X17122   4.066   1.041   5.071 -0.3398  0.7586  1.2107
  154SAPE  H16Y17123   4.015   1.179   4.963  0.8240  2.6805  3.5890
  154SAPE  C31717124   3.910   0.990   4.937  0.2626  0.2675 -0.5528
  154SAPE  H17X17125   3.979   0.968   4.852  2.0991  2.9328  0.1484
  154SAPE  H17Y17126   3.829   1.047   4.887  0.8306  0.0312 -1.8013
  154SAPE  C31817127   3.879   0.857   5.004 -0.5640  1.0417  0.2837
  154SAPE  H18X17128   3.796   0.809   4.948 -0.4456  0.7799  0.3304
  154SAPE  H18Y17129   3.844   0.874   5.108  1.8890  0.8873  1.2142
  154SAPE  H18Z17130   3.962   0.783   5.012 -0.9590  0.2533 -2.0217
  155SAPE     N17131   4.565   1.196   7.317 -0.1930 -0.0583  0.6493
  155SAPE   HN117132   4.573   1.268   7.392 -1.4788 -0.1041  0.8522
  155SAPE   HN217133   4.467   1.205   7.282 -0.3427  0.2817  1.1440
  155SAPE   HN317134   4.577   1.099   7.352  0.3533 -1.3302 -2.6690
  155SAPE   C1217135   4.661   1.231   7.211 -0.4499 -0.0548  0.2539
  155SAPE  H12A17136   4.661   1.140   7.146 -0.0832  0.2771 -0.2187
  155SAPE  H12B17137   4.761   1.252   7.254 -0.1350  1.0154 -0.9277
  155SAPE   C1117138   4.588   1.344   7.132  0.0482 -0.3737 -0.8796
  155SAPE  H11A17139   4.485   1.320   7.099 -2.0328  4.9487  0.7104
  155SAPE  H11B17140   4.642   1.370   7.039 -0.7221 -3.4772 -2.3279
  155SAPE     P17141   4.637   1.589   7.207  0.2410  0.5050 -0.2915
  155SAPE   O1317142   4.583   1.693   7.305 -0.1728 -0.0575  0.2056
  155SAPE   O1417143   4.780   1.550   7.233  0.0503  0.0177 -0.1157
  155SAPE   O1217144   4.561   1.453   7.219  0.1978 -0.3701 -0.3693
  155SAPE   O1117145   4.608   1.633   7.060  0.1888 -0.3898  0.1871
  155SAPE    C117146   4.680   1.735   6.984 -0.5953 -0.2139 -0.3612
  155SAPE    HA17147   4.642   1.839   6.988 -0.1713 -0.0908  1.3972
  155SAPE    HB17148   4.781   1.729   7.030 -1.6982 -2.4791  2.0781
  155SAPE    C217149   4.697   1.702   6.832 -0.1870  0.2624 -0.3004
  155SAPE    HS17150   4.774   1.775   6.799  1.3349 -0.8176  0.7191
  155SAPE   O2117151   4.563   1.727   6.779  0.6637 -0.4784 -0.1860
  155SAPE   C2117152   4.559   1.820   6.687  0.5056 -0.4316  0.4419
  155SAPE   O2217153   4.653   1.851   6.615  0.0783  0.0442 -0.3593
  155SAPE   C2217154   4.418   1.877   6.663  0.4011  0.1419  0.1935
  155SAPE   H2R17155   4.341   1.798   6.680  1.8215 -1.9927 -2.4796
  155SAPE   H2S17156   4.382   1.958   6.730 -1.3021  0.4283 -0.9849
  155SAPE    C317157   4.754   1.562   6.803  0.4539  0.4765 -0.6690
  155SAPE    HX17158   4.760   1.545   6.693  0.4813 -0.0912 -0.5866
  155SAPE    HY17159   4.684   1.489   6.849 -0.7713  0.7418 -2.0405
  155SAPE   O3117160   4.886   1.547   6.858  0.2543  0.1617  0.2498
  155SAPE   C3117161   4.927   1.425   6.872  0.1938  0.4917  0.2213
  155SAPE   O3217162   4.858   1.324   6.867  0.0853 -0.2999 -0.0344
  155SAPE   C3217163   5.076   1.416   6.896 -0.1474  0.0264  0.0059
  155SAPE   H2X17164   5.093   1.424   7.006  2.1440  2.1496 -0.4171
  155SAPE   H2Y17165   5.127   1.504   6.851 -1.4692 -0.1155 -1.8825
  155SAPE   C2317166   4.393   1.918   6.518 -0.5507 -0.3225  0.3238
  155SAPE   H3R17167   4.456   2.008   6.500 -0.3056 -0.0503  2.3250
  155SAPE   H3S17168   4.287   1.953   6.517 -0.9911 -1.6065  0.1560
  155SAPE   C2417169   4.414   1.813   6.400  0.2721  0.5285 -0.3314
  155SAPE   H4R17170   4.329   1.743   6.418  0.5187  0.5027  0.7695
  155SAPE   H4S17171   4.510   1.766   6.429 -0.2980  0.1717  1.0411
  155SAPE   C2517172   4.423   1.880   6.263  0.5206 -0.0285  0.8646
  155SAPE   H5R17173   4.521   1.925   6.242 -0.9549  3.4803  0.7720
  155SAPE   C2617174   4.325   1.875   6.171 -0.2652  0.0295 -0.2569
  155SAPE   H6R17175   4.355   1.913   6.072 -2.1109 -0.1489 -0.9216
  155SAPE   C2717176   4.190   1.820   6.175  0.0644 -0.5781  0.1660
  155SAPE   H7R17177   4.175   1.744   6.255  0.8602  1.8023  2.7421
  155SAPE   H7S17178   4.158   1.762   6.086 -0.0590 -1.3509  0.7040
  155SAPE   C2817179   4.092   1.935   6.218  0.1594 -0.1400 -0.2554
  155SAPE   H8R17180   4.133   1.996   6.301  1.1834 -0.5152 -0.4627
  155SAPE   C2917181   3.966   1.971   6.174  0.1753 -0.4629  0.8640
  155SAPE   H9R17182   3.910   2.055   6.217 -0.8004 -0.6894  0.0656
  155SAPE  C21017183   3.906   1.907   6.049 -0.0094 -0.3122  0.4171
  155SAPE  H10R17184   3.962   1.813   6.030  1.7898  0.6175  0.9140
  155SAPE  H10S17185   3.938   1.965   5.959  0.6338 -0.9558  0.2211
  155SAPE  C21117186   3.757   1.895   6.046  0.6577  0.2462  0.8162
  155SAPE  H11R17187   3.713   1.874   6.144 -1.6560  1.7971  0.1978
  155SAPE  C21217188   3.672   1.900   5.939 -0.2798 -0.5761 -0.3222
  155SAPE  H12R17189   3.563   1.912   5.945 -0.2803  0.8168 -2.1322
  155SAPE  C21317190   3.723   1.920   5.801 -0.1100  0.3379  0.2447
  155SAPE  H13R17191   3.794   2.005   5.799  3.1423 -2.1388  0.4816
  155SAPE  H13S17192   3.644   1.947   5.729 -1.1280 -1.9376  0.4200
  155SAPE  C21417193   3.784   1.801   5.736 -0.3414  0.4422  0.4245
  155SAPE  H14R17194   3.778   1.714   5.802  0.2134  2.5456  3.4638
  155SAPE  C21517195   3.832   1.793   5.607 -0.0388  0.0373 -0.4331
  155SAPE  H15R17196   3.848   1.691   5.568 -0.8499  0.1039 -0.9821
  155SAPE  C21617197   3.853   1.905   5.508 -0.9371 -0.2485 -0.2403
  155SAPE  H16R17198   3.940   1.886   5.441 -1.3196 -1.2124 -0.4783
  155SAPE  H16S17199   3.883   1.993   5.569 -1.0315  1.2274 -2.2341
  155SAPE  C21717200   3.730   1.943   5.431 -0.1113  0.5597  0.6128
  155SAPE  H17R17201   3.736   2.047   5.392 -1.7095  0.0597 -1.1013
  155SAPE  H17S17202   3.645   1.947   5.501 -1.5142 -0.1105 -0.9837
  155SAPE  C21817203   3.709   1.849   5.311  0.8031 -0.8724  0.4022
  155SAPE  H18R17204   3.682   1.752   5.357 -1.7365 -0.7415 -0.6530
  155SAPE  H18S17205   3.808   1.833   5.262  1.5178  0.6556  1.2766
  155SAPE  C21917206   3.608   1.904   5.208  0.3367  0.4014  0.0150
  155SAPE  H19R17207   3.605   1.835   5.121  2.3770  0.6946 -0.3232
  155SAPE  H19S17208   3.650   1.997   5.164 -1.1901 -0.1550 -2.8918
  155SAPE  C22017209   3.465   1.940   5.253  0.4320  0.3109 -0.0453
  155SAPE  H20R17210   3.410   1.848   5.283 -1.2750  1.6043  0.9742
  155SAPE  H20S17211   3.413   1.988   5.167  1.6879 -1.2033 -1.7287
  155SAPE  H20T17212   3.454   2.025   5.324 -2.1462  1.6108 -1.8439
  155SAPE   C3317213   5.144   1.282   6.856 -0.2010 -0.1262  0.0215
  155SAPE   H3X17214   5.081   1.202   6.901  2.6658 -1.8941  1.1996
  155SAPE   H3Y17215   5.241   1.287   6.911 -0.1554 -1.3513  0.0926
  155SAPE   C3417216   5.178   1.269   6.712  0.5283  0.0244  0.1467
  155SAPE   H4X17217   5.250   1.184   6.704 -0.1297 -0.7124  1.6236
  155SAPE   H4Y17218   5.236   1.362   6.698 -0.3756  0.4786 -0.7049
  155SAPE   C3517219   5.054   1.244   6.626 -0.9023  0.3430  0.3398
  155SAPE   H5X17220   4.979   1.326   6.622 -0.5313  0.6588 -0.1965
  155SAPE   H5Y17221   4.999   1.153   6.658 -1.5921 -0.1831 -2.1749
  155SAPE   C3617222   5.098   1.221   6.481 -0.0437  1.0142  0.4915
  155SAPE   H6X17223   5.023   1.167   6.419 -0.0516  0.0235  1.3284
  155SAPE   H6Y17224   5.196   1.169   6.474  1.3413  2.9046  3.7341
  155SAPE   C3717225   5.121   1.353   6.411  0.2217 -0.1806 -0.3970
  155SAPE   H7X17226   5.212   1.399   6.455  0.6427 -1.9146  0.6019
  155SAPE   H7Y17227   5.037   1.424   6.429 -0.5761 -1.7405  2.7557
  155SAPE   C3817228   5.164   1.343   6.264 -0.5913 -0.1992  0.0060
  155SAPE   H8X17229   5.108   1.262   6.213 -3.2804  1.8344 -0.5072
  155SAPE   H8Y17230   5.270   1.312   6.272 -1.4047 -3.1207  0.9506
  155SAPE   C3917231   5.161   1.482   6.186 -0.2215  0.2629 -0.7476
  155SAPE   H9X17232   5.241   1.547   6.226 -2.2061  1.9550  0.7082
  155SAPE   H9Y17233   5.071   1.541   6.212 -0.7184 -0.2998 -1.1623
  155SAPE  C31017234   5.182   1.475   6.036 -0.1772 -0.3163  0.3471
  155SAPE  H10X17235   5.103   1.413   5.988 -0.4914  0.6233 -0.4133
  155SAPE  H10Y17236   5.275   1.420   6.012 -0.7779 -0.7595 -1.0830
  155SAPE  C31117237   5.187   1.614   5.972  0.0407 -0.1041  0.2419
  155SAPE  H11X17238   5.286   1.648   6.010  1.4408 -2.6593 -0.8784
  155SAPE  H11Y17239   5.092   1.663   6.002  0.0465  0.3764 -0.4915
  155SAPE  C31217240   5.183   1.597   5.820  0.6509  0.2668 -0.2165
  155SAPE  H12X17241   5.094   1.536   5.795  0.4910  1.6478 -3.4550
  155SAPE  H12Y17242   5.270   1.540   5.782 -1.3235 -3.9105  0.9169
  155SAPE  C31317243   5.170   1.731   5.744 -0.1870 -0.6366  0.0731
  155SAPE  H13X17244   5.264   1.763   5.695 -0.2988 -2.3484 -1.3683
  155SAPE  H13Y17245   5.136   1.803   5.821 -2.2809  0.7025 -1.9702
  155SAPE  C31417246   5.062   1.716   5.633  0.4404  0.0113 -0.5371
  155SAPE  H14X17247   5.047   1.817   5.590 -0.4829 -0.4948 -1.4393
  155SAPE  H14Y17248   4.969   1.686   5.687  0.9704 -0.8917 -0.0980
  155SAPE  C31517249   5.096   1.617   5.519 -0.2198  0.2396 -1.3225
  155SAPE  H15X17250   5.112   1.515   5.562  0.4689  0.9742  0.2596
  155SAPE  H15Y17251   5.191   1.662   5.485  0.1744 -0.0710 -0.6713
  155SAPE  C31617252   5.006   1.614   5.393  0.5086  0.0553  0.9016
  155SAPE  H16X17253   5.069   1.562   5.318 -0.4914  2.2033 -1.5735
  155SAPE  H16Y17254   5.000   1.718   5.354  2.1873 -0.0463  0.2642
  155SAPE  C31717255   4.882   1.520   5.393  0.0602  0.5485 -0.2240
  155SAPE  H17X17256   4.906   1.415   5.422 -0.1330  0.8679  1.1721
  155SAPE  H17Y17257   4.842   1.513   5.289 -0.0744 -3.5870 -0.0590
  155SAPE  C31817258   4.777   1.566   5.488 -0.5811 -0.3097 -0.6940
  155SAPE  H18X17259   4.828   1.556   5.586  1.6082  1.8301 -1.5321
  155SAPE  H18Y17260   4.693   1.494   5.497 -0.0483 -0.7313  1.2788
  155SAPE  H18Z17261   4.742   1.669   5.468 -0.9709  0.1461  2.0162
  156SAPE     N17262   6.291   1.660   7.151 -0.8575  0.1885  0.0792
  156SAPE   HN117263   6.296   1.566   7.195 -2.1680 -0.6801 -1.4967
  156SAPE   HN217264   6.374   1.714   7.183 -0.2404  0.6437 -2.1014
  156SAPE   HN317265   6.199   1.707   7.169 -0.1022  1.3478  1.0276
  156SAPE   C1217266   6.290   1.649   7.000  0.0770  0.3594 -0.1390
  156SAPE  H12A17267   6.249   1.740   6.951  0.4279  1.0627  0.8550
  156SAPE  H12B17268   6.228   1.559   6.979  0.7959 -0.1467 -0.1188
  156SAPE   C1117269   6.423   1.608   6.939  0.1394 -0.1428  0.2448
  156SAPE  H11A17270   6.493   1.693   6.950 -0.1792 -0.0355  1.6484
  156SAPE  H11B17271   6.407   1.590   6.830 -1.2012  0.8572  0.2470
  156SAPE     P17272   6.626   1.462   7.006  0.4096 -0.4628 -0.0620
  156SAPE   O1317273   6.714   1.580   7.028 -0.2196  0.4753  0.1871
  156SAPE   O1417274   6.638   1.348   7.094  0.1214  0.6019 -0.3402
  156SAPE   O1217275   6.471   1.496   7.007 -0.4194 -0.2308 -0.4537
  156SAPE   O1117276   6.656   1.408   6.860 -0.0707 -0.2840  0.6697
  156SAPE    C117277   6.677   1.488   6.740  0.3046 -0.2174  0.5825
  156SAPE    HA17278   6.602   1.478   6.660  0.2777 -1.6391  0.7631
  156SAPE    HB17279   6.659   1.595   6.766 -0.5678 -0.7440  2.3272
  156SAPE    C217280   6.823   1.482   6.682 -0.1695 -0.5377 -0.0314
  156SAPE    HS17281   6.897   1.484   6.766 -0.8160 -3.1374  0.6972
  156SAPE   O2117282   6.843   1.581   6.584  0.2137 -0.4031 -0.4007
  156SAPE   C2117283   6.884   1.701   6.623  0.6637 -0.2969  0.0533
  156SAPE   O2217284   6.900   1.729   6.738  0.0369  0.4650 -0.5644
  156SAPE   C2217285   6.894   1.793   6.501  0.2630  0.0366  0.0078
  156SAPE   H2R17286   6.856   1.885   6.551  0.0954  0.9825 -1.7827
  156SAPE   H2S17287   6.998   1.794   6.463  0.6309 -0.9864  0.9412
  156SAPE    C317288   6.829   1.341   6.616  0.4400  0.4128  0.4137
  156SAPE    HX17289   6.853   1.271   6.699 -1.3440  0.9284  1.4295
  156SAPE    HY17290   6.921   1.342   6.554  0.4647 -0.6773  0.4178
  156SAPE   O3117291   6.719   1.313   6.525 -0.3002 -0.5329  0.3740
  156SAPE   C3117292   6.689   1.190   6.498 -0.2813  0.2228  0.6230
  156SAPE   O3217293   6.745   1.086   6.537 -0.4042 -0.1094 -0.0218
  156SAPE   C3217294   6.570   1.190   6.408 -0.1836  0.1057 -0.2005
  156SAPE   H2X17295   6.540   1.290   6.369 -0.8147  0.0286  0.0881
  156SAPE   H2Y17296   6.496   1.140   6.474  0.4348 -0.1611  0.3079
  156SAPE   C2317297   6.794   1.760   6.387  0.0388  0.7722  0.5841
  156SAPE   H3R17298   6.686   1.755   6.412 -0.3185 -4.7435 -0.8522
  156SAPE   H3S17299   6.812   1.660   6.343  0.5026  1.2973 -0.4571
  156SAPE   C2417300   6.803   1.867   6.277 -0.1788  0.7307 -0.0403
  156SAPE   H4R17301   6.897   1.840   6.225  0.5292  0.8430  1.1385
  156SAPE   H4S17302   6.818   1.967   6.323 -1.9849  0.3101  1.6040
  156SAPE   C2517303   6.687   1.860   6.178  0.0569 -0.8084  0.8249
  156SAPE   H5R17304   6.605   1.933   6.191 -0.8605 -1.8085  0.8642
  156SAPE   C2617305   6.660   1.768   6.085  0.8438 -0.4198 -0.5230
  156SAPE   H6R17306   6.574   1.782   6.017  0.7028 -0.3064 -0.3207
  156SAPE   C2717307   6.750   1.654   6.048  0.1090  0.7265 -0.1545
  156SAPE   H7R17308   6.821   1.619   6.126  0.2790 -0.1238 -0.6708
  156SAPE   H7S17309   6.811   1.687   5.962 -1.4041  1.2027 -1.0804
  156SAPE   C2817310   6.665   1.530   6.015 -0.5223  0.0554  0.4811
  156SAPE   H8R17311   6.637   1.458   6.094 -2.2391 -3.3692 -2.9042
  156SAPE   C2917312   6.621   1.503   5.890 -0.0305  0.2733  0.1874
  156SAPE   H9R17313   6.575   1.406   5.869 -0.7773  0.5510  0.4991
  156SAPE  C21017314   6.637   1.593   5.771  0.1913 -0.2277 -0.2169
  156SAPE  H10R17315   6.746   1.611   5.752  0.4663 -1.1772  0.4241
  156SAPE  H10S17316   6.602   1.694   5.802  1.7649  0.4480 -0.4901
  156SAPE  C21117317   6.561   1.547   5.651  0.2001 -0.5255 -0.1912
  156SAPE  H11R17318   6.469   1.491   5.671 -0.9167  1.0571 -0.6650
  156SAPE  C21217319   6.598   1.559   5.520 -0.1517  0.3926 -0.4271
  156SAPE  H12R17320   6.518   1.536   5.448  0.6505 -2.1452 -0.5951
  156SAPE  C21317321   6.718   1.632   5.467 -0.7374 -0.4263  0.3745
  156SAPE  H13R17322   6.748   1.708   5.543 -0.2134 -2.5540  2.4264
  156SAPE  H13S17323   6.691   1.689   5.376  1.4531 -1.6262 -1.1341
  156SAPE  C21417324   6.846   1.554   5.428  0.3176 -0.1963 -0.7587
  156SAPE  H14R17325   6.875   1.475   5.499 -1.5593  1.5536  2.1720
  156SAPE  C21517326   6.933   1.587   5.331 -0.1593  0.2082 -0.3010
  156SAPE  H15R17327   7.012   1.515   5.307 -1.9264 -1.7657 -0.4276
  156SAPE  C21617328   6.919   1.717   5.243 -0.1163 -0.1529 -0.0915
  156SAPE  H16R17329   7.012   1.770   5.275 -0.8299  0.6544  0.6836
  156SAPE  H16S17330   6.832   1.784   5.260  1.4612  1.6116  1.5176
  156SAPE  C21717331   6.946   1.712   5.087 -0.6293 -0.3351  0.5396
  156SAPE  H17R17332   6.919   1.812   5.046  0.4623 -0.8167 -1.4901
  156SAPE  H17S17333   6.876   1.634   5.048 -0.5842  0.0848 -0.4220
  156SAPE  C21817334   7.090   1.671   5.060 -1.0636  0.4350  0.0541
  156SAPE  H18R17335   7.103   1.572   5.108  1.1373  0.4983 -0.3332
  156SAPE  H18S17336   7.156   1.748   5.106 -0.1376 -0.5728  0.4431
  156SAPE  C21917337   7.126   1.653   4.908 -0.4362 -0.0301 -0.5257
  156SAPE  H19R17338   7.037   1.602   4.866 -0.7449  0.1607 -0.1114
  156SAPE  H19S17339   7.212   1.584   4.893  0.7932  1.7781 -2.4833
  156SAPE  C22017340   7.152   1.787   4.842 -0.3994  0.0791 -0.5516
  156SAPE  H20R17341   7.168   1.771   4.734 -0.7491  0.0427 -0.5989
  156SAPE  H20S17342   7.240   1.835   4.891 -1.0846 -1.0901  2.0139
  156SAPE  H20T17343   7.070   1.862   4.849 -0.7992 -0.3089 -1.0149
  156SAPE   C3317344   6.598   1.109   6.281 -0.2614 -0.1774  0.2890
  156SAPE   H3X17345   6.496   1.100   6.237 -0.0620  0.8249 -0.4307
  156SAPE   H3Y17346   6.626   1.006   6.310 -2.0051 -0.7560  0.0653
  156SAPE   C3417347   6.687   1.192   6.180 -0.5739  0.8556 -0.2108
  156SAPE   H4X17348   6.783   1.220   6.228 -0.1297 -2.3782  1.0753
  156SAPE   H4Y17349   6.634   1.288   6.163  1.9874  2.8348  2.1067
  156SAPE   C3517350   6.714   1.116   6.048 -0.0429 -0.0177 -0.3746
  156SAPE   H5X17351   6.779   1.031   6.076 -1.1595 -0.7834 -0.0215
  156SAPE   H5Y17352   6.771   1.184   5.982  4.0853 -1.6908  1.1179
  156SAPE   C3617353   6.589   1.059   5.984 -0.2681  0.0859 -0.2636
  156SAPE   H6X17354   6.517   1.141   5.966 -0.2892 -0.3518 -2.3492
  156SAPE   H6Y17355   6.533   0.992   6.054 -0.8324  1.2694  0.4449
  156SAPE   C3717356   6.623   1.009   5.843  0.4403 -0.5285 -0.6007
  156SAPE   H7X17357   6.544   0.938   5.808 -0.0880 -0.2733  0.0578
  156SAPE   H7Y17358   6.717   0.951   5.850 -0.9037 -2.6027  2.8770
  156SAPE   C3817359   6.630   1.124   5.746 -0.5892  0.7261  0.3190
  156SAPE   H8X17360   6.708   1.201   5.765 -0.9671  1.5048 -1.1847
  156SAPE   H8Y17361   6.534   1.178   5.756 -0.8251  0.4524 -0.4456
  156SAPE   C3917362   6.644   1.063   5.597  0.8384  0.5363 -0.3304
  156SAPE   H9X17363   6.550   1.007   5.578  0.7346  0.3561  0.6464
  156SAPE   H9Y17364   6.737   1.003   5.587  0.3947  0.2262 -3.9022
  156SAPE  C31017365   6.639   1.180   5.494  0.3145 -0.0785  0.8638
  156SAPE  H10X17366   6.721   1.252   5.516  1.1886  0.7157 -3.9019
  156SAPE  H10Y17367   6.535   1.219   5.501  0.5906  0.5482  1.6027
  156SAPE  C31117368   6.673   1.140   5.346 -0.0762 -0.5124 -0.4178
  156SAPE  H11X17369   6.579   1.094   5.307  1.1106 -0.5318 -3.5316
  156SAPE  H11Y17370   6.765   1.079   5.335  1.7863  1.9185  0.8886
  156SAPE  C31217371   6.685   1.272   5.257  0.4292 -0.5561 -0.6295
  156SAPE  H12X17372   6.778   1.324   5.287 -1.9467  3.2749  0.8616
  156SAPE  H12Y17373   6.604   1.346   5.276 -0.3700 -2.0673  2.7104
  156SAPE  C31317374   6.696   1.252   5.109 -0.1874 -0.2542  0.4244
  156SAPE  H13X17375   6.592   1.236   5.072  0.5901  0.0111 -2.0226
  156SAPE  H13Y17376   6.759   1.163   5.090 -0.4903 -0.2632 -0.5794
  156SAPE  C31417377   6.752   1.373   5.042 -0.0143 -0.5383  0.5830
  156SAPE  H14X17378   6.860   1.385   5.066 -0.2042 -3.7448  3.9022
  156SAPE  H14Y17379   6.700   1.462   5.084  1.0636 -0.4260  1.7379
  156SAPE  C31517380   6.730   1.389   4.886  0.0595  0.0429 -0.4034
  156SAPE  H15X17381   6.782   1.303   4.839  0.1979  0.0800 -0.3192
  156SAPE  H15Y17382   6.785   1.481   4.857 -0.6676  0.7512  0.3926
  156SAPE  C31617383   6.583   1.390   4.852  0.3216  0.0288 -0.1683
  156SAPE  H16X17384   6.534   1.470   4.912  1.4505 -0.6679  1.7850
  156SAPE  H16Y17385   6.524   1.298   4.871 -2.7961  1.1832 -3.0919
  156SAPE  C31717386   6.554   1.420   4.701  0.2825  0.2140  0.1662
  156SAPE  H17X17387   6.618   1.503   4.663 -0.7181  0.4216 -1.1265
  156SAPE  H17Y17388   6.453   1.449   4.667 -0.3369  0.4730  2.1248
  156SAPE  C31817389   6.588   1.287   4.617 -0.0088 -0.5819 -0.2125
  156SAPE  H18X17390   6.551   1.203   4.680  2.8329 -1.0900  0.9218
  156SAPE  H18Y17391   6.698   1.275   4.619  0.3159  1.8945  1.5075
  156SAPE  H18Z17392   6.553   1.263   4.515 -1.0255 -1.5413  0.3344
  157SAPE     N17393   4.665   0.435   7.349 -0.8150  0.0218 -0.6210
  157SAPE   HN117394   4.649   0.537   7.359 -0.6880 -0.1059  1.2208
  157SAPE   HN217395   4.603   0.391   7.420 -1.5370  2.4903  0.3687
  157SAPE   HN317396   4.767   0.418   7.364 -1.0897 -0.3879  0.9350
  157SAPE   C1217397   4.640   0.406   7.207 -0.3542 -0.7205 -0.4242
  157SAPE  H12A17398   4.560   0.477   7.178 -0.0179 -0.6135 -1.1230
  157SAPE  H12B17399   4.626   0.297   7.193  0.6725 -1.3039  2.4025
  157SAPE   C1117400   4.770   0.433   7.138 -1.3580  0.8455 -0.6481
  157SAPE  H11A17401   4.807   0.538   7.144  1.4912 -0.1303  0.4255
  157SAPE  H11B17402   4.754   0.419   7.029  1.4238 -0.1058 -1.0238
  157SAPE     P17403   5.012   0.394   7.229  0.0880  0.4310  0.7100
  157SAPE   O1317404   4.979   0.497   7.330 -0.3880 -0.2658 -0.3577
  157SAPE   O1417405   5.097   0.278   7.270  0.1040 -0.2844  0.0071
  157SAPE   O1217406   4.873   0.343   7.177  0.3440  0.2741  0.5655
  157SAPE   O1117407   5.065   0.451   7.088 -0.0381 -0.2329 -0.4278
  157SAPE    C117408   5.061   0.587   7.050 -0.0575  0.4013  1.2339
  157SAPE    HA17409   4.967   0.641   7.072 -0.8015 -0.6892  0.8178
  157SAPE    HB17410   5.144   0.646   7.096 -0.5574  1.8226  0.3737
  157SAPE    C217411   5.082   0.596   6.893  0.0829 -0.3382  0.5375
  157SAPE    HS17412   5.061   0.703   6.871 -0.3993 -0.6324 -0.5100
  157SAPE   O2117413   4.986   0.513   6.823 -0.3801  1.3382  0.0170
  157SAPE   C2117414   4.863   0.552   6.820 -0.2109 -0.2530 -0.0137
  157SAPE   O2217415   4.816   0.662   6.849 -0.7047  0.2084 -0.3026
  157SAPE   C2217416   4.785   0.446   6.746  0.3186  0.6031 -0.0445
  157SAPE   H2R17417   4.844   0.427   6.653 -0.5469 -0.6916 -0.3549
  157SAPE   H2S17418   4.782   0.349   6.800 -1.5312 -0.5517 -2.0735
  157SAPE    C317419   5.226   0.561   6.847 -0.2580  0.4147  0.4919
  157SAPE    HX17420   5.234   0.459   6.891  1.1148  0.7917  1.1634
  157SAPE    HY17421   5.293   0.631   6.901  1.3637 -0.6609 -0.0532
  157SAPE   O3117422   5.247   0.585   6.706  0.3629  0.1791  0.0551
  157SAPE   C3117423   5.318   0.498   6.647 -0.2210  0.5278  0.2419
  157SAPE   O3217424   5.339   0.382   6.689 -0.3045  0.1060 -0.3598
  157SAPE   C3217425   5.380   0.557   6.522 -0.4250  0.9583  0.7682
  157SAPE   H2X17426   5.486   0.524   6.526 -0.6688  0.2081  1.1335
  157SAPE   H2Y17427   5.370   0.668   6.517 -0.9705  0.8685 -0.3863
  157SAPE   C2317428   4.641   0.494   6.717 -0.3679  0.8794 -0.1881
  157SAPE   H3R17429   4.599   0.531   6.813  0.0605 -1.0553  0.8028
  157SAPE   H3S17430   4.573   0.413   6.682  1.9840 -1.1041 -0.4279
  157SAPE   C2417431   4.624   0.610   6.622  0.3072 -0.7356  0.1842
  157SAPE   H4R17432   4.657   0.698   6.681 -1.2815  0.2451 -0.3565
  157SAPE   H4S17433   4.515   0.626   6.611  0.4725  0.1226 -0.2940
  157SAPE   C2517434   4.696   0.580   6.489 -0.3243  0.0007 -0.2370
  157SAPE   H5R17435   4.697   0.478   6.448 -0.7803  0.2166 -0.7932
  157SAPE   C2617436   4.763   0.677   6.421 -0.3679 -0.0718  0.3515
  157SAPE   H6R17437   4.806   0.656   6.322 -0.8081 -2.1147  0.5543
  157SAPE   C2717438   4.787   0.825   6.463  0.4306 -0.6093 -0.3528
  157SAPE   H7R17439   4.894   0.846   6.443  0.3707  3.3223  2.3341
  157SAPE   H7S17440   4.792   0.838   6.574  1.8032 -0.9388 -0.3622
  157SAPE   C2817441   4.696   0.928   6.398  0.1655 -0.0594 -0.1825
  157SAPE   H8R17442   4.629   0.971   6.474  1.9144  0.4999  1.0824
  157SAPE   C2917443   4.713   0.979   6.276 -0.0984 -0.2899  1.1244
  157SAPE   H9R17444   4.651   1.063   6.241  1.1724 -0.2847 -1.3439
  157SAPE  C21017445   4.824   0.946   6.189 -0.8204  0.1287 -0.7314
  157SAPE  H10R17446   4.769   0.909   6.100  1.4898  0.3435 -2.3086
  157SAPE  H10S17447   4.882   0.857   6.222 -1.9569 -0.4340 -0.1489
  157SAPE  C21117448   4.915   1.060   6.158 -0.2140  0.1381  0.2269
  157SAPE  H11R17449   5.013   1.064   6.207 -1.2163 -1.0908  2.5068
  157SAPE  C21217450   4.892   1.148   6.056 -0.1303  0.8961  0.6041
  157SAPE  H12R17451   4.954   1.237   6.039  0.5594  0.3000 -0.1613
  157SAPE  C21317452   4.773   1.143   5.969 -0.1389 -0.2125 -0.3594
  157SAPE  H13R17453   4.688   1.145   6.040  2.1242 -1.9776  2.6139
  157SAPE  H13S17454   4.769   1.047   5.914 -0.9593 -1.0725  1.1389
  157SAPE  C21417455   4.766   1.261   5.874  0.4032  0.5289  0.0406
  157SAPE  H14R17456   4.755   1.363   5.913  2.6377  0.8160  0.0569
  157SAPE  C21517457   4.768   1.262   5.741 -0.6094 -0.4113  0.4167
  157SAPE  H15R17458   4.782   1.362   5.697 -0.4743 -0.1444  1.0637
  157SAPE  C21617459   4.789   1.146   5.649 -0.7252 -0.1367 -0.2197
  157SAPE  H16R17460   4.792   1.054   5.711 -1.2529 -0.8366 -1.1897
  157SAPE  H16S17461   4.876   1.146   5.580 -2.9958 -0.9688 -3.3520
  157SAPE  C21717462   4.671   1.132   5.552  0.4155  0.2878  0.9306
  157SAPE  H17R17463   4.691   1.059   5.471  0.3486  0.3475  0.8610
  157SAPE  H17S17464   4.642   1.227   5.503 -2.5759 -1.3740 -0.8117
  157SAPE  C21817465   4.549   1.080   5.625  0.1546  0.2209  0.1741
  157SAPE  H18R17466   4.538   1.164   5.696  0.6907  0.7168 -0.3113
  157SAPE  H18S17467   4.564   0.984   5.679 -2.1910 -0.1769  0.1989
  157SAPE  C21917468   4.428   1.069   5.538  0.5512  0.2091  0.6047
  157SAPE  H19R17469   4.339   1.040   5.598  0.3359  0.9325  0.6478
  157SAPE  H19S17470   4.442   0.991   5.462 -1.8826 -0.0464  0.3276
  157SAPE  C22017471   4.386   1.200   5.454 -0.3119 -0.4867  0.3708
  157SAPE  H20R17472   4.473   1.232   5.393 -0.3552  0.5228  0.8098
  157SAPE  H20S17473   4.381   1.286   5.525  0.7864 -0.1925  0.1029
  157SAPE  H20T17474   4.289   1.192   5.400  0.2811  0.4309 -0.8610
  157SAPE   C3317475   5.307   0.514   6.394  0.4825 -0.3527 -0.1666
  157SAPE   H3X17476   5.269   0.410   6.384  0.4254 -0.4060  0.5542
  157SAPE   H3Y17477   5.374   0.519   6.306 -1.3933  1.9697 -1.5950
  157SAPE   C3417478   5.180   0.603   6.379  0.1002 -0.2249 -0.0555
  157SAPE   H4X17479   5.207   0.710   6.396  1.5852 -0.9969  2.9939
  157SAPE   H4Y17480   5.120   0.573   6.467  0.0903  1.2877  0.4958
  157SAPE   C3517481   5.103   0.582   6.247 -0.2469  0.2206 -0.8996
  157SAPE   H5X17482   4.997   0.613   6.251 -0.1270  0.5070  0.5925
  157SAPE   H5Y17483   5.094   0.474   6.225 -0.1027  0.6214 -3.1693
  157SAPE   C3617484   5.172   0.632   6.125  0.3821 -0.5733  0.6145
  157SAPE   H6X17485   5.168   0.553   6.047  0.6584 -1.6704  1.6887
  157SAPE   H6Y17486   5.276   0.651   6.158  0.8084 -1.6790 -0.0221
  157SAPE   C3717487   5.124   0.763   6.072 -0.5817  0.4915  0.2805
  157SAPE   H7X17488   5.120   0.844   6.148  0.2619  1.7199 -0.9273
  157SAPE   H7Y17489   5.023   0.749   6.029  0.0117  0.1558 -1.0707
  157SAPE   C3817490   5.215   0.799   5.945 -0.4134 -0.1215  0.6644
  157SAPE   H8X17491   5.188   0.726   5.865  0.5759 -0.2631  0.4484
  157SAPE   H8Y17492   5.321   0.768   5.961  0.4178  2.0197 -0.4154
  157SAPE   C3917493   5.206   0.943   5.899 -0.1157 -0.4949 -0.2577
  157SAPE   H9X17494   5.245   1.014   5.975 -1.4879 -0.6015  0.5805
  157SAPE   H9Y17495   5.100   0.974   5.888  0.1909  1.2799  1.3205
  157SAPE  C31017496   5.302   0.964   5.776  0.5013 -0.5881 -0.1399
  157SAPE  H10X17497   5.297   0.879   5.705 -0.4069 -0.5165 -0.1644
  157SAPE  H10Y17498   5.408   0.983   5.804  0.8283  2.2204 -2.6425
  157SAPE  C31117499   5.254   1.094   5.698  0.0691 -0.3364  0.5925
  157SAPE  H11X17500   5.271   1.178   5.770 -0.1217  2.3438 -2.2574
  157SAPE  H11Y17501   5.146   1.074   5.682  0.5437 -3.1512  0.4554
  157SAPE  C31217502   5.342   1.132   5.571  0.3214  0.0224 -0.2291
  157SAPE  H12X17503   5.325   1.051   5.497  0.7473  0.6330 -1.0231
  157SAPE  H12Y17504   5.444   1.144   5.612 -0.3085  2.1082  0.8968
  157SAPE  C31317505   5.288   1.255   5.499  0.8050  0.7152  0.1252
  157SAPE  H13X17506   5.270   1.339   5.570 -0.7899  0.6193 -0.1459
  157SAPE  H13Y17507   5.189   1.226   5.460  0.7097 -0.5598  1.2697
  157SAPE  C31417508   5.378   1.301   5.390  0.0309 -0.1961  0.3464
  157SAPE  H14X17509   5.481   1.312   5.430  0.7201  0.3351 -1.4716
  157SAPE  H14Y17510   5.355   1.409   5.372 -0.7150 -0.2547  0.9153
  157SAPE  C31517511   5.369   1.213   5.265 -0.3228  0.4539 -0.2910
  157SAPE  H15X17512   5.264   1.184   5.245 -0.2554  0.2143 -0.3008
  157SAPE  H15Y17513   5.432   1.123   5.280  0.4882  1.1777  0.8111
  157SAPE  C31617514   5.431   1.271   5.143  0.2886  0.3372  0.6016
  157SAPE  H16X17515   5.467   1.192   5.073  0.7282  0.9499  0.1220
  157SAPE  H16Y17516   5.517   1.336   5.169  0.7492 -0.6436  1.6094
  157SAPE  C31717517   5.333   1.371   5.078  0.0869  0.0674  0.2634
  157SAPE  H17X17518   5.304   1.449   5.151  1.2876 -0.1527  1.0014
  157SAPE  H17Y17519   5.248   1.305   5.050  0.1236  1.2438 -2.9470
  157SAPE  C31817520   5.377   1.445   4.951 -0.3117  0.4159  0.2586
  157SAPE  H18X17521   5.452   1.524   4.976  1.1279 -0.8935  0.2331
  157SAPE  H18Y17522   5.293   1.503   4.906 -0.1936 -0.7707 -1.6243
  157SAPE  H18Z17523   5.419   1.374   4.877 -0.7975  1.5975 -1.2221
  158SAPE     N17524   0.345   6.400   7.240  0.4409  0.1724 -0.1250
  158SAPE   HN117525   0.356   6.427   7.140  1.8773  1.5363  0.3507
  158SAPE   HN217526   0.259   6.342   7.240  1.3908 -1.2991  0.9729
  158SAPE   HN317527   0.328   6.489   7.291 -1.3009 -0.8139  1.1356
  158SAPE   C1217528   0.477   6.332   7.288 -0.2311  0.0973 -0.2381
  158SAPE  H12A17529   0.456   6.224   7.305  0.4705 -0.3008 -1.6690
  158SAPE  H12B17530   0.506   6.383   7.382  0.5277 -2.6656  1.1095
  158SAPE   C1117531   0.592   6.356   7.187  0.7156 -0.5840 -0.2638
  158SAPE  H11A17532   0.688   6.328   7.236  1.0594  0.9628  0.0085
  158SAPE  H11B17533   0.604   6.465   7.171  2.9161 -0.5489  1.1701
  158SAPE     P17534   0.653   6.207   6.988  0.2958 -0.3256 -0.0292
  158SAPE   O1317535   0.789   6.226   7.049  0.1933 -0.2744 -0.3797
  158SAPE   O1417536   0.598   6.072   6.987  0.4037  0.8807  0.3231
  158SAPE   O1217537   0.549   6.303   7.062  0.2387 -0.0081  0.4082
  158SAPE   O1117538   0.648   6.270   6.841 -0.2857  0.6433 -0.5663
  158SAPE    C117539   0.522   6.321   6.792  0.1943  0.3740 -0.4126
  158SAPE    HA17540   0.482   6.399   6.860 -0.4190 -1.7309  1.7610
  158SAPE    HB17541   0.545   6.371   6.695 -0.8925  0.1991 -0.7706
  158SAPE    C217542   0.424   6.202   6.761  0.0701  0.2110  0.4928
  158SAPE    HS17543   0.388   6.175   6.863  0.4159 -1.4544  0.1996
  158SAPE   O2117544   0.494   6.092   6.694  0.3702 -0.1251 -0.0898
  158SAPE   C2117545   0.433   5.978   6.721 -0.4211 -0.2997  0.0788
  158SAPE   O2217546   0.345   5.955   6.801 -0.5349 -0.4813  0.5995
  158SAPE   C2217547   0.496   5.867   6.634 -0.1505  0.3145  0.1939
  158SAPE   H2R17548   0.510   5.919   6.536 -1.4131 -3.1819 -2.0309
  158SAPE   H2S17549   0.593   5.854   6.687  1.4304 -1.3353 -2.8323
  158SAPE    C317550   0.302   6.243   6.677  0.1361  0.1161  0.2672
  158SAPE    HX17551   0.278   6.344   6.715  1.7197  0.7469 -0.3051
  158SAPE    HY17552   0.210   6.181   6.671  1.1400 -1.3127 -0.8606
  158SAPE   O3117553   0.360   6.286   6.547  0.1563  0.2135 -0.5698
  158SAPE   C3117554   0.346   6.196   6.455  0.1819 -0.5546  0.0943
  158SAPE   O3217555   0.269   6.101   6.461 -0.1100 -0.3933  0.1910
  158SAPE   C3217556   0.447   6.223   6.338 -0.5812 -0.3445 -0.6583
  158SAPE   H2X17557   0.537   6.160   6.354 -0.9091 -0.2422  2.0433
  158SAPE   H2Y17558   0.490   6.325   6.347  1.5042 -1.0302 -2.1591
  158SAPE   C2317559   0.413   5.733   6.628 -0.0425 -0.2386 -0.2271
  158SAPE   H3R17560   0.307   5.751   6.600 -1.3024 -2.3742  2.6404
  158SAPE   H3S17561   0.400   5.698   6.733 -0.0251  1.6834  0.4668
  158SAPE   C2417562   0.477   5.635   6.536 -0.1739  0.1510 -0.3961
  158SAPE   H4R17563   0.441   5.534   6.564  0.0386  0.5041  1.2983
  158SAPE   H4S17564   0.586   5.650   6.554 -0.5829  1.2228  1.4882
  158SAPE   C2517565   0.430   5.670   6.392  0.1962  0.3574  0.2147
  158SAPE   H5R17566   0.323   5.648   6.380  0.4816 -0.1333 -1.6241
  158SAPE   C2617567   0.495   5.705   6.281 -0.4746 -0.3704  0.9365
  158SAPE   H6R17568   0.440   5.732   6.189 -2.2251  2.4223  2.6591
  158SAPE   C2717569   0.649   5.721   6.267  0.1430 -0.6564 -0.6190
  158SAPE   H7R17570   0.685   5.646   6.193 -0.6822 -0.1279 -1.5757
  158SAPE   H7S17571   0.703   5.701   6.362  1.2386  0.1176 -1.0445
  158SAPE   C2817572   0.683   5.864   6.234  0.0559 -0.0309 -0.3753
  158SAPE   H8R17573   0.700   5.931   6.320  0.3812 -1.3888  0.6619
  158SAPE   C2917574   0.701   5.909   6.110 -0.5399 -0.7921  0.3300
  158SAPE   H9R17575   0.738   6.011   6.091  0.7935 -1.1225  0.9953
  158SAPE  C21017576   0.685   5.833   5.983  0.0722  0.2174  0.3688
  158SAPE  H10R17577   0.634   5.896   5.907 -1.9528 -1.5196  0.1961
  158SAPE  H10S17578   0.611   5.753   6.004 -1.6794  1.4376 -0.8563
  158SAPE  C21117579   0.811   5.781   5.919 -0.2683 -0.2814  0.4087
  158SAPE  H11R17580   0.883   5.733   5.987 -2.5656 -2.3679  1.5376
  158SAPE  C21217581   0.838   5.781   5.785 -0.0117 -0.1967 -0.7997
  158SAPE  H12R17582   0.919   5.716   5.750  0.0206 -1.5902  1.6064
  158SAPE  C21317583   0.766   5.853   5.673  0.0511  0.2646 -0.5811
  158SAPE  H13R17584   0.690   5.918   5.722 -0.4618 -0.7692  0.0185
  158SAPE  H13S17585   0.706   5.780   5.615 -1.3156  1.2509 -0.4781
  158SAPE  C21417586   0.847   5.940   5.584 -0.1974  0.3024 -0.1873
  158SAPE  H14R17587   0.892   6.026   5.635  2.8406 -0.4207 -1.4216
  158SAPE  C21517588   0.879   5.933   5.454  0.1676  0.2880 -0.0553
  158SAPE  H15R17589   0.936   6.021   5.418 -0.8604  0.3848 -1.5425
  158SAPE  C21617590   0.812   5.842   5.356 -0.2431 -0.1787  0.1853
  158SAPE  H16R17591   0.748   5.772   5.414 -1.0264  0.6892  0.4012
  158SAPE  H16S17592   0.888   5.780   5.305  0.6058  0.0310  1.1543
  158SAPE  C21717593   0.743   5.929   5.254 -0.1383 -0.2999 -0.1111
  158SAPE  H17R17594   0.805   6.011   5.212 -1.0556 -0.5546 -2.0861
  158SAPE  H17S17595   0.652   5.966   5.305  0.2105  0.6923 -0.1914
  158SAPE  C21817596   0.711   5.854   5.122  0.5544  0.0807  0.4974
  158SAPE  H18R17597   0.650   5.928   5.067 -0.0792  0.1551  1.2707
  158SAPE  H18S17598   0.653   5.764   5.153 -0.4549  1.1117  1.7589
  158SAPE  C21917599   0.830   5.822   5.027  0.1602 -0.2163  0.2857
  158SAPE  H19R17600   0.899   5.754   5.081 -1.2337 -2.4032 -0.5607
  158SAPE  H19S17601   0.869   5.925   5.011  0.7281 -0.4220  0.3141
  158SAPE  C22017602   0.785   5.755   4.899  0.2881 -0.1849 -0.5265
  158SAPE  H20R17603   0.715   5.812   4.833  0.4780 -0.4476 -0.9567
  158SAPE  H20S17604   0.735   5.663   4.936  0.1317  0.4084  0.7832
  158SAPE  H20T17605   0.874   5.728   4.838 -0.4984 -2.0736 -0.9277
  158SAPE   C3317606   0.396   6.182   6.202  0.5563 -0.3354  0.3419
  158SAPE   H3X17607   0.308   6.249   6.191 -0.3226 -1.5787 -0.5377
  158SAPE   H3Y17608   0.364   6.076   6.193 -1.0458 -0.0144  1.8022
  158SAPE   C3417609   0.498   6.231   6.104  0.1412 -0.4717  0.6880
  158SAPE   H4X17610   0.599   6.190   6.127 -0.6749 -2.6302  0.6589
  158SAPE   H4Y17611   0.511   6.341   6.099  0.9137 -0.5969 -1.0443
  158SAPE   C3517612   0.462   6.183   5.960  0.1766 -0.3773  0.6397
  158SAPE   H5X17613   0.367   6.229   5.926  0.7695  1.3963  1.2795
  158SAPE   H5Y17614   0.443   6.074   5.956 -1.7499 -0.1156  1.5950
  158SAPE   C3617615   0.565   6.224   5.860  0.2725 -0.7451  0.0327
  158SAPE   H6X17616   0.659   6.167   5.877  1.0915  0.0762 -1.5184
  158SAPE   H6Y17617   0.589   6.332   5.858 -0.9888 -0.4554 -0.1414
  158SAPE   C3717618   0.520   6.186   5.719  0.0678 -0.5493 -0.2269
  158SAPE   H7X17619   0.415   6.221   5.712 -0.0734 -1.2508 -2.0873
  158SAPE   H7Y17620   0.525   6.076   5.707  0.6575 -0.4191 -1.3350
  158SAPE   C3817621   0.620   6.250   5.620  0.2018  0.1083  0.5805
  158SAPE   H8X17622   0.719   6.209   5.649 -0.6865 -2.5774  0.1491
  158SAPE   H8Y17623   0.617   6.360   5.638 -0.3209 -0.2386  2.8829
  158SAPE   C3917624   0.599   6.212   5.474  0.1035  0.3082  0.6080
  158SAPE   H9X17625   0.491   6.218   5.450  0.7805 -0.2289 -3.1757
  158SAPE   H9Y17626   0.620   6.105   5.452  0.3739  0.8580 -2.1653
  158SAPE  C31017627   0.683   6.291   5.368  0.3307  0.3763  0.5742
  158SAPE  H10X17628   0.783   6.243   5.377 -0.1814 -0.9556 -0.4963
  158SAPE  H10Y17629   0.681   6.396   5.404 -0.8021  1.2925 -1.8644
  158SAPE  C31117630   0.636   6.287   5.220  0.0999  0.1330  0.4280
  158SAPE  H11X17631   0.558   6.365   5.204 -0.9643 -1.2572 -1.4985
  158SAPE  H11Y17632   0.586   6.194   5.188 -0.0760 -0.1201  1.4019
  158SAPE  C31217633   0.756   6.323   5.124  0.3356 -0.1959 -0.2050
  158SAPE  H12X17634   0.841   6.254   5.142 -1.0088 -1.6486  0.8659
  158SAPE  H12Y17635   0.786   6.430   5.131 -0.0947 -0.0527 -0.4628
  158SAPE  C31317636   0.714   6.302   4.976 -0.7366  0.2425 -0.8910
  158SAPE  H13X17637   0.655   6.388   4.936 -2.1106 -0.4429 -0.4205
  158SAPE  H13Y17638   0.654   6.209   4.978 -1.4903  0.7181  0.7489
  158SAPE  C31417639   0.844   6.285   4.894  0.0139 -0.0195  0.7975
  158SAPE  H14X17640   0.815   6.242   4.796  0.0655  3.9211 -1.1453
  158SAPE  H14Y17641   0.929   6.228   4.936 -0.1522 -1.0179 -0.1818
  158SAPE  C31517642   0.896   6.419   4.842 -0.2109  0.0300 -0.0833
  158SAPE  H15X17643   0.926   6.483   4.928 -1.1113  0.2689  0.0623
  158SAPE  H15Y17644   0.812   6.479   4.799 -1.0478 -0.9285  0.1745
  158SAPE  C31617645   1.006   6.417   4.732 -0.9281 -0.1070 -0.1325
  158SAPE  H16X17646   0.983   6.349   4.647 -0.4097  0.2422 -0.5556
  158SAPE  H16Y17647   1.086   6.368   4.790 -2.1050 -1.6423  0.2623
  158SAPE  C31717648   1.053   6.549   4.674  0.4360  0.1052  0.3710
  158SAPE  H17X17649   1.156   6.560   4.633  0.6703  0.0331  0.9299
  158SAPE  H17Y17650   1.036   6.621   4.757  0.6028 -0.2197  0.6883
  158SAPE  C31817651   0.961   6.594   4.552 -0.2267 -0.2841  0.3875
  158SAPE  H18X17652   0.979   6.527   4.465 -1.5406  0.3297 -0.3983
  158SAPE  H18Y17653   0.980   6.701   4.530  0.9048 -0.2272  1.5089
  158SAPE  H18Z17654   0.854   6.593   4.582 -0.3102  0.6492  0.1558
  159SAPE     N17655   1.007   4.893   2.550 -0.1795 -0.6008 -0.0816
  159SAPE   HN117656   0.986   4.991   2.576  0.8591 -0.4445  0.2347
  159SAPE   HN217657   1.111   4.893   2.538 -0.3608 -1.1666 -1.9352
  159SAPE   HN317658   0.962   4.888   2.456  1.5399 -1.3462 -0.9224
  159SAPE   C1217659   0.970   4.780   2.638  0.7287  0.3960  0.3779
  159SAPE  H12A17660   1.060   4.749   2.695  0.9893 -0.2851 -0.3741
  159SAPE  H12B17661   0.957   4.692   2.571  3.7585  0.5495 -0.5694
  159SAPE   C1117662   0.846   4.817   2.729  0.6047  0.1027 -0.2004
  159SAPE  H11A17663   0.873   4.899   2.798  0.3020  0.7850 -0.8771
  159SAPE  H11B17664   0.838   4.724   2.789 -0.0502 -0.8712 -1.7149
  159SAPE     P17665   0.623   4.744   2.611  0.2056 -0.1163  0.2959
  159SAPE   O1317666   0.495   4.803   2.561  0.2678  0.2670 -0.0493
  159SAPE   O1417667   0.697   4.649   2.524 -0.6419 -0.0089  0.0185
  159SAPE   O1217668   0.728   4.852   2.656  0.2962 -0.2284  0.4276
  159SAPE   O1117669   0.593   4.663   2.748  1.0063 -0.1278  0.4071
  159SAPE    C117670   0.547   4.724   2.870 -0.5986 -0.5719  0.2613
  159SAPE    HA17671   0.607   4.815   2.890  0.3710 -0.5621 -2.3116
  159SAPE    HB17672   0.445   4.768   2.859  0.1447  0.7976 -1.6233
  159SAPE    C217673   0.546   4.624   2.990 -0.7647 -1.4368  0.5723
  159SAPE    HS17674   0.537   4.680   3.085  2.4413  0.7962 -0.2623
  159SAPE   O2117675   0.667   4.546   2.992  0.3461 -0.5893  0.0064
  159SAPE   C2117676   0.776   4.612   3.019 -0.2523  0.0327 -0.3156
  159SAPE   O2217677   0.783   4.732   3.035  0.0259  0.0135  0.7082
  159SAPE   C2217678   0.893   4.512   3.015 -0.4403  0.6800  0.3172
  159SAPE   H2R17679   0.899   4.449   3.106 -0.0664 -0.1789 -0.2910
  159SAPE   H2S17680   0.884   4.445   2.926 -1.7611 -0.2356  1.0991
  159SAPE    C317681   0.423   4.527   2.983  0.2396 -0.3379 -0.1507
  159SAPE    HX17682   0.442   4.460   2.897 -1.0808 -1.1471  0.1536
  159SAPE    HY17683   0.336   4.592   2.959 -0.2992 -0.9278  0.1829
  159SAPE   O3117684   0.389   4.456   3.100 -0.0626 -0.1225  0.6336
  159SAPE   C3117685   0.448   4.340   3.120  1.1223 -0.4943  0.4697
  159SAPE   O3217686   0.531   4.291   3.049 -0.0588  0.0845  0.3769
  159SAPE   C3217687   0.386   4.275   3.242 -0.5528 -0.2393  0.0477
  159SAPE   H2X17688   0.293   4.224   3.209 -1.3324  0.1724  1.5282
  159SAPE   H2Y17689   0.357   4.353   3.316 -0.3279  0.2535 -0.3732
  159SAPE   C2317690   1.033   4.573   3.006  0.4453 -0.4112 -0.5409
  159SAPE   H3R17691   1.060   4.614   3.106  2.3223  1.5003 -1.7708
  159SAPE   H3S17692   1.039   4.647   2.924  0.2032  2.4035  1.7994
  159SAPE   C2417693   1.129   4.452   2.983 -0.2900  0.3427 -0.0737
  159SAPE   H4R17694   1.114   4.408   2.882  0.0880 -2.3018  0.9466
  159SAPE   H4S17695   1.104   4.362   3.043  0.8448 -0.2322 -0.4294
  159SAPE   C2517696   1.271   4.493   2.988 -0.2545  0.5839 -0.4450
  159SAPE   H5R17697   1.299   4.547   2.896 -0.3251 -0.2452 -0.9608
  159SAPE   C2617698   1.358   4.494   3.097  0.4518  0.2905 -0.3251
  159SAPE   H6R17699   1.454   4.542   3.075 -0.3797  1.2518 -2.1635
  159SAPE   C2717700   1.330   4.424   3.227 -0.2853 -0.5249  0.8218
  159SAPE   H7R17701   1.231   4.375   3.215 -0.2850 -0.1598 -1.1538
  159SAPE   H7S17702   1.343   4.506   3.300  2.4636  0.1205 -0.2618
  159SAPE   C2817703   1.428   4.314   3.258 -0.2629  0.2643  0.3689
  159SAPE   H8R17704   1.511   4.294   3.189  0.3095 -0.3524  1.2098
  159SAPE   C2917705   1.430   4.237   3.373  0.2592  0.4320  1.1941
  159SAPE   H9R17706   1.504   4.158   3.392  0.0802  0.2851  1.2883
  159SAPE  C21017707   1.329   4.252   3.489 -0.1105 -0.0362 -0.6931
  159SAPE  H10R17708   1.329   4.167   3.561 -0.7384  0.1252 -0.4989
  159SAPE  H10S17709   1.221   4.260   3.466 -0.7938 -1.2509  1.6974
  159SAPE  C21117710   1.365   4.376   3.573 -0.9371  0.3617  0.0294
  159SAPE  H11R17711   1.468   4.376   3.611 -1.0114  1.3197  0.2641
  159SAPE  C21217712   1.284   4.471   3.620  0.0911  0.4516 -0.4248
  159SAPE  H12R17713   1.323   4.553   3.683  0.8253  1.5439 -2.2336
  159SAPE  C21317714   1.133   4.491   3.591 -0.5072 -0.2174  0.2428
  159SAPE  H13R17715   1.074   4.488   3.685  0.0359 -0.3836  0.5867
  159SAPE  H13S17716   1.087   4.409   3.532  0.5951 -0.6984  0.0280
  159SAPE  C21417717   1.114   4.625   3.520  0.5387  0.3868  0.2335
  159SAPE  H14R17718   1.199   4.693   3.538  0.8577 -0.1289  0.6893
  159SAPE  C21517719   1.012   4.672   3.448  0.1183 -0.3231  0.0938
  159SAPE  H15R17720   1.030   4.767   3.396 -0.9966  0.0402  0.3505
  159SAPE  C21617721   0.884   4.602   3.428  0.4347 -0.3555 -0.4911
  159SAPE  H16R17722   0.885   4.509   3.490  2.5975 -0.7858 -1.0649
  159SAPE  H16S17723   0.887   4.570   3.321  1.3902  0.2291 -0.6537
  159SAPE  C21717724   0.754   4.682   3.442  0.0877 -0.2774 -0.3039
  159SAPE  H17R17725   0.673   4.632   3.383 -0.0346  1.9820 -2.1970
  159SAPE  H17S17726   0.758   4.781   3.393  0.7066  0.7486  1.7343
  159SAPE  C21817727   0.705   4.711   3.587 -0.0435  0.1859  0.3293
  159SAPE  H18R17728   0.627   4.790   3.592 -0.0203  0.4863 -2.2902
  159SAPE  H18S17729   0.790   4.752   3.646 -1.0463  1.8263  0.6991
  159SAPE  C21917730   0.639   4.582   3.652 -0.1370  0.3742 -0.2443
  159SAPE  H19R17731   0.714   4.500   3.647 -0.4473  0.1495 -2.9562
  159SAPE  H19S17732   0.551   4.555   3.589 -1.5210  0.2288  1.6460
  159SAPE  C22017733   0.586   4.617   3.794 -0.4984  0.9149 -0.2705
  159SAPE  H20R17734   0.524   4.709   3.789 -2.7519 -0.3362  2.2728
  159SAPE  H20S17735   0.665   4.635   3.871 -0.6684 -1.4828  0.5550
  159SAPE  H20T17736   0.521   4.534   3.829 -1.3605  0.5335 -2.6493
  159SAPE   C3317737   0.472   4.162   3.287 -0.1434  0.3406  0.5137
  159SAPE   H3X17738   0.500   4.097   3.201  0.3943 -0.2873  1.1508
  159SAPE   H3Y17739   0.409   4.102   3.357  0.3995 -1.2054 -0.2858
  159SAPE   C3417740   0.601   4.198   3.362 -0.2422 -0.3848 -0.1483
  159SAPE   H4X17741   0.670   4.268   3.310 -0.5984  1.3323  1.5706
  159SAPE   H4Y17742   0.652   4.102   3.385 -1.7231 -0.8512  1.4227
  159SAPE   C3517743   0.580   4.275   3.498 -0.1189  1.0412 -1.2204
  159SAPE   H5X17744   0.523   4.370   3.491  0.6875  1.8171  1.6149
  159SAPE   H5Y17745   0.683   4.287   3.537 -0.6644 -1.2018  1.1443
  159SAPE   C3617746   0.511   4.189   3.610  0.5858  0.0719 -0.4327
  159SAPE   H6X17747   0.565   4.091   3.617  2.2858  0.9444 -0.6840
  159SAPE   H6Y17748   0.405   4.179   3.580  0.2144 -0.9546  1.0868
  159SAPE   C3717749   0.516   4.249   3.749  0.9190 -0.9603  0.2399
  159SAPE   H7X17750   0.425   4.310   3.765  2.2306  1.0603  0.2945
  159SAPE   H7Y17751   0.601   4.321   3.750 -1.0353  1.5004  2.1928
  159SAPE   C3817752   0.532   4.152   3.866  0.0789 -0.3001 -0.9788
  159SAPE   H8X17753   0.636   4.114   3.857  0.7543  1.0786  0.5181
  159SAPE   H8Y17754   0.449   4.079   3.864 -1.1644  0.8322  2.5942
  159SAPE   C3917755   0.536   4.219   4.008 -0.0670  0.4209 -0.2615
  159SAPE   H9X17756   0.552   4.140   4.084  0.3678  0.3744 -0.3963
  159SAPE   H9Y17757   0.435   4.264   4.021 -1.7316 -3.0326 -0.0452
  159SAPE  C31017758   0.654   4.319   4.034  0.4541  0.1725  0.1733
  159SAPE  H10X17759   0.665   4.391   3.950 -0.3796 -0.4978 -0.5226
  159SAPE  H10Y17760   0.750   4.265   4.039 -0.7145 -1.9410  1.2196
  159SAPE  C31117761   0.625   4.411   4.151 -0.2866 -0.4358 -0.0432
  159SAPE  H11X17762   0.532   4.462   4.119 -0.0387  0.3076  0.4051
  159SAPE  H11Y17763   0.701   4.492   4.147 -0.8979  0.1234 -3.2805
  159SAPE  C31217764   0.625   4.343   4.290  0.6338  0.1929  0.0957
  159SAPE  H12X17765   0.729   4.310   4.307  0.6185  1.0048  2.0661
  159SAPE  H12Y17766   0.551   4.260   4.294  1.0606 -0.1708  0.5038
  159SAPE  C31317767   0.600   4.445   4.403  0.7011  0.6851 -0.0331
  159SAPE  H13X17768   0.503   4.495   4.385  0.2926  0.3372  1.1285
  159SAPE  H13Y17769   0.669   4.533   4.402  0.4425  0.9301 -2.2730
  159SAPE  C31417770   0.593   4.366   4.533 -0.6728 -0.8509  0.2100
  159SAPE  H14X17771   0.691   4.328   4.570 -0.5927  0.7932  1.8457
  159SAPE  H14Y17772   0.536   4.271   4.522  0.0274 -1.6777  2.8998
  159SAPE  C31517773   0.527   4.435   4.664 -0.6890 -0.2605 -0.4213
  159SAPE  H15X17774   0.417   4.435   4.644 -1.1929 -1.3008  2.0320
  159SAPE  H15Y17775   0.554   4.543   4.665 -0.2945 -0.3361 -1.6013
  159SAPE  C31617776   0.565   4.371   4.792  0.4780  0.1168 -0.5861
  159SAPE  H16X17777   0.540   4.445   4.871 -0.9919  0.1315 -1.0337
  159SAPE  H16Y17778   0.676   4.370   4.797  0.5768  1.5131 -1.8012
  159SAPE  C31717779   0.503   4.237   4.806  1.1552  0.0122  0.6154
  159SAPE  H17X17780   0.570   4.166   4.859  2.2650 -0.1147 -0.8789
  159SAPE  H17Y17781   0.477   4.193   4.707 -0.8484  0.9746  0.6763
  159SAPE  C31817782   0.367   4.228   4.880 -0.3325 -0.1793 -0.1719
  159SAPE  H18X17783   0.337   4.123   4.867  1.2303 -0.7593  0.6018
  159SAPE  H18Y17784   0.290   4.296   4.838  0.0143  1.4542  1.6844
  159SAPE  H18Z17785   0.372   4.253   4.988 -0.2470  1.6530 -0.5535
  160SAPE     N17786   0.066   3.483   2.665 -0.6781 -0.2244  0.2558
  160SAPE   HN117787   0.021   3.473   2.572 -1.7300 -0.5425  0.7749
  160SAPE   HN217788   0.081   3.584   2.686  1.6895 -0.4557 -0.0546
  160SAPE   HN317789   0.168   3.462   2.667 -0.2862  1.5771  0.8453
  160SAPE   C1217790   0.003   3.411   2.783  0.6928 -0.2596 -0.8028
  160SAPE  H12A17791  -0.085   3.470   2.816  2.5007  0.4193  3.4761
  160SAPE  H12B17792   0.074   3.403   2.868 -0.7960  0.3030  0.5349
  160SAPE   C1117793  -0.039   3.262   2.754 -0.2304  0.5650 -0.4501
  160SAPE  H11A17794  -0.120   3.258   2.678 -0.2385 -3.0299 -0.4334
  160SAPE  H11B17795  -0.075   3.215   2.848  0.6634 -1.0986 -0.8940
  160SAPE     P17796   0.042   3.047   2.640 -0.1812  0.6822  0.7343
  160SAPE   O1317797  -0.073   3.063   2.556  0.0087 -0.3608  0.4510
  160SAPE   O1417798   0.165   2.986   2.584  0.0492 -0.7461 -0.1979
  160SAPE   O1217799   0.081   3.186   2.708 -0.0785  0.4196  0.0896
  160SAPE   O1117800  -0.004   2.955   2.757 -0.1148 -0.0012  0.0086
  160SAPE    C117801   0.094   2.915   2.858 -0.4004  0.1222  0.3482
  160SAPE    HA17802   0.184   2.871   2.809  0.3691  1.8963  0.0800
  160SAPE    HB17803   0.137   3.002   2.913 -0.4373  1.4317 -1.5960
  160SAPE    C217804   0.038   2.820   2.969  0.2454  0.0286 -0.1770
  160SAPE    HS17805  -0.008   2.730   2.923  1.4618 -1.4353  1.3475
  160SAPE   O2117806  -0.062   2.881   3.045  0.0238 -0.1170 -0.2874
  160SAPE   C2117807  -0.131   2.806   3.128  1.2957 -0.1482 -0.1231
  160SAPE   O2217808  -0.139   2.681   3.130  0.3355  0.1113 -0.0844
  160SAPE   C2217809  -0.210   2.896   3.218  0.3286 -0.7875 -0.0150
  160SAPE   H2R17810  -0.208   2.992   3.162  1.1641 -0.7987 -0.0159
  160SAPE   H2S17811  -0.314   2.859   3.232 -0.0160 -0.7882 -2.1818
  160SAPE    C317812   0.149   2.766   3.065 -0.4997 -0.4333 -0.1107
  160SAPE    HX17813   0.236   2.741   3.000  0.6747  1.0578  0.8309
  160SAPE    HY17814   0.109   2.680   3.123 -0.4258  1.1954  2.5208
  160SAPE   O3117815   0.193   2.870   3.161  0.7402 -0.3069 -0.1965
  160SAPE   C3117816   0.299   2.829   3.232 -0.0162  0.1886  0.4467
  160SAPE   O3217817   0.348   2.716   3.224  0.0735  0.2063  0.0142
  160SAPE   C3217818   0.348   2.950   3.309  0.2163  0.7058 -0.0315
  160SAPE   H2X17819   0.320   3.044   3.256 -2.1516 -0.1470 -0.3962
  160SAPE   H2Y17820   0.452   2.925   3.339  0.4568  1.8458  0.1260
  160SAPE   C2317821  -0.144   2.907   3.362 -0.4240 -0.8326  0.7321
  160SAPE   H3R17822  -0.120   3.012   3.389  2.1230 -2.0493  3.8181
  160SAPE   H3S17823  -0.049   2.851   3.366 -0.1779 -0.4920 -0.1940
  160SAPE   C2417824  -0.230   2.847   3.469 -0.5870 -0.1508  0.0591
  160SAPE   H4R17825  -0.159   2.816   3.548 -1.0338 -0.7721  0.2250
  160SAPE   H4S17826  -0.275   2.751   3.435  0.2071  0.2272 -2.2598
  160SAPE   C2517827  -0.343   2.936   3.526 -0.3300 -0.0284  0.2888
  160SAPE   H5R17828  -0.412   2.981   3.452 -0.9174 -3.5505 -1.5787
  160SAPE   C2617829  -0.368   2.959   3.657 -0.4835  0.6169  0.2740
  160SAPE   H6R17830  -0.450   3.028   3.680  0.0546  1.4031 -0.1064
  160SAPE   C2717831  -0.308   2.890   3.775  0.1259 -0.0730 -0.0442
  160SAPE   H7R17832  -0.206   2.868   3.737  1.5241  1.2268  2.6360
  160SAPE   H7S17833  -0.361   2.794   3.787 -0.9870  0.7185  1.7665
  160SAPE   C2817834  -0.289   2.969   3.903 -0.2791  0.2125  0.1991
  160SAPE   H8R17835  -0.239   3.066   3.894 -3.1192  1.6509 -1.3131
  160SAPE   C2917836  -0.327   2.935   4.027  0.1463  0.0008 -0.3416
  160SAPE   H9R17837  -0.298   3.006   4.106  0.5787 -1.8956  1.3092
  160SAPE  C21017838  -0.392   2.807   4.080  0.4967 -0.2277 -0.4000
  160SAPE  H10R17839  -0.470   2.776   4.007 -0.3745  1.9032 -0.4326
  160SAPE  H10S17840  -0.445   2.852   4.167 -1.7213  0.5687 -2.0574
  160SAPE  C21117841  -0.292   2.701   4.102  0.6118  1.1841  0.5020
  160SAPE  H11R17842  -0.226   2.682   4.017 -0.9073 -0.9183 -0.3069
  160SAPE  C21217843  -0.265   2.634   4.219 -0.8230  0.4002  0.8168
  160SAPE  H12R17844  -0.186   2.558   4.224 -2.3250 -1.2486  0.3132
  160SAPE  C21317845  -0.344   2.647   4.344  0.2067 -0.3446  0.0493
  160SAPE  H13R17846  -0.401   2.743   4.349  2.2362  1.2733 -3.8709
  160SAPE  H13S17847  -0.276   2.654   4.432  0.2744  0.3980 -0.0521
  160SAPE  C21417848  -0.428   2.523   4.367 -0.0386 -0.3011 -0.1358
  160SAPE  H14R17849  -0.493   2.491   4.284 -0.7361  0.5791  0.0472
  160SAPE  C21517850  -0.445   2.457   4.486 -0.4929 -0.2173  0.5611
  160SAPE  H15R17851  -0.531   2.389   4.483  0.9535 -2.0967  0.1862
  160SAPE  C21617852  -0.365   2.480   4.615 -0.0856  0.0013  0.0502
  160SAPE  H16R17853  -0.418   2.567   4.660 -2.1176 -0.1842 -1.7889
  160SAPE  H16S17854  -0.261   2.509   4.593  0.4610 -1.8050  0.0383
  160SAPE  C21717855  -0.344   2.362   4.720  0.9434 -0.2327  0.7885
  160SAPE  H17R17856  -0.288   2.283   4.666 -0.8424 -1.1001  0.1517
  160SAPE  H17S17857  -0.442   2.319   4.750 -0.0363 -0.4630 -2.3686
  160SAPE  C21817858  -0.263   2.416   4.835  0.1012 -0.0245  0.3688
  160SAPE  H18R17859  -0.331   2.492   4.879 -0.4059  0.8226 -1.7445
  160SAPE  H18S17860  -0.181   2.473   4.786 -0.7165 -0.0513 -1.0670
  160SAPE  C21917861  -0.222   2.316   4.939  0.6978 -0.0910 -0.1069
  160SAPE  H19R17862  -0.135   2.352   4.998  0.0186  0.6074  0.4898
  160SAPE  H19S17863  -0.182   2.227   4.887  0.3526 -0.6012  0.4794
  160SAPE  C22017864  -0.336   2.270   5.032 -0.5802 -0.3291 -0.0795
  160SAPE  H20R17865  -0.379   2.354   5.091 -0.8320 -0.6862  0.2485
  160SAPE  H20S17866  -0.288   2.204   5.107  1.2649  0.4505 -0.5047
  160SAPE  H20T17867  -0.407   2.212   4.971  0.1298 -2.3171  0.9056
  160SAPE   C3317868   0.277   2.985   3.441 -0.2162 -0.0753 -0.3411
  160SAPE   H3X17869   0.173   3.024   3.436  0.7268  2.8039  0.6733
  160SAPE   H3Y17870   0.328   3.066   3.498 -1.5291 -0.2632  1.1720
  160SAPE   C3417871   0.279   2.871   3.539 -0.9287  0.5780 -0.3700
  160SAPE   H4X17872   0.372   2.850   3.595  0.4791  1.0121 -2.4181
  160SAPE   H4Y17873   0.261   2.778   3.482 -0.1576  1.1907 -1.6599
  160SAPE   C3517874   0.160   2.880   3.632 -0.0856  0.0593  0.3845
  160SAPE   H5X17875   0.070   2.890   3.568 -1.1142  0.4899  1.8564
  160SAPE   H5Y17876   0.162   2.974   3.691  0.3567 -0.1005  0.6297
  160SAPE   C3617877   0.144   2.749   3.713 -0.0018 -1.2253 -0.4730
  160SAPE   H6X17878   0.213   2.668   3.680  1.8426 -0.8780  2.2693
  160SAPE   H6Y17879   0.043   2.717   3.679  0.1502  0.4694 -2.8270
  160SAPE   C3717880   0.168   2.748   3.862 -0.2719 -0.7065  0.4940
  160SAPE   H7X17881   0.277   2.762   3.881 -0.5628  2.6395  0.4115
  160SAPE   H7Y17882   0.135   2.646   3.889  1.3722 -2.0629 -2.2476
  160SAPE   C3817883   0.095   2.862   3.940 -0.0367 -0.4558  0.3600
  160SAPE   H8X17884  -0.010   2.872   3.908  0.0331 -0.5390  0.1033
  160SAPE   H8Y17885   0.149   2.959   3.930  0.1806 -0.1888  3.3829
  160SAPE   C3917886   0.088   2.824   4.087  0.3755 -0.7651  1.0560
  160SAPE   H9X17887   0.187   2.813   4.135  1.6575  0.5807 -1.1130
  160SAPE   H9Y17888   0.027   2.732   4.100 -0.8366 -0.4714 -1.8227
  160SAPE  C31017889   0.016   2.939   4.166  0.0445  0.4651  0.5704
  160SAPE  H10X17890  -0.076   2.963   4.108  1.1202 -3.1576 -3.1335
  160SAPE  H10Y17891   0.081   3.029   4.165  1.1058 -0.2706 -1.1328
  160SAPE  C31117892  -0.004   2.905   4.317 -0.0813 -0.4473  0.1536
  160SAPE  H11X17893   0.095   2.876   4.359  0.9538  1.5823 -0.7347
  160SAPE  H11Y17894  -0.085   2.830   4.325 -1.9038  1.5617  2.0107
  160SAPE  C31217895  -0.048   3.026   4.391  1.0081 -0.9754 -0.2065
  160SAPE  H12X17896  -0.150   3.057   4.361  0.9007 -1.4893 -0.3910
  160SAPE  H12Y17897   0.009   3.116   4.363  1.7833 -0.5608  2.4416
  160SAPE  C31317898  -0.059   2.997   4.539  0.6501 -0.3151 -0.1485
  160SAPE  H13X17899   0.016   2.939   4.597 -1.3538 -1.9187  0.9572
  160SAPE  H13Y17900  -0.142   2.926   4.556  0.7962  0.1327  3.0977
  160SAPE  C31417901  -0.097   3.119   4.623  1.1206  0.4207 -0.8437
  160SAPE  H14X17902  -0.184   3.164   4.570  0.0978 -2.4534 -1.7598
  160SAPE  H14Y17903  -0.014   3.193   4.623  1.4409  0.0809  0.5776
  160SAPE  C31517904  -0.148   3.085   4.767  0.3044  0.8094  0.7158
  160SAPE  H15X17905  -0.072   3.018   4.814 -0.3346 -0.3930  0.0904
  160SAPE  H15Y17906  -0.247   3.036   4.757  0.4369  1.0078 -2.8273
  160SAPE  C31617907  -0.186   3.208   4.852 -0.3640 -0.2009  0.1536
  160SAPE  H16X17908  -0.258   3.276   4.800 -0.5972 -0.7388 -0.2421
  160SAPE  H16Y17909  -0.089   3.261   4.845 -0.1519 -0.6337 -0.2568
  160SAPE  C31717910  -0.234   3.176   4.988 -0.2063 -0.4547  0.3022
  160SAPE  H17X17911  -0.178   3.090   5.031 -2.6109 -3.4228 -2.0614
  160SAPE  H17Y17912  -0.338   3.139   4.984 -1.3228  2.5184 -1.8261
  160SAPE  C31817913  -0.237   3.298   5.079 -0.3130  0.3133  0.0306
  160SAPE  H18X17914  -0.296   3.272   5.170  2.0561  1.5815  2.0525
  160SAPE  H18Y17915  -0.295   3.374   5.023 -2.6911 -1.8813 -0.7010
  160SAPE  H18Z17916  -0.135   3.329   5.109 -0.0916  0.0534 -0.4364
  161SAPE     N17917   5.834   5.574   2.239  0.5257  0.0434  0.2856
  161SAPE   HN117918   5.899   5.622   2.305 -0.8143  2.7855 -0.2442
  161SAPE   HN217919   5.845   5.471   2.248 -0.0351  0.0954  1.7017
  161SAPE   HN317920   5.854   5.597   2.139 -0.8331  1.4123  0.2972
  161SAPE   C1217921   5.695   5.619   2.286  0.9865  0.7488  0.0652
  161SAPE  H12A17922   5.626   5.558   2.224 -0.2049  2.2221 -0.1191
  161SAPE  H12B17923   5.685   5.722   2.246  3.5236  0.3927 -1.7289
  161SAPE   C1117924   5.671   5.607   2.438 -0.6866 -0.0806  0.4571
  161SAPE  H11A17925   5.577   5.662   2.459 -0.9596 -0.0151 -0.8509
  161SAPE  H11B17926   5.747   5.650   2.506 -1.6113  2.0093  0.2581
  161SAPE     P17927   5.618   5.402   2.600  0.0322  0.3907 -0.1688
  161SAPE   O1317928   5.486   5.457   2.648 -0.4227 -0.2057  0.4971
  161SAPE   O1417929   5.634   5.257   2.585  0.1687  0.8933 -0.2237
  161SAPE   O1217930   5.644   5.469   2.468  0.5349  0.0726 -0.0350
  161SAPE   O1117931   5.727   5.473   2.692 -0.0265 -0.6160  0.3245
  161SAPE    C117932   5.864   5.443   2.676 -0.9987 -0.3737  0.6994
  161SAPE    HA17933   5.887   5.355   2.612  1.6136 -0.8707  2.1972
  161SAPE    HB17934   5.909   5.535   2.634 -4.6568  0.5327 -1.7017
  161SAPE    C217935   5.919   5.407   2.812  0.5330  0.1006  0.9222
  161SAPE    HS17936   5.884   5.302   2.823  2.6103 -0.6895  0.5448
  161SAPE   O2117937   5.886   5.491   2.925 -0.1011 -0.5144  0.1281
  161SAPE   C2117938   5.771   5.469   2.992  0.0193  0.4297  0.4745
  161SAPE   O2217939   5.705   5.364   2.992  0.2198 -0.0822 -0.2629
  161SAPE   C2217940   5.753   5.579   3.098 -0.1276  0.1900 -0.4673
  161SAPE   H2R17941   5.812   5.543   3.186 -0.1489 -0.8461 -0.8684
  161SAPE   H2S17942   5.799   5.677   3.074 -2.8703  1.6728 -0.0415
  161SAPE    C317943   6.081   5.396   2.809 -0.9579  0.3054  0.5969
  161SAPE    HX17944   6.137   5.492   2.810  0.6284 -0.5404 -0.7275
  161SAPE    HY17945   6.107   5.351   2.710 -1.0197 -1.5984  1.4073
  161SAPE   O3117946   6.129   5.308   2.908 -0.5094 -0.3357 -0.0714
  161SAPE   C3117947   6.263   5.290   2.915  0.3607 -0.0008  0.1240
  161SAPE   O3217948   6.345   5.358   2.860  0.1022 -0.4226 -0.1825
  161SAPE   C3217949   6.289   5.191   3.026  0.0898  0.2149 -0.1735
  161SAPE   H2X17950   6.374   5.126   2.996 -0.2017 -0.3790  0.2595
  161SAPE   H2Y17951   6.208   5.117   3.045 -0.0834  0.1733 -1.0285
  161SAPE   C2317952   5.602   5.601   3.128  0.0098  0.7827  0.7603
  161SAPE   H3R17953   5.592   5.648   3.228 -2.3446 -0.2287  1.0718
  161SAPE   H3S17954   5.539   5.509   3.123 -1.8190  2.0383 -0.1095
  161SAPE   C2417955   5.539   5.696   3.028  0.4927  0.2902 -0.3607
  161SAPE   H4R17956   5.533   5.649   2.927 -2.2601  3.7923 -2.0556
  161SAPE   H4S17957   5.589   5.795   3.020  0.3043  0.3078 -1.5996
  161SAPE   C2517958   5.386   5.717   3.057 -0.4245  0.5040 -0.3863
  161SAPE   H5R17959   5.324   5.631   3.027  0.7267 -0.3258 -0.4587
  161SAPE   C2617960   5.328   5.830   3.106 -0.1129 -0.3426 -0.4607
  161SAPE   H6R17961   5.220   5.845   3.123 -0.0920 -0.4272 -0.2521
  161SAPE   C2717962   5.403   5.958   3.133 -0.6288 -0.5122  0.1881
  161SAPE   H7R17963   5.496   5.937   3.191 -1.2422 -2.1613  0.6358
  161SAPE   H7S17964   5.337   6.018   3.199 -0.8322 -0.9049  0.3465
  161SAPE   C2817965   5.442   6.047   3.011  0.6736  0.9084  0.5090
  161SAPE   H8R17966   5.419   6.000   2.915 -1.0849  2.6456  0.0248
  161SAPE   C2917967   5.506   6.162   3.016 -0.8737 -0.1894  0.2937
  161SAPE   H9R17968   5.529   6.220   2.925  2.2825 -1.5686  0.0849
  161SAPE  C21017969   5.545   6.239   3.140  0.2143  0.4526  0.7362
  161SAPE  H10R17970   5.533   6.165   3.221 -2.0180 -0.1840 -0.0851
  161SAPE  H10S17971   5.465   6.313   3.162  0.7578  1.1424  0.4323
  161SAPE  C21117972   5.680   6.317   3.148  0.2197 -0.2227  0.6958
  161SAPE  H11R17973   5.673   6.426   3.163  1.3905 -0.0635  0.2212
  161SAPE  C21217974   5.798   6.255   3.127 -0.0419  0.6779 -0.0765
  161SAPE  H12R17975   5.887   6.317   3.143 -0.0486  0.8942 -0.8479
  161SAPE  C21317976   5.826   6.113   3.092 -0.1538  0.7097  0.0538
  161SAPE  H13R17977   5.832   6.116   2.981  0.4056  2.1169  0.1004
  161SAPE  H13S17978   5.739   6.048   3.115 -2.0960  3.0915 -0.1610
  161SAPE  C21417979   5.957   6.057   3.128  0.6716  0.0052  0.3039
  161SAPE  H14R17980   6.029   6.073   3.047 -0.4421 -1.9800 -1.1520
  161SAPE  C21517981   6.005   5.995   3.235 -0.3602 -0.1221 -0.0411
  161SAPE  H15R17982   6.106   5.952   3.228 -0.2437 -0.4006  2.6005
  161SAPE  C21617983   5.936   5.957   3.367 -0.8766  0.3192  0.4807
  161SAPE  H16R17984   5.945   5.847   3.377 -0.6458 -0.4652 -4.9575
  161SAPE  H16S17985   5.828   5.977   3.348 -1.0347 -1.2916 -0.5809
  161SAPE  C21717986   6.002   6.039   3.482 -0.4048  0.6770 -0.6591
  161SAPE  H17R17987   6.113   6.039   3.476 -0.1758  2.5991  1.8298
  161SAPE  H17S17988   5.975   6.002   3.583  1.2609 -2.1114 -1.1295
  161SAPE  C21817989   5.978   6.192   3.478 -0.4453  0.3227  0.2932
  161SAPE  H18R17990   6.006   6.234   3.379  0.5772  1.9681  1.2301
  161SAPE  H18S17991   6.046   6.251   3.544  0.0139  0.5780 -0.3895
  161SAPE  C21917992   5.836   6.233   3.501 -0.7504 -0.1259 -0.2559
  161SAPE  H19R17993   5.809   6.181   3.595  3.4915 -1.4023  0.4757
  161SAPE  H19S17994   5.768   6.198   3.421 -1.3759  0.9414 -0.2125
  161SAPE  C22017995   5.810   6.382   3.524  0.6727 -0.1605 -0.3214
  161SAPE  H20R17996   5.700   6.396   3.520  1.1094  5.0319 -0.8179
  161SAPE  H20S17997   5.840   6.443   3.437  1.1687  0.8042  0.4993
  161SAPE  H20T17998   5.861   6.417   3.617 -1.2493  0.6673  0.4684
  161SAPE   C3317999   6.349   5.252   3.151 -0.1619  0.1915  0.0097
  161SAPE   H3X18000   6.298   5.349   3.168  2.4872  1.4674  1.3115
  161SAPE   H3Y18001   6.456   5.275   3.133 -0.2677  0.1182 -0.7546
  161SAPE   C3418002   6.336   5.166   3.274 -0.0127 -0.7453  0.1147
  161SAPE   H4X18003   6.232   5.183   3.309  0.0952  2.4354 -0.8069
  161SAPE   H4Y18004   6.396   5.220   3.350 -3.3473  2.4348  0.7414
  161SAPE   C3518005   6.369   5.017   3.273 -0.2089 -0.6581  0.6431
  161SAPE   H5X18006   6.478   5.006   3.293 -0.5635 -1.8547  2.1321
  161SAPE   H5Y18007   6.339   4.955   3.186  0.4234 -0.3587  0.2076
  161SAPE   C3618008   6.295   4.950   3.393 -0.0017  0.5387  0.6033
  161SAPE   H6X18009   6.334   4.846   3.397  2.3659  1.3448  0.0692
  161SAPE   H6Y18010   6.187   4.959   3.371  0.0333  2.4133  1.0010
  161SAPE   C3718011   6.301   5.011   3.535  0.0544  0.2344  0.2578
  161SAPE   H7X18012   6.276   5.119   3.534  0.1974  0.4947  4.7899
  161SAPE   H7Y18013   6.405   5.004   3.571  0.9790  1.8734 -1.8991
  161SAPE   C3818014   6.203   4.931   3.628 -0.1249 -0.7315  1.3167
  161SAPE   H8X18015   6.242   4.827   3.626 -0.4709 -0.8603 -0.4419
  161SAPE   H8Y18016   6.097   4.938   3.594  0.6650 -1.1182 -1.5049
  161SAPE   C3918017   6.211   4.972   3.775 -0.4810  0.1394 -0.5467
  161SAPE   H9X18018   6.155   5.066   3.793 -0.1577  0.7719 -2.5783
  161SAPE   H9Y18019   6.318   4.975   3.804 -0.1458  3.4499 -1.6776
  161SAPE  C31018020   6.132   4.883   3.871 -0.4991  0.1415 -0.2508
  161SAPE  H10X18021   6.153   4.776   3.849 -5.0294 -1.3272  1.4717
  161SAPE  H10Y18022   6.022   4.898   3.862 -0.5526  1.1320  1.6147
  161SAPE  C31118023   6.176   4.897   4.021 -0.3411 -0.2991  0.1813
  161SAPE  H11X18024   6.285   4.915   4.019 -0.0172 -2.1160 -1.1715
  161SAPE  H11Y18025   6.155   4.802   4.074 -4.7696 -0.4934 -1.4671
  161SAPE  C31218026   6.104   5.006   4.094 -0.4440 -0.2359  0.2507
  161SAPE  H12X18027   5.994   4.994   4.110 -0.7853  1.5917 -0.5521
  161SAPE  H12Y18028   6.112   5.100   4.036 -0.4670  0.8004  1.8819
  161SAPE  C31318029   6.180   5.026   4.218  0.7109 -0.3575 -0.8290
  161SAPE  H13X18030   6.287   5.043   4.194  0.8708 -0.7325 -0.4087
  161SAPE  H13Y18031   6.182   4.931   4.275 -1.1094 -0.5478 -0.9956
  161SAPE  C31418032   6.113   5.141   4.300  0.1357  0.3605 -0.2094
  161SAPE  H14X18033   6.108   5.229   4.232 -1.3316  2.2292  2.1530
  161SAPE  H14Y18034   6.184   5.184   4.374  0.4924  0.2100 -0.4586
  161SAPE  C31518035   5.981   5.113   4.373 -0.0468 -0.1328 -0.0593
  161SAPE  H15X18036   5.974   5.019   4.432  0.4490 -0.4773 -0.5367
  161SAPE  H15Y18037   5.908   5.094   4.290  3.2338 -4.4586 -2.3832
  161SAPE  C31618038   5.933   5.242   4.440  0.0445 -0.1805  0.4390
  161SAPE  H16X18039   5.961   5.335   4.388 -1.6557  0.4379  0.5546
  161SAPE  H16Y18040   5.976   5.242   4.543  1.7106 -0.0229 -0.2428
  161SAPE  C31718041   5.780   5.244   4.451 -0.3013 -0.1399  0.2837
  161SAPE  H17X18042   5.746   5.141   4.475  3.4542 -1.8805 -1.0624
  161SAPE  H17Y18043   5.735   5.284   4.357  1.5864  0.0038 -0.5986
  161SAPE  C31818044   5.739   5.338   4.559  0.5717  0.2569 -0.3533
  161SAPE  H18X18045   5.764   5.297   4.659 -1.9017 -1.8551 -0.4906
  161SAPE  H18Y18046   5.632   5.360   4.542  0.7294  0.3523 -1.2811
  161SAPE  H18Z18047   5.790   5.435   4.546  0.1772  0.6065  0.5987
  162SAPE     N18048   4.334   6.720   2.775  0.1295 -0.2314  0.1530
  162SAPE   HN118049   4.234   6.693   2.773  0.2081 -0.5563 -2.3024
  162SAPE   HN218050   4.362   6.738   2.874 -1.3697  0.8258  0.4130
  162SAPE   HN318051   4.334   6.811   2.724  0.1527  0.8329  1.9753
  162SAPE   C1218052   4.404   6.610   2.702  0.1731 -0.0378  0.4978
  162SAPE  H12A18053   4.485   6.660   2.644 -0.0950  1.2121  1.1829
  162SAPE  H12B18054   4.333   6.566   2.629  1.3207  0.6414 -1.0976
  162SAPE   C1118055   4.447   6.491   2.795 -1.0882 -0.2810 -0.4855
  162SAPE  H11A18056   4.504   6.532   2.882  0.0121 -1.5862 -0.5588
  162SAPE  H11B18057   4.511   6.426   2.733 -1.4673  0.2355 -1.4307
  162SAPE     P18058   4.283   6.295   2.787 -0.1371 -0.0185 -0.0755
  162SAPE   O1318059   4.213   6.342   2.669 -0.6173  0.2939 -0.4141
  162SAPE   O1418060   4.389   6.197   2.765 -0.3824  0.1198  0.3560
  162SAPE   O1218061   4.339   6.423   2.851  0.2432 -0.3338  0.3608
  162SAPE   O1118062   4.179   6.250   2.891  0.4582 -0.0551 -0.2474
  162SAPE    C118063   4.072   6.328   2.935  0.0845 -0.8228 -0.1532
  162SAPE    HA18064   4.012   6.370   2.852 -2.3587 -1.0684  1.3794
  162SAPE    HB18065   3.997   6.258   2.980  0.0444  0.1608  1.3844
  162SAPE    C218066   4.103   6.427   3.046 -0.7444  0.1381 -0.4108
  162SAPE    HS18067   4.165   6.512   3.010 -0.5071  1.0141  1.8982
  162SAPE   O2118068   4.177   6.344   3.147  0.2786  0.0700 -0.2013
  162SAPE   C2118069   4.268   6.423   3.214 -0.2417  0.4916 -0.5318
  162SAPE   O2218070   4.295   6.537   3.186 -0.0624  0.4587  0.0894
  162SAPE   C2218071   4.347   6.334   3.317 -0.2456  0.0505  0.3747
  162SAPE   H2R18072   4.288   6.247   3.353  1.3263 -0.5602  1.5583
  162SAPE   H2S18073   4.432   6.290   3.261 -0.3556  0.8360 -0.4339
  162SAPE    C318074   3.980   6.490   3.116 -0.5105 -0.2300 -0.6805
  162SAPE    HX18075   3.907   6.411   3.142 -0.6734  0.9242  3.0392
  162SAPE    HY18076   3.925   6.543   3.035  0.4776 -0.7161 -1.6763
  162SAPE   O3118077   4.014   6.563   3.240 -0.3948  0.5355 -0.9630
  162SAPE   C3118078   4.023   6.696   3.218  0.0458 -0.4775  0.3599
  162SAPE   O3218079   4.005   6.755   3.114  0.2382 -0.1433  0.0224
  162SAPE   C3218080   4.038   6.768   3.355  0.7596  0.4421 -0.6940
  162SAPE   H2X18081   3.987   6.693   3.419  2.2295  0.2844  0.3461
  162SAPE   H2Y18082   3.979   6.862   3.345 -1.5413 -0.7252  1.0062
  162SAPE   C2318083   4.407   6.435   3.423 -0.1740 -0.4566 -0.2062
  162SAPE   H3R18084   4.321   6.499   3.455  2.2482  3.5252 -0.9471
  162SAPE   H3S18085   4.480   6.502   3.373 -1.8066  1.0789 -0.6941
  162SAPE   C2418086   4.469   6.363   3.546 -0.2689 -0.6788  0.1781
  162SAPE   H4R18087   4.516   6.443   3.606  0.3774  0.0195 -1.2096
  162SAPE   H4S18088   4.556   6.304   3.509 -1.6593 -2.8429  0.1802
  162SAPE   C2518089   4.385   6.277   3.636 -0.1837  0.2308 -0.3474
  162SAPE   H5R18090   4.326   6.208   3.573  1.4335  0.5359 -2.3112
  162SAPE   C2618091   4.368   6.268   3.764 -0.3472  0.0018  0.4215
  162SAPE   H6R18092   4.305   6.189   3.807  0.2652 -0.2879  0.7946
  162SAPE   C2718093   4.429   6.345   3.880  0.4614 -0.6037  0.4531
  162SAPE   H7R18094   4.515   6.413   3.863  1.0847 -0.7511  2.7423
  162SAPE   H7S18095   4.473   6.271   3.950  2.4886 -0.8459 -0.9949
  162SAPE   C2818096   4.328   6.438   3.944  0.5163 -0.1759 -0.3080
  162SAPE   H8R18097   4.246   6.473   3.880 -0.2742 -1.2638  0.0720
  162SAPE   C2918098   4.318   6.464   4.074 -0.3238  0.3491  0.2536
  162SAPE   H9R18099   4.244   6.538   4.110 -0.5055  1.2594 -1.8308
  162SAPE  C21018100   4.398   6.407   4.185 -0.1511 -1.1640  0.5446
  162SAPE  H10R18101   4.490   6.373   4.133  0.5254  0.5054  0.5704
  162SAPE  H10S18102   4.345   6.320   4.228 -2.3698 -0.1071  0.1047
  162SAPE  C21118103   4.442   6.515   4.280  0.3214 -0.1991  0.3239
  162SAPE  H11R18104   4.495   6.604   4.245 -1.1030  0.1892 -0.9727
  162SAPE  C21218105   4.439   6.491   4.414  0.6620 -0.4809  0.0752
  162SAPE  H12R18106   4.477   6.573   4.476 -2.5037  0.5378  0.8413
  162SAPE  C21318107   4.401   6.367   4.490 -0.1764 -0.3862  0.9324
  162SAPE  H13R18108   4.464   6.357   4.581  2.7437  1.7164 -0.7043
  162SAPE  H13S18109   4.410   6.279   4.423 -0.0808  0.0758  0.3351
  162SAPE  C21418110   4.250   6.368   4.526 -0.3778 -0.0656  0.3073
  162SAPE  H14R18111   4.193   6.300   4.461  1.4807 -0.4610 -1.0055
  162SAPE  C21518112   4.188   6.435   4.627  0.4437  0.6651  0.4228
  162SAPE  H15R18113   4.078   6.432   4.631  0.5137 -0.1345  2.6549
  162SAPE  C21618114   4.251   6.534   4.716 -0.0089  0.7416  0.4692
  162SAPE  H16R18115   4.361   6.539   4.699  0.1053 -2.9466 -0.7130
  162SAPE  H16S18116   4.241   6.495   4.820  0.5047 -0.2901  0.1425
  162SAPE  C21718117   4.201   6.677   4.701 -0.0118  0.4174  0.2777
  162SAPE  H17R18118   4.091   6.693   4.700  0.3744  4.3990  1.7733
  162SAPE  H17S18119   4.243   6.707   4.602  1.2969  0.8021  0.9321
  162SAPE  C21818120   4.265   6.772   4.798 -0.1453  0.5952 -0.0341
  162SAPE  H18R18121   4.260   6.873   4.753 -0.5678  0.0552 -1.2599
  162SAPE  H18S18122   4.367   6.729   4.810  1.0544  3.2629  0.0557
  162SAPE  C21918123   4.210   6.776   4.932 -0.2698  0.4634  0.1919
  162SAPE  H19R18124   4.267   6.851   4.991 -0.7504  1.7898 -0.9706
  162SAPE  H19S18125   4.218   6.681   4.988 -1.1656 -0.2782 -0.8924
  162SAPE  C22018126   4.062   6.823   4.932  0.3509  0.2603  0.3474
  162SAPE  H20R18127   4.003   6.739   4.888  1.4857  0.0140 -0.7621
  162SAPE  H20S18128   4.050   6.914   4.870 -0.0165 -1.2491 -1.9135
  162SAPE  H20T18129   4.033   6.830   5.039 -2.0997  1.2443 -0.3064
  162SAPE   C3318130   4.186   6.801   3.387  0.4101  0.1008  0.1672
  162SAPE   H3X18131   4.202   6.892   3.326 -0.5734  0.1386 -0.0490
  162SAPE   H3Y18132   4.255   6.724   3.344  2.8213  1.3036  1.6792
  162SAPE   C3418133   4.215   6.825   3.529 -0.7197  0.5188 -0.0367
  162SAPE   H4X18134   4.199   6.730   3.584  1.9560  0.2180  0.3279
  162SAPE   H4Y18135   4.144   6.906   3.557  0.0302  0.6560  1.5773
  162SAPE   C3518136   4.359   6.873   3.559  0.0357  0.6906  0.2968
  162SAPE   H5X18137   4.362   6.976   3.518  2.0655  0.0663 -1.2480
  162SAPE   H5Y18138   4.433   6.799   3.523  1.1194  0.8104  2.1594
  162SAPE   C3618139   4.403   6.867   3.703  0.1607  0.7078 -0.4060
  162SAPE   H6X18140   4.514   6.866   3.708  0.1138 -0.1195  1.4416
  162SAPE   H6Y18141   4.376   6.767   3.742  3.5532 -0.4002 -0.5379
  162SAPE   C3718142   4.330   6.972   3.796  0.5116  0.5322 -0.8952
  162SAPE   H7X18143   4.220   6.968   3.781 -0.0027  1.1309  2.1405
  162SAPE   H7Y18144   4.347   7.079   3.775  0.7150  1.5270  3.3642
  162SAPE   C3818145   4.331   6.940   3.943 -0.7684  0.6997 -0.4036
  162SAPE   H8X18146   4.290   6.839   3.967 -2.3027  1.5977  0.9663
  162SAPE   H8Y18147   4.261   7.015   3.986 -0.6058  1.2721 -1.1253
  162SAPE   C3918148   4.471   6.965   4.008 -0.6594  0.0656 -0.6466
  162SAPE   H9X18149   4.515   7.064   3.982 -0.2548  0.2544  0.6509
  162SAPE   H9Y18150   4.535   6.885   3.966 -2.3503 -1.1952 -0.9223
  162SAPE  C31018151   4.473   6.931   4.167 -0.0214  0.0735 -0.2231
  162SAPE  H10X18152   4.576   6.946   4.203 -0.1313 -0.1087  0.1759
  162SAPE  H10Y18153   4.443   6.824   4.175  0.0543  0.1995  2.8097
  162SAPE  C31118154   4.376   7.029   4.241  0.2496  0.0883  0.2308
  162SAPE  H11X18155   4.273   6.991   4.226  1.5661 -4.9253  1.8047
  162SAPE  H11Y18156   4.395   7.127   4.192  0.1637  0.7721  1.5128
  162SAPE  C31218157   4.390   7.035   4.396  0.0732  0.0045  0.8727
  162SAPE  H12X18158   4.382   6.931   4.433  1.7118 -0.5643 -0.2939
  162SAPE  H12Y18159   4.297   7.084   4.431  0.7924  1.7097  0.4905
  162SAPE  C31318160   4.512   7.101   4.462  0.3425  0.2272  0.3957
  162SAPE  H13X18161   4.515   7.211   4.448  0.1587  0.0867 -0.7967
  162SAPE  H13Y18162   4.600   7.056   4.411  0.2944  1.2560 -0.6109
  162SAPE  C31418163   4.518   7.076   4.613 -0.2414 -0.1373  0.2293
  162SAPE  H14X18164   4.530   6.966   4.629 -0.1491 -0.1868 -0.1602
  162SAPE  H14Y18165   4.426   7.110   4.664  0.9594  1.2588  1.5506
  162SAPE  C31518166   4.631   7.149   4.689 -0.0275 -0.1451  0.2059
  162SAPE  H15X18167   4.637   7.258   4.666 -0.5026  0.1894  1.5991
  162SAPE  H15Y18168   4.722   7.106   4.642 -1.2799 -0.9748 -1.5735
  162SAPE  C31618169   4.608   7.132   4.845 -0.2332 -0.0552 -0.2003
  162SAPE  H16X18170   4.603   7.022   4.862  1.3353  0.0771  1.4709
  162SAPE  H16Y18171   4.512   7.173   4.881  0.9487  0.6222  2.4631
  162SAPE  C31718172   4.737   7.172   4.927 -0.0010 -0.3584 -1.2585
  162SAPE  H17X18173   4.835   7.148   4.879  1.0328  0.0301  0.5940
  162SAPE  H17Y18174   4.752   7.105   5.015  4.1669  1.2217 -0.5180
  162SAPE  C31818175   4.765   7.319   4.964  0.1256 -0.5560  0.4563
  162SAPE  H18X18176   4.781   7.387   4.878 -1.9388 -0.0707  0.4116
  162SAPE  H18Y18177   4.863   7.322   5.017  1.5685  0.4789 -2.1136
  162SAPE  H18Z18178   4.681   7.371   5.015  1.7761  0.2477  2.5457
  163SAPE     N18179   6.312   5.839   1.996  0.5261  0.0091  0.2515
  163SAPE   HN118180   6.372   5.785   2.062  2.0030 -1.1509 -1.9477
  163SAPE   HN218181   6.333   5.810   1.899  1.0368  0.0201  0.3547
  163SAPE   HN318182   6.339   5.939   2.008  0.2942 -0.1803  3.4380
  163SAPE   C1218183   6.167   5.815   2.016 -0.2673  0.7177 -0.8740
  163SAPE  H12A18184   6.147   5.711   1.983  1.0326  0.1966 -0.1163
  163SAPE  H12B18185   6.109   5.874   1.943 -0.6109  0.1147 -1.0913
  163SAPE   C1118186   6.121   5.827   2.164 -0.3212  0.1350  0.6430
  163SAPE  H11A18187   6.011   5.818   2.172 -0.3074 -0.5907  0.1160
  163SAPE  H11B18188   6.144   5.928   2.204 -1.7327 -0.4575  3.1391
  163SAPE     P18189   6.150   5.697   2.388  0.2371 -0.2698  0.0538
  163SAPE   O1318190   6.000   5.669   2.403 -0.3477 -0.4735  0.3149
  163SAPE   O1418191   6.249   5.599   2.446  0.0542  0.0229  0.3296
  163SAPE   O1218192   6.182   5.723   2.235 -0.0239 -0.0494 -0.2371
  163SAPE   O1118193   6.176   5.843   2.450  0.2145 -0.0486  0.4417
  163SAPE    C118194   6.064   5.926   2.481 -0.0809  0.0851 -0.0326
  163SAPE    HA18195   6.060   6.017   2.417  2.2089  1.9279  2.2058
  163SAPE    HB18196   5.962   5.882   2.488 -0.0758  0.2212  4.6294
  163SAPE    C218197   6.082   5.993   2.622 -1.0696  0.1753  0.2099
  163SAPE    HS18198   6.177   6.050   2.611 -0.9669 -0.2373 -1.2869
  163SAPE   O2118199   6.091   5.887   2.717 -0.3684  0.2922  0.0124
  163SAPE   C2118200   6.185   5.904   2.810 -0.9598 -0.2585  0.0192
  163SAPE   O2218201   6.250   6.011   2.823 -0.2766  0.2205 -0.4951
  163SAPE   C2218202   6.216   5.779   2.895  0.2078 -0.1004  0.8338
  163SAPE   H2R18203   6.265   5.699   2.835  0.1993 -1.1461  2.1878
  163SAPE   H2S18204   6.284   5.816   2.974 -1.0095 -0.4574  2.0763
  163SAPE    C318205   5.964   6.094   2.646  0.0899 -0.6790 -0.4987
  163SAPE    HX18206   5.877   6.025   2.649  0.3133 -0.9653 -0.5593
  163SAPE    HY18207   5.952   6.166   2.562  2.7300  0.9155  0.3879
  163SAPE   O3118208   5.982   6.164   2.771  0.3778 -0.5205 -0.0103
  163SAPE   C3118209   6.062   6.268   2.781 -0.3405  0.6380  0.2094
  163SAPE   O3218210   6.135   6.305   2.692  0.0246  0.2489  0.2967
  163SAPE   C3218211   6.050   6.337   2.912  0.0709  0.8630  0.4207
  163SAPE   H2X18212   6.099   6.270   2.986 -0.4275 -2.0058 -1.6721
  163SAPE   H2Y18213   5.943   6.351   2.937 -0.1912  0.5913 -0.5249
  163SAPE   C2318214   6.100   5.718   2.972  0.0476  0.1351 -0.0288
  163SAPE   H3R18215   6.035   5.680   2.891 -2.1797  2.2752  0.6262
  163SAPE   H3S18216   6.043   5.798   3.024  0.3978 -0.5571  1.4924
  163SAPE   C2418217   6.147   5.611   3.076  0.2055  0.6673  0.1305
  163SAPE   H4R18218   6.231   5.554   3.031  1.4537  2.0828  0.5997
  163SAPE   H4S18219   6.061   5.542   3.089 -1.4877  2.5827 -0.3965
  163SAPE   C2518220   6.181   5.671   3.209  0.2770  0.5234  0.3619
  163SAPE   H5R18221   6.088   5.696   3.262 -1.0422  0.5249 -1.8361
  163SAPE   C2618222   6.300   5.682   3.265 -0.5848 -0.1653 -0.3141
  163SAPE   H6R18223   6.311   5.726   3.365 -0.5645 -0.4606 -0.1845
  163SAPE   C2718224   6.430   5.637   3.203 -0.0885  1.1384 -0.7735
  163SAPE   H7R18225   6.429   5.642   3.092  2.8497 -1.9649 -1.0972
  163SAPE   H7S18226   6.426   5.528   3.222  0.6159  1.0033 -1.3448
  163SAPE   C2818227   6.555   5.691   3.259  0.0408 -0.8218 -0.0678
  163SAPE   H8R18228   6.598   5.775   3.203  1.0904 -1.1788  0.1789
  163SAPE   C2918229   6.612   5.659   3.374 -0.3230 -0.4091 -0.2007
  163SAPE   H9R18230   6.704   5.710   3.405 -0.5108  0.0467 -0.3929
  163SAPE  C21018231   6.581   5.534   3.454 -0.4908 -0.5642 -0.1241
  163SAPE  H10R18232   6.669   5.467   3.453 -0.5855 -0.7680  1.6264
  163SAPE  H10S18233   6.498   5.479   3.404  0.1492 -1.5959 -0.0853
  163SAPE  C21118234   6.556   5.543   3.601  0.1874 -0.4858 -0.0389
  163SAPE  H11R18235   6.640   5.542   3.672 -1.5634  0.3223  2.2207
  163SAPE  C21218236   6.438   5.515   3.653  0.6181  0.5258 -0.4680
  163SAPE  H12R18237   6.445   5.502   3.762  1.1572  1.8042 -0.3315
  163SAPE  C21318238   6.300   5.485   3.586 -0.5217  0.6237  0.3678
  163SAPE  H13R18239   6.287   5.376   3.577  0.1773  0.6123 -0.6841
  163SAPE  H13S18240   6.291   5.525   3.483 -0.5193 -0.5886 -0.1116
  163SAPE  C21418241   6.179   5.541   3.660 -0.4417  0.0599  1.3109
  163SAPE  H14R18242   6.117   5.609   3.599  0.4296 -0.3989 -0.1433
  163SAPE  C21518243   6.139   5.504   3.784 -0.3924 -0.1937  0.5860
  163SAPE  H15R18244   6.057   5.553   3.839  0.2487  1.4115  0.1540
  163SAPE  C21618245   6.202   5.396   3.861 -0.0879  0.3004 -0.1372
  163SAPE  H16R18246   6.280   5.344   3.801  2.0882  2.0439  1.0108
  163SAPE  H16S18247   6.135   5.319   3.905  0.7192 -0.1481  0.3557
  163SAPE  C21718248   6.272   5.448   3.992  0.1417  0.0236  0.0059
  163SAPE  H17R18249   6.195   5.466   4.070  0.4317 -1.4319  0.6530
  163SAPE  H17S18250   6.319   5.548   3.982  1.4565 -0.4964  0.8037
  163SAPE  C21818251   6.372   5.351   4.052  0.8198 -0.0351  0.1092
  163SAPE  H18R18252   6.468   5.351   3.997  0.2191  0.1527 -0.9773
  163SAPE  H18S18253   6.331   5.249   4.042 -0.1559  0.4356 -0.9848
  163SAPE  C21918254   6.391   5.369   4.201 -0.3293  0.4889 -0.2310
  163SAPE  H19R18255   6.298   5.371   4.262  0.6375 -1.3645  1.4023
  163SAPE  H19S18256   6.444   5.466   4.204 -0.5599  0.6181 -0.2728
  163SAPE  C22018257   6.482   5.261   4.255  0.1064 -0.5745 -0.1455
  163SAPE  H20R18258   6.588   5.294   4.263 -0.0493  0.4252 -1.6032
  163SAPE  H20S18259   6.465   5.160   4.212 -1.1033 -0.6051  0.3652
  163SAPE  H20T18260   6.458   5.247   4.362 -0.5602 -0.7875 -0.3203
  163SAPE   C3318261   6.124   6.469   2.916  0.1252  0.8444 -0.2309
  163SAPE   H3X18262   6.092   6.525   2.826 -0.8181 -2.2321 -1.9660
  163SAPE   H3Y18263   6.232   6.457   2.895 -0.1824  0.7624 -1.8954
  163SAPE   C3418264   6.101   6.538   3.053  0.5335  0.2864 -0.6515
  163SAPE   H4X18265   5.991   6.547   3.067  0.3835 -3.1747  1.5705
  163SAPE   H4Y18266   6.145   6.640   3.052  1.4440 -0.0356  1.4191
  163SAPE   C3518267   6.158   6.455   3.168  0.3908  0.7360  0.9841
  163SAPE   H5X18268   6.260   6.424   3.136 -0.4861  0.2789 -1.6345
  163SAPE   H5Y18269   6.103   6.360   3.185  3.0354 -0.7243  2.0050
  163SAPE   C3618270   6.155   6.529   3.302 -0.0832  0.5082  0.4420
  163SAPE   H6X18271   6.049   6.556   3.321 -0.2146  0.0429  0.3738
  163SAPE   H6Y18272   6.209   6.625   3.290  1.2728 -0.0751  1.5303
  163SAPE   C3718273   6.219   6.458   3.416  0.1892  0.5764 -1.0479
  163SAPE   H7X18274   6.330   6.454   3.412  0.1891  1.0052 -1.6408
  163SAPE   H7Y18275   6.192   6.351   3.414  0.7047  0.4051  0.3703
  163SAPE   C3818276   6.182   6.528   3.544  0.2799  0.3823 -0.3022
  163SAPE   H8X18277   6.077   6.563   3.555  0.2540 -0.1780  1.8204
  163SAPE   H8Y18278   6.235   6.625   3.535  1.3264  0.0609  1.7772
  163SAPE   C3918279   6.218   6.451   3.675 -0.1336  0.6258  0.1430
  163SAPE   H9X18280   6.314   6.395   3.675 -0.1946  0.4790  1.5849
  163SAPE   H9Y18281   6.137   6.379   3.699 -0.6788  1.2666  0.2632
  163SAPE  C31018282   6.242   6.545   3.797  1.1918 -1.1688 -0.3964
  163SAPE  H10X18283   6.147   6.600   3.816  3.2842  2.4156  0.6708
  163SAPE  H10Y18284   6.319   6.617   3.762 -0.3308 -0.3522 -2.2864
  163SAPE  C31118285   6.271   6.467   3.924 -0.9785 -0.6341 -0.6962
  163SAPE  H11X18286   6.346   6.387   3.912 -0.8914 -0.9958  1.6803
  163SAPE  H11Y18287   6.181   6.410   3.956 -1.2801  0.3901  0.3592
  163SAPE  C31218288   6.303   6.555   4.052  0.1341 -0.1443 -0.8682
  163SAPE  H12X18289   6.207   6.596   4.090  0.8398 -0.4790  1.4288
  163SAPE  H12Y18290   6.362   6.646   4.027 -1.3656  0.9662 -0.5869
  163SAPE  C31318291   6.356   6.479   4.169  0.6288  0.3541 -0.0036
  163SAPE  H13X18292   6.289   6.392   4.185 -1.0425  1.8627  1.6436
  163SAPE  H13Y18293   6.352   6.530   4.267 -1.2375 -2.1027  1.3140
  163SAPE  C31418294   6.502   6.436   4.147  0.2031  0.0289  0.5995
  163SAPE  H14X18295   6.564   6.526   4.125 -0.6060  0.4346 -0.0715
  163SAPE  H14Y18296   6.521   6.369   4.061 -0.1589  0.4727  0.1621
  163SAPE  C31518297   6.567   6.367   4.262 -0.1998 -0.4366 -0.4145
  163SAPE  H15X18298   6.656   6.313   4.223  0.7960 -1.4114  2.9116
  163SAPE  H15Y18299   6.502   6.290   4.308 -1.5281  1.3444  0.8587
  163SAPE  C31618300   6.610   6.462   4.378 -0.5353 -0.2088  0.1098
  163SAPE  H16X18301   6.528   6.530   4.409  0.1243  0.0857  1.2598
  163SAPE  H16Y18302   6.690   6.528   4.337 -2.0187  3.1876  2.1742
  163SAPE  C31718303   6.645   6.380   4.509 -0.2551  0.5627 -0.0320
  163SAPE  H17X18304   6.705   6.447   4.574  0.7310 -0.6991  0.3994
  163SAPE  H17Y18305   6.709   6.299   4.469 -0.2743  0.7977 -0.5423
  163SAPE  C31818306   6.520   6.323   4.582  0.0816 -0.2067 -0.3567
  163SAPE  H18X18307   6.550   6.259   4.668 -0.0733  0.0443 -0.1154
  163SAPE  H18Y18308   6.460   6.257   4.516  0.2987 -0.0519 -0.7118
  163SAPE  H18Z18309   6.454   6.406   4.615 -2.6478 -0.7712 -3.7495
  164SAPE     N18310   1.681   4.617   2.517 -0.2817  0.5684  0.7410
  164SAPE   HN118311   1.590   4.631   2.566  0.5475 -0.1540  2.5873
  164SAPE   HN218312   1.668   4.553   2.437 -1.3212  2.0059 -0.2992
  164SAPE   HN318313   1.756   4.580   2.579  0.8646 -1.5820 -1.7519
  164SAPE   C1218314   1.742   4.747   2.473  0.1549 -0.4264 -0.0072
  164SAPE  H12A18315   1.663   4.794   2.410 -0.2461 -2.4902 -1.1188
  164SAPE  H12B18316   1.834   4.726   2.414  1.7999 -1.6995  2.8220
  164SAPE   C1118317   1.764   4.832   2.596 -0.8278  0.0215 -0.5710
  164SAPE  H11A18318   1.672   4.837   2.657  0.1476 -0.4046  0.9995
  164SAPE  H11B18319   1.794   4.936   2.571 -0.4680  0.2925  0.9255
  164SAPE     P18320   1.903   4.827   2.824  0.1897  0.5041 -0.1251
  164SAPE   O1318321   1.927   4.707   2.908 -0.0183  0.0497 -0.1823
  164SAPE   O1418322   2.016   4.927   2.813  0.1646  0.6224 -0.0186
  164SAPE   O1218323   1.860   4.768   2.680  0.4312  0.3727 -0.3581
  164SAPE   O1118324   1.766   4.893   2.871 -0.0053 -0.2052  0.0168
  164SAPE    C118325   1.729   4.911   3.008 -0.0066 -0.4508 -0.4559
  164SAPE    HA18326   1.631   4.859   3.018 -1.3229  1.6441 -1.6479
  164SAPE    HB18327   1.795   4.871   3.088  0.8698  0.2759 -0.8016
  164SAPE    C218328   1.702   5.063   3.036  0.6407 -0.3295 -0.0800
  164SAPE    HS18329   1.786   5.126   2.999 -0.0562  2.0328  2.0255
  164SAPE   O2118330   1.682   5.066   3.180  0.1979  0.1080  0.2580
  164SAPE   C2118331   1.680   5.190   3.230  0.2595  0.4787 -0.2534
  164SAPE   O2218332   1.704   5.290   3.166  0.6353  0.1557 -0.5078
  164SAPE   C2218333   1.628   5.192   3.373 -0.0109  0.4094  0.1804
  164SAPE   H2R18334   1.520   5.212   3.363 -0.5014 -1.8721  0.4717
  164SAPE   H2S18335   1.648   5.093   3.419  1.3088  1.1372  1.2848
  164SAPE    C318336   1.569   5.101   2.956 -0.2714  0.0381  0.1818
  164SAPE    HX18337   1.590   5.084   2.848 -0.2981  1.6802 -0.1041
  164SAPE    HY18338   1.549   5.208   2.976  1.2311  0.3564  0.0835
  164SAPE   O3118339   1.454   5.020   2.991 -0.2962  0.4265 -0.2834
  164SAPE   C3118340   1.381   5.068   3.080 -0.1020 -0.3338  0.0865
  164SAPE   O3218341   1.378   5.186   3.113 -0.1440 -0.7983  0.0481
  164SAPE   C3218342   1.289   4.966   3.142 -0.6149  0.1017 -0.2763
  164SAPE   H2X18343   1.303   4.867   3.096 -2.9528 -0.5431  0.2321
  164SAPE   H2Y18344   1.185   4.993   3.111 -0.5399 -0.1601 -0.7530
  164SAPE   C2318345   1.695   5.301   3.467 -0.0658 -0.1296  0.0867
  164SAPE   H3R18346   1.745   5.384   3.411  0.5118 -1.3928 -1.3339
  164SAPE   H3S18347   1.772   5.255   3.533 -0.9996 -2.4111 -0.3215
  164SAPE   C2418348   1.581   5.368   3.548 -0.7377 -0.0529  0.2437
  164SAPE   H4R18349   1.507   5.409   3.477 -0.2095  1.1563  0.3710
  164SAPE   H4S18350   1.619   5.460   3.598 -1.3960 -0.0381  0.7382
  164SAPE   C2518351   1.506   5.285   3.650 -0.3202 -0.2376  0.2825
  164SAPE   H5R18352   1.397   5.303   3.651 -0.3971 -0.6233 -0.5496
  164SAPE   C2618353   1.552   5.214   3.757 -0.2438 -1.0461  0.6165
  164SAPE   H6R18354   1.468   5.167   3.810 -2.8267  2.9354  0.4668
  164SAPE   C2718355   1.691   5.181   3.787 -0.2515  0.1141  0.0028
  164SAPE   H7R18356   1.752   5.274   3.789  0.4465 -0.3099 -0.8135
  164SAPE   H7S18357   1.740   5.126   3.704 -0.4801 -0.2849  0.1281
  164SAPE   C2818358   1.703   5.089   3.908 -0.4241 -1.3995 -0.7594
  164SAPE   H8R18359   1.640   4.999   3.900 -0.1532 -1.5834 -0.8406
  164SAPE   C2918360   1.768   5.122   4.023 -0.5634  0.3239 -0.6679
  164SAPE   H9R18361   1.778   5.042   4.098 -2.8472 -0.1428 -0.8068
  164SAPE  C21018362   1.827   5.252   4.065  0.1758  0.3923 -0.2422
  164SAPE  H10R18363   1.906   5.284   3.994  0.1893  0.1256 -0.3486
  164SAPE  H10S18364   1.884   5.236   4.159  0.1790  0.1067 -0.2926
  164SAPE  C21118365   1.723   5.369   4.079  0.1040 -0.3088  0.4205
  164SAPE  H11R18366   1.688   5.410   3.983 -1.8696 -2.1813  0.2600
  164SAPE  C21218367   1.705   5.450   4.190  0.7329  0.4218  0.4716
  164SAPE  H12R18368   1.634   5.533   4.179  0.9117  0.8044  2.0115
  164SAPE  C21318369   1.750   5.444   4.332  0.4939 -0.0205  0.1158
  164SAPE  H13R18370   1.730   5.543   4.378 -1.8994  0.0802 -0.9822
  164SAPE  H13S18371   1.860   5.431   4.340  0.2080 -2.1198  1.5637
  164SAPE  C21418372   1.694   5.333   4.409 -0.2274  0.3674  0.4150
  164SAPE  H14R18373   1.718   5.232   4.375  1.0900  0.0574  2.1132
  164SAPE  C21518374   1.612   5.345   4.516  0.0866  0.7345 -0.7027
  164SAPE  H15R18375   1.582   5.249   4.559  1.1675  0.6728 -0.0708
  164SAPE  C21618376   1.572   5.475   4.582 -0.4722 -0.4297  0.5425
  164SAPE  H16R18377   1.463   5.481   4.599 -0.6197 -0.1784 -0.4426
  164SAPE  H16S18378   1.586   5.561   4.514 -1.4988 -1.1500 -0.6190
  164SAPE  C21718379   1.645   5.493   4.719 -0.3303 -1.1684  0.0911
  164SAPE  H17R18380   1.755   5.492   4.703 -0.3331  0.3108 -0.1151
  164SAPE  H17S18381   1.611   5.420   4.796 -0.5065 -0.1966  0.9522
  164SAPE  C21818382   1.617   5.629   4.776  0.5333  0.3882  0.1908
  164SAPE  H18R18383   1.507   5.635   4.793  0.3424  0.8561 -1.1374
  164SAPE  H18S18384   1.645   5.703   4.698  1.1166 -2.3063 -2.2892
  164SAPE  C21918385   1.691   5.663   4.899  0.0729 -0.0965 -0.1152
  164SAPE  H19R18386   1.679   5.773   4.900 -3.3810 -0.3271 -1.4270
  164SAPE  H19S18387   1.800   5.645   4.889  0.2897  1.5786 -1.1504
  164SAPE  C22018388   1.619   5.593   5.021  0.0953  0.4847  0.8390
  164SAPE  H20R18389   1.627   5.659   5.111 -0.4417  1.1603  0.3945
  164SAPE  H20S18390   1.662   5.496   5.052  0.2826  0.6457  1.0951
  164SAPE  H20T18391   1.511   5.581   4.999 -0.1757  1.1899  1.7263
  164SAPE   C3318392   1.275   4.947   3.299 -0.4120  0.0478 -0.0707
  164SAPE   H3X18393   1.175   4.903   3.318 -0.7438  0.8909  0.2110
  164SAPE   H3Y18394   1.262   5.047   3.346 -1.0056 -1.3098  2.8699
  164SAPE   C3418395   1.395   4.877   3.372  0.0594  0.4277  0.2079
  164SAPE   H4X18396   1.483   4.925   3.324 -1.6771  2.1962 -1.4109
  164SAPE   H4Y18397   1.391   4.767   3.360 -0.9106  0.2465  1.9044
  164SAPE   C3518398   1.403   4.910   3.519 -1.0301  0.2821 -0.5542
  164SAPE   H5X18399   1.307   4.879   3.565 -1.8283  2.3743 -0.7077
  164SAPE   H5Y18400   1.397   5.020   3.539 -0.6560  0.1246  0.4746
  164SAPE   C3618401   1.526   4.841   3.587  0.5772 -0.2122  0.1978
  164SAPE   H6X18402   1.616   4.906   3.583 -0.4359  1.2707  0.6659
  164SAPE   H6Y18403   1.539   4.754   3.518  0.8428  2.5684 -3.5570
  164SAPE   C3718404   1.511   4.786   3.731  1.0441 -0.2590  0.3906
  164SAPE   H7X18405   1.408   4.748   3.748  0.9062  0.0965  0.3660
  164SAPE   H7Y18406   1.536   4.872   3.797  0.7934  1.1300 -1.2374
  164SAPE   C3818407   1.604   4.667   3.750 -0.0217  0.1041  0.4816
  164SAPE   H8X18408   1.703   4.703   3.716 -0.3163  3.5505  2.7513
  164SAPE   H8Y18409   1.567   4.589   3.681  0.5318  0.4301 -0.1895
  164SAPE   C3918410   1.601   4.608   3.897  0.2143  0.4211  0.8059
  164SAPE   H9X18411   1.612   4.698   3.961  0.4635 -0.5790  2.2133
  164SAPE   H9Y18412   1.694   4.547   3.902  0.1350  0.1170 -0.8572
  164SAPE  C31018413   1.468   4.545   3.944  0.0648  0.2061 -0.6293
  164SAPE  H10X18414   1.427   4.469   3.874 -2.0207 -1.0959  1.8300
  164SAPE  H10Y18415   1.392   4.626   3.941 -1.4651 -1.1853 -1.2846
  164SAPE  C31118416   1.471   4.491   4.096 -0.2757 -0.9179  0.3305
  164SAPE  H11X18417   1.365   4.480   4.127 -1.4537  4.0336 -1.1272
  164SAPE  H11Y18418   1.524   4.568   4.156 -0.4524  0.1709 -0.8904
  164SAPE  C31218419   1.537   4.350   4.111  0.3358 -0.3565  0.1798
  164SAPE  H12X18420   1.640   4.356   4.071  0.7474 -1.2383  1.0543
  164SAPE  H12Y18421   1.476   4.284   4.047 -0.7070 -0.7236  1.4977
  164SAPE  C31318422   1.539   4.291   4.250  0.0385  0.7223  0.0081
  164SAPE  H13X18423   1.560   4.181   4.254  0.7312  0.8294 -0.5423
  164SAPE  H13Y18424   1.440   4.298   4.299  0.3552  0.0779  0.7759
  164SAPE  C31418425   1.629   4.370   4.348  0.0396  0.3928  0.1222
  164SAPE  H14X18426   1.594   4.474   4.333 -3.5057 -0.6109  0.5065
  164SAPE  H14Y18427   1.737   4.356   4.325 -0.9004 -3.1812 -3.1716
  164SAPE  C31518428   1.585   4.348   4.494 -0.3548  0.2501  0.1602
  164SAPE  H15X18429   1.474   4.340   4.485 -0.3485  1.9324 -2.5733
  164SAPE  H15Y18430   1.614   4.431   4.562  1.8881 -0.7082  0.4746
  164SAPE  C31618431   1.644   4.220   4.558 -0.0607  1.4858  0.2837
  164SAPE  H16X18432   1.616   4.133   4.495  2.3288  0.4095  0.6170
  164SAPE  H16Y18433   1.589   4.201   4.653  0.4309 -0.6079  0.1808
  164SAPE  C31718434   1.800   4.218   4.571 -0.5915  0.2931 -0.3725
  164SAPE  H17X18435   1.849   4.229   4.472 -2.3523  2.6625 -1.0602
  164SAPE  H17Y18436   1.834   4.124   4.619 -0.7338  1.0804  1.3448
  164SAPE  C31818437   1.859   4.321   4.659 -0.4541 -0.3474 -0.5487
  164SAPE  H18X18438   1.950   4.373   4.621 -1.1311  0.5553 -0.9667
  164SAPE  H18Y18439   1.872   4.271   4.757 -1.3097 -2.1003 -1.2900
  164SAPE  H18Z18440   1.780   4.399   4.659  0.1681  0.3075  0.7758
  165SAPE     N18441   0.870   1.080   2.667  0.1923 -0.8378  0.5732
  165SAPE   HN118442   0.769   1.084   2.642  0.7999 -1.2095 -2.3842
  165SAPE   HN218443   0.929   1.142   2.607  0.7358 -1.7919  0.1081
  165SAPE   HN318444   0.914   0.988   2.648  0.3177 -0.5032 -0.8874
  165SAPE   C1218445   0.886   1.102   2.816  1.1495  0.3947 -0.3963
  165SAPE  H12A18446   0.836   1.199   2.834  0.1734 -0.0681 -0.5209
  165SAPE  H12B18447   0.993   1.117   2.837  0.9988  0.0315  0.6872
  165SAPE   C1118448   0.838   0.984   2.898 -0.4538 -0.1707 -0.2580
  165SAPE  H11A18449   0.727   0.990   2.890 -0.5844 -0.5367  0.9696
  165SAPE  H11B18450   0.870   0.978   3.005 -0.6918 -1.4219 -0.2392
  165SAPE     P18451   1.020   0.789   2.864 -0.1502 -0.8067  0.0373
  165SAPE   O1318452   1.007   0.648   2.809  0.5099 -0.2538 -0.3733
  165SAPE   O1418453   1.141   0.857   2.814 -0.0987  0.3003  0.3909
  165SAPE   O1218454   0.879   0.865   2.827  0.2323  0.4475 -0.7383
  165SAPE   O1118455   1.016   0.795   3.023 -0.3006 -0.3001  0.7361
  165SAPE    C118456   0.926   0.721   3.102 -1.0683  0.5917 -0.2849
  165SAPE    HA18457   0.831   0.773   3.127 -1.5058 -0.2065 -0.2770
  165SAPE    HB18458   0.901   0.621   3.061 -1.8762  0.5628  0.2499
  165SAPE    C218459   0.987   0.695   3.243  0.6689 -0.2787 -0.5113
  165SAPE    HS18460   1.082   0.638   3.242 -0.1657 -1.7210 -0.2742
  165SAPE   O2118461   0.892   0.621   3.320 -0.2300  0.3822  0.0349
  165SAPE   C2118462   0.882   0.491   3.287 -0.1925  0.0257  0.7403
  165SAPE   O2218463   0.951   0.437   3.207 -0.4193  0.0160  0.0363
  165SAPE   C2218464   0.775   0.425   3.376  0.0203  0.2418 -0.1771
  165SAPE   H2R18465   0.733   0.501   3.446 -0.4086 -0.8255  0.7461
  165SAPE   H2S18466   0.701   0.384   3.305 -0.9063  2.3757 -0.5291
  165SAPE    C318467   1.015   0.837   3.308 -0.7517  0.1361 -0.4878
  165SAPE    HX18468   0.941   0.913   3.274 -1.0718  1.5999  3.0523
  165SAPE    HY18469   1.111   0.867   3.260 -0.3410 -0.7918 -0.2582
  165SAPE   O3118470   1.013   0.835   3.453  0.0361  0.5286 -0.1550
  165SAPE   C3118471   1.115   0.770   3.512  0.1343 -0.1035 -0.2795
  165SAPE   O3218472   1.218   0.734   3.457  0.2604 -0.0481 -0.0916
  165SAPE   C3218473   1.072   0.763   3.653  0.0089 -0.1497 -0.2519
  165SAPE   H2X18474   0.962   0.749   3.662 -0.0669  0.4131 -0.2794
  165SAPE   H2Y18475   1.100   0.859   3.700 -1.8671  0.5585 -0.4589
  165SAPE   C2318476   0.818   0.301   3.448 -0.0516 -0.1245  0.3582
  165SAPE   H3R18477   0.879   0.234   3.383 -0.0293 -0.0594  0.3121
  165SAPE   H3S18478   0.733   0.236   3.479 -0.9966  0.7443 -0.3395
  165SAPE   C2418479   0.903   0.333   3.571 -0.0034 -0.5488  0.3077
  165SAPE   H4R18480   0.836   0.399   3.629 -0.8180  1.0989 -2.3109
  165SAPE   H4S18481   0.993   0.396   3.556 -0.2091 -0.7616 -2.3934
  165SAPE   C2518482   0.929   0.195   3.637 -0.4865  0.2619  0.6590
  165SAPE   H5R18483   0.933   0.105   3.575  0.1313  0.5555  0.2559
  165SAPE   C2618484   0.930   0.179   3.767 -0.2870  0.0020 -0.2956
  165SAPE   H6R18485   0.966   0.081   3.801  1.7787  0.4243 -1.1364
  165SAPE   C2718486   0.948   0.273   3.881  0.0250 -0.1505 -0.0855
  165SAPE   H7R18487   0.882   0.361   3.865  1.3227  0.8928  0.0784
  165SAPE   H7S18488   1.053   0.307   3.869  0.7977 -1.5489  2.0781
  165SAPE   C2818489   0.933   0.233   4.030  1.2790  0.2421  0.2265
  165SAPE   H8R18490   0.830   0.220   4.066  0.6088  0.4860 -1.4927
  165SAPE   C2918491   1.033   0.208   4.114 -0.4880  0.2616  0.3335
  165SAPE   H9R18492   1.001   0.183   4.216 -2.0227  0.0067 -0.1831
  165SAPE  C21018493   1.182   0.222   4.086  0.1402 -0.3914  0.0230
  165SAPE  H10R18494   1.199   0.330   4.104 -0.9646  0.0925 -1.5825
  165SAPE  H10S18495   1.199   0.203   3.978 -4.0407 -0.9147 -0.7297
  165SAPE  C21118496   1.282   0.142   4.170  0.2922  0.4925  0.3302
  165SAPE  H11R18497   1.314   0.045   4.129  2.5334  0.5937  1.6835
  165SAPE  C21218498   1.342   0.180   4.283 -0.4450 -0.1073  0.2094
  165SAPE  H12R18499   1.407   0.108   4.335  0.4023 -0.7827 -1.6995
  165SAPE  C21318500   1.314   0.313   4.357  0.0608 -0.4265  0.5381
  165SAPE  H13R18501   1.321   0.401   4.290  0.5071 -0.5758  0.3798
  165SAPE  H13S18502   1.400   0.332   4.425  1.6192  1.0837 -1.6965
  165SAPE  C21418503   1.188   0.326   4.434 -0.3142 -0.1844 -0.3075
  165SAPE  H14R18504   1.109   0.385   4.384  0.1340  3.3848  2.7161
  165SAPE  C21518505   1.169   0.269   4.552  0.0036  0.4411 -0.5146
  165SAPE  H15R18506   1.068   0.280   4.594  0.0715 -1.6441  0.3516
  165SAPE  C21618507   1.262   0.190   4.643  0.7709  0.5226  0.2657
  165SAPE  H16R18508   1.297   0.257   4.725 -1.4614  0.5846  1.2391
  165SAPE  H16S18509   1.352   0.171   4.581 -0.4628  0.2412 -1.5384
  165SAPE  C21718510   1.197   0.064   4.697 -0.0317 -0.0370 -0.3725
  165SAPE  H17R18511   1.181   0.002   4.606 -0.5871  1.7308 -1.5288
  165SAPE  H17S18512   1.098   0.083   4.744 -0.6668 -1.5451 -1.0398
  165SAPE  C21818513   1.279  -0.017   4.803 -0.3490 -1.0951 -0.4894
  165SAPE  H18R18514   1.381  -0.045   4.770  0.6350  0.4348  1.0894
  165SAPE  H18S18515   1.226  -0.111   4.827 -2.3738 -0.6408 -2.8437
  165SAPE  C21918516   1.305   0.073   4.933  1.0819 -0.3893 -0.3043
  165SAPE  H19R18517   1.208   0.098   4.981  1.2546 -1.6976  0.8060
  165SAPE  H19S18518   1.359   0.168   4.912  0.3766  0.5533  1.8547
  165SAPE  C22018519   1.386  -0.008   5.034 -1.0704  0.0679 -0.9537
  165SAPE  H20R18520   1.426   0.052   5.118 -2.1445 -2.7604  1.7561
  165SAPE  H20S18521   1.470  -0.046   4.972  0.5254  1.0516  0.5212
  165SAPE  H20T18522   1.340  -0.097   5.082 -0.2869 -0.1670 -0.6351
  165SAPE   C3318523   1.161   0.677   3.739 -0.3216  0.9033  0.7546
  165SAPE   H3X18524   1.269   0.701   3.732 -0.0484 -0.3987  0.2679
  165SAPE   H3Y18525   1.160   0.567   3.721 -1.6713  0.7827  1.4438
  165SAPE   C3418526   1.121   0.684   3.884  0.3488  0.1228 -0.9144
  165SAPE   H4X18527   1.031   0.620   3.900  1.9698 -1.4664  3.4742
  165SAPE   H4Y18528   1.102   0.789   3.914  0.9602 -0.0165  0.0330
  165SAPE   C3518529   1.227   0.631   3.983  0.4877  0.2126 -0.0479
  165SAPE   H5X18530   1.323   0.680   3.958  0.5615  0.9954  1.5943
  165SAPE   H5Y18531   1.251   0.524   3.968  2.8151  0.5506  0.8918
  165SAPE   C3618532   1.202   0.643   4.132 -0.1645 -0.2416  0.0483
  165SAPE   H6X18533   1.226   0.745   4.169  0.0587  0.1256 -1.0857
  165SAPE   H6Y18534   1.259   0.562   4.184  0.7577  0.6325  0.4321
  165SAPE   C3718535   1.062   0.601   4.179 -0.4070  0.4096  0.1945
  165SAPE   H7X18536   1.045   0.499   4.139 -0.2774  0.7882 -0.8682
  165SAPE   H7Y18537   0.989   0.663   4.123  1.4952  0.4166 -2.4939
  165SAPE   C3818538   1.031   0.637   4.322 -0.0758  0.0073  0.6392
  165SAPE   H8X18539   1.052   0.744   4.341  0.0945  0.3486 -1.3113
  165SAPE   H8Y18540   1.110   0.591   4.385 -0.2778  2.0151  2.4690
  165SAPE   C3918541   0.888   0.595   4.379 -0.7998  0.5213 -0.6659
  165SAPE   H9X18542   0.861   0.490   4.356 -0.9005  0.5579 -0.7131
  165SAPE   H9Y18543   0.796   0.651   4.352 -0.0639  1.3033 -1.6670
  165SAPE  C31018544   0.896   0.611   4.531 -0.7230 -0.7220  0.4614
  165SAPE  H10X18545   0.961   0.698   4.553  0.5657 -1.6348  0.3675
  165SAPE  H10Y18546   0.956   0.520   4.554  0.8668 -0.2334 -1.4316
  165SAPE  C31118547   0.758   0.599   4.600 -0.3961  0.1606  1.3276
  165SAPE  H11X18548   0.716   0.498   4.582  0.0219  0.0187  1.1493
  165SAPE  H11Y18549   0.691   0.671   4.548  2.2313  1.4364 -0.4769
  165SAPE  C31218550   0.773   0.614   4.749  0.4947  0.3403  0.3380
  165SAPE  H12X18551   0.789   0.720   4.778  0.2608 -0.1550  2.4009
  165SAPE  H12Y18552   0.855   0.547   4.783  0.4202 -2.1040 -3.6334
  165SAPE  C31318553   0.656   0.556   4.828  0.5412 -0.4582 -0.0837
  165SAPE  H13X18554   0.672   0.446   4.836  0.9909 -0.3287  1.0148
  165SAPE  H13Y18555   0.561   0.580   4.776  0.8841  0.9466 -0.0977
  165SAPE  C31418556   0.645   0.624   4.969  0.0004 -0.5682 -0.5337
  165SAPE  H14X18557   0.548   0.587   5.007 -0.2238 -0.1839 -0.7340
  165SAPE  H14Y18558   0.645   0.734   4.955 -2.3301 -0.7795 -3.0039
  165SAPE  C31518559   0.760   0.592   5.072 -0.6044  0.0740  0.4677
  165SAPE  H15X18560   0.769   0.671   5.149  0.7940 -0.1937  0.6011
  165SAPE  H15Y18561   0.856   0.592   5.016 -1.0614  1.2591 -0.3384
  165SAPE  C31618562   0.748   0.446   5.127  0.4094 -0.1845 -0.6640
  165SAPE  H16X18563   0.754   0.374   5.043 -2.3484 -1.2362 -0.0652
  165SAPE  H16Y18564   0.650   0.442   5.179  0.7379 -0.0397 -0.0236
  165SAPE  C31718565   0.862   0.428   5.230 -0.7151  0.1422 -0.2604
  165SAPE  H17X18566   0.860   0.521   5.290  0.0877  0.5181 -0.7903
  165SAPE  H17Y18567   0.956   0.431   5.171 -0.1148 -1.1653  0.5661
  165SAPE  C31818568   0.836   0.302   5.302 -0.0855  0.4215 -0.2337
  165SAPE  H18X18569   0.742   0.295   5.361  0.2215 -1.4951  0.0828
  165SAPE  H18Y18570   0.919   0.273   5.369 -2.2051  0.1410  2.4131
  165SAPE  H18Z18571   0.825   0.218   5.230  1.0996 -0.9104  1.0961
  166SAPE     N18572   2.143   6.224   2.834 -0.3709 -0.4322  0.2973
  166SAPE   HN118573   2.227   6.280   2.807 -0.9989 -0.2961 -1.4794
  166SAPE   HN218574   2.175   6.164   2.912  0.3084  0.2645  0.5772
  166SAPE   HN318575   2.115   6.157   2.760  2.8600 -0.3901 -1.1377
  166SAPE   C1218576   2.032   6.312   2.873  0.2948 -0.0600 -0.0604
  166SAPE  H12A18577   2.069   6.364   2.964  0.4568 -0.8900  0.3590
  166SAPE  H12B18578   1.946   6.252   2.909  0.8529  0.9730  3.3059
  166SAPE   C1118579   1.971   6.398   2.764 -0.2678  0.7686 -0.0981
  166SAPE  H11A18580   1.912   6.480   2.811 -0.3849  0.2391  0.7034
  166SAPE  H11B18581   1.895   6.337   2.710 -0.5872  0.9513  0.1356
  166SAPE     P18582   2.057   6.602   2.618  0.0416  0.1912  0.4491
  166SAPE   O1318583   2.115   6.614   2.481 -0.5909 -0.1976 -0.5371
  166SAPE   O1418584   1.915   6.653   2.630 -0.6628 -0.0381 -0.1875
  166SAPE   O1218585   2.073   6.449   2.669  0.2496 -0.8849  0.3116
  166SAPE   O1118586   2.155   6.676   2.715 -0.2047 -0.5600  0.1875
  166SAPE    C118587   2.291   6.642   2.722 -0.1641 -0.2176 -0.4073
  166SAPE    HA18588   2.322   6.575   2.638 -0.0325  0.4137 -0.8682
  166SAPE    HB18589   2.356   6.731   2.710 -1.0671  0.5461  0.2335
  166SAPE    C218590   2.325   6.584   2.857 -0.5858  0.8152 -0.4529
  166SAPE    HS18591   2.260   6.498   2.884  1.1758 -0.7216 -0.8780
  166SAPE   O2118592   2.333   6.687   2.959 -0.2603  0.2588 -0.2071
  166SAPE   C2118593   2.232   6.688   3.050  0.0919  0.3815 -1.1236
  166SAPE   O2218594   2.133   6.613   3.043  0.1924 -0.3086  0.4462
  166SAPE   C2218595   2.249   6.798   3.162 -0.0285  0.7496 -0.0707
  166SAPE   H2R18596   2.341   6.760   3.211  0.0607 -1.0082 -1.4981
  166SAPE   H2S18597   2.268   6.894   3.110  1.0258 -0.1770 -1.4625
  166SAPE    C318598   2.466   6.512   2.849 -0.3969  0.2151 -0.4464
  166SAPE    HX18599   2.534   6.589   2.808  1.0150 -0.7630 -0.0095
  166SAPE    HY18600   2.473   6.427   2.778  1.5799 -0.1111  0.0819
  166SAPE   O3118601   2.513   6.483   2.980 -0.6026 -0.0732  0.0386
  166SAPE   C3118602   2.457   6.372   3.026  0.0591  0.6128  0.4279
  166SAPE   O3218603   2.372   6.308   2.965  0.4531 -0.2729  0.3433
  166SAPE   C3218604   2.518   6.336   3.161  0.0078  0.3771 -0.1440
  166SAPE   H2X18605   2.624   6.312   3.135 -0.4239 -0.1357 -1.5166
  166SAPE   H2Y18606   2.474   6.241   3.196  1.7597  0.3620  2.2864
  166SAPE   C2318607   2.122   6.794   3.249  0.0776 -0.5359  0.4238
  166SAPE   H3R18608   2.103   6.687   3.273  0.5135 -0.8353 -0.5310
  166SAPE   H3S18609   2.041   6.830   3.183  2.3710 -0.1103 -2.3386
  166SAPE   C2418610   2.115   6.886   3.376  0.1887  0.2998  0.1583
  166SAPE   H4R18611   2.022   6.866   3.433  1.4671 -1.0167  1.9224
  166SAPE   H4S18612   2.095   6.987   3.334 -0.2866 -1.0310 -3.1242
  166SAPE   C2518613   2.231   6.863   3.466 -0.5521 -0.1888  0.7931
  166SAPE   H5R18614   2.332   6.896   3.436 -0.0829  0.8626  3.3229
  166SAPE   C2618615   2.205   6.843   3.599 -0.6526 -0.4805 -0.3713
  166SAPE   H6R18616   2.288   6.812   3.665 -2.4792 -3.6592  0.6645
  166SAPE   C2718617   2.073   6.818   3.667  0.2489  0.3155  0.1360
  166SAPE   H7R18618   2.095   6.748   3.751 -0.4640 -0.3827 -0.2503
  166SAPE   H7S18619   2.021   6.750   3.597  2.4601  1.1733 -2.5232
  166SAPE   C2818620   1.994   6.938   3.705  0.2490 -0.3053 -0.0847
  166SAPE   H8R18621   2.060   7.026   3.709  1.1430 -0.9757  0.2660
  166SAPE   C2918622   1.867   6.942   3.745  0.4850  0.4435 -0.0666
  166SAPE   H9R18623   1.822   7.039   3.770  0.4550  1.1816 -2.7657
  166SAPE  C21018624   1.778   6.818   3.754 -1.2971 -0.3534 -0.5568
  166SAPE  H10R18625   1.718   6.846   3.844  1.7199  1.7016  0.9771
  166SAPE  H10S18626   1.833   6.725   3.779 -1.2383  0.2521  1.8249
  166SAPE  C21118627   1.687   6.791   3.641 -0.3943  0.0567 -0.2061
  166SAPE  H11R18628   1.730   6.791   3.540 -1.4365  1.2844 -0.6801
  166SAPE  C21218629   1.562   6.739   3.656 -0.8849 -0.5360  0.0581
  166SAPE  H12R18630   1.505   6.728   3.563 -0.5576 -0.7389 -0.1181
  166SAPE  C21318631   1.475   6.744   3.778 -0.3789  0.0067 -0.1829
  166SAPE  H13R18632   1.379   6.786   3.742 -0.7726  0.2296  1.0785
  166SAPE  H13S18633   1.513   6.826   3.843  1.8810  0.0924 -1.4872
  166SAPE  C21418634   1.460   6.613   3.859  0.3916 -0.3557  0.0292
  166SAPE  H14R18635   1.555   6.565   3.888  0.5352 -1.9712 -2.7946
  166SAPE  C21518636   1.343   6.566   3.903  0.1742  0.5058 -0.2136
  166SAPE  H15R18637   1.335   6.464   3.944  2.8086  0.3095 -0.0063
  166SAPE  C21618638   1.215   6.652   3.904 -0.2470  0.0639  0.0443
  166SAPE  H16R18639   1.153   6.620   3.817 -1.5339 -1.5157  1.4807
  166SAPE  H16S18640   1.242   6.759   3.894  1.3991 -0.5642 -5.0776
  166SAPE  C21718641   1.127   6.626   4.037 -0.1084  1.2198  0.4515
  166SAPE  H17R18642   1.185   6.678   4.116  1.7332 -0.7670  0.4874
  166SAPE  H17S18643   1.114   6.517   4.056  1.0284  0.6533 -1.7028
  166SAPE  C21818644   0.992   6.683   4.017  0.5999  0.4210  0.5379
  166SAPE  H18R18645   0.941   6.625   3.937  1.7203 -1.2303  0.9551
  166SAPE  H18S18646   0.994   6.791   3.992  1.5036 -0.2495 -2.7872
  166SAPE  C21918647   0.911   6.663   4.146 -0.2325 -0.5165 -0.3241
  166SAPE  H19R18648   0.941   6.746   4.213 -2.9554 -0.0818  0.4670
  166SAPE  H19S18649   0.927   6.562   4.188 -2.6846 -0.7094  0.2798
  166SAPE  C22018650   0.759   6.687   4.135  0.0040 -0.1106  0.8064
  166SAPE  H20R18651   0.713   6.695   4.236  0.8383  3.0457  1.0533
  166SAPE  H20S18652   0.704   6.608   4.080 -0.4250  1.0708 -0.5240
  166SAPE  H20T18653   0.749   6.786   4.086 -0.4344 -0.3729  0.3559
  166SAPE   C3318654   2.518   6.442   3.272  1.6390  0.1771 -0.1711
  166SAPE   H3X18655   2.554   6.536   3.227  3.4398 -0.8571 -1.0068
  166SAPE   H3Y18656   2.592   6.404   3.346 -1.7397 -1.5405  2.6268
  166SAPE   C3418657   2.376   6.450   3.337  0.4531 -0.4094  0.2694
  166SAPE   H4X18658   2.332   6.351   3.363 -2.3437  0.5388 -0.4437
  166SAPE   H4Y18659   2.306   6.493   3.262  0.8457  0.3581  0.3369
  166SAPE   C3518660   2.375   6.542   3.459  0.0288 -0.0156 -0.5740
  166SAPE   H5X18661   2.271   6.540   3.497 -0.4621 -0.2298 -1.8915
  166SAPE   H5Y18662   2.396   6.648   3.434  0.4198  0.4969  1.6644
  166SAPE   C3618663   2.484   6.513   3.570  0.2997 -0.1266 -0.9929
  166SAPE   H6X18664   2.580   6.551   3.530 -0.8113  1.3086 -2.4369
  166SAPE   H6Y18665   2.479   6.402   3.576  0.3982 -0.1751 -1.6667
  166SAPE   C3718666   2.450   6.578   3.703  0.5034 -0.8741 -0.3883
  166SAPE   H7X18667   2.345   6.550   3.723  0.8439 -1.8769  0.0443
  166SAPE   H7Y18668   2.454   6.689   3.702  1.5657 -0.8755 -2.4337
  166SAPE   C3818669   2.543   6.532   3.816  0.2017  0.4824  0.0317
  166SAPE   H8X18670   2.639   6.581   3.787  0.7645 -1.5745 -1.8516
  166SAPE   H8Y18671   2.549   6.422   3.808  0.7293  0.5545 -0.6276
  166SAPE   C3918672   2.489   6.570   3.958  0.5410 -0.3102  0.2832
  166SAPE   H9X18673   2.389   6.522   3.949 -1.0125  2.9814 -2.8986
  166SAPE   H9Y18674   2.477   6.679   3.976  1.7433 -0.5323  2.8044
  166SAPE  C31018675   2.571   6.519   4.073 -1.0422 -0.1363 -0.4379
  166SAPE  H10X18676   2.674   6.560   4.069 -1.4385  1.1174  1.1506
  166SAPE  H10Y18677   2.573   6.408   4.069  0.2526 -0.2148  1.2526
  166SAPE  C31118678   2.501   6.550   4.211 -0.4951  0.1840 -0.7231
  166SAPE  H11X18679   2.422   6.475   4.235  0.1733  0.0954  1.3897
  166SAPE  H11Y18680   2.459   6.652   4.204  0.0772  0.3373 -2.3278
  166SAPE  C31218681   2.601   6.548   4.325 -0.2042  0.4183  0.1299
  166SAPE  H12X18682   2.690   6.613   4.311  0.4518 -0.4009  0.4088
  166SAPE  H12Y18683   2.630   6.441   4.330 -0.4777  0.2844 -0.8533
  166SAPE  C31318684   2.534   6.574   4.463  0.0251 -0.1614  0.2824
  166SAPE  H13X18685   2.443   6.511   4.471 -0.9545  1.1175 -0.4019
  166SAPE  H13Y18686   2.503   6.681   4.473  2.2510  0.4374  1.6089
  166SAPE  C31418687   2.615   6.541   4.585 -0.1564  0.6610  0.4379
  166SAPE  H14X18688   2.641   6.434   4.598  1.9782  0.9461 -1.0055
  166SAPE  H14Y18689   2.549   6.571   4.670 -1.3213  0.7925 -0.4783
  166SAPE  C31518690   2.735   6.640   4.602  0.4927 -0.0911 -0.0848
  166SAPE  H15X18691   2.702   6.746   4.591 -0.8092 -0.2296  2.0310
  166SAPE  H15Y18692   2.805   6.610   4.521 -0.3916 -3.0732  0.1519
  166SAPE  C31618693   2.803   6.622   4.741 -0.5982 -0.2368 -0.1132
  166SAPE  H16X18694   2.837   6.517   4.752 -1.1866 -0.6349 -1.8459
  166SAPE  H16Y18695   2.722   6.642   4.815 -0.6428  1.3754 -0.5471
  166SAPE  C31718696   2.926   6.708   4.764  0.3542 -0.6788 -0.5194
  166SAPE  H17X18697   2.945   6.707   4.873 -3.3509  0.2969  0.2746
  166SAPE  H17Y18698   2.897   6.809   4.728  0.4973 -0.8452 -1.1084
  166SAPE  C31818699   3.045   6.659   4.686  0.6006  0.2129  0.1147
  166SAPE  H18X18700   3.087   6.562   4.720  1.1870  1.2785  2.6635
  166SAPE  H18Y18701   3.136   6.722   4.687  0.5858  0.2661 -0.7447
  166SAPE  H18Z18702   3.012   6.653   4.579  0.1441  1.9457  0.1388
  167SAPE     N18703   1.544   2.835   3.141  0.2529 -0.3176  0.1108
  167SAPE   HN118704   1.628   2.824   3.081  1.2197  1.0461  1.1486
  167SAPE   HN218705   1.501   2.743   3.163  1.9404 -0.5722  2.7515
  167SAPE   HN318706   1.473   2.887   3.084 -0.5355 -1.4094  0.0748
  167SAPE   C1218707   1.585   2.911   3.265  0.5279  0.3300 -0.3602
  167SAPE  H12A18708   1.503   2.909   3.339  0.8305  2.7831  0.1320
  167SAPE  H12B18709   1.605   3.017   3.237 -2.0956  1.1507  0.6357
  167SAPE   C1118710   1.711   2.843   3.315 -0.1637  0.8563 -0.3518
  167SAPE  H11A18711   1.698   2.736   3.343  0.7183  0.8604  0.1303
  167SAPE  H11B18712   1.719   2.888   3.417 -2.2103  1.7122 -0.5272
  167SAPE     P18713   1.966   2.833   3.269  0.3383  0.2098 -0.0480
  167SAPE   O1318714   1.990   2.691   3.231 -0.3204  0.9746 -0.3670
  167SAPE   O1418715   2.056   2.934   3.210  0.7076  0.3401 -0.2333
  167SAPE   O1218716   1.821   2.860   3.225 -0.0890  0.9451 -0.4928
  167SAPE   O1118717   1.948   2.834   3.426  0.0696 -0.3267  0.0488
  167SAPE    C118718   2.025   2.929   3.498  0.1561 -0.6282 -0.5392
  167SAPE    HA18719   2.069   2.887   3.591  0.4406 -1.3119 -0.9760
  167SAPE    HB18720   2.112   2.971   3.444 -0.3681  0.7817 -0.3348
  167SAPE    C218721   1.944   3.057   3.550  0.0457  0.1457 -0.1680
  167SAPE    HS18722   2.000   3.122   3.620 -0.1701  1.5044 -1.2232
  167SAPE   O2118723   1.820   2.998   3.597  0.3121 -0.1085 -0.6222
  167SAPE   C2118724   1.821   2.943   3.707 -0.8514  0.2668 -0.0950
  167SAPE   O2218725   1.913   2.944   3.787 -0.2145  0.0957 -0.9369
  167SAPE   C2218726   1.700   2.855   3.735 -0.0058 -0.1842 -0.5087
  167SAPE   H2R18727   1.614   2.925   3.747 -0.9163 -1.2213 -0.8398
  167SAPE   H2S18728   1.686   2.807   3.636 -0.5008  1.9193 -1.5231
  167SAPE    C318729   1.907   3.155   3.436  0.2520 -0.2659  0.5324
  167SAPE    HX18730   1.839   3.113   3.358 -0.8260 -1.2103  1.9274
  167SAPE    HY18731   2.001   3.182   3.383 -0.2606 -1.6818 -1.2091
  167SAPE   O3118732   1.846   3.278   3.492  0.2879  0.2063 -0.3768
  167SAPE   C3118733   1.711   3.276   3.496  0.0077  0.2286  0.1024
  167SAPE   O3218734   1.636   3.191   3.459  0.2089 -0.6999 -0.3516
  167SAPE   C3218735   1.676   3.396   3.593  0.4227 -0.5766  0.3746
  167SAPE   H2X18736   1.619   3.467   3.529  0.1052 -1.4102 -0.2734
  167SAPE   H2Y18737   1.769   3.450   3.624 -0.8492  1.6483  0.5101
  167SAPE   C2318738   1.712   2.752   3.840 -0.0595 -0.1782  0.2025
  167SAPE   H3R18739   1.812   2.707   3.820 -0.2537  0.3381 -2.2119
  167SAPE   H3S18740   1.640   2.668   3.828 -2.0003  1.4886 -0.3148
  167SAPE   C2418741   1.702   2.812   3.973 -0.4792  0.1723  0.4963
  167SAPE   H4R18742   1.617   2.883   3.977  0.0855  1.0901 -1.7256
  167SAPE   H4S18743   1.794   2.871   3.993  0.9274 -1.5503 -0.6012
  167SAPE   C2518744   1.686   2.711   4.082 -0.3727 -0.0495 -0.9046
  167SAPE   H5R18745   1.610   2.632   4.068 -0.8303  0.2324 -0.0944
  167SAPE   C2618746   1.763   2.690   4.185  0.1557 -0.3971 -0.2419
  167SAPE   H6R18747   1.731   2.603   4.245 -0.0219 -0.0159  0.2183
  167SAPE   C2718748   1.870   2.782   4.236  0.6850 -0.1438 -0.3801
  167SAPE   H7R18749   1.932   2.833   4.159  1.3363  0.1590  0.3348
  167SAPE   H7S18750   1.949   2.718   4.280  0.4486  1.1237  2.0675
  167SAPE   C2818751   1.822   2.887   4.338  0.0324 -0.4981 -0.7591
  167SAPE   H8R18752   1.782   2.978   4.291 -1.5541 -0.9346 -0.3125
  167SAPE   C2918753   1.818   2.861   4.472  0.0574 -0.2241  0.1087
  167SAPE   H9R18754   1.775   2.939   4.537  1.1605 -0.6213  1.3780
  167SAPE  C21018755   1.861   2.733   4.534  0.6508 -0.4116  0.0674
  167SAPE  H10R18756   1.972   2.732   4.530  0.7190 -0.9236  1.5271
  167SAPE  H10S18757   1.827   2.648   4.470  0.7945  0.9144 -1.8473
  167SAPE  C21118758   1.815   2.700   4.671  0.6376  0.0411  0.5213
  167SAPE  H11R18759   1.741   2.619   4.683 -0.3076  0.5047 -1.6397
  167SAPE  C21218760   1.864   2.745   4.787  0.4769  0.2107 -0.4742
  167SAPE  H12R18761   1.817   2.701   4.877 -1.7530 -0.6796 -1.9857
  167SAPE  C21318762   1.965   2.855   4.811 -0.1501  0.2232 -0.0951
  167SAPE  H13R18763   2.009   2.883   4.713  3.2829 -1.4407  0.8081
  167SAPE  H13S18764   2.043   2.800   4.868 -1.0032 -1.6019 -0.6035
  167SAPE  C21418765   1.921   2.974   4.890 -0.3368  0.6985  0.6502
  167SAPE  H14R18766   1.897   3.063   4.829  1.7675  0.2157 -1.0159
  167SAPE  C21518767   1.886   2.972   5.018 -0.4142 -0.0413 -1.1325
  167SAPE  H15R18768   1.846   3.064   5.065 -0.2764  0.7876 -2.5800
  167SAPE  C21618769   1.877   2.857   5.111  0.1134  0.1071  0.0876
  167SAPE  H16R18770   1.925   2.771   5.061 -1.5022 -2.0327  1.9985
  167SAPE  H16S18771   1.774   2.839   5.149 -0.0576 -0.1948 -0.5060
  167SAPE  C21718772   1.973   2.869   5.231 -0.0896  0.4154  0.5088
  167SAPE  H17R18773   1.943   2.961   5.285  0.4305  0.6730  0.3636
  167SAPE  H17S18774   2.077   2.886   5.196  0.6650  1.9774  3.1997
  167SAPE  C21818775   1.976   2.749   5.328  0.8306 -0.4215  0.6623
  167SAPE  H18R18776   2.063   2.685   5.303  3.0814  2.6756 -0.0757
  167SAPE  H18S18777   1.876   2.702   5.318  1.4112 -1.4938 -0.4438
  167SAPE  C21918778   1.994   2.797   5.477  0.2087 -0.0266  0.3298
  167SAPE  H19R18779   1.915   2.867   5.510  0.2145 -0.0927  0.4868
  167SAPE  H19S18780   2.090   2.852   5.477 -0.2590  1.0193 -2.9837
  167SAPE  C22018781   2.012   2.683   5.569  0.4934 -0.5135 -0.0150
  167SAPE  H20R18782   1.916   2.631   5.588  0.6679 -1.7731 -2.2213
  167SAPE  H20S18783   2.065   2.722   5.659 -0.1288  1.8737 -0.6012
  167SAPE  H20T18784   2.077   2.604   5.526 -0.0152 -2.0950  1.9961
  167SAPE   C3318785   1.613   3.343   3.721  0.1486  0.1115  0.1588
  167SAPE   H3X18786   1.544   3.259   3.699  2.0216 -1.8551  1.3402
  167SAPE   H3Y18787   1.559   3.424   3.775  1.0744  0.2766  0.8782
  167SAPE   C3418788   1.726   3.295   3.803 -0.4026 -0.4631  0.1691
  167SAPE   H4X18789   1.799   3.376   3.824 -3.1667  2.1786  0.2897
  167SAPE   H4Y18790   1.775   3.223   3.734 -0.7297  1.3718 -2.1017
  167SAPE   C3518791   1.666   3.220   3.918 -0.4686 -0.4882 -0.2549
  167SAPE   H5X18792   1.609   3.130   3.887  1.6240 -1.6004 -1.0728
  167SAPE   H5Y18793   1.606   3.287   3.983  2.5882  2.6921 -0.4393
  167SAPE   C3618794   1.774   3.170   4.011  0.0880  0.4664 -0.2155
  167SAPE   H6X18795   1.843   3.101   3.957  0.1757 -0.1471  0.6605
  167SAPE   H6Y18796   1.730   3.102   4.086  2.1293 -1.2072 -0.4352
  167SAPE   C3718797   1.856   3.279   4.086  0.5100 -0.2971  0.1224
  167SAPE   H7X18798   1.906   3.348   4.015  0.4384 -1.0496 -0.6754
  167SAPE   H7Y18799   1.942   3.232   4.139  0.4048  0.8875  1.3884
  167SAPE   C3818800   1.766   3.376   4.178 -0.2609  0.8332  0.1734
  167SAPE   H8X18801   1.692   3.433   4.118 -0.9099  1.4169  1.4885
  167SAPE   H8Y18802   1.844   3.435   4.230  2.7159 -1.6725 -1.1124
  167SAPE   C3918803   1.672   3.311   4.279  0.0452  0.1758 -0.2388
  167SAPE   H9X18804   1.732   3.251   4.350  0.2299 -0.2012 -0.7094
  167SAPE   H9Y18805   1.604   3.241   4.227 -1.8809  0.9278  1.1352
  167SAPE  C31018806   1.583   3.414   4.357  0.4523  0.1879  0.4444
  167SAPE  H10X18807   1.570   3.503   4.291 -0.6989 -0.9255 -0.9067
  167SAPE  H10Y18808   1.621   3.451   4.454  0.4894 -1.3654  1.0543
  167SAPE  C31118809   1.439   3.361   4.382  0.3298  0.2486 -0.2386
  167SAPE  H11X18810   1.401   3.299   4.298 -0.6912  1.9227 -1.0568
  167SAPE  H11Y18811   1.374   3.451   4.387  2.5499  2.3555 -4.1178
  167SAPE  C31218812   1.436   3.284   4.515  0.8876 -0.5327  0.4668
  167SAPE  H12X18813   1.462   3.359   4.593  1.2072  0.3612 -0.4681
  167SAPE  H12Y18814   1.510   3.201   4.513 -1.0846 -2.3796 -1.8649
  167SAPE  C31318815   1.302   3.236   4.559  0.0153  0.0614 -0.8344
  167SAPE  H13X18816   1.268   3.157   4.489  1.0590  1.1440 -2.6413
  167SAPE  H13Y18817   1.229   3.318   4.545 -0.1449  0.2243  0.7686
  167SAPE  C31418818   1.289   3.203   4.708 -0.0246  0.3131  0.2067
  167SAPE  H14X18819   1.321   3.288   4.772  1.1364 -0.2139  0.3501
  167SAPE  H14Y18820   1.353   3.116   4.734 -0.8970  0.1848  2.1358
  167SAPE  C31518821   1.145   3.152   4.745  0.1566 -1.1023  0.3536
  167SAPE  H15X18822   1.074   3.236   4.727  0.1870 -0.9548  0.9023
  167SAPE  H15Y18823   1.146   3.146   4.855  2.2034  1.8058  0.6094
  167SAPE  C31618824   1.084   3.035   4.677  0.4464  0.4530  0.0308
  167SAPE  H16X18825   1.130   2.941   4.713 -0.2948  0.8296  2.0824
  167SAPE  H16Y18826   1.102   3.033   4.567 -1.0892 -0.9517 -0.2364
  167SAPE  C31718827   0.935   3.017   4.688 -0.2781 -0.1905 -0.4195
  167SAPE  H17X18828   0.892   3.110   4.645  0.0202 -0.7350 -1.9690
  167SAPE  H17Y18829   0.892   3.001   4.789 -0.5175  0.2060 -0.4549
  167SAPE  C31818830   0.895   2.899   4.602  0.4222  0.1001  0.7430
  167SAPE  H18X18831   0.941   2.914   4.502  2.4762 -0.1449  1.6085
  167SAPE  H18Y18832   0.788   2.902   4.572  1.1770 -0.7327 -2.3322
  167SAPE  H18Z18833   0.922   2.800   4.643 -1.4646  0.6547  3.6498
  168SAPE     N18834   5.137   6.137   2.779  0.3588  0.0094  0.3120
  168SAPE   HN118835   5.144   6.194   2.866 -1.9896  0.0869  0.5212
  168SAPE   HN218836   5.064   6.186   2.723 -0.6305 -1.6210  0.1192
  168SAPE   HN318837   5.101   6.043   2.805 -0.5542 -0.1945 -1.5411
  168SAPE   C1218838   5.266   6.137   2.711 -0.0574 -0.3471 -0.5206
  168SAPE  H12A18839   5.313   6.036   2.711  0.2693 -0.2123  0.6792
  168SAPE  H12B18840   5.325   6.204   2.777  0.5501 -1.9385  0.6276
  168SAPE   C1118841   5.249   6.181   2.565  0.8525  0.2568 -0.4040
  168SAPE  H11A18842   5.187   6.102   2.517 -0.8047  1.4083 -0.2316
  168SAPE  H11B18843   5.347   6.197   2.514  2.3417  0.3122  2.2492
  168SAPE     P18844   5.218   6.443   2.587 -0.2436 -0.3305  0.0987
  168SAPE   O1318845   5.362   6.447   2.556 -0.0752  0.5117 -0.2631
  168SAPE   O1418846   5.140   6.541   2.512  0.1581  0.0106  0.2071
  168SAPE   O1218847   5.173   6.296   2.561 -0.4913 -0.2068 -0.1143
  168SAPE   O1118848   5.190   6.475   2.740  0.0564  0.6954 -0.3909
  168SAPE    C118849   5.274   6.566   2.810  0.9844 -0.8675 -0.5803
  168SAPE    HA18850   5.370   6.587   2.759  0.2050  1.4459 -1.2192
  168SAPE    HB18851   5.229   6.667   2.819  2.4005 -0.2248 -0.3886
  168SAPE    C218852   5.308   6.513   2.961 -0.4751  0.9831  0.2207
  168SAPE    HS18853   5.363   6.417   2.951  0.1735  1.0029  2.8369
  168SAPE   O2118854   5.189   6.525   3.044  0.3098 -0.1770  0.2731
  168SAPE   C2118855   5.109   6.420   3.031  0.4978 -0.3985 -0.1549
  168SAPE   O2218856   5.140   6.313   2.976 -0.1267  0.5730  0.1523
  168SAPE   C2218857   4.979   6.453   3.105  0.1606  0.1279 -0.2419
  168SAPE   H2R18858   4.997   6.517   3.194  0.7425 -0.7065  0.2499
  168SAPE   H2S18859   4.908   6.501   3.034 -1.2511 -1.4536  0.0447
  168SAPE    C318860   5.423   6.609   3.016  0.4412  0.3987  0.1763
  168SAPE    HX18861   5.387   6.713   3.004 -0.9515 -0.1285 -0.4609
  168SAPE    HY18862   5.508   6.594   2.945 -0.2278  0.7700 -0.7189
  168SAPE   O3118863   5.455   6.579   3.152 -0.2230 -0.3510  0.2860
  168SAPE   C3118864   5.536   6.672   3.216  0.5284  0.5078  0.0695
  168SAPE   O3218865   5.582   6.773   3.163 -0.2046  0.3340  0.5406
  168SAPE   C3218866   5.557   6.634   3.366 -0.0814  0.4771 -0.0530
  168SAPE   H2X18867   5.584   6.528   3.383 -1.2799  0.4769  2.2122
  168SAPE   H2Y18868   5.470   6.663   3.429  0.1988 -0.1016  0.6111
  168SAPE   C2318869   4.916   6.327   3.158 -0.4793  0.4788 -0.4659
  168SAPE   H3R18870   4.881   6.248   3.088 -2.1354  0.5335  0.2492
  168SAPE   H3S18871   4.815   6.349   3.200 -0.0013  1.5371  0.1663
  168SAPE   C2418872   4.996   6.268   3.279 -0.9868  0.2197 -0.1927
  168SAPE   H4R18873   4.995   6.339   3.364  3.1838 -0.4513  0.6263
  168SAPE   H4S18874   5.104   6.262   3.251 -1.4115 -0.3496 -1.8288
  168SAPE   C2518875   4.946   6.127   3.309  0.3291  0.3087 -0.4836
  168SAPE   H5R18876   4.961   6.050   3.231 -0.2330  0.6809 -0.9746
  168SAPE   C2618877   4.860   6.095   3.411 -0.7967 -0.4501  0.6795
  168SAPE   H6R18878   4.822   5.993   3.426  0.1884 -1.1513 -1.2361
  168SAPE   C2718879   4.814   6.190   3.517 -0.1654 -0.1616 -0.6254
  168SAPE   H7R18880   4.712   6.161   3.552  0.6861 -1.1055  1.1879
  168SAPE   H7S18881   4.806   6.291   3.471  1.2853 -0.5845 -1.8703
  168SAPE   C2818882   4.913   6.204   3.626 -0.3556  0.2914  0.6206
  168SAPE   H8R18883   5.014   6.211   3.583 -0.9783  0.9918 -0.8215
  168SAPE   C2918884   4.898   6.214   3.760  0.5402  0.4255  0.0706
  168SAPE   H9R18885   4.988   6.223   3.822  1.2290  0.6389 -0.9271
  168SAPE  C21018886   4.764   6.211   3.835  0.5167 -0.3284 -0.6126
  168SAPE  H10R18887   4.680   6.178   3.769  0.5877  0.2636 -1.0109
  168SAPE  H10S18888   4.730   6.308   3.877 -0.5958 -0.6804 -0.6652
  168SAPE  C21118889   4.776   6.112   3.953  0.0007  0.0734  0.3168
  168SAPE  H11R18890   4.768   6.007   3.921  3.8260 -0.2944  0.0234
  168SAPE  C21218891   4.782   6.133   4.083 -0.6220 -0.2873 -0.1326
  168SAPE  H12R18892   4.805   6.050   4.153  0.0038  2.4209  3.1570
  168SAPE  C21318893   4.782   6.266   4.157 -0.0173  0.2724 -0.2924
  168SAPE  H13R18894   4.710   6.337   4.112 -0.8082 -0.3028  0.0406
  168SAPE  H13S18895   4.885   6.306   4.149  1.0051 -1.6487  2.0151
  168SAPE  C21418896   4.725   6.255   4.295 -0.6543 -0.7624  0.0844
  168SAPE  H14R18897   4.616   6.244   4.293 -0.9407  0.2896  3.3579
  168SAPE  C21518898   4.788   6.268   4.412  0.9166  0.6414 -0.3228
  168SAPE  H15R18899   4.722   6.262   4.499 -0.3119  1.9170 -1.1194
  168SAPE  C21618900   4.930   6.291   4.450  0.4009 -0.0791 -0.0961
  168SAPE  H16R18901   4.943   6.330   4.553  1.3524  1.2608 -0.6819
  168SAPE  H16S18902   4.960   6.374   4.382 -2.1309  0.9752 -0.0485
  168SAPE  C21718903   5.013   6.171   4.415  0.0138  0.2576  0.7159
  168SAPE  H17R18904   5.114   6.196   4.376 -0.2975  1.7211  0.7589
  168SAPE  H17S18905   4.971   6.112   4.331 -0.2822  1.9714 -0.3981
  168SAPE  C21818906   5.027   6.069   4.527 -0.7672 -0.2049 -0.3639
  168SAPE  H18R18907   4.929   6.030   4.561 -1.6485  2.6057  0.6092
  168SAPE  H18S18908   5.092   6.115   4.605 -2.1942  1.0202  0.1490
  168SAPE  C21918909   5.110   5.944   4.480  0.0846  0.3060  0.6134
  168SAPE  H19R18910   5.128   5.887   4.573  0.0086 -0.4147  0.1969
  168SAPE  H19S18911   5.214   5.968   4.447  0.0062 -0.6900 -0.4170
  168SAPE  C22018912   5.044   5.853   4.367 -0.3622 -0.9432 -0.9236
  168SAPE  H20R18913   5.102   5.759   4.352 -1.1441 -1.1932 -2.7026
  168SAPE  H20S18914   5.038   5.901   4.267  1.7851 -0.8591 -1.0688
  168SAPE  H20T18915   4.940   5.831   4.399 -0.3902  0.9958  0.4528
  168SAPE   C3318916   5.664   6.719   3.434 -0.6523  0.2854 -0.0458
  168SAPE   H3X18917   5.644   6.824   3.404  0.4788  1.4059  2.7308
  168SAPE   H3Y18918   5.765   6.687   3.402 -0.1985  0.9003  0.7289
  168SAPE   C3418919   5.660   6.706   3.586  0.3080 -0.6014 -0.2684
  168SAPE   H4X18920   5.672   6.596   3.601  1.2066 -0.4204  0.3993
  168SAPE   H4Y18921   5.565   6.743   3.630  1.2754 -0.7092  2.0851
  168SAPE   C3518922   5.780   6.766   3.659 -0.1011  0.4910 -0.3087
  168SAPE   H5X18923   5.783   6.872   3.627  2.6847  0.5211 -0.1999
  168SAPE   H5Y18924   5.872   6.713   3.626 -0.7014 -0.2384 -0.8189
  168SAPE   C3618925   5.768   6.743   3.806 -0.8115  0.1601  0.4818
  168SAPE   H6X18926   5.779   6.633   3.822  1.8054 -0.1964 -2.6305
  168SAPE   H6Y18927   5.670   6.781   3.841 -2.5177 -3.2729 -0.1609
  168SAPE   C3718928   5.886   6.811   3.877  0.0749  0.4425 -0.7535
  168SAPE   H7X18929   5.881   6.915   3.840  0.6398  0.3281 -1.1634
  168SAPE   H7Y18930   5.972   6.761   3.827  0.5487  3.0493 -2.7944
  168SAPE   C3818931   5.875   6.806   4.031  0.4196  0.1380 -0.7873
  168SAPE   H8X18932   5.792   6.875   4.056  0.5828 -0.4687  1.7059
  168SAPE   H8Y18933   5.970   6.846   4.074  1.3599 -2.0506 -0.6884
  168SAPE   C3918934   5.847   6.669   4.096  0.0470 -0.2275 -0.1705
  168SAPE   H9X18935   5.912   6.591   4.049 -0.2975 -0.3819 -0.3913
  168SAPE   H9Y18936   5.741   6.652   4.070  0.1318 -0.1265 -0.5905
  168SAPE  C31018937   5.840   6.671   4.252 -0.4569  0.0778 -0.3094
  168SAPE  H10X18938   5.764   6.743   4.288 -1.8385 -1.6335  0.3271
  168SAPE  H10Y18939   5.937   6.711   4.286 -0.8863  0.6277  0.2739
  168SAPE  C31118940   5.817   6.539   4.322 -0.2932 -0.1128 -0.2133
  168SAPE  H11X18941   5.885   6.457   4.290  0.9487  1.0199 -0.5974
  168SAPE  H11Y18942   5.710   6.513   4.306 -1.0950  1.8056  1.5257
  168SAPE  C31218943   5.833   6.560   4.477  0.3495  0.1460  0.6716
  168SAPE  H12X18944   5.749   6.629   4.500 -0.4088 -0.9251  1.2240
  168SAPE  H12Y18945   5.929   6.610   4.502 -1.0068  1.4637  3.6855
  168SAPE  C31318946   5.819   6.425   4.545  0.5884  0.9540 -0.4879
  168SAPE  H13X18947   5.903   6.355   4.524  0.4081  0.1348  1.2996
  168SAPE  H13Y18948   5.733   6.377   4.495 -1.2862  1.1886  2.3028
  168SAPE  C31418949   5.784   6.436   4.690 -0.6271 -0.0510 -0.1004
  168SAPE  H14X18950   5.746   6.333   4.710 -1.2576  0.0272 -0.8334
  168SAPE  H14Y18951   5.706   6.513   4.704  1.4389  2.0784  0.2799
  168SAPE  C31518952   5.898   6.464   4.780 -0.0716 -0.4747 -0.0381
  168SAPE  H15X18953   5.953   6.556   4.752  1.4835 -2.1564 -2.9684
  168SAPE  H15Y18954   5.976   6.386   4.767  1.9879  1.3155  0.9340
  168SAPE  C31618955   5.858   6.461   4.925  0.6555  0.1822  0.7726
  168SAPE  H16X18956   5.790   6.375   4.941 -0.6219  1.1719  0.7808
  168SAPE  H16Y18957   5.813   6.560   4.948  1.1640  0.5550  0.1922
  168SAPE  C31718958   5.980   6.452   5.018  0.2235  0.3108 -0.5566
  168SAPE  H17X18959   6.031   6.550   5.013  0.2767  0.2397 -1.6866
  168SAPE  H17Y18960   6.052   6.374   4.982  0.4380  0.1549  0.1972
  168SAPE  C31818961   5.939   6.414   5.157 -0.1137 -0.2347  0.2273
  168SAPE  H18X18962   5.890   6.314   5.161 -1.8893  0.5138 -1.2874
  168SAPE  H18Y18963   5.845   6.463   5.192 -1.3265 -2.7240  0.6484
  168SAPE  H18Z18964   6.022   6.427   5.230  0.2973  0.7327 -0.3978
  169SAPE     N18965   2.956   3.050   2.796  0.1094  0.4237 -0.3677
  169SAPE   HN118966   2.880   3.054   2.867 -0.7425 -2.9791 -0.8901
  169SAPE   HN218967   3.009   2.961   2.807 -0.9165 -0.1667 -0.0014
  169SAPE   HN318968   3.019   3.133   2.800 -0.6268  1.0615 -1.4323
  169SAPE   C1218969   2.902   3.067   2.657  0.1956 -0.5519  0.5763
  169SAPE  H12A18970   2.874   3.174   2.650 -0.9496 -0.9223 -1.1425
  169SAPE  H12B18971   2.811   3.003   2.655  0.9873 -1.7138 -1.5250
  169SAPE   C1118972   3.002   3.021   2.550 -0.0582 -0.0118 -0.0518
  169SAPE  H11A18973   3.095   3.079   2.569  0.3891  0.1259 -2.3789
  169SAPE  H11B18974   2.958   3.053   2.453 -1.7319  4.2239  1.8883
  169SAPE     P18975   3.154   2.807   2.589  0.0113  0.0148 -0.4204
  169SAPE   O1318976   3.143   2.662   2.556 -0.3445 -0.2380 -0.3373
  169SAPE   O1418977   3.264   2.886   2.533 -0.4275  1.0927 -0.7503
  169SAPE   O1218978   3.019   2.880   2.557  0.3334  0.2639  0.4240
  169SAPE   O1118979   3.146   2.826   2.746 -0.0630  0.1221  0.1760
  169SAPE    C118980   3.248   2.898   2.818  0.8779  0.4560 -0.3977
  169SAPE    HA18981   3.349   2.874   2.778  0.6818 -1.0313 -0.0376
  169SAPE    HB18982   3.239   3.008   2.805 -0.4089  0.1972 -1.9573
  169SAPE    C218983   3.251   2.856   2.973 -0.3206 -0.2233 -0.0083
  169SAPE    HS18984   3.259   2.745   2.966 -1.4276 -0.3317  0.2476
  169SAPE   O2118985   3.131   2.896   3.038  1.0925 -0.2509  0.0453
  169SAPE   C2118986   3.105   2.822   3.149  0.0929 -0.0305 -0.7186
  169SAPE   O2218987   3.183   2.744   3.199 -0.1891  0.1049 -0.7185
  169SAPE   C2218988   2.965   2.854   3.199 -0.4536 -0.3327  0.4859
  169SAPE   H2R18989   2.889   2.841   3.120 -0.0451 -0.7793  0.1610
  169SAPE   H2S18990   2.946   2.774   3.274 -1.7467  0.7705  1.3877
  169SAPE    C318991   3.373   2.916   3.043  0.1321 -0.6959  1.0712
  169SAPE    HX18992   3.448   2.896   2.963 -0.5494  0.9581 -0.0488
  169SAPE    HY18993   3.402   2.853   3.129 -0.1873 -1.7522  0.4279
  169SAPE   O3118994   3.351   3.056   3.055  0.5075 -0.0231 -0.2380
  169SAPE   C3118995   3.379   3.107   3.173  0.8892 -0.0806 -0.3966
  169SAPE   O3218996   3.460   3.058   3.253 -0.1552  0.3447  0.1159
  169SAPE   C3218997   3.295   3.235   3.196  0.5857 -1.0043 -0.0688
  169SAPE   H2X18998   3.187   3.212   3.181  0.5741  0.1324 -2.0558
  169SAPE   H2Y18999   3.323   3.313   3.122  0.1732 -2.4597 -1.8493
  169SAPE   C2319000   2.951   2.998   3.260  0.0692  0.5952 -0.2450
  169SAPE   H3R19001   2.981   3.072   3.182  1.8449  0.5580  0.3488
  169SAPE   H3S19002   3.015   3.007   3.350  1.6287 -2.7730 -0.8632
  169SAPE   C2419003   2.812   3.031   3.317 -0.4558  0.8946 -0.2126
  169SAPE   H4R19004   2.781   2.980   3.411  1.3130  2.3176  1.2196
  169SAPE   H4S19005   2.737   3.005   3.238 -0.4801  1.3106 -0.3262
  169SAPE   C2519006   2.794   3.178   3.333 -0.1667  0.7652 -0.3876
  169SAPE   H5R19007   2.831   3.239   3.249  1.9477  1.1488  0.7362
  169SAPE   C2619008   2.735   3.241   3.437  0.6152  0.2276  0.2438
  169SAPE   H6R19009   2.718   3.348   3.418  1.7220  0.8642  2.3933
  169SAPE   C2719010   2.695   3.180   3.568 -0.3661 -0.7228 -0.4400
  169SAPE   H7R19011   2.727   3.253   3.645  0.1596 -0.5269 -0.8402
  169SAPE   H7S19012   2.759   3.092   3.589  2.1134  0.7229 -1.5576
  169SAPE   C2819013   2.543   3.159   3.578  0.0466  0.7893  0.6108
  169SAPE   H8R19014   2.482   3.250   3.569 -0.1116  0.6943  0.7147
  169SAPE   C2919015   2.480   3.035   3.582  0.5029 -0.3542 -0.0757
  169SAPE   H9R19016   2.370   3.041   3.580  0.5571  1.4795  0.6871
  169SAPE  C21019017   2.535   2.895   3.565  0.2696  0.0282  0.3928
  169SAPE  H10R19018   2.535   2.846   3.665  1.1252  1.4103  1.0962
  169SAPE  H10S19019   2.641   2.902   3.532 -0.1679 -0.1766 -1.1545
  169SAPE  C21119020   2.455   2.819   3.457 -0.3176 -0.5311  0.1301
  169SAPE  H11R19021   2.476   2.857   3.357 -0.0352 -0.2948  0.2784
  169SAPE  C21219022   2.366   2.723   3.480 -0.1375  0.0722  0.8135
  169SAPE  H12R19023   2.318   2.673   3.394 -0.6312 -1.2655  1.8357
  169SAPE  C21319024   2.325   2.671   3.619  0.7677  0.0377 -0.4224
  169SAPE  H13R19025   2.382   2.720   3.701  1.2694 -0.6735 -0.3430
  169SAPE  H13S19026   2.345   2.562   3.619 -0.4580 -0.2631  2.1084
  169SAPE  C21419027   2.179   2.682   3.660 -0.1847 -0.1027 -0.2359
  169SAPE  H14R19028   2.109   2.680   3.575 -0.1892  0.5388 -0.2559
  169SAPE  C21519029   2.124   2.697   3.782  0.0756 -0.1114  0.0322
  169SAPE  H15R19030   2.017   2.711   3.799  0.2863  1.2128  0.3995
  169SAPE  C21619031   2.193   2.706   3.914 -0.2318 -0.5269  0.4776
  169SAPE  H16R19032   2.168   2.803   3.962 -0.8696 -1.0229  1.1820
  169SAPE  H16S19033   2.303   2.693   3.901 -0.2627 -2.6074  1.7547
  169SAPE  C21719034   2.147   2.583   3.992  0.0982  0.0812 -0.5325
  169SAPE  H17R19035   2.175   2.492   3.934  1.6200  0.1639  0.0243
  169SAPE  H17S19036   2.036   2.587   3.997  0.1620  2.7528  0.2688
  169SAPE  C21819037   2.203   2.579   4.137 -0.8505  0.4142 -0.6631
  169SAPE  H18R19038   2.163   2.673   4.179 -1.7559 -0.5204  0.6641
  169SAPE  H18S19039   2.314   2.581   4.126 -0.5782  2.7760  1.6531
  169SAPE  C21919040   2.163   2.456   4.220  0.0281 -0.3099 -0.3933
  169SAPE  H19R19041   2.198   2.373   4.156  0.0285  0.9563 -2.1166
  169SAPE  H19S19042   2.052   2.461   4.221  0.0062 -0.5350  1.7127
  169SAPE  C22019043   2.218   2.449   4.359  0.4126 -0.2711  0.2624
  169SAPE  H20R19044   2.175   2.526   4.425 -1.1517 -0.0804 -0.9237
  169SAPE  H20S19045   2.327   2.465   4.372  0.3116 -1.3111  2.8277
  169SAPE  H20T19046   2.212   2.345   4.395  0.4016 -0.9716 -1.6517
  169SAPE   C3319047   3.306   3.294   3.336  0.2088  0.3526  0.0411
  169SAPE   H3X19048   3.283   3.402   3.325 -1.5057 -0.0158 -0.2848
  169SAPE   H3Y19049   3.403   3.264   3.381 -0.6551 -2.4408  0.2962
  169SAPE   C3419050   3.193   3.247   3.421  0.4391  0.2381 -0.2057
  169SAPE   H4X19051   3.187   3.136   3.417  0.4873  0.1836  0.8265
  169SAPE   H4Y19052   3.101   3.302   3.392 -0.0908 -0.4458  0.1438
  169SAPE   C3519053   3.200   3.275   3.573 -0.3435 -0.1544  0.3292
  169SAPE   H5X19054   3.239   3.378   3.580 -1.7077  0.5291 -1.1858
  169SAPE   H5Y19055   3.276   3.201   3.606 -2.8752 -3.0665  0.2007
  169SAPE   C3619056   3.070   3.250   3.644  0.2622  0.9259 -0.3973
  169SAPE   H6X19057   3.022   3.152   3.623  1.3932  0.4947 -1.0536
  169SAPE   H6Y19058   3.000   3.326   3.604 -1.0825 -0.3116 -0.4747
  169SAPE   C3719059   3.083   3.255   3.799 -0.0123 -0.6603 -0.9382
  169SAPE   H7X19060   3.170   3.190   3.823  2.2653  2.7557  0.8746
  169SAPE   H7Y19061   2.993   3.208   3.846  1.2203 -2.3618 -0.1795
  169SAPE   C3819062   3.132   3.392   3.841  0.1838 -0.5140 -0.4147
  169SAPE   H8X19063   3.057   3.468   3.811 -0.3740 -1.7221 -2.2178
  169SAPE   H8Y19064   3.225   3.424   3.790 -0.9258  6.2018  0.8597
  169SAPE   C3919065   3.160   3.393   3.991  0.4960  0.3264 -0.0210
  169SAPE   H9X19066   3.236   3.317   4.019 -0.8090 -0.8060  0.6303
  169SAPE   H9Y19067   3.066   3.362   4.042  1.0925  0.2045  1.0346
  169SAPE  C31019068   3.209   3.525   4.050  0.1762  0.4341 -0.2369
  169SAPE  H10X19069   3.128   3.599   4.035 -1.7997 -1.4529  0.5442
  169SAPE  H10Y19070   3.295   3.567   3.994 -0.3083  0.5617 -0.8959
  169SAPE  C31119071   3.253   3.513   4.193 -0.2354  0.2351 -0.4840
  169SAPE  H11X19072   3.311   3.602   4.227  2.0440 -1.0528 -0.8168
  169SAPE  H11Y19073   3.317   3.429   4.226 -0.6998  0.3354  0.7108
  169SAPE  C31219074   3.125   3.513   4.299 -0.7477 -0.0379 -0.8220
  169SAPE  H12X19075   3.071   3.416   4.300 -1.9542  0.6265  0.0495
  169SAPE  H12Y19076   3.054   3.584   4.250  0.0422  1.3347 -0.0245
  169SAPE  C31319077   3.150   3.561   4.440  0.2986 -0.3089  0.5179
  169SAPE  H13X19078   3.176   3.669   4.433  0.1162 -0.2358  0.9592
  169SAPE  H13Y19079   3.239   3.510   4.482  1.7168  0.0114 -1.8913
  169SAPE  C31419080   3.028   3.559   4.532 -0.1572 -0.0290  0.1611
  169SAPE  H14X19081   3.007   3.460   4.577  1.6249 -0.5376 -0.0384
  169SAPE  H14Y19082   2.935   3.570   4.473 -1.5474 -3.8112  1.3895
  169SAPE  C31519083   3.040   3.650   4.649 -0.2245  0.5579  0.4304
  169SAPE  H15X19084   3.060   3.752   4.611 -0.3919  0.1063 -0.9194
  169SAPE  H15Y19085   3.129   3.620   4.708 -0.5480  0.1895  0.7371
  169SAPE  C31619086   2.913   3.631   4.731  0.3122  0.0601  0.1904
  169SAPE  H16X19087   2.881   3.526   4.744 -0.4591  0.3546  0.8146
  169SAPE  H16Y19088   2.832   3.683   4.675  0.8945 -1.6734 -2.4386
  169SAPE  C31719089   2.924   3.692   4.871 -0.6171  0.4811 -0.7277
  169SAPE  H17X19090   2.834   3.667   4.932  0.0035  1.9921  0.9016
  169SAPE  H17Y19091   2.913   3.801   4.855 -3.0007  0.0418 -2.5471
  169SAPE  C31819092   3.046   3.656   4.957 -0.7768 -0.3873  0.3245
  169SAPE  H18X19093   3.049   3.546   4.973 -2.1616 -0.5388 -0.4132
  169SAPE  H18Y19094   3.035   3.711   5.053  0.3239  0.4932 -0.0231
  169SAPE  H18Z19095   3.141   3.686   4.908 -1.2622 -1.1778 -1.1553
  170SAPE     N19096   2.959   6.485   2.698 -0.4726  0.1223  0.4982
  170SAPE   HN119097   2.940   6.542   2.613 -0.4020  2.4733  1.9652
  170SAPE   HN219098   3.005   6.540   2.774  1.5400  0.2264 -0.7278
  170SAPE   HN319099   3.015   6.399   2.685 -0.7817 -0.3845  2.2692
  170SAPE   C1219100   2.828   6.458   2.757 -0.4019 -0.9640 -0.4812
  170SAPE  H12A19101   2.783   6.552   2.796  4.4078  0.1219  3.3748
  170SAPE  H12B19102   2.829   6.394   2.847 -0.2580 -0.5492 -0.1804
  170SAPE   C1119103   2.736   6.392   2.648  0.0291  0.4105 -0.2115
  170SAPE  H11A19104   2.685   6.460   2.577 -1.5902  1.9126  2.2139
  170SAPE  H11B19105   2.658   6.353   2.718  1.2033  0.1048  0.9602
  170SAPE     P19106   2.798   6.140   2.607 -0.1379  0.0999  0.1234
  170SAPE   O1319107   2.672   6.084   2.549 -0.4620 -0.4654 -0.3107
  170SAPE   O1419108   2.925   6.082   2.571 -0.1812  0.0892 -0.2231
  170SAPE   O1219109   2.809   6.295   2.574 -0.2153 -0.1513 -0.7989
  170SAPE   O1119110   2.784   6.136   2.764  0.1186 -0.0616 -0.0558
  170SAPE    C119111   2.893   6.127   2.851  0.1658  0.0940 -0.1023
  170SAPE    HA19112   2.994   6.139   2.805  1.4367 -1.3393  2.1406
  170SAPE    HB19113   2.878   6.201   2.932 -0.2015 -2.1847  2.0195
  170SAPE    C219114   2.892   5.989   2.922 -0.6325 -0.7283 -0.6864
  170SAPE    HS19115   2.906   5.906   2.850  0.3175 -2.5270  1.4595
  170SAPE   O2119116   2.769   5.978   2.996 -0.0569  0.0140  0.0928
  170SAPE   C2119117   2.716   5.854   3.009  0.4751  0.0273 -0.2580
  170SAPE   O2219118   2.774   5.754   2.975  0.2552  0.1269  0.2351
  170SAPE   C2219119   2.570   5.862   3.061 -0.6440 -0.6355  0.3555
  170SAPE   H2R19120   2.552   5.969   3.084 -0.0343 -0.4229 -0.1094
  170SAPE   H2S19121   2.496   5.843   2.981 -0.8265  1.6295 -0.0830
  170SAPE    C319122   3.021   5.988   3.027  0.3620  0.4839  0.3892
  170SAPE    HX19123   2.988   6.073   3.091  1.8981  0.1454  1.6862
  170SAPE    HY19124   3.111   6.012   2.966  1.0093 -0.7131  0.8304
  170SAPE   O3119125   3.042   5.856   3.085 -0.2152  0.1510  0.5550
  170SAPE   C3119126   2.980   5.844   3.204  0.4754 -0.1672 -0.2922
  170SAPE   O3219127   2.938   5.937   3.270 -0.2828 -0.2258 -0.0202
  170SAPE   C3219128   2.980   5.696   3.236 -0.1434 -0.2646  0.5894
  170SAPE   H2X19129   3.085   5.660   3.241  0.0510  0.1540 -0.3083
  170SAPE   H2Y19130   2.925   5.645   3.153 -2.1903  1.6057  0.6917
  170SAPE   C2319131   2.535   5.771   3.182 -0.4839  0.5202 -0.4871
  170SAPE   H3R19132   2.616   5.757   3.257 -2.8866 -2.7452  1.7807
  170SAPE   H3S19133   2.506   5.669   3.150 -1.8697  0.8619 -0.4164
  170SAPE   C2419134   2.420   5.825   3.267 -0.0770 -0.1440 -0.2542
  170SAPE   H4R19135   2.394   5.754   3.348  1.5197  1.1041  1.4595
  170SAPE   H4S19136   2.330   5.831   3.203 -0.6145 -2.3653  0.2074
  170SAPE   C2519137   2.463   5.960   3.318  0.6259 -0.0302  0.4350
  170SAPE   H5R19138   2.445   6.039   3.243 -0.7259  0.2902  1.0591
  170SAPE   C2619139   2.502   5.981   3.441 -0.3278 -0.0266 -0.1658
  170SAPE   H6R19140   2.517   6.083   3.479 -1.6289  0.1939 -0.1994
  170SAPE   C2719141   2.526   5.875   3.549  0.1360  0.4841 -0.1984
  170SAPE   H7R19142   2.494   5.774   3.516  0.8206  0.6530 -1.4607
  170SAPE   H7S19143   2.464   5.905   3.636 -0.3470  0.4643 -0.5314
  170SAPE   C2819144   2.673   5.866   3.579  0.0901  0.3723 -0.0617
  170SAPE   H8R19145   2.741   5.869   3.492  0.7959 -0.3520  0.4574
  170SAPE   C2919146   2.722   5.833   3.702 -0.6138 -0.1944  0.0191
  170SAPE   H9R19147   2.830   5.839   3.723 -0.5541 -2.6539  0.7371
  170SAPE  C21019148   2.650   5.843   3.833 -0.0455  0.5793 -0.3352
  170SAPE  H10R19149   2.708   5.776   3.900 -2.2698  0.0813  1.2030
  170SAPE  H10S19150   2.552   5.793   3.828 -1.7177  3.6292 -0.6140
  170SAPE  C21119151   2.627   5.979   3.883 -0.2980 -1.1085 -0.0657
  170SAPE  H11R19152   2.607   6.053   3.804  1.7112 -0.1473  0.2646
  170SAPE  C21219153   2.650   6.037   4.006 -0.2456 -0.4832  0.4420
  170SAPE  H12R19154   2.615   6.140   4.024 -0.0087 -0.3425  0.1107
  170SAPE  C21319155   2.686   5.972   4.137  0.1786 -0.0039 -0.1548
  170SAPE  H13R19156   2.759   6.045   4.176 -0.5035  1.0563 -0.8004
  170SAPE  H13S19157   2.744   5.879   4.120  0.6051  0.0125  1.1447
  170SAPE  C21419158   2.558   5.946   4.212 -0.6328  1.3008  0.2942
  170SAPE  H14R19159   2.511   5.854   4.173  2.7943 -0.5240  0.1348
  170SAPE  C21519160   2.510   6.010   4.320 -0.2122 -0.2274 -0.2131
  170SAPE  H15R19161   2.419   5.971   4.368 -0.5238 -0.2272 -0.8040
  170SAPE  C21619162   2.596   6.113   4.402  0.8964  0.6235 -0.5311
  170SAPE  H16R19163   2.536   6.207   4.401 -0.8322 -0.4344 -1.6758
  170SAPE  H16S19164   2.689   6.136   4.347  0.7717  1.7286 -0.3168
  170SAPE  C21719165   2.619   6.066   4.545  0.6176  0.4512 -0.1118
  170SAPE  H17R19166   2.667   6.148   4.602  0.5118  2.0352 -2.1707
  170SAPE  H17S19167   2.700   5.991   4.538 -0.7676 -1.1125  0.0188
  170SAPE  C21819168   2.493   6.010   4.618  0.4989 -0.0732  0.9465
  170SAPE  H18R19169   2.518   5.974   4.720  1.1096  0.8882  1.1499
  170SAPE  H18S19170   2.459   5.925   4.556 -0.3016  1.3884 -0.7340
  170SAPE  C21919171   2.379   6.109   4.632  0.1301  0.2996  0.3679
  170SAPE  H19R19172   2.294   6.047   4.668  0.4618  0.2625  1.1156
  170SAPE  H19S19173   2.343   6.165   4.544  0.9043 -0.2584 -0.3241
  170SAPE  C22019174   2.416   6.211   4.748 -0.1105  0.0354  0.0137
  170SAPE  H20R19175   2.509   6.268   4.726  1.7804 -2.0839  1.9189
  170SAPE  H20S19176   2.433   6.156   4.844 -2.4800 -0.2298  0.3450
  170SAPE  H20T19177   2.335   6.284   4.764  1.3116  1.9416 -1.1225
  170SAPE   C3319178   2.912   5.660   3.366  0.2492  0.6732  0.7962
  170SAPE   H3X19179   2.808   5.698   3.353 -0.2799 -0.2582  2.1366
  170SAPE   H3Y19180   2.967   5.708   3.450  3.6666 -0.7067 -0.4720
  170SAPE   C3419181   2.915   5.505   3.364  0.2132 -0.3827 -0.0496
  170SAPE   H4X19182   2.982   5.472   3.283 -1.4061 -3.0023 -0.4466
  170SAPE   H4Y19183   2.808   5.487   3.342 -0.7154  0.4280  3.1497
  170SAPE   C3519184   2.951   5.433   3.499  0.1451 -0.0091  0.0815
  170SAPE   H5X19185   3.039   5.488   3.538  1.7227 -0.8751 -2.0808
  170SAPE   H5Y19186   2.978   5.330   3.469 -0.0836 -0.2465  0.6623
  170SAPE   C3619187   2.845   5.433   3.609 -0.5677  0.3589 -0.7700
  170SAPE   H6X19188   2.740   5.432   3.573 -1.7525  0.7455  2.3614
  170SAPE   H6Y19189   2.859   5.529   3.664 -0.2767 -1.0556  1.7616
  170SAPE   C3719190   2.855   5.319   3.708 -0.1687  0.1010  0.0372
  170SAPE   H7X19191   2.963   5.298   3.725  0.3409  0.7548 -2.0598
  170SAPE   H7Y19192   2.813   5.225   3.668  1.0213 -1.9266  3.1340
  170SAPE   C3819193   2.782   5.348   3.839 -0.3804  0.0600  0.1971
  170SAPE   H8X19194   2.775   5.254   3.898 -1.7662 -1.3065 -2.0223
  170SAPE   H8Y19195   2.681   5.373   3.799 -0.1733  0.3564 -0.1517
  170SAPE   C3919196   2.850   5.463   3.922  0.0817  0.7155  0.5149
  170SAPE   H9X19197   2.829   5.560   3.872 -1.1253 -0.1297 -0.6872
  170SAPE   H9Y19198   2.959   5.448   3.904  0.3354  2.2132  0.6333
  170SAPE  C31019199   2.809   5.456   4.065 -0.5512 -0.2156 -0.1735
  170SAPE  H10X19200   2.828   5.354   4.105 -2.1231 -0.9724 -1.2695
  170SAPE  H10Y19201   2.699   5.461   4.078 -0.7709 -1.3644 -1.2923
  170SAPE  C31119202   2.879   5.557   4.155 -0.3703 -0.4326 -0.1305
  170SAPE  H11X19203   2.842   5.658   4.127  1.0951  1.0564  2.7611
  170SAPE  H11Y19204   2.989   5.548   4.144 -0.6806 -3.5730 -1.5288
  170SAPE  C31219205   2.844   5.537   4.301 -0.2567  0.5201 -0.1023
  170SAPE  H12X19206   2.902   5.610   4.361  0.9719 -1.2874  1.0000
  170SAPE  H12Y19207   2.882   5.435   4.323 -0.5566  0.0408 -1.6632
  170SAPE  C31319208   2.696   5.534   4.336  0.1522  0.2414 -0.3022
  170SAPE  H13X19209   2.646   5.448   4.288 -1.3331 -0.0823  1.7178
  170SAPE  H13Y19210   2.652   5.632   4.307  0.4626  0.0693 -1.4257
  170SAPE  C31419211   2.688   5.508   4.485 -0.7361  0.2464 -0.4101
  170SAPE  H14X19212   2.787   5.464   4.508 -1.2788 -0.6953  0.1766
  170SAPE  H14Y19213   2.606   5.437   4.509  1.0267 -1.5080  0.6845
  170SAPE  C31519214   2.682   5.638   4.563  0.0321  0.6875 -0.1550
  170SAPE  H15X19215   2.590   5.698   4.546 -0.8034 -1.0576 -2.2799
  170SAPE  H15Y19216   2.774   5.698   4.552  2.4379 -2.8418 -1.0896
  170SAPE  C31619217   2.671   5.591   4.710 -0.4716  0.0237 -0.6164
  170SAPE  H16X19218   2.756   5.526   4.743 -0.7978 -0.8920 -1.5222
  170SAPE  H16Y19219   2.575   5.538   4.728  0.2959 -1.0253  0.5967
  170SAPE  C31719220   2.665   5.720   4.798 -0.3145 -0.3987 -0.4945
  170SAPE  H17X19221   2.558   5.746   4.816  0.0600  0.0395  1.2892
  170SAPE  H17Y19222   2.707   5.810   4.748 -1.1667 -0.4951 -1.3910
  170SAPE  C31819223   2.733   5.702   4.938  0.2392 -0.3338  0.1062
  170SAPE  H18X19224   2.839   5.669   4.926  0.4374  0.0859  0.6673
  170SAPE  H18Y19225   2.674   5.624   4.991 -3.0140 -0.9939 -3.9420
  170SAPE  H18Z19226   2.725   5.800   4.989  0.7493  0.3692 -1.1227
  171SAPE     N19227   2.971   4.726   2.886  0.5310 -0.5694  0.2066
  171SAPE   HN119228   2.934   4.677   2.970 -0.6582 -1.4526 -0.8049
  171SAPE   HN219229   3.048   4.664   2.852 -0.8609 -2.3742  0.2222
  171SAPE   HN319230   3.013   4.817   2.917 -0.7994 -0.6646  2.5158
  171SAPE   C1219231   2.869   4.737   2.778 -0.2721  0.0290  0.6804
  171SAPE  H12A19232   2.903   4.695   2.681 -0.2624  0.2479  0.5882
  171SAPE  H12B19233   2.835   4.842   2.769 -2.7012 -0.7080  0.7182
  171SAPE   C1119234   2.738   4.670   2.821 -0.1408  0.2743 -0.6624
  171SAPE  H11A19235   2.715   4.711   2.921 -1.6257  0.1269 -0.9211
  171SAPE  H11B19236   2.746   4.559   2.830  1.7344  0.4559  0.1474
  171SAPE     P19237   2.520   4.818   2.782 -0.4809  0.0145  0.3521
  171SAPE   O1319238   2.592   4.944   2.818 -0.1628  0.3604 -0.5019
  171SAPE   O1419239   2.407   4.831   2.684 -0.1112  0.0145 -0.1226
  171SAPE   O1219240   2.624   4.711   2.732 -0.7136 -0.4832 -0.1918
  171SAPE   O1119241   2.473   4.736   2.910  0.0354 -0.5137  0.0630
  171SAPE    C119242   2.341   4.752   2.954  0.3791 -0.4419 -0.8512
  171SAPE    HA19243   2.290   4.848   2.932 -2.7990 -1.4396  1.5204
  171SAPE    HB19244   2.269   4.677   2.915 -0.0591 -1.3218  1.5100
  171SAPE    C219245   2.342   4.744   3.111  0.1188  0.1041  0.5055
  171SAPE    HS19246   2.413   4.666   3.147  0.7026  1.4126  2.3491
  171SAPE   O2119247   2.210   4.723   3.168 -0.1111  0.0614  0.0563
  171SAPE   C2119248   2.161   4.597   3.154 -0.7047  0.5669 -0.0958
  171SAPE   O2219249   2.212   4.509   3.088 -0.0330  0.6636  0.5560
  171SAPE   C2219250   2.016   4.596   3.206 -0.6234 -0.7262  0.3309
  171SAPE   H2R19251   1.951   4.656   3.138 -1.6253 -1.6528  0.4515
  171SAPE   H2S19252   1.990   4.489   3.190  0.5447 -1.2216  1.5789
  171SAPE    C319253   2.405   4.876   3.166  1.1069  0.8431  0.0648
  171SAPE    HX19254   2.345   4.969   3.151 -0.2350 -0.0474 -0.2261
  171SAPE    HY19255   2.493   4.881   3.098  0.1476 -0.0976 -1.3126
  171SAPE   O3119256   2.441   4.862   3.304  0.1410  0.3148 -0.4735
  171SAPE   C3119257   2.513   4.957   3.348 -0.3705 -0.8701 -0.3718
  171SAPE   O3219258   2.568   5.047   3.285 -0.2248  0.5822  0.2713
  171SAPE   C3219259   2.486   4.963   3.507 -0.2956 -0.8287 -0.1114
  171SAPE   H2X19260   2.543   4.882   3.556 -0.0253 -1.0488 -0.7758
  171SAPE   H2Y19261   2.376   4.953   3.520 -0.3342  0.9011  1.2365
  171SAPE   C2319262   1.999   4.638   3.353 -0.0225  0.2392 -0.6463
  171SAPE   H3R19263   2.059   4.731   3.368 -1.8923  1.0322  2.9038
  171SAPE   H3S19264   2.054   4.564   3.414  0.2580  1.3023  0.4431
  171SAPE   C2419265   1.856   4.660   3.405  0.3151 -0.3444 -0.0477
  171SAPE   H4R19266   1.821   4.755   3.361  0.0769 -0.7401 -0.7313
  171SAPE   H4S19267   1.854   4.687   3.512 -2.2488  3.1784 -0.8156
  171SAPE   C2519268   1.770   4.536   3.369 -0.1458 -0.3050 -0.3427
  171SAPE   H5R19269   1.740   4.541   3.263  2.1467  1.4855 -1.0025
  171SAPE   C2619270   1.761   4.422   3.439  0.2101  0.6414 -0.0227
  171SAPE   H6R19271   1.687   4.352   3.396  2.0334 -0.7049 -1.1169
  171SAPE   C2719272   1.821   4.383   3.573  0.7106 -0.2946  0.1339
  171SAPE   H7R19273   1.766   4.423   3.661  0.0484 -1.9065  0.4822
  171SAPE   H7S19274   1.922   4.430   3.574  0.7023 -0.2282 -0.9484
  171SAPE   C2819275   1.833   4.234   3.590  0.6139 -0.2548 -0.6293
  171SAPE   H8R19276   1.832   4.179   3.495  2.6987  1.3536 -1.6460
  171SAPE   C2919277   1.859   4.167   3.702  0.0965 -0.2649 -0.8706
  171SAPE   H9R19278   1.854   4.057   3.705  1.1006 -0.3109 -0.5065
  171SAPE  C21019279   1.895   4.234   3.833 -0.2661  0.2491 -0.4338
  171SAPE  H10R19280   1.831   4.322   3.858 -0.3031 -0.2239  1.2781
  171SAPE  H10S19281   1.999   4.272   3.832 -0.9401  2.2631 -0.0414
  171SAPE  C21119282   1.863   4.142   3.948  0.3471  0.6523 -0.5388
  171SAPE  H11R19283   1.809   4.049   3.922  2.1874 -0.3078 -1.1346
  171SAPE  C21219284   1.909   4.155   4.075 -0.1025 -0.1797 -0.2385
  171SAPE  H12R19285   1.877   4.088   4.156  0.4756 -1.0120 -0.6844
  171SAPE  C21319286   1.989   4.273   4.130  0.0551 -0.6284  0.1564
  171SAPE  H13R19287   1.959   4.295   4.235  0.4300  0.2042  0.1043
  171SAPE  H13S19288   1.977   4.370   4.077  0.5764  0.5853  2.1285
  171SAPE  C21419289   2.137   4.240   4.131  0.1777  0.1979 -0.2581
  171SAPE  H14R19290   2.192   4.278   4.044 -1.4989 -0.5147 -1.6920
  171SAPE  C21519291   2.205   4.171   4.221  0.5242  0.0875 -0.9292
  171SAPE  H15R19292   2.314   4.172   4.209  0.7225  1.8109  0.4927
  171SAPE  C21619293   2.161   4.112   4.354  0.3778 -0.0631  0.1114
  171SAPE  H16R19294   2.145   4.002   4.355  0.0465 -0.0510 -1.6559
  171SAPE  H16S19295   2.071   4.168   4.389  2.1272  3.3443 -0.4237
  171SAPE  C21719296   2.263   4.154   4.457 -0.3116 -0.5704 -0.1862
  171SAPE  H17R19297   2.277   4.264   4.444  0.4198 -0.4780  1.1916
  171SAPE  H17S19298   2.359   4.106   4.430 -1.1804 -1.4201 -1.9365
  171SAPE  C21819299   2.223   4.133   4.607  0.0092  0.5751  0.0453
  171SAPE  H18R19300   2.246   4.027   4.632 -0.4320  0.0668 -1.5828
  171SAPE  H18S19301   2.117   4.164   4.619  0.0927  0.5994  0.7491
  171SAPE  C21919302   2.311   4.215   4.697 -0.2858 -0.3012  0.2431
  171SAPE  H19R19303   2.361   4.296   4.639 -0.3508  0.0099  0.6197
  171SAPE  H19S19304   2.391   4.149   4.738  0.0752 -0.4703 -0.7051
  171SAPE  C22019305   2.231   4.285   4.801 -0.3119 -0.0513  0.1178
  171SAPE  H20R19306   2.294   4.303   4.891 -0.8467  1.7466  0.1724
  171SAPE  H20S19307   2.145   4.222   4.832  1.0272 -2.3003 -0.4780
  171SAPE  H20T19308   2.191   4.380   4.760  2.0539  0.8920 -0.1559
  171SAPE   C3319309   2.541   5.098   3.560 -0.7487 -0.4424  0.6545
  171SAPE   H3X19310   2.477   5.180   3.523  1.0727  2.0565  2.6672
  171SAPE   H3Y19311   2.643   5.123   3.522 -0.9536  0.5927  0.7645
  171SAPE   C3419312   2.551   5.086   3.709  0.7180 -0.1161  0.5539
  171SAPE   H4X19313   2.576   5.186   3.749 -1.1574  0.3226  0.7513
  171SAPE   H4Y19314   2.633   5.016   3.734  1.5303  0.8550  0.6637
  171SAPE   C3519315   2.414   5.049   3.778 -0.3177  0.4735 -0.2376
  171SAPE   H5X19316   2.387   4.946   3.749  2.0050 -0.8553  1.9437
  171SAPE   H5Y19317   2.335   5.124   3.754 -3.3176 -2.1873  0.6192
  171SAPE   C3619318   2.425   5.058   3.936 -0.1777 -0.2507  0.6809
  171SAPE   H6X19319   2.451   5.163   3.962  0.3626  0.0111 -0.7955
  171SAPE   H6Y19320   2.507   4.989   3.965 -0.8384 -0.4361  2.1731
  171SAPE   C3719321   2.291   5.013   4.000 -0.1853  0.0877  0.1844
  171SAPE   H7X19322   2.252   4.913   3.969 -0.4158  0.1095  0.4045
  171SAPE   H7Y19323   2.210   5.081   3.969 -0.2083  0.2368  0.5691
  171SAPE   C3819324   2.295   5.015   4.149 -0.6306 -0.3680 -0.0224
  171SAPE   H8X19325   2.366   5.091   4.188  1.9612 -1.5375 -2.1188
  171SAPE   H8Y19326   2.329   4.912   4.173  1.0465 -0.4284 -2.2602
  171SAPE   C3919327   2.167   5.054   4.221 -0.1989  0.1544 -0.0056
  171SAPE   H9X19328   2.094   4.973   4.198  1.1668 -1.3551  0.7646
  171SAPE   H9Y19329   2.126   5.148   4.179 -0.2793  0.4707  0.7631
  171SAPE  C31019330   2.182   5.063   4.370  0.7152  0.6683 -0.8020
  171SAPE  H10X19331   2.256   5.140   4.401 -1.3300  1.6766  2.0376
  171SAPE  H10Y19332   2.210   4.964   4.413 -1.2469  0.5020  0.2169
  171SAPE  C31119333   2.053   5.087   4.447 -0.5228  0.5090 -0.3599
  171SAPE  H11X19334   1.974   5.021   4.405 -1.0498  0.7107  0.2960
  171SAPE  H11Y19335   2.012   5.188   4.425 -1.0224  0.4815  0.4100
  171SAPE  C31219336   2.057   5.071   4.601  0.9348  0.0447 -0.4680
  171SAPE  H12X19337   2.073   4.962   4.617  1.4704  0.4229  1.8965
  171SAPE  H12Y19338   1.952   5.085   4.635  0.9226 -0.8530 -0.1178
  171SAPE  C31319339   2.151   5.150   4.687  0.3259  0.6669 -0.0623
  171SAPE  H13X19340   2.110   5.253   4.675 -4.0710 -0.9673 -1.1492
  171SAPE  H13Y19341   2.249   5.149   4.636 -0.2433 -0.2318 -1.1840
  171SAPE  C31419342   2.153   5.110   4.833  0.1044 -0.4851 -0.2754
  171SAPE  H14X19343   2.224   5.171   4.893 -0.3221  0.5485 -0.7888
  171SAPE  H14Y19344   2.193   5.007   4.840  1.4654 -0.0359 -1.0583
  171SAPE  C31519345   2.016   5.118   4.908 -0.8077  0.5884 -0.4229
  171SAPE  H15X19346   2.024   5.103   5.018  2.0101 -0.9222 -0.7342
  171SAPE  H15Y19347   1.952   5.031   4.881 -1.1216  0.4066  0.8530
  171SAPE  C31619348   1.949   5.250   4.879 -0.0538  0.0368  0.2061
  171SAPE  H16X19349   1.911   5.256   4.775 -2.0591 -1.0274  0.8240
  171SAPE  H16Y19350   2.027   5.328   4.891 -0.3737  0.2574  0.9303
  171SAPE  C31719351   1.839   5.280   4.982 -0.1022 -0.4630  0.1597
  171SAPE  H17X19352   1.809   5.386   4.967 -1.2765 -1.1464 -3.2230
  171SAPE  H17Y19353   1.873   5.280   5.087  3.4683 -0.5468 -0.8854
  171SAPE  C31819354   1.723   5.194   4.961 -0.1105  0.2182  0.3878
  171SAPE  H18X19355   1.746   5.090   4.994 -0.4777 -0.5712 -1.6910
  171SAPE  H18Y19356   1.671   5.186   4.863 -2.4617 -0.5731  1.5985
  171SAPE  H18Z19357   1.644   5.234   5.029  0.9123  2.5856  0.2496
  172SAPE     N19358   3.359   5.555   3.008 -0.1804 -0.0853 -0.3610
  172SAPE   HN119359   3.287   5.486   3.037 -0.5983  0.7772  0.7504
  172SAPE   HN219360   3.410   5.500   2.935 -0.5003 -0.9137  0.0257
  172SAPE   HN319361   3.424   5.589   3.082 -1.7535 -0.9932  1.5353
  172SAPE   C1219362   3.296   5.670   2.927 -0.0214 -0.5025 -0.2628
  172SAPE  H12A19363   3.204   5.694   2.984 -1.3547  0.2180 -2.5799
  172SAPE  H12B19364   3.274   5.638   2.823 -1.3640  0.6169 -0.3621
  172SAPE   C1119365   3.395   5.791   2.916  0.2854  0.0217 -0.3985
  172SAPE  H11A19366   3.468   5.750   2.844 -1.0982 -0.5572 -1.5088
  172SAPE  H11B19367   3.437   5.826   3.013 -0.3523  0.6313 -0.3320
  172SAPE     P19368   3.350   5.973   2.726 -0.8473  0.6604 -0.3763
  172SAPE   O1319369   3.494   5.942   2.703 -0.1908 -0.0498 -0.5058
  172SAPE   O1419370   3.255   5.925   2.628 -0.0454  1.0973 -0.0301
  172SAPE   O1219371   3.315   5.900   2.865  0.1718  0.5657 -0.2079
  172SAPE   O1119372   3.323   6.124   2.760 -0.2744  0.2052  0.3171
  172SAPE    C119373   3.430   6.201   2.811 -0.3434 -0.3441  1.0306
  172SAPE    HA19374   3.514   6.138   2.845  1.7930  2.4603  1.3642
  172SAPE    HB19375   3.478   6.268   2.735  1.3675  0.2821  2.5762
  172SAPE    C219376   3.379   6.289   2.932 -0.4698  0.7149 -0.2905
  172SAPE    HS19377   3.470   6.332   2.979  1.8779 -1.7967 -2.2563
  172SAPE   O2119378   3.296   6.213   3.026  0.3263  0.2732  0.0043
  172SAPE   C2119379   3.368   6.159   3.121  0.3132  0.2813 -0.3423
  172SAPE   O2219380   3.486   6.177   3.141 -0.3642 -0.4167 -0.2486
  172SAPE   C2219381   3.283   6.063   3.202 -0.9698 -0.2351  0.0541
  172SAPE   H2R19382   3.173   6.074   3.195 -0.9654 -0.5798 -0.6817
  172SAPE   H2S19383   3.304   5.962   3.160  1.1043 -1.0347  2.7337
  172SAPE    C319384   3.301   6.413   2.886  0.0093  0.2416  0.5230
  172SAPE    HX19385   3.228   6.375   2.811  2.4491 -0.2791 -1.7245
  172SAPE    HY19386   3.373   6.479   2.833 -0.5690  0.0332 -0.5475
  172SAPE   O3119387   3.252   6.487   2.997 -0.0856 -0.4384  0.1434
  172SAPE   C3119388   3.125   6.479   3.021 -0.1997 -0.4826  0.5754
  172SAPE   O3219389   3.046   6.411   2.957  0.0694 -0.4275 -0.0381
  172SAPE   C3219390   3.088   6.564   3.143  0.7462 -0.0222  0.3013
  172SAPE   H2X19391   3.043   6.663   3.117 -0.4419 -0.6089  0.0574
  172SAPE   H2Y19392   3.181   6.589   3.199  1.9381 -0.8745 -1.2120
  172SAPE   C2319393   3.320   6.045   3.355 -0.0485  0.7093  0.8092
  172SAPE   H3R19394   3.425   6.014   3.375 -0.1862 -0.7221 -0.5585
  172SAPE   H3S19395   3.260   5.957   3.389 -0.5588  0.4045 -0.8188
  172SAPE   C2419396   3.288   6.171   3.439 -0.4063  0.3169  0.0285
  172SAPE   H4R19397   3.179   6.191   3.435 -0.0712  2.7630  1.5256
  172SAPE   H4S19398   3.336   6.261   3.395  0.1156 -0.2065 -0.4928
  172SAPE   C2519399   3.324   6.150   3.584 -0.4090  0.2674  0.2426
  172SAPE   H5R19400   3.432   6.166   3.595 -0.1956 -1.9977  2.2325
  172SAPE   C2619401   3.264   6.097   3.696  0.6400  0.2708  0.6859
  172SAPE   H6R19402   3.318   6.101   3.792  1.3420  2.6099  0.2507
  172SAPE   C2719403   3.124   6.055   3.685  0.3676  0.1955 -0.7084
  172SAPE   H7R19404   3.077   6.094   3.593 -0.2045 -2.2093 -1.5288
  172SAPE   H7S19405   3.078   6.092   3.780  0.1461 -1.2677 -0.2130
  172SAPE   C2819406   3.096   5.905   3.693  0.5299 -0.8910  1.1036
  172SAPE   H8R19407   3.069   5.860   3.597  0.2971  1.0718  0.2040
  172SAPE   C2919408   3.101   5.822   3.802  0.1818 -1.0139 -0.0090
  172SAPE   H9R19409   3.087   5.715   3.780  0.1330 -0.9752 -0.1684
  172SAPE  C21019410   3.151   5.853   3.937 -0.2386  0.0101 -0.6520
  172SAPE  H10R19411   3.243   5.914   3.926  1.3706 -2.3043 -0.9207
  172SAPE  H10S19412   3.190   5.763   3.989  1.9597  1.1128 -0.2907
  172SAPE  C21119413   3.061   5.938   4.032 -0.2432 -0.3871  0.5186
  172SAPE  H11R19414   2.997   6.013   3.982  0.8797 -0.0153 -0.4102
  172SAPE  C21219415   3.078   5.941   4.162 -0.6079 -0.1594 -0.2358
  172SAPE  H12R19416   3.013   6.009   4.219 -0.6500 -0.4465  0.0643
  172SAPE  C21319417   3.163   5.839   4.239 -0.0971  0.1952 -0.3771
  172SAPE  H13R19418   3.267   5.826   4.202 -0.0615  1.4093 -0.7722
  172SAPE  H13S19419   3.119   5.741   4.211 -0.5975  0.8591 -2.0131
  172SAPE  C21419420   3.155   5.857   4.386 -0.5518 -1.1080  0.2150
  172SAPE  H14R19421   3.052   5.881   4.419 -0.2398 -0.7760  0.9632
  172SAPE  C21519422   3.263   5.867   4.471  0.0612 -0.1912 -0.4160
  172SAPE  H15R19423   3.253   5.889   4.578 -0.6796  0.0330 -0.5299
  172SAPE  C21619424   3.401   5.874   4.415 -0.0218 -0.1688  0.4073
  172SAPE  H16R19425   3.414   5.975   4.368 -1.1020 -0.6889 -1.0862
  172SAPE  H16S19426   3.420   5.799   4.336 -0.4687  1.3701 -1.2492
  172SAPE  C21719427   3.510   5.843   4.522  0.2652  0.1227 -0.7372
  172SAPE  H17R19428   3.606   5.826   4.470 -0.6686  0.1058 -2.5368
  172SAPE  H17S19429   3.486   5.741   4.559  2.1273  0.6038  2.0684
  172SAPE  C21819430   3.512   5.939   4.642 -0.2140  0.4024  0.8048
  172SAPE  H18R19431   3.426   5.923   4.710  0.8791 -1.6602  1.8043
  172SAPE  H18S19432   3.506   6.041   4.599  0.4412 -1.2674 -3.9368
  172SAPE  C21919433   3.634   5.909   4.734  0.8921  0.0494  0.2331
  172SAPE  H19R19434   3.732   5.907   4.681  1.7829 -0.0920  1.8390
  172SAPE  H19S19435   3.616   5.809   4.778  1.6580  0.3143  1.1905
  172SAPE  C22019436   3.638   6.014   4.847 -0.2987 -0.1591  0.0762
  172SAPE  H20R19437   3.720   5.993   4.919  1.5603  0.0870 -1.8710
  172SAPE  H20S19438   3.539   6.020   4.897 -0.4831 -0.7742 -0.1996
  172SAPE  H20T19439   3.653   6.111   4.795  0.7048 -1.0689 -1.4148
  172SAPE   C3319440   2.986   6.492   3.236  0.0493  0.1643  0.5134
  172SAPE   H3X19441   2.888   6.502   3.185  1.3139  2.0955 -1.7273
  172SAPE   H3Y19442   2.979   6.565   3.319 -2.5119  0.5561  0.0470
  172SAPE   C3419443   3.025   6.358   3.285 -0.2942  0.4030  0.7721
  172SAPE   H4X19444   3.126   6.358   3.331  0.6761 -1.3605 -1.1694
  172SAPE   H4Y19445   3.020   6.280   3.205  2.0328  0.0493  0.9199
  172SAPE   C3519446   2.928   6.311   3.397 -0.6246  0.0884 -0.4017
  172SAPE   H5X19447   2.959   6.205   3.410  1.5632  0.2907 -2.9976
  172SAPE   H5Y19448   2.821   6.320   3.369 -0.8173  0.7841  0.5011
  172SAPE   C3619449   2.943   6.386   3.526 -0.4082 -0.1392 -0.0580
  172SAPE   H6X19450   2.908   6.491   3.514 -0.3194 -0.1870 -0.8208
  172SAPE   H6Y19451   3.047   6.376   3.564 -0.5311 -3.3823 -0.2915
  172SAPE   C3719452   2.872   6.324   3.642 -0.1130  0.0751 -0.6049
  172SAPE   H7X19453   2.905   6.219   3.654  1.2491  0.4972 -0.5368
  172SAPE   H7Y19454   2.764   6.320   3.614  0.1109 -0.2088 -1.4569
  172SAPE   C3819455   2.874   6.392   3.778  0.4347  0.3007 -0.4533
  172SAPE   H8X19456   2.797   6.348   3.846  1.3444  1.2784  1.2728
  172SAPE   H8Y19457   2.844   6.498   3.761 -0.1296  0.1412 -0.4910
  172SAPE   C3919458   3.010   6.387   3.854  0.2968 -0.0389 -0.4450
  172SAPE   H9X19459   3.086   6.435   3.789  0.3914  0.2997 -0.0867
  172SAPE   H9Y19460   3.026   6.280   3.879 -0.7127  0.6858  4.2907
  172SAPE  C31019461   3.012   6.468   3.979  0.3417  0.3548  0.2200
  172SAPE  H10X19462   2.937   6.420   4.044  0.4762 -0.9975 -0.5885
  172SAPE  H10Y19463   2.977   6.572   3.962 -0.5394  0.0769  0.3140
  172SAPE  C31119464   3.146   6.464   4.051 -0.1981  0.7729  0.7899
  172SAPE  H11X19465   3.224   6.507   3.985  0.0306 -0.9422 -0.1129
  172SAPE  H11Y19466   3.175   6.358   4.068 -0.6327  0.2142 -1.5912
  172SAPE  C31219467   3.151   6.534   4.188  0.2974 -0.0622  0.0397
  172SAPE  H12X19468   3.122   6.641   4.178  0.9273  0.1724  0.7009
  172SAPE  H12Y19469   3.253   6.530   4.230  2.0137  0.8930 -3.6653
  172SAPE  C31319470   3.060   6.479   4.305 -0.0670 -0.2355  0.8744
  172SAPE  H13X19471   2.965   6.459   4.250  1.4742 -2.1359 -1.2478
  172SAPE  H13Y19472   3.057   6.562   4.378 -2.2316  1.3675 -0.8869
  172SAPE  C31419473   3.099   6.348   4.367  0.5480  0.3132 -0.1208
  172SAPE  H14X19474   3.209   6.332   4.362  0.2328 -2.1196 -0.7505
  172SAPE  H14Y19475   3.064   6.260   4.307  0.4032 -0.3595  0.9255
  172SAPE  C31519476   3.058   6.331   4.515  0.3231 -0.6721  0.3531
  172SAPE  H15X19477   2.967   6.392   4.537  1.1650  1.5619 -1.8518
  172SAPE  H15Y19478   3.139   6.380   4.573  0.4043  1.4485 -1.4304
  172SAPE  C31619479   3.036   6.182   4.561 -0.1660 -0.0241  0.0407
  172SAPE  H16X19480   3.140   6.143   4.562  0.0539  0.5530  1.3061
  172SAPE  H16Y19481   2.971   6.128   4.488 -0.3554 -0.7522  0.7308
  172SAPE  C31719482   2.979   6.180   4.703 -0.9892  0.5683 -0.5857
  172SAPE  H17X19483   2.958   6.076   4.735 -1.7310  0.5838 -0.9929
  172SAPE  H17Y19484   2.886   6.240   4.697 -0.7670  0.8639 -1.1579
  172SAPE  C31819485   3.061   6.249   4.816  1.0680  0.5236 -0.2400
  172SAPE  H18X19486   2.992   6.284   4.895 -3.2201 -3.1646 -1.9282
  172SAPE  H18Y19487   3.106   6.341   4.772 -1.3919  2.5382  1.2163
  172SAPE  H18Z19488   3.135   6.177   4.856  1.9919  1.8031  0.4309
  173SLPC     N19489   5.097   2.780   7.426  0.5768 -0.6723 -0.1379
  173SLPC   C1319490   5.051   2.672   7.331  0.0057  0.2169  0.3310
  173SLPC  H13A19491   5.116   2.585   7.333 -2.1457 -1.4985 -0.3802
  173SLPC  H13B19492   4.956   2.636   7.366 -1.2093  1.4839 -1.4957
  173SLPC  H13C19493   5.047   2.703   7.228  2.1038  1.2642  0.5103
  173SLPC   C1419494   5.072   2.738   7.566  0.6703  0.0718  0.5928
  173SLPC  H14A19495   5.101   2.806   7.644  0.8859  0.3681  0.2588
  173SLPC  H14B19496   4.965   2.739   7.583  0.4090 -1.9449 -0.6077
  173SLPC  H14C19497   5.098   2.636   7.589 -0.9074 -1.0778 -2.1021
  173SLPC   C1519498   5.031   2.906   7.395  0.3986 -0.6130 -0.0338
  173SLPC  H15A19499   5.088   2.985   7.441  1.1383  0.5388 -2.7528
  173SLPC  H15B19500   5.029   2.935   7.291 -2.4802 -0.0637  0.0840
  173SLPC  H15C19501   4.930   2.910   7.434  0.4490 -1.7533  0.2747
  173SLPC   C1219502   5.250   2.797   7.399  0.1485  0.6251  0.4255
  173SLPC  H12A19503   5.263   2.795   7.292  0.0362  1.4789  0.3931
  173SLPC  H12B19504   5.301   2.710   7.438 -1.5662  0.1297  1.6818
  173SLPC   C1119505   5.319   2.919   7.462 -0.5413 -0.1182  0.2819
  173SLPC  H11A19506   5.429   2.901   7.464  0.1441  3.3713 -0.6470
  173SLPC  H11B19507   5.297   2.914   7.571 -2.0639 -0.5028 -0.0203
  173SLPC     P19508   5.342   3.076   7.268  0.0155 -0.0944 -0.0588
  173SLPC   O1319509   5.288   3.206   7.241 -0.1259 -0.5589 -0.4635
  173SLPC   O1419510   5.488   3.066   7.270 -0.6782 -0.3673 -0.1648
  173SLPC   O1219511   5.277   3.044   7.414 -0.0096  0.2226 -0.1884
  173SLPC   O1119512   5.288   2.969   7.165 -0.1688  0.1711 -0.3007
  173SLPC    C119513   5.321   2.992   7.028 -0.0810 -0.4791 -0.3930
  173SLPC    HA19514   5.308   3.100   7.005 -1.1182 -0.4841  0.1008
  173SLPC    HB19515   5.426   2.959   7.011  0.9128  1.2877  1.7816
  173SLPC    C219516   5.234   2.907   6.931  0.7475  0.1479  0.2902
  173SLPC    HS19517   5.305   2.890   6.848  0.2460 -2.2478  0.2746
  173SLPC   O2119518   5.127   2.996   6.891 -0.5220  0.4971  0.1084
  173SLPC   C2119519   5.095   2.975   6.764 -0.1452 -0.3479 -0.6951
  173SLPC   O2219520   5.151   2.900   6.687  0.8706  0.4880  0.5727
  173SLPC   C2219521   4.974   3.063   6.737 -0.0853 -0.1174  0.2417
  173SLPC   H2R19522   4.885   3.022   6.789 -0.0161 -1.2513 -0.4998
  173SLPC   H2S19523   5.008   3.159   6.781 -0.1713 -0.1623  0.4057
  173SLPC    C319524   5.184   2.774   6.992 -0.5942  0.3240  0.1894
  173SLPC    HX19525   5.096   2.807   7.053 -0.7119  0.0437  0.1700
  173SLPC    HY19526   5.254   2.745   7.073 -2.8261  3.4214  3.5890
  173SLPC   O3119527   5.159   2.676   6.892  0.4127 -0.2053 -0.9728
  173SLPC   C3119528   5.254   2.625   6.830  0.8020 -0.4318 -0.0977
  173SLPC   O3219529   5.373   2.652   6.858 -0.3190 -0.4834 -0.4077
  173SLPC   C3219530   5.195   2.539   6.724  0.5677 -0.2617 -0.3474
  173SLPC   H2X19531   5.161   2.596   6.635  2.2907  0.1352 -0.7857
  173SLPC   H2Y19532   5.103   2.490   6.763  0.0691  0.3267 -0.7763
  173SLPC   C2319533   4.950   3.101   6.582 -0.2327  0.5026 -0.3331
  173SLPC   H3R19534   4.959   3.004   6.529  2.0537  0.6784 -0.3717
  173SLPC   H3S19535   5.026   3.171   6.543  0.2037  0.0869 -0.2323
  173SLPC   C2419536   4.817   3.167   6.553 -0.5543 -0.8454  0.3939
  173SLPC   H4R19537   4.792   3.212   6.652  0.4949  0.3962  0.1245
  173SLPC   H4S19538   4.741   3.090   6.529 -0.8606 -0.0269 -1.4629
  173SLPC   C2519539   4.823   3.286   6.447  0.7352 -0.8110 -0.0012
  173SLPC   H5R19540   4.881   3.368   6.495 -0.7570  1.2857 -1.5783
  173SLPC   H5S19541   4.718   3.320   6.435  1.5205  1.2681 -1.6705
  173SLPC   C2619542   4.885   3.258   6.316  0.0912  0.4382  0.8903
  173SLPC   H6R19543   4.985   3.211   6.333 -0.1454 -0.2674  0.3908
  173SLPC   H6S19544   4.893   3.350   6.255 -1.6880 -0.3841 -0.6680
  173SLPC   C2719545   4.814   3.150   6.226  0.7596 -0.7716 -1.4360
  173SLPC   H7R19546   4.708   3.179   6.213  0.5105 -1.4836 -1.0333
  173SLPC   H7S19547   4.810   3.054   6.281 -1.5306 -1.0229 -1.9611
  173SLPC   C2819548   4.886   3.138   6.091  0.5493  0.5700 -0.7820
  173SLPC   H8R19549   4.990   3.121   6.127 -0.4659 -1.7346  1.4004
  173SLPC   H8S19550   4.869   3.234   6.038  1.1632  1.2712  0.2500
  173SLPC   C2919551   4.842   3.019   6.013  0.1227  0.1372 -0.0376
  173SLPC   H9R19552   4.792   2.939   6.070 -0.0362  0.9796  1.0226
  173SLPC  C21019553   4.852   3.013   5.881 -0.0034 -0.2230  0.0335
  173SLPC  H10R19554   4.806   2.921   5.841  0.1233  0.0622 -0.7763
  173SLPC  C21119555   4.923   3.099   5.776  0.5782 -0.0240 -0.3142
  173SLPC  H11R19556   5.002   3.037   5.730  0.5156 -1.0729  0.9366
  173SLPC  H11S19557   4.978   3.184   5.822  1.1987 -0.2942 -0.5494
  173SLPC  C21219558   4.827   3.144   5.661 -0.1875 -0.0243 -0.8215
  173SLPC  H12R19559   4.731   3.180   5.702 -0.8337 -2.4473 -0.0256
  173SLPC  C21319560   4.835   3.112   5.529  0.0704  0.7904  0.1270
  173SLPC  H13R19561   4.758   3.163   5.469 -2.6799 -0.8664  2.0525
  173SLPC  C21419562   4.948   3.036   5.458 -0.3599 -0.5425 -0.5815
  173SLPC  H14R19563   5.048   3.061   5.498 -0.4862  0.2476 -0.7346
  173SLPC  H14S19564   4.947   3.058   5.349  0.8055 -2.2914 -0.9820
  173SLPC  C21519565   4.933   2.878   5.476 -0.2889 -0.3136  0.2051
  173SLPC  H15R19566   4.829   2.847   5.454 -1.5206  1.5961  2.7473
  173SLPC  H15S19567   4.949   2.860   5.585  1.8661  4.4583  0.9195
  173SLPC  C21619568   5.030   2.795   5.400  0.3090  0.8389  0.4481
  173SLPC  H16R19569   5.034   2.688   5.430 -1.6697  1.2846  2.5160
  173SLPC  H16S19570   5.126   2.845   5.427  0.5871  1.0381 -0.8168
  173SLPC  C21719571   5.012   2.799   5.246 -0.2276  0.0176 -0.5864
  173SLPC  H17R19572   5.034   2.905   5.219  1.0514 -0.1149 -0.1649
  173SLPC  H17S19573   4.906   2.782   5.218 -0.6471  1.7071 -0.1493
  173SLPC  C21819574   5.092   2.699   5.161  0.2190 -0.3950 -0.7171
  173SLPC  H18R19575   5.074   2.708   5.052 -1.1952 -4.1709 -0.9441
  173SLPC  H18S19576   5.073   2.595   5.194  1.1535 -0.6294 -0.8896
  173SLPC  H18T19577   5.201   2.710   5.180 -0.1279  0.2458  1.0562
  173SLPC   C3319578   5.296   2.430   6.679  0.3605  0.2824 -0.0332
  173SLPC   H3X19579   5.317   2.350   6.754  0.3945 -1.2280 -1.5746
  173SLPC   H3Y19580   5.392   2.478   6.651  0.1863  0.0350 -1.0910
  173SLPC   C3419581   5.256   2.376   6.546 -0.0587 -1.0637 -0.6225
  173SLPC   H4X19582   5.260   2.457   6.471  1.1633  0.9104  1.4572
  173SLPC   H4Y19583   5.151   2.339   6.537 -1.0636  1.6151 -0.9573
  173SLPC   C3519584   5.344   2.263   6.508 -0.6618 -0.4325  0.4738
  173SLPC   H5X19585   5.296   2.191   6.439 -0.1999 -0.4567  0.1696
  173SLPC   H5Y19586   5.363   2.198   6.596 -1.5414 -2.1313 -0.5483
  173SLPC   C3619587   5.480   2.299   6.443 -0.0930  0.1629 -0.3061
  173SLPC   H6X19588   5.542   2.207   6.451  0.1880  0.3775  0.0402
  173SLPC   H6Y19589   5.520   2.380   6.508  2.0838  0.3536 -1.7739
  173SLPC   C3719590   5.482   2.343   6.297 -0.3527 -0.2182 -0.3934
  173SLPC   H7X19591   5.435   2.443   6.287  0.4672  0.1827 -0.2848
  173SLPC   H7Y19592   5.423   2.268   6.239 -1.8725  1.6594 -1.4065
  173SLPC   C3819593   5.619   2.350   6.234 -0.5357 -0.0721  0.1699
  173SLPC   H8X19594   5.679   2.268   6.278  2.1301  1.8903  0.4314
  173SLPC   H8Y19595   5.659   2.446   6.272 -1.7131  0.0920  1.0559
  173SLPC   C3919596   5.631   2.359   6.083  0.4319 -0.3364  0.0398
  173SLPC   H9X19597   5.591   2.268   6.034  0.6734  1.1032 -3.1253
  173SLPC   H9Y19598   5.738   2.369   6.052 -0.5486 -0.9595 -4.2080
  173SLPC  C31019599   5.553   2.477   6.023 -0.2330  0.2405  0.2144
  173SLPC  H10X19600   5.601   2.568   6.065  2.3248 -0.9125 -0.0670
  173SLPC  H10Y19601   5.448   2.489   6.057 -1.4857  1.8407 -3.6485
  173SLPC  C31119602   5.545   2.503   5.871  0.0040 -0.5607  0.4999
  173SLPC  H11X19603   5.506   2.412   5.821 -0.5859  0.5837 -1.2121
  173SLPC  H11Y19604   5.644   2.525   5.824 -0.0960 -3.5266 -1.3479
  173SLPC  C31219605   5.455   2.624   5.849  1.1635  0.0101 -0.7055
  173SLPC  H12X19606   5.502   2.721   5.875 -3.0169  2.2357 -0.6494
  173SLPC  H12Y19607   5.367   2.627   5.917 -0.3053  1.4983 -2.5846
  173SLPC  C31319608   5.402   2.631   5.711  0.6066  0.2282 -0.4787
  173SLPC  H13X19609   5.323   2.710   5.714  0.9465  0.5390  1.5572
  173SLPC  H13Y19610   5.362   2.529   5.693  0.2294  0.2823  0.0184
  173SLPC  C31419611   5.509   2.674   5.609 -0.3085  0.1467 -0.5885
  173SLPC  H14X19612   5.585   2.593   5.603 -1.7034 -1.1345 -1.5835
  173SLPC  H14Y19613   5.560   2.757   5.662 -1.6125 -0.0466  1.0411
  173SLPC  C31519614   5.463   2.723   5.467 -0.5646 -0.1767  0.3100
  173SLPC  H15X19615   5.377   2.794   5.476 -0.0524  0.3204  1.5086
  173SLPC  H15Y19616   5.420   2.639   5.409  1.2676 -1.9552  1.4196
  173SLPC  C31619617   5.578   2.783   5.380  0.5344  0.4071  0.1890
  173SLPC  H16X19618   5.612   2.870   5.441  1.0866 -0.7095  1.5314
  173SLPC  H16Y19619   5.546   2.818   5.279  1.3907 -1.2501 -0.6853
  173SLPC  C31719620   5.691   2.686   5.358 -0.0460  0.5948  0.2169
  173SLPC  H17X19621   5.750   2.675   5.452 -1.4564  0.3672  1.0985
  173SLPC  H17Y19622   5.769   2.741   5.301  0.4806  0.3040  0.6400
  173SLPC  C31819623   5.654   2.556   5.291  0.1834 -0.4508  0.5015
  173SLPC  H18X19624   5.590   2.483   5.347 -1.5314 -0.6826 -1.6311
  173SLPC  H18Y19625   5.748   2.505   5.262 -0.7945 -1.0343 -1.8313
  173SLPC  H18Z19626   5.592   2.579   5.202  2.6468 -0.3075 -1.2656
  174SLPC     N19627   1.421   2.771   7.825  0.3499 -0.7612  0.6245
  174SLPC   C1319628   1.491   2.882   7.894 -1.2170 -0.3540 -0.2567
  174SLPC  H13A19629   1.594   2.882   7.863 -1.5321 -0.4099 -1.3625
  174SLPC  H13B19630   1.441   2.977   7.882 -0.3878  0.3541  1.5262
  174SLPC  H13C19631   1.490   2.861   8.000 -1.0043 -0.3689 -0.2576
  174SLPC   C1419632   1.274   2.780   7.862  0.1486 -0.1097  0.9813
  174SLPC  H14A19633   1.226   2.867   7.821 -0.5285 -0.5741  0.7602
  174SLPC  H14B19634   1.220   2.693   7.827  3.1953 -1.1008 -1.7300
  174SLPC  H14C19635   1.257   2.797   7.967 -1.1166  1.1421  0.5975
  174SLPC   C1519636   1.487   2.647   7.870  0.6094 -0.9290  0.2875
  174SLPC  H15A19637   1.447   2.620   7.967 -1.3738 -2.3663 -0.8624
  174SLPC  H15B19638   1.465   2.575   7.792  2.2190 -1.2727  0.1057
  174SLPC  H15C19639   1.594   2.645   7.887  0.7263  0.1797 -0.2605
  174SLPC   C1219640   1.445   2.785   7.671  0.4456  0.1870 -0.1459
  174SLPC  H12A19641   1.408   2.701   7.615 -0.5458 -0.4282  1.3803
  174SLPC  H12B19642   1.552   2.782   7.653  0.2908 -1.4482 -0.9115
  174SLPC   C1119643   1.381   2.910   7.606 -0.3883  0.1215  0.2752
  174SLPC  H11A19644   1.421   2.912   7.502  0.6063  0.4380  0.6567
  174SLPC  H11B19645   1.416   3.002   7.657 -1.5342  1.2737 -0.9303
  174SLPC     P19646   1.160   2.800   7.511  0.0858 -0.3034 -0.1680
  174SLPC   O1319647   1.209   2.659   7.526 -0.6339 -0.7519 -0.4798
  174SLPC   O1419648   1.021   2.831   7.546  0.5327  0.6152  0.0875
  174SLPC   O1219649   1.242   2.898   7.597 -0.4535 -0.1839 -0.2645
  174SLPC   O1119650   1.194   2.842   7.366  0.2613 -0.5190  0.2346
  174SLPC    C119651   1.191   2.981   7.325 -0.9694 -0.0152  0.5602
  174SLPC    HA19652   1.216   3.052   7.407 -0.8051  2.0922 -1.2232
  174SLPC    HB19653   1.263   3.004   7.243 -0.9311  1.0309  0.8653
  174SLPC    C219654   1.057   3.018   7.252  0.1394  0.2159 -0.0088
  174SLPC    HS19655   0.969   2.979   7.308 -0.5899 -2.1251 -2.5156
  174SLPC   O2119656   1.062   2.951   7.126  0.3903  0.0878 -0.0264
  174SLPC   C2119657   1.011   2.832   7.111  0.5313 -0.4301  0.0918
  174SLPC   O2219658   0.958   2.760   7.198  0.4533  0.5606  0.4287
  174SLPC   C2219659   1.047   2.798   6.965  0.2505 -0.6233 -0.5968
  174SLPC   H2R19660   0.998   2.875   6.903 -0.0592  0.0299  0.4245
  174SLPC   H2S19661   1.155   2.784   6.944  0.5743  0.5933  0.1196
  174SLPC    C319662   1.034   3.169   7.234 -0.3916  0.1246  0.6342
  174SLPC    HX19663   1.018   3.221   7.331  0.4993  1.4495  0.1061
  174SLPC    HY19664   0.941   3.174   7.174 -0.0492 -0.6541  0.0232
  174SLPC   O3119665   1.146   3.229   7.160 -0.3811  0.3687 -0.3518
  174SLPC   C3119666   1.117   3.339   7.086  0.1343 -0.7691 -0.0457
  174SLPC   O3219667   1.004   3.373   7.061  0.1481 -0.4335 -0.0457
  174SLPC   C3219668   1.243   3.420   7.049 -0.1472  0.5683  0.0038
  174SLPC   H2X19669   1.333   3.363   7.019  0.3617  1.4584 -0.1913
  174SLPC   H2Y19670   1.250   3.474   7.146  0.8926 -1.0369  0.8627
  174SLPC   C2319671   0.977   2.672   6.909 -0.4649  0.0790 -0.2053
  174SLPC   H3R19672   0.869   2.696   6.919 -0.6397 -1.4477  2.5586
  174SLPC   H3S19673   0.994   2.594   6.986  3.4666  1.0767  0.1548
  174SLPC   C2419674   1.029   2.610   6.775 -0.5208  0.4709  0.5289
  174SLPC   H4R19675   0.974   2.517   6.750  0.0435 -0.3360  2.1729
  174SLPC   H4S19676   1.136   2.584   6.790 -1.0224 -0.7907  2.1522
  174SLPC   C2519677   1.028   2.713   6.656 -0.0779  0.4779 -0.5030
  174SLPC   H5R19678   1.116   2.777   6.674 -0.8915  2.1254 -2.0473
  174SLPC   H5S19679   0.938   2.778   6.651 -0.5203 -0.1973 -1.9634
  174SLPC   C2619680   1.050   2.629   6.526  0.4390  1.0332  0.2955
  174SLPC   H6R19681   0.969   2.553   6.525  2.7356 -1.6360  1.7885
  174SLPC   H6S19682   1.144   2.569   6.524 -0.0114  0.3199  0.5065
  174SLPC   C2719683   1.038   2.718   6.397  0.1472  0.7861 -0.3306
  174SLPC   H7R19684   1.143   2.745   6.374  1.0650 -1.4603  0.9268
  174SLPC   H7S19685   0.980   2.810   6.421 -0.3421 -0.2847  3.0191
  174SLPC   C2819686   0.984   2.636   6.283 -0.3036 -0.3292  0.6157
  174SLPC   H8R19687   0.895   2.577   6.311 -0.2799 -0.5950  0.1440
  174SLPC   H8S19688   1.048   2.549   6.258  0.0560  0.1529 -0.1881
  174SLPC   C2919689   0.950   2.740   6.173 -0.2334  0.0489 -0.6497
  174SLPC   H9R19690   0.883   2.822   6.203  1.2197  1.0208  0.0374
  174SLPC  C21019691   0.985   2.735   6.045  0.5274 -0.0257 -0.0707
  174SLPC  H10R19692   0.951   2.807   5.968 -0.6243 -0.7706 -0.2861
  174SLPC  C21119693   1.062   2.622   5.992 -0.1489  0.5665 -0.3550
  174SLPC  H11R19694   1.020   2.524   6.023  0.0562  0.4008 -0.5929
  174SLPC  H11S19695   1.162   2.630   6.039 -0.7399  1.5469  0.7911
  174SLPC  C21219696   1.078   2.622   5.841  0.5339 -0.8708  0.4946
  174SLPC  H12R19697   1.156   2.684   5.794  0.9071 -0.4376  1.6485
  174SLPC  C21319698   0.977   2.592   5.756  0.5367  0.1415 -0.4395
  174SLPC  H13R19699   0.991   2.597   5.647 -0.5734 -0.1068 -0.6109
  174SLPC  C21419700   0.863   2.506   5.795 -0.1321 -0.4849 -0.2115
  174SLPC  H14R19701   0.770   2.528   5.739 -1.0418 -0.5874  1.2102
  174SLPC  H14S19702   0.850   2.500   5.905 -0.4893 -4.3832 -0.3454
  174SLPC  C21519703   0.909   2.363   5.762  0.1247  0.4635 -0.0309
  174SLPC  H15R19704   1.006   2.349   5.814  0.1839  1.6657  0.2054
  174SLPC  H15S19705   0.922   2.346   5.653 -1.4316  0.0576 -0.1745
  174SLPC  C21619706   0.821   2.249   5.808 -0.2490 -0.0068 -0.0133
  174SLPC  H16R19707   0.775   2.271   5.906 -0.1506  0.1662 -0.0047
  174SLPC  H16S19708   0.893   2.164   5.815 -0.1495  0.0943  0.2207
  174SLPC  C21719709   0.714   2.216   5.705  0.1898  0.0212  0.1583
  174SLPC  H17R19710   0.759   2.178   5.611 -0.8180  0.0376 -0.3447
  174SLPC  H17S19711   0.655   2.306   5.677  1.0058  0.0877 -1.4687
  174SLPC  C21819712   0.609   2.113   5.743  0.3301 -0.1463  0.2808
  174SLPC  H18R19713   0.642   2.007   5.740  0.0805 -0.2024 -1.0959
  174SLPC  H18S19714   0.517   2.135   5.686  0.0418 -0.5548  0.5777
  174SLPC  H18T19715   0.569   2.125   5.846  0.7607  0.9835  0.3272
  174SLPC   C3319716   1.204   3.516   6.940 -0.1657  0.5350  0.1396
  174SLPC   H3X19717   1.283   3.592   6.919  1.0949 -0.7680  0.0103
  174SLPC   H3Y19718   1.123   3.583   6.978  1.0944  1.0327  2.1185
  174SLPC   C3419719   1.189   3.443   6.811 -0.0946 -0.1953 -0.1597
  174SLPC   H4X19720   1.096   3.384   6.820 -0.4507  0.2199 -1.0421
  174SLPC   H4Y19721   1.285   3.396   6.780  0.5958  2.2371 -2.0413
  174SLPC   C3519722   1.169   3.545   6.699 -0.4893 -0.4433  0.3309
  174SLPC   H5X19723   1.269   3.592   6.706 -0.4861 -0.3864 -0.0546
  174SLPC   H5Y19724   1.087   3.618   6.718 -0.3967  0.5233 -2.4466
  174SLPC   C3619725   1.136   3.485   6.567  0.8727  0.7345 -0.7606
  174SLPC   H6X19726   1.030   3.455   6.558  1.8497 -2.6903 -2.5923
  174SLPC   H6Y19727   1.200   3.401   6.534 -2.0099 -0.6984 -3.1034
  174SLPC   C3719728   1.174   3.590   6.453  0.4520  0.4435  0.5771
  174SLPC   H7X19729   1.281   3.611   6.473  0.9256 -1.8820  0.7516
  174SLPC   H7Y19730   1.119   3.686   6.467 -1.0765 -0.5678  1.9665
  174SLPC   C3819731   1.145   3.534   6.315 -0.3447 -0.2462  0.1133
  174SLPC   H8X19732   1.047   3.483   6.307 -1.0069  0.7828  1.2972
  174SLPC   H8Y19733   1.225   3.468   6.275  0.7819  0.1512  1.6003
  174SLPC   C3919734   1.131   3.657   6.220 -0.0583 -0.1843  0.2830
  174SLPC   H9X19735   1.233   3.700   6.219 -0.2413  0.4260 -2.7551
  174SLPC   H9Y19736   1.053   3.725   6.260  0.2196  0.7190 -0.6596
  174SLPC  C31019737   1.088   3.620   6.076 -0.5648 -0.6217  0.5202
  174SLPC  H10X19738   1.070   3.707   6.009 -0.8196 -0.3318  0.9526
  174SLPC  H10Y19739   0.991   3.566   6.079 -1.0161  0.1461  0.2221
  174SLPC  C31119740   1.210   3.551   6.024 -0.4769  0.9891  0.2790
  174SLPC  H11X19741   1.219   3.455   6.078 -1.1313  0.5671 -0.3402
  174SLPC  H11Y19742   1.300   3.613   6.037 -0.2745  1.1457 -1.5252
  174SLPC  C31219743   1.225   3.532   5.867  0.3310 -0.1582 -0.5121
  174SLPC  H12X19744   1.146   3.456   5.850 -1.6527  1.4307  1.0768
  174SLPC  H12Y19745   1.320   3.475   5.853 -0.3350 -1.1178 -1.2077
  174SLPC  C31319746   1.201   3.657   5.777 -0.4148  0.5134  0.8569
  174SLPC  H13X19747   1.278   3.731   5.808 -0.6690  0.6767  1.1049
  174SLPC  H13Y19748   1.111   3.713   5.809 -0.5590  0.7108  0.1222
  174SLPC  C31419749   1.208   3.607   5.634  0.1820 -0.3724  0.8208
  174SLPC  H14X19750   1.131   3.528   5.618 -2.5368  2.4469 -1.3873
  174SLPC  H14Y19751   1.302   3.553   5.615  0.4573 -0.5624  2.5910
  174SLPC  C31519752   1.177   3.725   5.531 -0.5153  0.7293 -0.3375
  174SLPC  H15X19753   1.261   3.797   5.539 -0.4592  0.5463  0.8862
  174SLPC  H15Y19754   1.089   3.778   5.573 -0.2539  0.0752  1.0910
  174SLPC  C31619755   1.149   3.677   5.383  0.3555 -0.3422  0.3698
  174SLPC  H16X19756   1.096   3.759   5.329 -1.9781  1.0002  4.2717
  174SLPC  H16Y19757   1.084   3.587   5.375  0.1084 -0.1453  0.1384
  174SLPC  C31719758   1.283   3.658   5.318  0.2147 -0.0117  0.8907
  174SLPC  H17X19759   1.344   3.604   5.392  1.6676  0.3271 -0.0136
  174SLPC  H17Y19760   1.341   3.752   5.304 -0.9665  0.5255 -0.6257
  174SLPC  C31819761   1.262   3.593   5.170 -0.2896  0.5291  0.2655
  174SLPC  H18X19762   1.201   3.660   5.106 -1.6616 -0.7390  0.2112
  174SLPC  H18Y19763   1.207   3.498   5.180 -0.2191  0.6567  2.1174
  174SLPC  H18Z19764   1.364   3.567   5.133  0.1568  0.0922  1.7276
  175SLPC     N19765   4.084   3.515   7.473 -0.2053  0.9873  0.0091
  175SLPC   C1319766   3.943   3.550   7.442  0.8758  0.3523  0.3356
  175SLPC  H13A19767   3.872   3.469   7.449 -0.0706  1.2695  2.3242
  175SLPC  H13B19768   3.906   3.621   7.515 -2.0863  0.3840 -1.0346
  175SLPC  H13C19769   3.930   3.595   7.344 -1.5196 -1.9506 -0.5124
  175SLPC   C1419770   4.072   3.489   7.623 -0.0264 -0.6899  0.3255
  175SLPC  H14A19771   3.989   3.424   7.644  0.4492 -1.8732 -1.3091
  175SLPC  H14B19772   4.162   3.443   7.662 -0.0297  0.5476  1.9183
  175SLPC  H14C19773   4.058   3.580   7.680  0.8809  0.0670 -0.6041
  175SLPC   C1519774   4.178   3.622   7.460 -0.6455 -0.6132  0.7930
  175SLPC  H15A19775   4.159   3.693   7.539  1.8072  0.2124  0.7094
  175SLPC  H15B19776   4.278   3.583   7.470 -0.5297 -0.5923 -0.1840
  175SLPC  H15C19777   4.179   3.676   7.366 -0.1596 -0.6450  0.7764
  175SLPC   C1219778   4.137   3.393   7.399  0.0155  0.2802  0.2036
  175SLPC  H12A19779   4.088   3.310   7.448  1.0719  1.3625  3.3041
  175SLPC  H12B19780   4.237   3.384   7.438  0.2466 -0.4872 -0.5484
  175SLPC   C1119781   4.133   3.380   7.247 -0.4138  0.0590  0.2470
  175SLPC  H11A19782   4.191   3.290   7.217 -3.0414 -1.2415 -1.3840
  175SLPC  H11B19783   4.176   3.467   7.193 -0.9800  0.3656  0.2874
  175SLPC     P19784   3.917   3.242   7.209  0.4391 -0.0756  0.0974
  175SLPC   O1319785   3.993   3.131   7.268 -0.0758  0.3011  0.1802
  175SLPC   O1419786   3.791   3.282   7.282  0.1302 -0.4914 -0.0888
  175SLPC   O1219787   3.999   3.372   7.203 -0.3299  0.3409 -0.5783
  175SLPC   O1119788   3.893   3.212   7.055 -0.3763  0.9379 -0.3130
  175SLPC    C119789   4.002   3.223   6.968 -0.1334 -0.2419  0.4585
  175SLPC    HA19790   4.103   3.217   7.014 -0.2723  0.8443  0.9259
  175SLPC    HB19791   3.996   3.139   6.896  0.9487 -0.5007  0.6555
  175SLPC    C219792   3.991   3.343   6.877 -0.0936  0.2221  0.0548
  175SLPC    HS19793   4.011   3.434   6.938  0.8298 -0.9445  1.5819
  175SLPC   O2119794   3.871   3.344   6.806 -0.1002 -0.0973  0.0568
  175SLPC   C2119795   3.783   3.419   6.861  0.0283 -0.8755  0.0807
  175SLPC   O2219796   3.797   3.484   6.967  0.4084 -0.1993  0.7264
  175SLPC   C2219797   3.653   3.430   6.776 -0.1528  0.8060  0.1288
  175SLPC   H2R19798   3.651   3.344   6.706 -1.3085 -1.7181  3.0319
  175SLPC   H2S19799   3.565   3.411   6.841 -0.2045  0.4323 -0.0456
  175SLPC    C319800   4.100   3.344   6.763  0.3591 -1.1031 -0.0650
  175SLPC    HX19801   4.190   3.350   6.828 -1.7166  1.1739  2.8772
  175SLPC    HY19802   4.078   3.439   6.709  0.0915 -1.4099 -0.4951
  175SLPC   O3119803   4.097   3.231   6.679  0.2351 -0.0087  0.5844
  175SLPC   C3119804   4.214   3.224   6.606  0.4870 -0.1419 -0.1062
  175SLPC   O3219805   4.289   3.321   6.607  0.5507 -0.6153  0.0263
  175SLPC   C3219806   4.240   3.086   6.555  0.1107  0.0751  0.8987
  175SLPC   H2X19807   4.179   3.056   6.468  0.4103  1.0468  0.3413
  175SLPC   H2Y19808   4.202   3.020   6.636 -2.1449  1.5057  1.0811
  175SLPC   C2319809   3.623   3.571   6.701  0.4796  0.3246 -0.5823
  175SLPC   H3R19810   3.699   3.643   6.740 -0.1527  1.1884 -0.9069
  175SLPC   H3S19811   3.525   3.591   6.749  0.6946 -0.8006  0.3563
  175SLPC   C2419812   3.625   3.562   6.553 -1.6440 -0.3482  0.3529
  175SLPC   H4R19813   3.728   3.533   6.522 -1.6121  0.4771 -0.3456
  175SLPC   H4S19814   3.628   3.663   6.507  0.6184 -0.1667  0.7862
  175SLPC   C2519815   3.525   3.470   6.494  0.3939  0.4468 -0.0164
  175SLPC   H5R19816   3.427   3.522   6.484 -0.7511 -1.6367 -0.1398
  175SLPC   H5S19817   3.503   3.375   6.547 -1.6311  0.6181 -0.4662
  175SLPC   C2619818   3.570   3.418   6.350  0.1846  0.1519  0.3389
  175SLPC   H6R19819   3.512   3.327   6.327 -0.6404  1.1965 -2.0674
  175SLPC   H6S19820   3.676   3.386   6.353  0.6369  1.6578  2.4322
  175SLPC   C2719821   3.553   3.525   6.236 -0.3058 -1.1135  1.1983
  175SLPC   H7R19822   3.609   3.617   6.262  0.2659 -1.1570  0.1566
  175SLPC   H7S19823   3.445   3.554   6.231 -0.6508 -2.4801 -0.7056
  175SLPC   C2819824   3.575   3.469   6.097  0.3490 -0.6395  0.4171
  175SLPC   H8R19825   3.665   3.404   6.092  0.6218 -0.3240  1.0291
  175SLPC   H8S19826   3.604   3.553   6.029  0.8547 -1.1538 -0.0127
  175SLPC   C2919827   3.463   3.393   6.028 -0.0548  0.2797 -0.2777
  175SLPC   H9R19828   3.439   3.297   6.076 -0.7468  0.0485 -1.0595
  175SLPC  C21019829   3.395   3.443   5.922  0.0295  0.3914 -0.3636
  175SLPC  H10R19830   3.317   3.387   5.869  1.1892 -1.2955 -0.3501
  175SLPC  C21119831   3.434   3.568   5.848 -0.0751 -0.2413  0.6345
  175SLPC  H11R19832   3.528   3.538   5.796 -0.2693 -1.2040  0.8336
  175SLPC  H11S19833   3.458   3.662   5.903 -0.5501  1.5905 -2.1047
  175SLPC  C21219834   3.333   3.631   5.755  0.5673  0.0600  0.3952
  175SLPC  H12R19835   3.228   3.599   5.749  0.0282  0.9990  3.2178
  175SLPC  C21319836   3.374   3.728   5.667 -0.0023 -0.2623  0.0147
  175SLPC  H13R19837   3.302   3.774   5.597 -0.7008 -0.2997  0.7068
  175SLPC  C21419838   3.516   3.793   5.657  0.0236 -0.2147 -0.2502
  175SLPC  H14R19839   3.591   3.711   5.660  0.5656  0.2768 -0.0669
  175SLPC  H14S19840   3.534   3.864   5.741 -1.8434  0.7220 -0.6023
  175SLPC  C21519841   3.520   3.866   5.518 -0.1762 -0.8133 -0.3799
  175SLPC  H15R19842   3.441   3.944   5.527 -1.2291 -1.7189 -1.5703
  175SLPC  H15S19843   3.483   3.800   5.437 -0.1311 -0.2608 -0.8528
  175SLPC  C21619844   3.639   3.946   5.482 -0.2172  0.5265 -0.0608
  175SLPC  H16R19845   3.723   3.915   5.547  0.7195  0.5792 -1.2165
  175SLPC  H16S19846   3.633   4.057   5.490 -0.6683  0.4874  0.1847
  175SLPC  C21719847   3.678   3.921   5.339 -0.1943 -0.3751 -0.2792
  175SLPC  H17R19848   3.590   3.964   5.285 -0.2860  3.2845  2.4191
  175SLPC  H17S19849   3.705   3.815   5.322 -1.6711 -0.7807 -0.2946
  175SLPC  C21819850   3.796   4.008   5.289  0.2214 -0.1958 -0.2454
  175SLPC  H18R19851   3.816   3.981   5.183 -0.7422  1.3319 -0.8537
  175SLPC  H18S19852   3.887   3.977   5.345  0.7168 -2.1001 -1.9721
  175SLPC  H18T19853   3.760   4.113   5.293  0.5593 -0.0710 -0.4170
  175SLPC   C3319854   4.387   3.048   6.516  0.2195  0.2924 -0.5525
  175SLPC   H3X19855   4.393   2.938   6.511 -2.3842 -0.0781  2.2073
  175SLPC   H3Y19856   4.448   3.070   6.606  1.1774 -1.1880 -0.8031
  175SLPC   C3419857   4.436   3.114   6.389 -0.8370  0.0123 -0.0638
  175SLPC   H4X19858   4.544   3.093   6.377 -0.3512  2.3039 -0.2572
  175SLPC   H4Y19859   4.424   3.225   6.382  0.5601  0.3025  1.6432
  175SLPC   C3519860   4.370   3.057   6.266 -0.2059  0.4546  0.2650
  175SLPC   H5X19861   4.260   3.062   6.282 -0.3379  0.1022 -0.5019
  175SLPC   H5Y19862   4.399   2.950   6.265  1.0512  0.7855 -0.6040
  175SLPC   C3619863   4.424   3.114   6.139  0.0847  0.0165  0.1364
  175SLPC   H6X19864   4.531   3.084   6.142 -0.2439 -1.1561  2.4303
  175SLPC   H6Y19865   4.423   3.225   6.142  1.2667  0.0436 -0.0759
  175SLPC   C3719866   4.366   3.052   6.015  0.7172 -1.0484  0.5301
  175SLPC   H7X19867   4.268   3.101   6.000  1.7494  1.1447  0.4441
  175SLPC   H7Y19868   4.360   2.942   6.027  2.0432 -1.0582  1.3585
  175SLPC   C3819869   4.445   3.079   5.889  0.3112  0.8395  0.7709
  175SLPC   H8X19870   4.548   3.045   5.910 -0.5724 -0.7111  2.9785
  175SLPC   H8Y19871   4.441   3.185   5.857 -0.9491  0.5590 -0.0697
  175SLPC   C3919872   4.390   2.988   5.775  0.3574  0.5261 -0.0631
  175SLPC   H9X19873   4.289   3.025   5.746  1.0756  0.9409 -2.2624
  175SLPC   H9Y19874   4.369   2.883   5.806  0.4912  0.6016  0.2797
  175SLPC  C31019875   4.479   2.992   5.638 -0.1579  0.1480 -0.4672
  175SLPC  H10X19876   4.578   2.945   5.652 -1.1759 -1.5966  1.5864
  175SLPC  H10Y19877   4.488   3.093   5.594 -1.8323  0.2292 -0.7190
  175SLPC  C31119878   4.421   2.906   5.523 -0.2152  0.2328 -0.5644
  175SLPC  H11X19879   4.322   2.945   5.492  0.4305  1.3412 -1.2943
  175SLPC  H11Y19880   4.415   2.797   5.544  1.0049 -0.0053 -1.3261
  175SLPC  C31219881   4.514   2.913   5.399 -0.2225 -0.0195  0.1395
  175SLPC  H12X19882   4.619   2.906   5.437 -0.4532  1.2786  1.0910
  175SLPC  H12Y19883   4.504   3.016   5.356  1.3864 -0.1911 -0.7791
  175SLPC  C31319884   4.485   2.805   5.295  0.2413  0.1600  0.3370
  175SLPC  H13X19885   4.381   2.789   5.257  1.6203 -0.4677 -3.6772
  175SLPC  H13Y19886   4.517   2.707   5.334 -1.1715 -0.6996 -0.5527
  175SLPC  C31419887   4.572   2.841   5.171  0.2652 -0.0843  0.4093
  175SLPC  H14X19888   4.680   2.818   5.186  0.3677  1.2325  2.0687
  175SLPC  H14Y19889   4.567   2.949   5.147 -1.0157 -0.6224 -1.9634
  175SLPC  C31519890   4.515   2.756   5.055  0.2909 -0.4310 -0.4981
  175SLPC  H15X19891   4.574   2.774   4.963  0.8039 -1.6020 -0.4144
  175SLPC  H15Y19892   4.412   2.789   5.028  0.3244 -0.1287 -0.2602
  175SLPC  C31619893   4.517   2.602   5.080  0.4125  0.0475  0.2600
  175SLPC  H16X19894   4.471   2.560   4.988  1.4702 -1.7307  0.4919
  175SLPC  H16Y19895   4.446   2.584   5.163  1.1526  0.7347  1.0535
  175SLPC  C31719896   4.651   2.524   5.102  0.4772 -0.5285  0.1146
  175SLPC  H17X19897   4.627   2.416   5.113  2.6728 -1.1607 -0.7828
  175SLPC  H17Y19898   4.693   2.562   5.198 -1.7374 -1.6271  1.6055
  175SLPC  C31819899   4.758   2.551   4.997 -0.7013 -0.9751 -0.1111
  175SLPC  H18X19900   4.771   2.661   5.001  0.0551 -1.0896  1.0128
  175SLPC  H18Y19901   4.724   2.520   4.896 -0.1043  1.8950 -1.2808
  175SLPC  H18Z19902   4.855   2.504   5.023 -0.3555 -0.2691 -0.1114
  176SLPC     N19903   3.165   2.051   7.767 -0.1191 -0.1744  0.4476
  176SLPC   C1319904   3.232   1.931   7.707 -0.4834 -0.1251 -0.4697
  176SLPC  H13A19905   3.293   1.960   7.623  0.8423 -0.3996  0.3820
  176SLPC  H13B19906   3.294   1.886   7.783  0.6305 -0.2164 -1.4079
  176SLPC  H13C19907   3.163   1.860   7.663  0.3152 -0.0405 -1.9353
  176SLPC   C1419908   3.258   2.129   7.848 -0.2088 -0.1178 -0.4970
  176SLPC  H14A19909   3.321   2.064   7.907  3.1897  0.7837 -2.7890
  176SLPC  H14B19910   3.325   2.199   7.801  0.3993 -1.2647 -1.4000
  176SLPC  H14C19911   3.210   2.190   7.923  1.9015  2.0854 -0.7833
  176SLPC   C1519912   3.061   1.983   7.852  0.7031 -0.5314  0.0084
  176SLPC  H15A19913   3.106   1.921   7.929  0.9286  1.4040  1.5124
  176SLPC  H15B19914   2.987   2.046   7.899 -0.0951 -2.1156  0.9631
  176SLPC  H15C19915   2.996   1.946   7.775  0.2823  1.3003 -0.5619
  176SLPC   C1219916   3.100   2.139   7.656  0.0030  0.0130 -0.0621
  176SLPC  H12A19917   3.064   2.229   7.704  1.5046 -0.5539  2.3320
  176SLPC  H12B19918   3.010   2.087   7.627  0.6783 -0.7910 -0.7697
  176SLPC   C1119919   3.170   2.169   7.516 -0.3289  0.3579 -0.0783
  176SLPC  H11A19920   3.100   2.245   7.475 -1.4090  0.6542  2.1817
  176SLPC  H11B19921   3.170   2.079   7.450 -0.5202 -0.7066  1.3135
  176SLPC     P19922   3.326   2.381   7.533  0.3746 -0.0959 -0.1859
  176SLPC   O1319923   3.200   2.453   7.575 -0.3293  0.2588 -0.0057
  176SLPC   O1419924   3.451   2.424   7.602  0.4571 -0.6373 -0.3765
  176SLPC   O1219925   3.301   2.224   7.535  0.1989 -0.8662  0.7368
  176SLPC   O1119926   3.354   2.400   7.380  0.7381  0.8827  0.2368
  176SLPC    C119927   3.256   2.392   7.275  0.2616 -0.8213  0.4765
  176SLPC    HA19928   3.274   2.298   7.218  0.9982 -0.3883 -0.0229
  176SLPC    HB19929   3.149   2.398   7.304  0.1330  2.1455 -0.3508
  176SLPC    C219930   3.278   2.518   7.177 -0.8255  0.4061 -0.0007
  176SLPC    HS19931   3.233   2.598   7.240 -1.0053 -1.3252  2.1874
  176SLPC   O2119932   3.199   2.496   7.052  0.4930 -0.2849 -0.8734
  176SLPC   C2119933   3.179   2.611   6.988 -1.0585 -0.3985 -0.5891
  176SLPC   O2219934   3.206   2.721   7.037  0.0597 -0.1410  0.1173
  176SLPC   C2219935   3.140   2.586   6.842 -0.1823  0.2252  0.0467
  176SLPC   H2R19936   3.180   2.485   6.817  1.4089  0.7389  0.4235
  176SLPC   H2S19937   3.029   2.594   6.848 -0.3968 -0.5295 -2.0881
  176SLPC    C319938   3.430   2.556   7.138  0.2838 -0.4296 -0.3675
  176SLPC    HX19939   3.474   2.573   7.239 -0.5567  1.8297 -0.3405
  176SLPC    HY19940   3.430   2.653   7.084 -0.7679  0.3110  0.9144
  176SLPC   O3119941   3.500   2.441   7.077  0.2691 -0.2298  0.7052
  176SLPC   C3119942   3.490   2.447   6.947  0.1364 -0.3561 -0.5108
  176SLPC   O3219943   3.438   2.537   6.885 -0.1229 -0.6244  0.4682
  176SLPC   C3219944   3.542   2.321   6.875 -0.6469 -0.3090  0.5240
  176SLPC   H2X19945   3.479   2.234   6.907 -1.6727  0.3142  0.2498
  176SLPC   H2Y19946   3.650   2.313   6.900 -0.0727 -2.9313 -2.2437
  176SLPC   C2319947   3.194   2.690   6.741 -0.3378  0.0673  0.2200
  176SLPC   H3R19948   3.300   2.714   6.765 -0.9434  1.2050  1.9399
  176SLPC   H3S19949   3.128   2.779   6.745  1.1951  1.2677  0.0080
  176SLPC   C2419950   3.195   2.626   6.602  0.1893  0.3380  0.4915
  176SLPC   H4R19951   3.253   2.534   6.623  0.5089  0.4332  0.0453
  176SLPC   H4S19952   3.250   2.699   6.539  0.4863 -1.0388 -0.8973
  176SLPC   C2519953   3.056   2.600   6.543 -0.7561 -0.2167  0.7622
  176SLPC   H5R19954   2.979   2.607   6.623 -0.6209  0.6242  0.8211
  176SLPC   H5S19955   3.056   2.497   6.501 -2.0011  0.2559 -0.4601
  176SLPC   C2619956   3.018   2.689   6.422  0.7522  0.7516 -0.7215
  176SLPC   H6R19957   3.038   2.794   6.452  0.5409  0.2235  1.4382
  176SLPC   H6S19958   2.908   2.685   6.406  1.0135  0.5092 -2.7023
  176SLPC   C2719959   3.080   2.653   6.294 -0.8629 -0.3807  0.7499
  176SLPC   H7R19960   3.065   2.545   6.272  0.0064 -0.2682 -0.5324
  176SLPC   H7S19961   3.189   2.665   6.310 -0.7469  1.6310 -1.0966
  176SLPC   C2819962   3.052   2.739   6.167  0.7810  0.2712  0.5770
  176SLPC   H8R19963   3.117   2.724   6.078  0.5884 -2.5880  0.8057
  176SLPC   H8S19964   3.075   2.845   6.188  0.9129  0.6150 -1.1213
  176SLPC   C2919965   2.909   2.711   6.130  1.1683  0.1182 -0.2180
  176SLPC   H9R19966   2.837   2.768   6.189  0.1805 -0.8078 -0.4940
  176SLPC  C21019967   2.859   2.620   6.043 -0.0272 -0.1018 -0.0595
  176SLPC  H10R19968   2.750   2.606   6.034 -0.0588  0.3761 -0.4872
  176SLPC  C21119969   2.930   2.533   5.946  0.4300  0.0672 -0.4096
  176SLPC  H11R19970   2.939   2.431   5.989 -0.8219 -0.5273 -1.5115
  176SLPC  H11S19971   3.033   2.573   5.933  0.9937 -0.6938  1.3927
  176SLPC  C21219972   2.850   2.516   5.825 -0.1635 -0.4526 -0.2520
  176SLPC  H12R19973   2.758   2.459   5.846  0.2563 -0.6528  1.2323
  176SLPC  C21319974   2.878   2.534   5.694  0.6874  0.1235 -0.8128
  176SLPC  H13R19975   2.802   2.509   5.619  1.2727 -1.2589 -0.9777
  176SLPC  C21419976   3.004   2.585   5.631  0.2612  0.4901  0.0053
  176SLPC  H14R19977   3.084   2.614   5.702  1.7256 -1.8857 -0.5505
  176SLPC  H14S19978   2.971   2.682   5.588 -2.1398 -0.2298  0.0446
  176SLPC  C21519979   3.069   2.480   5.537  0.1701 -0.1768  0.1172
  176SLPC  H15R19980   2.990   2.417   5.490  0.5063  0.9060 -2.0166
  176SLPC  H15S19981   3.144   2.430   5.602  1.8966  1.0244 -0.8902
  176SLPC  C21619982   3.150   2.549   5.424 -0.1835  0.1473 -0.5451
  176SLPC  H16R19983   3.222   2.482   5.373  0.0437  0.9355 -1.2886
  176SLPC  H16S19984   3.210   2.632   5.467  1.0117 -0.5916 -0.7648
  176SLPC  C21719985   3.049   2.602   5.317 -0.0431  0.0170  0.3885
  176SLPC  H17R19986   3.097   2.696   5.283 -0.4550  0.7191  1.6665
  176SLPC  H17S19987   2.961   2.642   5.373  0.7808  0.7457  1.1806
  176SLPC  C21819988   3.013   2.507   5.207 -0.2316 -0.1531  0.3265
  176SLPC  H18R19989   2.912   2.536   5.171  0.8532  0.7342 -2.2433
  176SLPC  H18S19990   3.015   2.400   5.237 -2.0714 -0.5817 -0.9473
  176SLPC  H18T19991   3.090   2.518   5.128 -0.3505 -0.1729  0.2071
  176SLPC   C3319992   3.518   2.317   6.723 -0.1399 -0.0313 -0.2352
  176SLPC   H3X19993   3.437   2.382   6.684 -0.8713 -1.7177 -1.6911
  176SLPC   H3Y19994   3.484   2.214   6.699  1.0067 -1.4038  3.3209
  176SLPC   C3419995   3.647   2.365   6.659 -0.5607  0.3295  0.1974
  176SLPC   H4X19996   3.747   2.327   6.687  0.0314  0.9290 -1.0381
  176SLPC   H4Y19997   3.657   2.476   6.663  2.3474  0.2187 -1.3970
  176SLPC   C3519998   3.646   2.335   6.511 -0.5724 -0.3267 -1.5498
  176SLPC   H5X19999   3.548   2.364   6.469 -0.9063 -0.7043 -1.0431
  176SLPC   H5Y20000   3.659   2.226   6.497 -1.9684 -0.8022  0.4434
  176SLPC   C3620001   3.752   2.419   6.428  0.2823  1.0345 -0.1408
  176SLPC   H6X20002   3.852   2.398   6.470 -1.0969 -1.2876  2.2879
  176SLPC   H6Y20003   3.738   2.528   6.445  0.1750  1.1367 -0.8477
  176SLPC   C3720004   3.756   2.376   6.284  0.2449 -0.1866  0.2125
  176SLPC   H7X20005   3.649   2.363   6.257 -0.4073  2.2472  1.3288
  176SLPC   H7Y20006   3.802   2.277   6.263  0.0196  0.2688 -3.0218
  176SLPC   C3820007   3.809   2.482   6.191 -0.1447 -0.1768 -0.1109
  176SLPC   H8X20008   3.913   2.505   6.219  0.4245 -1.8711 -0.6975
  176SLPC   H8Y20009   3.749   2.574   6.207 -2.5436 -1.8564  1.1796
  176SLPC   C3920010   3.808   2.439   6.044 -0.0855  0.1650 -0.7026
  176SLPC   H9X20011   3.873   2.349   6.033 -1.2380 -0.7211 -0.3823
  176SLPC   H9Y20012   3.834   2.523   5.976  0.7873  1.3301  0.9864
  176SLPC  C31020013   3.679   2.392   5.989  0.2732 -0.8849  0.1575
  176SLPC  H10X20014   3.596   2.465   5.993  2.1880  1.3879  0.6426
  176SLPC  H10Y20015   3.649   2.294   6.033 -2.7945  0.7580  2.0743
  176SLPC  C31120016   3.692   2.381   5.833 -0.6618  0.1018  0.0066
  176SLPC  H11X20017   3.753   2.289   5.817  1.2216  0.8482  2.3001
  176SLPC  H11Y20018   3.751   2.467   5.794  0.3525 -1.6906 -2.7577
  176SLPC  C31220019   3.555   2.366   5.779 -0.5754  0.3391  0.0936
  176SLPC  H12X20020   3.506   2.463   5.801 -0.0543  0.2815  1.5785
  176SLPC  H12Y20021   3.494   2.286   5.827 -0.3181  0.9330  1.4357
  176SLPC  C31320022   3.540   2.349   5.622 -0.9236  0.2020  1.1731
  176SLPC  H13X20023   3.432   2.331   5.604 -0.6088 -0.6144 -0.0189
  176SLPC  H13Y20024   3.594   2.259   5.586 -0.7744  0.6237  0.3014
  176SLPC  C31420025   3.582   2.482   5.547 -0.4723 -0.5515  0.3593
  176SLPC  H14X20026   3.683   2.514   5.580 -0.6560  1.8862 -1.2203
  176SLPC  H14Y20027   3.517   2.564   5.583  0.9620  0.3966  0.8529
  176SLPC  C31520028   3.580   2.473   5.389  0.3663 -0.0537  0.3609
  176SLPC  H15X20029   3.616   2.573   5.357  1.8084 -0.6783 -0.0352
  176SLPC  H15Y20030   3.473   2.452   5.364  0.8978 -0.4388 -1.7835
  176SLPC  C31620031   3.675   2.369   5.336  0.0179  0.0149  0.8832
  176SLPC  H16X20032   3.648   2.269   5.378 -1.0507 -0.2069 -0.2648
  176SLPC  H16Y20033   3.773   2.385   5.387  1.7655 -0.5787 -2.0592
  176SLPC  C31720034   3.683   2.351   5.179 -0.3940  0.0036  0.4996
  176SLPC  H17X20035   3.762   2.282   5.142 -1.1055 -1.0987  0.9891
  176SLPC  H17Y20036   3.698   2.452   5.137 -1.2243 -0.1113 -0.0825
  176SLPC  C31820037   3.554   2.290   5.121 -0.9545  0.1626  0.1274
  176SLPC  H18X20038   3.563   2.206   5.048  0.3693 -0.3362  0.8325
  176SLPC  H18Y20039   3.499   2.369   5.065 -0.4282 -0.1321 -0.8373
  176SLPC  H18Z20040   3.486   2.250   5.199 -1.2744 -0.5154 -0.4809
  177SLPC     N20041   6.083   3.524   7.527  0.4410  0.4375 -0.5407
  177SLPC   C1320042   6.206   3.438   7.526 -0.5007 -0.4911  0.0892
  177SLPC  H13A20043   6.186   3.353   7.464  0.2130 -0.0506 -0.7664
  177SLPC  H13B20044   6.285   3.502   7.489 -1.0106  1.7119  2.4578
  177SLPC  H13C20045   6.215   3.399   7.626  1.5955  0.8614  0.4973
  177SLPC   C1420046   6.086   3.635   7.628  0.0183 -0.4613  0.8394
  177SLPC  H14A20047   5.991   3.688   7.622  0.5046  0.8019  3.1088
  177SLPC  H14B20048   6.100   3.599   7.729 -0.9723 -2.1013  0.4295
  177SLPC  H14C20049   6.157   3.711   7.598 -1.8097  0.6429 -1.0326
  177SLPC   C1520050   5.980   3.420   7.562  0.3588  0.1818  0.1342
  177SLPC  H15A20051   5.887   3.466   7.593  0.9183  1.5871 -0.2184
  177SLPC  H15B20052   5.960   3.353   7.480 -0.9574  2.3097 -1.3694
  177SLPC  H15C20053   6.010   3.364   7.649  1.1737 -1.6996 -1.2876
  177SLPC   C1220054   6.056   3.587   7.387  0.2001 -0.2829 -0.3538
  177SLPC  H12A20055   6.121   3.671   7.369 -0.6079  0.7467  1.2558
  177SLPC  H12B20056   5.955   3.624   7.386  0.3605  0.2220  0.6928
  177SLPC   C1120057   6.073   3.495   7.262 -0.5552  0.2040  0.5734
  177SLPC  H11A20058   6.172   3.444   7.259 -0.8221 -0.3928  1.4038
  177SLPC  H11B20059   6.070   3.568   7.179  3.4080  0.3924  0.3630
  177SLPC     P20060   5.821   3.447   7.216  0.4686 -0.2637 -0.1025
  177SLPC   O1320061   5.737   3.327   7.234 -0.1274 -0.2117 -0.4507
  177SLPC   O1420062   5.771   3.563   7.297 -0.3684  0.5014 -0.1876
  177SLPC   O1220063   5.968   3.398   7.261 -0.8745  0.2491 -0.1630
  177SLPC   O1120064   5.836   3.481   7.066 -0.3334 -0.0619  0.0055
  177SLPC    C120065   5.849   3.385   6.963  0.0880 -0.4144  0.6091
  177SLPC    HA20066   5.911   3.421   6.879 -0.2002  0.3325  0.7035
  177SLPC    HB20067   5.900   3.294   7.002  0.0387  0.3362  2.5267
  177SLPC    C220068   5.714   3.342   6.903 -0.1153  0.2653 -0.6678
  177SLPC    HS20069   5.651   3.288   6.977 -1.8042 -0.3777 -2.4751
  177SLPC   O2120070   5.739   3.259   6.789  0.1584 -0.2003  0.5149
  177SLPC   C2120071   5.730   3.126   6.806 -0.5432 -0.1352 -0.1184
  177SLPC   O2220072   5.715   3.068   6.908  0.4105 -0.2083  0.1577
  177SLPC   C2220073   5.774   3.050   6.677  0.1585 -0.2827  0.0549
  177SLPC   H2R20074   5.858   3.110   6.637  0.4033  0.1720  1.1975
  177SLPC   H2S20075   5.810   2.948   6.702  1.2437  0.8295  3.6072
  177SLPC    C320076   5.634   3.464   6.849  0.2589 -0.6926  0.1937
  177SLPC    HX20077   5.685   3.519   6.767  0.8488 -1.2273  0.1962
  177SLPC    HY20078   5.637   3.526   6.941  2.4634 -1.5257  0.7606
  177SLPC   O3120079   5.502   3.430   6.831 -0.1013  0.2066  0.0632
  177SLPC   C3120080   5.433   3.504   6.739  0.6464 -0.1964 -0.6996
  177SLPC   O3220081   5.481   3.596   6.679  0.0964  0.2251 -0.3683
  177SLPC   C3220082   5.295   3.445   6.724  0.2508  0.1978 -0.7979
  177SLPC   H2X20083   5.214   3.509   6.765 -0.0811 -1.8440  2.0183
  177SLPC   H2Y20084   5.289   3.361   6.797  3.8755  0.5878  0.1335
  177SLPC   C2320085   5.664   3.050   6.567  0.2797 -0.1039  0.1854
  177SLPC   H3R20086   5.705   2.999   6.477 -0.4276  0.7783 -0.6497
  177SLPC   H3S20087   5.652   3.158   6.545  2.3964  0.0463 -0.5236
  177SLPC   C2420088   5.534   2.982   6.613  0.0741 -0.0147  0.5173
  177SLPC   H4R20089   5.468   3.040   6.680 -0.9297 -0.5516  0.0270
  177SLPC   H4S20090   5.555   2.890   6.672 -0.3046  1.1615  2.5637
  177SLPC   C2520091   5.452   2.928   6.492  0.0088 -0.0272 -0.2300
  177SLPC   H5R20092   5.353   2.885   6.520 -0.9810  0.8389 -2.1373
  177SLPC   H5S20093   5.505   2.841   6.449 -0.0779  0.4292 -1.2808
  177SLPC   C2620094   5.431   3.017   6.372  0.3024  0.2528  0.4730
  177SLPC   H6R20095   5.529   3.047   6.329 -0.2424  2.2224  0.5212
  177SLPC   H6S20096   5.390   3.115   6.403  1.1966  0.2307  1.8041
  177SLPC   C2720097   5.347   2.950   6.261  0.1484  0.7548  0.0899
  177SLPC   H7R20098   5.249   2.928   6.309 -0.0556  2.8662  0.7371
  177SLPC   H7S20099   5.401   2.863   6.217  1.0209  0.8642  0.9124
  177SLPC   C2820100   5.304   3.040   6.144 -0.0845 -0.2064 -0.2895
  177SLPC   H8R20101   5.397   3.086   6.104  0.1708  0.2702  0.8102
  177SLPC   H8S20102   5.244   3.121   6.192  0.5667 -0.2208  0.5856
  177SLPC   C2920103   5.212   2.967   6.043  0.1251 -0.5534  0.4556
  177SLPC   H9R20104   5.128   2.908   6.083 -0.8743  0.2553 -0.4135
  177SLPC  C21020105   5.231   2.953   5.915  0.0354  0.3362  0.4415
  177SLPC  H10R20106   5.163   2.890   5.856  0.2068 -0.3911  1.0009
  177SLPC  C21120107   5.358   2.999   5.836  0.2401  0.4995  0.4685
  177SLPC  H11R20108   5.366   2.948   5.737 -0.5262 -0.5544  0.9344
  177SLPC  H11S20109   5.451   2.969   5.889 -0.7183 -2.3588  0.7167
  177SLPC  C21220110   5.354   3.145   5.808  0.8299 -0.0120  0.4086
  177SLPC  H12R20111   5.336   3.206   5.898  1.1207 -2.0426  1.9408
  177SLPC  C21320112   5.354   3.202   5.685  0.3785 -0.3386  0.3149
  177SLPC  H13R20113   5.353   3.311   5.680 -1.9568 -0.3250 -0.4319
  177SLPC  C21420114   5.397   3.126   5.566  0.6445 -0.0198  0.8037
  177SLPC  H14R20115   5.346   3.028   5.555 -0.6603  0.8077 -1.1739
  177SLPC  H14S20116   5.508   3.117   5.561  0.6837  0.4947  0.7412
  177SLPC  C21520117   5.350   3.200   5.440  0.4719 -0.6135  0.5158
  177SLPC  H15R20118   5.392   3.303   5.442 -0.0798 -0.3931  1.4303
  177SLPC  H15S20119   5.239   3.210   5.441  0.4407 -0.7265 -0.4260
  177SLPC  C21620120   5.392   3.127   5.312  0.2816 -0.2122 -0.2261
  177SLPC  H16R20121   5.365   3.020   5.320  0.5918 -0.2769  0.0031
  177SLPC  H16S20122   5.502   3.116   5.298  0.3538  0.2707 -0.0637
  177SLPC  C21720123   5.331   3.190   5.191 -0.4675 -0.7359  0.3170
  177SLPC  H17R20124   5.341   3.298   5.212  2.3459 -1.3792  2.9670
  177SLPC  H17S20125   5.223   3.164   5.191 -0.6269 -0.2245 -1.3931
  177SLPC  C21820126   5.386   3.160   5.059  0.2191  0.0217 -0.0503
  177SLPC  H18R20127   5.333   3.216   4.980  1.5705  0.9124 -0.3732
  177SLPC  H18S20128   5.384   3.051   5.035 -0.4609  0.2989 -1.3194
  177SLPC  H18T20129   5.493   3.188   5.046  0.0074  0.3079 -1.2144
  177SLPC   C3320130   5.270   3.394   6.582 -0.3391  0.4400  0.0054
  177SLPC   H3X20131   5.174   3.339   6.584  1.5646 -3.2710 -1.4794
  177SLPC   H3Y20132   5.350   3.320   6.561 -1.9148 -1.0221 -1.1286
  177SLPC   C3420133   5.264   3.502   6.477  0.3478  0.0675  0.0933
  177SLPC   H4X20134   5.359   3.560   6.482 -0.5989  1.6243  0.9342
  177SLPC   H4Y20135   5.177   3.570   6.488  0.1891 -0.2458  0.8000
  177SLPC   C3520136   5.248   3.450   6.335 -0.5457 -0.3521 -0.2038
  177SLPC   H5X20137   5.152   3.395   6.342 -1.1714  0.6756 -0.5493
  177SLPC   H5Y20138   5.329   3.381   6.304 -3.8396 -3.1453 -3.5751
  177SLPC   C3620139   5.238   3.562   6.225  0.0522  0.5821  0.2943
  177SLPC   H6X20140   5.339   3.606   6.211  0.9702 -1.3062  0.6004
  177SLPC   H6Y20141   5.165   3.635   6.266 -0.6240  0.3098 -0.3896
  177SLPC   C3720142   5.184   3.504   6.093  0.5925 -0.1936  0.5903
  177SLPC   H7X20143   5.081   3.467   6.109 -0.6812  1.7443 -2.3810
  177SLPC   H7Y20144   5.252   3.421   6.063 -0.3439 -1.7112  2.5108
  177SLPC   C3820145   5.187   3.606   5.973  0.7936 -1.0618 -0.0419
  177SLPC   H8X20146   5.287   3.654   5.969  0.3342  0.2006  2.0692
  177SLPC   H8Y20147   5.122   3.695   5.987  3.4069  1.3957 -2.1913
  177SLPC   C3920148   5.156   3.531   5.846 -0.2207  0.2885  1.0538
  177SLPC   H9X20149   5.073   3.457   5.855 -0.4399  0.1603 -1.2476
  177SLPC   H9Y20150   5.247   3.470   5.827  0.3671  1.6803 -0.9769
  177SLPC  C31020151   5.138   3.623   5.724  0.0683  0.4524 -0.2267
  177SLPC  H10X20152   5.223   3.695   5.730  1.3734 -1.1047  4.8320
  177SLPC  H10Y20153   5.041   3.676   5.721  0.6992  1.6446 -0.0794
  177SLPC  C31120154   5.130   3.536   5.606  0.1121  0.0298  0.1562
  177SLPC  H11X20155   5.047   3.464   5.619  1.4822 -2.2288 -2.4702
  177SLPC  H11Y20156   5.223   3.476   5.594 -2.5830 -3.9114 -4.6790
  177SLPC  C31220157   5.110   3.605   5.480  0.0939 -0.6837  0.0147
  177SLPC  H12X20158   5.176   3.693   5.470 -1.2798  0.2525 -1.0808
  177SLPC  H12Y20159   5.004   3.632   5.459  0.4995  0.2372 -0.8833
  177SLPC  C31320160   5.149   3.507   5.360  0.5445 -0.0404 -0.0453
  177SLPC  H13X20161   5.240   3.450   5.390  1.3994  1.7518  0.9425
  177SLPC  H13Y20162   5.177   3.570   5.273 -3.4615 -0.1485 -1.5998
  177SLPC  C31420163   5.031   3.417   5.332 -0.6510  0.1353  0.0237
  177SLPC  H14X20164   4.971   3.386   5.420 -0.0956 -2.0197 -0.3162
  177SLPC  H14Y20165   5.071   3.323   5.290  1.2888  2.2614 -3.4310
  177SLPC  C31520166   4.935   3.466   5.217 -0.4290  0.0386 -0.3396
  177SLPC  H15X20167   4.975   3.463   5.113 -1.8369 -0.5910 -0.8859
  177SLPC  H15Y20168   4.904   3.569   5.244 -2.1711 -0.4386 -0.4183
  177SLPC  C31620169   4.799   3.384   5.190 -0.2103 -0.5569  0.3535
  177SLPC  H16X20170   4.753   3.365   5.289  3.5072 -1.7354  2.0197
  177SLPC  H16Y20171   4.842   3.292   5.144  1.4859  1.3140 -2.0593
  177SLPC  C31720172   4.707   3.447   5.081  0.7440  0.4997 -0.3198
  177SLPC  H17X20173   4.622   3.378   5.065 -0.7858  1.8482  1.4811
  177SLPC  H17Y20174   4.777   3.455   4.996 -1.3617  1.1462 -2.0687
  177SLPC  C31820175   4.649   3.582   5.118  0.4073  0.2346 -0.6781
  177SLPC  H18X20176   4.592   3.567   5.212 -0.0251 -1.7050 -1.2104
  177SLPC  H18Y20177   4.590   3.630   5.037  1.5323  0.2781 -1.5056
  177SLPC  H18Z20178   4.733   3.649   5.148 -0.9697  2.1254 -0.8843
  178SLPC     N20179   2.630   2.548   7.521 -0.6014  0.4594 -0.3827
  178SLPC   C1320180   2.617   2.697   7.504 -0.0128 -0.7198 -0.7047
  178SLPC  H13A20181   2.690   2.736   7.436  1.3013 -1.6393  0.1340
  178SLPC  H13B20182   2.517   2.724   7.473  0.4923  2.0376 -0.1989
  178SLPC  H13C20183   2.637   2.741   7.600  2.0666 -1.8304 -0.5754
  178SLPC   C1420184   2.526   2.492   7.601 -0.0956  0.3398 -0.5886
  178SLPC  H14A20185   2.547   2.474   7.706 -0.0545 -2.3716 -1.0016
  178SLPC  H14B20186   2.441   2.558   7.591 -0.2561  0.2505  0.1274
  178SLPC  H14C20187   2.504   2.392   7.568  0.0165  0.4945 -1.1473
  178SLPC   C1520188   2.758   2.514   7.590  0.0727  0.3398 -0.2482
  178SLPC  H15A20189   2.758   2.555   7.690 -1.0641  1.4011 -0.6479
  178SLPC  H15B20190   2.772   2.408   7.604  3.4528  0.4437 -1.8276
  178SLPC  H15C20191   2.846   2.544   7.535  0.6443 -0.0753  0.4288
  178SLPC   C1220192   2.625   2.480   7.386  0.2119 -0.0887 -0.3895
  178SLPC  H12A20193   2.615   2.373   7.400 -0.0344  0.3361  3.7294
  178SLPC  H12B20194   2.722   2.496   7.339  0.7840 -2.6462 -0.2323
  178SLPC   C1120195   2.514   2.537   7.283 -0.4641  0.0373 -0.0801
  178SLPC  H11A20196   2.527   2.474   7.193  0.4138  0.0078  0.0581
  178SLPC  H11B20197   2.529   2.640   7.246  0.6847 -0.1147 -0.0713
  178SLPC     P20198   2.303   2.398   7.315  0.2763 -0.5968 -0.4051
  178SLPC   O1320199   2.384   2.290   7.254  0.1117 -0.1699  0.0665
  178SLPC   O1420200   2.232   2.351   7.442  0.4090  0.3083 -0.0362
  178SLPC   O1220201   2.383   2.526   7.344 -0.2265 -0.6743 -0.2188
  178SLPC   O1120202   2.192   2.452   7.215 -0.2219  0.3815  0.2788
  178SLPC    C120203   2.233   2.494   7.086 -0.0715 -1.0435 -0.5029
  178SLPC    HA20204   2.326   2.449   7.045  0.1232 -0.7141 -0.4301
  178SLPC    HB20205   2.147   2.471   7.020 -0.1385 -4.3654  0.5580
  178SLPC    C220206   2.254   2.654   7.083 -0.1098  0.5385 -1.1903
  178SLPC    HS20207   2.300   2.685   7.179  0.3763  1.8845 -1.8430
  178SLPC   O2120208   2.130   2.721   7.056 -0.1633 -0.1219  0.0110
  178SLPC   C2120209   2.121   2.845   7.108  0.0807 -0.2614 -0.0720
  178SLPC   O2220210   2.196   2.895   7.190  0.3134 -0.4344 -0.3402
  178SLPC   C2220211   1.995   2.911   7.058  0.3658 -0.7384  0.3991
  178SLPC   H2R20212   1.900   2.876   7.101  0.7145 -1.2366  0.7787
  178SLPC   H2S20213   1.995   3.021   7.076 -2.0056  0.0145 -3.1611
  178SLPC    C320214   2.344   2.700   6.971 -0.6896 -0.1954 -0.3262
  178SLPC    HX20215   2.449   2.665   6.980 -0.3849  0.6902 -0.3741
  178SLPC    HY20216   2.357   2.810   6.969  0.4305 -0.0620  3.9864
  178SLPC   O3120217   2.292   2.649   6.847 -0.9698 -0.4477 -0.3599
  178SLPC   C3120218   2.373   2.658   6.740 -0.3437 -0.2666  0.3144
  178SLPC   O3220219   2.483   2.705   6.729  0.0485  0.4397 -0.2368
  178SLPC   C3220220   2.312   2.584   6.618 -0.1259 -0.3195 -0.4036
  178SLPC   H2X20221   2.208   2.555   6.644 -0.1096  0.9629  1.2960
  178SLPC   H2Y20222   2.382   2.500   6.598  2.6725  1.3950  1.3844
  178SLPC   C2320223   1.991   2.912   6.898 -0.1337 -0.3669 -0.2368
  178SLPC   H3R20224   2.089   2.943   6.856  1.1102  0.4772  2.9570
  178SLPC   H3S20225   1.909   2.977   6.863 -1.1885 -1.8185 -0.5489
  178SLPC   C2420226   1.946   2.774   6.837 -0.6416 -0.8218 -0.0821
  178SLPC   H4R20227   1.852   2.737   6.882 -0.7348 -0.6266 -0.1158
  178SLPC   H4S20228   2.025   2.700   6.860 -0.2205 -0.7158 -1.1281
  178SLPC   C2520229   1.948   2.797   6.686 -0.6603 -0.5972 -0.8863
  178SLPC   H5R20230   2.047   2.834   6.653  0.6233 -4.2116 -1.5425
  178SLPC   H5S20231   1.875   2.879   6.669  0.7473  0.9815  0.3317
  178SLPC   C2620232   1.898   2.675   6.614  0.6310 -0.0969 -0.0813
  178SLPC   H6R20233   1.816   2.623   6.667 -1.5879  1.7947 -1.5164
  178SLPC   H6S20234   1.991   2.614   6.602  3.4013  3.7134 -0.0897
  178SLPC   C2720235   1.842   2.710   6.482  0.2338  0.1565  0.8576
  178SLPC   H7R20236   1.925   2.767   6.435 -0.9751  3.0469  1.9525
  178SLPC   H7S20237   1.766   2.791   6.495  0.4846  0.1328  2.8220
  178SLPC   C2820238   1.784   2.594   6.400 -0.4602  1.0033 -0.2873
  178SLPC   H8R20239   1.685   2.628   6.364 -0.9810  0.1975  0.3407
  178SLPC   H8S20240   1.759   2.517   6.476 -1.6285  1.6484  0.0032
  178SLPC   C2920241   1.857   2.534   6.279 -0.3505 -0.1689 -0.3284
  178SLPC   H9R20242   1.941   2.469   6.304  0.1621 -0.1703 -1.9252
  178SLPC  C21020243   1.815   2.537   6.152  0.4090  0.0358 -0.0384
  178SLPC  H10R20244   1.869   2.480   6.075  0.1729 -2.6881  1.7058
  178SLPC  C21120245   1.705   2.630   6.105  0.0709  0.5834 -0.9960
  178SLPC  H11R20246   1.744   2.696   6.025  2.4103  1.7209  0.9512
  178SLPC  H11S20247   1.668   2.706   6.176 -2.6357 -1.6275  0.1380
  178SLPC  C21220248   1.586   2.547   6.065  0.3964  0.7262 -0.5778
  178SLPC  H12R20249   1.523   2.514   6.149 -0.1265 -0.6872 -1.4980
  178SLPC  C21320250   1.546   2.518   5.942 -0.4492  0.4303  0.7262
  178SLPC  H13R20251   1.451   2.467   5.921 -0.7808  1.0519  0.7073
  178SLPC  C21420252   1.614   2.562   5.812  0.6489 -0.3628  0.2939
  178SLPC  H14R20253   1.718   2.523   5.805  1.3340  1.3270  0.6351
  178SLPC  H14S20254   1.626   2.672   5.798  0.1774 -0.6972 -4.1376
  178SLPC  C21520255   1.532   2.522   5.688  0.1664  0.0869 -0.5177
  178SLPC  H15R20256   1.425   2.541   5.707 -0.1397 -3.4152  2.2451
  178SLPC  H15S20257   1.518   2.413   5.672  1.3765  0.1328 -2.1848
  178SLPC  C21620258   1.584   2.576   5.551 -0.2340  0.2913 -0.5442
  178SLPC  H16R20259   1.531   2.520   5.471 -2.2966 -0.0077  0.9286
  178SLPC  H16S20260   1.693   2.562   5.540  0.0033  1.3143  0.2982
  178SLPC  C21720261   1.543   2.720   5.536  0.8176  0.3100 -1.0251
  178SLPC  H17R20262   1.602   2.780   5.608  0.0846  0.2091 -0.3379
  178SLPC  H17S20263   1.439   2.737   5.570  0.8692  2.0480 -1.6496
  178SLPC  C21820264   1.556   2.773   5.394 -0.0528  0.1998  0.1868
  178SLPC  H18R20265   1.657   2.741   5.361 -0.2223  0.7135 -0.8776
  178SLPC  H18S20266   1.552   2.884   5.395 -1.4995  0.1614  0.2323
  178SLPC  H18T20267   1.477   2.741   5.322  0.3440  0.4193 -0.3571
  178SLPC   C3320268   2.305   2.674   6.489  0.3769  0.1935 -0.5561
  178SLPC   H3X20269   2.406   2.713   6.464  0.1621 -0.1272 -2.0051
  178SLPC   H3Y20270   2.229   2.755   6.489  1.3656  1.1479  0.5412
  178SLPC   C3420271   2.271   2.591   6.362 -0.3344  0.4119  0.5953
  178SLPC   H4X20272   2.181   2.529   6.383 -1.0441  1.0401 -0.5140
  178SLPC   H4Y20273   2.341   2.509   6.337 -0.3376  0.4309  0.5230
  178SLPC   C3520274   2.231   2.662   6.232  0.1889  0.5543 -0.5088
  178SLPC   H5X20275   2.307   2.733   6.192  0.5750 -0.0555 -0.8692
  178SLPC   H5Y20276   2.128   2.705   6.232 -0.6861 -1.2315 -3.1736
  178SLPC   C3620277   2.218   2.562   6.114 -0.6210  0.3730 -0.6070
  178SLPC   H6X20278   2.166   2.623   6.036  0.2703  3.0216  0.7427
  178SLPC   H6Y20279   2.157   2.481   6.158  0.2987  0.8969  1.8050
  178SLPC   C3720280   2.349   2.512   6.071  0.2957  0.4226  0.1666
  178SLPC   H7X20281   2.412   2.466   6.151 -1.0625 -1.0318  0.4350
  178SLPC   H7Y20282   2.409   2.587   6.015  0.1732 -0.5079 -1.2456
  178SLPC   C3820283   2.319   2.401   5.976  0.5141  0.4291  0.3928
  178SLPC   H8X20284   2.228   2.426   5.917  1.0312  1.2693 -0.0705
  178SLPC   H8Y20285   2.309   2.306   6.033 -1.1451 -0.1424 -0.7542
  178SLPC   C3920286   2.429   2.380   5.873 -0.3367  0.0580  0.5333
  178SLPC   H9X20287   2.527   2.397   5.922  0.1242 -0.3176 -0.2462
  178SLPC   H9Y20288   2.427   2.469   5.807  1.0766 -1.9336 -2.4006
  178SLPC  C31020289   2.422   2.247   5.800  0.1491  0.2857  0.3774
  178SLPC  H10X20290   2.355   2.174   5.849 -1.3844  2.0840  1.1020
  178SLPC  H10Y20291   2.524   2.205   5.809  0.2015  0.0020 -1.2525
  178SLPC  C31120292   2.379   2.253   5.655 -0.0485 -0.1762  0.4038
  178SLPC  H11X20293   2.393   2.150   5.615 -0.5573  0.1253 -0.5977
  178SLPC  H11Y20294   2.451   2.319   5.602  0.0967  2.3869  3.5040
  178SLPC  C31220295   2.231   2.306   5.632 -0.6355 -0.5423  0.3521
  178SLPC  H12X20296   2.229   2.414   5.656  0.7879 -0.2883 -0.5610
  178SLPC  H12Y20297   2.176   2.256   5.714 -0.3907 -1.7929 -0.2234
  178SLPC  C31320298   2.159   2.268   5.500 -0.6181 -0.4069  0.0455
  178SLPC  H13X20299   2.187   2.329   5.411 -0.9640  0.3982  0.4871
  178SLPC  H13Y20300   2.049   2.278   5.510 -0.7209  0.3145 -1.5169
  178SLPC  C31420301   2.191   2.123   5.456 -0.0659  0.6510 -0.3124
  178SLPC  H14X20302   2.199   2.061   5.548  2.2033  1.3389  0.0226
  178SLPC  H14Y20303   2.287   2.118   5.401 -0.4019  0.2895 -0.8697
  178SLPC  C31520304   2.083   2.081   5.355  0.0477  0.3124  0.2747
  178SLPC  H15X20305   2.083   2.166   5.284 -1.7762  0.4492  0.4026
  178SLPC  H15Y20306   1.985   2.078   5.407 -0.3951  2.4281 -0.3446
  178SLPC  C31620307   2.106   1.948   5.293 -0.1371  1.2476  0.5574
  178SLPC  H16X20308   2.074   1.869   5.364 -2.6990  0.3216 -1.4613
  178SLPC  H16Y20309   2.215   1.936   5.273 -0.0741 -0.6050  1.7109
  178SLPC  C31720310   2.022   1.925   5.174  0.1799 -0.5307  0.2284
  178SLPC  H17X20311   2.057   1.995   5.095  0.1600 -0.2469  0.4698
  178SLPC  H17Y20312   1.914   1.947   5.187  0.1022  0.2007 -1.4394
  178SLPC  C31820313   2.035   1.779   5.127  0.0126 -0.5822  0.7423
  178SLPC  H18X20314   1.973   1.775   5.035 -0.3318  2.0420  0.7672
  178SLPC  H18Y20315   1.990   1.702   5.193 -2.9186  0.0400 -0.3646
  178SLPC  H18Z20316   2.143   1.766   5.110  0.4166  2.2934  0.6186
  179SLPC     N20317   4.907   1.772   2.859  0.0312 -0.1544  0.4699
  179SLPC   C1320318   4.857   1.755   2.998  0.4822  0.5767  0.1664
  179SLPC  H13A20319   4.752   1.778   3.002  0.4858  0.4885  1.1996
  179SLPC  H13B20320   4.878   1.658   3.043 -2.2970  0.3747  1.2036
  179SLPC  H13C20321   4.899   1.829   3.065 -2.7263  1.9053  0.9022
  179SLPC   C1420322   4.847   1.899   2.800 -0.5218 -0.1710 -0.1441
  179SLPC  H14A20323   4.870   1.992   2.851  2.2636 -0.0293 -1.4317
  179SLPC  H14B20324   4.886   1.900   2.699  0.0000  0.1509  0.0547
  179SLPC  H14C20325   4.741   1.887   2.790 -0.8791  1.0053  1.7957
  179SLPC   C1520326   4.844   1.654   2.784 -0.1853  0.2176 -0.0650
  179SLPC  H15A20327   4.870   1.659   2.679 -0.7823 -2.5245 -0.4247
  179SLPC  H15B20328   4.874   1.554   2.812 -0.6128 -1.0253 -3.5828
  179SLPC  H15C20329   4.739   1.656   2.807 -0.5818 -3.2185 -0.9894
  179SLPC   C1220330   5.058   1.763   2.845 -0.4395 -0.5168 -0.2579
  179SLPC  H12A20331   5.092   1.754   2.743 -0.1455 -3.9924  0.0209
  179SLPC  H12B20332   5.091   1.668   2.884 -0.3193 -0.8528 -1.1572
  179SLPC   C1120333   5.142   1.878   2.912 -0.0658 -0.2108  0.0217
  179SLPC  H11A20334   5.247   1.847   2.890  1.0707  2.5055  1.2203
  179SLPC  H11B20335   5.126   1.873   3.021 -0.7289 -0.5524 -0.0874
  179SLPC     P20336   5.164   2.068   2.734 -0.1786 -0.0975 -0.5101
  179SLPC   O1320337   5.254   1.979   2.669 -0.1807 -0.0040  0.2860
  179SLPC   O1420338   5.060   2.123   2.647  0.2624  0.2832 -0.3825
  179SLPC   O1220339   5.105   2.007   2.869 -0.8080  0.2415 -0.2511
  179SLPC   O1120340   5.249   2.196   2.793 -0.2924  0.4021 -0.6411
  179SLPC    C120341   5.336   2.173   2.902 -0.2683  0.2585 -0.3707
  179SLPC    HA20342   5.364   2.066   2.913 -2.3748 -0.1244  2.6138
  179SLPC    HB20343   5.433   2.221   2.881  0.1231  0.2564  1.3365
  179SLPC    C220344   5.266   2.210   3.036  0.4353  0.5018 -0.6081
  179SLPC    HS20345   5.167   2.160   3.038  0.9958 -0.6997 -1.5939
  179SLPC   O2120346   5.263   2.357   3.041 -0.3505  0.3998  0.3730
  179SLPC   C2120347   5.170   2.416   3.109  0.0081 -0.5438 -0.6374
  179SLPC   O2220348   5.064   2.366   3.147 -0.8261  0.2393  0.4286
  179SLPC   C2220349   5.222   2.561   3.145  0.1295  0.3765 -0.7842
  179SLPC   H2R20350   5.333   2.564   3.137  0.2409 -0.8470  0.1928
  179SLPC   H2S20351   5.173   2.619   3.063  0.3570 -0.9645 -1.9055
  179SLPC    C320352   5.360   2.160   3.154  0.1050 -0.2637 -0.4402
  179SLPC    HX20353   5.459   2.206   3.137 -0.5144  0.8012 -1.2767
  179SLPC    HY20354   5.366   2.049   3.146 -1.2787 -0.5696  1.9565
  179SLPC   O3120355   5.317   2.202   3.289 -0.0723  0.0697  0.0493
  179SLPC   C3120356   5.239   2.118   3.361 -0.3834  0.5261 -0.5400
  179SLPC   O3220357   5.211   2.001   3.327  0.2877 -0.1802  0.0406
  179SLPC   C3220358   5.186   2.200   3.477  0.3415 -0.2637 -0.9195
  179SLPC   H2X20359   5.130   2.287   3.437  0.8136  0.5443  0.1407
  179SLPC   H2Y20360   5.270   2.254   3.527 -0.5074  0.7233 -0.5208
  179SLPC   C2320361   5.195   2.607   3.291 -0.5787 -0.6544 -0.3771
  179SLPC   H3R20362   5.097   2.563   3.323 -1.2251  0.2693 -1.0282
  179SLPC   H3S20363   5.169   2.715   3.294 -1.6813 -0.8737 -1.2246
  179SLPC   C2420364   5.285   2.543   3.392  0.1251 -0.3410  0.5258
  179SLPC   H4R20365   5.387   2.579   3.366 -0.2713  0.3554 -0.0866
  179SLPC   H4S20366   5.287   2.432   3.378 -1.7980 -0.1951 -1.2822
  179SLPC   C2520367   5.253   2.586   3.542  0.2969  0.3544  0.0689
  179SLPC   H5R20368   5.151   2.551   3.572 -0.1384 -0.3018 -1.9915
  179SLPC   H5S20369   5.249   2.696   3.552  0.3937  0.5140 -1.3576
  179SLPC   C2620370   5.347   2.513   3.637  0.0903 -0.5456 -0.0867
  179SLPC   H6R20371   5.450   2.552   3.625  0.3614 -0.2842  2.4740
  179SLPC   H6S20372   5.354   2.408   3.602  1.4842 -1.2199  2.0230
  179SLPC   C2720373   5.299   2.527   3.782  0.0659  0.2049  0.3277
  179SLPC   H7R20374   5.196   2.484   3.788  0.4855 -1.0702 -0.8705
  179SLPC   H7S20375   5.307   2.634   3.808  1.0859 -0.3178  2.3402
  179SLPC   C2820376   5.375   2.439   3.892 -0.1048  0.4052  0.4082
  179SLPC   H8R20377   5.367   2.332   3.866  1.1830 -0.4671  3.1766
  179SLPC   H8S20378   5.329   2.454   3.993 -0.0463 -0.0565  0.5036
  179SLPC   C2920379   5.524   2.476   3.898  0.8778  0.6436  0.4131
  179SLPC   H9R20380   5.583   2.432   3.816  3.8474 -1.1799  3.2595
  179SLPC  C21020381   5.602   2.534   4.001 -0.9072  0.2278  0.5028
  179SLPC  H10R20382   5.707   2.560   3.981 -0.5063 -2.0322 -0.5786
  179SLPC  C21120383   5.542   2.591   4.125 -0.5399  0.1805  0.1413
  179SLPC  H11R20384   5.438   2.623   4.104 -0.5500 -1.0863 -2.0055
  179SLPC  H11S20385   5.602   2.680   4.152  1.2203 -0.7204 -0.6195
  179SLPC  C21220386   5.534   2.486   4.243 -0.6148  0.3813  0.2219
  179SLPC  H12R20387   5.553   2.381   4.219 -0.3019  0.1656  1.3408
  179SLPC  C21320388   5.503   2.510   4.372 -0.0603 -0.2797 -0.1078
  179SLPC  H13R20389   5.476   2.424   4.436  1.0697  0.8640  1.9839
  179SLPC  C21420390   5.459   2.647   4.424 -0.7019  1.1698  0.5457
  179SLPC  H14R20391   5.360   2.677   4.384  0.7515  2.2404 -2.5174
  179SLPC  H14S20392   5.540   2.718   4.398  1.1064 -0.5742  1.1453
  179SLPC  C21520393   5.439   2.633   4.577  0.6910 -0.5087  0.0361
  179SLPC  H15R20394   5.526   2.588   4.630  0.7427 -0.3207  0.1118
  179SLPC  H15S20395   5.349   2.569   4.589 -0.0902  0.6545  0.6124
  179SLPC  C21620396   5.418   2.771   4.651  0.6368  0.2961 -0.1318
  179SLPC  H16R20397   5.360   2.841   4.588  0.1850 -1.7681 -2.1594
  179SLPC  H16S20398   5.522   2.803   4.676  0.7659 -0.2264  0.0114
  179SLPC  C21720399   5.351   2.752   4.794 -0.4104  0.0354  0.0825
  179SLPC  H17R20400   5.251   2.708   4.775  0.4804 -3.4606  2.4944
  179SLPC  H17S20401   5.316   2.848   4.837 -0.0700  0.7565 -1.1913
  179SLPC  C21820402   5.425   2.664   4.898 -0.7384 -0.2307  0.0396
  179SLPC  H18R20403   5.487   2.722   4.970 -0.6605  0.5806 -0.6602
  179SLPC  H18S20404   5.499   2.598   4.849 -0.0394 -0.9394  1.9485
  179SLPC  H18T20405   5.360   2.596   4.957  0.1419 -1.6310 -0.5704
  179SLPC   C3320406   5.110   2.113   3.575 -0.3355  0.1974 -0.1001
  179SLPC   H3X20407   5.167   2.027   3.615 -0.4366 -0.9113 -2.2020
  179SLPC   H3Y20408   5.020   2.069   3.527  0.0015  0.0253 -0.5732
  179SLPC   C3420409   5.049   2.190   3.689  0.6428 -0.3299  0.5721
  179SLPC   H4X20410   4.993   2.278   3.650 -1.0295 -1.6384 -0.1069
  179SLPC   H4Y20411   5.129   2.237   3.751 -0.7386 -1.1151  3.0775
  179SLPC   C3520412   4.967   2.104   3.783 -0.6871 -0.1904  0.3278
  179SLPC   H5X20413   4.880   2.074   3.721 -1.1942  1.8223  0.0039
  179SLPC   H5Y20414   5.033   2.017   3.805  0.4796  0.7468  0.6062
  179SLPC   C3620415   4.910   2.177   3.907 -0.4260  0.2937  0.5452
  179SLPC   H6X20416   4.849   2.267   3.882 -0.4609 -0.2424 -1.4086
  179SLPC   H6Y20417   5.003   2.216   3.953  0.9908  0.7327 -2.4569
  179SLPC   C3720418   4.832   2.086   3.999  0.2591  0.0955 -0.1092
  179SLPC   H7X20419   4.891   1.995   4.022 -3.8219 -2.9302 -0.5423
  179SLPC   H7Y20420   4.740   2.053   3.947  0.4813  0.1158 -0.5167
  179SLPC   C3820421   4.794   2.148   4.133 -0.3134 -0.3531  0.9681
  179SLPC   H8X20422   4.735   2.241   4.118  0.9161  0.0791 -1.8475
  179SLPC   H8Y20423   4.888   2.167   4.188 -1.2743  1.6178  2.0228
  179SLPC   C3920424   4.703   2.048   4.209 -0.5137  0.3772 -0.0545
  179SLPC   H9X20425   4.759   1.953   4.214  0.6172  1.1055  2.3332
  179SLPC   H9Y20426   4.613   2.025   4.148 -0.7332 -1.8901  1.0141
  179SLPC  C31020427   4.652   2.085   4.349 -0.2961  0.1298 -0.0884
  179SLPC  H10X20428   4.646   2.196   4.339 -1.4783 -0.0373 -1.7674
  179SLPC  H10Y20429   4.720   2.055   4.431 -1.0184  1.9844  1.2623
  179SLPC  C31120430   4.500   2.024   4.385 -0.2927 -0.1261 -0.5034
  179SLPC  H11X20431   4.511   1.913   4.383  2.7916  0.0878 -2.7506
  179SLPC  H11Y20432   4.432   2.042   4.299 -0.0121 -1.7141 -1.1002
  179SLPC  C31220433   4.440   2.085   4.510 -0.4990  0.2576 -0.4166
  179SLPC  H12X20434   4.336   2.047   4.512  0.2423 -1.8709  0.1283
  179SLPC  H12Y20435   4.438   2.195   4.492  0.4787 -0.0549 -2.9656
  179SLPC  C31320436   4.508   2.045   4.641  0.4441  0.5813  0.1562
  179SLPC  H13X20437   4.614   2.080   4.638  0.6082  0.1201  0.4469
  179SLPC  H13Y20438   4.524   1.935   4.645 -1.8643  0.2158  0.7184
  179SLPC  C31420439   4.431   2.093   4.762  0.1503  0.0009 -0.3334
  179SLPC  H14X20440   4.360   2.013   4.790 -0.2954  0.0325 -1.3393
  179SLPC  H14Y20441   4.379   2.187   4.733  2.3194  1.3105 -0.2204
  179SLPC  C31520442   4.523   2.106   4.890 -0.0234 -0.6574 -0.6750
  179SLPC  H15X20443   4.458   2.143   4.972  1.8989  0.5403  0.3824
  179SLPC  H15Y20444   4.603   2.182   4.876  1.8929 -2.5247 -0.2855
  179SLPC  C31620445   4.576   1.967   4.936  0.4866 -0.6882 -0.1943
  179SLPC  H16X20446   4.681   1.958   4.901  0.8637  2.5282 -0.2121
  179SLPC  H16Y20447   4.517   1.883   4.895  0.6667 -1.4209  1.0113
  179SLPC  C31720448   4.585   1.949   5.093 -0.2322 -0.1300 -0.0900
  179SLPC  H17X20449   4.484   1.943   5.140  0.5665  0.9388  1.8624
  179SLPC  H17Y20450   4.637   2.036   5.138  2.6745 -0.4157 -2.5647
  179SLPC  C31820451   4.658   1.825   5.147  0.1021  0.0287  0.8843
  179SLPC  H18X20452   4.630   1.809   5.253 -1.4259 -0.4536  0.4347
  179SLPC  H18Y20453   4.767   1.832   5.129 -0.2988 -0.8782 -2.6732
  179SLPC  H18Z20454   4.644   1.737   5.081  1.7932  1.4386 -1.5222
  180SLPC     N20455   2.628   2.700   2.265  0.0692  0.3352 -0.8287
  180SLPC   C1320456   2.576   2.559   2.263 -0.5137  0.3291  0.7776
  180SLPC  H13A20457   2.483   2.538   2.212 -0.5336 -1.8246  1.6138
  180SLPC  H13B20458   2.662   2.512   2.218 -0.0620  1.2971  0.5871
  180SLPC  H13C20459   2.580   2.511   2.360  0.8323  0.9158  1.0316
  180SLPC   C1420460   2.545   2.783   2.350  0.4735 -0.4058 -0.3631
  180SLPC  H14A20461   2.568   2.888   2.351 -1.9469  0.2084  2.0511
  180SLPC  H14B20462   2.445   2.773   2.311 -0.1678 -1.7241  1.4847
  180SLPC  H14C20463   2.546   2.736   2.447  0.6717 -0.1162 -0.2257
  180SLPC   C1520464   2.637   2.750   2.124  0.4460  0.8016  0.7920
  180SLPC  H15A20465   2.657   2.663   2.063  1.4199  0.7544  1.1751
  180SLPC  H15B20466   2.540   2.784   2.091 -0.4692 -1.5285  0.8850
  180SLPC  H15C20467   2.698   2.838   2.112 -0.8537  1.7761  1.0751
  180SLPC   C1220468   2.774   2.689   2.325 -0.0804  0.9057  0.2894
  180SLPC  H12A20469   2.828   2.780   2.301 -0.4401  0.5626 -2.0227
  180SLPC  H12B20470   2.834   2.607   2.290  0.4673  0.8485  1.3209
  180SLPC   C1120471   2.789   2.696   2.480 -0.1472 -0.9714 -0.0745
  180SLPC  H11A20472   2.757   2.799   2.509 -1.2406 -1.4033  0.2736
  180SLPC  H11B20473   2.896   2.675   2.501 -0.0890 -1.1076 -0.5068
  180SLPC     P20474   2.632   2.603   2.677 -0.3027  0.5779 -0.0764
  180SLPC   O1320475   2.514   2.684   2.640 -0.1030 -0.3033  0.6865
  180SLPC   O1420476   2.608   2.466   2.732  0.3370 -0.1350 -0.4447
  180SLPC   O1220477   2.723   2.592   2.547 -0.0395 -0.2617  0.1550
  180SLPC   O1120478   2.712   2.681   2.789 -0.7452  0.3068 -0.4267
  180SLPC    C120479   2.850   2.642   2.821 -0.5459  0.0995  0.2904
  180SLPC    HA20480   2.903   2.599   2.734 -0.3030 -0.1349  0.5496
  180SLPC    HB20481   2.906   2.723   2.873  2.7981  0.0906 -2.8404
  180SLPC    C220482   2.857   2.532   2.936 -0.2635 -0.5271  0.9782
  180SLPC    HS20483   2.790   2.447   2.914  0.8654 -0.9216 -1.2412
  180SLPC   O2120484   2.809   2.587   3.062 -0.1342  0.3045 -0.0475
  180SLPC   C2120485   2.765   2.502   3.160 -0.9164  0.0446  0.4803
  180SLPC   O2220486   2.763   2.383   3.145 -0.0723 -0.0553 -0.1198
  180SLPC   C2220487   2.725   2.583   3.290  1.0043 -0.1631 -0.7477
  180SLPC   H2R20488   2.740   2.691   3.270  1.4823  0.4390  2.4667
  180SLPC   H2S20489   2.615   2.569   3.299  1.0069 -1.5177 -2.2589
  180SLPC    C320490   3.001   2.478   2.947 -0.9459 -0.6742 -0.4682
  180SLPC    HX20491   3.065   2.568   2.933 -3.1238  1.1367  0.5900
  180SLPC    HY20492   3.018   2.404   2.865  0.6345 -1.4320  0.4930
  180SLPC   O3120493   3.026   2.414   3.069 -0.0919 -0.0307 -0.2870
  180SLPC   C3120494   3.157   2.383   3.096  0.5179  0.4598 -0.1530
  180SLPC   O3220495   3.255   2.394   3.026 -0.1390 -0.4663 -0.3077
  180SLPC   C3220496   3.167   2.318   3.239 -0.0234  0.3330 -0.2476
  180SLPC   H2X20497   3.139   2.405   3.301 -0.1927 -0.0690  0.2450
  180SLPC   H2Y20498   3.274   2.289   3.240 -0.3232 -0.9925 -1.9309
  180SLPC   C2320499   2.784   2.522   3.418  0.0903  0.5208  0.3130
  180SLPC   H3R20500   2.889   2.555   3.410  1.3222 -2.5644  1.9703
  180SLPC   H3S20501   2.790   2.411   3.417  0.3994  0.5363 -0.7591
  180SLPC   C2420502   2.728   2.580   3.545  0.2717 -0.2622  0.0651
  180SLPC   H4R20503   2.620   2.558   3.558  0.7069 -1.6124  1.8073
  180SLPC   H4S20504   2.744   2.689   3.537  1.7203 -0.5609 -1.9010
  180SLPC   C2520505   2.795   2.527   3.674 -0.0723  0.3667  0.7275
  180SLPC   H5R20506   2.902   2.524   3.646 -0.3084  0.5126 -0.2293
  180SLPC   H5S20507   2.764   2.420   3.682  2.8861 -0.5509  1.2377
  180SLPC   C2620508   2.772   2.607   3.795 -0.5672 -0.8420 -0.1599
  180SLPC   H6R20509   2.765   2.715   3.772 -0.3953 -1.1435 -1.7387
  180SLPC   H6S20510   2.845   2.599   3.878 -3.2907 -1.0381  2.3844
  180SLPC   C2720511   2.644   2.574   3.870  0.1051 -0.6172 -0.4567
  180SLPC   H7R20512   2.646   2.463   3.867  1.9119 -0.5811 -2.1305
  180SLPC   H7S20513   2.548   2.611   3.828 -0.7033 -2.1826 -0.0721
  180SLPC   C2820514   2.633   2.602   4.027  0.1885 -0.3663 -0.7473
  180SLPC   H8R20515   2.696   2.530   4.084 -0.6116  0.9401  1.9631
  180SLPC   H8S20516   2.525   2.580   4.039 -0.4674  0.8587 -3.6599
  180SLPC   C2920517   2.668   2.740   4.061 -0.1377 -0.5829  0.1795
  180SLPC   H9R20518   2.738   2.797   3.997 -1.5971  1.3539  0.2389
  180SLPC  C21020519   2.611   2.822   4.155 -0.2801  0.0173 -0.0875
  180SLPC  H10R20520   2.635   2.929   4.153  0.3626 -0.0436  2.0536
  180SLPC  C21120521   2.504   2.793   4.257 -0.0053 -0.2317 -0.6252
  180SLPC  H11R20522   2.464   2.689   4.254 -2.5958  0.6595 -0.1365
  180SLPC  H11S20523   2.416   2.854   4.228 -0.0087  1.4510  2.5176
  180SLPC  C21220524   2.524   2.827   4.404  0.1216  0.0440 -0.1754
  180SLPC  H12R20525   2.487   2.927   4.429  1.2534  0.3531  0.3286
  180SLPC  C21320526   2.578   2.749   4.499 -0.1660  0.3295  0.5904
  180SLPC  H13R20527   2.585   2.792   4.600 -0.6952 -0.6623  1.0671
  180SLPC  C21420528   2.613   2.605   4.482 -0.8774  0.2195  0.4325
  180SLPC  H14R20529   2.559   2.552   4.401 -1.8508 -0.3613  1.4273
  180SLPC  H14S20530   2.574   2.549   4.571  0.9899  0.6460  1.5747
  180SLPC  C21520531   2.764   2.585   4.461 -0.2381  0.0197 -0.2818
  180SLPC  H15R20532   2.804   2.624   4.364  1.4748  0.6840  0.6423
  180SLPC  H15S20533   2.780   2.475   4.458 -2.0210 -0.2553 -0.9754
  180SLPC  C21620534   2.850   2.636   4.578 -0.4041  0.1442  0.0474
  180SLPC  H16R20535   2.852   2.747   4.585  0.8371  0.0965  0.7040
  180SLPC  H16S20536   2.950   2.600   4.548 -0.3478  0.6575 -0.4106
  180SLPC  C21720537   2.800   2.594   4.723  0.4570 -0.2743  0.5904
  180SLPC  H17R20538   2.785   2.484   4.718  1.2112 -0.3621  0.0880
  180SLPC  H17S20539   2.701   2.638   4.747  0.1918 -0.2852 -0.4133
  180SLPC  C21820540   2.893   2.640   4.835  0.0864  0.6084 -0.6655
  180SLPC  H18R20541   2.875   2.589   4.932 -1.1648 -0.0866 -1.2328
  180SLPC  H18S20542   2.879   2.748   4.854 -0.0740  0.3471  0.8086
  180SLPC  H18T20543   2.997   2.627   4.799  0.1187  1.2447 -0.8147
  180SLPC   C3320544   3.088   2.193   3.252  0.0906  0.3378 -0.4168
  180SLPC   H3X20545   3.122   2.111   3.184 -1.3100 -1.4249  0.8950
  180SLPC   H3Y20546   2.980   2.202   3.224 -0.5019  0.3383  1.7349
  180SLPC   C3420547   3.108   2.139   3.395 -0.1181 -0.0871 -0.5281
  180SLPC   H4X20548   3.216   2.150   3.422  0.3871 -1.1019 -2.0266
  180SLPC   H4Y20549   3.093   2.029   3.394 -0.5196 -0.0531  0.5823
  180SLPC   C3520550   3.025   2.202   3.506  0.7421  0.2798  0.1287
  180SLPC   H5X20551   2.920   2.174   3.481  1.0543  0.6872 -1.8523
  180SLPC   H5Y20552   3.028   2.313   3.510 -1.7260  0.3764  3.6195
  180SLPC   C3620553   3.060   2.153   3.641 -0.1455  0.0856 -0.8103
  180SLPC   H6X20554   3.164   2.178   3.668  0.3122 -1.0750 -1.4371
  180SLPC   H6Y20555   3.063   2.042   3.649  2.8300  0.1571  0.5125
  180SLPC   C3720556   2.964   2.216   3.748  0.1854 -0.1913 -0.1235
  180SLPC   H7X20557   2.860   2.182   3.730 -0.1282 -0.2796  1.6729
  180SLPC   H7Y20558   2.979   2.326   3.749  1.7193 -0.3310  3.1001
  180SLPC   C3820559   3.005   2.177   3.887 -0.0494  0.1686  0.9971
  180SLPC   H8X20560   3.114   2.197   3.881 -0.0871  0.1879  0.3085
  180SLPC   H8Y20561   2.991   2.067   3.896  0.2888  0.0934  0.6339
  180SLPC   C3920562   2.947   2.251   4.010  0.5189 -0.5424  0.1380
  180SLPC   H9X20563   2.837   2.255   4.024  0.7502  1.7880  1.7750
  180SLPC   H9Y20564   2.966   2.360   3.998 -0.4637 -0.2223  1.2459
  180SLPC  C31020565   3.007   2.203   4.141  0.6724  0.3620  0.2573
  180SLPC  H10X20566   3.114   2.234   4.149  0.6731  0.0988  1.3869
  180SLPC  H10Y20567   3.000   2.093   4.139 -3.6782  0.4924 -0.4411
  180SLPC  C31120568   2.934   2.255   4.269  0.7685 -0.0260  0.1486
  180SLPC  H11X20569   2.831   2.214   4.271 -0.1332  2.1282  1.9344
  180SLPC  H11Y20570   2.935   2.365   4.277  1.6531 -0.1273  2.1889
  180SLPC  C31220571   3.002   2.196   4.397  1.3365  0.5689  0.5220
  180SLPC  H12X20572   3.111   2.220   4.403  1.2320  1.0631  0.4944
  180SLPC  H12Y20573   2.998   2.085   4.394  0.6795  0.5834  0.7411
  180SLPC  C31320574   2.934   2.241   4.523 -0.0191  0.8836 -0.5831
  180SLPC  H13X20575   2.825   2.222   4.507  0.0542 -1.1683  0.9042
  180SLPC  H13Y20576   2.953   2.348   4.541 -1.9236  1.2365 -0.4159
  180SLPC  C31420577   2.989   2.164   4.647 -0.2469  0.2486  0.0613
  180SLPC  H14X20578   3.093   2.202   4.657 -0.6679  1.1552  1.2496
  180SLPC  H14Y20579   2.975   2.055   4.630  0.5313 -0.5174  3.5739
  180SLPC  C31520580   2.913   2.194   4.773 -0.4515  0.2995 -0.4865
  180SLPC  H15X20581   2.803   2.177   4.763  0.0097 -2.4107 -1.6760
  180SLPC  H15Y20582   2.909   2.300   4.805  2.3185  0.7251 -1.3680
  180SLPC  C31620583   2.966   2.114   4.890  0.7562 -0.3478  0.1827
  180SLPC  H16X20584   2.959   2.004   4.877 -1.3207 -0.3848  1.1692
  180SLPC  H16Y20585   2.894   2.124   4.974  2.3885 -1.5731  1.8126
  180SLPC  C31720586   3.108   2.132   4.937  0.3391  0.3534  0.1952
  180SLPC  H17X20587   3.140   2.238   4.932 -3.2112  1.5721  0.1383
  180SLPC  H17Y20588   3.180   2.067   4.883 -0.8418  0.5910 -1.7841
  180SLPC  C31820589   3.117   2.108   5.093 -0.1486  0.7513 -0.0646
  180SLPC  H18X20590   3.030   2.142   5.152 -1.2450 -0.6390 -0.8201
  180SLPC  H18Y20591   3.210   2.145   5.141 -0.7003  3.2067 -0.7736
  180SLPC  H18Z20592   3.105   1.998   5.108  0.1494  1.0367  2.8787
  181SLPC     N20593   2.060   2.109   2.426 -0.2038 -0.2125  0.2772
  181SLPC   C1320594   1.997   2.237   2.388  0.2387  0.2151 -0.4710
  181SLPC  H13A20595   2.036   2.277   2.296  0.2718 -0.1540 -0.6183
  181SLPC  H13B20596   1.891   2.230   2.369 -0.0491 -0.3126  1.1737
  181SLPC  H13C20597   2.025   2.313   2.461 -0.1480  0.9159 -1.0410
  181SLPC   C1420598   2.209   2.134   2.396 -0.1921 -0.4702 -0.2678
  181SLPC  H14A20599   2.231   2.152   2.292 -0.4186  1.7936  0.0179
  181SLPC  H14B20600   2.256   2.210   2.456  0.9813 -0.8218 -0.7146
  181SLPC  H14C20601   2.255   2.043   2.432  0.0270  0.1343  1.0222
  181SLPC   C1520602   2.008   1.999   2.341  0.3023  0.4454 -0.2517
  181SLPC  H15A20603   2.034   1.901   2.378  0.1295  0.0430 -1.1914
  181SLPC  H15B20604   1.902   1.987   2.331  0.5743 -1.1595 -1.7154
  181SLPC  H15C20605   2.044   2.004   2.240 -0.6445 -1.0598 -0.6892
  181SLPC   C1220606   2.023   2.086   2.573  0.2355 -0.4138  0.2629
  181SLPC  H12A20607   1.915   2.089   2.583  0.1321 -1.8809 -0.1692
  181SLPC  H12B20608   2.067   2.170   2.624 -2.4112  1.3368 -0.1222
  181SLPC   C1120609   2.071   1.960   2.635  0.7163  0.7387 -0.5202
  181SLPC  H11A20610   2.076   1.972   2.745 -1.3682 -0.5466 -0.2211
  181SLPC  H11B20611   2.172   1.936   2.594 -0.5163 -0.0999 -3.3326
  181SLPC     P20612   1.876   1.802   2.710  0.1090 -0.0666 -0.4646
  181SLPC   O1320613   1.787   1.910   2.754  0.3435  0.2305  0.6564
  181SLPC   O1420614   1.808   1.684   2.657  0.4773  0.6067  0.4131
  181SLPC   O1220615   1.979   1.856   2.602  0.5240 -0.1445 -0.0380
  181SLPC   O1120616   1.959   1.746   2.831 -0.2693 -0.1240 -0.4331
  181SLPC    C120617   2.071   1.657   2.827 -0.3396 -0.3319 -0.0098
  181SLPC    HA20618   2.029   1.559   2.797 -1.8685  0.4899 -0.6543
  181SLPC    HB20619   2.136   1.694   2.745  0.6324  0.8634  1.2392
  181SLPC    C220620   2.156   1.660   2.957 -0.1392 -0.5616  0.2023
  181SLPC    HS20621   2.234   1.584   2.933  1.3367  1.6829 -2.8556
  181SLPC   O2120622   2.075   1.641   3.071 -0.2638  0.3396 -0.2940
  181SLPC   C2120623   2.013   1.517   3.064  0.0232  0.3952 -0.4725
  181SLPC   O2220624   2.060   1.420   3.006 -0.0688 -0.4511 -0.6371
  181SLPC   C2220625   1.881   1.529   3.142  0.5873 -0.3088 -0.0982
  181SLPC   H2R20626   1.891   1.599   3.228 -0.3204  0.1281 -0.3305
  181SLPC   H2S20627   1.812   1.569   3.064 -0.4794 -2.2627 -0.2100
  181SLPC    C320628   2.245   1.794   2.965  0.1612  0.5106  0.0367
  181SLPC    HX20629   2.172   1.878   2.969  0.0920  0.4847 -0.6363
  181SLPC    HY20630   2.310   1.805   2.876 -0.3428  1.0982 -0.2690
  181SLPC   O3120631   2.333   1.794   3.076 -0.2638 -0.1855  0.0736
  181SLPC   C3120632   2.376   1.915   3.110  0.2195 -0.1818 -0.2193
  181SLPC   O3220633   2.343   2.021   3.064 -0.0771  0.0779  0.2922
  181SLPC   C3220634   2.490   1.907   3.211  0.3762 -0.5948  0.1720
  181SLPC   H2X20635   2.584   1.945   3.165  1.5976 -4.1982 -0.6425
  181SLPC   H2Y20636   2.505   1.797   3.224 -2.8713 -1.1954 -0.3665
  181SLPC   C2320637   1.833   1.386   3.178 -0.3104 -0.3152 -0.0655
  181SLPC   H3R20638   1.910   1.338   3.242 -0.9258 -1.7682 -0.3907
  181SLPC   H3S20639   1.835   1.324   3.085  1.0178  1.4211 -1.2795
  181SLPC   C2420640   1.696   1.383   3.248 -0.7591  0.4744  0.4895
  181SLPC   H4R20641   1.683   1.273   3.260 -1.2780  0.3287 -1.1797
  181SLPC   H4S20642   1.622   1.437   3.186  2.1757  2.6843 -1.3776
  181SLPC   C2520643   1.686   1.461   3.385  0.1783 -0.2822  0.3045
  181SLPC   H5R20644   1.593   1.454   3.446  0.3448 -1.9338  0.4169
  181SLPC   H5S20645   1.695   1.570   3.368  0.8385 -0.4551 -0.5097
  181SLPC   C2620646   1.795   1.424   3.483  0.4021  0.4009  0.6226
  181SLPC   H6R20647   1.901   1.438   3.452  1.3782  0.1356  3.4917
  181SLPC   H6S20648   1.797   1.316   3.510  1.2231 -0.1140 -1.3248
  181SLPC   C2720649   1.795   1.520   3.609 -0.4193  0.6298 -0.1931
  181SLPC   H7R20650   1.744   1.615   3.583  1.5892  2.1797  1.1506
  181SLPC   H7S20651   1.898   1.537   3.649  0.2938 -2.0789 -0.6832
  181SLPC   C2820652   1.718   1.466   3.729 -0.5115 -0.1618 -0.3258
  181SLPC   H8R20653   1.610   1.465   3.704 -0.3114  0.2283 -1.2362
  181SLPC   H8S20654   1.729   1.550   3.800  1.3522 -0.1018 -0.6458
  181SLPC   C2920655   1.753   1.339   3.808  0.1739  0.4196 -0.0522
  181SLPC   H9R20656   1.730   1.249   3.749  1.5447 -0.3437  0.5189
  181SLPC  C21020657   1.800   1.324   3.935  0.8821 -0.1231  0.3753
  181SLPC  H10R20658   1.804   1.224   3.979 -0.0036 -1.2140 -1.8812
  181SLPC  C21120659   1.837   1.436   4.033  0.5526 -0.2629  0.0902
  181SLPC  H11R20660   1.738   1.464   4.075  0.1035 -1.2259 -0.3181
  181SLPC  H11S20661   1.881   1.521   3.976  1.0584 -0.2946  0.4272
  181SLPC  C21220662   1.950   1.416   4.134  0.1241  0.3416  0.5985
  181SLPC  H12R20663   2.010   1.324   4.123 -0.2879  0.3129 -2.3512
  181SLPC  C21320664   1.952   1.471   4.256  0.4416 -0.1537  0.2587
  181SLPC  H13R20665   2.031   1.434   4.323  0.6007 -0.9345 -0.3333
  181SLPC  C21420666   1.864   1.585   4.308  1.0410 -0.5027  0.1598
  181SLPC  H14R20667   1.760   1.576   4.269  1.7084 -1.6863 -1.4134
  181SLPC  H14S20668   1.890   1.679   4.254 -2.9564 -0.5814 -2.3286
  181SLPC  C21520669   1.864   1.627   4.455  0.2839  0.7687 -0.2938
  181SLPC  H15R20670   1.850   1.537   4.519  1.1064  1.2813  0.6383
  181SLPC  H15S20671   1.781   1.697   4.475 -0.7581 -0.2048 -1.0906
  181SLPC  C21620672   1.996   1.689   4.495 -0.2530  0.1077  0.7375
  181SLPC  H16R20673   2.032   1.761   4.419  0.2791 -0.9357 -0.0226
  181SLPC  H16S20674   2.079   1.616   4.509  0.1151  0.4132  0.1993
  181SLPC  C21720675   1.967   1.770   4.619  0.0811  0.0652 -0.7673
  181SLPC  H17R20676   1.947   1.702   4.704 -1.5559  0.9060 -0.4530
  181SLPC  H17S20677   1.874   1.828   4.607  0.8661  1.4413 -0.4510
  181SLPC  C21820678   2.074   1.858   4.671 -0.0379 -0.3521 -0.0254
  181SLPC  H18R20679   2.073   1.858   4.783 -0.4545  2.4804  0.0530
  181SLPC  H18S20680   2.089   1.959   4.626 -0.1817 -1.5021 -2.8273
  181SLPC  H18T20681   2.169   1.804   4.653  0.3462 -0.4395  2.0286
  181SLPC   C3320682   2.467   1.988   3.338 -0.0117  0.4755 -0.3389
  181SLPC   H3X20683   2.476   1.927   3.430 -0.5693 -0.3511 -0.8105
  181SLPC   H3Y20684   2.360   2.019   3.341 -0.3622 -0.7035 -0.0693
  181SLPC   C3420685   2.552   2.120   3.340  0.4429  0.5970  0.7143
  181SLPC   H4X20686   2.525   2.171   3.245  0.9486 -0.8214 -0.2205
  181SLPC   H4Y20687   2.661   2.109   3.357  0.5912  3.6420  2.3881
  181SLPC   C3520688   2.503   2.220   3.446  0.0224 -0.1056  0.5162
  181SLPC   H5X20689   2.402   2.244   3.407 -0.0953 -0.0223  0.8747
  181SLPC   H5Y20690   2.566   2.312   3.440  1.4445 -1.1109 -0.9552
  181SLPC   C3620691   2.484   2.170   3.591  0.1751 -0.3405 -0.1927
  181SLPC   H6X20692   2.580   2.137   3.637  0.1444  1.3330  1.1956
  181SLPC   H6Y20693   2.426   2.075   3.589  2.5195 -1.8844  0.7951
  181SLPC   C3720694   2.410   2.271   3.678 -0.5415  0.1347  0.2788
  181SLPC   H7X20695   2.323   2.304   3.617 -0.5084 -0.6335 -0.1920
  181SLPC   H7Y20696   2.461   2.369   3.690 -0.2903 -0.1670  1.8049
  181SLPC   C3820697   2.349   2.218   3.812  0.3342 -0.5122 -0.0371
  181SLPC   H8X20698   2.314   2.113   3.800 -1.0688 -0.0006 -0.6703
  181SLPC   H8Y20699   2.251   2.267   3.827  0.0160 -1.3898  0.8731
  181SLPC   C3920700   2.441   2.244   3.936  0.0253 -0.9859 -0.6126
  181SLPC   H9X20701   2.422   2.352   3.952  0.1713 -1.2849  1.9507
  181SLPC   H9Y20702   2.548   2.224   3.915  0.0562  0.0200 -1.4997
  181SLPC  C31020703   2.401   2.153   4.054 -0.2203 -0.1804  0.0092
  181SLPC  H10X20704   2.414   2.044   4.036  1.0333  0.0624 -0.7275
  181SLPC  H10Y20705   2.294   2.166   4.082 -0.1579  0.7707 -0.1616
  181SLPC  C31120706   2.473   2.191   4.180 -0.4470  0.9726  0.1064
  181SLPC  H11X20707   2.450   2.297   4.202  1.3254  1.0276  1.9986
  181SLPC  H11Y20708   2.581   2.168   4.169 -1.3524 -2.9967 -2.6037
  181SLPC  C31220709   2.432   2.094   4.295 -0.5953 -0.1560  0.0684
  181SLPC  H12X20710   2.457   1.988   4.277  2.1838  0.2011  1.3091
  181SLPC  H12Y20711   2.324   2.092   4.324 -0.5271 -0.3361  0.3111
  181SLPC  C31320712   2.498   2.141   4.433 -0.0825 -0.0255  0.3931
  181SLPC  H13X20713   2.506   2.252   4.441  1.8011 -0.1218  0.2695
  181SLPC  H13Y20714   2.602   2.102   4.443 -1.0327 -2.7188  0.2721
  181SLPC  C31420715   2.423   2.082   4.556  0.8093 -0.0020  0.8914
  181SLPC  H14X20716   2.429   1.971   4.562  1.7603 -0.0024  0.2338
  181SLPC  H14Y20717   2.316   2.107   4.542  1.1256  1.2463  0.5559
  181SLPC  C31520718   2.482   2.144   4.682  0.2616  0.4045  0.1460
  181SLPC  H15X20719   2.480   2.255   4.670 -1.7658  0.5430  1.3251
  181SLPC  H15Y20720   2.589   2.117   4.670 -0.3941 -1.6326 -1.8512
  181SLPC  C31620721   2.412   2.091   4.801  0.3793  0.4502 -1.0173
  181SLPC  H16X20722   2.439   1.986   4.824 -0.8205  0.6581  1.6808
  181SLPC  H16Y20723   2.302   2.083   4.794  0.3585 -2.6492  0.9340
  181SLPC  C31720724   2.441   2.162   4.935 -0.4745 -0.2115 -0.1007
  181SLPC  H17X20725   2.417   2.270   4.925 -0.0250 -0.2045 -1.3311
  181SLPC  H17Y20726   2.551   2.148   4.942 -0.5221 -2.7901 -2.6066
  181SLPC  C31820727   2.373   2.095   5.052  0.0376  0.0071 -0.0101
  181SLPC  H18X20728   2.389   2.146   5.150 -0.7221 -2.1529  1.2954
  181SLPC  H18Y20729   2.405   1.991   5.071  0.3038 -0.0687 -0.8320
  181SLPC  H18Z20730   2.264   2.081   5.035  0.0793 -0.8206  0.3610
  182SLPC     N20731   1.427   2.827   2.550 -0.4749 -0.3925 -0.8062
  182SLPC   C1320732   1.355   2.733   2.471  0.1437  0.6316  0.5912
  182SLPC  H13A20733   1.355   2.780   2.373 -0.2427  0.2308  0.3953
  182SLPC  H13B20734   1.403   2.637   2.459  0.0615  0.8487 -2.2228
  182SLPC  H13C20735   1.253   2.716   2.502  0.2222  0.5366  0.7953
  182SLPC   C1420736   1.381   2.965   2.524 -0.0667 -0.2807 -0.7342
  182SLPC  H14A20737   1.286   2.970   2.574  0.3278 -0.6636  0.0719
  182SLPC  H14B20738   1.434   3.033   2.589 -3.5712 -1.5968  4.0742
  182SLPC  H14C20739   1.367   2.988   2.419  1.6851 -2.3078 -1.4835
  182SLPC   C1520740   1.569   2.814   2.505  0.6415  0.7290  0.2006
  182SLPC  H15A20741   1.634   2.870   2.570  1.9938  1.2381 -1.5112
  182SLPC  H15B20742   1.595   2.710   2.518  1.3170  0.9233  0.4042
  182SLPC  H15C20743   1.589   2.847   2.404  0.8666 -0.1691 -0.0591
  182SLPC   C1220744   1.418   2.784   2.699  0.1395  0.3875  0.3072
  182SLPC  H12A20745   1.464   2.862   2.758 -1.7921  0.4309  1.8399
  182SLPC  H12B20746   1.467   2.688   2.709  0.4892  0.2658 -1.9877
  182SLPC   C1120747   1.282   2.780   2.773 -0.2594  0.1455  0.4553
  182SLPC  H11A20748   1.290   2.738   2.875  0.0266  1.0178  0.8018
  182SLPC  H11B20749   1.220   2.702   2.724 -0.5516 -0.7821  2.2457
  182SLPC     P20750   1.250   3.004   2.895  0.2916  0.1292  0.3070
  182SLPC   O1320751   1.389   2.982   2.944  0.4257 -0.2913 -0.2623
  182SLPC   O1420752   1.214   3.144   2.851 -0.5890  0.2113  0.3041
  182SLPC   O1220753   1.220   2.908   2.780 -0.0688  0.1010 -0.7835
  182SLPC   O1120754   1.150   2.954   3.004  0.2559  0.2745 -0.6566
  182SLPC    C120755   1.010   2.966   2.991 -0.0870 -0.3182 -0.6414
  182SLPC    HA20756   0.980   3.073   2.984 -0.2464 -0.1744  1.5433
  182SLPC    HB20757   0.975   2.899   2.910 -1.6741 -0.0600 -0.2027
  182SLPC    C220758   0.941   2.902   3.107  0.4407 -0.5572  0.0153
  182SLPC    HS20759   0.847   2.863   3.061 -0.0129  0.7927 -0.2512
  182SLPC   O2120760   0.918   3.000   3.206  0.4313  0.0584 -0.2919
  182SLPC   C2120761   0.814   2.991   3.282  0.0767 -0.0667  0.9657
  182SLPC   O2220762   0.731   2.903   3.277  0.0708  0.2387 -0.5004
  182SLPC   C2220763   0.820   3.100   3.386  0.3126 -0.1273 -0.1174
  182SLPC   H2R20764   0.890   3.068   3.466 -0.2933 -2.3292 -0.3971
  182SLPC   H2S20765   0.853   3.188   3.326  2.5265 -0.7667  0.0522
  182SLPC    C320766   1.022   2.782   3.159 -0.1502  0.6677  0.4223
  182SLPC    HX20767   1.118   2.829   3.191  0.4072 -0.0806 -0.1089
  182SLPC    HY20768   1.056   2.717   3.076 -0.3348  1.2705 -0.1318
  182SLPC   O3120769   0.959   2.697   3.262  0.0050 -0.3719  0.4327
  182SLPC   C3120770   0.908   2.583   3.228  0.8228  0.0344  0.6825
  182SLPC   O3220771   0.930   2.520   3.125  0.7955 -0.4406  0.2526
  182SLPC   C3220772   0.837   2.519   3.350  0.2914 -0.7707 -0.2174
  182SLPC   H2X20773   0.907   2.435   3.368 -1.4429 -2.4121 -0.8009
  182SLPC   H2Y20774   0.738   2.481   3.318 -0.9484  0.3349  2.0687
  182SLPC   C2320775   0.688   3.135   3.473  0.0932 -0.0998 -0.3551
  182SLPC   H3R20776   0.633   3.039   3.483  3.5791 -2.5591 -2.5110
  182SLPC   H3S20777   0.629   3.203   3.407 -1.9502 -0.8893  0.5886
  182SLPC   C2420778   0.728   3.214   3.591 -0.4551 -0.2646  0.0076
  182SLPC   H4R20779   0.638   3.268   3.628  0.2035  1.9691 -1.4668
  182SLPC   H4S20780   0.809   3.281   3.555 -0.4817  0.3525  1.0732
  182SLPC   C2520781   0.789   3.141   3.716  0.2282 -0.3695  0.1464
  182SLPC   H5R20782   0.887   3.096   3.690  0.7847  0.1779  1.2251
  182SLPC   H5S20783   0.719   3.071   3.767  1.2599 -0.5927  1.2913
  182SLPC   C2620784   0.814   3.255   3.823  0.3601  0.5496  0.7911
  182SLPC   H6R20785   0.723   3.319   3.821 -1.3619 -1.7897  0.1132
  182SLPC   H6S20786   0.897   3.319   3.788 -0.3054  2.2217  2.1113
  182SLPC   C2720787   0.847   3.191   3.957 -0.1459 -0.3487 -0.4697
  182SLPC   H7R20788   0.903   3.096   3.944  1.3792  0.9140 -4.6696
  182SLPC   H7S20789   0.752   3.167   4.009  0.6246 -2.5397  0.0598
  182SLPC   C2820790   0.918   3.292   4.054  0.6459 -0.2067 -0.2319
  182SLPC   H8R20791   0.864   3.389   4.052  2.3004  0.8485  1.8783
  182SLPC   H8S20792   1.018   3.315   4.012  1.6818  1.5967  2.8575
  182SLPC   C2920793   0.935   3.231   4.187 -0.3240  0.4452 -0.1599
  182SLPC   H9R20794   1.005   3.147   4.192 -0.7608  0.1639  1.7033
  182SLPC  C21020795   0.880   3.273   4.307  0.4733  0.1800 -0.2449
  182SLPC  H10R20796   0.901   3.203   4.389  0.6805  0.6498  0.1109
  182SLPC  C21120797   0.765   3.368   4.336 -0.7430  0.4384 -0.3396
  182SLPC  H11R20798   0.678   3.325   4.390 -1.5026 -0.6945 -2.3574
  182SLPC  H11S20799   0.717   3.404   4.242 -0.8278 -1.6574 -1.1448
  182SLPC  C21220800   0.813   3.502   4.393 -0.0301  1.4597 -0.0609
  182SLPC  H12R20801   0.842   3.583   4.325 -0.1224  1.6961  0.1764
  182SLPC  C21320802   0.802   3.530   4.522 -0.4232 -0.3159 -0.6123
  182SLPC  H13R20803   0.843   3.631   4.537 -0.0369 -0.8291  2.2168
  182SLPC  C21420804   0.766   3.441   4.642 -0.2699  0.0728 -0.3535
  182SLPC  H14R20805   0.761   3.332   4.622 -2.9304  0.2120 -0.8229
  182SLPC  H14S20806   0.662   3.472   4.668 -0.2916  0.2296 -0.6283
  182SLPC  C21520807   0.858   3.463   4.758  0.2281  0.2661  0.5655
  182SLPC  H15R20808   0.859   3.572   4.780  0.6603  0.8701 -2.0962
  182SLPC  H15S20809   0.961   3.436   4.727  0.0659  2.6931 -2.5582
  182SLPC  C21620810   0.795   3.383   4.879  0.0451 -0.4101  0.1589
  182SLPC  H16R20811   0.785   3.278   4.846  0.7509  0.3261 -2.6977
  182SLPC  H16S20812   0.694   3.429   4.884  0.8366  1.4350  0.0157
  182SLPC  C21720813   0.863   3.398   5.014 -0.7501 -0.1432 -0.2989
  182SLPC  H17R20814   0.779   3.374   5.082 -0.8674 -0.4293 -0.5469
  182SLPC  H17S20815   0.909   3.498   5.033  1.3644 -1.0191 -0.4635
  182SLPC  C21820816   0.975   3.290   5.048  0.0252 -0.0367 -0.4618
  182SLPC  H18R20817   0.979   3.283   5.159 -2.3086 -1.4087 -0.3981
  182SLPC  H18S20818   1.072   3.316   5.000  0.3028 -0.2421 -0.0220
  182SLPC  H18T20819   0.945   3.192   5.007  0.5137 -0.1617 -0.5302
  182SLPC   C3320820   0.829   2.607   3.471  0.0043  0.3840  0.5359
  182SLPC   H3X20821   0.746   2.679   3.457 -1.3323 -1.1806 -0.0090
  182SLPC   H3Y20822   0.919   2.670   3.484  0.8183 -0.1642 -1.9389
  182SLPC   C3420823   0.799   2.530   3.608  0.1079  0.4977  0.3023
  182SLPC   H4X20824   0.880   2.453   3.614 -1.1742 -0.9987 -0.8630
  182SLPC   H4Y20825   0.698   2.484   3.601 -0.1628  1.2728 -1.2874
  182SLPC   C3520826   0.804   2.614   3.742  0.6234  0.0420  0.3256
  182SLPC   H5X20827   0.743   2.705   3.727  1.3614  0.3973 -0.5979
  182SLPC   H5Y20828   0.905   2.658   3.756  0.2369  1.3365 -0.7450
  182SLPC   C3620829   0.759   2.538   3.863 -0.1524 -0.5815 -0.0223
  182SLPC   H6X20830   0.803   2.435   3.865  2.7947  0.5760  0.8228
  182SLPC   H6Y20831   0.648   2.538   3.855 -0.2916 -1.0410  1.6133
  182SLPC   C3720832   0.804   2.610   3.991  0.2922 -0.6557 -0.8525
  182SLPC   H7X20833   0.789   2.719   3.983 -1.7881 -0.8839 -0.5970
  182SLPC   H7Y20834   0.907   2.577   4.014  0.8413  1.2129 -0.4949
  182SLPC   C3820835   0.710   2.567   4.103  0.2284 -0.5441 -0.0012
  182SLPC   H8X20836   0.688   2.458   4.102  1.1110 -0.7268 -0.3444
  182SLPC   H8Y20837   0.621   2.633   4.109  2.8221  3.2929 -0.1213
  182SLPC   C3920838   0.777   2.593   4.234  0.1279  0.4087  0.8080
  182SLPC   H9X20839   0.805   2.700   4.241 -1.3136  0.9965 -1.5171
  182SLPC   H9Y20840   0.862   2.521   4.236  0.2170  0.4117 -1.2900
  182SLPC  C31020841   0.697   2.557   4.354  0.4178  0.5734  0.0025
  182SLPC  H10X20842   0.670   2.449   4.351 -0.4396  0.7897 -0.3932
  182SLPC  H10Y20843   0.605   2.620   4.351 -1.3000 -1.8018  0.0514
  182SLPC  C31120844   0.784   2.563   4.484 -0.0252 -0.0802 -0.1917
  182SLPC  H11X20845   0.843   2.657   4.487 -1.0318  0.5395  1.0337
  182SLPC  H11Y20846   0.851   2.474   4.484 -0.9160 -0.8025  1.4552
  182SLPC  C31220847   0.704   2.553   4.620 -0.6444 -0.2953 -0.4565
  182SLPC  H12X20848   0.610   2.495   4.607 -0.4046 -0.6384 -0.6855
  182SLPC  H12Y20849   0.661   2.653   4.639 -1.6098 -0.7509 -0.1787
  182SLPC  C31320850   0.791   2.505   4.741 -0.1610  0.2275 -0.4177
  182SLPC  H13X20851   0.880   2.572   4.749  0.2084 -0.1458 -1.3107
  182SLPC  H13Y20852   0.823   2.403   4.714 -0.9948  0.1722 -1.2454
  182SLPC  C31420853   0.707   2.506   4.874 -0.7815  0.1425  0.5825
  182SLPC  H14X20854   0.606   2.468   4.847 -0.0268 -3.0436  1.7832
  182SLPC  H14Y20855   0.701   2.609   4.917  0.7011 -0.0648  1.3574
  182SLPC  C31520856   0.774   2.432   4.987 -0.1901  0.5019 -0.5349
  182SLPC  H15X20857   0.882   2.457   4.997  0.1949 -1.5530  1.1694
  182SLPC  H15Y20858   0.778   2.323   4.965  0.4059  0.0476  1.5894
  182SLPC  C31620859   0.721   2.439   5.133 -0.3701  0.1669  0.0417
  182SLPC  H16X20860   0.615   2.407   5.119 -0.5865  1.5133 -1.8030
  182SLPC  H16Y20861   0.724   2.547   5.158 -0.4755 -0.0401  0.9769
  182SLPC  C31720862   0.796   2.354   5.234  0.2715 -0.4020 -0.7569
  182SLPC  H17X20863   0.899   2.337   5.197  0.6768 -0.2145  0.2779
  182SLPC  H17Y20864   0.751   2.253   5.219  1.4404 -1.0910  0.2005
  182SLPC  C31820865   0.791   2.403   5.377  0.0463 -0.3727 -0.1727
  182SLPC  H18X20866   0.687   2.414   5.414  0.2060  1.6275 -0.1923
  182SLPC  H18Y20867   0.835   2.505   5.377 -2.1202  0.6410 -1.7590
  182SLPC  H18Z20868   0.849   2.354   5.458  3.0832  0.8053 -1.4890
  183SLPC     N20869   0.739   3.345   2.376 -0.0213 -0.1797  0.3853
  183SLPC   C1320870   0.626   3.249   2.378  0.4605 -0.4072 -0.3956
  183SLPC  H13A20871   0.662   3.152   2.410  1.1010  0.5047  1.8289
  183SLPC  H13B20872   0.546   3.284   2.442  2.3112  3.3623  0.1124
  183SLPC  H13C20873   0.580   3.242   2.281 -1.3901 -1.6907  0.4927
  183SLPC   C1420874   0.697   3.483   2.319  0.2477  0.2292 -0.1130
  183SLPC  H14A20875   0.601   3.505   2.362  0.7043  1.9954  0.0999
  183SLPC  H14B20876   0.780   3.553   2.322  1.5505 -1.2639 -0.1228
  183SLPC  H14C20877   0.669   3.466   2.216 -0.3783 -2.3091  0.4180
  183SLPC   C1520878   0.838   3.291   2.275  0.1722  0.0337 -0.1842
  183SLPC  H15A20879   0.916   3.363   2.255 -0.1795  0.2361 -0.8527
  183SLPC  H15B20880   0.883   3.197   2.304  0.2539  0.5158  1.3282
  183SLPC  H15C20881   0.784   3.291   2.181  2.2607  0.4585 -1.4563
  183SLPC   C1220882   0.806   3.363   2.511  0.8313 -0.6792  0.7142
  183SLPC  H12A20883   0.903   3.408   2.492 -0.9892  2.6928 -1.5368
  183SLPC  H12B20884   0.814   3.262   2.550  2.4049 -0.8037  0.1630
  183SLPC   C1120885   0.717   3.451   2.613  0.1008  0.0168 -0.4079
  183SLPC  H11A20886   0.724   3.560   2.593 -3.0544  0.2361 -0.7012
  183SLPC  H11B20887   0.765   3.429   2.711 -0.0495  0.7361 -0.1695
  183SLPC     P20888   0.457   3.506   2.626 -0.3043 -0.2193 -0.3198
  183SLPC   O1320889   0.452   3.596   2.506  0.1642 -0.5196  0.2782
  183SLPC   O1420890   0.345   3.419   2.651  0.9896 -0.4659  0.0435
  183SLPC   O1220891   0.581   3.412   2.621  0.0322 -0.3746 -0.3729
  183SLPC   O1120892   0.479   3.602   2.751  0.4923  0.5747  0.0897
  183SLPC    C120893   0.486   3.549   2.882  1.3548  0.3334  0.1869
  183SLPC    HA20894   0.519   3.443   2.879 -0.8944 -0.4583  1.3164
  183SLPC    HB20895   0.558   3.609   2.941 -0.7263  1.3429  1.8421
  183SLPC    C220896   0.351   3.558   2.964  0.3712  0.4357  0.7987
  183SLPC    HS20897   0.275   3.505   2.902  0.6847  0.4788  0.3750
  183SLPC   O2120898   0.313   3.692   2.992 -0.2817  0.5944  0.0584
  183SLPC   C2120899   0.192   3.726   2.970  0.2851  0.2288 -0.2982
  183SLPC   O2220900   0.104   3.651   2.925 -1.0612 -0.1746 -0.4966
  183SLPC   C2220901   0.169   3.876   3.014  0.0253  0.2557 -0.9156
  183SLPC   H2R20902   0.272   3.916   3.012  0.9757 -1.9144 -4.1181
  183SLPC   H2S20903   0.106   3.916   2.931 -3.0683 -0.8011  0.7550
  183SLPC    C320904   0.353   3.494   3.103  0.4750 -0.3237  1.0285
  183SLPC    HX20905   0.419   3.563   3.159  0.6565 -0.5537  1.0980
  183SLPC    HY20906   0.403   3.394   3.098  0.1887 -0.4207 -0.4424
  183SLPC   O3120907   0.230   3.493   3.167  0.3120 -0.4335  0.1195
  183SLPC   C3120908   0.149   3.385   3.155  0.2724  0.1245 -0.1514
  183SLPC   O3220909   0.160   3.304   3.070  0.3382  0.2564 -0.0533
  183SLPC   C3220910   0.026   3.396   3.251 -1.0395 -0.7156  0.7435
  183SLPC   H2X20911  -0.058   3.344   3.199 -0.1896 -3.2054  1.7148
  183SLPC   H2Y20912  -0.004   3.502   3.264  0.0877 -0.0550 -1.5520
  183SLPC   C2320913   0.107   3.893   3.158 -0.2374  0.7712  0.3411
  183SLPC   H3R20914   0.030   3.813   3.161 -0.3550  0.7344 -1.9162
  183SLPC   H3S20915   0.058   3.991   3.177 -1.0176  0.0919  1.9764
  183SLPC   C2420916   0.200   3.864   3.273 -0.0351 -0.1379  0.3115
  183SLPC   H4R20917   0.263   3.954   3.287 -2.0976  1.5944 -0.7929
  183SLPC   H4S20918   0.257   3.774   3.240  1.7638  1.2759 -0.5959
  183SLPC   C2520919   0.140   3.831   3.408 -0.9600 -0.0035 -0.1357
  183SLPC   H5R20920   0.060   3.756   3.387  0.1232 -0.6551 -2.1784
  183SLPC   H5S20921   0.096   3.923   3.451  0.4066  0.5185  0.1815
  183SLPC   C2620922   0.241   3.781   3.513 -0.0442  0.4481  0.2515
  183SLPC   H6R20923   0.326   3.850   3.533  0.6669 -0.1981 -0.5225
  183SLPC   H6S20924   0.275   3.679   3.484 -1.0380  0.1294  0.1680
  183SLPC   C2720925   0.161   3.764   3.645  0.1930 -0.6885  0.5384
  183SLPC   H7R20926   0.196   3.669   3.690 -2.1241 -1.9345 -0.0844
  183SLPC   H7S20927   0.057   3.730   3.623 -1.0445  0.3717  4.0579
  183SLPC   C2820928   0.170   3.885   3.742 -0.1363  0.1245 -0.2369
  183SLPC   H8R20929   0.118   3.965   3.686 -3.5802 -1.5105  0.3400
  183SLPC   H8S20930   0.269   3.930   3.761 -0.4111  0.9438 -0.7346
  183SLPC   C2920931   0.092   3.868   3.868  0.1638 -0.0024  0.2136
  183SLPC   H9R20932   0.047   3.768   3.879 -2.9781  1.3511  0.7418
  183SLPC  C21020933   0.072   3.967   3.958  0.3284  0.6651 -0.2716
  183SLPC  H10R20934   0.001   3.951   4.040  2.0974 -1.8668  0.8614
  183SLPC  C21120935   0.115   4.106   3.940  0.6372 -0.6716  0.8771
  183SLPC  H11R20936   0.204   4.125   3.876 -0.3383  0.5510 -0.1849
  183SLPC  H11S20937   0.135   4.148   4.041 -0.7025  1.0092  0.4963
  183SLPC  C21220938  -0.005   4.188   3.880 -0.2656 -0.3419  0.3020
  183SLPC  H12R20939  -0.033   4.154   3.779  0.8959 -1.0667  0.2037
  183SLPC  C21320940  -0.071   4.287   3.938  0.4388 -0.1157 -0.3926
  183SLPC  H13R20941  -0.153   4.343   3.892 -0.5637 -1.8434 -0.7623
  183SLPC  C21420942  -0.059   4.333   4.078 -0.6197 -0.1558  0.1691
  183SLPC  H14R20943  -0.048   4.442   4.060  1.2206 -0.3367  0.0337
  183SLPC  H14S20944   0.024   4.296   4.142  0.3013  0.2183 -0.7852
  183SLPC  C21520945  -0.184   4.317   4.165  0.6232  0.5159 -0.2799
  183SLPC  H15R20946  -0.199   4.207   4.176  1.0054  0.4021 -0.8651
  183SLPC  H15S20947  -0.278   4.363   4.126  1.0540  2.3342  0.7207
  183SLPC  C21620948  -0.166   4.379   4.304 -0.6588  0.7922  0.1175
  183SLPC  H16R20949  -0.163   4.488   4.284  1.5821  0.5545 -1.1858
  183SLPC  H16S20950  -0.069   4.334   4.336 -0.1246  0.0701 -2.3170
  183SLPC  C21720951  -0.266   4.354   4.418 -0.4762  0.3929  0.6146
  183SLPC  H17R20952  -0.220   4.408   4.503 -0.7418  1.8374 -0.1403
  183SLPC  H17S20953  -0.271   4.250   4.458 -1.1160  0.0693 -0.2691
  183SLPC  C21820954  -0.406   4.401   4.394  1.1863 -0.4544 -0.3080
  183SLPC  H18R20955  -0.466   4.362   4.479  3.1515 -1.8577  0.5319
  183SLPC  H18S20956  -0.441   4.364   4.295  0.5203  2.1294 -1.1101
  183SLPC  H18T20957  -0.408   4.512   4.394  1.3375 -0.4272  1.4118
  183SLPC   C3320958   0.062   3.322   3.384 -0.7500 -0.1190  0.7236
  183SLPC   H3X20959   0.152   3.367   3.430 -0.4907  0.0651  0.0511
  183SLPC   H3Y20960   0.097   3.217   3.369 -2.8550 -1.0372  1.8314
  183SLPC   C3420961  -0.046   3.333   3.496  0.2164 -0.3642 -0.4031
  183SLPC   H4X20962  -0.140   3.274   3.481 -0.9141  0.6019  2.2308
  183SLPC   H4Y20963  -0.077   3.439   3.505 -2.4624 -1.0044 -1.1831
  183SLPC   C3520964   0.004   3.283   3.632  0.8424  0.0681  0.7059
  183SLPC   H5X20965   0.072   3.196   3.622  0.2400 -0.5308  1.6848
  183SLPC   H5Y20966  -0.084   3.255   3.694  0.8673  1.4302  1.3935
  183SLPC   C3620967   0.090   3.395   3.702  0.6984 -0.4923  0.5927
  183SLPC   H6X20968   0.027   3.486   3.700  1.9408  0.4534  2.0162
  183SLPC   H6Y20969   0.185   3.420   3.649  0.6955 -1.4563  0.1053
  183SLPC   C3720970   0.116   3.355   3.846 -0.7620 -0.2994 -0.0340
  183SLPC   H7X20971   0.201   3.415   3.885 -2.0140  1.7069 -0.1981
  183SLPC   H7Y20972   0.160   3.253   3.841  0.3403  0.2105 -2.2635
  183SLPC   C3820973  -0.001   3.361   3.943  0.5433  0.4066 -0.5719
  183SLPC   H8X20974  -0.075   3.298   3.888  0.5709 -0.8851  0.7914
  183SLPC   H8Y20975  -0.043   3.463   3.934 -1.3339 -0.3427 -0.8952
  183SLPC   C3920976   0.011   3.315   4.083  0.0257 -0.1443  0.5582
  183SLPC   H9X20977   0.042   3.209   4.096  1.8603  0.3708  0.6754
  183SLPC   H9Y20978  -0.091   3.309   4.125 -0.7652 -0.7873 -1.3512
  183SLPC  C31020979   0.088   3.411   4.174  0.6058 -0.2545 -0.1076
  183SLPC  H10X20980   0.194   3.402   4.142  0.3931  1.7388 -1.4861
  183SLPC  H10Y20981   0.084   3.386   4.283  0.8043  1.0446  0.2102
  183SLPC  C31120982   0.058   3.561   4.179  1.0041  0.0573 -0.4897
  183SLPC  H11X20983   0.055   3.610   4.079 -1.5447 -0.1848 -0.5780
  183SLPC  H11Y20984   0.143   3.612   4.230  1.4716 -1.8925  0.7655
  183SLPC  C31220985  -0.079   3.596   4.247 -0.1979  0.1487  0.0626
  183SLPC  H12X20986  -0.077   3.584   4.358  0.1563 -2.0613 -0.1301
  183SLPC  H12Y20987  -0.161   3.537   4.200  0.3493 -0.4144 -0.2097
  183SLPC  C31320988  -0.130   3.744   4.223 -0.1537  0.4502 -0.6489
  183SLPC  H13X20989  -0.232   3.762   4.264  0.0971  1.1449 -0.3239
  183SLPC  H13Y20990  -0.163   3.752   4.117 -0.6836  0.6782 -0.4730
  183SLPC  C31420991  -0.035   3.856   4.271  0.3596  0.1803 -0.0447
  183SLPC  H14X20992  -0.074   3.949   4.223  1.1560 -0.2774 -1.6726
  183SLPC  H14Y20993   0.067   3.848   4.228  0.6720  1.2422  0.4764
  183SLPC  C31520994  -0.022   3.868   4.426  0.5375  0.4268 -0.1447
  183SLPC  H15X20995   0.023   3.771   4.458 -0.4475  0.1098  0.3248
  183SLPC  H15Y20996  -0.118   3.886   4.479 -0.2027 -0.8316 -0.9975
  183SLPC  C31620997   0.068   3.986   4.463 -0.5791  0.3075 -0.2450
  183SLPC  H16X20998   0.039   4.073   4.401 -2.9133 -0.1330  0.1438
  183SLPC  H16Y20999   0.173   3.953   4.443 -0.6530 -0.5127  0.6350
  183SLPC  C31721000   0.050   4.019   4.613 -0.0998 -0.2426 -0.1371
  183SLPC  H17X21001   0.103   3.938   4.668 -0.8796  0.5482  1.8689
  183SLPC  H17Y21002  -0.059   4.005   4.634 -0.0850  1.6470  1.4449
  183SLPC  C31821003   0.090   4.165   4.650 -0.1638 -1.0975  0.0003
  183SLPC  H18X21004   0.201   4.169   4.658 -0.3064  0.3367  2.0516
  183SLPC  H18Y21005   0.055   4.194   4.752 -0.7138 -0.2796 -0.4106
  183SLPC  H18Z21006   0.054   4.247   4.584  1.1958 -0.4656  0.0006
  184SLPC     N21007   0.572   5.933   2.451 -0.0445  0.3915 -0.2669
  184SLPC   C1321008   0.443   5.985   2.421  0.0670 -0.4712 -0.6667
  184SLPC  H13A21009   0.422   6.077   2.473 -3.7244 -1.7705  0.4291
  184SLPC  H13B21010   0.429   6.013   2.318  0.3237  1.4066 -0.2316
  184SLPC  H13C21011   0.361   5.916   2.434 -0.7509  0.5880  0.0424
  184SLPC   C1421012   0.686   6.028   2.430 -0.6213  0.0571  0.4580
  184SLPC  H14A21013   0.693   6.079   2.335  1.8106 -0.1797  0.4476
  184SLPC  H14B21014   0.687   6.107   2.504 -0.8603 -0.0595  0.5827
  184SLPC  H14C21015   0.778   5.974   2.447  0.1758  0.9136 -0.9105
  184SLPC   C1521016   0.597   5.813   2.355  0.4478 -0.0122  0.2523
  184SLPC  H15A21017   0.702   5.790   2.354  0.5211  0.3162  0.2330
  184SLPC  H15B21018   0.545   5.722   2.382 -0.9782  1.0656  1.3429
  184SLPC  H15C21019   0.571   5.841   2.254 -0.4725 -0.6818  0.2887
  184SLPC   C1221020   0.571   5.885   2.593 -1.0478  0.6787 -0.3201
  184SLPC  H12A21021   0.486   5.825   2.619 -0.6866  1.2212  2.4428
  184SLPC  H12B21022   0.567   5.975   2.653 -0.6408  0.1854  0.4523
  184SLPC   C1121023   0.694   5.812   2.656 -0.1737 -0.0216  0.1764
  184SLPC  H11A21024   0.683   5.806   2.767 -0.7171 -1.5538  0.0527
  184SLPC  H11B21025   0.788   5.870   2.641 -0.2238  0.1050  0.3478
  184SLPC     P21026   0.644   5.551   2.605 -0.2441 -0.1280 -0.1018
  184SLPC   O1321027   0.507   5.584   2.659  0.2591  0.7155 -0.1025
  184SLPC   O1421028   0.649   5.474   2.483  0.1944  0.2821  0.2202
  184SLPC   O1221029   0.728   5.692   2.597  0.5730 -0.5063  0.0589
  184SLPC   O1121030   0.720   5.472   2.714 -0.0159 -0.2213  0.4302
  184SLPC    C121031   0.762   5.532   2.839 -0.2491  0.2942  0.8101
  184SLPC    HA21032   0.864   5.575   2.826 -0.2476  0.4255  1.2339
  184SLPC    HB21033   0.688   5.602   2.885 -1.8518 -0.7485 -0.0924
  184SLPC    C221034   0.783   5.424   2.955  0.1460  0.4611  0.0327
  184SLPC    HS21035   0.877   5.376   2.920  0.6095 -1.2891  3.2955
  184SLPC   O2121036   0.665   5.344   2.972 -0.0186 -0.5712  0.7589
  184SLPC   C2121037   0.693   5.221   3.008 -0.3308  0.0257 -0.1094
  184SLPC   O2221038   0.807   5.179   3.029 -0.2355 -0.1713  0.0626
  184SLPC   C2221039   0.575   5.128   3.008  0.9397 -0.6632 -1.8807
  184SLPC   H2R21040   0.479   5.183   2.994  0.0386 -2.0553 -1.3987
  184SLPC   H2S21041   0.592   5.056   2.926  0.8868  0.3689 -2.8270
  184SLPC    C321042   0.814   5.494   3.094 -0.4813  0.0461  0.0672
  184SLPC    HX21043   0.727   5.550   3.135  0.7034 -0.0502  2.9009
  184SLPC    HY21044   0.891   5.573   3.078  0.6841 -1.1329 -0.2591
  184SLPC   O3121045   0.856   5.399   3.197 -0.7644  0.0123  0.2899
  184SLPC   C3121046   0.985   5.369   3.203 -0.2732 -0.5338 -0.4238
  184SLPC   O3221047   1.076   5.425   3.140  0.3806  0.0413  0.6829
  184SLPC   C3221048   1.009   5.266   3.312  0.0283 -0.3985 -0.4741
  184SLPC   H2X21049   1.051   5.325   3.395 -2.8246  0.5684  0.4149
  184SLPC   H2Y21050   1.099   5.208   3.280  1.5755  1.4101  0.4430
  184SLPC   C2321051   0.543   5.064   3.146 -0.0917 -0.6868 -0.2131
  184SLPC   H3R21052   0.635   5.014   3.181  1.0474  0.2734 -1.7235
  184SLPC   H3S21053   0.455   4.999   3.127 -0.1391 -0.1958 -1.8234
  184SLPC   C2421054   0.508   5.168   3.255  0.2047  0.3256 -1.2502
  184SLPC   H4R21055   0.411   5.222   3.251 -0.9380 -1.4351  0.5290
  184SLPC   H4S21056   0.590   5.242   3.255  1.3799 -0.9201 -1.0825
  184SLPC   C2521057   0.506   5.103   3.394 -0.0654  0.1257 -0.3890
  184SLPC   H5R21058   0.594   5.039   3.416 -0.8144 -0.5218  0.7972
  184SLPC   H5S21059   0.416   5.042   3.414  1.8095 -2.5218  0.4425
  184SLPC   C2621060   0.493   5.218   3.500 -0.8331  0.5130 -0.4521
  184SLPC   H6R21061   0.388   5.250   3.482 -0.6460  0.6520 -1.3356
  184SLPC   H6S21062   0.556   5.303   3.466 -0.9635  1.9020  2.4040
  184SLPC   C2721063   0.523   5.181   3.645 -0.5461 -0.4803 -0.1155
  184SLPC   H7R21064   0.514   5.281   3.693  2.2048 -0.2996  0.1841
  184SLPC   H7S21065   0.621   5.139   3.675  0.0747  1.1842  0.2935
  184SLPC   C2821066   0.417   5.097   3.716  0.6686 -0.6467 -0.2358
  184SLPC   H8R21067   0.442   4.990   3.699  2.5561 -0.4958  1.2320
  184SLPC   H8S21068   0.319   5.117   3.667  1.1677  1.3029 -0.5079
  184SLPC   C2921069   0.414   5.113   3.869 -0.2967 -0.0239  0.3206
  184SLPC   H9R21070   0.333   5.179   3.905 -0.2687 -0.0763  0.4805
  184SLPC  C21021071   0.500   5.068   3.956 -0.2929  0.4426  0.3620
  184SLPC  H10R21072   0.497   5.106   4.059  0.4764  0.7634  0.2738
  184SLPC  C21121073   0.612   4.963   3.927  0.5397  0.3441  0.6399
  184SLPC  H11R21074   0.633   4.959   3.818 -0.3581  0.1434  0.4665
  184SLPC  H11S21075   0.567   4.865   3.952  0.1753  0.5366  0.7509
  184SLPC  C21221076   0.747   4.982   3.989  0.0333  0.5250 -0.5710
  184SLPC  H12R21077   0.816   5.056   3.947 -0.2122  1.6433  0.8863
  184SLPC  C21321078   0.789   4.928   4.104 -0.4060  0.1493 -0.8788
  184SLPC  H13R21079   0.888   4.962   4.139 -0.3298  2.6366 -3.1362
  184SLPC  C21421080   0.703   4.849   4.202 -0.0120  0.3957 -0.2901
  184SLPC  H14R21081   0.754   4.754   4.227 -0.4867  0.3383  0.4844
  184SLPC  H14S21082   0.603   4.821   4.163 -0.1838  0.5543  0.0328
  184SLPC  C21521083   0.704   4.919   4.335 -0.1997  1.0270  0.8499
  184SLPC  H15R21084   0.655   5.017   4.318 -0.7413  0.2758 -3.0347
  184SLPC  H15S21085   0.807   4.934   4.374 -0.4214 -0.3708  2.0741
  184SLPC  C21621086   0.637   4.836   4.444  0.0272  0.3293 -0.2852
  184SLPC  H16R21087   0.686   4.736   4.451 -0.8266 -0.1229 -0.6471
  184SLPC  H16S21088   0.529   4.821   4.421 -0.0193 -0.4180  0.3816
  184SLPC  C21721089   0.638   4.904   4.586  0.3079  0.7592  0.1036
  184SLPC  H17R21090   0.613   5.012   4.580  1.1242  0.9942  0.8284
  184SLPC  H17S21091   0.741   4.887   4.622  1.3569  0.7270 -2.6817
  184SLPC  C21821092   0.546   4.840   4.689  0.4463 -0.4722  0.0435
  184SLPC  H18R21093   0.519   4.906   4.774  1.8265 -0.0878  0.2042
  184SLPC  H18S21094   0.594   4.746   4.723 -0.7588 -0.4941  1.8390
  184SLPC  H18T21095   0.456   4.821   4.625  0.3480  0.6338 -0.1709
  184SLPC   C3321096   0.887   5.180   3.357  0.1847 -0.0017  0.5010
  184SLPC   H3X21097   0.825   5.146   3.272  0.7356  0.9538 -0.3045
  184SLPC   H3Y21098   0.827   5.256   3.412  3.3510  2.0014  1.4402
  184SLPC   C3421099   0.939   5.066   3.440  0.0598  1.0622 -0.2944
  184SLPC   H4X21100   1.007   5.013   3.370  0.1118  1.6430 -0.6977
  184SLPC   H4Y21101   0.857   4.998   3.470  2.1451 -1.2709  0.3886
  184SLPC   C3521102   1.010   5.100   3.571 -0.0660  1.1348 -0.2587
  184SLPC   H5X21103   0.953   5.184   3.616  0.2784  1.2568 -0.0437
  184SLPC   H5Y21104   1.114   5.137   3.558  0.6242  1.2855  4.2438
  184SLPC   C3621105   1.021   4.974   3.660 -0.1491 -0.8718 -0.4469
  184SLPC   H6X21106   1.061   4.886   3.606 -0.7227  0.4449 -3.2307
  184SLPC   H6Y21107   0.916   4.953   3.691  0.7296 -0.9615  2.8956
  184SLPC   C3721108   1.100   5.004   3.789 -0.2881  0.2155 -0.5235
  184SLPC   H7X21109   1.054   5.080   3.856  1.5043 -0.0748  1.1080
  184SLPC   H7Y21110   1.203   5.041   3.767 -0.7582  2.6356  0.9270
  184SLPC   C3821111   1.119   4.892   3.897  0.2509 -0.2426 -0.1487
  184SLPC   H8X21112   1.179   4.814   3.847 -0.0391 -0.9252  0.5593
  184SLPC   H8Y21113   1.018   4.848   3.915  0.9308 -2.7893 -2.0906
  184SLPC   C3921114   1.183   4.938   4.033  0.2277  0.3709 -0.2842
  184SLPC   H9X21115   1.189   4.852   4.104  0.3044  0.3907 -0.2666
  184SLPC   H9Y21116   1.124   5.024   4.071 -0.7377 -0.4176  0.0479
  184SLPC  C31021117   1.319   4.992   4.009 -0.3325 -0.4909  0.3574
  184SLPC  H10X21118   1.305   5.073   3.934 -0.6934 -0.1392  0.7988
  184SLPC  H10Y21119   1.379   4.918   3.953  0.6031 -0.0372  0.7319
  184SLPC  C31121120   1.393   5.032   4.136  0.5320 -0.2253 -0.2546
  184SLPC  H11X21121   1.312   5.052   4.209  2.2634 -3.8667  2.9843
  184SLPC  H11Y21122   1.448   5.129   4.127  1.5315 -0.5807  1.5712
  184SLPC  C31221123   1.472   4.920   4.203 -0.4495  0.5111 -0.4961
  184SLPC  H12X21124   1.545   4.869   4.137 -1.5922 -3.2680  0.9050
  184SLPC  H12Y21125   1.399   4.837   4.216  0.3628  0.0210  1.2817
  184SLPC  C31321126   1.539   4.958   4.338 -0.0907  0.2497  0.1088
  184SLPC  H13X21127   1.460   4.981   4.413  0.7244  0.1104  1.0181
  184SLPC  H13Y21128   1.596   5.049   4.311 -1.5932  1.5862  1.2397
  184SLPC  C31421129   1.634   4.852   4.389  0.2274 -0.2762 -0.0699
  184SLPC  H14X21130   1.692   4.808   4.306 -0.6103 -1.3437 -0.0952
  184SLPC  H14Y21131   1.584   4.758   4.422 -0.1112 -0.6442 -1.5871
  184SLPC  C31521132   1.727   4.890   4.508 -0.6391 -0.4976  0.0281
  184SLPC  H15X21133   1.783   4.985   4.496 -3.0835  0.8813 -1.1695
  184SLPC  H15Y21134   1.805   4.811   4.513  1.3724  1.4111  0.9763
  184SLPC  C31621135   1.663   4.908   4.649 -0.4131  0.2559  0.2393
  184SLPC  H16X21136   1.592   4.992   4.640  0.3982  0.7301 -3.1175
  184SLPC  H16Y21137   1.744   4.944   4.716 -0.0679  0.2888 -0.1868
  184SLPC  C31721138   1.591   4.790   4.715 -0.3292  0.6363 -0.1094
  184SLPC  H17X21139   1.514   4.752   4.644  1.1706  0.4197 -1.6823
  184SLPC  H17Y21140   1.552   4.828   4.812  2.6823 -0.0500  1.4717
  184SLPC  C31821141   1.687   4.683   4.754 -0.3846 -0.3091  0.9774
  184SLPC  H18X21142   1.749   4.715   4.840  0.5752 -1.5227  0.7630
  184SLPC  H18Y21143   1.763   4.654   4.678 -0.0033 -0.3135  1.3589
  184SLPC  H18Z21144   1.631   4.597   4.797 -1.4074  0.1512  0.6034
  185POPC     N21145   5.443   0.230   7.096 -0.3504  0.2769  0.0325
  185POPC   C1221146   5.594   0.204   7.100  0.5001 -0.0793  0.5949
  185POPC  H12A21147   5.647   0.271   7.166 -0.6976  2.8933 -1.2432
  185POPC  H12B21148   5.643   0.238   7.010 -0.2131 -1.2112 -0.2358
  185POPC   C1321149   5.379   0.175   6.977 -0.1211  0.9057 -0.3866
  185POPC  H13A21150   5.272   0.185   6.992 -0.2970 -1.1594 -0.0618
  185POPC  H13B21151   5.407   0.231   6.889  1.8990 -0.1097 -0.4338
  185POPC  H13C21152   5.398   0.069   6.968 -0.5631  0.6302  1.5410
  185POPC   C1421153   5.377   0.174   7.216  0.6036 -0.0303 -1.0239
  185POPC  H14A21154   5.272   0.198   7.213  0.5757 -0.1953 -2.7916
  185POPC  H14B21155   5.376   0.066   7.221 -4.5880 -0.1678  2.5028
  185POPC  H14C21156   5.420   0.221   7.303 -1.0979  1.2584 -0.8193
  185POPC   C1521157   5.420   0.373   7.087 -0.3176  0.3962 -0.3323
  185POPC  H15A21158   5.472   0.414   7.002  0.5628 -1.2403 -0.6230
  185POPC  H15B21159   5.449   0.439   7.167 -2.9713 -0.1536  1.2128
  185POPC  H15C21160   5.316   0.397   7.071 -0.3643  0.1271 -0.4387
  185POPC   C1121161   5.641   0.056   7.116 -0.0025 -0.1999 -0.3223
  185POPC  H11A21162   5.587   0.005   7.199  0.0266  1.4674  0.7541
  185POPC  H11B21163   5.748   0.048   7.144 -0.2093 -1.6624  0.1334
  185POPC     P21164   5.699   0.009   6.869 -0.5880 -0.1014 -0.2159
  185POPC   O1321165   5.806  -0.093   6.874  0.0413  0.2346  0.3071
  185POPC   O1421166   5.742   0.153   6.870 -0.6560 -0.4021 -0.2320
  185POPC   O1221167   5.615  -0.021   7.002 -0.5195 -0.4103  0.5497
  185POPC   O1121168   5.590  -0.017   6.753  0.1601  0.5213  0.6845
  185POPC    C121169   5.628  -0.059   6.619 -0.8573  0.3847 -0.3387
  185POPC    HA21170   5.536  -0.097   6.570 -0.7549 -0.7735  0.3468
  185POPC    HB21171   5.702  -0.142   6.626 -0.4539  0.7441 -0.2919
  185POPC    C221172   5.692   0.053   6.524 -0.2904 -0.6519 -0.4821
  185POPC    HS21173   5.693   0.006   6.423  0.0405  0.5082 -1.0313
  185POPC   O2121174   5.832   0.080   6.562  0.0826 -0.3585  0.4859
  185POPC   C2121175   5.920  -0.013   6.544 -0.3952  0.6363  0.3353
  185POPC   O2221176   5.892  -0.124   6.500  0.1910  0.4674 -0.0386
  185POPC   C2221177   6.057   0.035   6.592 -0.2710 -0.0839 -0.0595
  185POPC   H2R21178   6.044   0.067   6.698 -2.3006  1.0343 -0.5751
  185POPC   H2S21179   6.073   0.125   6.529  0.3150  0.2391  0.5465
  185POPC    C321180   5.606   0.184   6.511 -0.0465 -0.0999 -0.5829
  185POPC    HX21181   5.623   0.233   6.610  0.1039  0.1402 -0.7265
  185POPC    HY21182   5.498   0.159   6.521  0.0563 -0.3207  0.0140
  185POPC   O3121183   5.651   0.277   6.400  0.3925  0.0963 -0.4827
  185POPC   C3121184   5.574   0.279   6.292 -0.0737 -0.0415 -1.1103
  185POPC   O3221185   5.479   0.204   6.275 -0.1060  0.2141  0.0807
  185POPC   C3221186   5.629   0.371   6.187 -0.0194 -0.3589 -1.0494
  185POPC   H2X21187   5.740   0.372   6.192 -0.0529  1.3925  0.2406
  185POPC   H2Y21188   5.613   0.476   6.219 -0.1136 -0.4441 -0.8207
  185POPC   C2321189   6.171  -0.064   6.582 -0.2265  0.2001 -0.5358
  185POPC   H3R21190   6.156  -0.171   6.607  0.3358 -0.1884 -1.7748
  185POPC   H3S21191   6.245  -0.032   6.658  0.3120 -2.4952  0.1723
  185POPC   C2421192   6.251  -0.044   6.450 -0.6973 -0.5336  0.2265
  185POPC   H4R21193   6.348  -0.098   6.444 -0.0500  0.7587 -1.9159
  185POPC   H4S21194   6.289   0.060   6.444  0.0805 -0.6479  2.2189
  185POPC   C2521195   6.173  -0.070   6.328 -0.1079 -0.4335 -0.3998
  185POPC   H5R21196   6.097   0.010   6.317  0.1521 -0.3458 -1.6935
  185POPC   H5S21197   6.122  -0.169   6.331 -0.2448 -0.3522  0.0326
  185POPC   C2621198   6.271  -0.068   6.213 -0.0334  0.2136 -0.3903
  185POPC   H6R21199   6.332  -0.161   6.212  1.9662  1.4004  2.0113
  185POPC   H6S21200   6.339   0.021   6.210 -1.3053  1.2508  0.5761
  185POPC   C2721201   6.188  -0.056   6.083 -0.2970 -0.1929  0.7034
  185POPC   H7R21202   6.123   0.033   6.071 -1.2875 -0.7078  2.1307
  185POPC   H7S21203   6.109  -0.134   6.074 -0.8634  0.5680 -1.9753
  185POPC   C2821204   6.276  -0.056   5.951 -0.6556 -0.2402 -0.3566
  185POPC   H8R21205   6.359  -0.128   5.972  1.7727  3.0059  2.3326
  185POPC   H8S21206   6.329   0.042   5.956 -0.0608 -0.5910  0.8839
  185POPC   C2921207   6.207  -0.088   5.824  0.7676 -0.0177  0.7636
  185POPC   H9121208   6.102  -0.056   5.833  0.0684 -2.2732  1.4264
  185POPC  C21021209   6.243  -0.154   5.718  0.4480  1.0011 -0.3003
  185POPC  H10121210   6.161  -0.153   5.645  0.2667 -0.3655 -0.1380
  185POPC  C21121211   6.377  -0.208   5.673  0.5518  0.0255  0.1802
  185POPC  H11R21212   6.388  -0.313   5.708 -3.1109 -0.8100 -0.7790
  185POPC  H11S21213   6.461  -0.149   5.715  0.3389  2.4919 -2.5320
  185POPC  C21221214   6.405  -0.204   5.515 -0.3213 -0.1767  0.1620
  185POPC  H12R21215   6.390  -0.099   5.482  1.6477  0.5360  1.3517
  185POPC  H12S21216   6.327  -0.258   5.457 -0.7920  0.2674  0.3726
  185POPC  C21321217   6.544  -0.236   5.473 -1.1154  0.2839 -0.4076
  185POPC  H13R21218   6.571  -0.337   5.511 -2.4417  0.2146  0.4272
  185POPC  H13S21219   6.622  -0.164   5.505  1.1980 -2.3713  0.3337
  185POPC  C21421220   6.544  -0.245   5.311 -0.2172 -0.2805 -0.7824
  185POPC  H14R21221   6.638  -0.222   5.256  0.0260 -2.0492 -1.1552
  185POPC  H14S21222   6.475  -0.170   5.266  0.9893  1.3712 -0.0056
  185POPC  C21521223   6.498  -0.387   5.267  0.2907  0.0323  0.5353
  185POPC  H15R21224   6.397  -0.409   5.309  0.4873 -0.6428  0.6737
  185POPC  H15S21225   6.571  -0.457   5.311 -0.1886 -1.1530 -0.4744
  185POPC  C21621226   6.483  -0.396   5.117 -0.5297 -0.0654  0.4321
  185POPC  H16R21227   6.583  -0.376   5.071 -0.2089  1.4026  1.6829
  185POPC  H16S21228   6.411  -0.321   5.079 -1.6491  0.1044  2.7212
  185POPC  C21721229   6.438  -0.535   5.068  0.0555 -0.4672 -0.0171
  185POPC  H17R21230   6.344  -0.564   5.120 -0.9957  0.3870 -1.3932
  185POPC  H17S21231   6.518  -0.611   5.082 -0.0070 -0.8012 -1.3738
  185POPC  C21821232   6.405  -0.531   4.914 -0.3326  0.7024 -0.5065
  185POPC  H18R21233   6.480  -0.466   4.865 -0.0179  0.4765 -0.3269
  185POPC  H18S21234   6.299  -0.500   4.905 -1.2757 -1.7280  1.0195
  185POPC  H18T21235   6.409  -0.627   4.858  1.0083  0.8805 -0.7509
  185POPC   C3321236   5.579   0.352   6.038 -0.6432  0.6793 -0.5954
  185POPC   H3X21237   5.567   0.245   6.008  0.2776  0.6997 -1.0730
  185POPC   H3Y21238   5.651   0.409   5.977  0.8173  1.9988  2.1780
  185POPC   C3421239   5.434   0.405   6.029 -0.2649  0.2172  0.2962
  185POPC   H4X21240   5.434   0.507   6.072  1.9077  0.3936 -0.0294
  185POPC   H4Y21241   5.366   0.344   6.093 -0.3308 -0.9448 -0.8299
  185POPC   C3521242   5.385   0.411   5.891 -0.0443  0.1702 -0.1689
  185POPC   H5X21243   5.279   0.437   5.912  0.4132  0.3558  2.1542
  185POPC   H5Y21244   5.396   0.318   5.830 -1.0831  0.7856 -1.3416
  185POPC   C3621245   5.454   0.502   5.785 -0.2803 -0.1362  0.1179
  185POPC   H6X21246   5.560   0.470   5.777  0.5968  1.7172  2.7780
  185POPC   H6Y21247   5.464   0.604   5.827  2.6787 -1.0445  1.9263
  185POPC   C3721248   5.369   0.514   5.661 -0.1391 -0.3226 -0.2864
  185POPC   H7X21249   5.268   0.549   5.692  0.1150 -1.6413  2.2113
  185POPC   H7Y21250   5.371   0.419   5.603  0.4563 -0.6800  0.3177
  185POPC   C3821251   5.425   0.623   5.563 -0.9920  0.7145 -0.1739
  185POPC   H8X21252   5.527   0.588   5.536 -1.6600 -0.1027 -1.7552
  185POPC   H8Y21253   5.433   0.726   5.604 -1.5555  1.9557 -2.9634
  185POPC   C3921254   5.340   0.643   5.435  0.3189  0.6334 -0.1885
  185POPC   H9X21255   5.243   0.676   5.477  0.5262  2.4644 -1.0575
  185POPC   H9Y21256   5.333   0.544   5.385  0.5808  0.6908 -0.3417
  185POPC  C31021257   5.392   0.755   5.340 -0.2960  0.2885  0.1419
  185POPC  H10X21258   5.499   0.727   5.326 -0.7640 -2.0998  0.7764
  185POPC  H10Y21259   5.384   0.859   5.377 -2.5033  0.3570 -0.4204
  185POPC  C31121260   5.313   0.747   5.203 -0.4008  0.6053  0.3039
  185POPC  H11X21261   5.203   0.747   5.213 -0.5256 -2.1183 -0.3167
  185POPC  H11Y21262   5.353   0.658   5.151  0.2591  0.6120  0.7778
  185POPC  C31221263   5.357   0.864   5.118 -0.0732 -0.3949 -0.5613
  185POPC  H12X21264   5.467   0.876   5.111  0.1022  1.1427  2.7113
  185POPC  H12Y21265   5.322   0.954   5.174  2.5063  0.0831  0.4235
  185POPC  C31321266   5.290   0.864   4.979 -0.3227  0.0883 -0.3377
  185POPC  H13X21267   5.184   0.830   4.984 -1.0471  1.8693 -2.4561
  185POPC  H13Y21268   5.336   0.798   4.902 -2.0277  0.6461 -1.9052
  185POPC  C31421269   5.308   1.004   4.929  1.3106 -0.2628  0.7699
  185POPC  H14X21270   5.411   1.025   4.895  0.3580  0.5594 -1.8612
  185POPC  H14Y21271   5.277   1.084   4.999 -0.5407  1.9876 -2.3562
  185POPC  C31521272   5.218   1.028   4.808  0.2652  0.9023  0.1781
  185POPC  H15X21273   5.118   0.985   4.832  1.3589  0.1418  4.0132
  185POPC  H15Y21274   5.256   0.961   4.728 -0.3439 -0.4574  0.9946
  185POPC  C31621275   5.208   1.170   4.750  0.0546  0.3554 -0.4272
  185POPC  H16X21276   5.159   1.237   4.824 -0.8547  1.7979 -2.2584
  185POPC  H16Y21277   5.142   1.169   4.660 -0.7065 -0.5561  0.1216
  185POPC  H16Z21278   5.309   1.212   4.730 -0.5842  2.1066 -0.1084
  186POPC     N21279   2.075   6.782   7.792 -0.4550  0.3274  0.3820
  186POPC   C1221280   2.148   6.739   7.666  0.2971 -0.2862  0.1126
  186POPC  H12A21281   2.238   6.685   7.692 -0.4561 -2.1532 -0.9940
  186POPC  H12B21282   2.187   6.828   7.618  1.3042 -0.6744  0.1859
  186POPC   C1321283   1.994   6.904   7.763  0.2829  0.5941 -0.2667
  186POPC  H13A21284   2.050   6.987   7.722 -3.1263  2.6555 -1.1401
  186POPC  H13B21285   1.930   6.883   7.678  1.3089 -1.5169 -0.5872
  186POPC  H13C21286   1.940   6.943   7.848  0.8880  0.4103  0.2127
  186POPC   C1421287   1.980   6.668   7.831 -0.1335  0.2695 -0.0564
  186POPC  H14A21288   1.926   6.651   7.740  0.8113  1.9849 -0.9964
  186POPC  H14B21289   2.036   6.576   7.830 -0.5569  0.0192 -1.4137
  186POPC  H14C21290   1.930   6.686   7.925  0.1292  0.9277 -0.0374
  186POPC   C1521291   2.161   6.802   7.903 -0.2864  0.0795 -0.0425
  186POPC  H15A21292   2.246   6.866   7.888  0.6500 -0.5454  2.1571
  186POPC  H15B21293   2.205   6.708   7.933  1.0794  0.7819  0.2273
  186POPC  H15C21294   2.105   6.835   7.989 -2.2865  0.8803 -1.5728
  186POPC   C1121295   2.063   6.659   7.558  0.2917 -0.0873  0.3977
  186POPC  H11A21296   2.052   6.552   7.586  1.9404 -0.6680 -1.0531
  186POPC  H11B21297   2.121   6.666   7.464 -0.2694 -2.2353 -0.1669
  186POPC     P21298   1.844   6.713   7.416  0.0481  0.0350 -0.0506
  186POPC   O1321299   1.751   6.824   7.424  0.4943 -0.8873 -0.4738
  186POPC   O1421300   1.794   6.575   7.396 -0.2192 -0.4319 -0.2910
  186POPC   O1221301   1.933   6.722   7.543  0.2887  0.0014  0.1332
  186POPC   O1121302   1.948   6.750   7.303 -0.2715  0.1774  0.4789
  186POPC    C121303   2.016   6.656   7.221 -0.2129 -0.1459  0.1970
  186POPC    HA21304   1.949   6.590   7.162  0.0318  0.3095 -0.6063
  186POPC    HB21305   2.065   6.578   7.284  0.4179  0.5993  0.6482
  186POPC    C221306   2.103   6.722   7.105  0.1401 -0.0083  0.4650
  186POPC    HS21307   2.159   6.806   7.152 -2.6277  1.9508  0.5101
  186POPC   O2121308   2.005   6.773   7.001 -0.4269  0.1704  0.4581
  186POPC   C2121309   2.070   6.845   6.904  0.4090  0.4268 -0.2006
  186POPC   O2221310   2.180   6.896   6.909  0.2502 -0.2754 -0.7089
  186POPC   C2221311   1.964   6.883   6.798  0.5029  0.1146 -0.2837
  186POPC   H2R21312   1.879   6.920   6.859  0.5127 -1.3296  0.6594
  186POPC   H2S21313   1.942   6.787   6.747 -2.8411  1.1609 -1.0609
  186POPC    C321314   2.202   6.619   7.042 -0.5511  0.1209  0.9053
  186POPC    HX21315   2.282   6.609   7.119 -0.9653 -1.6717  1.1350
  186POPC    HY21316   2.262   6.662   6.959 -1.6767 -0.9812 -0.5123
  186POPC   O3121317   2.140   6.493   7.022  0.8821  0.1789  0.4160
  186POPC   C3121318   2.097   6.449   6.902  0.0849  0.2826 -0.3634
  186POPC   O3221319   2.109   6.522   6.804  0.3015  0.4210 -0.2109
  186POPC   C3221320   2.041   6.305   6.904 -0.3910  0.6346  0.5346
  186POPC   H2X21321   1.953   6.298   6.973 -1.4604 -0.4514 -0.8776
  186POPC   H2Y21322   2.118   6.247   6.959 -0.8508  0.4618  1.0024
  186POPC   C2321323   2.022   6.982   6.696  0.9632 -1.3497  0.2648
  186POPC   H3R21324   2.120   6.937   6.670  0.7442 -0.9942 -1.2833
  186POPC   H3S21325   2.045   7.089   6.713  2.2660 -1.1573 -2.1699
  186POPC   C2421326   1.940   6.983   6.563 -0.4377  0.9892 -0.2294
  186POPC   H4R21327   1.844   7.036   6.579 -1.5219  0.1114 -3.1678
  186POPC   H4S21328   1.929   6.876   6.536 -0.8236  0.6659  1.1687
  186POPC   C2521329   2.028   7.053   6.456  0.6803  0.6023 -0.2424
  186POPC   H5R21330   2.127   7.003   6.447  1.7131  2.5439 -0.2356
  186POPC   H5S21331   2.056   7.153   6.497 -0.6769 -0.5659  4.1075
  186POPC   C2621332   1.969   7.059   6.319  0.8248 -0.6199  0.4914
  186POPC   H6R21333   1.884   7.131   6.323  0.6408 -0.8708  1.1348
  186POPC   H6S21334   1.917   6.963   6.299 -1.3724  1.0932 -3.0621
  186POPC   C2721335   2.064   7.091   6.205 -0.7877 -0.1156  0.3269
  186POPC   H7R21336   2.128   7.002   6.186 -0.6170  0.1023 -0.1478
  186POPC   H7S21337   2.132   7.172   6.239 -0.3480 -1.1580  2.0580
  186POPC   C2821338   1.992   7.113   6.066 -0.4726  0.6574  0.3195
  186POPC   H8R21339   1.903   7.174   6.093  0.0897  1.8277 -0.4052
  186POPC   H8S21340   1.963   7.010   6.035 -0.5689  1.0944 -1.1044
  186POPC   C2921341   2.072   7.192   5.966  0.2919  0.5774 -0.1802
  186POPC   H9121342   2.110   7.285   6.011  1.1969 -0.0766  0.4376
  186POPC  C21021343   2.090   7.162   5.834 -0.1465 -0.0423 -0.9196
  186POPC  H10121344   2.138   7.234   5.767  0.3932 -1.0582 -1.6569
  186POPC  C21121345   2.047   7.032   5.773  0.0303 -0.3129 -0.1954
  186POPC  H11R21346   1.951   7.059   5.723 -0.1225  3.1691  1.6614
  186POPC  H11S21347   2.036   6.955   5.852  1.4390  1.2319  1.6077
  186POPC  C21221348   2.151   6.983   5.668 -0.4842 -0.3969 -0.2065
  186POPC  H12R21349   2.093   6.922   5.594  0.2220  1.0039 -1.9882
  186POPC  H12S21350   2.236   6.925   5.710  0.9775  0.2463 -2.1184
  186POPC  C21321351   2.216   7.095   5.584 -0.6217  0.6688  0.2970
  186POPC  H13R21352   2.289   7.155   5.642 -1.0289  2.2308 -0.7501
  186POPC  H13S21353   2.140   7.172   5.558 -1.1418 -0.0890 -0.4740
  186POPC  C21421354   2.299   7.045   5.464  0.1045  0.7539 -0.0494
  186POPC  H14R21355   2.391   6.992   5.497 -0.1361  0.4421  0.1226
  186POPC  H14S21356   2.336   7.130   5.402  3.4182  0.4180  1.2646
  186POPC  C21521357   2.223   6.944   5.375  0.5308 -0.0651  0.3690
  186POPC  H15R21358   2.138   6.994   5.323  0.1886 -0.8507  0.1524
  186POPC  H15S21359   2.170   6.858   5.421 -2.4406 -0.3608 -3.0781
  186POPC  C21621360   2.317   6.870   5.271 -0.2711  0.3235 -0.1678
  186POPC  H16R21361   2.413   6.847   5.322 -0.1350  1.5798  0.1689
  186POPC  H16S21362   2.348   6.935   5.187 -1.1082 -0.2354 -0.9367
  186POPC  C21721363   2.254   6.751   5.203  0.6068 -0.3124  0.0334
  186POPC  H17R21364   2.151   6.773   5.169  0.9747  1.8536  0.1676
  186POPC  H17S21365   2.253   6.670   5.280 -0.3455  2.5194  3.2551
  186POPC  C21821366   2.337   6.690   5.083 -0.0830 -0.2733  0.1302
  186POPC  H18R21367   2.295   6.588   5.069 -0.1067 -0.2139 -0.2426
  186POPC  H18S21368   2.441   6.673   5.118 -0.2313 -2.5168 -0.3463
  186POPC  H18T21369   2.329   6.756   4.995 -0.0545 -0.3776  0.0493
  186POPC   C3321370   2.007   6.252   6.763 -0.7749  0.9326  0.1943
  186POPC   H3X21371   2.089   6.285   6.695  1.0572 -0.0827  1.7878
  186POPC   H3Y21372   1.904   6.284   6.740 -2.1042 -0.3022  3.7646
  186POPC   C3421373   2.002   6.096   6.751  0.7278 -0.1950 -0.7256
  186POPC   H4X21374   1.934   6.062   6.832 -0.4868  0.5599 -1.4157
  186POPC   H4Y21375   2.101   6.045   6.757  0.7848  0.0450  0.8446
  186POPC   C3521376   1.942   6.046   6.624  0.1857  0.4222 -0.3571
  186POPC   H5X21377   1.839   6.089   6.622  0.6624  1.6994 -3.5926
  186POPC   H5Y21378   1.926   5.936   6.627 -3.5418  0.8431  0.4146
  186POPC   C3621379   2.026   6.074   6.496  0.4595 -0.6409  0.2996
  186POPC   H6X21380   2.122   6.024   6.520  0.6120 -0.2952  0.4047
  186POPC   H6Y21381   2.039   6.182   6.474  0.0854 -0.4670  0.8918
  186POPC   C3721382   1.963   6.021   6.368  0.3684 -0.1300 -0.5817
  186POPC   H7X21383   1.869   6.079   6.359  1.2484  1.4038 -0.2147
  186POPC   H7Y21384   1.928   5.916   6.372 -2.6877  0.8314  1.5878
  186POPC   C3821385   2.053   6.044   6.251  0.2133  0.1338  0.0943
  186POPC   H8X21386   2.146   5.986   6.267  0.4290 -0.1745 -2.0252
  186POPC   H8Y21387   2.085   6.150   6.240 -3.2532  1.3537  0.5132
  186POPC   C3921388   1.999   6.001   6.109  0.0938 -0.7933 -0.5562
  186POPC   H9X21389   1.912   6.068   6.094  1.3750  0.8557 -0.8762
  186POPC   H9Y21390   1.955   5.899   6.122  3.2149 -2.0591  1.3335
  186POPC  C31021391   2.099   6.007   5.995 -0.6690 -0.1812  0.2030
  186POPC  H10X21392   2.159   5.917   6.017  0.6774  0.6310 -0.0331
  186POPC  H10Y21393   2.162   6.098   6.005  1.3109 -1.6569  1.7771
  186POPC  C31121394   2.043   6.008   5.847  0.2861 -0.4804 -0.5452
  186POPC  H11X21395   2.012   6.113   5.828 -2.7815 -0.5521  2.9966
  186POPC  H11Y21396   1.953   5.943   5.846 -0.1545  0.1300 -0.7060
  186POPC  C31221397   2.161   5.974   5.754 -0.3171  0.7184  0.5269
  186POPC  H12X21398   2.180   5.864   5.748  0.7332  0.9194 -0.2910
  186POPC  H12Y21399   2.260   6.005   5.794  1.3335 -0.9258 -1.9405
  186POPC  C31321400   2.137   6.018   5.611 -0.3257 -0.0265 -0.0759
  186POPC  H13X21401   2.031   5.993   5.588 -0.6021 -0.8348  1.9370
  186POPC  H13Y21402   2.210   5.952   5.560  0.8356 -1.9180  3.7560
  186POPC  C31421403   2.158   6.166   5.571  0.4679  0.1059  0.3543
  186POPC  H14X21404   2.251   6.203   5.621  1.5211 -0.3422 -1.2085
  186POPC  H14Y21405   2.079   6.228   5.620  2.0464  2.4183  0.1757
  186POPC  C31521406   2.167   6.196   5.426 -0.0564 -0.4718 -0.1753
  186POPC  H15X21407   2.069   6.162   5.384 -0.9870 -0.2559  1.6981
  186POPC  H15Y21408   2.247   6.133   5.382  1.3715  1.0117  0.2246
  186POPC  C31621409   2.206   6.336   5.390 -0.3262  0.3020  0.1670
  186POPC  H16X21410   2.312   6.359   5.414 -0.1750 -1.0557  0.9131
  186POPC  H16Y21411   2.142   6.413   5.438 -2.2934 -1.1420 -0.0097
  186POPC  H16Z21412   2.195   6.345   5.280 -2.9678 -0.5190  0.2927
  187POPC     N21413   1.357   6.819   2.619 -0.6937 -0.1838  0.3850
  187POPC   C1221414   1.267   6.842   2.736 -0.0351 -0.2503  1.0616
  187POPC  H12A21415   1.233   6.945   2.727  1.3925  0.1771  0.2738
  187POPC  H12B21416   1.316   6.840   2.832 -0.5257 -3.1116  1.3150
  187POPC   C1321417   1.479   6.915   2.624  0.8299  0.2349  0.1711
  187POPC  H13A21418   1.443   7.016   2.611 -0.7367 -0.3609 -0.3385
  187POPC  H13B21419   1.535   6.905   2.716 -0.5634  1.0308  1.1409
  187POPC  H13C21420   1.545   6.901   2.539  0.5382 -0.3479  0.0344
  187POPC   C1421421   1.398   6.677   2.614  0.1858 -0.5481 -0.9150
  187POPC  H14A21422   1.307   6.618   2.617 -1.8418  2.4022  0.5746
  187POPC  H14B21423   1.439   6.647   2.519 -1.0262 -0.1342 -1.5935
  187POPC  H14C21424   1.467   6.642   2.689 -0.3843 -2.2447 -1.1266
  187POPC   C1521425   1.281   6.844   2.495 -0.5960 -0.3086 -0.5772
  187POPC  H15A21426   1.252   6.947   2.477  0.9271  0.3392  0.5249
  187POPC  H15B21427   1.186   6.792   2.491  0.1697 -1.8457  0.4407
  187POPC  H15C21428   1.337   6.808   2.410 -3.5836  0.2025 -2.9394
  187POPC   C1121429   1.146   6.749   2.742  0.5903 -0.4623  0.5209
  187POPC  H11A21430   1.098   6.732   2.644 -1.1737  1.9749  0.8852
  187POPC  H11B21431   1.062   6.800   2.794  0.7340  0.6731 -0.3227
  187POPC     P21432   1.099   6.507   2.836  0.2034  0.0409 -0.2957
  187POPC   O1321433   1.041   6.474   2.702 -0.0837  0.0711 -0.2757
  187POPC   O1421434   1.010   6.553   2.944  0.4842  0.0637  0.3656
  187POPC   O1221435   1.194   6.627   2.805  0.3373 -0.4181  0.2872
  187POPC   O1121436   1.191   6.399   2.899  0.1033  0.0520 -0.2542
  187POPC    C121437   1.309   6.416   2.973  0.1166 -0.1648  0.0307
  187POPC    HA21438   1.360   6.514   2.964  0.4088  0.0304  3.0372
  187POPC    HB21439   1.385   6.353   2.921 -0.7065 -1.2053  0.0289
  187POPC    C221440   1.305   6.359   3.121  0.7177  0.7246 -0.2185
  187POPC    HS21441   1.393   6.391   3.180  0.3434 -1.3105  1.5721
  187POPC   O2121442   1.286   6.215   3.113 -0.4734  0.3280  0.1009
  187POPC   C2121443   1.338   6.150   3.211  0.4411 -0.5040 -0.7946
  187POPC   O2221444   1.411   6.193   3.300  0.1648  0.3018 -0.2708
  187POPC   C2221445   1.317   5.999   3.192  0.4461  0.1025  0.0700
  187POPC   H2R21446   1.382   5.960   3.110 -1.4954  0.9409 -1.9788
  187POPC   H2S21447   1.214   5.986   3.153  0.0783  1.2356  0.6334
  187POPC    C321448   1.183   6.426   3.195 -0.3948 -0.0412 -0.1379
  187POPC    HX21449   1.090   6.385   3.151 -0.8133 -0.1455  0.8360
  187POPC    HY21450   1.182   6.532   3.162 -1.7312  0.3884  1.1796
  187POPC   O3121451   1.179   6.405   3.340  0.4081 -0.2023 -0.3986
  187POPC   C3121452   1.256   6.487   3.411 -0.7970  0.2382 -0.0988
  187POPC   O3221453   1.310   6.584   3.355 -0.5164  0.1408  0.1562
  187POPC   C3221454   1.264   6.447   3.555 -0.4148  0.1534 -0.3251
  187POPC   H2X21455   1.182   6.494   3.613 -0.1822  0.1388  0.0222
  187POPC   H2Y21456   1.359   6.487   3.595 -0.5915  0.2091  0.0454
  187POPC   C2321457   1.331   5.928   3.332  0.2074  0.6603  0.1924
  187POPC   H3R21458   1.252   5.962   3.403 -0.6575  0.9081 -0.8495
  187POPC   H3S21459   1.432   5.948   3.374  0.0944 -1.0086  1.3583
  187POPC   C2421460   1.328   5.776   3.317 -0.3028 -0.1031 -0.8505
  187POPC   H4R21461   1.405   5.748   3.242 -0.3545  0.2893 -1.0493
  187POPC   H4S21462   1.234   5.739   3.271  0.0366 -0.9817 -0.8738
  187POPC   C2521463   1.369   5.687   3.444  0.2863 -0.2749 -0.0615
  187POPC   H5R21464   1.468   5.723   3.479  0.8151 -1.0319 -0.7334
  187POPC   H5S21465   1.376   5.579   3.417 -0.7083 -0.6132  0.9423
  187POPC   C2621466   1.274   5.683   3.565  0.6155  0.4008 -0.2945
  187POPC   H6R21467   1.233   5.580   3.563  1.0222  0.2340 -0.1579
  187POPC   H6S21468   1.187   5.746   3.536 -0.9069 -1.3079  0.4078
  187POPC   C2721469   1.321   5.724   3.700  0.0529 -0.2411 -0.8144
  187POPC   H7R21470   1.224   5.734   3.753  0.5926  0.7629  0.0281
  187POPC   H7S21471   1.360   5.828   3.696  1.0536 -0.5471  0.4038
  187POPC   C2821472   1.421   5.627   3.764  0.1875 -0.2325  0.5739
  187POPC   H8R21473   1.515   5.627   3.706  0.3030 -0.3684  0.7601
  187POPC   H8S21474   1.377   5.525   3.755  1.4622 -0.9481  1.9650
  187POPC   C2921475   1.455   5.664   3.905 -0.3055  0.7491  0.2271
  187POPC   H9121476   1.524   5.748   3.924 -1.4097  1.5568  0.8320
  187POPC  C21021477   1.376   5.630   4.013 -0.0334 -0.2139 -0.4070
  187POPC  H10121478   1.415   5.664   4.110  0.5421  2.5749 -1.5277
  187POPC  C21121479   1.249   5.542   4.011  0.6530 -0.4720 -0.2296
  187POPC  H11R21480   1.211   5.509   3.912  0.4175 -1.8485  0.2963
  187POPC  H11S21481   1.173   5.612   4.054  1.9513 -1.0826  3.4311
  187POPC  C21221482   1.256   5.414   4.104 -0.1871  0.3364  0.4379
  187POPC  H12R21483   1.343   5.354   4.072  1.2032  1.9666  0.9923
  187POPC  H12S21484   1.165   5.351   4.095 -1.8859  2.5545  1.1205
  187POPC  C21321485   1.255   5.453   4.250  0.9967  0.0997 -0.7141
  187POPC  H13R21486   1.161   5.505   4.279  0.0627 -2.0035  0.2588
  187POPC  H13S21487   1.329   5.535   4.265  1.6365 -0.5493 -0.3026
  187POPC  C21421488   1.284   5.338   4.353 -1.0142 -0.2699 -0.2522
  187POPC  H14R21489   1.314   5.390   4.446 -1.5750 -0.9660  0.3311
  187POPC  H14S21490   1.369   5.272   4.325  1.5127  0.8395  3.9152
  187POPC  C21521491   1.166   5.252   4.396  0.1984  0.3080  0.1113
  187POPC  H15R21492   1.204   5.170   4.461 -2.3252 -1.0093  0.0495
  187POPC  H15S21493   1.118   5.207   4.306 -2.1861 -0.5159  1.7051
  187POPC  C21621494   1.061   5.322   4.476 -0.0079 -0.8841 -0.0955
  187POPC  H16R21495   1.049   5.426   4.438 -1.2144 -0.3734  1.5564
  187POPC  H16S21496   1.097   5.327   4.581 -0.1886 -0.3603 -0.0550
  187POPC  C21721497   0.917   5.261   4.501  0.0999  0.3433 -0.0491
  187POPC  H17R21498   0.867   5.262   4.402  3.3994 -3.1720 -2.0235
  187POPC  H17S21499   0.861   5.338   4.557  0.2666  1.0472 -0.8283
  187POPC  C21821500   0.916   5.124   4.568  0.2176 -0.4426 -0.5236
  187POPC  H18R21501   0.840   5.060   4.517 -2.8718  2.5503 -0.0512
  187POPC  H18S21502   0.896   5.140   4.676  1.9813 -0.8497 -0.1108
  187POPC  H18T21503   1.014   5.078   4.543 -0.3952 -0.4241 -3.2790
  187POPC   C3321504   1.262   6.296   3.569  0.4877 -0.0132 -0.2828
  187POPC   H3X21505   1.363   6.271   3.529  1.0997  1.0819  0.5316
  187POPC   H3Y21506   1.175   6.241   3.528  0.3466 -0.0706  0.0896
  187POPC   C3421507   1.280   6.252   3.714 -0.6518  0.0990 -1.0341
  187POPC   H4X21508   1.187   6.278   3.769  0.7813  0.4082  1.4044
  187POPC   H4Y21509   1.375   6.304   3.740  0.7956 -1.4940 -2.8005
  187POPC   C3521510   1.288   6.101   3.718  0.0456 -0.0614 -0.1398
  187POPC   H5X21511   1.363   6.057   3.650 -2.3784 -0.3350 -2.8034
  187POPC   H5Y21512   1.190   6.061   3.684  1.6618 -4.1027 -0.6095
  187POPC   C3621513   1.302   6.046   3.858 -0.5324 -0.0100  0.0726
  187POPC   H6X21514   1.256   5.945   3.851  0.7431 -0.5808 -0.3387
  187POPC   H6Y21515   1.230   6.106   3.919 -2.0289 -2.3302  0.7033
  187POPC   C3721516   1.446   6.033   3.917 -0.1855  0.3826 -0.2280
  187POPC   H7X21517   1.504   6.125   3.890  0.9009 -0.8225 -2.2879
  187POPC   H7Y21518   1.497   5.953   3.860 -0.4598  0.1838 -0.1929
  187POPC   C3821519   1.443   6.002   4.061 -0.2862  0.3531 -0.2876
  187POPC   H8X21520   1.550   5.974   4.078  0.2187  1.6232 -1.1774
  187POPC   H8Y21521   1.384   5.916   4.099  0.7716 -0.4815 -0.4918
  187POPC   C3921522   1.403   6.127   4.141 -0.3165 -0.0718  0.2385
  187POPC   H9X21523   1.295   6.152   4.145 -0.3059  0.2355 -1.0858
  187POPC   H9Y21524   1.454   6.212   4.093 -1.9070  0.8546  0.1286
  187POPC  C31021525   1.465   6.129   4.286 -0.1475  0.2711  0.3214
  187POPC  H10X21526   1.566   6.175   4.279 -0.5354  1.2918  1.1247
  187POPC  H10Y21527   1.467   6.024   4.320 -0.6010  0.3333  0.5394
  187POPC  C31121528   1.381   6.217   4.384  0.1014  0.1349  0.0669
  187POPC  H11X21529   1.285   6.169   4.409 -0.1298 -1.7700 -3.8216
  187POPC  H11Y21530   1.347   6.306   4.326 -2.3126 -0.7841 -0.0252
  187POPC  C31221531   1.462   6.261   4.513  0.3682 -0.5008  0.4181
  187POPC  H12X21532   1.549   6.316   4.472 -0.6385  0.5630 -0.3726
  187POPC  H12Y21533   1.511   6.174   4.562 -0.9923 -1.1920  0.6156
  187POPC  C31321534   1.381   6.351   4.609 -0.2340  0.5187 -0.2260
  187POPC  H13X21535   1.302   6.282   4.645 -0.8092  0.3037 -1.7977
  187POPC  H13Y21536   1.330   6.433   4.555  0.7125 -0.0222 -2.0532
  187POPC  C31421537   1.450   6.410   4.733 -0.4171  0.2020 -0.5903
  187POPC  H14X21538   1.486   6.324   4.793 -3.7916 -0.0738  1.2411
  187POPC  H14Y21539   1.369   6.455   4.795 -1.2612  0.1258 -1.6209
  187POPC  C31521540   1.556   6.512   4.704 -0.3810  0.4830  0.5366
  187POPC  H15X21541   1.503   6.603   4.668 -1.0791 -0.3581 -0.6009
  187POPC  H15Y21542   1.624   6.473   4.626  1.2214  0.4566  1.8809
  187POPC  C31621543   1.638   6.545   4.831 -0.0898 -0.5307  0.4632
  187POPC  H16X21544   1.569   6.589   4.906 -2.9198 -1.6430 -1.3210
  187POPC  H16Y21545   1.721   6.616   4.811  0.8088 -1.0971  1.9872
  187POPC  H16Z21546   1.669   6.446   4.872 -1.0396 -1.2810 -0.5435
  188POPC     N21547   0.104   4.826   2.379  0.3516 -0.7260 -0.4078
  188POPC   C1221548   0.093   4.947   2.475 -0.1671 -0.2472 -0.1348
  188POPC  H12A21549   0.160   4.935   2.559 -1.3978  0.3349  0.9641
  188POPC  H12B21550  -0.008   4.960   2.509  0.3363 -1.7382  2.1023
  188POPC   C1321551   0.251   4.794   2.368 -0.1581  0.6302  0.0662
  188POPC  H13A21552   0.296   4.880   2.321 -3.1141  1.2584 -1.8584
  188POPC  H13B21553   0.288   4.759   2.464 -1.6141 -0.8664  0.1269
  188POPC  H13C21554   0.261   4.710   2.301 -2.2608  1.0642 -0.8701
  188POPC   C1421555   0.023   4.714   2.436  0.0901 -0.0265  0.3188
  188POPC  H14A21556   0.076   4.677   2.523 -0.0274  0.1582  0.4678
  188POPC  H14B21557  -0.073   4.756   2.461  1.1918  2.1839  1.1081
  188POPC  H14C21558   0.015   4.637   2.361 -0.2441 -0.9240  1.2465
  188POPC   C1521559   0.040   4.857   2.251 -0.7066  0.6484 -0.6160
  188POPC  H15A21560   0.023   4.771   2.188 -0.0096  0.3439 -0.4007
  188POPC  H15B21561   0.093   4.935   2.198 -0.8651  1.9196  1.0100
  188POPC  H15C21562  -0.053   4.906   2.277 -1.2409 -1.4761  1.8977
  188POPC   C1121563   0.142   5.085   2.417  0.4845  0.1676  0.6353
  188POPC  H11A21564   0.238   5.063   2.365  1.1352  0.0903  1.8273
  188POPC  H11B21565   0.160   5.156   2.501  2.4132  1.0201 -0.4416
  188POPC     P21566  -0.105   5.165   2.342 -0.1344 -0.1168  0.1096
  188POPC   O1321567  -0.175   5.052   2.281  0.1279 -0.0427  0.1300
  188POPC   O1421568  -0.134   5.309   2.304  0.0608  0.1566 -0.0430
  188POPC   O1221569   0.049   5.135   2.322 -0.2383 -0.0397  0.1835
  188POPC   O1121570  -0.105   5.152   2.501 -0.1088 -0.1873 -0.0361
  188POPC    C121571  -0.188   5.230   2.586  0.2721  0.0639  0.0286
  188POPC    HA21572  -0.291   5.252   2.550  0.6838  1.6046 -0.2609
  188POPC    HB21573  -0.144   5.331   2.601 -0.5639  0.3446  0.6645
  188POPC    C221574  -0.172   5.154   2.722  0.6163 -0.0788  0.0449
  188POPC    HS21575  -0.216   5.210   2.807  0.6784 -1.4097  0.9751
  188POPC   O2121576  -0.034   5.120   2.752 -0.1319  0.3072  0.2104
  188POPC   C2121577   0.028   5.232   2.800  0.5497  0.3521  0.1564
  188POPC   O2221578  -0.026   5.341   2.802 -0.2147  0.6320 -0.6693
  188POPC   C2221579   0.153   5.191   2.862 -0.2308 -0.6742  0.1305
  188POPC   H2R21580   0.227   5.224   2.787 -2.5388  1.0442 -1.5286
  188POPC   H2S21581   0.163   5.083   2.889  1.5122 -0.6180 -0.1567
  188POPC    C321582  -0.248   5.025   2.694  0.2263  0.0983 -0.7492
  188POPC    HX21583  -0.190   4.965   2.622 -0.9191 -1.0031 -0.8005
  188POPC    HY21584  -0.352   5.038   2.655 -1.0054 -1.4319  1.7024
  188POPC   O3121585  -0.273   4.948   2.818  0.0393  0.3232 -0.1887
  188POPC   C3121586  -0.189   4.837   2.839  0.2821  0.0161 -0.4114
  188POPC   O3221587  -0.102   4.800   2.769  0.2075  0.3907 -0.3312
  188POPC   C3221588  -0.230   4.778   2.978 -0.2720 -0.1791 -0.4144
  188POPC   H2X21589  -0.285   4.684   2.954  2.2411 -1.8703  0.1449
  188POPC   H2Y21590  -0.285   4.854   3.037  0.4981  2.8037 -3.2157
  188POPC   C2321591   0.184   5.275   2.991  0.3280 -0.1802  0.1143
  188POPC   H3R21592   0.172   5.381   2.963  0.1315  0.0243  0.9380
  188POPC   H3S21593   0.290   5.260   3.019  1.2910  1.2552 -2.4845
  188POPC   C2421594   0.087   5.264   3.111 -0.4184 -0.6830  0.3969
  188POPC   H4R21595  -0.015   5.300   3.086 -0.5567 -1.0735  0.3823
  188POPC   H4S21596   0.122   5.334   3.189 -1.9991  1.1387 -0.4637
  188POPC   C2521597   0.073   5.117   3.149  0.2714  0.5005 -0.0810
  188POPC   H5R21598   0.161   5.051   3.162  0.2295  0.3979 -0.3153
  188POPC   H5S21599   0.013   5.062   3.073 -1.5684  1.1658  0.8440
  188POPC   C2621600  -0.006   5.103   3.279 -0.0812  0.3457 -0.2166
  188POPC   H6R21601  -0.038   4.998   3.293  0.7100  0.2412  0.9471
  188POPC   H6S21602  -0.098   5.164   3.264  0.7219  1.4652 -0.7491
  188POPC   C2721603   0.061   5.131   3.412 -0.3970  0.2957  0.1105
  188POPC   H7R21604   0.088   5.237   3.431  2.2324 -0.7262  3.0133
  188POPC   H7S21605   0.151   5.066   3.413 -1.2749 -0.9482  0.4317
  188POPC   C2821606  -0.031   5.070   3.526  0.1475 -0.1893 -0.2909
  188POPC   H8R21607   0.040   5.042   3.607 -0.7804 -2.3895 -0.1609
  188POPC   H8S21608  -0.062   4.967   3.498 -2.1129 -0.4810  2.7109
  188POPC   C2921609  -0.153   5.162   3.553 -0.2955 -0.2912  0.0535
  188POPC   H9121610  -0.213   5.188   3.464  0.7611  0.7362 -0.3908
  188POPC  C21021611  -0.216   5.193   3.671  0.5712 -0.4139 -0.1963
  188POPC  H10121612  -0.305   5.257   3.660  0.6801 -0.2482 -0.1211
  188POPC  C21121613  -0.176   5.173   3.816  1.1099 -0.3238 -0.7895
  188POPC  H11R21614  -0.188   5.064   3.835  2.8318 -1.0083 -3.0878
  188POPC  H11S21615  -0.250   5.230   3.876 -0.2764  0.2617 -2.9364
  188POPC  C21221616  -0.036   5.232   3.839  0.0442 -0.1643 -0.9643
  188POPC  H12R21617  -0.024   5.329   3.786 -0.7280  0.3913 -0.1513
  188POPC  H12S21618   0.038   5.166   3.788  0.1129  0.3674 -1.5671
  188POPC  C21321619  -0.000   5.255   3.988 -0.3611 -0.3504 -0.3489
  188POPC  H13R21620  -0.057   5.347   4.014  1.2461  0.9076 -1.0515
  188POPC  H13S21621   0.109   5.277   3.981 -0.3379 -0.7560 -1.4764
  188POPC  C21421622  -0.014   5.131   4.085 -0.1566  0.0769  0.1559
  188POPC  H14R21623   0.013   5.035   4.036  2.2023  0.2074  1.0655
  188POPC  H14S21624  -0.123   5.129   4.104 -0.2872 -1.5369 -0.5713
  188POPC  C21521625   0.068   5.138   4.213 -0.2567  0.1466  0.2442
  188POPC  H15R21626   0.047   5.042   4.265 -2.6203  0.0101 -0.8320
  188POPC  H15S21627   0.040   5.226   4.276 -1.3969 -0.0768  0.0692
  188POPC  C21621628   0.220   5.156   4.188  0.0895 -0.3936 -0.5610
  188POPC  H16R21629   0.241   5.247   4.128 -0.1450 -0.2661 -0.4504
  188POPC  H16S21630   0.262   5.062   4.147  1.2928 -1.1571  2.2081
  188POPC  C21721631   0.279   5.192   4.329  0.0344 -0.1251 -0.4671
  188POPC  H17R21632   0.249   5.297   4.351  0.4668 -0.3744  1.4167
  188POPC  H17S21633   0.388   5.199   4.313 -0.2935 -0.0501 -3.1555
  188POPC  C21821634   0.248   5.097   4.450  0.2625 -0.0511 -0.4875
  188POPC  H18R21635   0.141   5.105   4.478  0.2278  0.2674 -0.7048
  188POPC  H18S21636   0.312   5.120   4.537  0.9162  1.4175 -1.3113
  188POPC  H18T21637   0.259   4.991   4.419 -1.5216 -0.6706  0.8655
  188POPC   C3321638  -0.104   4.732   3.059 -0.6203  0.1437  0.9087
  188POPC   H3X21639  -0.049   4.821   3.097  0.8026 -1.2428  2.2358
  188POPC   H3Y21640  -0.035   4.689   2.983  0.9185  0.7381  1.9145
  188POPC   C3421641  -0.135   4.635   3.177 -0.2575 -0.1682  0.0133
  188POPC   H4X21642  -0.187   4.545   3.138 -0.8463  0.5669 -0.9496
  188POPC   H4Y21643  -0.205   4.663   3.259 -1.5910 -1.0133 -0.7940
  188POPC   C3521644   0.011   4.609   3.225  1.1016  0.6279 -0.2076
  188POPC   H5X21645   0.070   4.569   3.140 -0.9929 -1.4576 -0.7889
  188POPC   H5Y21646   0.005   4.524   3.297  0.7771 -0.0088 -0.9615
  188POPC   C3621647   0.087   4.728   3.291 -0.3077  0.1619 -0.1958
  188POPC   H6X21648   0.014   4.762   3.367 -0.5797  0.6120 -0.6490
  188POPC   H6Y21649   0.100   4.805   3.213 -1.5254 -1.1643 -1.7977
  188POPC   C3721650   0.229   4.686   3.341  0.2450  0.2472 -0.4684
  188POPC   H7X21651   0.299   4.773   3.341  0.5270  0.0432  1.2076
  188POPC   H7Y21652   0.263   4.627   3.253  0.3650 -0.4887  0.0658
  188POPC   C3821653   0.230   4.609   3.475  0.1935 -0.2053  1.1102
  188POPC   H8X21654   0.319   4.543   3.464  0.4034  0.4157 -1.8327
  188POPC   H8Y21655   0.147   4.536   3.482  0.5836 -0.5825  1.8738
  188POPC   C3921656   0.236   4.704   3.595 -0.8770  0.2881  1.1705
  188POPC   H9X21657   0.132   4.743   3.589 -2.0427 -2.7202 -0.3935
  188POPC   H9Y21658   0.311   4.786   3.592 -0.4300 -0.1369  0.6303
  188POPC  C31021659   0.242   4.630   3.732  0.2208  0.2432 -0.1102
  188POPC  H10X21660   0.326   4.558   3.742  0.7227  0.6836 -1.0088
  188POPC  H10Y21661   0.149   4.571   3.739 -0.9146  1.7627 -1.6081
  188POPC  C31121662   0.244   4.737   3.851  0.8307 -0.2344 -0.2068
  188POPC  H11X21663   0.168   4.813   3.824  0.9222 -0.3361 -0.7595
  188POPC  H11Y21664   0.345   4.782   3.849  1.4899 -1.5178  1.3612
  188POPC  C31221665   0.206   4.690   3.993 -0.4796 -0.0170  0.1156
  188POPC  H12X21666   0.158   4.590   3.996  0.7298 -0.5738  2.1774
  188POPC  H12Y21667   0.143   4.771   4.035  1.2405  0.8738  1.0525
  188POPC  C31321668   0.338   4.691   4.076  0.4221 -0.1520 -0.0723
  188POPC  H13X21669   0.377   4.793   4.094  0.0925  0.0802 -0.6460
  188POPC  H13Y21670   0.417   4.639   4.018  1.0573 -0.0796  0.7170
  188POPC  C31421671   0.329   4.627   4.221 -0.5992  0.5042  0.0724
  188POPC  H14X21672   0.421   4.645   4.280  0.6529 -1.3126 -1.1892
  188POPC  H14Y21673   0.318   4.517   4.210 -0.1357  0.6403 -2.4508
  188POPC  C31521674   0.203   4.669   4.295  0.0005  0.2860 -0.5599
  188POPC  H15X21675   0.107   4.636   4.249 -0.9952 -1.9589  2.7458
  188POPC  H15Y21676   0.192   4.779   4.298  0.7197  0.3946 -1.4130
  188POPC  C31621677   0.214   4.601   4.432 -0.1258 -0.3342  0.5616
  188POPC  H16X21678   0.248   4.498   4.409  2.7226  0.5502  0.4013
  188POPC  H16Y21679   0.119   4.593   4.490  0.4965 -1.6185  1.4393
  188POPC  H16Z21680   0.299   4.648   4.485 -1.3024  0.0180  2.2438
  189SAPI   C1221681   0.377   0.864   6.969 -0.6040  0.1781  0.4496
  189SAPI    H221682   0.361   0.823   6.867  1.4293 -1.4285  0.7221
  189SAPI    O221683   0.430   0.759   7.040 -0.2201  0.3752  0.1890
  189SAPI   HO221684   0.381   0.677   7.029  1.0375 -0.1612 -2.0254
  189SAPI   C1321685   0.482   0.971   6.952 -0.3291 -0.2516 -0.2429
  189SAPI    H321686   0.443   1.046   6.880 -0.5567  0.3711  0.5254
  189SAPI    O321687   0.596   0.928   6.879 -0.4245 -0.5586 -1.0896
  189SAPI   HO321688   0.646   0.866   6.933  0.2592  1.5115  0.8736
  189SAPI   C1421689   0.534   1.037   7.085 -0.0518  0.7528 -0.2142
  189SAPI    H421690   0.582   0.949   7.133 -1.0345 -0.9676 -2.2205
  189SAPI    O421691   0.619   1.151   7.067 -0.8139 -1.1050 -0.0346
  189SAPI   HO421692   0.577   1.228   7.028  2.0134  1.1135  0.9434
  189SAPI   C1521693   0.409   1.074   7.168 -0.3591 -0.0223 -0.2735
  189SAPI    H521694   0.375   1.167   7.118  0.8271  2.0584  2.5575
  189SAPI    O521695   0.442   1.125   7.299  0.4535 -0.3217  0.1381
  189SAPI   HO521696   0.417   1.050   7.353 -1.8645 -0.2095 -0.6640
  189SAPI   C1621697   0.284   0.973   7.174 -0.4846  0.4090 -0.8472
  189SAPI    H621698   0.321   0.889   7.236 -1.8049  0.9778  0.8076
  189SAPI    O621699   0.174   1.033   7.238 -0.1371 -0.2962  0.0232
  189SAPI   HO621700   0.097   1.041   7.181 -1.5325 -1.6374  1.6641
  189SAPI   C1121701   0.247   0.916   7.035  0.7769 -0.9584 -0.3337
  189SAPI    H121702   0.217   0.994   6.961  3.4608  1.9125  1.3601
  189SAPI     P21703  -0.001   0.833   7.001  0.2330  0.1520  0.0799
  189SAPI   O1321704  -0.036   0.957   7.070  0.5857 -0.2554 -0.1045
  189SAPI   O1421705  -0.087   0.715   7.013 -0.0109  0.1239  0.2137
  189SAPI   O1221706   0.160   0.801   7.040  0.0157 -0.1116  0.6059
  189SAPI   O1121707   0.003   0.875   6.851 -0.2713 -0.3651  0.3926
  189SAPI    C121708  -0.048   0.782   6.757  0.1305 -0.0136  0.1420
  189SAPI    HA21709  -0.146   0.737   6.782  0.5715 -1.1732 -0.1532
  189SAPI    HB21710  -0.072   0.838   6.664  2.1094 -1.5043 -1.3367
  189SAPI    C221711   0.062   0.669   6.730 -0.0328  0.1975 -0.6796
  189SAPI    HS21712   0.154   0.693   6.788  1.4428 -1.1881 -2.3371
  189SAPI   O2121713   0.088   0.670   6.591 -0.0375  0.3700 -0.7611
  189SAPI   C2121714   0.213   0.695   6.556 -0.9247 -0.5316  0.2572
  189SAPI   O2221715   0.306   0.725   6.630  0.6415  0.7523  0.3924
  189SAPI   C2221716   0.233   0.679   6.402 -0.2746 -0.5274  0.1996
  189SAPI   H2R21717   0.330   0.732   6.392 -0.6374  0.2529  0.7042
  189SAPI   H2S21718   0.248   0.571   6.384  1.5291  0.0212 -2.0576
  189SAPI    C321719   0.000   0.526   6.760  0.4320  0.5515 -0.8542
  189SAPI    HX21720  -0.096   0.528   6.706 -0.2465  1.6921  0.3246
  189SAPI    HY21721  -0.030   0.519   6.867  0.8987 -0.7631 -0.7965
  189SAPI   O3121722   0.076   0.410   6.718 -0.2678 -0.2152 -0.5775
  189SAPI   C3121723   0.168   0.362   6.796 -1.1735  0.0350 -0.3431
  189SAPI   O3221724   0.212   0.421   6.898  0.4750  0.8693  0.2967
  189SAPI   C3221725   0.219   0.231   6.738 -0.2354  0.3494  0.6696
  189SAPI   H2X21726   0.138   0.175   6.689  0.2876 -0.8031  1.0747
  189SAPI   H2Y21727   0.264   0.178   6.825 -0.2246 -0.6597  0.0563
  189SAPI   C2321728   0.120   0.733   6.315  0.7139  0.0894  0.0076
  189SAPI   H3R21729   0.025   0.676   6.324  1.9324 -1.7880  1.7321
  189SAPI   H3S21730   0.139   0.700   6.210  0.1491 -0.6624  0.1310
  189SAPI   C2421731   0.102   0.887   6.334  0.0089 -0.8130 -0.5686
  189SAPI   H4R21732   0.044   0.895   6.428  0.7090 -3.8677  0.2458
  189SAPI   H4S21733   0.028   0.918   6.257  0.2396 -0.8371 -0.8045
  189SAPI   C2521734   0.220   0.976   6.313 -0.3636 -0.4945  0.0025
  189SAPI   H5R21735   0.259   1.022   6.405  0.3307  1.8321 -1.3784
  189SAPI   C2621736   0.273   1.002   6.190 -0.2553 -0.0339  0.3959
  189SAPI   H6R21737   0.356   1.074   6.189  0.0025 -0.3062  1.1844
  189SAPI   C2721738   0.225   0.930   6.064 -0.7313 -0.0369 -0.6579
  189SAPI   H7R21739   0.186   1.008   5.995 -1.5076  0.2779  0.1265
  189SAPI   H7S21740   0.132   0.871   6.079  0.2298 -1.3717  0.2195
  189SAPI   C2821741   0.330   0.841   5.995 -0.2647  0.3826 -0.5300
  189SAPI   H8R21742   0.404   0.801   6.065 -0.7299  2.7033  1.4508
  189SAPI   C2921743   0.330   0.799   5.865  0.0473 -0.4582 -0.9376
  189SAPI   H9R21744   0.412   0.736   5.826  1.7044  1.7918 -1.2759
  189SAPI  C21021745   0.225   0.834   5.761 -0.9653 -0.8354  0.4004
  189SAPI  H10R21746   0.264   0.820   5.658  2.3364 -1.8122  1.6408
  189SAPI  H10S21747   0.189   0.938   5.772 -0.9305 -0.7718 -0.0922
  189SAPI  C21121748   0.105   0.747   5.780 -0.0648 -0.2935 -0.6347
  189SAPI  H11R21749   0.071   0.732   5.883 -1.8856  0.4034 -1.0938
  189SAPI  C21221750   0.037   0.679   5.688  0.1839  0.0713  0.3207
  189SAPI  H12R21751  -0.052   0.622   5.721  1.3522 -1.7456  0.4525
  189SAPI  C21321752   0.049   0.703   5.538 -0.2657 -0.5714  0.6359
  189SAPI  H13R21753   0.065   0.605   5.489 -1.5128  0.6457 -2.4571
  189SAPI  H13S21754   0.140   0.759   5.507 -1.8537  1.2255 -1.0886
  189SAPI  C21421755  -0.062   0.768   5.474  0.3985 -0.2138  0.7681
  189SAPI  H14R21756  -0.146   0.811   5.531 -1.5918 -2.3837 -0.3871
  189SAPI  C21521757  -0.076   0.780   5.337 -0.3716 -0.0755 -0.5031
  189SAPI  H15R21758  -0.162   0.839   5.302 -2.0783 -1.3783  1.2907
  189SAPI  C21621759   0.025   0.736   5.237 -0.2215  0.0329 -0.3339
  189SAPI  H16R21760   0.073   0.640   5.267 -0.7881 -0.0698  0.2613
  189SAPI  H16S21761   0.111   0.804   5.226 -0.5904  0.4968 -0.3657
  189SAPI  C21721762  -0.027   0.730   5.092 -0.1632  0.6638 -0.1373
  189SAPI  H17R21763  -0.130   0.688   5.088 -0.1608  0.5158  0.8667
  189SAPI  H17S21764   0.044   0.673   5.029  1.4711  0.9908  1.3279
  189SAPI  C21821765  -0.037   0.871   5.030  0.8316  0.5157 -0.1739
  189SAPI  H18R21766   0.055   0.930   5.010  1.1904  0.0657  0.1292
  189SAPI  H18S21767  -0.108   0.934   5.088 -0.9206 -3.0344  1.8726
  189SAPI  C21921768  -0.117   0.862   4.890 -0.3909 -0.7558  0.2830
  189SAPI  H19R21769  -0.227   0.853   4.898 -0.7574  0.5708 -2.2416
  189SAPI  H19S21770  -0.081   0.770   4.840  2.6193 -0.0062  0.8536
  189SAPI  C22021771  -0.082   0.987   4.817  0.5821  0.5253  0.7291
  189SAPI  H20R21772  -0.138   0.996   4.721 -1.1714  1.9417  1.8167
  189SAPI  H20S21773   0.027   1.008   4.803  0.8222 -1.3175 -0.4571
  189SAPI  H20T21774  -0.119   1.074   4.876 -2.3276 -2.4504  3.6895
  189SAPI   C3321775   0.342   0.251   6.643 -0.1703  0.9016  0.5961
  189SAPI   H3X21776   0.378   0.151   6.609 -0.2757  0.1284  2.6421
  189SAPI   H3Y21777   0.423   0.299   6.701  0.8036 -0.7251  0.6585
  189SAPI   C3421778   0.323   0.325   6.510 -0.5909 -0.0856 -0.1505
  189SAPI   H4X21779   0.285   0.427   6.527 -1.6467 -0.5792  0.5734
  189SAPI   H4Y21780   0.240   0.279   6.453 -2.1154  1.5919  0.6379
  189SAPI   C3521781   0.455   0.323   6.435  0.3123 -0.5608 -0.2486
  189SAPI   H5X21782   0.478   0.219   6.402  1.9628 -0.5679  0.8134
  189SAPI   H5Y21783   0.538   0.344   6.506 -0.3391 -1.3593  0.7761
  189SAPI   C3621784   0.456   0.425   6.313  0.4767 -0.0306 -1.0886
  189SAPI   H6X21785   0.555   0.407   6.266  0.4255  0.5008 -1.4114
  189SAPI   H6Y21786   0.456   0.531   6.345 -2.0535 -0.1672 -0.4343
  189SAPI   C3721787   0.351   0.395   6.201 -0.0630 -0.4104 -0.1409
  189SAPI   H7X21788   0.246   0.400   6.239  0.1191  0.4036  0.2761
  189SAPI   H7Y21789   0.372   0.288   6.178  0.2281  0.0666 -2.2255
  189SAPI   C3821790   0.373   0.471   6.071 -0.2540  0.1201 -0.2244
  189SAPI   H8X21791   0.479   0.472   6.038 -0.5960  1.5661 -1.4052
  189SAPI   H8Y21792   0.368   0.576   6.109 -1.2156  0.6167 -1.6646
  189SAPI   C3921793   0.279   0.440   5.951 -0.0526 -0.5393  0.1442
  189SAPI   H9X21794   0.296   0.505   5.863  0.8239 -0.0668  0.6464
  189SAPI   H9Y21795   0.176   0.457   5.988 -0.3139  0.3044 -0.9445
  189SAPI  C31021796   0.289   0.297   5.889  0.2739 -0.1937 -0.6390
  189SAPI  H10X21797   0.267   0.228   5.973  1.8863  0.1589  0.1013
  189SAPI  H10Y21798   0.394   0.279   5.858  0.5178  1.6098 -0.9771
  189SAPI  C31121799   0.190   0.266   5.772  0.1779  0.3356 -0.0466
  189SAPI  H11X21800   0.186   0.352   5.703 -0.2595  0.9472  0.7240
  189SAPI  H11Y21801   0.086   0.259   5.809  0.2013 -0.4953 -0.1088
  189SAPI  C31221802   0.231   0.148   5.686 -0.3353 -0.0250  0.7338
  189SAPI  H12X21803   0.222   0.067   5.761 -2.6938 -0.8834 -0.3738
  189SAPI  H12Y21804   0.336   0.161   5.652  0.1198  1.1192  2.4391
  189SAPI  C31321805   0.135   0.120   5.567  0.6254  0.2511 -1.0200
  189SAPI  H13X21806   0.028   0.125   5.598  0.6492  0.1231 -0.9164
  189SAPI  H13Y21807   0.165   0.020   5.528  2.7075  0.4121 -0.0020
  189SAPI  C31421808   0.145   0.221   5.455 -0.4753 -0.2666  0.1073
  189SAPI  H14X21809   0.152   0.325   5.492 -1.1409 -0.0366 -0.3806
  189SAPI  H14Y21810   0.050   0.211   5.397 -0.0943  1.1975 -0.8327
  189SAPI  C31521811   0.274   0.190   5.364 -0.0726  1.1460  0.1556
  189SAPI  H15X21812   0.267   0.083   5.335  1.6531  0.5907  1.5742
  189SAPI  H15Y21813   0.354   0.201   5.441 -1.1693 -0.6906  1.6366
  189SAPI  C31621814   0.270   0.275   5.241 -0.2415 -0.2392  0.3386
  189SAPI  H16X21815   0.261   0.381   5.273  1.3125  0.3303 -0.9742
  189SAPI  H16Y21816   0.182   0.255   5.176 -0.3355 -1.4662  0.8294
  189SAPI  C31721817   0.402   0.258   5.167 -0.5214 -0.5562  0.4099
  189SAPI  H17X21818   0.428   0.152   5.148 -1.8000 -0.5744 -1.4869
  189SAPI  H17Y21819   0.484   0.302   5.229  0.3511 -1.5641 -0.0016
  189SAPI  C31821820   0.408   0.333   5.032  0.2143 -0.8162  0.0138
  189SAPI  H18X21821   0.362   0.433   5.047  3.3404  0.8142 -0.3129
  189SAPI  H18Y21822   0.371   0.279   4.942  0.5909  0.8340 -1.1923
  189SAPI  H18Z21823   0.516   0.357   5.019  0.5260 -0.8157  2.1790
  190SAPI   C1221824   0.076   4.552   6.890 -0.8170 -0.2122  0.4511
  190SAPI    H221825   0.181   4.579   6.867 -0.7319 -1.4859 -0.7455
  190SAPI    O221826  -0.005   4.662   6.866  0.1359 -0.2892  0.4049
  190SAPI   HO221827   0.045   4.744   6.874  1.1711 -0.7604 -0.7986
  190SAPI   C1321828   0.024   4.432   6.813  0.2188 -0.2507  0.2108
  190SAPI    H321829   0.084   4.344   6.844  0.5255  0.8781  3.1750
  190SAPI    O321830   0.056   4.434   6.673  0.0266  0.4271  0.0896
  190SAPI   HO321831  -0.013   4.480   6.625  0.4458 -0.0319 -0.9840
  190SAPI   C1421832  -0.123   4.413   6.844  0.3290 -0.2784 -0.5020
  190SAPI    H421833  -0.176   4.500   6.802  1.1722 -0.4705 -2.0319
  190SAPI    O421834  -0.181   4.301   6.773 -0.2170  0.1731  0.6313
  190SAPI   HO421835  -0.232   4.253   6.839  3.2930 -0.3771  3.2297
  190SAPI   C1521836  -0.149   4.408   6.999 -0.1195  0.1926 -0.9133
  190SAPI    H521837  -0.131   4.302   7.025  0.4532 -0.0105 -2.0917
  190SAPI    O521838  -0.288   4.435   7.020  0.2119 -0.4315 -0.7014
  190SAPI   HO521839  -0.327   4.349   7.039 -0.9050  0.1175 -0.4524
  190SAPI   C1621840  -0.062   4.499   7.087  0.2846  0.5930  0.0641
  190SAPI    H621841  -0.112   4.597   7.097 -0.6959  0.0553  0.5293
  190SAPI    O621842  -0.060   4.449   7.223  0.0115 -0.9084 -0.2392
  190SAPI   HO621843  -0.049   4.354   7.231 -0.3238 -0.8432  1.2785
  190SAPI   C1121844   0.078   4.518   7.037 -0.4701 -0.1997  0.0608
  190SAPI    H121845   0.127   4.418   7.045  0.2628  0.1422 -0.0357
  190SAPI     P21846   0.308   4.583   7.138 -0.1817  0.3092  0.0540
  190SAPI   O1321847   0.333   4.439   7.114 -0.5756  0.1461 -0.0205
  190SAPI   O1421848   0.342   4.636   7.275  0.2782  0.1023 -0.4821
  190SAPI   O1221849   0.147   4.621   7.113  0.1900 -0.6388 -1.0739
  190SAPI   O1121850   0.386   4.677   7.039  1.0783  0.1145 -0.2437
  190SAPI    C121851   0.343   4.804   6.989 -0.7257 -0.0559  0.6887
  190SAPI    HA21852   0.247   4.796   6.934 -0.2922 -0.1887 -0.0599
  190SAPI    HB21853   0.326   4.874   7.074  1.7694 -0.0348  1.2575
  190SAPI    C221854   0.448   4.869   6.891 -0.0881  0.1848 -0.6660
  190SAPI    HS21855   0.411   4.962   6.841  0.7142  2.2964  2.4046
  190SAPI   O2121856   0.483   4.774   6.792  0.2682 -0.3497  0.5038
  190SAPI   C2121857   0.382   4.742   6.709  0.1132  0.4118 -0.9858
  190SAPI   O2221858   0.265   4.785   6.714 -0.5849 -0.0904 -0.2969
  190SAPI   C2221859   0.428   4.647   6.599 -0.3501  0.6318 -0.4533
  190SAPI   H2R21860   0.451   4.546   6.639 -0.0622  0.7361 -0.3572
  190SAPI   H2S21861   0.336   4.627   6.540  0.3266 -1.5503 -0.8644
  190SAPI    C321862   0.576   4.907   6.970 -0.3536 -0.0376  0.5607
  190SAPI    HX21863   0.616   4.812   7.013  2.4459 -0.5381 -2.7081
  190SAPI    HY21864   0.537   4.982   7.042 -1.1073 -1.4539  1.7039
  190SAPI   O3121865   0.673   4.969   6.892  0.6114 -0.2493  0.2969
  190SAPI   C3121866   0.780   4.902   6.844 -0.6798  0.2279 -0.1968
  190SAPI   O3221867   0.788   4.780   6.832  0.5378 -0.4427  0.0544
  190SAPI   C3221868   0.879   5.003   6.782 -0.6536  0.0328  0.2336
  190SAPI   H2X21869   0.950   5.020   6.866 -1.2455 -0.0246  0.7534
  190SAPI   H2Y21870   0.825   5.097   6.755 -0.2108 -0.1509 -1.3936
  190SAPI   C2321871   0.554   4.700   6.536 -0.0034  0.2621 -0.3066
  190SAPI   H3R21872   0.628   4.710   6.618 -0.4126 -1.1566  0.2594
  190SAPI   H3S21873   0.533   4.802   6.496  1.4606  0.5173 -0.4807
  190SAPI   C2421874   0.605   4.607   6.425 -0.8392  0.1130  0.2829
  190SAPI   H4R21875   0.621   4.507   6.471 -0.8928  0.7505  1.7500
  190SAPI   H4S21876   0.696   4.659   6.389 -1.5237  1.9202  1.0501
  190SAPI   C2521877   0.501   4.600   6.312  0.3579  0.0924 -0.1482
  190SAPI   H5R21878   0.396   4.589   6.342  0.1701  0.7872 -0.5304
  190SAPI   C2621879   0.533   4.615   6.182 -0.0841  0.9324  0.7870
  190SAPI   H6R21880   0.449   4.613   6.111  1.7427 -0.9763 -1.4677
  190SAPI   C2721881   0.668   4.636   6.117  0.3085 -0.2693  0.3783
  190SAPI   H7R21882   0.740   4.678   6.190 -0.2867  0.0862  0.7686
  190SAPI   H7S21883   0.660   4.711   6.035  1.3744 -0.8515 -0.2905
  190SAPI   C2821884   0.728   4.508   6.057 -0.0289 -0.5123 -0.3270
  190SAPI   H8R21885   0.804   4.455   6.117 -0.6168 -0.0053  0.9106
  190SAPI   C2921886   0.710   4.462   5.928 -0.0554 -0.3430  0.3868
  190SAPI   H9R21887   0.762   4.370   5.898  1.0260  0.3492  0.0917
  190SAPI  C21021888   0.614   4.524   5.827 -0.1222 -0.1819  0.6214
  190SAPI  H10R21889   0.645   4.622   5.784 -0.1777 -0.5494 -0.2874
  190SAPI  H10S21890   0.519   4.548   5.879 -0.5439  1.0168 -0.6394
  190SAPI  C21121891   0.582   4.431   5.715  0.9159 -0.5171  0.4036
  190SAPI  H11R21892   0.521   4.344   5.746 -1.8059  0.8014 -0.9155
  190SAPI  C21221893   0.588   4.446   5.584  0.2030 -1.1140  0.7380
  190SAPI  H12R21894   0.554   4.359   5.526  2.3888 -0.3238 -1.9420
  190SAPI  C21321895   0.656   4.561   5.508  0.2102 -0.3399  0.1030
  190SAPI  H13R21896   0.745   4.516   5.459  0.3111 -0.3163  0.2638
  190SAPI  H13S21897   0.682   4.647   5.574  0.5390 -0.9684  0.8075
  190SAPI  C21421898   0.561   4.609   5.397  0.1771 -0.6570 -0.1930
  190SAPI  H14R21899   0.461   4.631   5.437 -1.0741 -3.2417 -1.6196
  190SAPI  C21521900   0.576   4.636   5.264 -0.6298  0.3176 -0.0655
  190SAPI  H15R21901   0.486   4.667   5.208 -1.3063 -0.9252  0.2898
  190SAPI  C21621902   0.702   4.616   5.185 -0.5474  0.1790 -0.3283
  190SAPI  H16R21903   0.681   4.524   5.126 -0.9469 -0.1052  0.2573
  190SAPI  H16S21904   0.781   4.625   5.261  0.0663  3.9129 -1.2081
  190SAPI  C21721905   0.732   4.736   5.093  0.1601  0.0317  0.3157
  190SAPI  H17R21906   0.657   4.743   5.011 -0.4919  1.7134  1.0066
  190SAPI  H17S21907   0.828   4.714   5.041  0.0736  1.9053 -0.7096
  190SAPI  C21821908   0.740   4.869   5.164  0.2993 -0.9160  0.1941
  190SAPI  H18R21909   0.821   4.886   5.238 -0.2635  2.0960  0.2108
  190SAPI  H18S21910   0.647   4.888   5.222  0.7350 -0.6878  0.8245
  190SAPI  C21921911   0.744   4.980   5.052 -0.0266 -0.0735 -0.3458
  190SAPI  H19R21912   0.692   4.952   4.958 -0.2876  0.6732 -0.4303
  190SAPI  H19S21913   0.851   4.991   5.029 -0.3149  1.2823 -1.0784
  190SAPI  C22021914   0.698   5.119   5.101 -0.8776  0.1177  0.3514
  190SAPI  H20R21915   0.750   5.154   5.193  0.6007 -2.0572  0.4325
  190SAPI  H20S21916   0.588   5.132   5.099 -0.8121  0.5814 -1.4544
  190SAPI  H20T21917   0.726   5.192   5.022 -0.3657 -0.8943 -0.4193
  190SAPI   C3321918   0.953   4.963   6.651 -0.8030  0.3746  0.1543
  190SAPI   H3X21919   1.011   4.869   6.656 -0.7846  0.4193  0.8970
  190SAPI   H3Y21920   1.031   5.040   6.632 -0.2510 -0.1246  0.3591
  190SAPI   C3421921   0.871   4.967   6.517  0.0489 -0.6105 -0.8856
  190SAPI   H4X21922   0.830   5.070   6.510  1.4532 -0.1296 -2.5779
  190SAPI   H4Y21923   0.788   4.893   6.516 -0.8739  0.3631 -2.6668
  190SAPI   C3521924   0.952   4.931   6.393  0.1238 -0.2555 -0.9492
  190SAPI   H5X21925   0.987   4.826   6.405 -0.6227 -0.4282 -0.1588
  190SAPI   H5Y21926   1.042   4.995   6.396  0.4863 -0.7639 -0.7621
  190SAPI   C3621927   0.877   4.967   6.254 -0.8153 -0.0910 -0.0976
  190SAPI   H6X21928   0.866   5.077   6.254  1.2024  0.1901  2.0246
  190SAPI   H6Y21929   0.782   4.910   6.262  0.2239 -1.7211  1.5055
  190SAPI   C3721930   0.972   4.933   6.133  0.7796  0.1225 -0.1568
  190SAPI   H7X21931   1.001   4.826   6.136  0.9789  0.1867  0.2294
  190SAPI   H7Y21932   1.054   5.007   6.138  0.7426  0.7836 -4.8723
  190SAPI   C3821933   0.898   4.955   5.996 -0.1039 -0.0834  0.2162
  190SAPI   H8X21934   0.859   5.058   5.987 -3.6659 -1.4240 -1.7807
  190SAPI   H8Y21935   0.809   4.890   5.992  0.8525 -1.4092 -0.4555
  190SAPI   C3921936   0.986   4.911   5.878 -0.4090 -0.2287  0.1111
  190SAPI   H9X21937   0.970   4.802   5.861 -0.4943  0.1672 -2.7403
  190SAPI   H9Y21938   1.091   4.935   5.903 -0.7600  2.0069 -0.3927
  190SAPI  C31021939   0.965   4.999   5.754 -0.2222  0.5005  0.4065
  190SAPI  H10X21940   0.939   5.098   5.796 -0.2112  1.4887 -1.7531
  190SAPI  H10Y21941   0.871   4.972   5.702 -0.5217  2.0009  0.1161
  190SAPI  C31121942   1.095   5.003   5.666  0.2378 -0.0165  1.0449
  190SAPI  H11X21943   1.113   4.898   5.634  3.0290  0.4162  0.9424
  190SAPI  H11Y21944   1.189   5.042   5.711  0.4368  0.4900  0.2081
  190SAPI  C31221945   1.064   5.071   5.543  0.4090 -0.6817  0.0305
  190SAPI  H12X21946   1.068   5.182   5.555  1.6749 -0.7418  0.2836
  190SAPI  H12Y21947   0.962   5.041   5.510  0.5902 -0.7478 -0.4707
  190SAPI  C31321948   1.158   5.036   5.422  0.2107  0.4224 -1.2093
  190SAPI  H13X21949   1.141   4.927   5.409 -0.0321  0.2833  0.1243
  190SAPI  H13Y21950   1.263   5.047   5.458 -0.5661  0.1499  1.3714
  190SAPI  C31421951   1.120   5.096   5.288  0.8574 -0.6074  0.3773
  190SAPI  H14X21952   1.121   5.204   5.312  0.4392 -0.9495  2.0948
  190SAPI  H14Y21953   1.017   5.060   5.265  0.4234 -0.0704  1.4269
  190SAPI  C31521954   1.216   5.085   5.161  0.2204 -0.1019 -0.0512
  190SAPI  H15X21955   1.180   4.992   5.110 -0.7757 -1.1767  2.4583
  190SAPI  H15Y21956   1.318   5.064   5.200  1.0038  1.5704 -1.0969
  190SAPI  C31621957   1.221   5.196   5.054  0.0722 -0.7919 -0.0923
  190SAPI  H16X21958   1.273   5.291   5.078 -1.2325  0.5601 -2.2763
  190SAPI  H16Y21959   1.115   5.227   5.043 -0.2414 -1.6316  0.4490
  190SAPI  C31721960   1.276   5.161   4.917  0.1410  0.5817 -0.7634
  190SAPI  H17X21961   1.220   5.067   4.895 -1.5565  1.3717  0.0001
  190SAPI  H17Y21962   1.385   5.139   4.916  0.7810  3.3116  0.2598
  190SAPI  C31821963   1.255   5.262   4.803  0.3113 -0.0866  0.4906
  190SAPI  H18X21964   1.145   5.278   4.800  0.1322 -1.1829  0.7768
  190SAPI  H18Y21965   1.286   5.214   4.707  1.1840  1.8398 -0.2249
  190SAPI  H18Z21966   1.324   5.348   4.813  1.2433 -0.7921  0.3754
  191SAPI   C1221967   0.351   4.149   2.687 -0.2234  0.7863 -0.6901
  191SAPI    H221968   0.420   4.063   2.675 -1.5444 -0.0247 -3.2133
  191SAPI    O221969   0.325   4.171   2.824  0.6320  0.2446  0.0368
  191SAPI   HO221970   0.271   4.101   2.862  0.1537  0.1671 -0.7738
  191SAPI   C1321971   0.419   4.263   2.633  0.5926 -0.1322  0.1978
  191SAPI    H321972   0.454   4.237   2.531  2.1577  1.7624  0.1929
  191SAPI    O321973   0.544   4.291   2.688 -0.5960 -0.3222 -0.5298
  191SAPI   HO321974   0.545   4.264   2.781  1.1614 -0.4885 -0.5691
  191SAPI   C1421975   0.324   4.387   2.621  0.3901  0.4378 -0.4424
  191SAPI    H421976   0.330   4.434   2.722 -1.6031  1.1371 -0.6133
  191SAPI    O421977   0.370   4.493   2.537  0.1533 -0.2091  0.8933
  191SAPI   HO421978   0.453   4.526   2.570  0.0134  2.0182 -0.6972
  191SAPI   C1521979   0.170   4.369   2.611 -0.4329  0.1917  0.2736
  191SAPI    H521980   0.147   4.397   2.506 -0.5890  1.2772  0.5866
  191SAPI    O521981   0.100   4.463   2.694  0.0896 -0.4987  0.0020
  191SAPI   HO521982   0.004   4.468   2.683  0.0030 -2.2995 -0.3277
  191SAPI   C1621983   0.123   4.223   2.626 -0.0020  0.3785  0.3077
  191SAPI    H621984   0.086   4.207   2.729 -0.7597 -1.6619 -0.2464
  191SAPI    O621985   0.017   4.195   2.532 -0.0859  0.1723 -0.0318
  191SAPI   HO621986  -0.025   4.116   2.567  0.7272 -0.2334  0.0585
  191SAPI   C1121987   0.230   4.120   2.603  0.6308 -0.4054 -0.7463
  191SAPI    H121988   0.253   4.113   2.494 -1.2484 -5.1118 -1.0869
  191SAPI     P21989   0.122   3.870   2.553 -0.1790  0.6914  0.2551
  191SAPI   O1321990   0.118   3.745   2.640  0.0006 -0.4755 -0.0333
  191SAPI   O1421991   0.208   3.860   2.435 -0.4114 -0.9236 -0.0293
  191SAPI   O1221992   0.168   3.997   2.654  0.2168 -0.4897  0.0128
  191SAPI   O1121993  -0.022   3.906   2.513  0.5291 -0.6684  0.7279
  191SAPI    C121994  -0.134   3.859   2.592  0.5995  0.6366 -0.5340
  191SAPI    HA21995  -0.213   3.823   2.523 -0.9022  1.1113  0.8824
  191SAPI    HB21996  -0.107   3.791   2.675 -0.0909  1.4761  0.4001
  191SAPI    C221997  -0.206   3.977   2.658  0.6898 -0.0836  0.3917
  191SAPI    HS21998  -0.215   4.064   2.590  0.6997  2.1661  3.1017
  191SAPI   O2121999  -0.130   4.015   2.769  0.4201 -0.4401 -0.3521
  191SAPI   C2122000  -0.171   4.123   2.836 -0.2771  0.7737 -1.3925
  191SAPI   O2222001  -0.272   4.186   2.817 -0.4147 -0.0644 -0.4871
  191SAPI   C2222002  -0.091   4.124   2.970  0.1755  0.1487 -0.1956
  191SAPI   H2R22003  -0.120   4.035   3.030  4.1845 -0.1798  1.5939
  191SAPI   H2S22004   0.013   4.115   2.932 -0.3142 -0.7144 -1.3796
  191SAPI    C322005  -0.346   3.919   2.692 -0.0319 -0.1426  0.0603
  191SAPI    HX22006  -0.405   3.895   2.601 -1.6528  0.8746  0.7962
  191SAPI    HY22007  -0.403   4.003   2.738 -1.0630 -1.2241  0.8410
  191SAPI   O3122008  -0.333   3.797   2.775 -0.6626  0.0302 -0.0439
  191SAPI   C3122009  -0.346   3.812   2.913 -0.4923 -0.7476  0.2227
  191SAPI   O3222010  -0.353   3.920   2.971 -0.7774 -0.1300 -0.0582
  191SAPI   C3222011  -0.344   3.671   2.971  0.3905 -0.2845  0.2407
  191SAPI   H2X22012  -0.306   3.604   2.891 -0.2370  1.2268 -1.3853
  191SAPI   H2Y22013  -0.451   3.653   2.994  0.0764  2.4800  1.3093
  191SAPI   C2322014  -0.098   4.249   3.068  0.6465  0.7240 -0.1834
  191SAPI   H3R22015  -0.080   4.345   3.016  0.0803  0.8686 -0.1276
  191SAPI   H3S22016  -0.020   4.236   3.146  1.3506  0.1495 -0.9719
  191SAPI   C2422017  -0.241   4.266   3.143 -0.5504 -0.0616  0.0792
  191SAPI   H4R22018  -0.318   4.314   3.079 -0.8138  1.7219  1.6374
  191SAPI   H4S22019  -0.224   4.348   3.216 -1.3621  0.0763  0.1202
  191SAPI   C2522020  -0.298   4.148   3.211  0.7765 -0.6795 -0.1896
  191SAPI   H5R22021  -0.378   4.097   3.155  0.7905 -0.8245 -0.0799
  191SAPI   C2622022  -0.262   4.097   3.331  0.3219  0.2445 -0.5190
  191SAPI   H6R22023  -0.334   4.030   3.380 -0.9095  0.4004 -2.0408
  191SAPI   C2722024  -0.152   4.147   3.418 -0.2787 -0.1320  0.4483
  191SAPI   H7R22025  -0.097   4.231   3.371  0.8047 -0.8180  0.4483
  191SAPI   H7S22026  -0.069   4.076   3.440 -0.8584 -0.2937  2.3108
  191SAPI   C2822027  -0.225   4.173   3.546  0.1498 -0.4531 -0.0391
  191SAPI   H8R22028  -0.284   4.086   3.578 -0.0251 -1.4534 -2.7525
  191SAPI   C2922029  -0.221   4.283   3.622  0.0923  0.0980  0.1360
  191SAPI   H9R22030  -0.275   4.278   3.718 -2.6527  1.0554 -1.2657
  191SAPI  C21022031  -0.143   4.407   3.597  0.8451  0.2313 -0.4781
  191SAPI  H10R22032  -0.060   4.407   3.523 -1.0223  0.0781 -2.6964
  191SAPI  H10S22033  -0.106   4.435   3.698 -1.4596  0.0868  0.4624
  191SAPI  C21122034  -0.224   4.520   3.542  0.4067  0.3568 -1.0661
  191SAPI  H11R22035  -0.278   4.501   3.448  0.6020  0.6231 -1.2337
  191SAPI  C21222036  -0.252   4.635   3.608  0.6908 -0.3888  0.0916
  191SAPI  H12R22037  -0.318   4.706   3.556 -1.1197 -0.4805  2.0777
  191SAPI  C21322038  -0.207   4.686   3.750  0.4337  0.6774  0.8329
  191SAPI  H13R22039  -0.166   4.789   3.746  2.3419 -0.0723 -0.1645
  191SAPI  H13S22040  -0.118   4.628   3.782  0.5628 -0.9876 -2.1635
  191SAPI  C21422041  -0.326   4.670   3.844 -0.2281  0.1800 -0.2579
  191SAPI  H14R22042  -0.423   4.655   3.794  0.2052  1.0541 -1.3893
  191SAPI  C21522043  -0.329   4.694   3.977 -0.4668  0.4439  0.2923
  191SAPI  H15R22044  -0.419   4.689   4.039 -0.1500  1.0276  0.8159
  191SAPI  C21622045  -0.204   4.744   4.044  0.4878  0.2621  0.1389
  191SAPI  H16R22046  -0.117   4.772   3.981  0.6672  0.1497  0.3358
  191SAPI  H16S22047  -0.161   4.657   4.099 -1.1447 -1.1010 -0.6463
  191SAPI  C21722048  -0.242   4.871   4.124  0.8041 -0.4310 -0.3126
  191SAPI  H17R22049  -0.304   4.939   4.062 -1.0149  0.2813  2.1379
  191SAPI  H17S22050  -0.151   4.928   4.153 -0.5821  0.9540  1.5762
  191SAPI  C21822051  -0.325   4.844   4.245 -0.3663 -0.0165  0.6540
  191SAPI  H18R22052  -0.410   4.776   4.220  0.0733 -0.0911 -0.7301
  191SAPI  H18S22053  -0.365   4.936   4.292  2.2079  1.4739  0.1157
  191SAPI  C21922054  -0.242   4.783   4.360 -0.1009  0.0105  0.5240
  191SAPI  H19R22055  -0.171   4.707   4.320  0.2287  0.4729  0.2262
  191SAPI  H19S22056  -0.304   4.732   4.437  0.8675 -1.5546  0.3246
  191SAPI  C22022057  -0.159   4.891   4.429 -0.2609  0.8771 -0.6651
  191SAPI  H20R22058  -0.224   4.929   4.510  1.3723  0.3481  0.9659
  191SAPI  H20S22059  -0.129   4.963   4.350  2.5868 -1.9962 -2.4835
  191SAPI  H20T22060  -0.063   4.852   4.470 -0.6295 -0.1235 -0.7161
  191SAPI   C3322061  -0.255   3.651   3.095 -0.4821  0.0774  1.0646
  191SAPI   H3X22062  -0.159   3.706   3.092  0.6303 -1.8314 -0.6757
  191SAPI   H3Y22063  -0.230   3.543   3.099  1.4716  0.5143  1.6528
  191SAPI   C3422064  -0.327   3.688   3.222 -0.6184  0.4494  0.4422
  191SAPI   H4X22065  -0.413   3.622   3.246 -1.9433  1.2619 -1.7761
  191SAPI   H4Y22066  -0.361   3.793   3.208  2.9155  1.4783 -1.7560
  191SAPI   C3522067  -0.234   3.698   3.339 -0.2089 -0.9651 -0.7323
  191SAPI   H5X22068  -0.165   3.783   3.321 -1.4716  0.3232  0.2099
  191SAPI   H5Y22069  -0.164   3.612   3.341  0.2875 -0.5813  1.3858
  191SAPI   C3622070  -0.307   3.702   3.472 -0.6085  0.1409 -0.3958
  191SAPI   H6X22071  -0.333   3.595   3.489  0.0782  0.0292 -0.0019
  191SAPI   H6Y22072  -0.403   3.753   3.446  0.1612  1.4412 -0.7470
  191SAPI   C3722073  -0.249   3.780   3.593  0.5416 -0.3338  0.0165
  191SAPI   H7X22074  -0.211   3.871   3.542  0.2012 -0.2863 -0.1538
  191SAPI   H7Y22075  -0.161   3.728   3.637  0.6131  0.0157  0.2932
  191SAPI   C3822076  -0.351   3.816   3.709 -0.3316 -0.0201 -0.2784
  191SAPI   H8X22077  -0.410   3.729   3.746  0.7374 -1.8457 -2.6287
  191SAPI   H8Y22078  -0.410   3.887   3.647  0.8528 -1.0680 -2.7379
  191SAPI   C3922079  -0.291   3.893   3.826 -0.2425  0.6370  0.7986
  191SAPI   H9X22080  -0.252   3.991   3.792  2.5073 -0.4542  0.5292
  191SAPI   H9Y22081  -0.206   3.833   3.865 -1.2256 -1.0113  0.5102
  191SAPI  C31022082  -0.391   3.894   3.941  0.4319 -0.0621  0.0089
  191SAPI  H10X22083  -0.398   3.795   3.992 -1.5930  1.0536  2.0837
  191SAPI  H10Y22084  -0.486   3.915   3.889  1.5153  0.8352 -1.6843
  191SAPI  C31122085  -0.364   4.003   4.054 -0.2431  0.2972 -0.3027
  191SAPI  H11X22086  -0.384   4.105   4.014  1.6769  1.3373  1.2156
  191SAPI  H11Y22087  -0.257   4.004   4.081 -0.6849 -0.3881  1.6061
  191SAPI  C31222088  -0.433   3.970   4.183  0.4158  0.5028  0.1731
  191SAPI  H12X22089  -0.360   3.963   4.267  0.8756  2.5631  0.0061
  191SAPI  H12Y22090  -0.490   3.876   4.172  0.1030  0.6624  0.3981
  191SAPI  C31322091  -0.530   4.090   4.217 -0.0690  0.1607 -0.3596
  191SAPI  H13X22092  -0.585   4.103   4.122  1.5816  1.9239 -1.1207
  191SAPI  H13Y22093  -0.460   4.172   4.242  2.5852 -2.6027  2.1987
  191SAPI  C31422094  -0.631   4.060   4.329  0.7746 -0.6462  0.5766
  191SAPI  H14X22095  -0.694   3.971   4.310 -0.2227 -0.4601  2.6930
  191SAPI  H14Y22096  -0.703   4.143   4.346 -0.8197 -1.9411  0.3236
  191SAPI  C31522097  -0.563   4.019   4.457 -0.1459 -0.3695  0.4857
  191SAPI  H15X22098  -0.470   4.078   4.471  0.3888 -0.9449 -0.5204
  191SAPI  H15Y22099  -0.519   3.919   4.438  1.7057  0.6568 -1.0356
  191SAPI  C31622100  -0.664   4.041   4.573 -0.6351  0.1465  0.7941
  191SAPI  H16X22101  -0.633   3.990   4.666 -1.9190  1.3717  1.9391
  191SAPI  H16Y22102  -0.764   4.005   4.542 -0.0166 -0.7978 -0.1759
  191SAPI  C31722103  -0.687   4.189   4.612 -0.0886  0.2944  0.3033
  191SAPI  H17X22104  -0.795   4.212   4.604 -0.2421 -0.6738 -0.6909
  191SAPI  H17Y22105  -0.654   4.264   4.537 -0.2001 -0.6784 -0.7532
  191SAPI  C31822106  -0.624   4.233   4.744  0.0117 -0.5493  0.6492
  191SAPI  H18X22107  -0.670   4.190   4.835  1.4731  0.9172  2.1676
  191SAPI  H18Y22108  -0.635   4.344   4.744  0.1576 -0.5190  2.0192
  191SAPI  H18Z22109  -0.515   4.213   4.740 -0.2800 -2.0903 -3.0888
  192SAPI   C1222110   2.804   0.807   2.657  0.2509 -0.4193  0.4436
  192SAPI    H222111   2.898   0.751   2.676  0.7098 -0.1864 -0.9755
  192SAPI    O222112   2.801   0.855   2.529  0.3008  0.1768  0.7732
  192SAPI   HO222113   2.892   0.870   2.504 -0.4661 -0.5908 -3.0817
  192SAPI   C1322114   2.690   0.718   2.691  0.2368 -0.0779  0.7125
  192SAPI    H322115   2.697   0.710   2.801  1.3550  0.1340  0.6671
  192SAPI    O322116   2.704   0.585   2.636 -0.5722  0.4904  0.2699
  192SAPI   HO322117   2.690   0.524   2.709 -2.6702  1.0202  0.3742
  192SAPI   C1422118   2.555   0.782   2.662 -0.0764 -0.6204  0.1223
  192SAPI    H422119   2.562   0.800   2.552 -0.7062 -0.2782  0.1374
  192SAPI    O422120   2.449   0.694   2.689  0.2420  0.0808 -0.3315
  192SAPI   HO422121   2.488   0.632   2.751  0.2014  0.7327  0.3680
  192SAPI   C1522122   2.548   0.923   2.719 -0.1156 -1.0470  0.5245
  192SAPI    H522123   2.507   0.906   2.821 -1.9825  0.8208  0.1575
  192SAPI    O522124   2.437   0.997   2.659 -1.1727 -0.1553 -0.5953
  192SAPI   HO522125   2.464   1.040   2.577  0.7922  1.6069  0.8780
  192SAPI   C1622126   2.680   1.000   2.730 -0.0675 -0.3007  0.7435
  192SAPI    H622127   2.692   1.046   2.630 -1.2475 -2.0922 -0.2801
  192SAPI    O622128   2.665   1.101   2.823 -0.0116  0.0031 -0.3431
  192SAPI   HO622129   2.731   1.167   2.800 -0.4567  0.3567 -0.6182
  192SAPI   C1122130   2.805   0.921   2.753  0.3118  0.4484 -0.3402
  192SAPI    H122131   2.810   0.880   2.856  1.7509 -1.8647 -1.2589
  192SAPI     P22132   3.062   0.993   2.814  0.3114 -0.2760  0.1713
  192SAPI   O1322133   3.167   1.064   2.740 -0.0311 -0.4997 -0.1433
  192SAPI   O1422134   3.089   0.852   2.854  0.1285 -0.3844  0.1934
  192SAPI   O1222135   2.915   1.004   2.726 -0.1614 -0.4897  0.0712
  192SAPI   O1122136   3.039   1.068   2.947  0.6647 -0.0521 -0.6365
  192SAPI    C122137   3.001   1.203   2.971  0.4036 -0.7017  0.3180
  192SAPI    HA22138   3.074   1.271   2.923 -2.0729  1.2217 -0.9617
  192SAPI    HB22139   2.899   1.215   2.928  0.0503 -1.1684  1.0012
  192SAPI    C222140   2.990   1.247   3.119 -0.0212  0.3259 -0.0558
  192SAPI    HS22141   2.951   1.351   3.124  0.4718  0.5413 -0.5499
  192SAPI   O2122142   3.124   1.243   3.172  0.7607 -0.2121 -0.5353
  192SAPI   C2122143   3.185   1.356   3.158 -0.4457 -0.5755 -0.3509
  192SAPI   O2222144   3.148   1.465   3.126  1.1263 -0.5945  0.2545
  192SAPI   C2222145   3.334   1.319   3.197  0.2937  0.1442  0.3952
  192SAPI   H2R22146   3.340   1.263   3.293  2.0708 -1.3069 -0.5035
  192SAPI   H2S22147   3.369   1.263   3.107  2.1236  1.7623  0.0348
  192SAPI    C322148   2.899   1.150   3.196  0.0163 -0.1625 -0.0569
  192SAPI    HX22149   2.924   1.046   3.166 -1.5058  0.2590 -3.1312
  192SAPI    HY22150   2.793   1.154   3.164  0.0066 -3.5207 -0.7809
  192SAPI   O3122151   2.905   1.159   3.347  0.6938  0.4183 -0.3288
  192SAPI   C3122152   2.833   1.261   3.403  0.2389  0.1653  0.2131
  192SAPI   O3222153   2.778   1.350   3.340 -0.1462 -0.0164 -0.0977
  192SAPI   C3222154   2.836   1.246   3.554  0.3139 -0.9556  0.2175
  192SAPI   H2X22155   2.938   1.280   3.584  0.1082  0.5751 -0.7284
  192SAPI   H2Y22156   2.824   1.137   3.567 -0.3798 -0.7359  1.5791
  192SAPI   C2322157   3.431   1.438   3.191  0.0793  0.3907 -0.0651
  192SAPI   H3R22158   3.430   1.487   3.291 -0.2137 -0.5322  0.4006
  192SAPI   H3S22159   3.399   1.505   3.108 -1.7591  0.0664  0.3376
  192SAPI   C2422160   3.581   1.403   3.167 -0.9337  0.5825  0.2811
  192SAPI   H4R22161   3.580   1.309   3.108 -0.7824  1.6465 -1.4691
  192SAPI   H4S22162   3.630   1.369   3.261  1.3348 -1.1512 -1.4134
  192SAPI   C2522163   3.649   1.518   3.097 -0.2546 -0.5152 -0.0866
  192SAPI   H5R22164   3.602   1.561   3.007  1.2982  2.2126  0.3005
  192SAPI   C2622165   3.733   1.608   3.153  0.0230 -0.0183 -0.4866
  192SAPI   H6R22166   3.789   1.678   3.089  1.1993 -1.0381 -0.6060
  192SAPI   C2722167   3.813   1.597   3.286  0.3039  0.2019  0.5027
  192SAPI   H7R22168   3.914   1.624   3.248  0.1232 -0.2492 -0.3428
  192SAPI   H7S22169   3.815   1.492   3.324  0.9428  0.3385  0.8656
  192SAPI   C2822170   3.767   1.683   3.400  0.6384  0.8364  0.2544
  192SAPI   H8R22171   3.751   1.786   3.364  0.7529  0.4499 -0.9565
  192SAPI   C2922172   3.739   1.655   3.527  0.2226 -0.0761  0.0647
  192SAPI   H9R22173   3.702   1.732   3.597 -2.2393  1.7888 -3.0109
  192SAPI  C21022174   3.759   1.519   3.591 -0.4869 -0.3840  0.2858
  192SAPI  H10R22175   3.854   1.518   3.649 -0.4079  1.8397  0.2845
  192SAPI  H10S22176   3.781   1.440   3.517  1.1622 -0.9167  1.2922
  192SAPI  C21122177   3.640   1.482   3.672  0.1713  0.4100 -0.0334
  192SAPI  H11R22178   3.563   1.428   3.613  0.6111 -0.6004  0.3000
  192SAPI  C21222179   3.624   1.511   3.797 -0.1799  0.1401 -0.0654
  192SAPI  H12R22180   3.534   1.480   3.853  0.0070  0.6139  0.5057
  192SAPI  C21322181   3.718   1.604   3.875  0.0195  0.0733  0.2676
  192SAPI  H13R22182   3.822   1.619   3.838 -0.4858  2.0370 -0.5005
  192SAPI  H13S22183   3.739   1.550   3.969  1.3205  0.5619  0.2813
  192SAPI  C21422184   3.661   1.744   3.891 -0.3396  0.9488 -0.1272
  192SAPI  H14R22185   3.626   1.800   3.803  1.8249  1.4025 -0.7528
  192SAPI  C21522186   3.639   1.803   4.008  0.5531 -0.4613 -0.1107
  192SAPI  H15R22187   3.600   1.906   4.006 -0.4913 -0.8520 -1.7016
  192SAPI  C21622188   3.666   1.748   4.140  0.1097  0.1300 -0.6741
  192SAPI  H16R22189   3.775   1.760   4.159  0.7999 -0.9587 -3.4153
  192SAPI  H16S22190   3.659   1.637   4.139  2.2292 -0.0514 -0.8349
  192SAPI  C21722191   3.578   1.811   4.246 -0.7148  0.1286 -0.6459
  192SAPI  H17R22192   3.596   1.920   4.253 -1.4857  0.2838 -0.9427
  192SAPI  H17S22193   3.622   1.769   4.339  0.6392  1.1637 -0.7976
  192SAPI  C21822194   3.425   1.776   4.243  0.1523 -0.1389  0.1238
  192SAPI  H18R22195   3.422   1.665   4.237 -0.1154 -0.0914 -0.7640
  192SAPI  H18S22196   3.394   1.808   4.141  0.7846 -2.2258 -0.7746
  192SAPI  C21922197   3.349   1.839   4.355  0.4657 -0.2314  0.9823
  192SAPI  H19R22198   3.382   1.945   4.355 -2.8806  1.0144 -2.1041
  192SAPI  H19S22199   3.388   1.788   4.446  1.6822 -1.2348 -0.0653
  192SAPI  C22022200   3.202   1.833   4.351  0.6739 -0.1022 -0.5517
  192SAPI  H20R22201   3.170   1.899   4.268 -3.7273 -0.9350  0.2101
  192SAPI  H20S22202   3.143   1.876   4.435  0.4892 -1.4190  0.0276
  192SAPI  H20T22203   3.168   1.728   4.341  0.5354 -0.0169 -0.9976
  192SAPI   C3322204   2.723   1.328   3.632  0.3618  0.2098  0.0286
  192SAPI   H3X22205   2.627   1.289   3.592 -0.8897  0.4396  2.5824
  192SAPI   H3Y22206   2.731   1.434   3.600  0.0692  0.3318  0.3535
  192SAPI   C3422207   2.731   1.321   3.788 -0.3583  0.5411 -0.0822
  192SAPI   H4X22208   2.659   1.393   3.832 -0.9478  1.7011 -2.7132
  192SAPI   H4Y22209   2.833   1.350   3.824 -0.0537 -0.2419 -0.3018
  192SAPI   C3522210   2.690   1.176   3.842 -0.8951  0.2418  0.6197
  192SAPI   H5X22211   2.759   1.102   3.795 -0.1424  1.7783 -0.8065
  192SAPI   H5Y22212   2.589   1.164   3.798  0.4266 -0.0472 -2.5971
  192SAPI   C3622213   2.706   1.156   3.993  0.2611  0.3909  0.5678
  192SAPI   H6X22214   2.675   1.052   4.015 -2.7433  1.1293  0.2034
  192SAPI   H6Y22215   2.630   1.211   4.051  0.1110 -1.6707  2.4418
  192SAPI   C3722216   2.847   1.175   4.040 -0.7008 -0.1976 -0.3542
  192SAPI   H7X22217   2.873   1.283   4.033  1.0579 -0.5010  0.9335
  192SAPI   H7Y22218   2.913   1.117   3.973 -0.2193 -0.5881  0.4510
  192SAPI   C3822219   2.884   1.104   4.171 -0.1082 -0.2057 -0.4048
  192SAPI   H8X22220   2.861   0.996   4.163 -0.8435 -0.1190  0.3767
  192SAPI   H8Y22221   2.809   1.136   4.247  1.1827 -1.0698  1.2864
  192SAPI   C3922222   3.030   1.132   4.211  0.1285 -0.0301 -0.0685
  192SAPI   H9X22223   3.050   1.241   4.222  0.3616  0.2384 -2.6811
  192SAPI   H9Y22224   3.097   1.083   4.138  1.0314  1.5927 -0.3603
  192SAPI  C31022225   3.059   1.057   4.345 -0.4211  0.5116  0.5732
  192SAPI  H10X22226   3.072   0.950   4.321  0.6135  0.4629  1.3109
  192SAPI  H10Y22227   2.974   1.073   4.415 -0.9403 -0.6363  0.2264
  192SAPI  C31122228   3.192   1.091   4.411 -0.2645  0.9004  0.4084
  192SAPI  H11X22229   3.201   1.202   4.400 -1.6460  0.9970  0.1369
  192SAPI  H11Y22230   3.277   1.049   4.352  0.4777  2.5607  0.2135
  192SAPI  C31222231   3.199   1.032   4.552 -0.2045 -0.2578  0.6961
  192SAPI  H12X22232   3.189   0.922   4.543  1.5571 -0.3314 -0.8432
  192SAPI  H12Y22233   3.116   1.074   4.613 -0.7244  0.1137 -0.2376
  192SAPI  C31322234   3.338   1.054   4.620  0.1310 -0.4814  0.4981
  192SAPI  H13X22235   3.347   1.161   4.647 -0.6368 -0.1882 -0.3561
  192SAPI  H13Y22236   3.432   1.036   4.563  0.9786 -0.4146  1.8253
  192SAPI  C31422237   3.354   0.964   4.749  0.1527 -0.4402  0.0442
  192SAPI  H14X22238   3.333   0.860   4.716  1.8145 -0.7315 -0.2067
  192SAPI  H14Y22239   3.286   0.999   4.829  2.3212  1.7542  1.0642
  192SAPI  C31522240   3.492   0.969   4.817 -0.0074 -0.1489  0.2347
  192SAPI  H15X22241   3.560   1.002   4.735 -0.6820  1.3658  0.2423
  192SAPI  H15Y22242   3.525   0.867   4.845 -1.7864 -0.5592  0.9606
  192SAPI  C31622243   3.513   1.073   4.935 -0.6214 -0.2538  0.1004
  192SAPI  H16X22244   3.610   1.062   4.988 -0.6697  0.8986  0.4510
  192SAPI  H16Y22245   3.443   1.048   5.018 -0.0201 -1.5723  0.2329
  192SAPI  C31722246   3.485   1.222   4.902 -0.0382  0.2551  0.0281
  192SAPI  H17X22247   3.377   1.225   4.878 -0.1518 -2.7827 -0.1608
  192SAPI  H17Y22248   3.540   1.257   4.812 -2.6827  0.7362 -1.5079
  192SAPI  C31822249   3.512   1.325   5.010 -0.4258  0.4920  0.1061
  192SAPI  H18X22250   3.484   1.425   4.970  0.2209  0.9189  0.6930
  192SAPI  H18Y22251   3.618   1.333   5.042 -0.7627 -0.4038  1.5560
  192SAPI  H18Z22252   3.445   1.304   5.096  3.2241 -0.9271  2.8614
  193SOD    SOD22253   6.491   6.369   7.999 -0.4567  0.4101  0.0047
  194SOD    SOD22254   5.525   4.937   0.005  0.2871 -0.2268  0.1346
  195SOD    SOD22255   3.831   2.780   0.254 -0.2386  0.5387  0.0562
  196SOD    SOD22256   4.968   5.979   8.627  0.2529 -0.1893  0.4275
  197SOD    SOD22257   0.135   3.887   7.592 -0.6784  0.0968 -0.8063
  198SOD    SOD22258   1.005   5.789   8.664  0.3437  0.5933  0.2563
  199SOD    SOD22259   0.010   5.860   2.307 -0.2765 -0.0042  0.2013
  200SOD    SOD22260   1.490   3.448   2.849  0.0735  0.3666 -0.4029
  201SOD    SOD22261   0.490   1.134   7.715 -0.3444 -0.8095  0.2566
  202SOD    SOD22262   6.803   1.049   1.501 -0.0900 -0.1372 -0.3223
  203SOD    SOD22263   4.661   0.372   1.580  0.8282  0.4888  0.3753
  204SOD    SOD22264   5.318   0.615   1.164  0.2630  0.0398  0.0167
  205SOD    SOD22265   6.197   3.188   0.569  0.4764  0.5383  0.1228
  206SOD    SOD22266   3.004   3.444   8.765 -0.5185  0.4759 -0.3576
  207SOD    SOD22267   4.142   4.072   3.107 -0.0429  0.7436 -1.0082
  208SOD    SOD22268   3.428   0.974   7.244 -0.0899 -0.2551 -0.4628
  209SOD    SOD22269   0.128   5.616   1.581 -0.1632 -0.0374  0.6407
  210SOD    SOD22270   1.684   6.573   8.413  0.5983 -0.0432  0.1141
  211SOD    SOD22271   1.777   2.099   8.565  0.1243  0.0650  0.0395
  212SOD    SOD22272   2.543   5.307   1.244 -0.0577  0.1608  0.4009
  213SOD    SOD22273   6.539   0.308   7.194 -0.1250  0.2946  0.6061
  214SOD    SOD22274   2.976   6.397   7.705  0.4614 -0.8429 -0.1072
  215SOD    SOD22275   5.978   1.789   2.644  0.1501 -0.1853 -0.3270
  216SOD    SOD22276   0.996   3.734   7.411  0.0051  0.2242 -0.4337
  217SOD    SOD22277   3.107   5.393   0.939 -0.2145  0.1382 -0.2438
  218SOD    SOD22278   4.443   4.551   2.204 -0.0065 -0.4382  0.2363
  219SOD    SOD22279   4.650   4.583   8.036  0.3682  0.0877 -0.2951
  220SOD    SOD22280   6.392   2.647   8.105 -0.0059  0.0389 -0.1410
  221SOD    SOD22281   3.064   1.645   0.182 -0.1397 -0.4550 -0.1566
  222SOD    SOD22282   5.113   5.033   8.026 -0.2427  0.4263 -0.1760
  223SOD    SOD22283   3.001   6.125   1.640  0.4476 -0.2179 -0.2338
  224SOD    SOD22284   6.176   2.986   1.756  0.1491 -0.2240 -0.0671
  225SOD    SOD22285   5.532   3.313   2.344 -0.2545  0.1704  0.4264
  226SOD    SOD22286   4.348   5.506   0.770 -0.0169 -0.1908  0.0340
  227SOD    SOD22287   6.487   4.591   2.203  0.5957 -0.4011 -0.2764
  228SOD    SOD22288   1.005   0.023   2.210 -0.3807  0.4255  0.0390
  229SOD    SOD22289   5.421   6.476   7.495 -0.3539 -0.0912  0.0371
  230SOD    SOD22290   1.300   5.912   7.378  0.3700 -0.5112 -0.0541
  231SOD    SOD22291   5.200   0.044   2.183  0.0210 -0.0115  0.2765
  232SOD    SOD22292   6.757   2.654   2.350  0.1856 -0.4631  0.5460
  233SOD    SOD22293   2.414   1.210   2.799  0.2097  0.1200  0.0603
  234CLA    CLA22294   1.159   3.710   8.269 -0.3889 -0.0522  0.3318
  235CLA    CLA22295   5.525   0.579   0.141  0.0992 -0.1263  0.1524
  236CLA    CLA22296   2.007   5.452   1.348 -0.2609 -0.5464  0.0282
  237CLA    CLA22297   6.096   1.564   0.636 -0.0730  0.4156 -0.1432
  238CLA    CLA22298   4.678   3.605   7.768  0.2262 -0.4721 -0.1700
  239CLA    CLA22299   1.507   0.779   0.044  0.5644 -0.1068  0.4443
  240CLA    CLA22300   2.565   1.494   1.476  0.0902  0.4097  0.2418
  241CLA    CLA22301   4.350   4.878   8.616  0.0977 -0.4416  0.1546
  242CLA    CLA22302   1.366   6.659   1.926 -0.2230  0.0531  0.0585
  243CLA    CLA22303   5.502   5.744   7.929  0.0003  0.7172  0.0497
  244CLA    CLA22304   1.317   2.958   1.599 -0.0666 -0.0574 -0.0707
  245CLA    CLA22305   6.016   3.775   2.185  0.0748 -0.0334 -0.3044
  246CLA    CLA22306   3.048   6.218   1.003  0.1780 -0.3047 -0.2283
  247CLA    CLA22307   3.159   1.198   1.052 -0.1129 -0.2560 -0.0971
  248CLA    CLA22308   5.986   4.362   0.298  0.3433 -0.4336 -0.0457
  249CLA    CLA22309   0.007   3.653   0.664 -0.0578  0.1278 -0.0684
  250CLA    CLA22310   6.261   5.089   8.111  0.2608 -0.1754  0.6458
  251TIP3   OH222311   2.497   3.706   0.282 -0.0427 -0.3418 -0.5870
  251TIP3    H122312   2.486   3.689   0.375  3.7819  1.1328  0.2829
  251TIP3    H222313   2.434   3.776   0.263 -1.1621 -0.9470  0.7176
  252TIP3   OH222314   6.814   6.438   7.052  0.3960  0.7378 -0.2826
  252TIP3    H122315   6.760   6.435   7.131  1.0747  2.3548  0.2826
  252TIP3    H222316   6.769   6.381   6.990  0.2556 -1.2183  1.4969
  253TIP3   OH222317   0.823   6.629   2.652  0.0277  0.1515  0.6448
  253TIP3    H122318   0.880   6.552   2.652 -0.6145 -0.3367  1.1974
  253TIP3    H222319   0.738   6.596   2.680  0.1579  1.3767  2.6797
  254TIP3   OH222320   1.973   3.578   1.075  0.2683  0.4115  0.2216
  254TIP3    H122321   2.031   3.513   1.113 -0.3766 -0.3144 -0.0123
  254TIP3    H222322   1.929   3.533   1.003 -0.6984  0.8820  0.4860
  255TIP3   OH222323   4.239   4.642   2.719  0.0758 -0.1091 -0.4911
  255TIP3    H122324   4.250   4.687   2.803  0.9910  1.4463 -1.4029
  255TIP3    H222325   4.329   4.624   2.690 -0.1940  0.2529 -1.5848
  256TIP3   OH222326   0.718   4.524   6.880  0.6128  0.2750  0.0690
  256TIP3    H122327   0.692   4.616   6.872 -0.9598 -0.1812 -0.6513
  256TIP3    H222328   0.635   4.477   6.893  1.5020 -0.9202  1.8302
  257TIP3   OH222329   5.141   5.131   7.827 -0.3548  0.1443  0.3022
  257TIP3    H122330   5.170   5.117   7.737 -0.0299  1.7785  0.1184
  257TIP3    H222331   5.144   5.226   7.839 -0.6064 -0.0207  1.9707
  258TIP3   OH222332   0.851   4.789   0.831 -0.1977  0.5302 -0.4091
  258TIP3    H122333   0.858   4.861   0.769 -0.2702 -0.7707 -1.9814
  258TIP3    H222334   0.917   4.809   0.898  1.0406  1.1602 -1.7651
  259TIP3   OH222335   0.346   4.431   7.860 -0.9840  0.4145  0.5070
  259TIP3    H122336   0.255   4.437   7.831 -0.8850 -0.4481 -0.0058
  259TIP3    H222337   0.398   4.450   7.781 -0.7167 -0.0826  0.5620
  260TIP3   OH222338   3.726   0.340   0.300  0.1278 -0.3385 -0.7377
  260TIP3    H122339   3.784   0.264   0.306 -1.3562 -1.4813 -0.3574
  260TIP3    H222340   3.779   0.413   0.333  1.0156 -1.5407  0.6329
  261TIP3   OH222341   5.132   3.569   8.090  0.5055 -0.2609 -0.0385
  261TIP3    H122342   5.046   3.608   8.075  0.9149 -0.2761 -3.1209
  261TIP3    H222343   5.163   3.609   8.172 -1.4909  1.4342 -0.0261
  262TIP3   OH222344   0.867   4.549   0.191 -0.4072 -0.3374  0.2400
  262TIP3    H122345   0.951   4.595   0.183  0.6412 -2.1789 -0.2171
  262TIP3    H222346   0.809   4.592   0.129  0.7730 -0.1249 -0.7578
  263TIP3   OH222347   5.895   0.412   8.580 -0.2196 -0.3080  1.0406
  263TIP3    H122348   5.907   0.425   8.486 -1.7505 -0.4980  0.7878
  263TIP3    H222349   5.980   0.433   8.619  0.4438 -0.2757 -0.3855
  264TIP3   OH222350   6.022   3.075   7.891  0.7610  0.4891 -0.0469
  264TIP3    H122351   5.932   3.105   7.886  0.4891 -0.2166  0.4834
  264TIP3    H222352   6.039   3.063   7.985  1.4945  0.8658 -0.1176
  265TIP3   OH222353   1.040   6.050   7.873  0.0538  0.7608  0.2137
  265TIP3    H122354   1.096   6.024   7.946  1.2488  0.3418 -0.8278
  265TIP3    H222355   1.084   6.125   7.833  0.7925 -0.5781 -1.6184
  266TIP3   OH222356   6.460   6.432   1.999  0.2192  0.5795  0.0942
  266TIP3    H122357   6.373   6.396   2.018  0.2196 -0.6320 -1.9850
  266TIP3    H222358   6.492   6.461   2.085 -1.4881 -0.5926  1.2063
  267TIP3   OH222359   2.677   1.222   2.136 -0.2504  0.5849  0.0694
  267TIP3    H122360   2.696   1.153   2.072  0.8427  1.5178 -0.6618
  267TIP3    H222361   2.585   1.243   2.121 -1.2112 -1.9746  1.6176
  268TIP3   OH222362   6.163   1.538   0.929  0.1323  0.0332  0.0348
  268TIP3    H122363   6.160   1.528   0.834  1.2554  1.0274 -0.1261
  268TIP3    H222364   6.118   1.620   0.946  1.9693  1.0874  0.0989
  269TIP3   OH222365   5.322   4.021   1.562  0.1812  0.1241  0.2228
  269TIP3    H122366   5.406   4.027   1.516  0.8424 -2.3458  0.9276
  269TIP3    H222367   5.257   4.020   1.492  0.9798 -0.8959 -0.5460
  270TIP3   OH222368   2.324   0.455   8.218  0.1546 -0.0238 -0.4234
  270TIP3    H122369   2.394   0.520   8.223 -1.2955  1.5907 -0.0564
  270TIP3    H222370   2.291   0.448   8.308 -0.1469 -0.8037 -0.5791
  271TIP3   OH222371   0.146   0.578   2.150  0.7557  0.2478  0.1903
  271TIP3    H122372   0.207   0.544   2.084  0.4241 -2.8615  1.3392
  271TIP3    H222373   0.203   0.618   2.216  1.4498 -0.8274  0.2695
  272TIP3   OH222374   3.638   0.302   1.062 -0.3274 -0.1750  0.2221
  272TIP3    H122375   3.656   0.372   1.000  1.2408 -0.4464  0.3366
  272TIP3    H222376   3.552   0.269   1.037 -0.1055  0.3026 -1.2590
  273TIP3   OH222377   3.588   2.391   2.554  0.1096 -0.6382 -0.1546
  273TIP3    H122378   3.562   2.483   2.550 -1.4030 -1.0755 -0.9977
  273TIP3    H222379   3.643   2.378   2.477  0.1071 -0.5165 -0.1776
  274TIP3   OH222380   2.327   0.349   0.146  0.2778  0.5737 -0.5632
  274TIP3    H122381   2.289   0.435   0.167 -0.1084 -0.0527  1.5076
  274TIP3    H222382   2.377   0.325   0.224 -0.7714 -1.7044 -0.5105
  275TIP3   OH222383   5.172   3.193   8.686 -0.0640 -0.0798 -0.6537
  275TIP3    H122384   5.151   3.272   8.637 -0.9323  1.2561  1.6890
  275TIP3    H222385   5.098   3.135   8.672  0.7193 -0.6751 -2.6358
  276TIP3   OH222386   3.896   2.950   8.599 -0.5554  0.7830 -0.0958
  276TIP3    H122387   3.914   2.883   8.665 -0.7908 -0.1790 -0.9860
  276TIP3    H222388   3.981   2.970   8.560 -0.6941 -0.2200 -0.9594
  277TIP3   OH222389   5.740   3.325   1.161  0.1238 -0.0066 -0.5166
  277TIP3    H122390   5.698   3.294   1.242 -0.1268  0.6537 -0.3936
  277TIP3    H222391   5.672   3.317   1.094 -0.0412  0.5811 -0.4200
  278TIP3   OH222392   6.233   0.468   0.731 -0.2130  0.0976  0.4446
  278TIP3    H122393   6.166   0.511   0.784 -1.2548 -0.3628 -0.4629
  278TIP3    H222394   6.188   0.394   0.690  1.3112 -1.3886  1.2977
  279TIP3   OH222395   1.251   3.377   8.762 -0.7184 -0.1719  0.6833
  279TIP3    H122396   1.156   3.382   8.749 -0.5021 -0.2533 -1.2370
  279TIP3    H222397   1.286   3.366   8.674  1.1430  0.8160  1.2493
  280TIP3   OH222398   0.100   0.168   2.704 -0.4854 -1.0212 -0.1976
  280TIP3    H122399   0.106   0.213   2.620  0.1088  0.6004  0.6841
  280TIP3    H222400   0.186   0.127   2.715  0.0579  0.2542  0.4166
  281TIP3   OH222401   3.604   1.586   1.575 -0.0700  0.7684 -0.8018
  281TIP3    H122402   3.581   1.579   1.483  0.4416  0.5351 -0.9180
  281TIP3    H222403   3.557   1.663   1.606 -1.2612  0.1108 -0.9354
  282TIP3   OH222404   4.050   3.521   1.312  0.3178  0.2291  0.4343
  282TIP3    H122405   4.030   3.433   1.344  0.8260  0.3376  1.0792
  282TIP3    H222406   4.085   3.508   1.224  0.7021 -0.2407  0.6539
  283TIP3   OH222407   4.249   2.190   8.164  0.0181  0.2137  0.1465
  283TIP3    H122408   4.179   2.132   8.193 -0.2567  0.7566  0.5756
  283TIP3    H222409   4.327   2.159   8.211 -0.5660  1.5519  2.1142
  284TIP3   OH222410   1.334   0.744   8.585  0.0468  0.1188 -0.0549
  284TIP3    H122411   1.396   0.746   8.658 -1.6227  0.8568  1.4136
  284TIP3    H222412   1.248   0.754   8.626 -0.9168  1.3038 -2.1958
  285TIP3   OH222413   2.437   0.645   7.973  0.5060 -0.4564  1.0913
  285TIP3    H122414   2.449   0.682   7.886  2.1401 -2.4584  0.3841
  285TIP3    H222415   2.342   0.650   7.989  0.1681 -0.1006 -0.8169
  286TIP3   OH222416   1.731   5.943   2.951 -0.1453 -0.2541 -0.7010
  286TIP3    H122417   1.796   5.919   3.017  0.6584  0.7384 -1.1004
  286TIP3    H222418   1.768   5.914   2.868 -1.6759 -2.5399 -0.6512
  287TIP3   OH222419   2.988   0.469   8.776 -0.4166  0.0525  0.1708
  287TIP3    H122420   2.959   0.378   8.763  0.7596 -0.5804  1.6676
  287TIP3    H222421   3.015   0.473   8.867 -0.9130  2.0821  0.2764
  288TIP3   OH222422   2.220   0.171   7.462 -0.7437  0.2062  0.3283
  288TIP3    H122423   2.125   0.185   7.459 -0.7791  0.3978  1.6528
  288TIP3    H222424   2.251   0.199   7.376 -2.0625 -1.3625 -0.7126
  289TIP3   OH222425   6.517   6.490   1.319  0.1252  0.1052 -0.4571
  289TIP3    H122426   6.441   6.452   1.277  0.1449  1.3073 -1.6338
  289TIP3    H222427   6.488   6.576   1.348  1.0810  0.6728 -1.1324
  290TIP3   OH222428   6.031   5.094   1.480 -0.2789  0.4025 -0.5454
  290TIP3    H122429   6.004   5.030   1.546 -0.3793  0.6111 -0.3824
  290TIP3    H222430   6.079   5.043   1.416  0.2247  0.2746 -0.0739
  291TIP3   OH222431   6.009   4.536   8.188  0.7084 -0.3164  0.0039
  291TIP3    H122432   5.987   4.447   8.214  0.2517  0.3495  2.1241
  291TIP3    H222433   5.924   4.580   8.178  0.9224  0.4193  1.1860
  292TIP3   OH222434   0.146   5.151   2.099  0.1483 -0.0473  0.1817
  292TIP3    H122435   0.237   5.178   2.103  0.0939  0.2879 -0.5800
  292TIP3    H222436   0.117   5.147   2.190  0.9950 -0.4270  0.4405
  293TIP3   OH222437   6.424   6.085   2.104 -0.4482  0.2352 -0.1955
  293TIP3    H122438   6.515   6.114   2.109 -0.2870 -0.3583  0.4022
  293TIP3    H222439   6.373   6.167   2.098 -0.0195  0.6711  1.7112
  294TIP3   OH222440   1.954   6.678   0.251  0.0327 -0.3753 -0.4435
  294TIP3    H122441   2.035   6.715   0.285  1.3453 -1.2395 -2.4608
  294TIP3    H222442   1.969   6.669   0.157 -2.5664 -0.1764 -0.9577
  295TIP3   OH222443   0.781   1.880   6.546  0.0616 -0.0197 -0.2402
  295TIP3    H122444   0.741   1.807   6.500  0.5159 -0.0998 -0.5090
  295TIP3    H222445   0.863   1.845   6.579  0.4161  0.4523 -0.6181
  296TIP3   OH222446   5.782   0.125   7.477 -0.1119 -0.0006  0.1888
  296TIP3    H122447   5.854   0.186   7.465 -0.8764  0.9893  0.4518
  296TIP3    H222448   5.707   0.169   7.435 -0.2204 -1.7570 -1.6057
  297TIP3   OH222449   0.909   3.882   0.200 -0.2421  0.4387  0.8425
  297TIP3    H122450   0.905   3.967   0.244 -0.1884  0.7154  0.3223
  297TIP3    H222451   0.829   3.879   0.147  0.0015  0.3899  0.4690
  298TIP3   OH222452   4.527   2.085   0.146  0.0567 -0.6055  0.2228
  298TIP3    H122453   4.515   2.049   0.234  2.7689  1.8389  1.7715
  298TIP3    H222454   4.449   2.139   0.132  0.1030 -0.1121  1.6789
  299TIP3   OH222455   3.808   1.392   1.527  0.4309 -0.0094 -0.3771
  299TIP3    H122456   3.767   1.478   1.538  1.6127  0.6840 -1.2166
  299TIP3    H222457   3.832   1.389   1.434 -1.8067 -2.2748 -1.0058
  300TIP3   OH222458   4.240   1.249   2.555 -0.0123 -0.5188 -0.3090
  300TIP3    H122459   4.287   1.327   2.585 -1.7072  0.4864 -0.1490
  300TIP3    H222460   4.264   1.181   2.618 -0.8894  0.6803  1.4044
  301TIP3   OH222461   3.403   0.451   1.545  0.3894 -0.0106 -0.1249
  301TIP3    H122462   3.444   0.499   1.617  0.1319  0.8727 -0.5471
  301TIP3    H222463   3.326   0.410   1.585  0.7583 -0.2931  0.3015
  302TIP3   OH222464   5.178   6.030   1.749  0.0337  0.3235  0.0605
  302TIP3    H122465   5.137   6.020   1.663  2.1399  0.1978 -0.9705
  302TIP3    H222466   5.191   6.124   1.758 -2.2314  0.6032  1.3132
  303TIP3   OH222467   2.737   6.061   7.894  0.9156 -0.6151  0.1631
  303TIP3    H122468   2.673   6.077   7.824 -1.4100 -0.2673  2.2455
  303TIP3    H222469   2.754   5.967   7.888 -0.0691 -0.7873 -0.2313
  304TIP3   OH222470   5.994   1.700   2.436 -0.5023 -0.1047 -0.3897
  304TIP3    H122471   6.015   1.610   2.460 -2.5256 -0.4316  0.3956
  304TIP3    H222472   6.040   1.715   2.354  0.2736 -1.6683 -0.2810
  305TIP3   OH222473   1.633   4.259   2.952 -0.1358  0.5724  0.4109
  305TIP3    H122474   1.584   4.179   2.969  0.9900 -0.1782  0.2679
  305TIP3    H222475   1.701   4.260   3.020  1.2688  0.1876 -0.9334
  306TIP3   OH222476   1.171   4.931   7.819  0.0403 -0.0467  0.5336
  306TIP3    H122477   1.240   4.902   7.758  0.2835 -0.9018  1.1864
  306TIP3    H222478   1.202   5.015   7.852  1.4225 -0.9927  1.7652
  307TIP3   OH222479   3.092   1.450   0.332 -0.7550 -0.2186 -0.1214
  307TIP3    H122480   3.136   1.375   0.293  1.5941 -0.2414  2.2812
  307TIP3    H222481   3.003   1.420   0.349 -0.1175 -2.1652 -0.0733
  308TIP3   OH222482   4.906   0.381   7.605  0.1682  0.4730  0.2179
  308TIP3    H122483   4.841   0.451   7.611  0.4681  0.6709  1.3466
  308TIP3    H222484   4.987   0.426   7.580  0.2590  0.4641  0.4975
  309TIP3   OH222485   0.912   3.208   1.782  0.4007  0.0322  0.1477
  309TIP3    H122486   0.865   3.277   1.828  0.6509 -0.4042  1.0764
  309TIP3    H222487   0.853   3.133   1.783  0.4441 -0.0082 -0.1638
  310TIP3   OH222488   6.140   5.177   0.452 -0.4263 -0.3556 -0.3854
  310TIP3    H122489   6.069   5.204   0.510 -1.3990  0.9271 -2.0932
  310TIP3    H222490   6.189   5.258   0.436  0.3802 -0.8825 -0.6227
  311TIP3   OH222491   1.565   4.526   0.838 -0.0324 -0.4967  1.0112
  311TIP3    H122492   1.535   4.467   0.907 -0.4534 -2.1155 -0.4954
  311TIP3    H222493   1.620   4.590   0.883 -2.1345 -0.0763  3.2092
  312TIP3   OH222494   2.304   5.739   0.132  0.0053 -0.0504 -1.0757
  312TIP3    H122495   2.267   5.679   0.197 -0.9187 -0.0110 -1.5370
  312TIP3    H222496   2.322   5.819   0.181 -0.5384 -0.0717 -0.8300
  313TIP3   OH222497   0.783   0.365   2.439  0.0925 -0.3249 -0.1584
  313TIP3    H122498   0.713   0.418   2.476 -0.1468  0.6748 -1.9364
  313TIP3    H222499   0.793   0.292   2.500 -2.2720 -0.3219  0.3199
  314TIP3   OH222500   1.246   5.340   0.616 -0.2513  0.1126  0.0771
  314TIP3    H122501   1.221   5.301   0.532 -0.8174  0.1932  0.2038
  314TIP3    H222502   1.245   5.268   0.678  2.8423 -0.5361 -0.4619
  315TIP3   OH222503   3.106   6.029   8.105  0.3283 -0.8892  0.2431
  315TIP3    H122504   3.147   5.978   8.175  0.5846  0.9435  1.5079
  315TIP3    H222505   3.058   6.098   8.151  0.1347  0.1096 -1.3851
  316TIP3   OH222506   2.800   2.229   7.253  0.3557 -0.2787 -0.5686
  316TIP3    H122507   2.854   2.205   7.328  1.8763  1.9116 -0.8856
  316TIP3    H222508   2.826   2.318   7.232 -4.2576  1.4868  0.0438
  317TIP3   OH222509   2.858   4.952   8.062 -0.4292  0.5447  0.7041
  317TIP3    H122510   2.880   5.034   8.018 -0.3366  0.5422  0.7455
  317TIP3    H222511   2.914   4.886   8.020 -0.6808  0.4592  0.5009
  318TIP3   OH222512   4.052   2.248   7.813  0.3671 -0.3614  0.0035
  318TIP3    H122513   4.081   2.190   7.743  0.2862 -1.4889  0.8872
  318TIP3    H222514   4.132   2.291   7.844  0.7364 -1.4636  0.6383
  319TIP3   OH222515   3.848   4.545   0.826  0.4487  0.2673 -0.0161
  319TIP3    H122516   3.793   4.468   0.836  0.1832  0.3189 -1.0460
  319TIP3    H222517   3.812   4.592   0.751  0.6695  1.3500  0.5277
  320TIP3   OH222518   6.297   3.376   8.592  0.1162 -0.1800 -0.3455
  320TIP3    H122519   6.348   3.443   8.639 -1.1541  0.2270  0.5135
  320TIP3    H222520   6.217   3.422   8.565  0.2138 -0.7811 -1.7331
  321TIP3   OH222521   4.074   1.966   7.376  0.2947  0.7906  0.4568
  321TIP3    H122522   4.116   1.982   7.291  0.2054  2.1994  0.6524
  321TIP3    H222523   3.982   1.951   7.355  0.3561  0.6769  0.2675
  322TIP3   OH222524   6.169   5.136   1.915 -0.1394  0.0105 -0.2070
  322TIP3    H122525   6.251   5.184   1.915  0.8557 -1.6283 -0.8056
  322TIP3    H222526   6.157   5.109   2.006  0.6139 -0.7636 -0.3320
  323TIP3   OH222527   0.190   3.558   1.352  0.3488  0.2537 -0.2657
  323TIP3    H122528   0.264   3.556   1.291  0.1464  1.4024 -0.5724
  323TIP3    H222529   0.226   3.524   1.434  0.5107 -1.7282 -1.1149
  324TIP3   OH222530   4.569   5.368   7.876  0.4206  0.1050 -0.0687
  324TIP3    H122531   4.645   5.393   7.824  1.9285 -0.1127  1.9070
  324TIP3    H222532   4.599   5.375   7.967 -1.3133 -1.9149  0.7318
  325TIP3   OH222533   2.799   5.406   1.286  0.0895 -0.0719 -0.4662
  325TIP3    H122534   2.754   5.355   1.354  0.7710 -1.2392 -0.8762
  325TIP3    H222535   2.799   5.496   1.320 -1.4898 -0.2438  0.0849
  326TIP3   OH222536   3.516   6.414   7.717  0.0832  0.0263 -0.0741
  326TIP3    H122537   3.547   6.504   7.721  0.1723 -0.0083 -0.0085
  326TIP3    H222538   3.467   6.410   7.634  1.2973 -0.2603 -0.7948
  327TIP3   OH222539   1.255   4.934   0.571 -0.4371  0.9072  0.2842
  327TIP3    H122540   1.283   4.999   0.506 -1.0093  0.5193 -0.3539
  327TIP3    H222541   1.288   4.851   0.537  0.3685  0.8558  1.1440
  328TIP3   OH222542   4.448   5.068   0.600 -0.6412 -0.2400  0.1939
  328TIP3    H122543   4.411   5.016   0.529 -0.7122 -0.6297  0.5106
  328TIP3    H222544   4.376   5.124   0.629 -0.7951 -0.5369  0.3832
  329TIP3   OH222545   1.049   0.284   8.817  0.0005  0.2860  0.1483
  329TIP3    H122546   1.056   0.191   8.840 -1.4948  0.4648  1.5072
  329TIP3    H222547   1.136   0.320   8.836  0.3940 -0.7007  0.2754
  330TIP3   OH222548   6.615   5.595   8.605 -0.3449  0.3941 -0.3317
  330TIP3    H122549   6.584   5.587   8.695 -0.6883  0.9641 -0.3930
  330TIP3    H222550   6.631   5.505   8.577  0.0633  0.2279  0.3965
  331TIP3   OH222551   1.097   5.926   1.685  0.1976  0.2981  0.1528
  331TIP3    H122552   1.091   5.840   1.644 -2.4480  0.0616  0.8506
  331TIP3    H222553   1.140   5.910   1.769 -0.7693 -0.4740  0.5220
  332TIP3   OH222554   5.786   6.051   2.323 -0.0162 -0.6615 -0.1566
  332TIP3    H122555   5.757   6.088   2.407 -0.0910 -2.4718  0.6662
  332TIP3    H222556   5.863   6.102   2.299  0.9357 -1.0877  1.8188
  333TIP3   OH222557   5.468   3.334   0.174  0.5327  0.2183  0.0864
  333TIP3    H122558   5.460   3.243   0.203 -1.7014  0.8181  1.6285
  333TIP3    H222559   5.466   3.329   0.078 -1.6536 -1.2714  0.1354
  334TIP3   OH222560   6.736   2.081   2.218  0.0959 -0.5490 -0.4491
  334TIP3    H122561   6.751   1.991   2.246  0.5238 -0.0155  1.2026
  334TIP3    H222562   6.650   2.103   2.255 -0.4463 -0.5655 -1.6660
  335TIP3   OH222563   2.319   5.350   0.448  0.2371  0.1317  0.8623
  335TIP3    H122564   2.329   5.367   0.542 -0.1217 -0.0378  0.9303
  335TIP3    H222565   2.251   5.283   0.442 -0.0537  0.4591  0.4503
  336TIP3   OH222566   2.063   0.278   8.122 -0.1391 -0.8874  0.0201
  336TIP3    H122567   2.077   0.314   8.209 -0.2719 -0.7205 -0.0269
  336TIP3    H222568   2.086   0.349   8.062  0.0939 -1.0498 -0.0831
  337TIP3   OH222569   6.187   1.001   0.666  0.2622  0.1281  0.3850
  337TIP3    H122570   6.098   1.013   0.632  1.8325  2.6425 -3.6548
  337TIP3    H222571   6.220   1.091   0.676  2.6790 -0.7153  0.5698
  338TIP3   OH222572   3.816   0.244   1.267 -0.4427  0.0757  0.2158
  338TIP3    H122573   3.759   0.236   1.344 -1.6876 -0.5570 -0.7251
  338TIP3    H222574   3.759   0.278   1.199  0.6969  0.8234 -0.3838
  339TIP3   OH222575   2.739   2.022   2.483 -0.2501 -0.9542  0.1508
  339TIP3    H122576   2.745   1.930   2.508 -0.4144 -1.7832 -2.5001
  339TIP3    H222577   2.662   2.055   2.529  1.8912 -0.9497  4.1911
  340TIP3   OH222578   2.836   3.962   7.270 -0.1794  0.3549 -0.0676
  340TIP3    H122579   2.805   4.045   7.234  2.8143  0.9413 -1.6550
  340TIP3    H222580   2.843   3.977   7.364 -1.1386  1.3546 -0.1421
  341TIP3   OH222581   0.824   6.325   8.383 -0.6777  0.1559 -0.1316
  341TIP3    H122582   0.783   6.363   8.461  0.6394  2.7737 -0.5992
  341TIP3    H222583   0.755   6.328   8.317 -1.8518 -2.2120  0.8359
  342TIP3   OH222584   2.498   5.543   1.247 -0.4454  0.4859 -0.1136
  342TIP3    H122585   2.525   5.610   1.310 -0.9289  1.0578 -0.5009
  342TIP3    H222586   2.477   5.592   1.167 -0.4756 -0.1637 -0.5102
  343TIP3   OH222587   6.192   5.906   1.575  0.5782  0.0107 -0.3655
  343TIP3    H122588   6.146   5.824   1.558  0.2867 -0.1829  1.2215
  343TIP3    H222589   6.132   5.957   1.627  1.9861 -0.1129  1.4849
  344TIP3   OH222590   2.985   2.277   0.118  0.6186  0.0287 -0.3711
  344TIP3    H122591   3.047   2.250   0.186  3.1563  0.6209 -2.2862
  344TIP3    H222592   2.961   2.196   0.074  0.2054 -0.1750  0.2130
  345TIP3   OH222593   6.039   5.979   0.277  0.3981 -0.0427 -0.5912
  345TIP3    H122594   6.006   6.032   0.204  1.1106 -0.6808 -1.4021
  345TIP3    H222595   5.999   5.893   0.264 -2.6569  0.7899  2.0486
  346TIP3   OH222596   6.079   2.033   7.854  0.1097  0.4985  0.0402
  346TIP3    H122597   6.090   1.955   7.909  1.2605 -0.0393 -0.9078
  346TIP3    H222598   6.007   2.010   7.795 -0.3172  0.6086  0.5096
  347TIP3   OH222599   2.432   5.038   1.423 -0.2979 -0.9111 -0.1501
  347TIP3    H122600   2.364   5.075   1.478  0.2599  0.8417 -0.5917
  347TIP3    H222601   2.392   4.961   1.384 -1.9058 -0.1130 -0.1315
  348TIP3   OH222602   2.733   3.458   7.451 -0.0322  0.2014 -0.1704
  348TIP3    H122603   2.827   3.452   7.439  0.3801  2.3302  1.3253
  348TIP3    H222604   2.711   3.548   7.425 -1.5066 -0.0033  0.2662
  349TIP3   OH222605   4.417   4.178   2.153  0.5193  0.3048 -0.0696
  349TIP3    H122606   4.441   4.090   2.181  2.0524  0.8899  0.5788
  349TIP3    H222607   4.422   4.231   2.232 -2.9124  0.5937  0.1351
  350TIP3   OH222608   3.404   1.158   0.850 -0.4038 -0.3389 -0.1377
  350TIP3    H122609   3.367   1.190   0.767  0.1771 -1.2487 -0.7647
  350TIP3    H222610   3.334   1.172   0.914 -0.8850  0.3210 -0.7845
  351TIP3   OH222611   0.856   4.247   7.670 -0.4387 -0.2475  0.0168
  351TIP3    H122612   0.881   4.229   7.579 -1.2749 -4.5689  0.4398
  351TIP3    H222613   0.939   4.259   7.716 -0.0122  2.2922 -1.2157
  352TIP3   OH222614   1.717   0.021   8.533  0.2758 -0.0800  0.2631
  352TIP3    H122615   1.661   0.096   8.512  1.2471  0.2061 -1.5025
  352TIP3    H222616   1.770   0.051   8.607  0.3324  0.8258 -0.1277
  353TIP3   OH222617   0.949   1.056   7.082 -0.4021  0.1296  0.3853
  353TIP3    H122618   0.857   1.055   7.109 -0.7673  1.0405 -0.7140
  353TIP3    H222619   0.998   1.072   7.162 -1.2882  0.7393  0.8196
  354TIP3   OH222620   2.615   6.174   7.667 -0.3839  0.5377  0.6033
  354TIP3    H122621   2.681   6.234   7.703  1.1785 -0.6843 -0.0686
  354TIP3    H222622   2.631   6.176   7.573 -2.6855  1.7126  0.1733
  355TIP3   OH222623   1.362   1.043   8.085  0.1502 -0.1186  0.6366
  355TIP3    H122624   1.432   0.991   8.046 -0.3734  0.6380 -1.4647
  355TIP3    H222625   1.395   1.069   8.170  0.6906 -3.3293  1.5584
  356TIP3   OH222626   2.355   2.510   1.427  0.3040  0.1948 -0.1365
  356TIP3    H122627   2.381   2.419   1.413 -0.5414  0.2728 -2.8284
  356TIP3    H222628   2.437   2.559   1.433  0.8092 -0.8101  2.6715
  357TIP3   OH222629   4.889   1.274   0.351 -0.0118 -0.0299 -0.3826
  357TIP3    H122630   4.939   1.193   0.362 -1.0147 -0.9065 -1.8715
  357TIP3    H222631   4.931   1.317   0.277 -0.9666 -0.4358 -1.1945
  358TIP3   OH222632   2.323   2.873   0.617  0.0895  0.3323  0.1077
  358TIP3    H122633   2.282   2.960   0.614  0.9314  0.7215 -0.4761
  358TIP3    H222634   2.347   2.855   0.526 -1.4240 -1.1890 -0.0513
  359TIP3   OH222635   6.319   1.331   1.028  0.3854 -0.3136 -0.1483
  359TIP3    H122636   6.260   1.404   1.009  0.5256  0.4980  2.2189
  359TIP3    H222637   6.390   1.339   0.963 -0.3562  0.7354 -0.8522
  360TIP3   OH222638   2.642   0.023   7.513  0.3118  0.3675  0.1315
  360TIP3    H122639   2.556  -0.017   7.526  0.4203  0.3982  0.9686
  360TIP3    H222640   2.649   0.090   7.580  0.4551  1.2825 -0.7816
  361TIP3   OH222641   2.533   4.730   7.922  0.1264  0.4153 -0.3887
  361TIP3    H122642   2.501   4.689   7.841  0.8829 -2.8062  0.7837
  361TIP3    H222643   2.560   4.656   7.977  2.8438  2.6095  1.5053
  362TIP3   OH222644   6.774   1.776   2.282 -0.0685 -0.1821  0.1022
  362TIP3    H122645   6.680   1.777   2.301 -0.9228 -0.4489 -3.3322
  362TIP3    H222646   6.799   1.683   2.287 -0.3208 -0.2708 -0.2528
  363TIP3   OH222647   4.542   2.187   1.478 -0.3707 -0.1254 -0.4641
  363TIP3    H122648   4.549   2.280   1.460 -0.9931 -0.0374 -0.2486
  363TIP3    H222649   4.610   2.147   1.423  0.4339  0.5177  0.0320
  364TIP3   OH222650   2.069   0.722   8.426 -0.2272  0.0793  0.1357
  364TIP3    H122651   2.152   0.690   8.462 -0.9865 -2.6331 -0.2995
  364TIP3    H222652   2.090   0.742   8.335  0.0767 -0.0874  0.1651
  365TIP3   OH222653   4.108   6.671   1.148  0.1577  0.3495  0.1950
  365TIP3    H122654   4.024   6.633   1.174 -0.9965  0.9859 -2.3266
  365TIP3    H222655   4.115   6.751   1.200 -0.4649 -0.0359  0.8989
  366TIP3   OH222656   0.083   6.373   8.578  0.2048 -0.7218 -0.2067
  366TIP3    H122657   0.095   6.463   8.609 -1.0270 -0.4428 -0.4951
  366TIP3    H222658   0.125   6.371   8.492  0.0283 -0.3681 -0.2992
  367TIP3   OH222659   3.013   4.825   2.051  0.5165  0.1925  0.4773
  367TIP3    H122660   2.923   4.805   2.027  0.6947  1.3177 -1.3115
  367TIP3    H222661   3.034   4.761   2.119 -0.8930 -1.5672 -0.6372
  368TIP3   OH222662   3.315   0.906   1.752 -0.7426 -0.3260  0.4753
  368TIP3    H122663   3.347   0.989   1.715 -0.6314  0.2124  1.7474
  368TIP3    H222664   3.378   0.840   1.720  0.1579  0.3397  0.8266
  369TIP3   OH222665   5.035   6.652   0.323 -0.1576 -0.8550 -0.2948
  369TIP3    H122666   5.104   6.589   0.308  0.5688 -0.8189  2.3734
  369TIP3    H222667   5.081   6.733   0.346 -1.0649 -0.3905 -0.0580
  370TIP3   OH222668   6.537   5.916   8.726  0.7634  0.3010 -0.6013
  370TIP3    H122669   6.450   5.889   8.756  1.3568  1.2213  2.2130
  370TIP3    H222670   6.520   5.964   8.645 -1.4757  1.4216  0.4348
  371TIP3   OH222671   3.342   1.563   0.417  0.4864 -0.4007  0.3282
  371TIP3    H122672   3.322   1.585   0.508  1.9293  2.6186  0.0485
  371TIP3    H222673   3.259   1.537   0.380 -0.3093 -0.8395  2.2974
  372TIP3   OH222674   6.275   2.820   0.221 -0.2331 -0.5248 -0.2351
  372TIP3    H122675   6.277   2.736   0.266  0.2029  0.3549  1.4430
  372TIP3    H222676   6.196   2.863   0.254  0.0862  0.1367 -0.3139
  373TIP3   OH222677   4.839   1.198   2.842 -0.0368  0.0639 -0.3378
  373TIP3    H122678   4.779   1.127   2.821 -1.0939  0.5917  0.7715
  373TIP3    H222679   4.830   1.210   2.937  0.6184  1.2339 -0.4044
  374TIP3   OH222680   1.806   5.363   1.908  0.1643 -0.2727  0.1767
  374TIP3    H122681   1.845   5.430   1.964 -0.5296  0.8087 -0.5836
  374TIP3    H222682   1.748   5.412   1.850 -0.5159 -1.5675 -0.2730
  375TIP3   OH222683   3.854   3.139   0.042  0.3023  0.6307 -0.8034
  375TIP3    H122684   3.802   3.119  -0.036 -1.3235  2.7773 -0.3620
  375TIP3    H222685   3.907   3.214   0.016 -1.9318  2.8993  0.6753
  376TIP3   OH222686   6.007   0.112   1.661 -0.0401  0.3443 -0.1899
  376TIP3    H122687   6.071   0.128   1.731  0.5692  0.8596 -0.8525
  376TIP3    H222688   5.972   0.199   1.640  0.3950  0.3182 -1.0854
  377TIP3   OH222689   2.137   0.253   1.234 -0.5721  0.2097  0.4153
  377TIP3    H122690   2.099   0.312   1.168  0.6041 -1.2052 -1.6346
  377TIP3    H222691   2.070   0.247   1.302 -1.9300  1.5896 -0.7279
  378TIP3   OH222692   2.088   4.214   2.510  0.2139  0.4353  0.1886
  378TIP3    H122693   2.091   4.239   2.602  1.1998  0.7219  0.1003
  378TIP3    H222694   2.151   4.273   2.467  0.7554 -0.5660 -0.4384
  379TIP3   OH222695   5.434   1.884   3.375 -0.6269 -0.2088  0.2648
  379TIP3    H122696   5.348   1.920   3.354 -0.2488  1.2642  1.1044
  379TIP3    H222697   5.438   1.802   3.326 -1.8094  0.5366 -1.1755
  380TIP3   OH222698   3.582   5.240   7.720 -0.0064  0.1864  0.2173
  380TIP3    H122699   3.515   5.282   7.773  0.3924  2.5011 -0.9773
  380TIP3    H222700   3.572   5.147   7.738 -2.6912  0.5528  1.0314
  381TIP3   OH222701   3.940   5.356   8.135  0.2592  0.2912 -0.3741
  381TIP3    H122702   3.906   5.333   8.049 -0.4470 -2.0970  0.4488
  381TIP3    H222703   3.911   5.446   8.150  0.1518  0.6442 -2.4824
  382TIP3   OH222704   4.944   1.144   1.854  0.1479  0.3909  0.0845
  382TIP3    H122705   5.024   1.112   1.811 -0.1497  0.3443 -0.4428
  382TIP3    H222706   4.891   1.065   1.868  0.5911  0.2957  1.2904
  383TIP3   OH222707   3.079   2.269   2.346 -0.4017  0.0603  0.3190
  383TIP3    H122708   3.108   2.180   2.369 -0.4830  0.2074  1.0395
  383TIP3    H222709   2.991   2.275   2.384  0.4594  1.1979  2.2597
  384TIP3   OH222710   1.089   3.909   0.425 -0.5076 -0.1992 -0.0418
  384TIP3    H122711   1.040   3.864   0.355 -0.7965  0.0570 -0.0043
  384TIP3    H222712   1.025   3.925   0.493 -0.1660 -0.6839  0.4011
  385TIP3   OH222713   5.607   0.724   1.579 -0.4019 -0.6076 -0.1876
  385TIP3    H122714   5.608   0.634   1.612 -1.9564 -0.6412 -0.1501
  385TIP3    H222715   5.673   0.769   1.631 -0.9058 -1.3001  1.1074
  386TIP3   OH222716   3.530   4.650   1.198  0.2985 -0.2048 -0.7600
  386TIP3    H122717   3.618   4.646   1.235 -0.1783 -4.0120  0.4279
  386TIP3    H222718   3.472   4.630   1.272 -1.2811 -0.7912 -2.0835
  387TIP3   OH222719   1.419   5.245   1.473  0.2591 -0.2492 -0.4503
  387TIP3    H122720   1.512   5.221   1.472  0.0147 -1.3479  0.8116
  387TIP3    H222721   1.418   5.334   1.438  1.6000 -0.7756 -1.9690
  388TIP3   OH222722   5.610   1.531   1.552 -0.9448 -0.1652 -0.0526
  388TIP3    H122723   5.667   1.467   1.595 -0.9723 -1.3788 -1.7325
  388TIP3    H222724   5.527   1.525   1.599 -0.2611  0.2971  1.2490
  389TIP3   OH222725   4.429   1.626   0.707 -0.2374  0.8832 -0.4039
  389TIP3    H122726   4.401   1.595   0.794  0.3921 -0.3011 -0.6033
  389TIP3    H222727   4.508   1.575   0.688  0.8337  2.6078 -0.7887
  390TIP3   OH222728   4.495   1.138   1.556 -0.3205  0.6978  0.4998
  390TIP3    H122729   4.484   1.043   1.552  1.0075  0.5295  0.3735
  390TIP3    H222730   4.438   1.172   1.487 -2.2599  0.1587  1.7473
  391TIP3   OH222731   2.124   2.080   7.453 -0.3607 -0.4321  0.2746
  391TIP3    H122732   2.163   2.167   7.462  1.1040 -1.0992  0.7221
  391TIP3    H222733   2.088   2.079   7.364  1.0369  0.0900 -0.3288
  392TIP3   OH222734   2.125   0.838   1.616 -0.0963  0.0334  0.0822
  392TIP3    H122735   2.164   0.823   1.530 -0.1541  0.5915 -0.0435
  392TIP3    H222736   2.179   0.907   1.655  0.5228 -0.8664  0.8837
  393TIP3   OH222737   4.686   1.964   1.735  0.4857 -0.6709 -0.3143
  393TIP3    H122738   4.606   1.974   1.786 -0.5256  2.1875 -2.2386
  393TIP3    H222739   4.733   2.046   1.747  2.8232 -1.9841  0.1196
  394TIP3   OH222740   2.487   3.854   0.780  1.0342  0.0018  0.4983
  394TIP3    H122741   2.407   3.907   0.777  0.0881 -1.3929 -2.4909
  394TIP3    H222742   2.499   3.835   0.873 -1.7224  0.8500  1.1254
  395TIP3   OH222743   5.658   0.244   0.378  0.1659 -0.0291 -0.6625
  395TIP3    H122744   5.674   0.174   0.440 -0.1714  0.0513 -0.4849
  395TIP3    H222745   5.733   0.303   0.389 -0.0187  0.1147 -0.1532
  396TIP3   OH222746   2.433   0.386   7.034 -0.6853 -0.2415  0.2020
  396TIP3    H122747   2.456   0.464   7.083 -0.8901 -0.3474  0.4700
  396TIP3    H222748   2.350   0.408   6.992 -0.7785 -0.3363  0.3334
  397TIP3   OH222749   2.329   0.201   7.201 -0.8276  0.2991 -0.2652
  397TIP3    H122750   2.412   0.163   7.228 -0.8432  1.0001  0.8131
  397TIP3    H222751   2.349   0.247   7.119 -0.6690 -1.3966 -1.2405
  398TIP3   OH222752   0.907   2.860   0.620  0.1324  0.8061  0.7983
  398TIP3    H122753   0.938   2.930   0.562  1.4187 -0.9076 -0.7043
  398TIP3    H222754   0.982   2.838   0.674  0.9145 -1.6274 -1.0951
  399TIP3   OH222755   3.493   1.661   1.147 -0.3487  0.0039 -0.2686
  399TIP3    H122756   3.448   1.742   1.122 -1.0338 -0.4465 -0.5198
  399TIP3    H222757   3.424   1.594   1.148  0.1978 -0.5684 -0.0112
  400TIP3   OH222758   0.186   2.098   0.040 -0.1531 -0.1825 -0.3232
  400TIP3    H122759   0.262   2.143   0.077 -0.4535  0.3866 -0.3879
  400TIP3    H222760   0.212   2.077  -0.050  0.8276 -2.1531  0.3653
  401TIP3   OH222761   2.734   4.684   1.890  0.0274 -0.6555 -0.1772
  401TIP3    H122762   2.703   4.681   1.981 -0.0952  0.7629 -0.1499
  401TIP3    H222763   2.653   4.685   1.838 -0.0641  2.0812 -0.1387
  402TIP3   OH222764   0.336   1.634   6.761 -0.7705  0.1546  0.0645
  402TIP3    H122765   0.390   1.639   6.840 -0.5900  1.0571 -0.1015
  402TIP3    H222766   0.247   1.651   6.792 -0.4262  3.0340 -0.1913
  403TIP3   OH222767   3.972   2.514   8.201 -0.5136  0.4608 -0.4999
  403TIP3    H122768   3.996   2.587   8.258 -1.7161  0.6741 -0.2373
  403TIP3    H222769   4.051   2.461   8.195 -0.1441  0.8367  0.7720
  404TIP3   OH222770   3.858   2.639   2.719  0.2432  0.2379 -0.0515
  404TIP3    H122771   3.853   2.702   2.791  2.2914  1.2728 -0.7505
  404TIP3    H222772   3.905   2.564   2.757  0.0535  0.1887  0.0863
  405TIP3   OH222773   4.963   4.122   8.374 -0.6345  0.0837  0.2393
  405TIP3    H122774   4.915   4.045   8.407  0.0927 -1.8173 -2.7745
  405TIP3    H222775   5.043   4.125   8.427  0.0006 -2.1798 -0.4931
  406TIP3   OH222776   5.688   4.809   0.503  0.4648 -0.5013  0.7766
  406TIP3    H122777   5.713   4.875   0.439 -1.1174 -0.6138  0.0172
  406TIP3    H222778   5.667   4.731   0.451 -0.4302 -0.7255  1.4547
  407TIP3   OH222779   5.605   5.483   0.908 -0.1904  0.3677 -0.1818
  407TIP3    H122780   5.530   5.426   0.897 -0.6428  0.2868  2.5508
  407TIP3    H222781   5.681   5.429   0.884 -0.7434 -0.8115  0.6579
  408TIP3   OH222782   0.575   6.126   0.897 -0.2770  0.0848 -0.4596
  408TIP3    H122783   0.570   6.215   0.931  0.4978 -0.6927  1.8318
  408TIP3    H222784   0.506   6.079   0.943 -0.4800 -0.5878 -1.4231
  409TIP3   OH222785   1.213   0.661   1.701 -0.4661 -0.0992  0.0858
  409TIP3    H122786   1.241   0.684   1.790 -1.1132  1.9217 -0.1873
  409TIP3    H222787   1.285   0.690   1.645 -1.0515  0.8196 -0.2178
  410TIP3   OH222788   3.959   2.630   7.947  0.2773 -0.6360 -0.5086
  410TIP3    H122789   4.047   2.647   7.982  0.3870 -2.5172  0.1920
  410TIP3    H222790   3.909   2.597   8.021 -1.5784  1.8937 -0.4771
  411TIP3   OH222791   1.163   3.263   2.569  0.2136  0.0085 -0.5400
  411TIP3    H122792   1.145   3.223   2.654  1.5270 -1.2621 -0.8213
  411TIP3    H222793   1.169   3.357   2.588  2.3408 -0.3842  1.1640
  412TIP3   OH222794   5.161   4.070   7.736  0.6645 -0.5660  0.0061
  412TIP3    H122795   5.079   4.099   7.775  1.3502  3.0835 -0.9329
  412TIP3    H222796   5.134   4.016   7.662 -1.0191  1.3387 -0.8817
  413TIP3   OH222797   5.052   1.606   2.046  0.3364 -0.2041  0.3291
  413TIP3    H122798   4.998   1.649   2.112 -1.0735  0.3261 -1.0881
  413TIP3    H222799   5.115   1.554   2.096 -1.4416 -0.8024  2.0895
  414TIP3   OH222800   0.828   3.410   0.160 -0.0618 -0.2570 -0.2636
  414TIP3    H122801   0.759   3.374   0.217 -0.8486  1.6203  0.0232
  414TIP3    H222802   0.796   3.496   0.134  2.4007  0.9269  0.3157
  415TIP3   OH222803   0.716   4.591   0.997  0.6684  0.1142 -0.2766
  415TIP3    H122804   0.761   4.615   0.916 -0.5152 -0.3923 -1.1147
  415TIP3    H222805   0.688   4.500   0.984  0.2780  0.0885  0.6204
  416TIP3   OH222806   6.337   0.327   2.099 -0.3443  0.3313  0.2216
  416TIP3    H122807   6.280   0.403   2.100 -1.2197 -0.3046  0.0349
  416TIP3    H222808   6.327   0.289   2.012 -0.6898 -0.5463  0.6238
  417TIP3   OH222809   3.579   0.749   7.757 -0.1063 -0.5848  0.3115
  417TIP3    H122810   3.557   0.823   7.815  0.6573 -1.0491  1.2215
  417TIP3    H222811   3.647   0.784   7.699  0.7841 -0.7629  1.2244
  418TIP3   OH222812   6.339   0.325   0.950 -0.1640 -0.4541  0.3041
  418TIP3    H122813   6.317   0.362   0.864  0.8851  1.3586  0.7712
  418TIP3    H222814   6.379   0.241   0.929  0.0697 -0.0515 -0.9946
  419TIP3   OH222815   6.358   2.471   0.213 -0.0521 -0.4356  0.2125
  419TIP3    H122816   6.438   2.442   0.168  0.0950 -0.2527  0.3593
  419TIP3    H222817   6.294   2.480   0.142  0.5030  1.0136 -0.1343
  420TIP3   OH222818   5.322   6.422   6.668  0.3002 -0.2806 -0.1811
  420TIP3    H122819   5.252   6.409   6.603 -0.5595  0.4776  0.5666
  420TIP3    H222820   5.309   6.350   6.730  0.0736 -0.0451  0.0469
  421TIP3   OH222821   1.055   2.405   8.337 -0.4380  0.5870  0.0799
  421TIP3    H122822   1.096   2.484   8.373 -0.3175  1.7303 -2.3460
  421TIP3    H222823   0.979   2.389   8.393  1.3696  0.3986  2.6339
  422TIP3   OH222824   5.651   0.785   8.769  0.3697 -0.0975 -0.6194
  422TIP3    H122825   5.633   0.711   8.826  1.4783 -0.7473 -1.0826
  422TIP3    H222826   5.654   0.747   8.681 -4.7832  1.3353 -1.7741
  423TIP3   OH222827   2.403   6.359   1.908  0.0772 -0.1694 -0.3996
  423TIP3    H122828   2.422   6.367   2.002 -0.0187 -0.0031 -0.3952
  423TIP3    H222829   2.316   6.397   1.897  0.0054 -0.3667 -0.5251
  424TIP3   OH222830   2.813   2.088   1.381  0.5693 -0.3228  0.3031
  424TIP3    H122831   2.769   2.155   1.432  0.5059 -0.4206  0.3786
  424TIP3    H222832   2.750   2.016   1.377 -0.2453  0.4424 -1.6462
  425TIP3   OH222833   2.970   6.614   7.603 -0.1421 -0.2098 -0.9525
  425TIP3    H122834   2.905   6.610   7.532 -0.8903 -0.3155 -0.2851
  425TIP3    H222835   2.972   6.707   7.628 -3.0223 -0.6932  1.6450
  426TIP3   OH222836   5.904   4.246   0.834  0.4073 -0.4163  0.0061
  426TIP3    H122837   5.916   4.300   0.756 -0.9754 -0.9233 -0.6019
  426TIP3    H222838   5.898   4.157   0.800 -2.2049 -0.4677  0.4208
  427TIP3   OH222839   3.814   0.568   8.200 -0.5132  0.3534 -0.2041
  427TIP3    H122840   3.813   0.553   8.294 -1.5490  0.9242 -0.1055
  427TIP3    H222841   3.734   0.527   8.168  0.9858 -1.9924 -1.2338
  428TIP3   OH222842   0.685   6.644   1.042 -0.0573 -0.0496 -0.1401
  428TIP3    H122843   0.707   6.583   0.971  4.0837 -1.0081  1.6470
  428TIP3    H222844   0.763   6.699   1.051 -1.4050  1.6832  2.0945
  429TIP3   OH222845   3.339   4.887   2.507 -0.0165  0.4866  0.3916
  429TIP3    H122846   3.411   4.947   2.526  1.3910 -0.7507 -0.7785
  429TIP3    H222847   3.290   4.929   2.437  0.5584  0.6160  0.0542
  430TIP3   OH222848   5.045   5.561   8.544 -0.1533 -0.0376  0.1627
  430TIP3    H122849   5.068   5.636   8.488 -0.5113  1.0960  1.4804
  430TIP3    H222850   5.120   5.502   8.537  0.6943  1.0151  0.0343
  431TIP3   OH222851   4.952   4.305   8.161 -0.0894 -0.4780 -0.4930
  431TIP3    H122852   4.976   4.237   8.224 -0.4639 -1.0618 -0.9621
  431TIP3    H222853   5.031   4.358   8.151  0.1234 -0.6794  0.0939
  432TIP3   OH222854   5.837   5.722   1.953 -0.0828 -0.6635 -0.0424
  432TIP3    H122855   5.854   5.642   1.902 -0.7506  0.4025 -2.0426
  432TIP3    H222856   5.806   5.785   1.888  0.0355  1.1099  1.5609
  433TIP3   OH222857   5.605   0.307   7.395  0.3936 -0.8527 -0.2704
  433TIP3    H122858   5.583   0.332   7.485 -0.8048  0.0326 -0.7876
  433TIP3    H222859   5.620   0.390   7.350  1.0130 -1.2934 -0.8882
  434TIP3   OH222860   1.655   3.905   0.002 -0.2141  0.1443 -0.3420
  434TIP3    H122861   1.569   3.865  -0.011 -0.1321 -0.7212  1.5538
  434TIP3    H222862   1.642   3.969   0.071  0.9522 -1.0850  1.0781
  435TIP3   OH222863   0.845   1.504   8.771  0.1854  0.2735 -0.0641
  435TIP3    H122864   0.771   1.559   8.800  0.1176 -0.9512  2.3537
  435TIP3    H222865   0.811   1.415   8.774  0.9114 -0.1060 -1.9165
  436TIP3   OH222866   2.083   2.587   0.301  0.0802 -0.5168 -0.0060
  436TIP3    H122867   2.094   2.501   0.341  2.6507 -0.1936  0.1907
  436TIP3    H222868   2.039   2.640   0.368 -0.6760 -1.4112  0.2187
  437TIP3   OH222869   5.205   3.208   0.141  0.2789  0.2757 -0.2428
  437TIP3    H122870   5.235   3.294   0.170 -0.0901  0.4859 -0.4735
  437TIP3    H222871   5.212   3.212   0.045  0.6471 -0.0945 -0.2324
  438TIP3   OH222872   2.019   4.087   0.509 -0.1973  0.0424 -0.0565
  438TIP3    H122873   2.039   4.003   0.467  0.5927  0.6731 -1.0028
  438TIP3    H222874   2.096   4.141   0.490 -0.4558  0.8082  1.0109
  439TIP3   OH222875   4.958   1.071   8.040 -0.0936  0.2754 -0.0121
  439TIP3    H122876   5.005   1.135   7.986 -1.5793  1.7996  0.4205
  439TIP3    H222877   4.894   1.032   7.981  0.9198 -0.9796 -0.3175
  440TIP3   OH222878   4.878   2.058   7.108  0.4755  0.2609 -0.0044
  440TIP3    H122879   4.808   2.045   7.173  1.6328 -1.2450  1.0276
  440TIP3    H222880   4.834   2.048   7.024 -0.5014 -1.2370  0.6299
  441TIP3   OH222881   5.498   2.344   0.380  0.7974 -0.4853 -0.0333
  441TIP3    H122882   5.430   2.388   0.329 -0.6542 -1.0581  1.3358
  441TIP3    H222883   5.578   2.358   0.330 -0.5774 -1.3031 -2.6480
  442TIP3   OH222884   5.027   3.475   1.847 -0.6517 -0.8517  0.2402
  442TIP3    H122885   5.095   3.450   1.909  0.6612 -1.0190 -1.2114
  442TIP3    H222886   5.033   3.571   1.841  0.2047 -0.9490 -0.6779
  443TIP3   OH222887   3.525   4.585   0.719  0.7893  0.5316 -0.3194
  443TIP3    H122888   3.572   4.505   0.743  1.8153  0.6470 -1.8312
  443TIP3    H222889   3.566   4.614   0.637  0.6144  2.7501  0.3068
  444TIP3   OH222890   3.980   4.607   0.448  0.6224 -0.0537 -0.5339
  444TIP3    H122891   4.061   4.571   0.485  0.5771 -1.0350 -1.3540
  444TIP3    H222892   3.961   4.552   0.372 -0.5439  0.4830 -0.6594
  445TIP3   OH222893   4.531   6.258   1.152 -0.8035  0.0404  0.2822
  445TIP3    H122894   4.588   6.189   1.186 -1.4499 -1.4409 -1.4880
  445TIP3    H222895   4.470   6.212   1.094 -0.2663  2.2647 -2.2342
  446TIP3   OH222896   1.598   1.049   3.045 -0.1519  0.0047 -0.2180
  446TIP3    H122897   1.687   1.019   3.032 -0.4064 -0.7963 -0.1406
  446TIP3    H222898   1.544   0.971   3.034 -0.6891  0.0382  1.7227
  447TIP3   OH222899   5.889   0.362   1.533  0.1836  0.2981 -0.6395
  447TIP3    H122900   5.974   0.403   1.548  1.7838 -2.4642 -1.2906
  447TIP3    H222901   5.893   0.333   1.442  0.0631 -2.9044  0.2623
  448TIP3   OH222902   1.173   3.767   0.109  0.1396  0.3059  0.4302
  448TIP3    H122903   1.144   3.703   0.175 -0.6343  0.2335  0.0328
  448TIP3    H222904   1.092   3.804   0.074  0.5810  1.5446  0.6735
  449TIP3   OH222905   0.333   1.155   8.224 -0.2815 -0.3279  0.4660
  449TIP3    H122906   0.414   1.121   8.187 -0.3054  1.0403 -0.9612
  449TIP3    H222907   0.336   1.131   8.316 -0.2840 -4.0428 -0.3734
  450TIP3   OH222908   0.871   4.121   0.298 -0.7836  0.4897  0.6376
  450TIP3    H122909   0.779   4.099   0.283 -0.3969 -0.2105 -0.9188
  450TIP3    H222910   0.887   4.199   0.245  0.2255 -1.1131 -1.5528
  451TIP3   OH222911   1.363   2.409   2.296  0.5490 -0.2464 -0.2193
  451TIP3    H122912   1.446   2.392   2.340  0.0022 -0.3729  0.7757
  451TIP3    H222913   1.377   2.376   2.207  2.0529  1.0797 -0.5145
  452TIP3   OH222914   3.373   1.300   0.608  0.9635 -0.2950  0.2794
  452TIP3    H122915   3.356   1.380   0.557 -1.0668 -1.8746 -1.7511
  452TIP3    H222916   3.377   1.231   0.542 -1.3520 -2.3987  2.1461
  453TIP3   OH222917   1.108   6.058   0.958  0.5786  0.0291  0.6011
  453TIP3    H122918   1.092   5.968   0.986  1.4178 -0.5274 -0.6044
  453TIP3    H222919   1.021   6.094   0.942  0.2682 -0.9058  0.1199
  454TIP3   OH222920   5.991   1.935   0.378 -0.4399  0.1533 -0.1471
  454TIP3    H122921   5.910   1.900   0.342 -0.6501  1.3398 -0.8755
  454TIP3    H222922   5.964   1.985   0.455 -0.5013  1.0642 -0.7398
  455TIP3   OH222923   0.538   4.107   1.341  0.0138  0.4104  0.2618
  455TIP3    H122924   0.492   4.190   1.334 -0.1059  0.2508 -0.8948
  455TIP3    H222925   0.483   4.054   1.398  0.5721  1.4268  1.8425
  456TIP3   OH222926   1.362   4.532   8.495 -0.0509  0.6738  0.3825
  456TIP3    H122927   1.337   4.566   8.409 -2.2831  0.2759  0.8225
  456TIP3    H222928   1.440   4.582   8.519  0.8683  0.5328 -2.0073
  457TIP3   OH222929   2.689   6.790   3.113 -0.5022 -0.1011 -0.2002
  457TIP3    H122930   2.607   6.810   3.158 -1.5866 -2.1250 -1.1199
  457TIP3    H222931   2.758   6.821   3.172 -1.9053  1.0074  0.9198
  458TIP3   OH222932   2.257   0.650   0.188 -0.1738 -0.2932  0.2980
  458TIP3    H122933   2.208   0.631   0.268 -0.1767  0.2399  0.4250
  458TIP3    H222934   2.319   0.718   0.213  0.1234 -0.4307 -0.0493
  459TIP3   OH222935   2.636   4.730   0.234  0.2597  0.6345  0.1779
  459TIP3    H122936   2.554   4.779   0.221  1.4125  2.6125  0.0168
  459TIP3    H222937   2.664   4.708   0.146  0.0372  0.1788  0.2197
  460TIP3   OH222938   1.791   4.934   0.710  0.1222  0.4410  0.2298
  460TIP3    H122939   1.710   4.939   0.659  1.3150  1.5439 -1.6824
  460TIP3    H222940   1.806   5.023   0.740 -1.9329 -0.5475  5.0357
  461TIP3   OH222941   5.634   2.708   8.324  0.0577 -0.6604  0.1509
  461TIP3    H122942   5.589   2.673   8.401  2.1091 -2.0771  0.7842
  461TIP3    H222943   5.703   2.763   8.360  0.9003 -1.1703 -0.6534
  462TIP3   OH222944   2.023   2.909   7.420 -0.0800  0.4554  0.0732
  462TIP3    H122945   2.008   2.824   7.463 -0.4666  1.2854  1.6985
  462TIP3    H222946   2.089   2.892   7.353 -0.6421 -1.2525 -0.0862
  463TIP3   OH222947   5.828   3.518   7.890 -0.0784 -0.3347 -0.0768
  463TIP3    H122948   5.767   3.448   7.912  0.1882 -1.2870 -2.1322
  463TIP3    H222949   5.779   3.574   7.831  0.5239 -0.2134 -0.4691
  464TIP3   OH222950   2.316   4.783   1.346  0.4578 -0.5124 -0.4266
  464TIP3    H122951   2.226   4.754   1.330  0.7293 -1.9070  0.3423
  464TIP3    H222952   2.355   4.788   1.259 -0.7187  1.5011 -0.9017
  465TIP3   OH222953   2.005   2.651   7.537 -0.6963  0.1173 -0.1177
  465TIP3    H122954   1.917   2.623   7.513  0.0981 -3.4188  0.5094
  465TIP3    H222955   2.000   2.670   7.631 -0.6783 -0.7994  0.0779
  466TIP3   OH222956   4.726   5.605   8.609 -0.1010 -0.2152 -0.2041
  466TIP3    H122957   4.693   5.517   8.591  0.3042 -1.2588  3.4030
  466TIP3    H222958   4.817   5.603   8.579 -0.4291 -0.5659 -1.2348
  467TIP3   OH222959   0.357   5.556   1.502 -0.4764 -0.5261 -0.0238
  467TIP3    H122960   0.366   5.504   1.422 -0.1312  2.7336 -2.3402
  467TIP3    H222961   0.446   5.567   1.534 -0.4255 -0.4357 -0.1960
  468TIP3   OH222962   6.541   4.815   2.281 -0.0482  0.1146  0.0188
  468TIP3    H122963   6.493   4.829   2.363 -1.1324  0.9510 -0.7291
  468TIP3    H222964   6.578   4.901   2.260  0.2058 -0.0903 -0.3800
  469TIP3   OH222965   1.502   4.760   2.801 -0.4834 -0.0601 -0.3647
  469TIP3    H122966   1.515   4.665   2.802 -1.6149 -0.2253  0.2213
  469TIP3    H222967   1.585   4.796   2.833  0.2569 -0.7924 -1.3734
  470TIP3   OH222968   3.878   3.299   0.941 -0.6138  0.4181 -0.4134
  470TIP3    H122969   3.949   3.267   0.998 -0.0459  0.8495 -0.8716
  470TIP3    H222970   3.912   3.288   0.852 -1.7984 -0.9920 -0.7345
  471TIP3   OH222971   4.397   5.183   8.249 -0.0281 -0.2351  0.4284
  471TIP3    H122972   4.343   5.252   8.210  1.4931  1.9830  2.0220
  471TIP3    H222973   4.367   5.102   8.207 -3.6913  1.0060  0.3308
  472TIP3   OH222974   0.746   1.710   1.403 -0.5701  0.2130  0.0328
  472TIP3    H122975   0.808   1.666   1.462  0.3128 -0.3829 -1.3074
  472TIP3    H222976   0.798   1.776   1.358 -0.6430 -0.9457 -1.8319
  473TIP3   OH222977   3.034   4.995   7.591  0.2910 -0.0611 -0.0602
  473TIP3    H122978   2.945   4.973   7.618 -0.5832  1.3721 -1.5588
  473TIP3    H222979   3.023   5.073   7.536  2.1444 -1.4765 -2.6051
  474TIP3   OH222980   5.565   2.703   7.257  0.6589  0.5297 -0.3281
  474TIP3    H122981   5.558   2.656   7.173 -1.9934  1.6118 -0.8218
  474TIP3    H222982   5.600   2.788   7.234 -0.0491  0.8194 -0.3634
  475TIP3   OH222983   0.982   0.517   2.283  0.1870 -0.3188 -0.1085
  475TIP3    H122984   0.953   0.473   2.363  1.0710 -1.0498 -0.1745
  475TIP3    H222985   0.939   0.467   2.212 -1.0585  0.6806 -0.0947
  476TIP3   OH222986   2.909   4.832   8.630 -0.4889  0.3228  0.7955
  476TIP3    H122987   2.816   4.819   8.650 -1.1100  1.0376 -1.3691
  476TIP3    H222988   2.910   4.897   8.560  1.5120 -1.1505 -0.6743
  477TIP3   OH222989   6.040   1.488   6.804 -0.1358 -0.6977 -0.6157
  477TIP3    H122990   6.088   1.571   6.807  1.5813 -1.6480  0.0708
  477TIP3    H222991   5.949   1.512   6.821  0.5502  0.8908  1.2645
  478TIP3   OH222992   4.646   4.252   0.132 -0.1275 -0.5312  0.1333
  478TIP3    H122993   4.600   4.176   0.168  0.2963 -0.2853  1.2583
  478TIP3    H222994   4.624   4.323   0.192 -0.7221  0.3166 -1.0445
  479TIP3   OH222995   5.382   6.733   1.392 -0.1013 -1.0802 -0.5277
  479TIP3    H122996   5.391   6.764   1.302  0.9921 -1.9655 -0.7516
  479TIP3    H222997   5.290   6.706   1.400  0.0543 -2.0494 -1.7476
  480TIP3   OH222998   4.360   3.633   7.839 -0.7134  0.4158 -0.4675
  480TIP3    H122999   4.450   3.600   7.844 -1.3006 -1.0706  1.3202
  480TIP3    H223000   4.363   3.699   7.770  1.6299  0.0449 -0.8116
  481TIP3   OH223001   6.594   2.428   1.511  0.0948 -0.0000 -0.0584
  481TIP3    H123002   6.511   2.446   1.554  0.6863  2.2651  0.2919
  481TIP3    H223003   6.633   2.357   1.562 -1.1417 -0.3321  0.4398
  482TIP3   OH223004   0.631   0.811   2.754 -0.5691  0.8556 -0.1809
  482TIP3    H123005   0.714   0.803   2.800 -1.4442 -1.4299  1.2121
  482TIP3    H223006   0.589   0.887   2.794  0.1086  0.9410  0.3876
  483TIP3   OH223007   6.102   0.879   2.120  0.1884 -0.1747 -0.2551
  483TIP3    H123008   6.187   0.844   2.146 -0.2676 -1.8469 -0.9335
  483TIP3    H223009   6.107   0.972   2.145  2.1418 -0.2546 -0.1402
  484TIP3   OH223010   5.740   4.514   7.498  0.3454 -0.3799  0.3780
  484TIP3    H123011   5.737   4.573   7.423 -0.4800 -0.5835  0.2467
  484TIP3    H223012   5.833   4.490   7.505  0.7150  0.9811  0.4885
  485TIP3   OH223013   6.070   3.387   7.886  0.1097 -0.4016  0.1529
  485TIP3    H123014   6.111   3.394   7.972 -1.7112 -0.7384  1.0960
  485TIP3    H223015   6.003   3.454   7.886  1.5914  1.2062 -1.9755
  486TIP3   OH223016   1.770   3.401   1.550 -0.0967  0.0182  0.1797
  486TIP3    H123017   1.766   3.305   1.554 -1.4980  0.0085 -0.5495
  486TIP3    H223018   1.787   3.428   1.640  0.1137 -0.9091  0.4319
  487TIP3   OH223019   0.829   2.101   1.854 -0.5052 -0.1680 -0.3290
  487TIP3    H123020   0.884   2.086   1.931 -2.2466  0.5541  1.1159
  487TIP3    H223021   0.762   2.163   1.883 -3.7910 -3.0405 -1.0811
  488TIP3   OH223022   1.821   2.977   0.557 -0.4194 -0.2503  0.8208
  488TIP3    H123023   1.796   3.040   0.490  1.1724  1.3231  1.6319
  488TIP3    H223024   1.740   2.959   0.604 -1.3791 -0.7006 -0.9076
  489TIP3   OH223025   1.102   5.387   1.612  0.0508 -0.1667 -0.4414
  489TIP3    H123026   1.095   5.310   1.669 -1.8055  0.8373  0.8042
  489TIP3    H223027   1.160   5.359   1.541 -2.1917 -3.4585 -1.2371
  490TIP3   OH223028   2.865   4.890   1.748 -0.4335 -0.3031 -0.9281
  490TIP3    H123029   2.783   4.917   1.706 -1.5577  0.0830  1.3196
  490TIP3    H223030   2.837   4.823   1.811  0.7569  0.7555  0.8026
  491TIP3   OH223031   3.217   6.654   1.132  0.2048 -0.3151  0.3494
  491TIP3    H123032   3.146   6.691   1.185 -0.2314 -0.6692  0.0152
  491TIP3    H223033   3.254   6.584   1.185 -1.1751 -1.6389 -0.3760
  492TIP3   OH223034   2.312   2.129   0.182 -0.3553 -0.1279 -0.4979
  492TIP3    H123035   2.311   2.203   0.244 -0.9197 -0.8407  0.3662
  492TIP3    H223036   2.301   2.052   0.237 -0.7540 -0.7915 -1.4846
  493TIP3   OH223037   3.253   6.270   0.341 -0.3492  0.3482  0.2247
  493TIP3    H123038   3.290   6.229   0.263 -0.9242  0.6318 -0.2147
  493TIP3    H223039   3.191   6.335   0.306 -0.4391  0.6435  0.9159
  494TIP3   OH223040   6.413   4.671   0.672  0.4551 -0.3158 -0.3064
  494TIP3    H123041   6.325   4.659   0.636 -0.0440 -3.0746  1.5368
  494TIP3    H223042   6.399   4.702   0.761  1.3610 -0.6712 -0.0286
  495TIP3   OH223043   4.755   5.540   6.772  0.3857 -0.2735  0.0350
  495TIP3    H123044   4.826   5.524   6.709  0.5002 -0.2098  0.1493
  495TIP3    H223045   4.795   5.594   6.840 -0.2085  1.2836 -0.7830
  496TIP3   OH223046   6.672   5.353   8.498  0.4143  0.1769  0.5304
  496TIP3    H123047   6.685   5.276   8.554 -1.5051 -0.8109 -0.3039
  496TIP3    H223048   6.604   5.326   8.436 -1.7181  3.1450  1.3879
  497TIP3   OH223049   0.963   6.708   7.281 -0.4558 -0.2903 -0.3225
  497TIP3    H123050   1.037   6.704   7.220 -0.3706 -0.9675 -0.1821
  497TIP3    H223051   0.953   6.801   7.299  1.6546 -0.2763  1.2154
  498TIP3   OH223052   0.415   3.113   8.346 -0.3961 -0.6289  0.0958
  498TIP3    H123053   0.449   3.178   8.284 -1.8153  1.5642  1.4720
  498TIP3    H223054   0.478   3.113   8.417  0.2052 -1.6625 -0.4255
  499TIP3   OH223055   5.813   2.713   1.294 -0.0528 -0.0447  0.2963
  499TIP3    H123056   5.835   2.629   1.253  1.2590 -0.0269  0.9059
  499TIP3    H223057   5.783   2.691   1.382 -0.8354  0.0625  0.0670
  500TIP3   OH223058   2.798   1.135   0.535  0.4692  0.0740 -0.4292
  500TIP3    H123059   2.840   1.131   0.621 -0.0166  1.2530 -0.1248
  500TIP3    H223060   2.749   1.053   0.530  1.4696 -0.5693 -0.1058
  501TIP3   OH223061   1.070   6.757   3.267 -1.1605  0.0054 -0.6427
  501TIP3    H123062   1.143   6.696   3.263 -0.9815  0.0235  1.2459
  501TIP3    H223063   1.110   6.844   3.258 -1.2155 -0.0530 -1.5981
  502TIP3   OH223064   1.775   3.097   0.077 -0.1855  0.3854 -0.1399
  502TIP3    H123065   1.862   3.084   0.041  0.0454  1.0018  0.1769
  502TIP3    H223066   1.733   3.158   0.016 -0.9720 -1.1044 -1.1694
  503TIP3   OH223067   6.820   6.229   7.651  0.1500  0.1071 -0.5977
  503TIP3    H123068   6.839   6.141   7.619  1.9146 -0.0368  0.6920
  503TIP3    H223069   6.732   6.248   7.619 -1.0227 -2.8127  0.5363
  504TIP3   OH223070   5.939   2.146   0.997  0.2695 -0.5534  0.8591
  504TIP3    H123071   5.934   2.082   1.068 -0.6228 -2.2932 -0.6854
  504TIP3    H223072   5.933   2.094   0.917 -1.2690  1.5012 -0.4768
  505TIP3   OH223073   3.175   1.196   0.177 -0.3602  0.4566 -0.1243
  505TIP3    H123074   3.109   1.129   0.195 -1.8577  1.8881 -0.0903
  505TIP3    H223075   3.245   1.177   0.240 -2.0848  0.7157  1.9936
  506TIP3   OH223076   6.317   0.207   2.575 -0.2952  0.1676 -0.0155
  506TIP3    H123077   6.230   0.184   2.541  0.2071 -0.8483 -0.6346
  506TIP3    H223078   6.354   0.265   2.508 -0.7421  1.1712  0.5724
  507TIP3   OH223079   4.282   0.496   8.654  0.9698  0.0700 -0.3589
  507TIP3    H123080   4.226   0.573   8.644  1.3631  0.3616 -0.3190
  507TIP3    H223081   4.254   0.437   8.584  1.4766  0.7446 -1.1445
  508TIP3   OH223082   4.250   5.046   2.782  0.1837  0.1816  0.2204
  508TIP3    H123083   4.232   5.111   2.850 -0.2291 -0.4100  0.6911
  508TIP3    H223084   4.164   5.009   2.762  0.4117 -0.1918 -0.0722
  509TIP3   OH223085   1.836   6.348   7.582  1.0557 -0.1511  0.6808
  509TIP3    H123086   1.805   6.427   7.537  0.6136 -0.9848 -0.5239
  509TIP3    H223087   1.830   6.370   7.675  1.4589  1.4207  0.3711
  510TIP3   OH223088   1.139   0.106   8.417  0.0245  0.1083 -0.1867
  510TIP3    H123089   1.208   0.088   8.354  0.0281  0.2812 -0.2318
  510TIP3    H223090   1.185   0.113   8.501  0.6034  3.7560 -0.6487
  511TIP3   OH223091   6.638   2.062   0.338 -0.3711  0.5089  0.2027
  511TIP3    H123092   6.565   2.069   0.276 -0.9249  0.2044  0.8033
  511TIP3    H223093   6.687   1.985   0.308  0.0896  1.0948 -0.5877
  512TIP3   OH223094   4.246   6.406   1.083  0.0290  0.0174  0.5797
  512TIP3    H123095   4.199   6.480   1.122  0.6387  0.9050 -0.3235
  512TIP3    H223096   4.300   6.372   1.154 -1.3472 -0.5231  1.4151
  513TIP3   OH223097   4.911   2.315   7.208  0.2773  0.0944 -0.5425
  513TIP3    H123098   4.816   2.320   7.219  0.0731 -0.7034 -1.7563
  513TIP3    H223099   4.929   2.223   7.190  1.3813  0.1079  0.3657
  514TIP3   OH223100   6.272   1.267   0.696  0.3072  0.3111  0.2782
  514TIP3    H123101   6.280   1.315   0.614  1.6054  0.8313  0.6869
  514TIP3    H223102   6.346   1.297   0.748 -0.1944 -0.4209  1.4325
  515TIP3   OH223103   1.403   2.864   0.452  0.3814  0.3091  0.1940
  515TIP3    H123104   1.318   2.830   0.423  0.1987  0.2434  0.8079
  515TIP3    H223105   1.408   2.952   0.415  0.2099  0.1745 -0.1533
  516TIP3   OH223106   0.110   5.382   0.313 -1.0079 -0.2136  0.3650
  516TIP3    H123107   0.066   5.296   0.308 -1.8450  0.0877  1.9384
  516TIP3    H223108   0.068   5.434   0.244 -0.5910 -1.0024 -0.5103
  517TIP3   OH223109   3.173   3.911   1.904 -0.1828  0.2762 -0.7253
  517TIP3    H123110   3.265   3.898   1.882  0.1010  0.1869  0.4226
  517TIP3    H223111   3.162   3.863   1.986 -1.5844 -0.8050 -1.5096
  518TIP3   OH223112   2.302   5.307   1.335 -0.0853 -0.3908 -0.4403
  518TIP3    H123113   2.222   5.358   1.323  0.0480 -0.3709 -1.3149
  518TIP3    H223114   2.277   5.217   1.315 -0.1082 -0.5417  0.2311
  519TIP3   OH223115   5.257   4.578   0.461  0.0678 -0.0980 -0.2671
  519TIP3    H123116   5.329   4.562   0.522 -0.3148  1.3209  0.6195
  519TIP3    H223117   5.178   4.558   0.512 -0.2009 -3.1324 -1.6958
  520TIP3   OH223118   4.511   0.080   8.140  0.7632 -0.9481  0.0779
  520TIP3    H123119   4.473   0.139   8.075 -0.2155 -1.8227 -0.1744
  520TIP3    H223120   4.483   0.115   8.224  0.5043 -0.8323 -0.0570
  521TIP3   OH223121   1.620   3.853   2.864  0.0393  0.0946  0.0204
  521TIP3    H123122   1.581   3.920   2.920 -0.0613 -0.4845  0.6585
  521TIP3    H223123   1.554   3.837   2.796 -2.2423 -2.8970  2.6456
  522TIP3   OH223124   1.321   3.740   1.514  0.0030  0.4896  0.6539
  522TIP3    H123125   1.367   3.743   1.598  0.5593  2.1185  0.3315
  522TIP3    H223126   1.239   3.695   1.533 -0.3074  1.6496  2.3226
  523TIP3   OH223127   3.785   6.508   2.404  0.1500 -0.1543  0.3992
  523TIP3    H123128   3.741   6.423   2.400 -1.3707  0.6351 -0.7501
  523TIP3    H223129   3.724   6.564   2.453  0.7159  0.5135  0.3635
  524TIP3   OH223130   0.509   6.562   0.496  0.1593 -0.4373 -0.2323
  524TIP3    H123131   0.564   6.634   0.526  0.3613  0.4155 -2.4506
  524TIP3    H223132   0.420   6.596   0.498 -0.0888 -1.1197  1.3981
  525TIP3   OH223133   0.460   4.279   1.634 -0.1289 -0.2019  0.3197
  525TIP3    H123134   0.465   4.360   1.684  1.3611  0.7431 -1.2505
  525TIP3    H223135   0.444   4.211   1.700 -1.3459  1.3239  1.6742
  526TIP3   OH223136   0.358   1.807   0.710  0.3296  0.2902  0.0993
  526TIP3    H123137   0.305   1.808   0.630  1.0868  1.3141 -0.4248
  526TIP3    H223138   0.298   1.829   0.780  0.1292  1.8863 -0.5437
  527TIP3   OH223139   3.426   4.561   0.290 -0.3716 -0.4662  0.2796
  527TIP3    H123140   3.473   4.644   0.300 -0.0566 -0.2495 -2.1641
  527TIP3    H223141   3.403   4.558   0.197 -0.5349 -3.0494  0.3270
  528TIP3   OH223142   2.447   0.030   6.899 -0.1150  0.1251  0.5761
  528TIP3    H123143   2.430  -0.040   6.836 -0.8220 -0.1564  1.0551
  528TIP3    H223144   2.360   0.053   6.933  0.0120  1.8874 -0.2338
  529TIP3   OH223145   3.648   1.294   0.754 -0.3780  0.0740 -0.3033
  529TIP3    H123146   3.631   1.359   0.685  1.3171 -0.0113 -0.8494
  529TIP3    H223147   3.561   1.261   0.779 -1.1953  1.7772 -0.7569
  530TIP3   OH223148   6.414   3.912   2.305  0.1564  0.0753 -0.3508
  530TIP3    H123149   6.453   3.995   2.275  0.8759 -0.2178 -0.2506
  530TIP3    H223150   6.459   3.845   2.253  1.1944 -0.4242  1.1289
  531TIP3   OH223151   4.280   3.909   0.378  0.5797 -0.4356  0.9182
  531TIP3    H123152   4.209   3.910   0.442  0.9938 -1.7454  1.4389
  531TIP3    H223153   4.331   3.832   0.401  0.8767 -0.8079 -0.8657
  532TIP3   OH223154   1.210   4.104   1.031  0.5979 -0.5349  0.3332
  532TIP3    H123155   1.215   4.047   0.954 -0.2851 -1.3647  0.8610
  532TIP3    H223156   1.281   4.167   1.019  0.9612 -1.1215 -0.7748
  533TIP3   OH223157   4.327   2.978   7.814 -0.5729  0.6417  0.0250
  533TIP3    H123158   4.416   2.978   7.779 -0.9911  2.0289 -1.1407
  533TIP3    H223159   4.276   3.031   7.752 -2.2290 -0.1318  0.6435
  534TIP3   OH223160   3.116   2.916   8.185  0.4718  0.0988 -0.0342
  534TIP3    H123161   3.105   2.887   8.095 -0.2065 -0.0997  0.1060
  534TIP3    H223162   3.162   2.843   8.228 -0.7870 -0.6012  0.1964
  535TIP3   OH223163   1.594   5.773   8.310 -0.1155 -0.5953 -0.0059
  535TIP3    H123164   1.519   5.812   8.355 -0.0674  0.5332 -0.8536
  535TIP3    H223165   1.557   5.734   8.230  0.2131  0.1683 -0.5443
  536TIP3   OH223166   5.883   1.656   8.648  0.2369  0.8226  0.0711
  536TIP3    H123167   5.898   1.563   8.667 -1.5482 -0.3399 -3.3327
  536TIP3    H223168   5.922   1.670   8.562 -0.9280  2.7965 -0.2037
  537TIP3   OH223169   6.356   1.653   1.395  0.5103 -0.0061  0.1400
  537TIP3    H123170   6.274   1.703   1.398  0.4500 -0.1406  1.5991
  537TIP3    H223171   6.329   1.564   1.373  0.3391  0.1075 -0.1036
  538TIP3   OH223172   5.606   6.262   8.427 -0.4832  0.4406  0.3371
  538TIP3    H123173   5.634   6.310   8.349 -0.8517 -0.8337 -0.6139
  538TIP3    H223174   5.681   6.268   8.487  0.0654  0.8865 -0.3758
  539TIP3   OH223175   3.861   3.873   0.307 -0.5049 -0.7959  1.0710
  539TIP3    H123176   3.773   3.893   0.340 -0.8072  1.9421 -1.0284
  539TIP3    H223177   3.845   3.824   0.226 -0.0277 -1.1846  1.2046
  540TIP3   OH223178   4.458   2.748   0.039  0.1076  0.4637  0.1287
  540TIP3    H123179   4.546   2.752   0.078 -0.0565 -0.6401  0.6540
  540TIP3    H223180   4.459   2.817  -0.028  1.5560  0.1176 -0.2523
  541TIP3   OH223181   3.855   2.150   1.029 -0.3597 -0.3675  0.4258
  541TIP3    H123182   3.866   2.065   1.070 -1.2587 -1.2740 -1.1169
  541TIP3    H223183   3.900   2.211   1.087  0.8941 -1.9827  1.2135
  542TIP3   OH223184   6.435   0.378   2.770 -0.2292 -0.3023 -0.0580
  542TIP3    H123185   6.367   0.423   2.820 -1.2351 -0.6862 -1.0277
  542TIP3    H223186   6.388   0.340   2.695  1.1079 -0.3257 -0.9139
  543TIP3   OH223187   4.623   5.143   1.404 -0.4552 -0.0463  0.6819
  543TIP3    H123188   4.676   5.178   1.332  0.3107 -1.4358  0.5354
  543TIP3    H223189   4.539   5.188   1.396 -0.1948  0.2350 -0.7478
  544TIP3   OH223190   4.788   0.274   8.419  0.0669  0.3390 -0.7125
  544TIP3    H123191   4.797   0.307   8.330 -0.5289 -0.1057 -0.9493
  544TIP3    H223192   4.829   0.187   8.417  0.2101  0.4009 -0.5063
  545TIP3   OH223193   3.946   1.374   7.740  0.0987  0.5210  0.1538
  545TIP3    H123194   3.949   1.340   7.651 -0.1913  1.9530 -0.4324
  545TIP3    H223195   3.947   1.296   7.796 -2.4726 -0.5430 -1.1482
  546TIP3   OH223196   3.463   6.480   2.084  0.0497 -0.3783  0.1435
  546TIP3    H123197   3.472   6.400   2.136  0.1753 -0.5869 -0.1978
  546TIP3    H223198   3.545   6.528   2.101  0.5081 -0.8780 -0.5840
  547TIP3   OH223199   2.529   4.077   1.205 -0.0725  0.1985  0.9549
  547TIP3    H123200   2.562   4.160   1.170 -0.8205  0.5076  0.9473
  547TIP3    H223201   2.576   4.065   1.288 -0.4449  0.9862  1.2936
  548TIP3   OH223202   4.289   4.674   0.028 -0.4829 -0.0571  0.0368
  548TIP3    H123203   4.194   4.665   0.038 -0.5020  0.4606  0.3137
  548TIP3    H223204   4.301   4.713  -0.058 -0.5335  0.1191  0.1094
  549TIP3   OH223205   6.288   1.157   0.142 -0.2692  0.4884  0.1219
  549TIP3    H123206   6.370   1.118   0.171 -0.3408 -0.2551 -0.6389
  549TIP3    H223207   6.265   1.219   0.211  0.9184  0.7024  0.3498
  550TIP3   OH223208   0.850   6.123   1.885  0.5823 -0.3918 -0.2705
  550TIP3    H123209   0.769   6.085   1.853  0.4247 -1.0310  0.8263
  550TIP3    H223210   0.899   6.145   1.806 -0.1207 -1.1721 -0.9455
  551TIP3   OH223211   6.102   3.505   0.079  0.0124  0.5835 -0.1845
  551TIP3    H123212   6.036   3.500   0.148  0.6655  0.1659  0.4255
  551TIP3    H223213   6.111   3.414   0.048 -0.1587  0.7432 -0.7111
  552TIP3   OH223214   3.801   2.542   0.221 -0.6437  0.3419 -0.2886
  552TIP3    H123215   3.794   2.490   0.301 -0.3303  1.1248  0.2605
  552TIP3    H223216   3.850   2.487   0.160  0.2132  0.2214  0.4905
  553TIP3   OH223217   4.737   2.231   1.735  0.6156 -0.0917  0.4737
  553TIP3    H123218   4.681   2.229   1.658 -0.7886 -1.4061  1.4847
  553TIP3    H223219   4.826   2.223   1.700  0.1124  0.6751 -1.0698
  554TIP3   OH223220   5.266   3.283   8.262 -0.0239 -0.4728 -0.8177
  554TIP3    H123221   5.176   3.308   8.286  0.8212  1.4341  0.6999
  554TIP3    H223222   5.274   3.307   8.170 -0.7007  0.6045 -0.6167
  555TIP3   OH223223   5.075   6.180   1.001  0.5803  0.2213  0.1161
  555TIP3    H123224   5.127   6.254   0.971  1.0228  0.3028  1.0496
  555TIP3    H223225   5.125   6.144   1.074 -0.2273 -0.2680  0.4367
  556TIP3   OH223226   6.313   4.941   0.209 -0.0560  0.0332  0.3485
  556TIP3    H123227   6.281   5.027   0.183  1.6893  0.4848 -0.4649
  556TIP3    H223228   6.305   4.939   0.304 -0.9322  0.7299  0.3008
  557TIP3   OH223229   0.020   0.634   8.288 -0.1325  0.0690  0.3598
  557TIP3    H123230  -0.043   0.563   8.296  0.1574 -0.3485 -0.7935
  557TIP3    H223231   0.040   0.660   8.378  1.0119 -2.4457  0.9185
  558TIP3   OH223232   1.653   3.572   7.878  0.4293  0.0449 -0.1554
  558TIP3    H123233   1.599   3.629   7.823  0.1468  1.4423  1.4599
  558TIP3    H223234   1.614   3.580   7.965  2.8386  0.6172  0.9554
  559TIP3   OH223235   3.904   1.092   8.475 -0.0809 -0.1335  0.3030
  559TIP3    H123236   3.843   1.027   8.439  0.2842  0.4770 -1.5499
  559TIP3    H223237   3.942   1.134   8.398  2.0634  0.0993  1.4146
  560TIP3   OH223238   6.790   2.937   1.865 -0.5330  0.1614 -0.3355
  560TIP3    H123239   6.831   2.991   1.934  0.5609  0.9920 -1.5877
  560TIP3    H223240   6.785   2.850   1.904  1.8765  0.1618  0.1418
  561TIP3   OH223241   3.622   3.155   7.426  0.2511 -0.1475 -0.6091
  561TIP3    H123242   3.694   3.185   7.371 -0.9782  1.3516 -1.4761
  561TIP3    H223243   3.549   3.144   7.365 -0.7410  0.1231  0.5022
  562TIP3   OH223244   6.513   0.989   1.134 -0.5082  0.1815 -0.1754
  562TIP3    H123245   6.526   1.047   1.058  0.2005  0.5213  0.1975
  562TIP3    H223246   6.466   0.914   1.098 -1.5802  1.0436 -0.6442
  563TIP3   OH223247   6.288   1.610   7.997  0.0981 -0.0203  0.4495
  563TIP3    H123248   6.381   1.604   7.973  0.2450  0.4601  0.8882
  563TIP3    H223249   6.266   1.523   8.032  0.4683 -0.0293  0.6582
  564TIP3   OH223250   0.020   5.081   0.647  0.0777 -0.3118  0.3779
  564TIP3    H123251  -0.066   5.045   0.625 -0.0341 -0.3870  0.9291
  564TIP3    H223252   0.070   5.007   0.681  0.2816 -0.2163  0.2901
  565TIP3   OH223253   5.971   2.810   7.874 -0.3034  0.2445  0.1129
  565TIP3    H123254   5.875   2.809   7.872 -0.3010  0.4768 -1.7448
  565TIP3    H223255   5.993   2.900   7.896 -0.4618 -0.3074  2.8677
  566TIP3   OH223256   4.234   6.260   1.934 -0.2647  0.1126  0.8739
  566TIP3    H123257   4.200   6.331   1.879 -0.0758  0.3262  1.0351
  566TIP3    H223258   4.274   6.304   2.008 -0.0858 -0.1629  0.9397
  567TIP3   OH223259   3.219   5.586   2.611 -0.1290 -0.3913 -0.3517
  567TIP3    H123260   3.255   5.498   2.625  0.9927 -0.3098 -2.3206
  567TIP3    H223261   3.124   5.574   2.614  0.0039 -1.5146  0.1275
  568TIP3   OH223262   3.722   5.124   0.790 -0.1867  0.0578 -0.0088
  568TIP3    H123263   3.682   5.094   0.709  1.6544  1.0680 -1.3718
  568TIP3    H223264   3.741   5.044   0.839 -2.1368 -0.5208 -0.1165
  569TIP3   OH223265   2.519   5.190   0.784 -0.1261 -0.1000 -0.1339
  569TIP3    H123266   2.531   5.272   0.735 -2.6149 -0.2983 -1.2077
  569TIP3    H223267   2.515   5.122   0.717 -0.0709 -0.8481  0.6037
  570TIP3   OH223268   4.912   2.855   0.182  0.2481 -0.1106 -0.5248
  570TIP3    H123269   4.951   2.820   0.102  1.0025 -0.7618  0.1059
  570TIP3    H223270   4.983   2.902   0.225  0.2474 -0.9184  0.4161
  571TIP3   OH223271   6.572   2.683   1.756 -0.0394  0.3646 -0.5590
  571TIP3    H123272   6.635   2.656   1.821 -2.1964  4.9480  4.1828
  571TIP3    H223273   6.518   2.606   1.740  1.7379 -1.4629  1.6948
  572TIP3   OH223274   0.106   2.587   2.224 -0.0405 -0.0050 -0.1017
  572TIP3    H123275   0.132   2.671   2.261  0.1082  0.4256 -1.1540
  572TIP3    H223276   0.182   2.530   2.237  0.1939  0.2858 -0.1937
  573TIP3   OH223277   3.680   0.314   2.045  0.1399  0.5117  1.0386
  573TIP3    H123278   3.757   0.262   2.071  1.5629  1.2614 -1.3741
  573TIP3    H223279   3.627   0.254   1.993  0.0791  0.5488  1.0580
  574TIP3   OH223280   2.654   1.231   0.857 -0.4524 -0.4079  0.1233
  574TIP3    H123281   2.729   1.270   0.812 -1.2261  1.0693  0.0430
  574TIP3    H223282   2.618   1.168   0.794  0.0293 -0.2702 -0.2920
  575TIP3   OH223283   0.770   5.066   1.096  0.0769 -0.2319 -0.0449
  575TIP3    H123284   0.702   5.033   1.037  0.2757  0.8651 -0.9182
  575TIP3    H223285   0.808   4.987   1.135 -0.4274 -0.9543 -0.9715
  576TIP3   OH223286   1.375   4.014   1.482  0.1932  0.5942  0.0997
  576TIP3    H123287   1.308   4.040   1.545 -1.4217  0.5075 -1.5222
  576TIP3    H223288   1.368   3.919   1.477  0.9212  0.5177  0.4186
  577TIP3   OH223289   4.560   2.191   8.093  0.0918 -0.0468 -0.4480
  577TIP3    H123290   4.593   2.144   8.170 -1.1092  0.6398  0.5268
  577TIP3    H223291   4.582   2.282   8.109 -0.2649  0.1133 -0.8546
  578TIP3   OH223292   2.532   3.072   3.095 -0.0444  0.0855 -0.4333
  578TIP3    H123293   2.499   3.160   3.108  0.0184 -0.1472  1.4704
  578TIP3    H223294   2.455   3.016   3.105  0.1541 -0.1689 -0.3155
  579TIP3   OH223295   5.986   3.567   0.847 -0.0918  0.0148  0.0162
  579TIP3    H123296   6.053   3.634   0.856 -1.1001  1.1580 -0.5731
  579TIP3    H223297   6.017   3.494   0.900 -0.3198  2.0299  3.2614
  580TIP3   OH223298   3.221   2.126   2.645  0.1147 -0.2334  0.1192
  580TIP3    H123299   3.134   2.086   2.645 -0.1046  0.0304  3.1092
  580TIP3    H223300   3.204   2.219   2.657  0.7946  0.2562 -2.1546
  581TIP3   OH223301   6.513   3.386   0.051 -0.1486  0.0573 -0.5459
  581TIP3    H123302   6.564   3.352   0.125 -1.3013  2.5659  1.5855
  581TIP3    H223303   6.579   3.411  -0.014  0.8580 -3.0191 -0.8528
  582TIP3   OH223304   1.872   0.170   7.185  0.5881  0.3421  0.2275
  582TIP3    H123305   1.786   0.134   7.203  0.9842 -0.9055 -0.2447
  582TIP3    H223306   1.932   0.096   7.198  1.3298  0.5521 -1.7161
  583TIP3   OH223307   0.324   0.724   1.264  0.4022  0.1104  0.2634
  583TIP3    H123308   0.374   0.724   1.182  0.1351  1.3173  0.0702
  583TIP3    H223309   0.382   0.765   1.327  0.8430 -1.3788  0.8616
  584TIP3   OH223310   6.202   1.542   8.328  0.1214  0.6013 -0.5470
  584TIP3    H123311   6.260   1.537   8.404 -0.3258  1.0623 -0.1663
  584TIP3    H223312   6.227   1.467   8.274  2.1801  1.6879 -1.2066
  585TIP3   OH223313   6.479   2.450   2.501 -0.6049 -0.2161  0.1578
  585TIP3    H123314   6.448   2.376   2.552  3.4472 -1.7780  0.7032
  585TIP3    H223315   6.493   2.520   2.565 -1.4181 -0.0256  0.1390
  586TIP3   OH223316   2.138   2.856   2.825 -0.4850 -0.4194 -0.2131
  586TIP3    H123317   2.177   2.832   2.910  0.3271  1.8361  0.1045
  586TIP3    H223318   2.056   2.900   2.848  0.5595  1.7677 -0.4265
  587TIP3   OH223319   6.193   2.758   7.703 -0.6825 -0.2782 -0.1258
  587TIP3    H123320   6.131   2.793   7.767  0.9735  0.0064  1.3954
  587TIP3    H223321   6.172   2.806   7.622 -1.0063  1.4132  0.9151
  588TIP3   OH223322   3.944   2.030   0.358  0.3149 -0.4884  0.6137
  588TIP3    H123323   4.012   2.010   0.293 -1.6755 -0.6439 -1.5474
  588TIP3    H223324   3.988   2.088   0.420  1.9800  0.9436 -1.6949
  589TIP3   OH223325   3.868   5.306   0.250 -0.0102  0.7815  0.7020
  589TIP3    H123326   3.928   5.244   0.290  0.4714  1.7493  1.5408
  589TIP3    H223327   3.901   5.317   0.161 -2.1431 -2.7648 -0.7199
  590TIP3   OH223328   5.955   6.041   7.200  0.1579  0.1745 -0.1250
  590TIP3    H123329   5.911   6.054   7.284 -0.5650 -1.3684 -0.2308
  590TIP3    H223330   5.888   6.061   7.135 -0.5297 -2.2517 -0.2872
  591TIP3   OH223331   6.615   1.574   0.612  0.1407  0.1754  0.2768
  591TIP3    H123332   6.633   1.652   0.664 -3.9209  1.9350 -0.5892
  591TIP3    H223333   6.638   1.600   0.522 -2.5125  1.0964 -0.2429
  592TIP3   OH223334   2.137   1.233   2.438  0.1024  0.2275 -0.0344
  592TIP3    H123335   2.110   1.193   2.521 -1.9176 -1.0138 -1.1937
  592TIP3    H223336   2.070   1.300   2.421  0.4196  0.3776 -0.7422
  593TIP3   OH223337   5.211   2.889   0.616  0.2377 -0.4212 -0.2311
  593TIP3    H123338   5.119   2.901   0.641 -0.4673 -3.0142 -1.2388
  593TIP3    H223339   5.209   2.883   0.520  1.4854 -0.4445 -0.2743
  594TIP3   OH223340   1.284   0.102   1.779  0.3109 -0.0766  0.4775
  594TIP3    H123341   1.331   0.020   1.794  0.5050  0.0488  0.5579
  594TIP3    H223342   1.285   0.147   1.864 -2.3642 -1.2945  1.2493
  595TIP3   OH223343   1.859   2.208   8.325  0.3359  0.1394 -0.1056
  595TIP3    H123344   1.790   2.142   8.313  0.2410  0.4707 -1.4966
  595TIP3    H223345   1.922   2.190   8.255  2.0099 -0.5291  1.4903
  596TIP3   OH223346   2.512   1.338   1.775 -0.2001 -0.2387  0.7107
  596TIP3    H123347   2.586   1.286   1.745 -0.5025 -1.5636  2.0968
  596TIP3    H223348   2.504   1.409   1.711  0.6095 -1.5599 -0.9365
  597TIP3   OH223349   5.675   4.386   0.383 -0.0317 -0.7200  0.2348
  597TIP3    H123350   5.684   4.423   0.471 -0.1509  0.4843 -0.2366
  597TIP3    H223351   5.765   4.362   0.359  0.3679  1.0724 -0.1851
  598TIP3   OH223352   0.456   0.622   1.569 -0.6027 -0.5494  0.2981
  598TIP3    H123353   0.452   0.711   1.605  1.2243 -0.5031  0.4564
  598TIP3    H223354   0.485   0.633   1.479  0.5883 -1.0162  0.6020
  599TIP3   OH223355   1.700   0.594   8.681  0.2319  0.1955 -0.7888
  599TIP3    H123356   1.763   0.654   8.641 -0.3515  1.3395 -0.0543
  599TIP3    H223357   1.627   0.650   8.708  0.0993 -0.6879  0.8080
  600TIP3   OH223358   2.904   4.476   0.401 -0.1072 -0.5686 -0.2381
  600TIP3    H123359   2.983   4.438   0.440 -0.0508 -0.1290  0.0845
  600TIP3    H223360   2.884   4.418   0.327 -0.2136 -1.4058  0.4321
  601TIP3   OH223361   6.462   2.523   8.720  0.2941 -0.0888  0.0036
  601TIP3    H123362   6.455   2.614   8.751  0.4595  0.4411 -1.4530
  601TIP3    H223363   6.516   2.480   8.786  0.3258  0.9067  0.6540
  602TIP3   OH223364   0.170   6.176   1.207  0.4674  0.1370 -0.1707
  602TIP3    H123365   0.225   6.248   1.237 -0.2542  0.0822  1.4127
  602TIP3    H223366   0.104   6.218   1.152 -0.1875  0.7741  1.0635
  603TIP3   OH223367   0.747   1.965   0.244 -0.8516  0.6324  0.2330
  603TIP3    H123368   0.770   2.052   0.276  1.8030  0.5951 -1.2454
  603TIP3    H223369   0.701   1.981   0.161 -0.5917  0.6461  0.0899
  604TIP3   OH223370   5.433   4.311   8.399  0.1615  0.0478  0.4847
  604TIP3    H123371   5.513   4.266   8.373  0.2359  0.6773 -0.4494
  604TIP3    H223372   5.463   4.397   8.430 -0.1780  0.5993 -0.6304
  605TIP3   OH223373   0.227   6.172   8.672 -0.0202 -0.4480 -0.0845
  605TIP3    H123374   0.301   6.232   8.663 -0.0422 -0.6307 -1.7496
  605TIP3    H223375   0.155   6.215   8.625 -0.4625 -1.0937 -0.0164
  606TIP3   OH223376   0.064   4.882   6.550  0.0707 -0.5853 -0.7052
  606TIP3    H123377   0.107   4.967   6.544 -1.0700  0.1864  1.0675
  606TIP3    H223378   0.116   4.833   6.613 -1.7163  0.5113  1.7920
  607TIP3   OH223379   1.104   1.032   7.354 -0.3910  0.0083  0.1654
  607TIP3    H123380   1.196   1.044   7.377 -0.3631 -1.6716  1.0693
  607TIP3    H223381   1.055   1.078   7.423 -0.2692  1.6241 -0.7686
  608TIP3   OH223382   6.613   5.494   2.869  0.1307 -0.1621 -0.7188
  608TIP3    H123383   6.689   5.444   2.838  0.5222  1.2828 -2.2846
  608TIP3    H223384   6.539   5.435   2.857  0.7276 -0.8255 -1.2926
  609TIP3   OH223385   2.523   4.043   0.116 -0.4920 -0.5386 -0.1692
  609TIP3    H123386   2.568   4.127   0.125 -0.3349 -0.5870 -0.4962
  609TIP3    H223387   2.442   4.054   0.165  0.4185 -0.8670  1.4946
  610TIP3   OH223388   3.341   4.832   0.772  0.0047 -0.0524 -0.0573
  610TIP3    H123389   3.284   4.826   0.849  1.8533  0.1240  1.3975
  610TIP3    H223390   3.396   4.753   0.777 -1.2730 -1.2194 -2.4816
  611TIP3   OH223391   3.115   4.729   7.013 -0.0981  0.2841  0.1064
  611TIP3    H123392   3.104   4.645   6.968  0.3454 -0.3463  1.1454
  611TIP3    H223393   3.026   4.765   7.017 -0.0485  0.7662 -1.9832
  612TIP3   OH223394   1.978   5.793   2.339 -0.3639 -0.0315 -0.0922
  612TIP3    H123395   1.966   5.868   2.281 -1.0244 -0.0833 -0.0318
  612TIP3    H223396   1.898   5.741   2.328 -0.1060 -0.4985  0.1961
  613TIP3   OH223397   3.348   3.746   6.972  0.2191 -0.4467 -0.0968
  613TIP3    H123398   3.349   3.653   6.994 -0.7752 -1.1991 -2.7912
  613TIP3    H223399   3.440   3.771   6.968  0.5498 -1.6551 -0.4401
  614TIP3   OH223400   2.890   3.907   0.839  0.2679  0.1347 -0.3397
  614TIP3    H123401   2.815   3.884   0.785 -0.0320 -0.1729  0.2011
  614TIP3    H223402   2.855   3.964   0.907  0.2255 -1.1851  0.7963
  615TIP3   OH223403   2.376   1.772   0.941  0.3421  0.2460 -0.0072
  615TIP3    H123404   2.374   1.687   0.897  0.0197 -0.0634  0.5881
  615TIP3    H223405   2.457   1.771   0.992  0.6577  0.5577 -0.4917
  616TIP3   OH223406   0.730   2.835   2.830 -0.1479  0.5440 -0.0694
  616TIP3    H123407   0.641   2.801   2.824 -0.3828  1.3057 -1.5671
  616TIP3    H223408   0.786   2.758   2.819 -0.5963  0.0304  1.0967
  617TIP3   OH223409   2.657   2.188   2.988  0.2267 -0.0080  0.0590
  617TIP3    H123410   2.571   2.173   3.026 -0.3905  1.8567 -0.5168
  617TIP3    H223411   2.700   2.249   3.048  1.0969 -0.7784  0.2455
  618TIP3   OH223412   5.244   4.063   8.431 -0.2659 -0.2243  0.6085
  618TIP3    H123413   5.326   4.112   8.438  0.6189 -1.2514 -1.7433
  618TIP3    H223414   5.216   4.051   8.522  0.8555  2.2824  1.3748
  619TIP3   OH223415   3.772   5.417   7.579  0.2560 -0.0100  0.0889
  619TIP3    H123416   3.706   5.368   7.627  1.6968 -2.1593  0.0079
  619TIP3    H223417   3.745   5.509   7.588 -1.8546 -0.6776  1.3180
  620TIP3   OH223418   1.235   1.391   1.141 -0.0408 -0.0968 -0.4509
  620TIP3    H123419   1.289   1.335   1.198 -0.4504  0.3882  0.4305
  620TIP3    H223420   1.285   1.472   1.133 -0.7804  0.4847  0.6547
  621TIP3   OH223421   4.233   2.938   1.953  0.5306  0.1312 -0.4588
  621TIP3    H123422   4.260   2.893   2.033 -0.1612  1.0047  0.2804
  621TIP3    H223423   4.245   2.872   1.884  2.7374 -0.1160  0.0778
  622TIP3   OH223424   4.731   2.059   8.790 -0.4307  0.3957 -0.0308
  622TIP3    H123425   4.797   1.996   8.820  2.3436  3.1763  0.2019
  622TIP3    H223426   4.670   2.066   8.864 -0.2220 -1.1803  0.3322
  623TIP3   OH223427   2.002   1.807   7.458 -0.0028  0.2527  0.0876
  623TIP3    H123428   2.031   1.898   7.463 -0.2177  0.2851  0.8625
  623TIP3    H223429   2.081   1.758   7.439  0.5140  0.3860  1.7516
  624TIP3   OH223430   0.099   1.916   0.550  0.2222  0.5370 -0.2274
  624TIP3    H123431   0.131   2.006   0.562 -0.2305  0.6665  0.0183
  624TIP3    H223432   0.007   1.920   0.575  0.0063  0.1668 -0.9323
  625TIP3   OH223433   6.001   6.698   7.064 -0.0931  0.5148  0.5453
  625TIP3    H123434   6.013   6.605   7.084 -2.4022  0.3824  1.6241
  625TIP3    H223435   5.917   6.701   7.016 -0.6691  2.1406  1.5779
  626TIP3   OH223436   0.094   2.195   8.074  0.0987  0.3411  0.5511
  626TIP3    H123437   0.082   2.193   8.169  0.4212 -0.3236  0.5826
  626TIP3    H223438   0.125   2.284   8.055  2.1681 -0.1599  1.3311
  627TIP3   OH223439   3.899   2.504   2.011  0.4857 -0.3472  0.1015
  627TIP3    H123440   3.818   2.453   2.010  1.0085 -1.2047 -1.3246
  627TIP3    H223441   3.911   2.533   1.920  0.0631  2.6194  0.8792
  628TIP3   OH223442   4.855   6.050   1.646 -0.6806  0.1960 -0.0458
  628TIP3    H123443   4.915   6.059   1.721  0.7900 -0.1560 -1.1328
  628TIP3    H223444   4.776   6.011   1.683 -0.0691  0.2383  1.3658
  629TIP3   OH223445   1.645   4.464   2.298  0.1208 -0.1296 -0.8959
  629TIP3    H123446   1.588   4.509   2.237 -0.5593 -0.1931 -0.3220
  629TIP3    H223447   1.712   4.424   2.243  0.2157  0.8091 -1.4873
  630TIP3   OH223448   0.681   5.325   1.084  0.4223  0.8398 -0.4520
  630TIP3    H123449   0.738   5.253   1.110  1.2334  1.2800 -0.9659
  630TIP3    H223450   0.614   5.283   1.029 -0.4502  0.1469  1.0751
  631TIP3   OH223451   6.555   1.768   2.758  0.2937 -0.3536  0.4653
  631TIP3    H123452   6.647   1.768   2.733  0.7391  1.1157  1.9304
  631TIP3    H223453   6.540   1.856   2.792 -1.9834 -0.1475 -0.8580
  632TIP3   OH223454   4.739   3.169   8.618 -0.2375 -0.3639 -0.0046
  632TIP3    H123455   4.751   3.235   8.687 -1.6889  1.8952 -1.7583
  632TIP3    H223456   4.826   3.157   8.580 -0.0972  1.3093 -0.2752
  633TIP3   OH223457   1.925   0.377   0.404  0.2923 -0.5355 -0.2507
  633TIP3    H123458   1.938   0.418   0.318 -0.6423  0.4537  0.0555
  633TIP3    H223459   2.010   0.384   0.446  0.3111  0.5692 -0.4426
  634TIP3   OH223460   2.651   2.829   8.190 -0.6925  0.6796  0.0907
  634TIP3    H123461   2.633   2.901   8.129  1.4305  0.0470 -1.3852
  634TIP3    H223462   2.683   2.873   8.269  2.1489  1.4293 -1.3456
  635TIP3   OH223463   1.841   5.989   1.869  0.1287 -0.0779 -0.4484
  635TIP3    H123464   1.845   5.897   1.841  0.6790  0.6087 -2.8713
  635TIP3    H223465   1.783   6.030   1.805  1.4963  1.6386 -0.6581
  636TIP3   OH223466   4.290   3.187   8.277 -0.1833 -0.4844 -0.3436
  636TIP3    H123467   4.318   3.126   8.210  0.7445  0.4367 -0.8131
  636TIP3    H223468   4.367   3.240   8.296 -1.0871  0.8828 -0.3241
  637TIP3   OH223469   2.368   4.092   0.705 -0.3732 -0.5780 -0.1420
  637TIP3    H123470   2.386   4.175   0.750  0.3425  0.0657 -1.5684
  637TIP3    H223471   2.445   4.077   0.651 -0.4933 -2.1966  0.0873
  638TIP3   OH223472   0.039   6.333   1.003 -0.0647 -0.0322 -0.4551
  638TIP3    H123473   0.062   6.415   0.960  1.7722 -0.5010 -0.4412
  638TIP3    H223474   0.064   6.265   0.941  0.2279 -0.6346  0.3049
  639TIP3   OH223475   6.307   4.891   0.830 -0.0114 -0.2533 -0.1912
  639TIP3    H123476   6.317   4.951   0.903 -1.3762 -0.9087  0.5680
  639TIP3    H223477   6.237   4.929   0.776 -2.6166 -2.1923  1.5256
  640TIP3   OH223478   5.576   4.222   7.709  0.3910 -0.2116  0.1372
  640TIP3    H123479   5.580   4.127   7.719  0.9391  0.0102  2.5932
  640TIP3    H223480   5.597   4.237   7.616 -0.8119 -2.5055 -0.5973
  641TIP3   OH223481   2.664   5.181   8.138 -0.1677  0.1298 -0.6687
  641TIP3    H123482   2.666   5.250   8.072  0.4450  0.1892 -0.5896
  641TIP3    H223483   2.643   5.102   8.089 -3.4353  0.7015 -0.4642
  642TIP3   OH223484   4.992   5.839   1.898  0.1481  0.0766  0.0678
  642TIP3    H123485   5.015   5.826   1.806 -1.6624 -1.4063 -0.2293
  642TIP3    H223486   5.015   5.931   1.915  0.2180  0.4848 -1.9581
  643TIP3   OH223487   4.238   3.259   1.324  0.6658 -0.3812  0.2657
  643TIP3    H123488   4.279   3.256   1.237  0.8508 -0.9511  0.3663
  643TIP3    H223489   4.162   3.201   1.316  0.6744 -0.4212  0.4759
  644TIP3   OH223490   2.955   2.060   2.644 -0.4300  1.1884 -0.4923
  644TIP3    H123491   2.891   2.039   2.577 -1.8975  1.5947  0.7293
  644TIP3    H223492   2.909   2.118   2.704  0.4109 -0.1625  1.5745
  645TIP3   OH223493   1.221   0.097   7.439  0.7483 -0.4816 -0.2768
  645TIP3    H123494   1.248   0.057   7.356  1.0704 -2.2431  0.6215
  645TIP3    H223495   1.209   0.189   7.418  3.0812 -0.4305 -1.7456
  646TIP3   OH223496   5.543   2.924   2.124  0.1773  0.2837  0.1814
  646TIP3    H123497   5.606   2.894   2.059  1.9868 -0.7445  2.2599
  646TIP3    H223498   5.470   2.862   2.117  1.2328 -1.0485  0.4060
  647TIP3   OH223499   2.313   2.251   7.670 -0.3789 -0.0168  0.0447
  647TIP3    H123500   2.384   2.189   7.657 -1.2667 -1.3690  1.2970
  647TIP3    H223501   2.296   2.288   7.583 -0.0896 -1.8348 -0.8210
  648TIP3   OH223502   5.108   0.364   1.658  0.0874  0.4735  0.0024
  648TIP3    H123503   5.197   0.395   1.644  0.6977  0.3260  2.8468
  648TIP3    H223504   5.117   0.270   1.675 -0.5056  0.5562  0.8559
  649TIP3   OH223505   6.292   0.868   7.787  0.1784  0.1987 -0.1940
  649TIP3    H123506   6.384   0.847   7.771  1.3817  0.2317  4.8955
  649TIP3    H223507   6.252   0.785   7.814  0.0468  0.9382  2.0896
  650TIP3   OH223508   5.822   5.159   7.412 -0.2456 -0.5583  0.1765
  650TIP3    H123509   5.895   5.099   7.425 -0.2360 -1.0952 -1.9902
  650TIP3    H223510   5.842   5.205   7.331 -2.0750 -0.4094 -0.2542
  651TIP3   OH223511   3.103   0.966   7.532 -0.0810 -0.1255  0.0808
  651TIP3    H123512   3.123   1.053   7.567 -0.4743  0.1137 -0.2752
  651TIP3    H223513   3.148   0.906   7.591  1.7369  0.3808 -0.7150
  652TIP3   OH223514   1.667   3.690   1.765 -0.1224  0.2437 -0.2796
  652TIP3    H123515   1.592   3.742   1.736  0.1891 -0.2275 -2.0260
  652TIP3    H223516   1.629   3.606   1.792 -0.2730  0.1540 -0.7641
  653TIP3   OH223517   3.462   3.682   8.282  0.4587  0.1653 -0.5975
  653TIP3    H123518   3.516   3.735   8.224 -0.0465 -0.2504 -1.4700
  653TIP3    H223519   3.385   3.661   8.230 -0.1801  0.0799  0.3492
  654TIP3   OH223520   4.235   5.358   0.913 -0.5474 -0.4072  0.8102
  654TIP3    H123521   4.141   5.354   0.931 -0.5172 -2.2633  0.7473
  654TIP3    H223522   4.254   5.278   0.864  0.4256  1.6985 -2.6197
  655TIP3   OH223523   2.084   6.319   8.600  0.2052 -0.0027  0.2175
  655TIP3    H123524   1.993   6.339   8.623  0.5681  1.7478  0.2808
  655TIP3    H223525   2.099   6.233   8.637 -1.9477 -1.1457 -1.3268
  656TIP3   OH223526   4.386   6.108   7.836 -0.1988  0.8050  0.1257
  656TIP3    H123527   4.473   6.076   7.861 -0.4104  0.3609  0.2921
  656TIP3    H223528   4.394   6.128   7.743 -0.5984 -1.5481 -0.4595
  657TIP3   OH223529   5.054   2.319   0.578  0.4999 -0.5045 -0.4638
  657TIP3    H123530   5.078   2.410   0.597 -0.0988 -0.5370  0.5002
  657TIP3    H223531   5.006   2.325   0.495  1.6147 -0.1323 -1.1071
  658TIP3   OH223532   4.020   4.594   0.005  0.1238 -0.2650 -0.0674
  658TIP3    H123533   3.983   4.528   0.063  0.7464 -0.0900  0.5381
  658TIP3    H223534   3.997   4.564  -0.083 -1.2914 -0.2619  0.2690
  659TIP3   OH223535   1.425   4.853   1.025  0.3607  0.5647 -0.1596
  659TIP3    H123536   1.511   4.880   0.991 -0.7424  2.3883 -1.6489
  659TIP3    H223537   1.370   4.930   1.016 -1.3741 -0.4702  1.1010
  660TIP3   OH223538   1.000   6.621   1.004 -0.0124  0.1876 -0.0781
  660TIP3    H123539   1.077   6.577   1.039 -0.8375 -0.8712  0.4820
  660TIP3    H223540   0.972   6.566   0.930  0.4128  1.1855 -1.0041
  661TIP3   OH223541   3.508   5.960   8.087  0.4582  0.0943 -0.1696
  661TIP3    H123542   3.461   5.903   8.026  2.7182 -2.3057  0.1637
  661TIP3    H223543   3.535   6.034   8.033  1.1359 -1.2570 -1.7926
  662TIP3   OH223544   1.596   2.904   0.124  0.8831  0.0655 -0.2355
  662TIP3    H123545   1.542   2.951   0.187 -0.9379  0.9071 -2.2723
  662TIP3    H223546   1.667   2.965   0.103  0.9918  0.1312  0.3066
  663TIP3   OH223547   2.079   6.198   1.338 -0.3002 -0.3638 -0.5624
  663TIP3    H123548   2.106   6.124   1.392 -0.0393 -1.1961 -1.8018
  663TIP3    H223549   2.032   6.255   1.398  0.6599 -0.8695  0.7239
  664TIP3   OH223550   5.953   6.308   7.391  0.5123 -0.2337 -0.1477
  664TIP3    H123551   5.873   6.319   7.339  0.7071  0.6983 -0.2723
  664TIP3    H223552   6.000   6.390   7.378  1.4553 -0.7486 -0.0153
  665TIP3   OH223553   0.264   6.630   7.397 -0.3242 -0.0015  0.2905
  665TIP3    H123554   0.267   6.595   7.486 -2.6921  1.2537  0.9459
  665TIP3    H223555   0.288   6.722   7.405 -0.6542  0.1506 -0.3362
  666TIP3   OH223556   2.302   5.475   1.564 -0.5043 -0.2836  0.4716
  666TIP3    H123557   2.244   5.534   1.515 -0.6285 -0.1978  0.7189
  666TIP3    H223558   2.306   5.396   1.511  0.3442  0.2545 -0.2966
  667TIP3   OH223559   2.902   4.305   0.173  0.3933 -0.1368 -0.2363
  667TIP3    H123560   2.806   4.301   0.166  0.1279  0.6326  1.9099
  667TIP3    H223561   2.932   4.223   0.135 -0.9445  0.3938 -2.6546
  668TIP3   OH223562   3.303   4.162   1.295 -0.3898  0.1390 -0.0020
  668TIP3    H123563   3.359   4.203   1.360 -1.8452 -0.4214  1.6819
  668TIP3    H223564   3.305   4.069   1.316  0.5018 -0.3225 -1.9104
  669TIP3   OH223565   1.533   1.669   8.548 -0.3889 -0.1862  0.0687
  669TIP3    H123566   1.442   1.641   8.538  0.0911 -1.6667 -0.3590
  669TIP3    H223567   1.555   1.711   8.465 -0.5741 -0.1408  0.0435
  670TIP3   OH223568   1.197   2.255   2.464  0.6574 -0.1484  0.2906
  670TIP3    H123569   1.127   2.212   2.414  0.4023  0.6890 -0.1004
  670TIP3    H223570   1.215   2.335   2.415  0.0656  0.9422  1.7908
  671TIP3   OH223571   5.452   2.240   1.428 -0.2600 -0.3811  0.1511
  671TIP3    H123572   5.417   2.312   1.375 -1.2488  0.3667  1.7598
  671TIP3    H223573   5.419   2.161   1.385  1.7664 -0.0405 -2.3067
  672TIP3   OH223574   6.527   2.639   8.456 -0.0938 -0.4801 -0.6102
  672TIP3    H123575   6.521   2.572   8.524  0.5464 -2.3370 -2.2894
  672TIP3    H223576   6.620   2.659   8.451 -0.2255  0.1955 -0.4653
  673TIP3   OH223577   0.352   2.457   0.197 -0.2515  0.5351 -0.1717
  673TIP3    H123578   0.285   2.519   0.224 -0.8628 -0.1440 -0.0900
  673TIP3    H223579   0.428   2.479   0.251 -1.2802 -0.4577  1.7925
  674TIP3   OH223580   1.956   0.336   7.454  0.6389 -0.0382  0.1584
  674TIP3    H123581   1.874   0.340   7.503  0.9148 -2.8318  1.0419
  674TIP3    H223582   1.937   0.280   7.379  1.6955 -0.7417  0.3864
  675TIP3   OH223583   4.502   5.966   1.375 -0.2210  0.2796  0.3539
  675TIP3    H123584   4.475   5.896   1.435 -2.5968  1.4464  0.7480
  675TIP3    H223585   4.497   6.046   1.427  1.4263  0.8978 -0.3873
  676TIP3   OH223586   6.561   4.321   2.497 -0.2368 -0.1599  0.9585
  676TIP3    H123587   6.616   4.304   2.421  0.8365 -0.5125  1.7803
  676TIP3    H223588   6.472   4.310   2.465  0.2122 -1.0305 -0.0788
  677TIP3   OH223589   0.493   5.545   8.298 -0.1744 -0.2929  0.1843
  677TIP3    H123590   0.413   5.568   8.250  1.0260  1.7109 -0.9969
  677TIP3    H223591   0.524   5.465   8.255 -0.5324  0.0003 -0.6541
  678TIP3   OH223592   2.779   1.031   1.952 -0.3381 -0.1051 -0.7651
  678TIP3    H123593   2.735   1.033   1.867 -0.3909 -1.5306 -0.7926
  678TIP3    H223594   2.853   1.090   1.942  0.0084 -0.7315 -2.0106
  679TIP3   OH223595   2.735   6.608   2.369  0.7261 -0.4901  0.1739
  679TIP3    H123596   2.692   6.631   2.451  1.9077  0.0518  0.6662
  679TIP3    H223597   2.806   6.549   2.395  1.8953  0.6609 -0.2678
  680TIP3   OH223598   1.407   4.752   2.489  0.2195  0.5531 -0.4689
  680TIP3    H123599   1.416   4.766   2.395 -0.7525  1.2977 -0.4688
  680TIP3    H223600   1.354   4.826   2.520  0.3409  0.2074  0.6268
  681TIP3   OH223601   0.105   6.594   0.895 -0.0884  0.1716 -0.2093
  681TIP3    H123602   0.188   6.634   0.920  0.2269  0.6070 -1.8009
  681TIP3    H223603   0.053   6.666   0.860 -0.0039 -0.5298 -1.9211
  682TIP3   OH223604   6.373   4.727   2.049 -0.1500  0.3239 -0.1354
  682TIP3    H123605   6.411   4.812   2.072 -0.3893  0.5455 -0.5492
  682TIP3    H223606   6.333   4.741   1.963  1.9835 -0.8567 -1.4132
  683TIP3   OH223607   3.066   0.677   2.087 -0.3194 -0.5546 -0.1272
  683TIP3    H123608   3.096   0.663   1.997  0.5994  0.9723 -0.0860
  683TIP3    H223609   2.986   0.729   2.078 -0.4772 -0.7875 -0.0757
  684TIP3   OH223610   1.553   0.076   0.812 -0.1897 -0.0072  0.2204
  684TIP3    H123611   1.468   0.070   0.769  0.7835 -0.1616 -1.7664
  684TIP3    H223612   1.593   0.155   0.778  0.5145  0.0356  1.0912
  685TIP3   OH223613   6.264   3.131   0.328 -0.1440 -0.5580  0.5109
  685TIP3    H123614   6.219   3.158   0.247 -0.4509 -0.5497  0.6838
  685TIP3    H223615   6.344   3.184   0.329 -0.4950 -0.0169  0.5880
  686TIP3   OH223616   0.855   5.374   2.354  0.1183  0.1886 -0.5428
  686TIP3    H123617   0.769   5.390   2.393 -0.1887 -0.0750 -1.1030
  686TIP3    H223618   0.885   5.461   2.327 -0.1850  0.2175 -0.7869
  687TIP3   OH223619   6.484   1.423   0.042  0.0078 -0.6713 -0.2238
  687TIP3    H123620   6.434   1.480   0.101 -0.4574 -0.3849 -0.8805
  687TIP3    H223621   6.456   1.449  -0.046  0.6802 -1.0991 -0.5746
  688TIP3   OH223622   2.086   1.381   0.972 -0.0354  0.1331 -0.0880
  688TIP3    H123623   2.106   1.289   0.989 -0.2742 -0.0366 -0.7106
  688TIP3    H223624   2.050   1.413   1.055  0.9953 -0.0584  0.4416
  689TIP3   OH223625   6.136   0.502   8.662 -0.3647 -0.1469 -0.1830
  689TIP3    H123626   6.138   0.473   8.753  0.6417  0.5484  0.0287
  689TIP3    H223627   6.216   0.553   8.651 -0.7109  0.1792 -1.3292
  690TIP3   OH223628   3.786   2.325   8.184  0.0013  0.0384 -0.1326
  690TIP3    H123629   3.784   2.328   8.088  0.5547  1.2102 -0.1322
  690TIP3    H223630   3.862   2.379   8.207  0.9448 -1.6461  0.9287
  691TIP3   OH223631   1.690   4.919   1.025 -0.3559  0.4653 -0.3147
  691TIP3    H123632   1.740   4.982   0.973  0.0107  2.0574  1.7875
  691TIP3    H223633   1.747   4.842   1.031 -0.2535  0.3983 -1.8747
  692TIP3   OH223634   4.096   3.848   2.146  0.4728 -0.5697 -0.1230
  692TIP3    H123635   4.179   3.804   2.161 -0.4599 -2.6723 -0.6933
  692TIP3    H223636   4.105   3.933   2.189  2.7544 -0.8859  0.1323
  693TIP3   OH223637   0.833   4.465   2.683 -0.1777  0.6946 -0.0591
  693TIP3    H123638   0.786   4.484   2.763  0.2972  0.6101  0.2459
  693TIP3    H223639   0.803   4.531   2.620 -0.4272  0.8620  0.2362
  694TIP3   OH223640   2.592   2.000   8.567  0.2140  0.0010  0.6261
  694TIP3    H123641   2.518   1.952   8.604  0.3094  0.8121  1.9161
  694TIP3    H223642   2.642   1.933   8.519 -0.5238 -0.8588  1.0291
  695TIP3   OH223643   3.172   2.003   1.705 -0.4449 -0.0498 -0.9501
  695TIP3    H123644   3.083   1.978   1.731 -0.9152  0.6865 -1.7477
  695TIP3    H223645   3.203   2.060   1.775 -0.7566 -0.0129 -0.8423
  696TIP3   OH223646   5.878   3.335   1.614  0.2702 -0.3262 -0.7576
  696TIP3    H123647   5.834   3.270   1.669  1.7608 -1.6254 -1.0248
  696TIP3    H223648   5.951   3.366   1.667 -0.8858  1.8264 -0.3096
  697TIP3   OH223649   4.883   1.559   0.159 -0.0689 -0.7924 -0.8431
  697TIP3    H123650   4.843   1.525   0.080 -0.6238  0.3668 -1.0709
  697TIP3    H223651   4.973   1.524   0.157  0.5313  0.6926 -2.9417
  698TIP3   OH223652   2.673   0.938   1.682 -0.0366 -0.0328 -0.0256
  698TIP3    H123653   2.603   0.973   1.628  0.0631  0.8856  0.4294
  698TIP3    H223654   2.629   0.898   1.757 -0.0803  0.4231  0.1913
  699TIP3   OH223655   4.746   6.173   2.096  0.5113  0.3790 -0.1773
  699TIP3    H123656   4.751   6.084   2.060  2.1373  0.1953  0.4158
  699TIP3    H223657   4.710   6.161   2.184 -0.4053  0.4692 -0.5238
  700TIP3   OH223658   1.692   2.569   2.335 -0.1678  0.3816  0.2647
  700TIP3    H123659   1.643   2.520   2.400 -0.6415  1.7086  0.9444
  700TIP3    H223660   1.784   2.559   2.361 -0.1731 -0.9154 -0.1739
  701TIP3   OH223661   4.573   1.451   2.771  0.6167  0.0743 -0.5189
  701TIP3    H123662   4.516   1.521   2.804 -0.7584 -0.7746 -0.9802
  701TIP3    H223663   4.526   1.371   2.794  1.4643 -0.6422 -1.2530
  702TIP3   OH223664   5.358   1.999   1.296 -0.0182 -0.1663 -0.0845
  702TIP3    H123665   5.445   2.000   1.255  0.9497 -0.0933  1.8651
  702TIP3    H223666   5.360   1.921   1.352 -1.5503 -0.6458 -0.6656
  703TIP3   OH223667   5.428   6.637   8.696 -0.1868 -0.5427  0.5458
  703TIP3    H123668   5.365   6.683   8.750 -0.0196 -0.3921  0.6152
  703TIP3    H223669   5.450   6.699   8.626 -0.5208 -0.7936  0.2151
  704TIP3   OH223670   2.900   0.877   1.038 -0.0312  0.6299 -0.0932
  704TIP3    H123671   2.946   0.858   1.120  1.8510  0.2448 -1.1823
  704TIP3    H223672   2.878   0.970   1.044  1.2194  0.9139  0.3305
  705TIP3   OH223673   5.167   0.159   7.914 -0.4227  0.7044  0.0092
  705TIP3    H123674   5.074   0.162   7.893 -0.3040 -0.2813 -0.7717
  705TIP3    H223675   5.196   0.075   7.879  0.9770  1.4505 -0.7114
  706TIP3   OH223676   5.914   0.726   1.979 -0.0951  0.2022 -0.2600
  706TIP3    H123677   5.992   0.774   2.007  0.4416 -0.2514 -0.9576
  706TIP3    H223678   5.923   0.718   1.884  0.7142 -2.7204 -0.0588
  707TIP3   OH223679   2.723   4.558   2.544 -0.9413  0.5521 -0.1020
  707TIP3    H123680   2.812   4.533   2.569 -1.0198  0.4149  0.0399
  707TIP3    H223681   2.696   4.621   2.611 -0.5562  1.4192 -0.7353
  708TIP3   OH223682   3.468   3.369   2.848 -0.2068  0.3057 -0.4403
  708TIP3    H123683   3.473   3.446   2.904  0.0595 -0.6697  0.9207
  708TIP3    H223684   3.461   3.405   2.759 -0.2686  1.8834  0.1640
  709TIP3   OH223685   5.107   0.270   0.362  0.6526 -0.3625 -0.4518
  709TIP3    H123686   5.075   0.356   0.388 -0.1909 -0.8958  0.3102
  709TIP3    H223687   5.163   0.288   0.285 -0.1562  0.7645 -0.8076
  710TIP3   OH223688   3.517   5.539   8.294 -0.4569 -0.0957 -0.4892
  710TIP3    H123689   3.551   5.604   8.356  0.9835  0.2776 -1.6010
  710TIP3    H223690   3.423   5.537   8.311 -0.5131  2.0831 -0.2107
  711TIP3   OH223691   3.464   1.071   0.160 -0.0270  0.1001 -0.3158
  711TIP3    H123692   3.557   1.091   0.166  0.1537 -0.4918 -1.0375
  711TIP3    H223693   3.438   1.102   0.072 -0.8159  1.4382  0.3426
  712TIP3   OH223694   6.242   5.382   8.691 -0.0850  0.1031  0.8206
  712TIP3    H123695   6.276   5.381   8.780  1.2655 -0.1368  0.3273
  712TIP3    H223696   6.245   5.290   8.664  0.9225  0.3441  0.0386
  713TIP3   OH223697   5.509   4.349   0.148  1.2057  0.3141  0.3257
  713TIP3    H123698   5.554   4.367   0.231 -1.3013  0.0370  1.8363
  713TIP3    H223699   5.440   4.415   0.143 -1.3586 -2.1433  0.6664
  714TIP3   OH223700   3.961   5.644   0.566 -0.1160  0.2536  0.0202
  714TIP3    H123701   3.900   5.665   0.637 -0.6371 -1.2918  0.0719
  714TIP3    H223702   3.905   5.617   0.494  0.4710  0.2885 -0.4562
  715TIP3   OH223703   3.169   3.221   7.878  0.1816 -0.3919  0.5841
  715TIP3    H123704   3.246   3.251   7.831  0.1590 -1.8815 -0.4651
  715TIP3    H223705   3.095   3.256   7.828  0.1537  0.3092  1.0976
  716TIP3   OH223706   3.903   2.188   8.564 -0.2397 -0.4272  0.1971
  716TIP3    H123707   3.849   2.228   8.633 -1.4453  0.4951 -1.2318
  716TIP3    H223708   3.849   2.118   8.530 -0.2480  0.0374 -0.7655
  717TIP3   OH223709   6.145   5.737   0.756  0.6055  0.5820 -0.1383
  717TIP3    H123710   6.232   5.700   0.770  0.2470 -0.8867 -1.5516
  717TIP3    H223711   6.101   5.729   0.840  0.4906 -2.4807 -0.3815
  718TIP3   OH223712   2.827   0.365   2.175  0.2182 -0.1311  0.1104
  718TIP3    H123713   2.848   0.366   2.082  1.1544 -0.2271  0.3107
  718TIP3    H223714   2.910   0.383   2.219 -0.6387  2.2915  0.8731
  719TIP3   OH223715   6.496   4.461   8.232 -0.2386 -0.0881 -0.0686
  719TIP3    H123716   6.549   4.405   8.289  0.9425  1.6830  0.6410
  719TIP3    H223717   6.488   4.543   8.280 -1.8861  0.3957 -1.1097
  720TIP3   OH223718   4.939   0.373   2.409 -0.2601 -0.0897  0.4036
  720TIP3    H123719   5.026   0.360   2.447  0.3156 -0.0811 -0.8547
  720TIP3    H223720   4.879   0.332   2.472  0.8086 -1.6297  0.4811
  721TIP3   OH223721   0.896   3.133   2.677 -0.6456  0.0807 -0.5132
  721TIP3    H123722   0.854   3.132   2.763 -0.2279  1.8145 -0.2513
  721TIP3    H223723   0.912   3.040   2.657  1.7018 -0.3196  2.4832
  722TIP3   OH223724   1.627   4.205   0.615 -0.0509 -0.3079  0.1223
  722TIP3    H123725   1.685   4.176   0.545 -0.9063 -1.8598  0.0092
  722TIP3    H223726   1.661   4.163   0.694 -0.5375 -0.5727  0.1948
  723TIP3   OH223727   2.977   5.539   8.275 -0.2634 -0.2515 -0.4339
  723TIP3    H123728   3.030   5.576   8.204 -1.0770  1.3480 -0.2636
  723TIP3    H223729   3.021   5.570   8.355 -0.8173  0.1745 -0.2861
  724TIP3   OH223730   6.797   5.372   8.099 -0.1016  0.2836  0.6416
  724TIP3    H123731   6.769   5.289   8.063  0.7040  0.8166 -1.3309
  724TIP3    H223732   6.832   5.351   8.186  0.3903 -1.4835  0.0465
  725TIP3   OH223733   5.088   1.383   0.161  0.8044 -0.7416 -0.0682
  725TIP3    H123734   5.134   1.385   0.245  1.3805  0.2519 -0.3919
  725TIP3    H223735   5.150   1.422   0.099  0.2434 -1.1113 -0.8839
  726TIP3   OH223736   4.816   1.897   8.458 -0.4217  0.3590  0.1506
  726TIP3    H123737   4.902   1.938   8.463 -0.6215  0.6683  1.2588
  726TIP3    H223738   4.754   1.970   8.460 -0.7149  0.1930 -1.4691
  727TIP3   OH223739   1.814   1.161   8.314  0.2503 -0.4593  0.2748
  727TIP3    H123740   1.865   1.143   8.393  0.7721 -1.5000 -0.2816
  727TIP3    H223741   1.830   1.085   8.258 -1.3816 -0.4885 -0.1889
  728TIP3   OH223742   4.863   2.287   7.863  0.1045  0.1274  0.4579
  728TIP3    H123743   4.793   2.345   7.833  0.9011  0.9580  0.1678
  728TIP3    H223744   4.827   2.199   7.851 -0.8890  0.5321  0.3188
  729TIP3   OH223745   2.184   1.698   7.802 -0.2497  0.1355 -0.0972
  729TIP3    H123746   2.197   1.773   7.744  0.4771  1.0061  1.1260
  729TIP3    H223747   2.245   1.714   7.875 -2.3311  0.0143  1.7761
  730TIP3   OH223748   5.799   3.774   0.054 -0.1353 -0.0481  0.5478
  730TIP3    H123749   5.781   3.708  -0.012 -0.9372  0.8872 -0.2057
  730TIP3    H223750   5.796   3.727   0.137 -1.6295 -0.7968  0.1013
  731TIP3   OH223751   4.357   6.587   0.849 -0.2954 -0.6041  0.1652
  731TIP3    H123752   4.366   6.586   0.753 -0.6440  1.1371  0.0732
  731TIP3    H223753   4.265   6.568   0.865 -0.2571 -0.8056  0.1416
  732TIP3   OH223754   2.145   4.948   7.401  0.4499 -0.9425  0.0232
  732TIP3    H123755   2.156   4.936   7.496  0.2045  1.4980  0.4179
  732TIP3    H223756   2.082   5.019   7.393  0.4279 -1.1358 -2.0051
  733TIP3   OH223757   4.137   4.153   8.714  0.6070  0.3346  0.6371
  733TIP3    H123758   4.202   4.165   8.783  0.7952 -1.2315  0.7780
  733TIP3    H223759   4.067   4.102   8.756 -0.5577  1.6703  0.3835
  734TIP3   OH223760   0.949   1.446   0.400  0.3905  0.0677  0.5965
  734TIP3    H123761   0.880   1.381   0.388  0.3721  0.4842 -2.0807
  734TIP3    H223762   0.914   1.505   0.467 -1.4310 -0.3050  0.0404
  735TIP3   OH223763   0.124   6.118   8.382  0.1047  0.2303  0.1168
  735TIP3    H123764   0.154   6.207   8.365  1.1017  0.2747  1.8568
  735TIP3    H223765   0.201   6.063   8.365 -0.2857 -0.2256 -0.2129
  736TIP3   OH223766   1.346   0.407   0.249  0.1025  0.0060 -0.0276
  736TIP3    H123767   1.271   0.386   0.306  0.4000 -0.5794  0.1576
  736TIP3    H223768   1.418   0.355   0.285  0.1511 -0.8763 -1.3193
  737TIP3   OH223769   2.228   1.026   7.228 -0.2540 -0.7955  0.3264
  737TIP3    H123770   2.140   1.063   7.229  0.1324  0.1756  1.1976
  737TIP3    H223771   2.219   0.940   7.188 -1.4860 -0.4392 -0.1806
  738TIP3   OH223772   1.604   5.475   8.473  0.6180  0.1558 -0.6314
  738TIP3    H123773   1.612   5.399   8.416 -0.2913 -0.7508  0.4000
  738TIP3    H223774   1.550   5.537   8.423 -0.6829 -0.8644 -0.5626
  739TIP3   OH223775   1.971   4.547   8.322 -0.3256  0.0778 -0.1269
  739TIP3    H123776   1.979   4.641   8.306 -0.8091  0.3634  1.1730
  739TIP3    H223777   1.877   4.531   8.324 -0.2472 -0.3876 -0.0765
  740TIP3   OH223778   2.153   5.953   1.664  0.0311 -0.2864 -0.8813
  740TIP3    H123779   2.155   5.860   1.690  1.5335 -0.0215  0.0965
  740TIP3    H223780   2.211   5.996   1.726 -0.6275  1.3329 -1.3377
  741TIP3   OH223781   3.440   4.789   2.057  0.1451 -0.2625  0.0348
  741TIP3    H123782   3.368   4.838   2.016 -0.3289 -2.1552 -1.5106
  741TIP3    H223783   3.449   4.710   2.005  2.0523 -1.0415  1.4078
  742TIP3   OH223784   4.550   4.986   1.634  0.1247  0.0277  0.0523
  742TIP3    H123785   4.550   5.056   1.569  0.5329  0.2852  0.3266
  742TIP3    H223786   4.521   4.909   1.586  1.7904 -0.1093 -0.8001
  743TIP3   OH223787   2.386   3.144   8.358 -0.2062 -0.2702  0.1676
  743TIP3    H123788   2.301   3.131   8.400 -0.8741 -0.2215 -1.1197
  743TIP3    H223789   2.367   3.145   8.264  1.4834 -2.4678 -0.3058
  744TIP3   OH223790   0.633   0.910   2.361 -0.3179 -0.7105  0.5703
  744TIP3    H123791   0.641   0.964   2.440 -0.6324 -1.4195  1.1023
  744TIP3    H223792   0.694   0.837   2.376 -0.0140 -0.5951 -0.0672
  745TIP3   OH223793   4.087   0.787   1.713 -0.2869  0.6520  0.5831
  745TIP3    H123794   4.134   0.750   1.788  0.4007  1.4384  0.5605
  745TIP3    H223795   4.064   0.712   1.659 -2.6530 -0.2056  2.5749
  746TIP3   OH223796   0.258   3.875   8.343  0.1908  0.7805  0.0082
  746TIP3    H123797   0.274   3.879   8.248 -0.7918  0.5587 -0.1814
  746TIP3    H223798   0.344   3.886   8.382  0.7749 -0.1555 -0.9397
  747TIP3   OH223799   6.355   3.600   0.132  0.1540  0.5117 -0.4596
  747TIP3    H123800   6.408   3.549   0.070 -1.6213 -1.0099 -0.8118
  747TIP3    H223801   6.266   3.596   0.097 -0.7376  0.4401  1.6580
  748TIP3   OH223802   3.632   4.522   3.388  0.3030  0.6054  0.0402
  748TIP3    H123803   3.632   4.466   3.310 -0.7226  0.8469 -0.1524
  748TIP3    H223804   3.597   4.466   3.458  0.9488  0.4782  0.2711
  749TIP3   OH223805   4.854   5.414   2.387 -0.0164 -0.3088  0.1189
  749TIP3    H123806   4.880   5.324   2.366  0.1212 -0.4922  1.0441
  749TIP3    H223807   4.783   5.434   2.326 -0.1156 -1.0841 -0.0241
  750TIP3   OH223808   2.557   0.953   8.213  0.4532  0.4131  0.5090
  750TIP3    H123809   2.589   0.918   8.130 -0.8612 -0.6642  0.4123
  750TIP3    H223810   2.520   1.038   8.190  0.9217  0.5288  0.1677
  751TIP3   OH223811   2.257   4.284   7.611 -0.2437 -0.4477 -0.9443
  751TIP3    H123812   2.245   4.308   7.519 -0.0099  2.6003 -0.2843
  751TIP3    H223813   2.351   4.269   7.619 -0.1824 -0.1479 -1.0835
  752TIP3   OH223814   5.906   1.967   1.199  0.7243  0.1347  0.5772
  752TIP3    H123815   5.948   1.886   1.170 -0.6734 -0.3392 -0.1755
  752TIP3    H223816   5.909   1.962   1.295  0.1095 -1.0980  0.5496
  753TIP3   OH223817   1.260   5.616   1.813 -0.4986 -0.0711  0.2961
  753TIP3    H123818   1.235   5.526   1.836  2.3911 -0.5361  2.3005
  753TIP3    H223819   1.252   5.619   1.718 -1.1305 -2.3318  0.2059
  754TIP3   OH223820   0.721   6.426   0.570 -0.2831  0.0226  0.3642
  754TIP3    H123821   0.643   6.475   0.545 -1.6443 -2.7191 -1.2253
  754TIP3    H223822   0.782   6.439   0.498 -0.3046  0.0895  0.3582
  755TIP3   OH223823   5.450   4.203   2.080 -0.0134 -0.3509 -0.2861
  755TIP3    H123824   5.450   4.113   2.113  2.3474 -0.2023  0.2868
  755TIP3    H223825   5.400   4.198   1.999  0.9518 -2.4425 -0.8283
  756TIP3   OH223826   2.730   5.356   8.561  0.0041  0.2226  0.1368
  756TIP3    H123827   2.759   5.344   8.470  0.7254  2.3536  0.0146
  756TIP3    H223828   2.768   5.440   8.586  1.8698 -1.3845  3.2433
  757TIP3   OH223829   3.820   5.345   7.881 -0.0790 -0.3828 -0.3192
  757TIP3    H123830   3.876   5.337   7.803 -1.7527  0.2065 -1.6577
  757TIP3    H223831   3.748   5.284   7.863 -1.1803  0.7659  0.1286
  758TIP3   OH223832   5.871   3.941   8.583 -0.1160 -0.0658 -0.1475
  758TIP3    H123833   5.857   3.896   8.499  0.4885 -0.4081 -0.0713
  758TIP3    H223834   5.800   3.910   8.639 -1.0592  0.8440 -0.7875
  759TIP3   OH223835   5.986   5.656   8.462 -0.4675 -0.1928 -0.0424
  759TIP3    H123836   5.910   5.603   8.436 -0.4346 -0.2598 -0.0017
  759TIP3    H223837   6.061   5.597   8.453 -0.4795 -0.2792  0.4070
  760TIP3   OH223838   4.959   0.872   1.161 -0.1541 -0.4111  0.0683
  760TIP3    H123839   4.973   0.871   1.066  2.5231 -0.6499  0.4106
  760TIP3    H223840   5.036   0.830   1.198 -0.6927  0.5188  2.4319
  761TIP3   OH223841   3.263   4.482   0.542 -0.3207 -0.3606  0.1668
  761TIP3    H123842   3.303   4.405   0.582 -1.3646 -0.7085  0.5827
  761TIP3    H223843   3.307   4.491   0.457 -0.9437 -2.1078 -0.3965
  762TIP3   OH223844   0.041   1.926   8.199  0.3441 -0.6727  0.6233
  762TIP3    H123845   0.128   1.892   8.175  0.6301 -0.2150  0.9875
  762TIP3    H223846  -0.009   1.924   8.117  0.7002 -0.9349  0.4096
  763TIP3   OH223847   0.805   2.813   8.529 -0.0180 -0.4082  0.1117
  763TIP3    H123848   0.864   2.875   8.486  0.2120 -1.0553 -0.5451
  763TIP3    H223849   0.858   2.773   8.598 -0.4517  0.7882  1.1650
  764TIP3   OH223850   1.309   4.509   0.724 -0.4676  0.4057 -0.1934
  764TIP3    H123851   1.294   4.585   0.780 -1.0754 -0.2573  0.5697
  764TIP3    H223852   1.403   4.493   0.728  0.0148  2.3726 -2.0451
  765TIP3   OH223853   4.685   5.715   0.444 -0.4267 -0.0070 -0.0224
  765TIP3    H123854   4.657   5.632   0.406 -1.1408 -0.0562  0.5911
  765TIP3    H223855   4.632   5.781   0.399 -1.9354 -0.1422  1.4910
  766TIP3   OH223856   4.789   6.658   8.176  0.0545 -0.2484  0.4385
  766TIP3    H123857   4.705   6.703   8.170  0.4164  0.4227  0.3103
  766TIP3    H223858   4.770   6.578   8.225 -0.3289  0.7097  1.9231
  767TIP3   OH223859   6.660   5.011   1.749  0.0399 -0.4611  0.1750
  767TIP3    H123860   6.738   4.989   1.801 -0.0181  1.1164  0.9562
  767TIP3    H223861   6.642   4.930   1.701  2.4203 -0.7602 -0.3769
  768TIP3   OH223862   4.654   1.664   7.674  0.0376  0.1170  0.3340
  768TIP3    H123863   4.641   1.730   7.606  0.1332 -0.4113 -0.2076
  768TIP3    H223864   4.668   1.714   7.754 -0.3142  0.7461  0.0089
  769TIP3   OH223865   2.935   0.322   1.906 -0.3962  0.0722  0.0158
  769TIP3    H123866   3.023   0.357   1.896 -0.0009 -1.1874 -1.1225
  769TIP3    H223867   2.887   0.351   1.829  0.0039 -1.9761 -1.0755
  770TIP3   OH223868   5.044   2.582   0.924 -0.2687  0.8325 -0.4558
  770TIP3    H123869   4.971   2.522   0.939  1.2159 -0.7807  0.6512
  770TIP3    H223870   5.021   2.660   0.973 -1.3295  0.4276 -0.2707
  771TIP3   OH223871   0.032   5.169   7.644 -0.9691  0.2008  0.4663
  771TIP3    H123872   0.048   5.095   7.586 -0.1933  0.4409  0.3472
  771TIP3    H223873  -0.036   5.220   7.601 -1.1605 -0.1902  0.3083
  772TIP3   OH223874   2.355   3.611   8.436  0.1359 -0.1873  0.2002
  772TIP3    H123875   2.328   3.599   8.527 -1.3723  0.3139 -0.1404
  772TIP3    H223876   2.413   3.538   8.418 -0.9999 -1.3533  1.0363
  773TIP3   OH223877   3.756   0.580   0.573 -0.3439  0.1865 -0.2542
  773TIP3    H123878   3.754   0.634   0.494  0.9353  0.1499 -0.3281
  773TIP3    H223879   3.800   0.500   0.546  0.4948  0.3495  0.5961
  774TIP3   OH223880   1.153   4.692   1.817 -0.4590  0.1638  0.0305
  774TIP3    H123881   1.103   4.617   1.785 -0.2389 -0.7756  1.7616
  774TIP3    H223882   1.098   4.768   1.795 -1.4948 -0.6428 -0.2664
  775TIP3   OH223883   2.417   1.401   0.257 -0.0227  0.1301  0.5243
  775TIP3    H123884   2.468   1.323   0.280  1.0787  0.3893 -0.9416
  775TIP3    H223885   2.327   1.377   0.280  0.0350 -2.2108 -1.2591
  776TIP3   OH223886   1.382   1.609   1.589 -0.3016 -0.2965  0.4293
  776TIP3    H123887   1.311   1.628   1.529  0.2835 -0.8471 -0.4698
  776TIP3    H223888   1.438   1.547   1.541 -0.3064 -1.4983  1.8871
  777TIP3   OH223889   3.453   6.479   0.380  0.4710  0.1334  0.0128
  777TIP3    H123890   3.395   6.407   0.356  0.5613 -0.1771  0.7155
  777TIP3    H223891   3.396   6.556   0.378  0.5078  0.1491 -1.3279
  778TIP3   OH223892   3.660   3.542   0.538 -0.1909 -0.0299  0.0560
  778TIP3    H123893   3.612   3.528   0.457  0.7745 -0.2607 -0.5020
  778TIP3    H223894   3.593   3.543   0.606 -0.9669 -0.3906 -0.6808
  779TIP3   OH223895   2.347   2.746   0.320  0.8969  0.3643 -0.0019
  779TIP3    H123896   2.253   2.725   0.319  1.2460 -1.4885 -1.2659
  779TIP3    H223897   2.389   2.662   0.299  2.8495  1.1425  0.6309
  780TIP3   OH223898   2.574   0.029   3.349  0.3201 -0.1605  0.0413
  780TIP3    H123899   2.587   0.031   3.444  0.9909 -1.3850 -0.0038
  780TIP3    H223900   2.604   0.115   3.319  0.1457  0.2244  0.9258
  781TIP3   OH223901   0.528   1.660   7.476  0.0542 -0.3092 -0.2506
  781TIP3    H123902   0.552   1.727   7.412  0.7147 -0.4613 -0.1682
  781TIP3    H223903   0.438   1.635   7.453  0.3016 -0.3927 -1.1396
  782TIP3   OH223904   5.029   3.549   2.235  0.0546  0.0813 -0.2616
  782TIP3    H123905   5.045   3.479   2.298  1.0808  0.3168 -0.2400
  782TIP3    H223906   4.951   3.521   2.187 -0.3680 -0.3950  0.6868
  783TIP3   OH223907   4.747   4.502   8.227  0.0903  0.2250  0.2604
  783TIP3    H123908   4.700   4.468   8.303 -1.1590  1.2230 -0.0468
  783TIP3    H223909   4.826   4.447   8.221 -0.4703 -0.7427  1.4499
  784TIP3   OH223910   4.653   5.762   7.872  0.3520 -0.0406 -0.3115
  784TIP3    H123911   4.596   5.755   7.949 -0.0721  1.4848 -0.4500
  784TIP3    H223912   4.656   5.674   7.836 -0.7824 -0.4372  0.5114
  785TIP3   OH223913   5.277   4.101   7.993  0.0732 -0.1058  0.0717
  785TIP3    H123914   5.259   4.191   8.021 -0.0740 -0.5262  1.4069
  785TIP3    H223915   5.238   4.094   7.906  0.1253  1.1298 -0.0633
  786TIP3   OH223916   4.850   0.192   0.452  0.0712  0.3810  0.3462
  786TIP3    H123917   4.855   0.133   0.527  0.1737  0.7908  0.6711
  786TIP3    H223918   4.941   0.216   0.435 -0.0516  1.2722  0.8959
  787TIP3   OH223919   1.997   3.269   0.507 -0.2255 -0.2028  0.0666
  787TIP3    H123920   1.953   3.260   0.592  0.6886 -1.8180  0.4113
  787TIP3    H223921   1.947   3.213   0.448  0.1340 -0.4020 -0.0489
  788TIP3   OH223922   2.097   5.005   8.201 -0.4143 -0.3295 -0.4081
  788TIP3    H123923   2.050   5.041   8.125 -1.1096 -1.5762 -0.6017
  788TIP3    H223924   2.189   5.005   8.175 -0.6191 -0.4839 -1.1486
  789TIP3   OH223925   5.155   5.458   8.817 -0.4025  0.1974  0.4072
  789TIP3    H123926   5.229   5.512   8.788  0.6790 -2.4397 -2.1786
  789TIP3    H223927   5.089   5.522   8.844  0.9433  2.8451 -1.9441
  790TIP3   OH223928   3.236   4.931   1.911  0.0752  0.1959  0.0371
  790TIP3    H123929   3.190   4.980   1.843 -0.3837  2.3583  1.8039
  790TIP3    H223930   3.168   4.884   1.958  0.4214 -1.5290 -1.0527
  791TIP3   OH223931   4.630   4.879   1.366  0.0819 -0.2118 -0.2151
  791TIP3    H123932   4.637   4.974   1.378 -1.1293 -0.3497  2.1824
  791TIP3    H223933   4.591   4.869   1.279  2.3705  1.3368 -1.5334
  792TIP3   OH223934   0.461   0.770   8.012 -0.0662 -0.1770  1.2062
  792TIP3    H123935   0.423   0.844   7.964 -0.2670 -1.0604 -0.0396
  792TIP3    H223936   0.436   0.786   8.103  0.1124  1.4156  1.0157
  793TIP3   OH223937   6.046   0.901   1.569 -1.0577  0.0104 -0.9773
  793TIP3    H123938   6.087   0.899   1.483 -0.7137  1.5798 -0.8919
  793TIP3    H223939   6.059   0.813   1.605  0.8603  0.0101 -1.5928
  794TIP3   OH223940   0.510   0.646   2.035 -0.5179 -0.6204  0.0952
  794TIP3    H123941   0.563   0.607   1.966 -0.5014  0.6014 -0.6054
  794TIP3    H223942   0.535   0.599   2.115  0.9403 -0.6764 -0.3780
  795TIP3   OH223943   4.013   2.607   0.003 -0.0364 -0.5252 -0.3461
  795TIP3    H123944   4.042   2.559  -0.075 -2.7860  0.7691 -2.3223
  795TIP3    H223945   4.024   2.699  -0.020 -1.9792 -0.0937  0.3318
  796TIP3   OH223946   4.645   5.103   0.788 -0.5593 -0.2909  0.0382
  796TIP3    H123947   4.577   5.089   0.722 -0.8131 -1.1642  0.4619
  796TIP3    H223948   4.631   5.033   0.852  0.4081 -0.1635  0.4117
  797TIP3   OH223949   6.012   4.932   0.432  0.1597 -0.3389  0.0639
  797TIP3    H123950   6.058   5.015   0.419 -0.1334 -0.1716  0.0620
  797TIP3    H223951   5.919   4.955   0.420  0.0393 -0.5639  0.5571
  798TIP3   OH223952   3.020   1.359   8.700 -0.4308 -0.0771 -0.2277
  798TIP3    H123953   2.991   1.431   8.756  2.4712  0.3877  0.8420
  798TIP3    H223954   2.979   1.281   8.738  0.4149  0.4006  1.8413
  799TIP3   OH223955   4.390   2.833   1.023  0.5687  0.1026  0.2758
  799TIP3    H123956   4.385   2.737   1.026  0.5065  0.0845 -0.2565
  799TIP3    H223957   4.484   2.851   1.030  0.6679 -0.0459 -0.4838
  800TIP3   OH223958   3.949   3.194   7.701 -0.5326  0.1896 -0.0412
  800TIP3    H123959   4.004   3.140   7.644  1.0438  1.6181  0.0878
  800TIP3    H223960   3.911   3.132   7.763  0.4645 -0.9032 -0.4960
  801TIP3   OH223961   0.621   0.052   0.855 -0.3705  0.5834 -0.2003
  801TIP3    H123962   0.631   0.023   0.946  1.2823 -0.0450 -0.5590
  801TIP3    H223963   0.626  -0.028   0.803 -0.1730  1.0524 -0.9233
  802TIP3   OH223964   1.345   6.012   2.538  0.4361  0.0884 -0.1294
  802TIP3    H123965   1.377   6.035   2.625  0.4880  1.0463 -0.3902
  802TIP3    H223966   1.251   5.998   2.550  0.3235  0.8751 -0.0332
  803TIP3   OH223967   1.180   4.167   8.817 -0.0202 -0.0808 -0.0082
  803TIP3    H123968   1.094   4.183   8.857 -0.9275 -1.2796 -1.4010
  803TIP3    H223969   1.194   4.243   8.761  0.8194  1.1319  1.7326
  804TIP3   OH223970   5.277   4.297   1.618 -0.7345  0.3669 -0.1180
  804TIP3    H123971   5.254   4.247   1.540  2.4834  0.3973 -1.2367
  804TIP3    H223972   5.283   4.231   1.687 -2.5219  0.1846 -0.0813
  805TIP3   OH223973   0.860   6.191   0.969  0.7453 -0.4825  0.2582
  805TIP3    H123974   0.777   6.146   0.949  0.0618  0.4666  0.8975
  805TIP3    H223975   0.850   6.220   1.060  0.6879  1.9511 -0.4648
  806TIP3   OH223976   0.317   6.598   7.922  0.2650  0.1578 -0.0445
  806TIP3    H123977   0.345   6.616   8.011  1.4912  0.3260 -0.4394
  806TIP3    H223978   0.226   6.570   7.930 -0.3075  2.2093  1.0238
  807TIP3   OH223979   5.956   1.487   2.133 -0.2575  0.4784  0.1940
  807TIP3    H123980   5.965   1.569   2.085  2.5201 -0.7523 -1.6466
  807TIP3    H223981   6.044   1.469   2.167 -1.1887 -0.8894  2.0487
  808TIP3   OH223982   4.313   4.290   2.720  0.2370 -0.0111 -0.2027
  808TIP3    H123983   4.366   4.222   2.680 -0.5441 -0.4520 -0.5025
  808TIP3    H223984   4.371   4.332   2.783  1.3129  0.3267 -1.3964
  809TIP3   OH223985   1.171   5.383   2.322  0.5528 -0.0157 -1.0302
  809TIP3    H123986   1.215   5.416   2.400 -0.1114  0.5396 -0.8752
  809TIP3    H223987   1.128   5.460   2.284  2.7508  0.2525 -3.2746
  810TIP3   OH223988   0.644   6.787   0.552  0.0544  0.1097  0.4770
  810TIP3    H123989   0.648   6.800   0.457 -1.3744  0.4118  0.4344
  810TIP3    H223990   0.678   6.868   0.589 -2.0905  1.2038  0.1942
  811TIP3   OH223991   5.389   6.226   8.098  0.3179  0.0738  1.0322
  811TIP3    H123992   5.308   6.261   8.062  0.7548 -0.6956 -0.8697
  811TIP3    H223993   5.364   6.187   8.182 -1.7430 -1.9257 -0.3895
  812TIP3   OH223994   4.057   1.126   2.927 -0.1888  0.4143 -0.1181
  812TIP3    H123995   4.059   1.211   2.882  0.1435  0.0032 -0.9108
  812TIP3    H223996   4.095   1.143   3.013  1.1603  0.7985 -0.7679
  813TIP3   OH223997   3.507   2.176   1.655  0.6234 -0.1787 -0.3611
  813TIP3    H123998   3.429   2.134   1.691  0.4710  0.4869  0.0968
  813TIP3    H223999   3.580   2.127   1.693  0.4411 -0.7041 -0.6696
  814TIP3   OH224000   1.810   1.080   0.881 -0.2737  0.0706  0.3423
  814TIP3    H124001   1.834   0.988   0.891  0.8008  0.2748 -0.2027
  814TIP3    H224002   1.859   1.125   0.949  0.7112  0.4591 -0.5908
  815TIP3   OH224003   5.224   0.347   8.705 -0.0009 -0.3743  0.3713
  815TIP3    H124004   5.155   0.326   8.642 -0.5931  0.7095  0.6339
  815TIP3    H224005   5.300   0.297   8.675 -0.5950 -0.7628 -0.5354
  816TIP3   OH224006   0.437   3.578   8.123 -0.1182 -0.0775 -0.0782
  816TIP3    H124007   0.426   3.667   8.089  0.0646  0.3416  0.9305
  816TIP3    H224008   0.379   3.524   8.069 -0.2475  0.6549 -0.6841
  817TIP3   OH224009   1.247   1.861   8.684  0.2133  0.1956 -0.1797
  817TIP3    H124010   1.159   1.851   8.721  0.4942 -1.7245  0.0652
  817TIP3    H224011   1.236   1.928   8.616 -0.5639  2.9582  2.4379
  818TIP3   OH224012   5.117   6.311   2.210 -0.3505 -0.1227  0.3520
  818TIP3    H124013   5.122   6.352   2.297  0.2151 -2.4437  1.4815
  818TIP3    H224014   5.208   6.308   2.181 -0.6429  1.8169 -0.9883
  819TIP3   OH224015   5.892   0.289   1.259  0.1060  0.1429 -0.0358
  819TIP3    H124016   5.880   0.195   1.251  1.8744 -0.0514 -1.1445
  819TIP3    H224017   5.956   0.311   1.191  1.7331  1.6991  1.8275
  820TIP3   OH224018   5.256   4.938   2.141 -0.0996 -0.5383  0.2930
  820TIP3    H124019   5.265   4.869   2.206 -1.6316 -0.7657  0.2885
  820TIP3    H224020   5.261   5.019   2.191 -1.3913 -0.7140  0.7234
  821TIP3   OH224021   2.037   4.694   1.394 -0.2344 -0.1883  0.0441
  821TIP3    H124022   2.057   4.601   1.387 -2.8974 -0.8100 -0.4144
  821TIP3    H224023   1.971   4.699   1.463  0.9663  1.5950  1.1349
  822TIP3   OH224024   4.937   3.688   8.266 -0.3063 -0.9680 -0.0680
  822TIP3    H124025   4.875   3.615   8.275 -1.2110 -0.2497 -0.3788
  822TIP3    H224026   4.890   3.753   8.214  0.6037 -0.2820 -0.0482
  823TIP3   OH224027   1.847   1.399   8.088  0.5243  0.3721  0.4436
  823TIP3    H124028   1.776   1.388   8.025 -1.7976  2.0272  2.5413
  823TIP3    H224029   1.862   1.311   8.123 -0.0881 -0.1041 -0.4653
  824TIP3   OH224030   0.948   2.672   7.912  0.1386  0.2110  0.0998
  824TIP3    H124031   1.006   2.600   7.888  1.6436  1.5550 -0.4846
  824TIP3    H224032   0.931   2.659   8.005  2.1965  0.2888  0.5302
  825TIP3   OH224033   5.156   4.145   0.799  0.2337  0.3582 -0.3883
  825TIP3    H124034   5.122   4.077   0.741 -0.4560  1.7316 -1.6680
  825TIP3    H224035   5.251   4.133   0.798  0.0544 -2.2040  1.5519
  826TIP3   OH224036   0.622   1.840   8.463  0.7537 -0.1852  0.4448
  826TIP3    H124037   0.621   1.751   8.498 -0.8028 -0.5737 -0.5054
  826TIP3    H224038   0.530   1.860   8.446  1.2739  0.6832 -1.6423
  827TIP3   OH224039   2.218   5.872   7.800  0.2794 -0.3664 -0.3259
  827TIP3    H124040   2.232   5.960   7.833  0.6911 -1.1185  1.6139
  827TIP3    H224041   2.305   5.841   7.775  0.1832 -0.3606 -0.6791
  828TIP3   OH224042   2.652   2.295   1.467 -0.1029  0.1641  0.5224
  828TIP3    H124043   2.665   2.386   1.492  2.8763 -0.5778  2.0854
  828TIP3    H224044   2.594   2.260   1.534 -1.6669  0.9336 -0.3562
  829TIP3   OH224045   0.588   0.834   1.349  0.0249 -0.4034 -0.3840
  829TIP3    H124046   0.645   0.861   1.277 -0.2022 -1.0779 -0.8285
  829TIP3    H224047   0.646   0.788   1.410 -0.0156 -1.0270 -0.8016
  830TIP3   OH224048   2.956   6.281   0.685 -0.5468  0.3293  0.5669
  830TIP3    H124049   3.006   6.276   0.767 -0.4695 -2.7514  0.4394
  830TIP3    H224050   2.871   6.315   0.711  0.5466  2.7388  1.2902
  831TIP3   OH224051   1.077   4.589   0.004 -0.0069 -0.1635  0.0686
  831TIP3    H124052   1.064   4.514  -0.052  2.2307 -1.1554  0.7732
  831TIP3    H224053   1.140   4.644  -0.043  1.6242 -0.8413  1.3602
  832TIP3   OH224054   4.138   0.982   2.319 -0.4268  0.1531 -0.3833
  832TIP3    H124055   4.098   1.054   2.271 -0.3511  1.2976  1.1887
  832TIP3    H224056   4.084   0.973   2.398 -0.9581 -2.1235 -0.9229
  833TIP3   OH224057   5.093   5.415   7.292 -0.4190 -0.2697  0.0061
  833TIP3    H124058   5.096   5.321   7.310  0.2606 -0.1564  0.5367
  833TIP3    H224059   5.098   5.422   7.197  1.2796 -0.7374  0.0284
  834TIP3   OH224060   6.014   0.442   8.047  0.1586 -0.4718  0.3564
  834TIP3    H124061   6.014   0.404   7.959  1.2273  1.2602 -0.4470
  834TIP3    H224062   6.073   0.517   8.040  0.8468 -0.7211  2.7479
  835TIP3   OH224063   1.397   2.473   7.562  0.3008  0.0697  0.1301
  835TIP3    H124064   1.354   2.388   7.559 -2.9056  1.4794  1.1578
  835TIP3    H224065   1.335   2.533   7.520  2.3364  2.0002 -0.3658
  836TIP3   OH224066   4.550   5.729   1.810 -0.1047 -0.1587 -0.1258
  836TIP3    H124067   4.531   5.751   1.901 -0.0603  0.8832 -0.3557
  836TIP3    H224068   4.643   5.704   1.810 -0.4076 -1.3518  0.3098
  837TIP3   OH224069   2.013   6.229   7.818 -0.0695  0.5450 -0.0739
  837TIP3    H124070   1.944   6.163   7.815  0.1567  0.3316 -0.6646
  837TIP3    H224071   2.040   6.231   7.910  1.7656 -2.1373 -0.4407
  838TIP3   OH224072   2.007   4.066   1.334 -0.1827 -0.3386 -0.1394
  838TIP3    H124073   2.031   3.975   1.315  3.1323  0.2860  0.4742
  838TIP3    H224074   1.989   4.104   1.248  2.1611 -0.6773 -0.8344
  839TIP3   OH224075   4.682   4.122   2.399 -0.1356  0.2499 -0.0735
  839TIP3    H124076   4.728   4.124   2.315  0.9315 -0.6642  0.4684
  839TIP3    H224077   4.590   4.132   2.376  0.3607  5.5460 -1.0099
  840TIP3   OH224078   1.164   1.090   0.175  0.4553  0.1064  0.2124
  840TIP3    H124079   1.117   1.169   0.148  0.6439  0.3343  0.5376
  840TIP3    H224080   1.214   1.065   0.098 -2.0548 -1.5829 -1.0026
  841TIP3   OH224081   2.910   5.473   2.069  0.2057 -0.1841  0.3446
  841TIP3    H124082   2.863   5.416   2.129 -0.8293  0.4021  0.1109
  841TIP3    H224083   2.924   5.420   1.990  0.7184 -0.6389  0.7332
  842TIP3   OH224084   3.656   4.155   1.580  0.1820 -0.0647  0.4896
  842TIP3    H124085   3.690   4.214   1.513 -0.0416  2.0153  2.0903
  842TIP3    H224086   3.727   4.147   1.643  0.1839 -1.5070  0.3243
  843TIP3   OH224087   4.872   5.585   7.291  0.1859 -0.2053  0.2977
  843TIP3    H124088   4.854   5.616   7.203 -1.4757 -0.7211  0.4162
  843TIP3    H224089   4.951   5.531   7.282 -0.1463 -0.5209 -0.9287
  844TIP3   OH224090   1.385   0.327   7.987  0.5004  0.1468  0.3000
  844TIP3    H124091   1.429   0.406   7.958 -2.2803  1.5210 -0.5106
  844TIP3    H224092   1.398   0.265   7.915  0.3024  0.8591 -0.3621
  845TIP3   OH224093   5.233   3.628   7.184  0.3969 -0.3714 -1.1009
  845TIP3    H124094   5.167   3.655   7.120 -0.1539  0.1963 -0.3031
  845TIP3    H224095   5.305   3.690   7.172 -0.3024  0.6464 -0.2042
  846TIP3   OH224096   5.040   1.543   1.539  0.2958 -0.3539 -0.0726
  846TIP3    H124097   5.042   1.618   1.599  1.6327  0.0785 -0.6115
  846TIP3    H224098   5.000   1.473   1.590  1.1993  0.0582  1.2698
  847TIP3   OH224099   0.752   1.638   6.776 -0.4994 -0.4232 -0.2579
  847TIP3    H124100   0.825   1.579   6.793 -0.3474 -0.3882 -0.7587
  847TIP3    H224101   0.686   1.582   6.734 -0.5295 -0.3305 -0.3330
  848TIP3   OH224102   3.943   4.904   1.224 -0.5750  0.0009 -0.2448
  848TIP3    H124103   4.016   4.845   1.241 -0.3321 -0.0561 -1.3700
  848TIP3    H224104   3.876   4.849   1.183 -1.4756 -0.0502  1.2080
  849TIP3   OH224105   6.790   1.491   8.483  0.6501 -0.2695  0.2367
  849TIP3    H124106   6.695   1.499   8.489  0.6494 -0.8605  1.1439
  849TIP3    H224107   6.810   1.510   8.391  0.0748  4.1325  0.7803
  850TIP3   OH224108   1.722   3.863   2.122  0.2476 -0.4412 -0.1025
  850TIP3    H124109   1.629   3.854   2.101  0.3028 -0.8382 -0.1857
  850TIP3    H224110   1.768   3.832   2.044  0.4611  1.0047 -0.5811
  851TIP3   OH224111   6.804   4.827   1.909 -0.1461  0.0269  0.0251
  851TIP3    H124112   6.829   4.749   1.958 -0.5142  0.8654  1.6303
  851TIP3    H224113   6.757   4.794   1.833 -0.7174 -1.2969  0.9280
  852TIP3   OH224114   6.195   4.589   0.358  0.2191 -0.6247  0.1749
  852TIP3    H124115   6.247   4.534   0.417 -0.4823 -0.5581  0.8746
  852TIP3    H224116   6.109   4.547   0.357 -0.1611  0.1321  0.2622
  853TIP3   OH224117   1.945   1.921   8.517 -0.3464  0.2862  0.5359
  853TIP3    H124118   1.968   1.885   8.431 -1.1193  0.8504  0.0877
  853TIP3    H224119   1.917   1.844   8.567 -1.0739  0.1208 -0.1100
  854TIP3   OH224120   0.094   3.678   7.525  0.2763  0.1108  0.3677
  854TIP3    H124121   0.071   3.658   7.434 -2.4708 -0.2232  1.0526
  854TIP3    H224122   0.150   3.605   7.552  0.8445  0.0391 -0.9294
  855TIP3   OH224123   1.744   2.961   1.196 -0.1154  0.1706 -0.0993
  855TIP3    H124124   1.792   2.981   1.115  2.2346  0.6615  1.2874
  855TIP3    H224125   1.777   2.876   1.223  0.1114  0.5779  0.9656
  856TIP3   OH224126   5.365   1.735   7.904 -0.0292  0.1215 -0.4598
  856TIP3    H124127   5.303   1.799   7.940  0.6968  0.5405  0.0588
  856TIP3    H224128   5.373   1.668   7.972  0.3633  0.2510 -0.3786
  857TIP3   OH224129   3.062   6.203   0.071 -0.2850 -0.2119 -1.2627
  857TIP3    H124130   3.104   6.140   0.013 -0.5593 -0.8486 -0.7806
  857TIP3    H224131   3.038   6.152   0.148  0.2388  0.6581 -0.5064
  858TIP3   OH224132   4.327   3.586   6.957 -0.0962  0.7019 -0.5314
  858TIP3    H124133   4.365   3.556   6.874 -0.8575 -1.5165 -0.1619
  858TIP3    H224134   4.354   3.520   7.021  0.3589  2.2882  0.9987
  859TIP3   OH224135   4.669   4.662   0.905 -0.2070 -0.8771  0.9969
  859TIP3    H124136   4.709   4.576   0.919  0.3283 -0.4478  2.2853
  859TIP3    H224137   4.588   4.643   0.857  0.4426 -1.9789  0.2879
  860TIP3   OH224138   0.500   4.688   1.455  0.1422 -0.1711 -0.0376
  860TIP3    H124139   0.483   4.622   1.388  2.2277  0.3837 -1.1868
  860TIP3    H224140   0.417   4.734   1.464 -1.2189 -2.5293  0.3951
  861TIP3   OH224141   3.683   3.620   2.416 -0.1085 -0.7062 -0.6692
  861TIP3    H124142   3.740   3.696   2.401 -1.2208  0.5048  0.8636
  861TIP3    H224143   3.635   3.609   2.334 -1.9165  2.0537 -0.1161
  862TIP3   OH224144   2.038   5.262   7.633  0.3968 -0.3377 -0.3873
  862TIP3    H124145   2.025   5.331   7.568 -2.9104  0.1744  0.6041
  862TIP3    H224146   2.052   5.310   7.715 -0.9362 -0.7904  0.1401
  863TIP3   OH224147   0.085   3.435   8.492 -0.0898 -0.3144  0.0351
  863TIP3    H124148   0.173   3.465   8.514 -0.7275  0.6725  1.3951
  863TIP3    H224149   0.098   3.362   8.432  1.6072  1.3553 -1.7647
  864TIP3   OH224150   1.487   3.840   0.527  0.0692  0.1791 -0.0967
  864TIP3    H124151   1.501   3.806   0.439 -0.8346  0.7227 -0.4532
  864TIP3    H224152   1.435   3.919   0.515 -0.0634  0.2599  0.9292
  865TIP3   OH224153   5.699   5.403   7.145  0.1807 -0.9067 -0.1616
  865TIP3    H124154   5.604   5.390   7.141 -0.0066  0.5479 -0.9688
  865TIP3    H224155   5.717   5.474   7.083  1.6922 -0.6070  0.5630
  866TIP3   OH224156   0.412   4.477   7.465  0.4655 -0.2837  0.3714
  866TIP3    H124157   0.328   4.431   7.459  0.3509 -0.1351  0.8028
  866TIP3    H224158   0.407   4.546   7.399  0.4488 -0.5890  0.0490
  867TIP3   OH224159   6.111   5.658   0.496 -0.5357  0.7803 -0.1455
  867TIP3    H124160   6.137   5.685   0.584  1.6545  0.6975 -0.7088
  867TIP3    H224161   6.171   5.587   0.474 -1.6134  0.2139 -1.3991
  868TIP3   OH224162   1.955   3.360   8.060  0.3532  0.5564  0.1912
  868TIP3    H124163   1.938   3.433   8.000  1.2539  0.9043  0.3445
  868TIP3    H224164   1.879   3.359   8.119 -0.2177  0.6338 -0.5258
  869TIP3   OH224165   5.914   3.711   8.381 -0.4453 -0.1565 -0.5346
  869TIP3    H124166   5.948   3.651   8.315  0.5992  1.7682 -1.8263
  869TIP3    H224167   5.946   3.675   8.464 -0.5577 -1.8161 -1.1680
  870TIP3   OH224168   1.974   5.185   1.544  0.4305 -0.3530  0.1191
  870TIP3    H124169   1.898   5.128   1.535  0.1223  0.2073 -0.9995
  870TIP3    H224170   1.959   5.255   1.480  0.6298  1.1700  1.6579
  871TIP3   OH224171   2.039   5.208   1.848  0.3479  0.1598  0.0114
  871TIP3    H124172   1.955   5.250   1.864  0.3930  0.5479 -0.7391
  871TIP3    H224173   2.056   5.222   1.755  0.1611 -1.8700 -0.3798
  872TIP3   OH224174   6.730   4.429   1.027  0.0278  0.1020  0.0304
  872TIP3    H124175   6.783   4.494   0.982  0.2006  0.1940  0.3626
  872TIP3    H224176   6.746   4.348   0.980  1.7877 -0.2503  1.1143
  873TIP3   OH224177   2.295   1.042   1.749 -0.2580  0.0920 -0.1963
  873TIP3    H124178   2.336   1.070   1.667  1.6532 -0.9600  0.3356
  873TIP3    H224179   2.365   0.997   1.797 -1.8916 -1.2770  1.0520
  874TIP3   OH224180   2.836   4.460   8.300  0.5845 -0.4954  0.6191
  874TIP3    H124181   2.907   4.504   8.345  1.4284 -1.0928 -0.0934
  874TIP3    H224182   2.839   4.370   8.332 -0.1061 -0.4374  0.8724
  875TIP3   OH224183   1.490   6.505   7.465 -0.1059  0.5882 -0.0106
  875TIP3    H124184   1.533   6.537   7.544  1.0454  0.2407 -0.4687
  875TIP3    H224185   1.527   6.558   7.395  1.3167 -1.1804 -0.6917
  876TIP3   OH224186   5.333   3.901   8.181 -0.2404 -0.5585  0.0429
  876TIP3    H124187   5.293   3.935   8.261 -0.4301 -0.7335  0.0216
  876TIP3    H224188   5.329   3.974   8.120  1.9517  0.3634  0.8857
  877TIP3   OH224189   2.335   4.657   8.593  0.3180 -0.0327 -0.0768
  877TIP3    H124190   2.397   4.669   8.521 -0.2876  0.4673 -0.5255
  877TIP3    H224191   2.335   4.741   8.639 -1.4068  0.6322 -1.2024
  878TIP3   OH224192   5.121   4.802   0.345 -0.2214 -0.6030  0.2960
  878TIP3    H124193   5.165   4.726   0.383  1.2024  0.8739  1.7423
  878TIP3    H224194   5.054   4.764   0.288  0.8338 -2.9348  0.4763
  879TIP3   OH224195   4.511   0.861   7.687 -0.0117  0.0422  0.6547
  879TIP3    H124196   4.513   0.894   7.597  1.4066 -0.5280  0.4405
  879TIP3    H224197   4.471   0.932   7.738 -0.5159  0.5138 -0.3691
  880TIP3   OH224198   1.116   2.001   0.314  0.0110 -0.4730 -0.1090
  880TIP3    H124199   1.161   2.018   0.397  1.6639 -1.3528 -0.7778
  880TIP3    H224200   1.146   1.914   0.287  0.0923  0.0770 -1.9775
  881TIP3   OH224201   0.521   2.550   0.423 -0.4541  0.0543  0.4744
  881TIP3    H124202   0.573   2.609   0.368  0.0747  0.4570  1.3802
  881TIP3    H224203   0.443   2.601   0.445  0.3232  0.7299  1.8352
  882TIP3   OH224204   1.776   3.653   0.245 -0.1786  0.0303  0.0445
  882TIP3    H124205   1.867   3.625   0.255  0.2082  0.5358 -1.7394
  882TIP3    H224206   1.730   3.576   0.210 -0.1484  0.1522 -0.2715
  883TIP3   OH224207   0.271   6.714   0.473  0.7711  0.4222 -0.4727
  883TIP3    H124208   0.203   6.692   0.536  1.9799  0.8768  1.0405
  883TIP3    H224209   0.245   6.799   0.438  0.3936  0.4315 -0.1664
  884TIP3   OH224210   6.616   4.182   8.108 -0.1570 -0.3895 -0.8160
  884TIP3    H124211   6.554   4.252   8.131  0.6166 -0.2701  1.0901
  884TIP3    H224212   6.597   4.112   8.171  2.5962  0.2480  0.8688
  885TIP3   OH224213   4.838   0.376   0.918  0.3578 -0.1089 -0.2843
  885TIP3    H124214   4.888   0.438   0.864 -2.0599  1.6639 -0.6315
  885TIP3    H224215   4.793   0.432   0.981 -1.3650 -1.5954 -0.1480
  886TIP3   OH224216   3.342   5.063   6.770  0.2570 -0.0638  0.3866
  886TIP3    H124217   3.342   4.967   6.763  0.4403 -0.1021  0.8791
  886TIP3    H224218   3.400   5.092   6.700  0.0953 -0.3062  0.1517
  887TIP3   OH224219   4.472   1.976   7.508  0.2360  0.1882  0.3779
  887TIP3    H124220   4.467   2.043   7.439 -0.0069  0.2124  0.4211
  887TIP3    H224221   4.408   1.910   7.482  0.4275  0.0042  0.3721
  888TIP3   OH224222   4.919   5.109   0.102 -0.4318 -0.2046 -0.3998
  888TIP3    H124223   4.983   5.098   0.173  1.1726  2.5562 -1.2328
  888TIP3    H224224   4.941   5.041   0.039 -0.7576 -1.5943  0.9153
  889TIP3   OH224225   3.296   1.470   2.468 -0.4782  0.4185  0.9158
  889TIP3    H124226   3.308   1.499   2.559  0.2184  1.3501  0.5444
  889TIP3    H224227   3.315   1.548   2.416  1.5488 -0.7041 -0.1437
  890TIP3   OH224228   4.071   1.580   1.425 -0.0125  0.1672  0.4535
  890TIP3    H124229   4.017   1.601   1.502 -2.0928  1.1102 -1.1664
  890TIP3    H224230   4.129   1.655   1.415 -0.1887  0.3437  0.7243
  891TIP3   OH224231   0.743   6.775   8.040  0.1864 -0.5603 -0.2992
  891TIP3    H124232   0.736   6.771   7.945  2.0676 -0.4315 -0.4860
  891TIP3    H224233   0.660   6.812   8.069 -0.9023 -1.7138 -1.7777
  892TIP3   OH224234   0.826   3.596   8.645  0.0828 -0.1177  0.5443
  892TIP3    H124235   0.913   3.557   8.636 -0.4157 -0.8354 -1.9886
  892TIP3    H224236   0.812   3.644   8.563 -1.8242  0.1675  0.9787
  893TIP3   OH224237   5.776   0.835   1.298  0.2967 -0.0937  0.2337
  893TIP3    H124238   5.820   0.920   1.299  0.9453 -0.4123  1.6536
  893TIP3    H224239   5.683   0.856   1.300  0.3900  0.5779 -1.1963
  894TIP3   OH224240   1.064   3.526   2.326 -0.1242  0.1689 -0.2935
  894TIP3    H124241   1.101   3.580   2.256  0.9548  0.1459  0.2402
  894TIP3    H224242   1.135   3.518   2.390 -0.5580 -1.1506  0.0486
  895TIP3   OH224243   6.510   6.208   0.294  0.2602  0.2653  0.1461
  895TIP3    H124244   6.550   6.126   0.265 -0.3154  0.2938 -0.7752
  895TIP3    H224245   6.565   6.276   0.255 -1.1677  0.3142 -1.9499
  896TIP3   OH224246   4.202   2.895   1.229  0.4324  0.4273 -0.2575
  896TIP3    H124247   4.261   2.855   1.165 -0.6754 -2.0309  0.1329
  896TIP3    H224248   4.158   2.965   1.182  0.8477 -0.2445 -1.6920
  897TIP3   OH224249   6.253   0.021   1.862 -0.0502  0.3289 -0.0901
  897TIP3    H124250   6.280   0.037   1.772 -1.4449  2.3542 -0.2216
  897TIP3    H224251   6.265  -0.073   1.874 -1.8530 -0.4631 -3.1561
  898TIP3   OH224252   0.419   3.534   0.127  0.4143  0.0166 -0.4249
  898TIP3    H124253   0.356   3.604   0.112 -1.2434 -1.6961 -1.9030
  898TIP3    H224254   0.491   3.553   0.065 -0.0487  0.3886 -0.8547
  899TIP3   OH224255   5.166   5.526   1.908 -0.0701 -0.1507 -0.0901
  899TIP3    H124256   5.074   5.547   1.927 -0.7775 -2.5783 -0.5374
  899TIP3    H224257   5.170   5.521   1.812 -0.0824 -2.3632 -0.0142
  900TIP3   OH224258   1.750   3.394   1.829  0.3061  0.6913 -0.1326
  900TIP3    H124259   1.730   3.436   1.913 -2.1349  1.0852 -0.8341
  900TIP3    H224260   1.669   3.401   1.779  0.5881 -2.5469 -1.2903
  901TIP3   OH224261   4.135   1.101   7.994  0.2654 -0.3912 -0.2046
  901TIP3    H124262   4.138   1.066   8.083  0.3502  3.0583  1.3061
  901TIP3    H224263   4.043   1.121   7.979  0.4435  0.4375 -0.2454
  902TIP3   OH224264   0.110   0.289   2.451  0.4489 -0.0770  0.3461
  902TIP3    H124265   0.199   0.319   2.437  0.1455  1.2385  1.0576
  902TIP3    H224266   0.080   0.261   2.365  1.4630 -0.3401  0.0640
  903TIP3   OH224267   4.894   5.780   2.176 -0.5636 -0.2315  0.0551
  903TIP3    H124268   4.958   5.808   2.111 -0.2260 -0.0826  0.4500
  903TIP3    H224269   4.905   5.840   2.250 -1.2235 -0.1433  0.0897
  904TIP3   OH224270   0.189   0.674   1.625  0.5562  0.4021  0.3956
  904TIP3    H124271   0.237   0.747   1.664 -1.0043  1.9887 -0.4891
  904TIP3    H224272   0.249   0.638   1.559  1.1780  1.2042  0.5081
  905TIP3   OH224273   0.896   1.468   2.816  0.3778  0.2597 -0.0952
  905TIP3    H124274   0.932   1.428   2.895 -0.1071 -1.1700 -0.5800
  905TIP3    H224275   0.814   1.507   2.844  0.0884 -0.4537  0.0619
  906TIP3   OH224276   4.844   2.256   8.637 -0.0025  0.2456  0.2428
  906TIP3    H124277   4.820   2.168   8.664  0.2918  0.0500 -0.1288
  906TIP3    H224278   4.779   2.313   8.679  2.2009  0.2939  4.0086
  907TIP3   OH224279   0.819   4.107   8.408  0.2192 -0.2548 -0.2793
  907TIP3    H124280   0.894   4.070   8.361  0.0873  1.0474 -1.5642
  907TIP3    H224281   0.793   4.183   8.357  0.8290  2.0206  2.5307
  908TIP3   OH224282   6.074   2.344   1.664  0.5788  0.0124 -0.2282
  908TIP3    H124283   6.064   2.357   1.758 -0.6161  0.4106 -0.3986
  908TIP3    H224284   6.087   2.250   1.654  3.8427  0.2433  0.5601
  909TIP3   OH224285   2.604   4.503   7.436 -0.0377 -0.1296  0.7833
  909TIP3    H124286   2.529   4.482   7.379 -0.5811  0.7792  1.1423
  909TIP3    H224287   2.671   4.534   7.375 -0.4007  0.2534  0.5681
  910TIP3   OH224288   5.041   5.326   1.378  0.5445 -0.0023 -0.2049
  910TIP3    H124289   5.094   5.323   1.299 -0.5648 -2.3007 -0.9513
  910TIP3    H224290   4.968   5.384   1.357  1.0919  0.6657 -0.2783
  911TIP3   OH224291   3.499   4.660   7.791  0.0882 -0.1608 -0.2342
  911TIP3    H124292   3.426   4.703   7.747 -1.0073 -0.0466  1.5892
  911TIP3    H224293   3.511   4.710   7.871  2.8130  0.3855 -0.8742
  912TIP3   OH224294   4.763   6.295   7.789  0.4354  0.1505  0.8660
  912TIP3    H124295   4.708   6.217   7.786  0.8229 -0.0962 -1.4559
  912TIP3    H224296   4.717   6.354   7.849 -1.2830 -0.8213  0.5580
  913TIP3   OH224297   5.014   1.170   1.465 -0.0996  0.0613  0.2200
  913TIP3    H124298   4.986   1.231   1.534  0.3783  0.4843  0.0518
  913TIP3    H224299   5.037   1.226   1.392  0.5116 -0.3118  0.1197
  914TIP3   OH224300   6.430   5.196   1.760 -0.4220  0.1339  0.7124
  914TIP3    H124301   6.439   5.288   1.734  0.7779 -0.8208 -2.8539
  914TIP3    H224302   6.519   5.163   1.767 -0.8043 -1.2924 -0.4916
  915TIP3   OH224303   3.634   1.935   8.698  0.5178 -0.0351  0.3181
  915TIP3    H124304   3.633   1.871   8.627 -0.9237 -1.3467  1.4542
  915TIP3    H224305   3.703   1.905   8.757 -0.1621 -0.5993  0.8536
  916TIP3   OH224306   6.012   2.085   2.134  0.0823  0.0530  0.4787
  916TIP3    H124307   5.986   2.035   2.211  0.7480  0.1657  0.7861
  916TIP3    H224308   5.965   2.167   2.140  0.0827  0.0333  0.7305
  917TIP3   OH224309   1.830   4.511   7.267 -0.8292  0.6774 -0.4766
  917TIP3    H124310   1.815   4.432   7.216  0.0754  0.6114 -0.6703
  917TIP3    H224311   1.743   4.544   7.288 -1.2190 -0.4938 -0.1944
  918TIP3   OH224312   1.098   4.427   2.102 -0.3386  0.0471  1.2840
  918TIP3    H124313   1.138   4.346   2.134 -0.2146  0.0979  1.2609
  918TIP3    H224314   1.067   4.471   2.180 -2.0236 -0.8525  1.1701
  919TIP3   OH224315   2.330   6.297   7.873  0.0928  0.4895  0.6653
  919TIP3    H124316   2.258   6.243   7.842  1.2462 -0.0710 -1.2042
  919TIP3    H224317   2.370   6.247   7.944  0.8018 -0.9300 -0.6771
  920TIP3   OH224318   0.507   5.827   0.139  0.0453 -0.0053 -0.8024
  920TIP3    H124319   0.559   5.818   0.059 -0.0511  1.1695 -1.0082
  920TIP3    H224320   0.527   5.915   0.171  0.0239 -0.4283  0.4328
  921TIP3   OH224321   4.148   5.633   0.814  0.2907  0.0387 -0.4358
  921TIP3    H124322   4.151   5.680   0.898 -2.7369 -1.4306  0.6684
  921TIP3    H224323   4.139   5.702   0.748 -2.3358  1.2147  0.9809
  922TIP3   OH224324   5.477   0.976   1.340  0.6818  0.6604 -0.0470
  922TIP3    H124325   5.481   0.988   1.245  0.3918  2.5234  0.1251
  922TIP3    H224326   5.438   1.058   1.372 -0.8557 -0.6135  1.5399
  923TIP3   OH224327   5.083   4.628   0.127 -0.1154  0.7374 -0.0596
  923TIP3    H124328   5.084   4.605   0.034 -0.2132  0.0800  0.0987
  923TIP3    H224329   5.016   4.571   0.165  0.5014  0.4174  0.5614
  924TIP3   OH224330   6.200   6.145   7.204 -0.3920 -0.3515 -0.0646
  924TIP3    H124331   6.234   6.158   7.292 -0.9732 -3.2688  0.6858
  924TIP3    H224332   6.112   6.109   7.217 -0.3955 -1.1080 -1.8269
  925TIP3   OH224333   3.778   6.379   1.483  0.6567 -0.0655  0.7825
  925TIP3    H124334   3.707   6.329   1.524 -0.6491  0.5026 -0.6846
  925TIP3    H224335   3.849   6.315   1.472 -0.1601 -1.0252  0.9448
  926TIP3   OH224336   3.553   4.760   2.312  0.4178 -0.6743  0.0443
  926TIP3    H124337   3.521   4.790   2.226  0.2113  0.1021  0.3894
  926TIP3    H224338   3.523   4.827   2.373  0.6819 -1.1609  0.7093
  927TIP3   OH224339   5.179   2.042   1.740 -0.2798 -0.8629  0.0390
  927TIP3    H124340   5.202   2.037   1.832 -0.9645  0.3942  0.2950
  927TIP3    H224341   5.198   1.954   1.706  1.4225 -0.9056  1.0153
  928TIP3   OH224342   0.087   0.837   1.393  0.1740 -0.1688  0.1806
  928TIP3    H124343   0.131   0.765   1.348 -0.7002  0.1878 -1.3180
  928TIP3    H224344   0.104   0.821   1.486  1.6064 -1.2226 -0.2270
  929TIP3   OH224345   1.929   5.569   2.701  0.0302  0.3153  0.0434
  929TIP3    H124346   1.992   5.556   2.772 -0.8502  1.1357  0.9999
  929TIP3    H224347   1.855   5.513   2.724  0.0896 -0.0961 -0.7100
  930TIP3   OH224348   4.916   3.486   0.575  0.5539 -0.2676 -0.4938
  930TIP3    H124349   4.852   3.416   0.586 -0.9980  0.8870 -1.7731
  930TIP3    H224350   4.893   3.550   0.643  1.8608 -0.8652  0.5617
  931TIP3   OH224351   5.270   1.027   0.206  0.1809 -0.9496 -0.1510
  931TIP3    H124352   5.352   0.983   0.225  0.0501 -0.5812  1.4134
  931TIP3    H224353   5.253   1.009   0.114  1.8803 -1.2356 -0.4290
  932TIP3   OH224354   0.034   2.460   0.198  0.2698  0.1210  0.0549
  932TIP3    H124355  -0.050   2.435   0.236  0.7822 -2.1439 -0.1383
  932TIP3    H224356   0.033   2.556   0.198 -1.5599  0.1644  1.6576
  933TIP3   OH224357   2.599   1.297   7.956  0.2832  0.3930 -0.2115
  933TIP3    H124358   2.554   1.348   8.023 -0.4808  2.3896 -2.1523
  933TIP3    H224359   2.683   1.274   7.997 -0.0451  1.7358  1.3441
  934TIP3   OH224360   5.036   3.900   7.067 -0.6192 -0.1415  0.3041
  934TIP3    H124361   5.016   3.993   7.072 -0.9521 -0.1705 -0.3485
  934TIP3    H224362   5.130   3.894   7.086 -0.0676  0.5942 -1.8744
  935TIP3   OH224363   3.550   2.340   1.447 -0.0487 -0.5505  0.4425
  935TIP3    H124364   3.458   2.360   1.428  0.7665  1.6384 -1.8823
  935TIP3    H224365   3.547   2.271   1.513 -3.3525 -1.5198 -0.5323
  936TIP3   OH224366   0.097   0.393   7.132  0.0434  0.1029  0.1467
  936TIP3    H124367   0.022   0.343   7.101  0.6880 -2.9854  2.9934
  936TIP3    H224368   0.151   0.407   7.055 -2.4756  0.6941 -1.6095
  937TIP3   OH224369   2.251   2.563   2.693 -0.1322 -0.4149 -0.2943
  937TIP3    H124370   2.243   2.552   2.598 -1.6279  3.3001 -0.7424
  937TIP3    H224371   2.318   2.631   2.704 -1.6955  0.9604  1.1245
  938TIP3   OH224372   4.914   1.104   8.795 -0.5005 -0.1508  0.4038
  938TIP3    H124373   4.929   1.199   8.795  0.4602 -0.2911  1.2925
  938TIP3    H224374   5.001   1.065   8.791 -0.8596 -0.9992  0.5413
  939TIP3   OH224375   5.254   4.906   1.846 -0.4422 -0.3038  0.0099
  939TIP3    H124376   5.261   4.907   1.941 -2.6795 -0.3517  0.2367
  939TIP3    H224377   5.281   4.994   1.819  0.8921 -0.5128  0.5827
  940TIP3   OH224378   2.398   6.475   7.701  0.0073  0.3945 -0.6129
  940TIP3    H124379   2.398   6.440   7.612  0.7399  1.4678 -1.0585
  940TIP3    H224380   2.380   6.399   7.757 -1.7207 -0.0760 -1.7364
  941TIP3   OH224381   2.578   2.096   1.650  0.4992 -0.2751 -0.7523
  941TIP3    H124382   2.498   2.144   1.670  0.8408 -0.1740  0.4412
  941TIP3    H224383   2.548   2.006   1.632  0.1684 -0.3734  0.2630
  942TIP3   OH224384   5.426   4.101   7.325  0.2971  0.0727 -0.2542
  942TIP3    H124385   5.502   4.133   7.374  0.1050  1.7142 -0.9770
  942TIP3    H224386   5.463   4.043   7.259  1.2765  2.7396 -2.2050
  943TIP3   OH224387   1.793   4.666   0.268  0.5987  0.5829  0.3477
  943TIP3    H124388   1.882   4.663   0.232 -0.6684 -0.4003 -3.1597
  943TIP3    H224389   1.783   4.584   0.315  1.2294  0.2191 -0.1403
  944TIP3   OH224390   2.843   0.660   8.602  0.0757  0.1829 -0.1995
  944TIP3    H124391   2.796   0.591   8.555  0.8337  0.1211 -0.8904
  944TIP3    H224392   2.895   0.612   8.667 -0.2525  0.1946  0.0739
  945TIP3   OH224393   3.328   1.985   2.854  0.6780 -0.3143 -0.8327
  945TIP3    H124394   3.325   2.047   2.781 -0.1108 -0.3166 -0.8162
  945TIP3    H224395   3.237   1.979   2.884  1.0139 -0.1797  0.2655
  946TIP3   OH224396   6.057   5.373   1.471  0.4769  0.9797  0.0094
  946TIP3    H124397   6.052   5.399   1.563 -0.0060 -0.6542  0.4754
  946TIP3    H224398   6.090   5.283   1.473  0.4272  0.9050 -1.4228
  947TIP3   OH224399   5.403   4.360   2.290  0.3429  0.6618 -0.1907
  947TIP3    H124400   5.408   4.305   2.369  5.6587 -0.0098 -0.5990
  947TIP3    H224401   5.432   4.302   2.219 -0.8063  2.2286 -2.0343
  948TIP3   OH224402   6.576   4.075   0.609  0.0602 -0.1792 -0.3888
  948TIP3    H124403   6.533   4.144   0.660 -0.9285 -1.3856  0.4940
  948TIP3    H224404   6.635   4.121   0.550 -0.6662  1.4198  0.0816
  949TIP3   OH224405   1.123   6.138   8.403  0.4539  0.6485  0.3310
  949TIP3    H124406   1.088   6.175   8.322 -0.8722 -0.7782  0.2024
  949TIP3    H224407   1.088   6.194   8.472  0.2076  0.8736  0.0265
  950TIP3   OH224408   0.481   1.696   7.760 -0.4351  0.6682 -0.1665
  950TIP3    H124409   0.396   1.652   7.754  0.0450 -0.2904 -0.0804
  950TIP3    H224410   0.516   1.695   7.671 -0.1654  0.3527 -0.0572
  951TIP3   OH224411   3.839   3.453   2.577 -0.1198  0.3047 -0.0268
  951TIP3    H124412   3.922   3.498   2.588  0.9274 -1.5434 -0.0453
  951TIP3    H224413   3.783   3.517   2.533  1.7595  1.0959 -1.3899
  952TIP3   OH224414   0.036   3.684   8.337  0.2339  0.0205 -0.0534
  952TIP3    H124415   0.122   3.722   8.356 -0.4679  1.6857 -0.0324
  952TIP3    H224416   0.053   3.590   8.327  1.5906 -0.1556  2.9198
  953TIP3   OH224417   2.004   0.113   1.451  0.4206  0.3420  0.4539
  953TIP3    H124418   2.095   0.095   1.473  0.8184  1.2637 -0.3530
  953TIP3    H224419   1.960   0.123   1.536  1.8537  3.6175  0.9453
  954TIP3   OH224420   3.072   2.638   1.613  0.3869 -0.2683  0.0176
  954TIP3    H124421   3.019   2.667   1.538  2.3013  0.5977 -1.0717
  954TIP3    H224422   3.081   2.715   1.668  0.4368 -0.4280  0.2338
  955TIP3   OH224423   5.345   4.981   0.699  0.2010  0.5353 -0.4007
  955TIP3    H124424   5.355   4.889   0.724 -1.1793 -0.1156 -2.0472
  955TIP3    H224425   5.411   5.027   0.751 -0.6467 -1.0298  2.2250
  956TIP3   OH224426   5.801   2.411   8.556  0.5260 -0.2690 -0.1724
  956TIP3    H124427   5.801   2.449   8.469  0.8043 -0.4189 -0.2391
  956TIP3    H224428   5.870   2.345   8.553 -0.9041 -1.8073 -0.4994
  957TIP3   OH224429   1.941   2.228   0.857 -0.7646 -0.3680 -0.0375
  957TIP3    H124430   1.874   2.160   0.864 -1.1695 -0.2166 -1.8273
  957TIP3    H224431   2.023   2.180   0.844 -0.6098 -0.5396  1.4411
  958TIP3   OH224432   4.918   5.584   0.034  0.0464 -0.1839 -0.3077
  958TIP3    H124433   4.869   5.640   0.095  1.0715 -0.1306  0.4989
  958TIP3    H224434   4.903   5.623  -0.052 -0.7706  0.2222  0.0051
  959TIP3   OH224435   1.317   6.471   8.298  0.1701  0.2231  0.2204
  959TIP3    H124436   1.229   6.450   8.329  0.0520 -1.1634 -0.9530
  959TIP3    H224437   1.304   6.532   8.226  0.0719 -0.7367 -0.6000
  960TIP3   OH224438   3.388   5.645   8.779 -0.5681  0.1570  0.7215
  960TIP3    H124439   3.303   5.623   8.740 -0.8080 -1.1724  1.9489
  960TIP3    H224440   3.367   5.701   8.853 -0.1702  1.8628 -0.3830
  961TIP3   OH224441   1.721   6.696   0.762 -0.2098 -0.1011 -0.0049
  961TIP3    H124442   1.740   6.648   0.843 -1.8970 -0.5718  0.1331
  961TIP3    H224443   1.664   6.768   0.789 -1.1189 -0.4934 -0.8104
  962TIP3   OH224444   5.057   0.156   8.161  0.3483  0.0544  0.3356
  962TIP3    H124445   5.083   0.190   8.075  1.1164 -0.6098  0.2976
  962TIP3    H224446   5.136   0.114   8.194  0.8282  2.3618  2.4194
  963TIP3   OH224447   2.137   2.417   8.462  0.1501 -0.3036  0.8420
  963TIP3    H124448   2.177   2.461   8.387 -1.1456  0.4149  0.5457
  963TIP3    H224449   2.180   2.332   8.465  0.4068 -0.2477 -0.5591
  964TIP3   OH224450   0.566   4.360   2.059 -0.1661  0.2270 -0.4430
  964TIP3    H124451   0.493   4.350   1.998 -0.6662 -1.6104  0.3671
  964TIP3    H224452   0.530   4.332   2.144  1.0498  0.8094  0.2937
  965TIP3   OH224453   0.870   4.813   7.829  0.0362  0.0079  0.0198
  965TIP3    H124454   0.863   4.868   7.908  0.1726  1.1141 -0.7143
  965TIP3    H224455   0.782   4.780   7.815 -0.1819  0.5186  0.1510
  966TIP3   OH224456   3.256   0.470   0.175 -0.2433 -1.0018 -0.2640
  966TIP3    H124457   3.260   0.440   0.084 -1.0796 -0.0294 -0.6452
  966TIP3    H224458   3.348   0.481   0.201  0.0282  1.0260 -1.8121
  967TIP3   OH224459   5.561   2.506   6.998  0.4214 -0.1886  0.2549
  967TIP3    H124460   5.500   2.565   6.954 -0.1273 -0.4267  0.6781
  967TIP3    H224461   5.572   2.433   6.936  1.3850  0.5105 -0.4238
  968TIP3   OH224462   3.817   2.859   1.463 -0.9017 -0.6867  0.4186
  968TIP3    H124463   3.877   2.785   1.467  1.3800  0.9267 -1.2009
  968TIP3    H224464   3.782   2.858   1.374  1.2180  1.5393 -0.5537
  969TIP3   OH224465   4.934   5.446   2.820 -0.2216  0.1117  0.3605
  969TIP3    H124466   4.916   5.496   2.740 -1.1271  0.3080  0.6738
  969TIP3    H224467   4.941   5.355   2.792 -1.9866 -0.0062  0.2430
  970TIP3   OH224468   3.874   3.011   1.697  0.1703 -0.3192  0.7931
  970TIP3    H124469   3.841   2.968   1.618  0.9672 -0.8079  0.7170
  970TIP3    H224470   3.969   3.011   1.687  0.3181 -0.8715  1.9991
  971TIP3   OH224471   0.898   2.026   2.111  0.0060 -0.6296  0.1616
  971TIP3    H124472   0.948   1.946   2.100 -0.7337 -0.9273 -1.3043
  971TIP3    H224473   0.809   2.003   2.084  0.0693  1.0056 -1.6990
  972TIP3   OH224474   3.009   1.960   8.428  0.0708  0.3694  0.4629
  972TIP3    H124475   3.059   1.927   8.502  1.5590 -0.9068 -1.0378
  972TIP3    H224476   2.958   2.033   8.464  1.8774  0.7599  2.3964
  973TIP3   OH224477   0.486   0.827   8.293  0.3699 -0.2311 -0.1634
  973TIP3    H124478   0.392   0.846   8.298  0.2771 -0.7477  0.1155
  973TIP3    H224479   0.524   0.905   8.253 -0.0849  0.2924  0.3984
  974TIP3   OH224480   0.101   2.567   8.642  0.1672 -1.2677  0.3618
  974TIP3    H124481   0.038   2.514   8.690 -0.1624 -1.9596 -0.7789
  974TIP3    H224482   0.179   2.567   8.697 -0.3254 -1.6800  1.0859
  975TIP3   OH224483   4.277   3.892   1.780  0.1977 -0.7938  0.4336
  975TIP3    H124484   4.258   3.809   1.823 -2.6709  0.0569  1.0641
  975TIP3    H224485   4.194   3.940   1.783  1.9157  2.4543  0.8387
  976TIP3   OH224486   1.202   4.557   2.599 -0.0668  0.0674  0.1440
  976TIP3    H124487   1.272   4.620   2.580  1.2083 -1.7542 -1.5773
  976TIP3    H224488   1.247   4.483   2.640 -1.8096  0.9355  4.1312
  977TIP3   OH224489   5.896   2.782   8.479  0.0629 -0.0913 -0.6462
  977TIP3    H124490   5.955   2.849   8.445 -2.4346  1.5408 -2.1207
  977TIP3    H224491   5.881   2.807   8.570 -1.4610  1.9733 -1.3807
  978TIP3   OH224492   0.062   0.026   2.315 -0.3982  0.3422  0.0719
  978TIP3    H124493   0.037  -0.031   2.388  0.6437 -2.5731 -1.6924
  978TIP3    H224494  -0.020   0.065   2.286 -1.3892 -1.2002  0.6464
  979TIP3   OH224495   1.475   5.668   7.737  0.3804  0.2439 -0.5448
  979TIP3    H124496   1.535   5.698   7.668 -0.6541 -0.3560 -1.7502
  979TIP3    H224497   1.403   5.730   7.736 -1.5224 -1.7709 -2.7112
  980TIP3   OH224498   2.221   0.550   7.200 -0.1701 -0.4483  0.1947
  980TIP3    H124499   2.206   0.631   7.250 -0.5131  0.1754 -0.8712
  980TIP3    H224500   2.252   0.487   7.265  1.7458  0.9989  0.8058
  981TIP3   OH224501   2.405   1.972   8.018  0.4076  0.0606  0.2819
  981TIP3    H124502   2.482   2.029   8.015  1.3055 -1.1478 -0.1885
  981TIP3    H224503   2.333   2.029   7.990  1.4639  0.7096 -1.3173
  982TIP3   OH224504   3.232   6.181   1.646 -0.5341  0.6995  0.1271
  982TIP3    H124505   3.294   6.180   1.719  1.3893 -1.8276 -1.3953
  982TIP3    H224506   3.279   6.227   1.576 -1.0234  0.1941 -0.5435
  983TIP3   OH224507   2.880   2.050   0.045 -0.0547  0.0547 -0.3044
  983TIP3    H124508   2.788   2.035   0.024 -0.2843 -0.4779  1.0059
  983TIP3    H224509   2.922   1.966   0.031  0.1561  0.1883 -0.4865
  984TIP3   OH224510   3.157   5.667   0.601 -0.4526  0.0797 -0.3504
  984TIP3    H124511   3.101   5.740   0.574  0.9778  0.0553 -3.7768
  984TIP3    H224512   3.242   5.708   0.619  0.1100 -0.6143 -1.3807
  985TIP3   OH224513   0.634   5.610   8.508 -0.0688  0.2835  0.0536
  985TIP3    H124514   0.585   5.674   8.560  0.7964 -0.0403  1.3132
  985TIP3    H224515   0.581   5.598   8.429 -2.4149 -0.5674  1.6519
  986TIP3   OH224516   3.056   6.716   2.816 -0.3040  0.6186 -0.5598
  986TIP3    H124517   3.078   6.786   2.755  1.1965  1.3411  0.7413
  986TIP3    H224518   3.061   6.757   2.902  1.4642 -1.2562  0.3201
  987TIP3   OH224519   6.163   5.161   0.164 -0.5513 -0.3054 -0.2219
  987TIP3    H124520   6.244   5.212   0.156 -1.5874  1.2012 -1.6158
  987TIP3    H224521   6.122   5.193   0.245 -0.9047  0.6556 -0.7751
  988TIP3   OH224522   5.412   3.204   8.489 -0.1984 -0.9619  0.3662
  988TIP3    H124523   5.344   3.241   8.432  0.7049  0.6356  0.2648
  988TIP3    H224524   5.399   3.110   8.483 -3.4096 -0.7084  1.6047
  989TIP3   OH224525   1.049   0.366   0.312  0.1059 -0.1327  0.3097
  989TIP3    H124526   0.983   0.399   0.250 -0.5388  0.9861  1.5498
  989TIP3    H224527   1.004   0.365   0.396  1.1184 -1.1815  0.8659
  990TIP3   OH224528   2.649   4.322   1.113  0.4838  0.2977  0.3850
  990TIP3    H124529   2.612   4.410   1.106 -0.5124 -0.2416 -3.1003
  990TIP3    H224530   2.743   4.335   1.101  0.5321  0.9764  1.3840
  991TIP3   OH224531   2.179   1.150   8.757 -0.3070  0.7775 -0.6912
  991TIP3    H124532   2.134   1.087   8.813  2.1515 -0.4664  0.0151
  991TIP3    H224533   2.116   1.171   8.688 -2.8103  1.0486  1.5405
  992TIP3   OH224534   1.808   4.045   1.563  0.4308 -0.0830 -0.2253
  992TIP3    H124535   1.852   4.067   1.481  0.2007 -0.6985 -0.5122
  992TIP3    H224536   1.836   3.956   1.583  0.4701  0.0508  0.3606
  993TIP3   OH224537   1.042   5.751   1.962 -0.2566 -0.0510  0.0265
  993TIP3    H124538   1.078   5.818   2.021 -0.1830 -0.6658  0.7016
  993TIP3    H224539   1.116   5.727   1.906 -0.2016  0.2271 -0.0210
  994TIP3   OH224540   3.629   5.512   1.198 -0.2444  0.4521  0.3926
  994TIP3    H124541   3.716   5.486   1.168 -0.5922  1.6985 -1.8372
  994TIP3    H224542   3.631   5.495   1.292  0.3246 -5.4917 -0.2601
  995TIP3   OH224543   2.312   5.968   0.286 -0.0788  0.0741  0.0058
  995TIP3    H124544   2.287   6.031   0.219 -1.2929  0.5253  0.8647
  995TIP3    H224545   2.292   6.011   0.369 -2.4669 -1.9842  0.6200
  996TIP3   OH224546   5.340   3.044   2.633  0.1671  0.0228 -0.2762
  996TIP3    H124547   5.274   3.000   2.686  1.6780 -1.3674  0.5711
  996TIP3    H224548   5.346   2.991   2.553  0.8263 -0.3741  0.0235
  997TIP3   OH224549   6.097   2.068   0.685 -0.1819 -0.0898  0.6439
  997TIP3    H124550   6.162   2.002   0.662 -0.2663 -1.9309  4.7709
  997TIP3    H224551   6.019   2.018   0.709 -1.4506  1.7662  0.5815
  998TIP3   OH224552   2.638   1.920   2.906  0.0417  0.3841 -0.5327
  998TIP3    H124553   2.675   2.005   2.929  0.9669  0.6062 -2.6252
  998TIP3    H224554   2.685   1.857   2.961  0.4053  1.0850 -0.0342
  999TIP3   OH224555   0.941   5.193   8.303 -0.3254  0.1884 -0.2666
  999TIP3    H124556   0.947   5.143   8.222  0.4070  0.5019 -0.4081
  999TIP3    H224557   0.918   5.282   8.274 -2.7127 -0.2574  0.0415
 1000TIP3   OH224558   2.435   4.320   0.823  0.3119  0.5241  0.3157
 1000TIP3    H124559   2.525   4.340   0.795  1.0544 -0.4530  1.9110
 1000TIP3    H224560   2.438   4.326   0.918 -1.3594  0.5375  0.3851
 1001TIP3   OH224561   5.923   4.168   7.328  0.1129 -0.1885  0.2949
 1001TIP3    H124562   5.994   4.120   7.284  1.0021 -2.3641  3.7284
 1001TIP3    H224563   5.962   4.250   7.356  1.0597 -0.9817  1.3590
 1002TIP3   OH224564   2.383   2.822   8.394 -0.1888 -0.0069  0.0228
 1002TIP3    H124565   2.474   2.849   8.404  0.3150 -1.7876  0.6993
 1002TIP3    H224566   2.352   2.809   8.484 -1.1671  0.7231 -0.1975
 1003TIP3   OH224567   4.212   0.297   0.287  0.6548  0.0594  0.6576
 1003TIP3    H124568   4.254   0.223   0.244 -1.2150 -1.2319  0.9587
 1003TIP3    H224569   4.156   0.258   0.354 -1.4608  1.6443 -0.0928
 1004TIP3   OH224570   6.397   2.875   1.008  0.1619 -0.0518 -0.3650
 1004TIP3    H124571   6.420   2.783   1.017  0.6386  0.1506  0.6504
 1004TIP3    H224572   6.327   2.877   0.943 -0.3091 -1.1961  0.0920
 1005TIP3   OH224573   5.759   2.765   2.633  0.2670  0.1430  0.0155
 1005TIP3    H124574   5.782   2.730   2.547  0.8878  0.0362  0.2221
 1005TIP3    H224575   5.736   2.856   2.617  0.7534  0.2267 -0.2068
 1006TIP3   OH224576   5.947   3.989   0.739  0.1798  0.0806 -0.3290
 1006TIP3    H124577   5.904   3.963   0.657  0.1884 -1.1741  0.0501
 1006TIP3    H224578   6.040   3.972   0.723  0.0382 -1.4800  0.4031
 1007TIP3   OH224579   1.598   5.129   1.742  0.1571 -0.3543  0.3054
 1007TIP3    H124580   1.661   5.057   1.740  2.5493  1.6071 -0.6367
 1007TIP3    H224581   1.519   5.094   1.702  1.4498 -2.2745 -0.7126
 1008TIP3   OH224582   6.640   0.277   2.014 -0.1395  0.3433  0.2849
 1008TIP3    H124583   6.632   0.366   1.979  0.1138  0.5558  0.7518
 1008TIP3    H224584   6.641   0.220   1.936  0.4124  0.8047 -0.0559
 1009TIP3   OH224585   5.431   5.622   8.496 -0.5743  0.2899 -0.3988
 1009TIP3    H124586   5.415   5.670   8.414 -0.9868 -0.1414 -0.5750
 1009TIP3    H224587   5.451   5.532   8.468  0.1564  0.3436 -0.0711
 1010TIP3   OH224588   1.366   5.152   0.374 -0.3066  0.1810  0.3357
 1010TIP3    H124589   1.316   5.231   0.356 -1.0613 -0.6690 -1.5741
 1010TIP3    H224590   1.440   5.156   0.313  1.2301  0.7087  2.1213
 1011TIP3   OH224591   6.130   2.706   0.767 -0.4615  0.1379  0.0899
 1011TIP3    H124592   6.187   2.640   0.807 -1.6578 -1.5796 -0.8838
 1011TIP3    H224593   6.120   2.773   0.835  2.5033  0.4645  0.3723
 1012TIP3   OH224594   0.382   5.526   2.351  0.0014 -0.2337 -0.3481
 1012TIP3    H124595   0.471   5.493   2.340  0.3564  0.9625 -1.2717
 1012TIP3    H224596   0.343   5.518   2.264 -1.0599 -1.4396  0.2107
 1013TIP3   OH224597   2.794   0.840   7.752  0.1379 -0.7420  0.3317
 1013TIP3    H124598   2.796   0.901   7.678  0.3715  0.0569  0.9797
 1013TIP3    H224599   2.829   0.758   7.717 -3.2786 -1.6147 -1.4942
 1014TIP3   OH224600   6.336   6.656   7.686 -0.1554  0.0282  0.3696
 1014TIP3    H124601   6.377   6.656   7.600 -1.7470  1.4342 -0.4410
 1014TIP3    H224602   6.242   6.663   7.669 -0.4121  2.7288  2.1881
 1015TIP3   OH224603   3.049   1.114   1.914 -0.2509  0.4561  0.5476
 1015TIP3    H124604   3.067   1.207   1.923 -0.4775  0.6334 -0.7577
 1015TIP3    H224605   3.052   1.097   1.820  0.0604 -0.9100  0.7732
 1016TIP3   OH224606   2.008   3.813   0.401  0.0432 -0.0363  0.5405
 1016TIP3    H124607   2.017   3.785   0.310  0.9138 -0.0543  0.6224
 1016TIP3    H224608   2.045   3.741   0.452 -0.8321 -0.2162  0.9400
 1017TIP3   OH224609   1.678   5.822   7.505  0.3075  0.0872 -0.5818
 1017TIP3    H124610   1.701   5.898   7.451 -0.2028  0.6014 -0.0861
 1017TIP3    H224611   1.749   5.760   7.489  0.0285  0.1025 -2.0609
 1018TIP3   OH224612   3.657   6.674   2.120 -0.0903  0.5097  0.3293
 1018TIP3    H124613   3.741   6.666   2.165  0.1905  2.7518  0.2865
 1018TIP3    H224614   3.607   6.735   2.174 -1.6626 -0.6464  0.2483
 1019TIP3   OH224615   2.170   0.401   2.503 -0.2478 -0.0951  0.1600
 1019TIP3    H124616   2.088   0.366   2.538 -1.4620  1.9810 -0.4310
 1019TIP3    H224617   2.172   0.492   2.534 -0.0040  1.0103 -2.7821
 1020TIP3   OH224618   6.085   0.227   7.803  0.1836  0.2856 -0.3010
 1020TIP3    H124619   6.059   0.152   7.858  1.8977  0.4367  0.7908
 1020TIP3    H224620   6.006   0.280   7.797 -0.9946 -1.4170 -0.8204
 1021TIP3   OH224621   1.029   1.996   8.098 -0.0631 -0.1342  0.1887
 1021TIP3    H124622   1.019   1.908   8.060  0.6340  0.4603 -1.4348
 1021TIP3    H224623   0.996   2.055   8.031  1.1570  0.9623  0.5214
 1022TIP3   OH224624   1.030   5.014   2.008 -0.6666  0.0645  0.2292
 1022TIP3    H124625   0.979   5.087   2.043 -0.0280  0.2654  0.7558
 1022TIP3    H224626   1.094   4.994   2.077  0.5529  0.4032 -0.7591
 1023TIP3   OH224627   6.078   5.263   1.006 -0.5066  0.4332  0.2393
 1023TIP3    H124628   6.148   5.274   1.069  0.1769 -0.0798 -0.4206
 1023TIP3    H224629   6.018   5.200   1.046 -0.0428  0.0596  0.3437
 1024TIP3   OH224630   5.486   0.583   8.369 -0.1074 -0.1573 -0.0330
 1024TIP3    H124631   5.496   0.566   8.463 -0.4154 -1.4762 -0.2110
 1024TIP3    H224632   5.394   0.563   8.352  0.2441 -1.1557 -0.8363
 1025TIP3   OH224633   0.178   3.411   2.144  0.3473  0.7664  0.3064
 1025TIP3    H124634   0.176   3.494   2.192  1.2142  1.5294 -0.9005
 1025TIP3    H224635   0.177   3.437   2.052 -2.3365 -0.6610 -0.1708
 1026TIP3   OH224636   0.361   4.876   1.691  0.1432 -0.6961  0.0352
 1026TIP3    H124637   0.334   4.909   1.605 -1.3505 -1.3820  0.2121
 1026TIP3    H224638   0.323   4.937   1.753  1.0803 -0.2988  0.2320
 1027TIP3   OH224639   4.241   5.743   7.922  0.4469  0.5895  0.3500
 1027TIP3    H124640   4.167   5.769   7.868  0.3474 -0.5140 -0.0871
 1027TIP3    H224641   4.269   5.659   7.885  1.7615  0.8645  0.6592
 1028TIP3   OH224642   5.053   0.758   1.499 -0.1033  0.1395 -0.4811
 1028TIP3    H124643   4.962   0.764   1.525 -0.3285 -0.2962 -1.1347
 1028TIP3    H224644   5.102   0.794   1.573 -0.7949  0.2919 -0.0912
 1029TIP3   OH224645   4.866   4.463   8.651 -0.0740 -0.0616  0.3400
 1029TIP3    H124646   4.944   4.512   8.624  0.7037 -1.5850 -0.3449
 1029TIP3    H224647   4.794   4.506   8.606  0.6111  0.3042 -0.4409
 1030TIP3   OH224648   6.633   3.007   7.273 -0.0084  0.0624  0.0462
 1030TIP3    H124649   6.560   3.066   7.259 -0.0977  0.6475  2.4955
 1030TIP3    H224650   6.710   3.056   7.246 -0.2749  0.4870  0.0587
 1031TIP3   OH224651   3.569   0.521   0.771 -0.6583  0.2268  0.1795
 1031TIP3    H124652   3.648   0.552   0.727  0.4479 -0.7230  1.3938
 1031TIP3    H224653   3.577   0.426   0.769 -1.8651  0.1152  0.1907
 1032TIP3   OH224654   4.345   5.818   1.140  0.5451  0.3044  0.0747
 1032TIP3    H124655   4.390   5.870   1.206 -2.2286  1.0471  1.5213
 1032TIP3    H224656   4.345   5.729   1.176  2.0109 -0.0046 -0.6181
 1033TIP3   OH224657   6.565   0.853   7.827 -0.5577  0.1005  0.4397
 1033TIP3    H124658   6.636   0.906   7.792  1.9023 -1.3454  2.8742
 1033TIP3    H224659   6.595   0.762   7.817 -2.9890 -0.7173 -0.2259
 1034TIP3   OH224660   0.759   1.570   0.559  0.2318 -0.3094 -0.7315
 1034TIP3    H124661   0.701   1.556   0.634  0.9145 -1.3225 -0.3628
 1034TIP3    H224662   0.803   1.653   0.577 -1.8956  1.1038 -1.5863
 1035TIP3   OH224663   5.936   2.060   3.319  0.1762 -0.4487  0.0477
 1035TIP3    H124664   5.852   2.015   3.313 -0.5212  0.9717 -1.6444
 1035TIP3    H224665   5.914   2.150   3.342  0.9640  0.4890 -2.4791
 1036TIP3   OH224666   4.377   2.709   1.463 -0.3590  0.6328  0.1948
 1036TIP3    H124667   4.343   2.798   1.465 -2.0520  0.0365 -0.1471
 1036TIP3    H224668   4.469   2.718   1.486 -0.7002  2.3623  1.0732
 1037TIP3   OH224669   2.745   6.298   1.230  0.0122  0.4127  0.5312
 1037TIP3    H124670   2.713   6.388   1.234  1.3189  0.8581  2.1900
 1037TIP3    H224671   2.823   6.303   1.175 -0.7616 -0.0295 -0.6501
 1038TIP3   OH224672   4.717   6.791   8.739 -0.5332  0.4896 -0.8215
 1038TIP3    H124673   4.711   6.771   8.833  0.0715  3.0255 -0.1579
 1038TIP3    H224674   4.734   6.707   8.698  1.9146 -0.4071  1.6502
 1039TIP3   OH224675   0.164   6.200   1.957 -0.3210  0.1483 -0.0335
 1039TIP3    H124676   0.160   6.233   2.047  1.0820 -2.9134  1.2936
 1039TIP3    H224677   0.073   6.190   1.931 -0.7572  0.8218  1.1524
 1040TIP3   OH224678   0.991   0.519   1.929 -0.9090  0.1471  0.4261
 1040TIP3    H124679   0.912   0.522   1.875  0.3479  1.0772 -1.4664
 1040TIP3    H224680   1.040   0.443   1.896  0.6466  1.6891 -0.9826
 1041TIP3   OH224681   3.604   6.461   1.010  0.0568 -0.2502 -0.0006
 1041TIP3    H124682   3.543   6.394   1.039  0.0197  0.2366  1.0859
 1041TIP3    H224683   3.566   6.494   0.928 -1.9975  1.0964  1.4017
 1042TIP3   OH224684   4.920   3.275   2.412 -0.1401  1.0971  0.2172
 1042TIP3    H124685   4.958   3.311   2.492 -0.6752  1.2744  0.3930
 1042TIP3    H224686   4.830   3.307   2.411 -1.9384 -3.0674  2.2679
 1043TIP3   OH224687   4.928   6.550   2.344  0.2728  0.3337  0.2179
 1043TIP3    H124688   4.882   6.497   2.409 -1.9643  1.6823 -0.1340
 1043TIP3    H224689   5.010   6.575   2.387  0.4973 -1.7387  1.1025
 1044TIP3   OH224690   2.650   4.288   0.077  0.3885  0.3884 -0.2798
 1044TIP3    H124691   2.670   4.258  -0.011  0.5402 -0.1041 -0.0757
 1044TIP3    H224692   2.571   4.342   0.066  0.0707 -0.1398 -0.6326
 1045TIP3   OH224693   1.379   1.778   0.875 -0.1956  0.2123 -0.3684
 1045TIP3    H124694   1.423   1.693   0.876 -1.6852 -0.6035 -0.5494
 1045TIP3    H224695   1.286   1.756   0.864 -0.6561  1.8481  0.0203
 1046TIP3   OH224696   4.311   0.093   2.552 -0.0836 -0.0580  0.3297
 1046TIP3    H124697   4.245   0.137   2.605 -1.4970  1.2109 -2.3190
 1046TIP3    H224698   4.394   0.133   2.579 -0.6941  0.3635  1.6876
 1047TIP3   OH224699   3.345   6.430   2.505 -0.9825 -0.3630  0.0448
 1047TIP3    H124700   3.297   6.354   2.472 -0.1858 -0.2622 -1.3922
 1047TIP3    H224701   3.305   6.505   2.461  0.2340 -0.2439 -0.8945
 1048TIP3   OH224702   0.001   6.628   8.382 -0.1518 -0.1607 -0.0742
 1048TIP3    H124703   0.040   6.546   8.353 -0.1090 -0.4823  0.8639
 1048TIP3    H224704   0.069   6.694   8.365 -0.5568 -0.1446 -1.7429
 1049TIP3   OH224705   6.140   1.283   8.758  0.0063 -0.1132 -0.1227
 1049TIP3    H124706   6.187   1.233   8.824 -0.7101 -1.4343 -0.5845
 1049TIP3    H224707   6.055   1.301   8.797  0.9863  2.7447  0.9275
 1050TIP3   OH224708   5.203   2.874   7.848 -0.1538 -0.1999 -0.2988
 1050TIP3    H124709   5.118   2.902   7.816 -0.0072 -1.4956 -1.9999
 1050TIP3    H224710   5.185   2.792   7.895 -0.0401  0.4297  0.8903
 1051TIP3   OH224711   2.574   4.208   7.217  0.1340  0.6130 -0.0677
 1051TIP3    H124712   2.652   4.228   7.269  0.7286  0.3257 -0.8297
 1051TIP3    H224713   2.516   4.282   7.231 -0.9463 -0.6692  3.2342
 1052TIP3   OH224714   0.112   3.590   0.362 -0.1384 -0.7538 -0.5164
 1052TIP3    H124715   0.070   3.602   0.448 -1.2535 -1.2601 -0.9660
 1052TIP3    H224716   0.190   3.644   0.366 -1.3729  1.0766 -0.0016
 1053TIP3   OH224717   3.235   1.035   2.173 -0.1625 -0.1001  0.6632
 1053TIP3    H124718   3.184   1.026   2.093 -2.4959 -0.2112  2.0760
 1053TIP3    H224719   3.325   1.013   2.147 -0.8125  0.0284 -1.9137
 1054TIP3   OH224720   2.760   6.054   1.683  0.6953  0.3814  0.2928
 1054TIP3    H124721   2.743   6.083   1.772 -2.4897 -3.0465  1.0443
 1054TIP3    H224722   2.709   6.113   1.628 -2.2154 -0.9355  1.3823
 1055TIP3   OH224723   6.456   2.168   1.399  0.2490  0.0634  0.3717
 1055TIP3    H124724   6.516   2.120   1.456 -0.6408 -0.4028  0.9244
 1055TIP3    H224725   6.432   2.105   1.331 -0.1863  0.0184  0.5655
 1056TIP3   OH224726   3.520   2.883   2.491  0.4852 -0.5382 -0.2073
 1056TIP3    H124727   3.561   2.908   2.574 -1.0493  4.0886 -0.5799
 1056TIP3    H224728   3.426   2.886   2.509  0.1418 -0.6693 -1.8201
 1057TIP3   OH224729   4.568   6.589   0.423 -0.3417 -0.3926 -0.0674
 1057TIP3    H124730   4.519   6.542   0.490  0.4640 -0.3181  0.5877
 1057TIP3    H224731   4.636   6.529   0.396  0.1736  0.0774  0.1659
 1058TIP3   OH224732   0.703   1.521   1.150  0.0196  0.1233 -0.2962
 1058TIP3    H124733   0.725   1.577   1.224 -0.9494 -1.3587  1.1775
 1058TIP3    H224734   0.631   1.568   1.106 -0.8348  0.0370  0.9589
 1059TIP3   OH224735   4.249   2.840   2.207  0.2331  0.3653 -0.0433
 1059TIP3    H124736   4.310   2.768   2.226 -0.6638 -0.7215 -1.1098
 1059TIP3    H224737   4.163   2.802   2.224 -0.2036  1.6916  0.8475
 1060TIP3   OH224738   1.132   0.171   3.159  0.2518 -0.1979  0.1750
 1060TIP3    H124739   1.201   0.237   3.155  0.0363 -0.0068 -2.8162
 1060TIP3    H224740   1.052   0.219   3.139  0.0999 -1.2818 -2.1305
 1061TIP3   OH224741   1.580   2.129   1.800  0.1506 -0.4575  0.2161
 1061TIP3    H124742   1.664   2.088   1.780  0.3323 -0.7290  1.4173
 1061TIP3    H224743   1.522   2.104   1.729  1.7571  1.9251 -2.1091
 1062TIP3   OH224744   6.439   2.822   8.276  0.1929 -0.5494  0.0935
 1062TIP3    H124745   6.447   2.765   8.352 -0.9610 -0.1744  0.5097
 1062TIP3    H224746   6.505   2.890   8.290  0.9681 -1.2742  0.0290
 1063TIP3   OH224747   2.764   1.756   1.884 -0.3994  0.0547  0.3185
 1063TIP3    H124748   2.797   1.714   1.963 -1.2738 -1.3547 -0.0103
 1063TIP3    H224749   2.731   1.683   1.831 -0.2506  1.0044 -1.1407
 1064TIP3   OH224750   2.757   0.351   1.558  0.2242  0.2646 -0.6535
 1064TIP3    H124751   2.733   0.392   1.641 -0.2197 -0.0581 -0.6190
 1064TIP3    H224752   2.789   0.264   1.583 -3.8883 -1.5738 -1.0721
 1065TIP3   OH224753   5.756   5.390   1.518 -0.8796  0.1204 -0.4145
 1065TIP3    H124754   5.851   5.401   1.512 -1.0453  2.3133  0.0637
 1065TIP3    H224755   5.744   5.297   1.540  1.3080  0.3771  2.4913
 1066TIP3   OH224756   1.616   4.252   7.173 -0.3841  0.1871  0.5269
 1066TIP3    H124757   1.665   4.219   7.097  1.1665  1.3416  0.9643
 1066TIP3    H224758   1.545   4.190   7.185 -1.2435  0.4839 -2.4329
 1067TIP3   OH224759   0.542   6.077   0.240 -0.0418  0.2604 -0.1603
 1067TIP3    H124760   0.485   6.150   0.215  0.4945  1.6382  2.2859
 1067TIP3    H224761   0.606   6.072   0.169  0.5138  2.9019  0.0257
 1068TIP3   OH224762   0.884   6.611   3.158  0.5338  0.0419 -0.1436
 1068TIP3    H124763   0.935   6.589   3.079  0.4287  0.3517 -0.2992
 1068TIP3    H224764   0.944   6.663   3.212  1.2899 -1.8431  0.9046
 1069TIP3   OH224765   1.680   2.028   8.358  0.2986 -0.3946  0.2931
 1069TIP3    H124766   1.681   1.944   8.312 -1.6022  0.4825 -1.5477
 1069TIP3    H224767   1.616   2.016   8.428  1.7869 -1.1594  1.5606
 1070TIP3   OH224768   4.973   5.775   1.604  0.8393 -0.0812  0.0577
 1070TIP3    H124769   5.030   5.738   1.538  0.6684 -0.6216  0.2079
 1070TIP3    H224770   4.943   5.857   1.566  1.9524  0.3654  0.1079
 1071TIP3   OH224771   6.447   5.753   1.068  0.2427  1.0103 -0.3267
 1071TIP3    H124772   6.540   5.734   1.069 -0.0278 -0.4521 -0.5395
 1071TIP3    H224773   6.405   5.667   1.074 -1.0872  1.6735  0.2956
 1072TIP3   OH224774   0.616   1.254   7.878 -0.1771  0.3272  0.0561
 1072TIP3    H124775   0.686   1.310   7.845  0.3062  1.1076  2.2665
 1072TIP3    H224776   0.595   1.289   7.965 -2.9985 -0.1761 -0.3209
 1073TIP3   OH224777   1.180   0.351   7.326  0.2034  0.1667  0.3118
 1073TIP3    H124778   1.148   0.412   7.259  1.1058  1.0063  0.6081
 1073TIP3    H224779   1.160   0.394   7.409 -0.2276 -0.5118  0.5617
 1074TIP3   OH224780   1.474   4.358   8.112  0.1046  0.2341 -0.3848
 1074TIP3    H124781   1.559   4.315   8.122  0.2723  0.5587 -0.3994
 1074TIP3    H224782   1.496   4.449   8.094 -0.2584  0.5479  0.7168
 1075TIP3   OH224783   2.863   1.712   1.082  0.3395 -0.1429  0.5685
 1075TIP3    H124784   2.943   1.764   1.070  1.1727 -1.4855  0.0009
 1075TIP3    H224785   2.891   1.638   1.137 -0.7001 -0.2443  0.9853
 1076TIP3   OH224786   3.801   4.644   1.149 -0.4781  0.2988 -0.1805
 1076TIP3    H124787   3.778   4.577   1.084 -1.2844 -1.7320  2.0671
 1076TIP3    H224788   3.800   4.598   1.233  0.1490  2.8920  1.3644
 1077TIP3   OH224789   3.309   0.404   3.048 -0.2613  0.5293  0.2440
 1077TIP3    H124790   3.395   0.371   3.020 -0.8368  0.6019 -1.7809
 1077TIP3    H224791   3.329   0.485   3.094  0.7764  0.4531 -0.0368
 1078TIP3   OH224792   5.885   5.247   1.262  0.3397 -0.6006 -0.3083
 1078TIP3    H124793   5.909   5.189   1.334 -0.7036 -0.2021  0.3933
 1078TIP3    H224794   5.888   5.335   1.300 -0.2104 -0.3830 -0.7495
 1079TIP3   OH224795   1.954   5.984   2.128 -0.5151 -0.5156  0.3267
 1079TIP3    H124796   1.919   6.067   2.162 -0.6730 -0.7638  0.7688
 1079TIP3    H224797   1.907   5.971   2.045 -1.1231 -0.5985  0.6802
 1080TIP3   OH224798   1.955   2.619   8.572  0.6888  0.0674 -0.0119
 1080TIP3    H124799   2.036   2.570   8.580  0.6804  0.0470 -0.0521
 1080TIP3    H224800   1.981   2.710   8.586  0.4923 -0.0700  1.3689
 1081TIP3   OH224801   5.152   3.636   7.702  0.2106 -0.2064  0.2151
 1081TIP3    H124802   5.059   3.647   7.721  0.4294  1.9945  0.2906
 1081TIP3    H224803   5.155   3.612   7.609 -0.4271  0.1939  0.0841
 1082TIP3   OH224804   4.456   0.774   1.801 -0.1278 -0.2349 -0.0238
 1082TIP3    H124805   4.362   0.755   1.805 -0.2895  0.4085 -0.5894
 1082TIP3    H224806   4.483   0.779   1.893 -0.2548 -2.2128  0.1686
 1083TIP3   OH224807   0.629   3.889   0.345 -0.9543 -0.2757 -0.6029
 1083TIP3    H124808   0.642   3.968   0.292  2.6627 -0.6415 -0.5170
 1083TIP3    H224809   0.546   3.905   0.391 -1.1907  2.7131 -1.8079
 1084TIP3   OH224810   6.159   0.450   1.768 -0.2973 -0.0328 -0.8335
 1084TIP3    H124811   6.164   0.454   1.673  0.8668 -1.1849 -0.8558
 1084TIP3    H224812   6.191   0.535   1.798  0.4202 -0.0733 -1.4608
 1085TIP3   OH224813   4.054   4.351   7.966 -0.5143  0.3486  0.2599
 1085TIP3    H124814   3.966   4.319   7.947 -0.4341  0.0158  0.4418
 1085TIP3    H224815   4.111   4.300   7.910 -0.5008  1.1228 -0.4526
 1086TIP3   OH224816   2.825   1.531   0.649  0.5001  0.0000  0.5828
 1086TIP3    H124817   2.846   1.482   0.570  0.1868 -0.9400  1.0606
 1086TIP3    H224818   2.739   1.569   0.631  0.4095 -0.2469  0.4808
 1087TIP3   OH224819   0.321   0.766   7.685  0.1235 -0.0387 -0.4491
 1087TIP3    H124820   0.406   0.757   7.642 -0.2151 -2.0446 -0.8116
 1087TIP3    H224821   0.308   0.683   7.730 -1.3027  0.5327  0.2615
 1088TIP3   OH224822   5.411   3.675   8.379 -0.4793  0.2463  0.7470
 1088TIP3    H124823   5.321   3.687   8.410 -0.1464  0.1825  1.7922
 1088TIP3    H224824   5.425   3.748   8.318 -1.5012 -0.2242 -0.0798
 1089TIP3   OH224825   3.019   6.139   1.979 -0.1274  0.4862 -0.3772
 1089TIP3    H124826   2.962   6.087   2.035 -1.0866 -0.5670 -2.2223
 1089TIP3    H224827   3.106   6.100   1.989 -0.5137 -0.4040 -0.4702
 1090TIP3   OH224828   5.698   3.554   7.548 -0.0497 -0.0598 -0.1335
 1090TIP3    H124829   5.660   3.640   7.567  1.5484  0.6205  0.1485
 1090TIP3    H224830   5.730   3.562   7.458  2.2972  0.5139  0.7028
 1091TIP3   OH224831   2.538   0.628   1.613  0.2653  0.1391 -0.0507
 1091TIP3    H124832   2.534   0.630   1.518 -0.0735 -1.6839 -0.1068
 1091TIP3    H224833   2.543   0.720   1.639  3.5116  0.6343 -1.9193
 1092TIP3   OH224834   4.583   1.206   0.882 -0.9576 -0.1657  0.0898
 1092TIP3    H124835   4.516   1.211   0.950 -2.9012 -0.8524 -1.6633
 1092TIP3    H224836   4.592   1.113   0.864  0.8537 -0.1267  0.5846
 1093TIP3   OH224837   2.593   2.615   1.553 -0.4578  0.1440 -0.4722
 1093TIP3    H124838   2.575   2.701   1.592 -0.1624  0.6609 -1.4515
 1093TIP3    H224839   2.553   2.553   1.614  0.5690  0.8793  1.0235
 1094TIP3   OH224840   1.763   2.200   8.039  0.3361 -0.1214  0.4409
 1094TIP3    H124841   1.670   2.184   8.054 -0.1410 -0.5084 -2.3257
 1094TIP3    H224842   1.792   2.125   7.987  2.5799 -0.6944  2.3612
 1095TIP3   OH224843   5.616   3.908   8.226  0.3269 -0.4390 -0.3464
 1095TIP3    H124844   5.548   3.901   8.159  0.5061 -2.1989 -0.3980
 1095TIP3    H224845   5.686   3.851   8.194  0.5288 -1.0979  1.2122
 1096TIP3   OH224846   4.649   6.752   0.983 -0.9872  0.6967  0.0242
 1096TIP3    H124847   4.602   6.771   0.901 -0.7120  1.0060 -0.0655
 1096TIP3    H224848   4.658   6.657   0.984 -1.6045  0.6338  0.0349
 1097TIP3   OH224849   3.441   5.906   1.080  0.0592 -0.1933 -0.2937
 1097TIP3    H124850   3.460   5.813   1.080  0.1394 -0.1942  0.8461
 1097TIP3    H224851   3.459   5.934   1.170  3.6018  1.6500 -1.4019
 1098TIP3   OH224852   4.908   2.470   0.391 -0.4898 -0.3496 -0.7942
 1098TIP3    H124853   4.913   2.442   0.299 -1.0411  0.6836 -1.1559
 1098TIP3    H224854   4.821   2.442   0.419 -0.7817  0.3764 -0.9541
 1099TIP3   OH224855   5.079   0.715   8.188  0.6507  0.4256 -0.7956
 1099TIP3    H124856   4.984   0.722   8.198  0.6118 -0.9091 -0.0166
 1099TIP3    H224857   5.113   0.798   8.222 -0.2080  0.6975 -0.5822
 1100TIP3   OH224858   6.390   1.352   1.550  0.0255  1.2743  0.3857
 1100TIP3    H124859   6.345   1.361   1.634  1.3212  1.1645  1.1218
 1100TIP3    H224860   6.325   1.378   1.485 -1.9244 -1.1884  1.1817
 1101TIP3   OH224861   5.523   1.603   0.168  0.4442  0.1659 -0.5102
 1101TIP3    H124862   5.521   1.510   0.146 -0.1081  0.4970 -1.9449
 1101TIP3    H224863   5.567   1.606   0.253  0.7807 -1.3669 -0.5948
 1102TIP3   OH224864   0.005   1.214   8.299  0.2202  0.2351  0.7186
 1102TIP3    H124865  -0.075   1.162   8.296  0.6813 -0.4705  0.2255
 1102TIP3    H224866   0.045   1.201   8.213 -0.0330  2.0341  0.2889
 1103TIP3   OH224867   0.435   6.581   1.659 -0.5127 -0.3001  0.3989
 1103TIP3    H124868   0.398   6.661   1.624 -0.1752 -0.3467 -0.0703
 1103TIP3    H224869   0.364   6.543   1.711 -2.1985 -1.8393 -2.7197
 1104TIP3   OH224870   2.031   6.654   8.818  0.3359 -0.4772 -0.4264
 1104TIP3    H124871   2.100   6.706   8.775 -1.1579  1.6920 -0.3297
 1104TIP3    H224872   1.976   6.623   8.746  0.0322 -0.1149 -0.3547
 1105TIP3   OH224873   6.619   3.464   0.523 -0.4975  0.1540  0.0397
 1105TIP3    H124874   6.694   3.523   0.531 -0.9110  0.9129 -1.4725
 1105TIP3    H224875   6.575   3.471   0.608  0.2533  0.9071  0.3845
 1106TIP3   OH224876   5.918   4.906   1.639 -0.0806 -1.0993 -0.1187
 1106TIP3    H124877   5.965   4.879   1.718  1.8253 -1.6039 -1.3905
 1106TIP3    H224878   5.922   4.831   1.581 -1.4428 -0.7232 -0.7466
 1107TIP3   OH224879   0.391   2.326   0.710  1.0195 -0.9093 -0.2269
 1107TIP3    H124880   0.480   2.360   0.707  1.5499 -2.1845  0.3074
 1107TIP3    H224881   0.394   2.256   0.776 -0.2594 -1.2937 -0.5462
 1108TIP3   OH224882   0.691   2.925   0.446  0.2417  0.3893  1.0484
 1108TIP3    H124883   0.743   2.869   0.504  0.5302 -0.2715  0.1753
 1108TIP3    H224884   0.679   3.007   0.494  0.0175 -0.3372  2.2589
 1109TIP3   OH224885   2.059   4.711   0.224  0.5310 -0.0457  0.1020
 1109TIP3    H124886   2.079   4.663   0.304  0.8460 -0.4570 -0.2145
 1109TIP3    H224887   2.093   4.655   0.154 -0.2907  0.0155 -0.3538
 1110TIP3   OH224888   1.654   0.511   2.039  0.5708  0.0449 -0.2051
 1110TIP3    H124889   1.684   0.514   1.948 -2.0169 -0.9280 -1.1982
 1110TIP3    H224890   1.697   0.585   2.081  0.0073  2.0119 -2.8565
 1111TIP3   OH224891   3.636   6.141   1.542  0.1015 -0.2430 -0.7056
 1111TIP3    H124892   3.572   6.173   1.478 -0.7732  0.6724  0.5758
 1111TIP3    H224893   3.583   6.120   1.619  1.5007  2.0615  0.9778
 1112TIP3   OH224894   2.170   1.914   1.897  0.2075  0.0384 -0.6441
 1112TIP3    H124895   2.251   1.887   1.940  0.0057 -1.3935 -1.0971
 1112TIP3    H224896   2.113   1.837   1.904 -1.7407  1.5388  1.0951
 1113TIP3   OH224897   2.091   4.296   1.458  0.1128 -0.0695 -0.0049
 1113TIP3    H124898   2.183   4.310   1.436  0.4212  0.2563  1.3802
 1113TIP3    H224899   2.074   4.205   1.437  0.4290  0.1509 -1.3116
 1114TIP3   OH224900   5.827   5.295   0.883 -0.1018  0.2256 -0.5146
 1114TIP3    H124901   5.917   5.312   0.912 -0.1833 -0.1342 -0.0498
 1114TIP3    H224902   5.778   5.279   0.963 -1.0210  2.3412 -0.5906
 1115TIP3   OH224903   0.579   1.486   8.064 -0.3507 -0.2871 -0.2405
 1115TIP3    H124904   0.625   1.570   8.057  0.7699 -0.9933 -1.9379
 1115TIP3    H224905   0.507   1.493   8.002  0.9980 -1.2838 -2.0251
 1116TIP3   OH224906   5.850   2.955   8.136 -0.0319 -0.1034 -0.1278
 1116TIP3    H124907   5.843   2.871   8.091 -1.1100  0.3995 -0.9505
 1116TIP3    H224908   5.759   2.983   8.147  0.2753  0.4530  1.1150
 1117TIP3   OH224909   5.733   1.654   7.609 -0.0306 -0.6887 -0.3573
 1117TIP3    H124910   5.814   1.705   7.608  0.7870 -1.9236  0.1739
 1117TIP3    H224911   5.700   1.659   7.519  1.1951 -1.0320 -0.8383
 1118TIP3   OH224912   1.621   1.747   2.453 -0.2051  0.1037  0.0233
 1118TIP3    H124913   1.540   1.737   2.503 -0.9516  2.2890 -0.6468
 1118TIP3    H224914   1.690   1.726   2.515 -1.1831  0.6354  1.3393
 1119TIP3   OH224915   0.209   1.729   7.528 -0.0462  0.1004  0.2453
 1119TIP3    H124916   0.220   1.822   7.508 -0.1579 -0.1702 -1.2224
 1119TIP3    H224917   0.142   1.726   7.596  0.5700  1.1265  0.9167
 1120TIP3   OH224918   0.500   6.207   0.640 -0.2507 -0.0695  0.1913
 1120TIP3    H124919   0.523   6.180   0.729 -0.1286 -0.4028  0.0619
 1120TIP3    H224920   0.558   6.281   0.621 -2.0163  1.6919  1.3199
 1121TIP3   OH224921   6.329   6.094   1.808  0.2303  0.0230 -0.7606
 1121TIP3    H124922   6.300   6.062   1.723  2.3197  0.3910 -1.6576
 1121TIP3    H224923   6.283   6.178   1.819 -2.1995 -1.2868 -0.1836
 1122TIP3   OH224924   4.304   6.593   0.305 -0.0064  0.6764 -0.5324
 1122TIP3    H124925   4.230   6.594   0.367  0.4786  0.2114  0.0696
 1122TIP3    H224926   4.377   6.630   0.354  0.2702  0.7345 -0.9861
 1123TIP3   OH224927   1.620   2.712   0.385 -0.0087 -0.6521  0.1199
 1123TIP3    H124928   1.564   2.695   0.309 -0.7285 -0.4045  0.5839
 1123TIP3    H224929   1.574   2.780   0.434  1.1889  0.2620  0.0181
 1124TIP3   OH224930   4.944   0.929   6.787  0.2908 -0.6862 -0.3023
 1124TIP3    H124931   4.865   0.972   6.821  1.6420 -1.1675  4.0351
 1124TIP3    H224932   4.912   0.846   6.750 -1.2785 -0.7431  1.0727
 1125TIP3   OH224933   3.469   4.440   8.039 -0.3930 -0.1349 -1.2964
 1125TIP3    H124934   3.400   4.375   8.026 -1.3195  0.5243  0.0531
 1125TIP3    H224935   3.422   4.522   8.053  0.5977  0.1873  0.4944
 1126TIP3   OH224936   1.872   6.677   8.337 -0.5167  0.3515  0.1958
 1126TIP3    H124937   1.967   6.689   8.340 -0.5217  0.2377  1.1788
 1126TIP3    H224938   1.837   6.763   8.360 -0.6112 -0.0452  1.6763
 1127TIP3   OH224939   3.402   5.825   7.891  0.1973 -0.0689 -0.3279
 1127TIP3    H124940   3.409   5.731   7.875  1.0426 -0.1769  0.5404
 1127TIP3    H224941   3.315   5.848   7.860  0.4329 -0.8931 -1.6807
 1128TIP3   OH224942   6.213   4.655   7.663  0.4441  0.1116  0.0925
 1128TIP3    H124943   6.161   4.598   7.720 -0.5258  1.0023  0.1232
 1128TIP3    H224944   6.292   4.604   7.644 -1.1002 -1.9288 -1.2234
 1129TIP3   OH224945   5.182   1.406   8.053 -0.0489  0.2393 -0.0650
 1129TIP3    H124946   5.098   1.438   8.019 -0.6817 -1.8096 -0.5679
 1129TIP3    H224947   5.226   1.484   8.084 -0.6270  1.9049 -3.0264
 1130TIP3   OH224948   5.824   0.479   1.884  0.2197 -0.2119 -0.4345
 1130TIP3    H124949   5.835   0.409   1.949  0.5059  0.1971 -0.0412
 1130TIP3    H224950   5.803   0.557   1.935 -0.9984 -0.1886 -0.9285
 1131TIP3   OH224951   0.462   3.452   0.870  0.5746 -0.1856 -0.6808
 1131TIP3    H124952   0.552   3.418   0.876  1.1644  1.2760 -0.8288
 1131TIP3    H224953   0.455   3.483   0.779 -0.5845 -1.5566 -1.1044
 1132TIP3   OH224954   6.000   4.051   0.360  0.0722  0.6960 -0.0385
 1132TIP3    H124955   6.092   4.034   0.341 -0.0060 -0.4472  0.5492
 1132TIP3    H224956   5.995   4.146   0.371  1.5533  0.6294  1.7126
 1133TIP3   OH224957   1.047   2.520   0.831  0.4355 -0.1448 -0.1808
 1133TIP3    H124958   1.013   2.602   0.866 -1.0044 -0.3489 -0.9874
 1133TIP3    H224959   1.117   2.494   0.891  1.5837  2.1407 -0.4349
 1134TIP3   OH224960   0.342   1.021   7.580  0.3456 -0.4281  0.2689
 1134TIP3    H124961   0.256   1.042   7.546  0.6959 -0.4004 -0.6218
 1134TIP3    H224962   0.331   0.937   7.624  0.0195 -0.7848 -0.4837
 1135TIP3   OH224963   2.681   5.506   0.747 -0.2774 -0.1276  0.5204
 1135TIP3    H124964   2.696   5.561   0.824 -0.8842  0.7845  0.0048
 1135TIP3    H224965   2.587   5.509   0.733 -0.6142 -2.8620  1.5905
 1136TIP3   OH224966   0.405   2.124   8.072 -0.2169 -0.2487 -0.0500
 1136TIP3    H124967   0.331   2.176   8.041  0.4758  1.6158  1.2638
 1136TIP3    H224968   0.404   2.133   8.167  1.3467 -0.6843  0.0433
 1137TIP3   OH224969   3.385   3.753   8.565  0.0939  0.2629  0.3679
 1137TIP3    H124970   3.365   3.727   8.475 -0.3114  0.7075  0.3245
 1137TIP3    H224971   3.300   3.749   8.609  0.0697  1.2567  0.4236
 1138TIP3   OH224972   4.851   1.535   1.346 -0.2067  0.2433 -0.5198
 1138TIP3    H124973   4.921   1.526   1.410 -0.2680 -1.0034 -0.5993
 1138TIP3    H224974   4.808   1.617   1.368  2.0359  1.6929 -1.2580
 1139TIP3   OH224975   5.022   0.221   6.873  0.2931  0.3791  0.5550
 1139TIP3    H124976   5.054   0.227   6.783 -3.2183 -1.5471 -1.0286
 1139TIP3    H224977   5.026   0.311   6.907  2.4096  1.0153 -1.1770
 1140TIP3   OH224978   4.714   0.441   0.006 -0.3718  0.0613 -0.4699
 1140TIP3    H124979   4.680   0.518   0.050 -0.0134 -0.4292  0.7199
 1140TIP3    H224980   4.657   0.428  -0.070 -3.1809 -0.9847  1.6565
 1141TIP3   OH224981   2.525   4.110   6.975 -0.3054  0.5223 -0.1464
 1141TIP3    H124982   2.532   4.131   7.068  1.1654 -0.9079  0.1159
 1141TIP3    H224983   2.582   4.175   6.932  0.8001 -0.1919  0.2056
 1142TIP3   OH224984   3.232   2.149   8.256 -0.3579 -0.1709 -0.1376
 1142TIP3    H124985   3.225   2.230   8.205 -1.2107  0.3926  0.8220
 1142TIP3    H224986   3.165   2.091   8.219  0.6660 -0.6946 -1.2294
 1143TIP3   OH224987   3.597   4.230   7.448 -0.4930  0.2953  0.0689
 1143TIP3    H124988   3.634   4.256   7.363 -0.1057 -1.3030 -0.2784
 1143TIP3    H224989   3.579   4.313   7.492  1.4470  1.1687 -0.6479
 1144TIP3   OH224990   3.110   2.314   8.092  0.0310 -0.1627 -0.2984
 1144TIP3    H124991   3.076   2.387   8.145 -0.6236  0.2772 -1.2973
 1144TIP3    H224992   3.101   2.344   8.002 -2.1673 -2.2260 -0.8695
 1145TIP3   OH224993   4.900   0.855   1.939 -0.8961  0.2417  0.1349
 1145TIP3    H124994   4.881   0.793   2.010  0.6404  2.2347  2.4783
 1145TIP3    H224995   4.995   0.852   1.929 -0.9289  1.2173 -0.6698
 1146TIP3   OH224996   3.830   5.826   1.163  0.4028  0.1248  0.3410
 1146TIP3    H124997   3.778   5.778   1.098 -0.9067  1.9746 -0.0735
 1146TIP3    H224998   3.917   5.832   1.124  1.0708 -3.0978  1.0756
 1147TIP3   OH224999   0.135   3.705   0.939  0.4825  0.2743 -0.5148
 1147TIP3    H125000   0.173   3.790   0.918  0.4478  0.3102 -0.4317
 1147TIP3    H225001   0.099   3.673   0.857 -0.2363  0.7019 -0.3651
 1148TIP3   OH225002   1.812   6.076   1.467  0.0585  0.6282  0.3761
 1148TIP3    H125003   1.850   6.160   1.443  3.9284 -0.5063  1.7880
 1148TIP3    H225004   1.777   6.090   1.555  0.7601  0.7831  0.6375
 1149TIP3   OH225005   6.242   0.158   7.287  0.2652  0.3159  0.1425
 1149TIP3    H125006   6.245   0.253   7.286 -0.2714  0.4110  2.5793
 1149TIP3    H225007   6.319   0.132   7.337 -0.1188 -0.4907  0.3265
 1150TIP3   OH225008   1.573   0.130   7.875 -0.2143 -0.5342 -0.4323
 1150TIP3    H125009   1.620   0.090   7.802 -0.8392 -2.5893  0.2060
 1150TIP3    H225010   1.534   0.056   7.921 -3.0345  0.9795 -0.1889
 1151TIP3   OH225011   1.601   6.187   2.896 -0.1113 -0.3410 -0.0837
 1151TIP3    H125012   1.632   6.097   2.905  0.1353 -0.2901 -0.3857
 1151TIP3    H225013   1.655   6.237   2.957 -1.6944 -0.7072  1.6845
 1152TIP3   OH225014   2.181   4.085   7.837  0.3323  0.6916  1.1847
 1152TIP3    H125015   2.195   4.178   7.819  0.1957  0.7274  1.2600
 1152TIP3    H225016   2.234   4.068   7.916  0.4710  0.6710  1.0873
 1153TIP3   OH225017   1.092   5.367   2.814 -0.0988 -0.2056 -0.6194
 1153TIP3    H125018   1.158   5.414   2.865  0.4672 -0.5169 -1.0475
 1153TIP3    H225019   1.041   5.436   2.772  0.7484  0.0409 -1.2775
 1154TIP3   OH225020   2.862   2.116   2.265 -0.7657  0.3721 -0.1353
 1154TIP3    H125021   2.818   2.078   2.341 -0.4612 -0.2072 -0.2401
 1154TIP3    H225022   2.904   2.042   2.222  1.4020  1.0542  0.6819
 1155TIP3   OH225023   1.525   1.968   0.762 -0.0984 -0.5245 -0.0942
 1155TIP3    H125024   1.544   1.911   0.688 -0.6804  0.3268 -0.9096
 1155TIP3    H225025   1.484   1.910   0.826  2.1923 -1.7044  0.4171
 1156TIP3   OH225026   6.237   4.734   8.193  0.4931  0.6733 -0.6848
 1156TIP3    H125027   6.162   4.685   8.158  0.6080  0.9241 -1.2868
 1156TIP3    H225028   6.264   4.791   8.121  1.5818  0.2191 -0.6560
 1157TIP3   OH225029   5.148   0.723   7.924  0.3081  0.4778 -0.3553
 1157TIP3    H125030   5.146   0.765   8.009 -0.1473 -0.0786 -0.0843
 1157TIP3    H225031   5.216   0.655   7.932 -0.5715 -0.3845 -0.0347
 1158TIP3   OH225032   0.819   1.522   8.378 -0.7585 -0.1982 -0.2034
 1158TIP3    H125033   0.744   1.531   8.438 -0.5398 -0.6011  0.1340
 1158TIP3    H225034   0.793   1.570   8.300 -0.4168  1.6764  0.7953
 1159TIP3   OH225035   4.908   5.538   2.017 -0.1044  0.1923 -0.0822
 1159TIP3    H125036   4.831   5.536   1.961  0.4520  0.3689 -0.8617
 1159TIP3    H225037   4.882   5.592   2.092 -1.3544 -1.3058  0.5995
 1160TIP3   OH225038   6.320   5.528   1.046  0.1833  0.6337  0.0654
 1160TIP3    H125039   6.272   5.458   1.089  0.1687  0.9352  0.5562
 1160TIP3    H225040   6.339   5.495   0.958 -1.3016  0.6800 -0.2942
 1161TIP3   OH225041   0.754   3.439   0.529  0.5786  0.1679 -0.5240
 1161TIP3    H125042   0.659   3.429   0.521  0.4319  1.3874 -0.4745
 1161TIP3    H225043   0.772   3.524   0.489  1.2427  1.3897  2.1906
 1162TIP3   OH225044   5.051   3.161   1.432 -0.0221  0.5309 -0.0458
 1162TIP3    H125045   5.046   3.170   1.528 -0.7178 -1.3473  0.1492
 1162TIP3    H225046   5.086   3.073   1.419  1.6055  1.3689 -1.5558
 1163TIP3   OH225047   5.721   2.117   0.614  0.3912  0.3786  0.3021
 1163TIP3    H125048   5.794   2.179   0.606  0.0504  0.7445 -0.0713
 1163TIP3    H225049   5.642   2.172   0.605  0.0707  0.0059  0.8100
 1164TIP3   OH225050   1.118   5.879   0.579  0.2506  0.3147 -0.0419
 1164TIP3    H125051   1.135   5.821   0.653  2.8481 -1.6506 -2.0056
 1164TIP3    H225052   1.202   5.886   0.534 -1.1918  1.4319 -2.7980
 1165TIP3   OH225053   4.146   2.785   0.533 -0.0671 -0.0235 -0.1053
 1165TIP3    H125054   4.227   2.831   0.512 -0.2699  0.6119  0.4936
 1165TIP3    H225055   4.152   2.767   0.627 -0.9224  0.6269  0.0762
 1166TIP3   OH225056   4.155   2.090   8.728  0.0380  0.1538  0.7013
 1166TIP3    H125057   4.081   2.144   8.699  1.5284  0.8761 -2.1756
 1166TIP3    H225058   4.119   2.001   8.734 -1.6309  0.8527  2.0543
 1167TIP3   OH225059   2.157   0.347   0.560 -0.5594  0.4902  0.2786
 1167TIP3    H125060   2.163   0.290   0.637  1.0278  1.6106  1.0320
 1167TIP3    H225061   2.214   0.306   0.495 -0.2937  0.6179  0.4290
 1168TIP3   OH225062   2.049   5.007   0.192 -0.1084 -0.0130  0.1675
 1168TIP3    H125063   1.954   5.015   0.181 -0.0581 -0.1439 -0.3704
 1168TIP3    H225064   2.060   4.932   0.250 -0.3015 -0.6657 -0.6095
 1169TIP3   OH225065   0.458   5.237   8.507  0.6453 -0.0674 -0.5618
 1169TIP3    H125066   0.469   5.280   8.593  1.5682 -1.1521 -0.1223
 1169TIP3    H225067   0.378   5.185   8.517 -0.7243  1.7948 -1.2332
 1170TIP3   OH225068   1.107   6.609   7.511  0.3089  0.2435  0.3793
 1170TIP3    H125069   1.164   6.551   7.461  3.3795  3.3831 -0.0867
 1170TIP3    H225070   1.058   6.658   7.444 -1.2465 -0.7567  0.7356
 1171TIP3   OH225071   4.990   4.308   1.018  0.4740 -0.1067  0.2839
 1171TIP3    H125072   4.942   4.238   1.062  1.6577 -0.9165  0.3454
 1171TIP3    H225073   5.062   4.263   0.974  2.5470  1.2401  2.0598
 1172TIP3   OH225074   4.034   2.687   7.273  0.0251 -0.3982 -0.3123
 1172TIP3    H125075   3.970   2.724   7.333 -1.8682 -2.0436 -1.2080
 1172TIP3    H225076   4.071   2.763   7.228 -1.7194  0.5902 -0.1609
 1173TIP3   OH225077   5.352   2.594   1.951 -0.0980 -0.1427  0.3615
 1173TIP3    H125078   5.328   2.686   1.945 -0.0094  0.0392  2.0841
 1173TIP3    H225079   5.370   2.580   2.045  0.8165 -1.6754  0.0025
 1174TIP3   OH225080   3.564   3.311   2.173 -0.4404 -0.2306 -0.0323
 1174TIP3    H125081   3.518   3.227   2.168 -1.0129  0.1025 -0.3823
 1174TIP3    H225082   3.651   3.292   2.137 -1.5888  0.0388 -3.3207
 1175TIP3   OH225083   2.168   0.416   7.819  0.1849 -0.2393 -0.0682
 1175TIP3    H125084   2.227   0.356   7.774 -2.5678 -0.2418 -4.2476
 1175TIP3    H225085   2.168   0.495   7.765 -1.8168  0.6129  1.0538
 1176TIP3   OH225086   3.626   6.313   8.225  0.1135 -0.0340  0.1225
 1176TIP3    H125087   3.668   6.268   8.151 -0.0410  0.6597 -0.3982
 1176TIP3    H225088   3.539   6.273   8.231  0.4749 -0.7599  0.5454
 1177TIP3   OH225089   5.341   1.606   8.156  0.2605  0.5448 -0.4306
 1177TIP3    H125090   5.365   1.550   8.230 -1.0633  0.8205  0.2330
 1177TIP3    H225091   5.384   1.689   8.174 -0.0061  0.5905  0.0038
 1178TIP3   OH225092   6.464   2.166   7.735  0.5841  0.0484  0.2029
 1178TIP3    H125093   6.452   2.096   7.671  2.2826  1.4370 -1.7980
 1178TIP3    H225094   6.518   2.127   7.804  1.5445 -0.6508 -0.8979
 1179TIP3   OH225095   5.707   2.716   7.845 -0.2417 -0.1118 -0.1977
 1179TIP3    H125096   5.667   2.643   7.894  0.6311 -0.9410 -0.6893
 1179TIP3    H225097   5.636   2.752   7.793 -0.6699 -0.6571  0.0028
 1180TIP3   OH225098   4.720   4.568   1.458  0.1738 -0.0343 -0.4104
 1180TIP3    H125099   4.728   4.488   1.406  2.4307 -0.3024  0.2210
 1180TIP3    H225100   4.763   4.635   1.405  3.4694 -0.5274  1.3803
 1181TIP3   OH225101   2.458   3.053   2.544 -0.3729 -0.1147  0.3150
 1181TIP3    H125102   2.471   3.017   2.632 -0.4867  0.5761  0.6251
 1181TIP3    H225103   2.379   3.010   2.512 -0.3992 -0.2814  0.6016
 1182TIP3   OH225104   1.082   0.796   7.671  0.4305 -0.0006  0.5819
 1182TIP3    H125105   1.131   0.723   7.634  1.0094  0.4903  0.3551
 1182TIP3    H225106   1.148   0.852   7.712  0.0938  0.7760  0.1042
 1183TIP3   OH225107   6.099   1.153   2.467 -0.3540 -0.1615 -0.1555
 1183TIP3    H125108   6.061   1.238   2.486 -0.9386 -0.6898  1.2009
 1183TIP3    H225109   6.024   1.094   2.458  0.0622 -0.8906  0.8654
 1184TIP3   OH225110   2.023   3.072   2.061 -0.2037  0.0275  0.6425
 1184TIP3    H125111   2.004   3.114   2.145 -1.0467 -0.9067  0.9468
 1184TIP3    H225112   2.017   3.143   1.997  1.7631  1.0346  1.4812
 1185TIP3   OH225113   0.898   1.270   7.772  0.0606  0.3426 -0.3425
 1185TIP3    H125114   0.847   1.193   7.797  0.1496  0.6089  0.6921
 1185TIP3    H225115   0.905   1.264   7.677  1.7833 -1.9999 -0.1402
 1186TIP3   OH225116   0.388   4.818   7.496  0.0739  0.0880 -0.5363
 1186TIP3    H125117   0.340   4.778   7.568  0.8412  0.4745  0.2052
 1186TIP3    H225118   0.374   4.758   7.422 -1.4906  0.1707 -0.3405
 1187TIP3   OH225119   4.691   5.977   2.294 -0.0301 -0.1411 -0.5036
 1187TIP3    H125120   4.715   6.000   2.383  0.0842 -0.8728 -0.3382
 1187TIP3    H225121   4.625   5.908   2.303 -0.2296 -0.0207 -0.9771
 1188TIP3   OH225122   6.645   1.862   0.623  0.0089  0.1210 -0.7284
 1188TIP3    H125123   6.562   1.876   0.578 -0.1543 -0.1808 -0.5204
 1188TIP3    H225124   6.630   1.892   0.712  0.3158  0.6626 -0.8524
 1189TIP3   OH225125   0.281   1.556   2.102  0.0575 -0.0113 -0.6150
 1189TIP3    H125126   0.300   1.536   2.194  0.0731  1.6096 -0.2343
 1189TIP3    H225127   0.229   1.637   2.106  0.7965  0.5596 -2.0718
 1190TIP3   OH225128   2.745   6.584   8.507 -0.0920 -0.0799  0.6192
 1190TIP3    H125129   2.731   6.642   8.432 -1.2895 -1.4136 -0.2719
 1190TIP3    H225130   2.694   6.506   8.485  1.8715 -1.7055  1.4813
 1191TIP3   OH225131   2.700   1.705   0.162 -0.4588  0.2786  0.2609
 1191TIP3    H125132   2.664   1.716   0.250 -2.0766  0.8742 -0.4155
 1191TIP3    H225133   2.676   1.787   0.117  0.3963  0.0112 -0.7097
 1192TIP3   OH225134   6.074   4.897   7.731  0.1567  0.2122 -0.0617
 1192TIP3    H125135   6.048   4.887   7.823  0.6138  0.9361  0.1562
 1192TIP3    H225136   6.118   4.816   7.709  3.9026  1.5698  1.6648
 1193TIP3   OH225137   0.625   1.923   1.508  0.2383  0.5276 -0.0236
 1193TIP3    H125138   0.570   1.966   1.443  0.9574  1.0776 -0.2844
 1193TIP3    H225139   0.654   1.842   1.465 -0.0905  0.3943 -0.0032
 1194TIP3   OH225140   5.149   1.856   2.439  0.1063 -0.4594 -0.2408
 1194TIP3    H125141   5.186   1.923   2.497 -1.0103 -0.3935  0.4105
 1194TIP3    H225142   5.157   1.775   2.487  0.1408 -0.5748 -0.4389
 1195TIP3   OH225143   3.747   5.837   8.082 -0.0827  0.0905 -0.4613
 1195TIP3    H125144   3.673   5.897   8.089  0.4526  0.8035 -0.7495
 1195TIP3    H225145   3.761   5.827   7.988 -1.1407 -1.7401 -0.4611
 1196TIP3   OH225146   3.033   0.275   7.395 -0.3112 -0.4091  0.1993
 1196TIP3    H125147   2.997   0.188   7.410  1.5239 -1.0614  1.0948
 1196TIP3    H225148   3.119   0.260   7.357  0.6997  0.9162  1.7948
 1197TIP3   OH225149   1.244   5.001   1.484  0.0493 -0.5553  0.2900
 1197TIP3    H125150   1.289   5.025   1.565  0.7790  0.6249 -0.4279
 1197TIP3    H225151   1.312   4.959   1.431 -0.5706 -1.8615  0.5028
 1198TIP3   OH225152   2.692   3.752   8.558 -0.5027 -0.1306 -0.0236
 1198TIP3    H125153   2.739   3.700   8.493 -1.0838 -1.8299  0.8737
 1198TIP3    H225154   2.614   3.701   8.579 -1.4196  1.3910  0.4732
 1199TIP3   OH225155   1.100   1.662   2.639 -0.4795 -0.3584 -0.2137
 1199TIP3    H125156   1.097   1.625   2.727 -0.5742 -1.6620 -0.7453
 1199TIP3    H225157   1.012   1.696   2.624  0.1836  2.1978  1.1170
 1200TIP3   OH225158   5.461   6.601   7.702  0.2804 -0.2777 -0.1006
 1200TIP3    H125159   5.508   6.536   7.754 -0.0225 -1.6801 -1.5164
 1200TIP3    H225160   5.518   6.678   7.703  1.5685 -1.1986  0.0478
 1201TIP3   OH225161   3.590   4.050   0.679 -0.0995 -0.1410 -0.7352
 1201TIP3    H125162   3.554   3.976   0.728  0.1627 -0.8899 -1.6313
 1201TIP3    H225163   3.657   4.087   0.736  0.5044 -1.2608 -0.6962
 1202TIP3   OH225164   4.739   3.898   8.106 -0.7499 -0.3606 -0.0972
 1202TIP3    H125165   4.731   3.976   8.161 -0.6677 -0.1122 -0.4363
 1202TIP3    H225166   4.813   3.916   8.048 -0.7415 -0.6826 -0.1921
 1203TIP3   OH225167   0.215   5.111   8.525  0.2821 -0.4031 -0.0893
 1203TIP3    H125168   0.127   5.075   8.534  0.1130  0.2828  1.1676
 1203TIP3    H225169   0.226   5.125   8.431 -1.6613  1.2578 -0.1170
 1204TIP3   OH225170   1.124   5.338   0.342 -0.0162 -0.5883  0.2912
 1204TIP3    H125171   1.070   5.265   0.314  1.2265 -1.2881 -0.3781
 1204TIP3    H225172   1.074   5.416   0.318 -1.1701 -1.2012  0.6393
 1205TIP3   OH225173   1.177   0.409   0.714 -0.5059  0.3038  0.1016
 1205TIP3    H125174   1.249   0.397   0.652 -1.1008  1.8579 -0.9452
 1205TIP3    H225175   1.221   0.426   0.798  0.3091 -0.5806 -0.1200
 1206TIP3   OH225176   4.037   0.655   1.055 -0.1968 -0.2066  0.2834
 1206TIP3    H125177   4.054   0.568   1.020 -0.1840 -0.2207  0.3238
 1206TIP3    H225178   3.962   0.642   1.114 -0.3944 -0.1309  0.0484
 1207TIP3   OH225179   0.227   1.721   8.219 -0.4493 -0.2002 -0.5201
 1207TIP3    H125180   0.207   1.627   8.213  2.2532 -1.0705  1.7215
 1207TIP3    H225181   0.315   1.729   8.183 -0.0659  1.1941  0.6420
 1208TIP3   OH225182   1.479   6.191   0.373  0.3552 -0.6285 -0.3997
 1208TIP3    H125183   1.537   6.253   0.417  0.0014 -0.7658  0.2671
 1208TIP3    H225184   1.537   6.139   0.318  0.7583 -0.2313 -0.3573
 1209TIP3   OH225185   2.785   6.418   0.163  0.5316  0.1042 -0.0870
 1209TIP3    H125186   2.695   6.438   0.191  0.1324 -0.1120 -1.1657
 1209TIP3    H225187   2.820   6.503   0.135 -0.2501 -0.1969 -2.1314
 1210TIP3   OH225188   4.715   3.955   1.673 -0.8194 -0.3291  1.0573
 1210TIP3    H125189   4.750   4.043   1.683 -1.4069  0.0029  0.2746
 1210TIP3    H225190   4.775   3.899   1.723  2.3355 -0.1845 -2.2217
 1211TIP3   OH225191   1.520   4.845   7.962 -0.4121 -0.0472 -0.5710
 1211TIP3    H125192   1.595   4.883   7.915 -1.3179  0.1418 -1.9243
 1211TIP3    H225193   1.503   4.762   7.918 -0.1028 -0.8095  0.6873
 1212TIP3   OH225194   5.690   6.763   2.225 -0.5128  0.2684 -0.3154
 1212TIP3    H125195   5.756   6.797   2.166  0.3994  1.8834  1.5248
 1212TIP3    H225196   5.738   6.740   2.305 -1.6553 -2.0868 -0.2300
 1213TIP3   OH225197   1.207   3.127   7.938 -0.7355  0.3919 -0.6428
 1213TIP3    H125198   1.273   3.194   7.954 -0.3384 -0.2750  0.7331
 1213TIP3    H225199   1.169   3.149   7.853  0.5073  1.4060 -0.9571
 1214TIP3   OH225200   0.439   4.991   8.683  0.7344 -0.2581  0.0333
 1214TIP3    H125201   0.369   5.003   8.619  0.5417 -0.2028  0.2528
 1214TIP3    H225202   0.516   5.030   8.643  0.2035  1.4253  0.5909
 1215TIP3   OH225203   6.008   6.215   2.252  0.5580 -0.5455  0.0904
 1215TIP3    H125204   5.982   6.307   2.259  1.2589 -0.3335 -0.0741
 1215TIP3    H225205   6.063   6.199   2.329  3.0051  0.0467 -1.4292
 1216TIP3   OH225206   0.805   4.464   1.822 -0.3174 -0.1038  0.2116
 1216TIP3    H125207   0.740   4.430   1.883  1.5361 -1.6875  1.4147
 1216TIP3    H225208   0.805   4.559   1.838 -2.2064 -0.0527  0.2213
 1217TIP3   OH225209   6.547   3.478   2.363 -0.1290  0.1907  0.1736
 1217TIP3    H125210   6.503   3.438   2.288  0.7384  1.5318 -1.0924
 1217TIP3    H225211   6.627   3.427   2.375 -0.3278 -0.0999  0.2676
 1218TIP3   OH225212   1.185   5.657   8.143 -0.7167  0.3304 -0.5928
 1218TIP3    H125213   1.189   5.634   8.050  1.6659 -1.1204 -0.2131
 1218TIP3    H225214   1.271   5.635   8.177 -0.7623  2.9073  1.5458
 1219TIP3   OH225215   6.104   5.713   1.011  0.3570 -0.4054  0.2379
 1219TIP3    H125216   6.042   5.719   1.084  1.0340 -3.0655  1.1423
 1219TIP3    H225217   6.179   5.665   1.046  1.5994 -0.0080 -1.6837
 1220TIP3   OH225218   4.171   3.973   2.742  0.4638  0.4758  0.4571
 1220TIP3    H125219   4.264   3.959   2.758  0.1523 -0.6403  1.4163
 1220TIP3    H225220   4.127   3.933   2.818 -0.7957  0.9016 -0.0224
 1221TIP3   OH225221   0.924   0.660   0.553  0.0114 -1.1143 -0.7672
 1221TIP3    H125222   0.839   0.690   0.587 -0.0932 -2.4495  0.2140
 1221TIP3    H225223   0.966   0.740   0.522 -0.4435  0.0012  1.3229
 1222TIP3   OH225224   1.496   1.787   1.753  0.0489  0.0024  0.2667
 1222TIP3    H125225   1.580   1.819   1.720  0.9953 -1.1096  1.4806
 1222TIP3    H225226   1.467   1.725   1.687  0.1148  0.4791 -0.2162
 1223TIP3   OH225227   2.390   1.408   1.240 -0.1811 -0.0429 -0.1057
 1223TIP3    H125228   2.453   1.433   1.308 -0.0775  0.0138 -0.2222
 1223TIP3    H225229   2.440   1.411   1.158 -0.9382  2.4822 -0.5612
 1224TIP3   OH225230   6.618   3.409   8.076 -0.2178 -0.3578 -0.3067
 1224TIP3    H125231   6.663   3.483   8.035 -2.9648  1.5242 -0.2306
 1224TIP3    H225232   6.622   3.428   8.170 -1.2959  0.0035 -0.3127
 1225TIP3   OH225233   6.056   1.175   7.438 -0.1598 -0.2828  0.4988
 1225TIP3    H125234   6.103   1.150   7.359  1.0582 -0.9594  1.4016
 1225TIP3    H225235   6.039   1.092   7.483 -3.9599 -0.2972 -0.6623
 1226TIP3   OH225236   0.471   6.296   2.075  0.0984  0.2201 -0.5429
 1226TIP3    H125237   0.562   6.278   2.097  0.2956  1.4746 -0.2341
 1226TIP3    H225238   0.475   6.364   2.008 -0.6132  0.2068 -0.6139
 1227TIP3   OH225239   4.661   0.270   7.889 -0.6394  0.9142  0.1212
 1227TIP3    H125240   4.597   0.339   7.876 -0.7039  0.4994 -2.2699
 1227TIP3    H225241   4.615   0.189   7.865  0.1893  0.3837  0.2587
 1228TIP3   OH225242   4.027   4.175   8.277 -0.6400 -0.4080 -0.0522
 1228TIP3    H125243   4.019   4.214   8.364  1.0808  0.9141 -0.4266
 1228TIP3    H225244   4.121   4.172   8.260 -0.9323 -0.5658 -1.9047
 1229TIP3   OH225245   0.794   3.806   8.446 -0.0311 -0.3769 -0.6235
 1229TIP3    H125246   0.843   3.880   8.481  0.2995 -0.7591 -0.2738
 1229TIP3    H225247   0.853   3.766   8.382  0.1427 -0.8713 -0.1607
 1230TIP3   OH225248   4.549   4.021   1.183  0.1882  0.4513  0.3206
 1230TIP3    H125249   4.459   4.014   1.151 -0.4839 -0.1869  2.2204
 1230TIP3    H225250   4.540   4.028   1.278  2.1248  1.2535  0.4839
 1231TIP3   OH225251   1.479   2.545   8.384 -0.1595 -0.0084  0.0774
 1231TIP3    H125252   1.499   2.469   8.330 -1.9178  0.6585 -1.6312
 1231TIP3    H225253   1.560   2.596   8.385  0.2740 -0.6555 -0.9238
 1232TIP3   OH225254   5.245   6.482   1.227  0.0467 -0.2673 -0.0061
 1232TIP3    H125255   5.310   6.417   1.200  0.2029 -0.8114  1.6065
 1232TIP3    H225256   5.288   6.566   1.213  1.0671 -0.6177  0.9398
 1233TIP3   OH225257   4.749   3.316   7.699  0.1852  0.0452  0.0372
 1233TIP3    H125258   4.668   3.302   7.746 -0.8482  0.8467 -1.4097
 1233TIP3    H225259   4.760   3.411   7.697  1.5197 -0.0592  0.7519
 1234TIP3   OH225260   0.623   3.132   2.020  0.4564 -0.4106 -0.0786
 1234TIP3    H125261   0.679   3.056   2.034  2.5778  1.1618  0.4324
 1234TIP3    H225262   0.677   3.207   2.044 -1.6766  1.2677 -0.1745
 1235TIP3   OH225263   1.132   3.642   8.575 -0.0353  0.0967  0.0721
 1235TIP3    H125264   1.128   3.729   8.615 -0.8688 -0.1945  0.6523
 1235TIP3    H225265   1.141   3.659   8.481 -1.1279  0.8271  0.0835
 1236TIP3   OH225266   0.535   3.174   2.732 -0.2008  0.4060 -0.4902
 1236TIP3    H125267   0.574   3.244   2.679  1.2057 -0.3092 -0.4329
 1236TIP3    H225268   0.463   3.217   2.778  0.0055  1.5864 -1.2142
 1237TIP3   OH225269   5.485   4.425   7.868  0.4554  0.3046  0.4481
 1237TIP3    H125270   5.517   4.347   7.821  0.5463  1.0241 -0.7345
 1237TIP3    H225271   5.522   4.417   7.956 -0.0536 -1.3035  0.5507
 1238TIP3   OH225272   3.873   3.815   1.318 -0.2605 -0.0615  0.8636
 1238TIP3    H125273   3.864   3.789   1.227 -0.0110 -2.8888  1.5507
 1238TIP3    H225274   3.904   3.736   1.363  0.2614  1.4084  3.2958
 1239TIP3   OH225275   6.441   0.279   8.242  0.0138  0.6057  0.4923
 1239TIP3    H125276   6.428   0.347   8.307 -1.3606  0.0962  0.7851
 1239TIP3    H225277   6.357   0.233   8.237  0.7338 -0.7386 -0.0646
 1240TIP3   OH225278   3.987   1.826   1.011  0.5685  0.3233 -0.2071
 1240TIP3    H125279   4.006   1.735   0.992  0.2866 -0.0269  1.0787
 1240TIP3    H225280   4.073   1.868   1.017  0.7893 -0.2267  0.8251
 1241TIP3   OH225281   3.344   6.722   2.001  0.4553 -0.4932 -0.4208
 1241TIP3    H125282   3.253   6.723   2.030  0.8708  1.3817  0.9791
 1241TIP3    H225283   3.377   6.637   2.031  0.1691  0.3496  2.5826
 1242TIP3   OH225284   3.168   6.111   7.549 -0.4606  0.1722 -0.4038
 1242TIP3    H125285   3.164   6.205   7.568  0.6042  0.7253 -2.6034
 1242TIP3    H225286   3.142   6.105   7.457  0.0007 -1.6363 -0.4401
 1243TIP3   OH225287   4.835   3.351   8.797 -0.3463 -0.3677  0.2845
 1243TIP3    H125288   4.900   3.412   8.763  0.0171 -0.5873  0.5850
 1243TIP3    H225289   4.867   3.327   8.884  0.9853 -3.1294 -0.8836
 1244TIP3   OH225290   5.960   1.610   1.331 -0.4276 -0.1807 -0.1157
 1244TIP3    H125291   6.008   1.689   1.357 -0.4928  0.2412 -1.2147
 1244TIP3    H225292   6.016   1.537   1.361  0.6430  0.3002 -0.8710
 1245TIP3   OH225293   3.534   5.918   2.151 -0.1109  0.1890 -0.2995
 1245TIP3    H125294   3.560   5.835   2.112  0.2947  0.1587  0.0341
 1245TIP3    H225295   3.617   5.960   2.175 -0.3191  0.6222 -0.3311
 1246TIP3   OH225296   3.220   1.512   6.951 -0.0132 -0.2835  0.1089
 1246TIP3    H125297   3.262   1.426   6.957 -1.9141 -1.2699  0.1397
 1246TIP3    H225298   3.165   1.517   7.028 -1.2525  0.2029 -0.7720
 1247TIP3   OH225299   1.927   4.072   2.094 -0.2233  0.5574 -0.1991
 1247TIP3    H125300   1.852   4.016   2.076  1.3385 -0.9330 -2.6646
 1247TIP3    H225301   1.889   4.156   2.120 -2.7525 -0.0540 -1.6604
 1248TIP3   OH225302   4.977   6.304   6.573 -0.0329  0.1914  0.4619
 1248TIP3    H125303   4.970   6.250   6.652 -0.7397  1.5942  1.4068
 1248TIP3    H225304   4.886   6.321   6.547  0.1942 -0.1971 -0.6161
 1249TIP3   OH225305   2.041   4.849   0.955  0.0101  0.0288 -0.6575
 1249TIP3    H125306   2.076   4.936   0.939  0.9739 -0.1058  0.5009
 1249TIP3    H225307   2.067   4.797   0.879  1.4834  0.2031 -0.3088
 1250TIP3   OH225308   3.868   3.458   2.166  0.3554  0.6211  0.5602
 1250TIP3    H125309   3.893   3.529   2.106  0.7216  0.7692  0.8905
 1250TIP3    H225310   3.809   3.499   2.229 -0.7577  0.2749 -0.2138
 1251TIP3   OH225311   0.314   2.203   2.869  0.1184  0.0647 -0.1449
 1251TIP3    H125312   0.235   2.203   2.924  0.7309 -0.2258  0.7513
 1251TIP3    H225313   0.383   2.170   2.926  1.4118  2.4893 -0.1843
 1252TIP3   OH225314   1.711   5.543   1.352  0.3589 -0.5959 -0.1016
 1252TIP3    H125315   1.710   5.622   1.407  1.6994  0.9816 -2.1916
 1252TIP3    H225316   1.803   5.515   1.354  0.2871 -0.9054 -0.9995
 1253TIP3   OH225317   1.287   1.996   1.813  0.2292 -0.3040 -0.0893
 1253TIP3    H125318   1.344   1.920   1.802 -2.0449 -2.0673 -0.6482
 1253TIP3    H225319   1.302   2.049   1.735  0.9903 -0.8263 -0.3064
 1254TIP3   OH225320   1.065   4.061   8.281 -0.0303 -0.0898  0.1822
 1254TIP3    H125321   1.103   3.976   8.261  0.6919  0.0882  0.7383
 1254TIP3    H225322   1.140   4.117   8.300 -0.5489  0.3453  1.0465
 1255TIP3   OH225323   3.440   6.019   0.050 -0.2743  0.1827  0.7219
 1255TIP3    H125324   3.401   6.105   0.031  0.1011  0.5607  1.6006
 1255TIP3    H225325   3.365   5.960   0.058 -0.4932 -0.3698 -3.2257
 1256TIP3   OH225326   5.619   3.085   8.222 -0.0294  0.2187  0.0722
 1256TIP3    H125327   5.531   3.097   8.186 -0.5949 -0.2153  1.2588
 1256TIP3    H225328   5.665   3.166   8.200 -0.3575  0.0235 -1.5116
 1257TIP3   OH225329   4.079   6.644   0.840  0.2923 -0.5713 -0.8102
 1257TIP3    H125330   3.997   6.644   0.790 -0.0576 -0.8575 -0.2474
 1257TIP3    H225331   4.052   6.624   0.929  0.9947 -0.7691 -0.6404
 1258TIP3   OH225332   5.866   5.937   8.503 -0.1046 -0.6996  0.4348
 1258TIP3    H125333   5.911   5.861   8.466  1.6962 -0.3154  1.6634
 1258TIP3    H225334   5.928   6.010   8.490 -2.4839  1.0681 -2.3266
 1259TIP3   OH225335   4.068   1.807   2.782  0.3353 -0.0084 -0.5858
 1259TIP3    H125336   4.161   1.826   2.775  0.1721  1.5503  0.7134
 1259TIP3    H225337   4.062   1.712   2.776  1.9543 -0.1029 -1.0932
 1260TIP3   OH225338   2.907   1.639   8.263 -0.4798 -0.1674  0.2364
 1260TIP3    H125339   2.946   1.706   8.207 -1.2670 -0.3818 -0.6015
 1260TIP3    H225340   2.917   1.558   8.214 -1.5299 -0.2987  0.2115
 1261TIP3   OH225341   4.601   4.116   7.148  0.1946  0.1127 -0.2505
 1261TIP3    H125342   4.510   4.088   7.160  0.6381 -3.0370 -2.8136
 1261TIP3    H225343   4.597   4.183   7.080 -0.2944  1.2988  0.9063
 1262TIP3   OH225344   1.886   4.708   7.999 -0.3951 -0.4850 -0.1056
 1262TIP3    H125345   1.903   4.626   8.046  1.2251 -0.3916 -0.4658
 1262TIP3    H225346   1.951   4.709   7.929 -0.3568  1.1224 -0.0852
 1263TIP3   OH225347   1.754   5.823   7.972  0.0894 -0.7807  0.1010
 1263TIP3    H125348   1.698   5.864   8.038  1.2739  1.0504  0.0410
 1263TIP3    H225349   1.704   5.747   7.942 -1.8451  0.1299  0.8442
 1264TIP3   OH225350   1.684   6.683   8.768  0.2506 -0.0911  0.8371
 1264TIP3    H125351   1.760   6.740   8.782 -0.4623  0.6699  1.6910
 1264TIP3    H225352   1.608   6.738   8.787 -0.6146 -0.4053 -1.3946
 1265TIP3   OH225353   3.961   2.948   2.038 -0.7291 -0.1101 -0.3372
 1265TIP3    H125354   4.048   2.928   2.002 -0.8794  0.0343 -0.7861
 1265TIP3    H225355   3.940   2.873   2.093 -0.2773 -0.1006 -0.1439
 1266TIP3   OH225356   1.246   0.598   7.584  0.0087  0.3895  0.0204
 1266TIP3    H125357   1.329   0.566   7.618  1.2288  2.2762 -1.0186
 1266TIP3    H225358   1.264   0.618   7.492 -1.7807  0.2527 -0.3901
 1267TIP3   OH225359   3.929   5.186   0.004  0.1982 -0.2097  0.0315
 1267TIP3    H125360   3.998   5.123   0.026 -1.4731 -1.9987  0.4774
 1267TIP3    H225361   3.933   5.193  -0.091  0.4346 -0.9765 -0.0222
 1268TIP3   OH225362   2.069   3.892   8.238  0.0004 -0.1148  0.0875
 1268TIP3    H125363   2.009   3.901   8.163 -1.7303  0.2745  1.4551
 1268TIP3    H225364   2.122   3.815   8.217 -2.4107 -1.7892 -0.2832
 1269TIP3   OH225365   3.146   0.931   1.471  0.3208  0.2491 -0.0652
 1269TIP3    H125366   3.120   0.972   1.388  1.6324 -0.3394 -0.8101
 1269TIP3    H225367   3.194   0.999   1.517  2.8503 -0.4472 -1.4770
 1270TIP3   OH225368   1.229   0.033   0.046 -0.3516  0.0785 -0.0487
 1270TIP3    H125369   1.289  -0.039   0.029  0.7393  1.1314 -0.8311
 1270TIP3    H225370   1.238   0.091  -0.030  0.8348  2.3635  1.6854
 1271TIP3   OH225371   6.537   6.741   0.937 -0.9679 -0.4581  0.1724
 1271TIP3    H125372   6.444   6.758   0.929 -0.7964  0.1587 -0.7128
 1271TIP3    H225373   6.552   6.660   0.888 -0.6794  0.7459 -1.8297
 1272TIP3   OH225374   2.140   6.700   8.357 -0.0650  0.0952 -0.2807
 1272TIP3    H125375   2.193   6.650   8.420 -0.3556  1.7600  1.3915
 1272TIP3    H225376   2.205   6.741   8.299  0.2610 -0.7128 -0.5038
 1273TIP3   OH225377   4.135   0.991   8.285  1.0127 -1.0495  0.3827
 1273TIP3    H125378   4.123   1.009   8.378  0.1797  0.2837  0.0573
 1273TIP3    H225379   4.067   0.927   8.264 -1.1315  1.1643  0.0476
 1274TIP3   OH225380   0.718   1.272   8.217  0.2962 -0.4589  0.6027
 1274TIP3    H125381   0.671   1.353   8.194  2.5250  0.6091 -0.5901
 1274TIP3    H225382   0.733   1.278   8.311 -0.0974  0.2346  0.6279
 1275TIP3   OH225383   0.396   2.067   2.055  0.0345  0.4572  0.1331
 1275TIP3    H125384   0.363   2.104   2.137  1.4798  1.9156  0.1129
 1275TIP3    H225385   0.319   2.058   1.999 -1.2322 -1.8360  2.0258
 1276TIP3   OH225386   4.994   4.830   8.661  0.2661  0.4935  0.0127
 1276TIP3    H125387   4.929   4.889   8.623  0.5841 -0.2605 -1.7973
 1276TIP3    H225388   4.943   4.772   8.718 -0.6727 -0.0163 -1.2976
 1277TIP3   OH225389   5.236   1.486   2.210 -0.2043  0.2784  0.4884
 1277TIP3    H125390   5.263   1.476   2.301  0.0540 -1.1911  0.2693
 1277TIP3    H225391   5.271   1.409   2.166 -1.6746  0.1618 -0.5414
 1278TIP3   OH225392   4.800   6.553   2.757 -0.5666 -0.0325 -0.4244
 1278TIP3    H125393   4.876   6.593   2.715 -1.4783  2.5598  0.1750
 1278TIP3    H225394   4.727   6.571   2.697 -1.6972  2.8184  1.5658
 1279TIP3   OH225395   3.110   5.131   7.131  0.0614 -0.2526 -0.4378
 1279TIP3    H125396   3.095   5.160   7.041 -0.5123  0.3962 -0.1482
 1279TIP3    H225397   3.073   5.201   7.185 -0.2519 -0.9686  0.2997
 1280TIP3   OH225398   3.966   2.625   1.500  0.4508  0.4626  0.1673
 1280TIP3    H125399   4.042   2.608   1.444  1.9447 -0.0384  2.2172
 1280TIP3    H225400   3.900   2.563   1.470  0.6554  1.1940 -1.9491
 1281TIP3   OH225401   4.022   4.347   8.527 -0.1005 -0.5003  0.2746
 1281TIP3    H125402   4.099   4.403   8.528  0.8185 -1.6962  1.6405
 1281TIP3    H225403   4.037   4.285   8.598 -1.4534 -1.9496 -0.6384
 1282TIP3   OH225404   3.972   4.923   6.900 -0.2495 -0.3387 -0.5187
 1282TIP3    H125405   3.929   4.857   6.846  1.1302 -0.9817 -0.8862
 1282TIP3    H225406   3.914   4.999   6.897 -0.8999 -0.8586 -1.7133
 1283TIP3   OH225407   0.249   3.679   8.736 -0.3833 -0.1660 -0.1128
 1283TIP3    H125408   0.297   3.619   8.678  0.7240 -0.9343  1.5233
 1283TIP3    H225409   0.169   3.699   8.688  0.2825 -1.1042 -1.7189
 1284TIP3   OH225410   5.436   6.127   0.686  0.3535 -0.0354 -0.4363
 1284TIP3    H125411   5.364   6.078   0.645 -0.1599  0.2065  0.1468
 1284TIP3    H225412   5.514   6.076   0.666  0.0778 -0.0766 -1.4566
 1285TIP3   OH225413   3.034   4.154   1.180  0.1847  0.0622 -0.2854
 1285TIP3    H125414   3.050   4.064   1.151 -0.0871  0.4888 -1.8151
 1285TIP3    H225415   3.114   4.178   1.227  1.0893 -0.3295 -1.5617
 1286TIP3   OH225416   5.895   4.991   0.061  0.1595  0.1682 -0.3387
 1286TIP3    H125417   5.914   4.928  -0.008  2.0614 -0.0924  0.3683
 1286TIP3    H225418   5.825   4.951   0.112  1.3875 -1.4744  0.1496
 1287TIP3   OH225419   2.353   6.582   2.362 -0.0597  0.7256  0.2345
 1287TIP3    H125420   2.360   6.677   2.358  1.2497  0.7508  2.0335
 1287TIP3    H225421   2.275   6.565   2.414 -1.7736  0.7174 -2.1760
 1288TIP3   OH225422   1.969   2.556   2.414 -0.3351  0.4235 -0.6994
 1288TIP3    H125423   1.957   2.597   2.499 -0.6154  0.0575 -0.5592
 1288TIP3    H225424   2.064   2.554   2.402 -0.2064 -0.8661  0.2861
 1289TIP3   OH225425   0.644   1.847   0.979  0.8606  0.3296  0.0643
 1289TIP3    H125426   0.676   1.919   1.033  3.8680 -0.9468  0.1683
 1289TIP3    H225427   0.711   1.836   0.912  0.5048 -2.3337  0.0480
 1290TIP3   OH225428   5.879   6.464   7.725 -0.0188 -0.9791 -0.0450
 1290TIP3    H125429   5.952   6.407   7.748 -0.2903 -1.5702 -0.6271
 1290TIP3    H225430   5.865   6.517   7.804  0.6688 -1.2456  0.2679
 1291TIP3   OH225431   4.398   1.789   7.049  0.5905 -0.6048 -0.8312
 1291TIP3    H125432   4.479   1.744   7.026  1.2892 -0.1265  0.5712
 1291TIP3    H225433   4.417   1.882   7.036  0.4307 -0.4604 -0.1185
 1292TIP3   OH225434   2.157   5.556   0.924  0.0882 -0.0813 -0.8909
 1292TIP3    H125435   2.189   5.469   0.948 -0.1754 -0.1673 -0.8577
 1292TIP3    H225436   2.092   5.577   0.990 -0.0131  0.0454 -1.0308
 1293TIP3   OH225437   1.913   3.834   0.690  0.3984 -0.3637  0.1685
 1293TIP3    H125438   1.928   3.888   0.612 -0.8483  0.7554  0.6727
 1293TIP3    H225439   1.835   3.782   0.669 -0.3703  0.4583  0.9044
 1294TIP3   OH225440   5.072   0.381   0.616 -0.5262 -0.5652  0.2294
 1294TIP3    H125441   5.146   0.417   0.664 -0.1987 -2.1253  0.9492
 1294TIP3    H225442   5.025   0.458   0.584 -0.2456  0.5326  2.2710
 1295TIP3   OH225443   4.373   2.915   0.424 -0.0027  0.1951 -0.3395
 1295TIP3    H125444   4.357   2.965   0.344  0.4677  0.0051 -0.5571
 1295TIP3    H225445   4.466   2.892   0.420  0.0832  0.3864  0.3801
 1296TIP3   OH225446   1.794   1.013   1.291 -0.4912  0.0663  0.5207
 1296TIP3    H125447   1.839   1.016   1.376  0.8330  0.1276 -0.1689
 1296TIP3    H225448   1.792   1.104   1.262  0.8303 -0.1788 -0.4076
 1297TIP3   OH225449   1.102   4.211   1.520  0.3599 -0.5982 -0.1902
 1297TIP3    H125450   1.076   4.173   1.436  0.5819 -1.1836 -0.0014
 1297TIP3    H225451   1.056   4.157   1.585 -2.6441  1.9446  0.0363
 1298TIP3   OH225452   5.538   2.899   2.466 -0.3764  0.5487  0.0630
 1298TIP3    H125453   5.541   2.967   2.534 -0.0115 -0.2579  0.8758
 1298TIP3    H225454   5.445   2.891   2.444 -0.5366  0.5979  0.6992
 1299TIP3   OH225455   4.692   2.655   0.163  0.1646 -0.3908 -0.2021
 1299TIP3    H125456   4.642   2.648   0.244 -0.2351 -2.1898 -0.5613
 1299TIP3    H225457   4.782   2.670   0.192  0.0448 -1.1119  0.6005
 1300TIP3   OH225458   3.702   2.462   7.691 -0.2762  0.1266  0.1815
 1300TIP3    H125459   3.744   2.455   7.605 -0.6462 -0.4383  0.0377
 1300TIP3    H225460   3.609   2.452   7.672 -0.3266 -0.4213  0.6907
 1301TIP3   OH225461   6.787   5.782   1.586  0.4725 -0.0983 -0.0321
 1301TIP3    H125462   6.780   5.876   1.604 -0.3273 -0.1434 -0.0693
 1301TIP3    H225463   6.718   5.765   1.522  0.0974 -0.8492  0.5464
 1302TIP3   OH225464   4.038   0.075   7.695 -0.2445 -0.0006 -0.4892
 1302TIP3    H125465   3.950   0.073   7.731  0.0216 -0.3845  0.1417
 1302TIP3    H225466   4.081  -0.002   7.731  0.9261  1.1572  0.7092
 1303TIP3   OH225467   3.479   5.831   8.368 -0.4100 -0.1025  0.3433
 1303TIP3    H125468   3.512   5.903   8.421  0.9379  0.0611 -0.6533
 1303TIP3    H225469   3.511   5.849   8.280 -3.4272  0.1782 -0.8101
 1304TIP3   OH225470   0.333   6.656   8.178  0.1827  0.3457  0.1606
 1304TIP3    H125471   0.424   6.637   8.202 -0.0170 -0.3902  0.3475
 1304TIP3    H225472   0.300   6.711   8.250  0.1947 -0.1795  0.5724
 1305TIP3   OH225473   3.361   3.942   0.974 -0.4225  0.4294 -0.1632
 1305TIP3    H125474   3.295   3.976   0.913 -2.7215  0.0131  1.9169
 1305TIP3    H225475   3.325   3.858   1.002  1.2560 -0.0288  0.7020
 1306TIP3   OH225476   5.780   6.462   0.674 -0.4395 -0.7792 -1.5341
 1306TIP3    H125477   5.855   6.404   0.663  0.6357  0.5648 -1.3892
 1306TIP3    H225478   5.778   6.514   0.594 -1.2087 -0.7798 -1.5223
 1307TIP3   OH225479   5.816   3.585   1.173 -0.1506 -0.1699 -0.1927
 1307TIP3    H125480   5.817   3.490   1.165  0.8328 -0.2348  0.5361
 1307TIP3    H225481   5.903   3.608   1.205 -0.3886  0.9757 -0.3059
 1308TIP3   OH225482   4.003   2.717   2.197 -0.6936  0.2355  0.2430
 1308TIP3    H125483   3.973   2.644   2.144 -0.7096  0.7687 -0.4893
 1308TIP3    H225484   3.957   2.707   2.280 -1.9095  0.3158 -0.4098
 1309TIP3   OH225485   0.591   4.861   1.030 -0.0654  0.0454  0.5070
 1309TIP3    H125486   0.513   4.856   0.975 -0.2007  1.4416  0.5280
 1309TIP3    H225487   0.622   4.771   1.037 -1.9636 -0.6296  0.9142
 1310TIP3   OH225488   6.565   5.480   1.976 -0.6463 -0.1939 -0.3216
 1310TIP3    H125489   6.643   5.431   2.003 -1.2371 -0.7151  0.4658
 1310TIP3    H225490   6.561   5.467   1.881  0.2529 -0.1099 -0.3813
 1311TIP3   OH225491   4.870   1.202   2.125 -0.5690 -0.0008 -0.1715
 1311TIP3    H125492   4.886   1.170   2.036 -0.5346  0.8539 -0.4741
 1311TIP3    H225493   4.807   1.273   2.114  0.2431  0.8220  0.3666
 1312TIP3   OH225494   5.538   5.142   7.373 -0.4337  0.2407  0.4033
 1312TIP3    H125495   5.631   5.125   7.387  0.4503  3.5105 -0.7073
 1312TIP3    H225496   5.515   5.205   7.442 -0.9983  1.6941 -1.0461
 1313TIP3   OH225497   1.185   5.593   1.195  0.5855 -0.3195 -0.2864
 1313TIP3    H125498   1.188   5.684   1.225 -0.8542 -0.0911 -0.7901
 1313TIP3    H225499   1.161   5.598   1.103  0.4200 -1.2162 -0.3039
 1314TIP3   OH225500   5.505   5.343   1.316 -0.3199 -0.5354 -0.1952
 1314TIP3    H125501   5.485   5.433   1.291  1.5868 -0.1004 -0.2940
 1314TIP3    H225502   5.568   5.351   1.387 -1.9959 -1.8134  1.5602
 1315TIP3   OH225503   0.977   0.940   1.777  0.4916 -0.4803 -0.1333
 1315TIP3    H125504   0.938   1.013   1.728  1.0282 -0.8076 -1.0728
 1315TIP3    H225505   1.071   0.953   1.767  0.5932 -1.0378  0.0957
 1316TIP3   OH225506   3.784   5.812   6.771  0.1671 -0.2779  0.4452
 1316TIP3    H125507   3.876   5.786   6.767  0.1361 -0.3203 -0.0622
 1316TIP3    H225508   3.742   5.743   6.822  0.4548 -0.1433  0.8709
 1317TIP3   OH225509   5.333   1.198   1.377 -0.0041 -0.1074 -0.4412
 1317TIP3    H125510   5.255   1.200   1.321 -1.1406 -3.7600  0.7600
 1317TIP3    H225511   5.299   1.219   1.465  0.6745 -0.1782 -0.1609
 1318TIP3   OH225512   5.632   2.500   8.005  0.0846  0.0687 -0.2865
 1318TIP3    H125513   5.558   2.453   8.043 -0.1453  1.6070  1.2585
 1318TIP3    H225514   5.690   2.431   7.974 -1.7065 -1.1897 -1.0346
 1319TIP3   OH225515   1.826   5.331   7.920 -1.0622 -0.0606  0.1691
 1319TIP3    H125516   1.742   5.351   7.880 -0.7707  1.5536  0.2955
 1319TIP3    H225517   1.828   5.383   8.001  0.0528 -0.0537  0.1626
 1320TIP3   OH225518   5.315   4.958   0.123 -0.4211  0.2515  0.4716
 1320TIP3    H125519   5.253   4.907   0.175 -0.6949  0.4638  0.3543
 1320TIP3    H225520   5.262   5.025   0.081 -0.2924 -0.2256 -0.4885
 1321TIP3   OH225521   4.403   3.388   0.908 -0.9295 -0.6641  0.0355
 1321TIP3    H125522   4.490   3.398   0.870 -1.1278  1.2736 -0.0061
 1321TIP3    H225523   4.343   3.402   0.834 -1.2835 -0.6623  0.3211
 1322TIP3   OH225524   4.111   6.015   0.799  0.3637  0.1269 -0.0767
 1322TIP3    H125525   4.071   5.985   0.717 -1.6359 -0.5638  1.0926
 1322TIP3    H225526   4.112   6.110   0.792 -1.2137  0.1548 -0.3075
 1323TIP3   OH225527   6.701   1.387   1.237  0.8785  0.2090  0.2669
 1323TIP3    H125528   6.657   1.332   1.301 -0.2600  0.2467 -0.4556
 1323TIP3    H225529   6.759   1.327   1.190  0.9781 -0.0094  0.6631
 1324TIP3   OH225530   0.368   1.341   7.682 -0.3384 -0.3419  0.5812
 1324TIP3    H125531   0.380   1.400   7.756 -1.2372  1.3161 -0.5360
 1324TIP3    H225532   0.276   1.352   7.657  0.1055 -0.3383 -1.1836
 1325TIP3   OH225533   4.755   4.229   1.368 -0.5731  0.3715  0.2000
 1325TIP3    H125534   4.847   4.224   1.391 -0.4457 -1.4698 -0.5311
 1325TIP3    H225535   4.754   4.237   1.273 -1.1640 -0.3402  0.1346
 1326TIP3   OH225536   5.668   0.097   1.529  0.1321  0.1219 -0.2310
 1326TIP3    H125537   5.628   0.140   1.453 -0.2129  3.0003  1.4403
 1326TIP3    H225538   5.731   0.161   1.562  0.6359 -1.2568  1.6468
 1327TIP3   OH225539   6.206   1.036   8.250 -0.2668  0.3287 -0.2320
 1327TIP3    H125540   6.190   1.035   8.155 -1.8625 -1.1528 -0.0007
 1327TIP3    H225541   6.262   0.959   8.264  1.5389  1.5917 -0.1511
 1328TIP3   OH225542   0.146   6.057   2.237  0.2651 -0.6574 -0.2456
 1328TIP3    H125543   0.141   6.149   2.262  0.2565 -0.6905 -0.1207
 1328TIP3    H225544   0.230   6.048   2.192  0.2048 -0.5608 -0.3782
 1329TIP3   OH225545   6.216   3.019   8.146 -0.1104 -0.1924  0.9786
 1329TIP3    H125546   6.230   2.926   8.167 -0.1488 -0.2019  0.9619
 1329TIP3    H225547   6.281   3.037   8.077 -3.2235 -1.5192 -2.6731
 1330TIP3   OH225548   3.910   5.228   1.708  0.6279  0.1824  0.3134
 1330TIP3    H125549   3.916   5.321   1.687  0.2005  0.1740  0.1373
 1330TIP3    H225550   3.899   5.185   1.623  2.3073 -0.1743  0.2538
 1331TIP3   OH225551   2.789   3.564   0.548 -0.3424  0.4188 -0.1736
 1331TIP3    H125552   2.876   3.600   0.565 -0.4282 -0.0560  1.4111
 1331TIP3    H225553   2.744   3.568   0.633 -1.3188 -0.7972 -0.6065
 1332TIP3   OH225554   2.261   4.414   2.422  0.0301 -0.1392  0.2166
 1332TIP3    H125555   2.307   4.492   2.453  1.1658 -1.2810  1.5407
 1332TIP3    H225556   2.322   4.372   2.362  0.2379 -1.0346  1.0402
 1333TIP3   OH225557   6.182   5.113   8.710  0.2397  0.3044 -0.2843
 1333TIP3    H125558   6.157   5.122   8.802 -0.1760 -0.9496 -0.2497
 1333TIP3    H225559   6.102   5.083   8.667 -0.0576  2.4895 -1.3955
 1334TIP3   OH225560   4.590   3.279   8.400  0.2947 -0.2279  0.4343
 1334TIP3    H125561   4.551   3.280   8.488  1.0351 -0.5069  0.7764
 1334TIP3    H225562   4.622   3.189   8.390  0.5850 -0.0816  0.0461
 1335TIP3   OH225563   2.273   4.047   1.449 -0.8036 -0.3599 -0.3792
 1335TIP3    H125564   2.193   4.022   1.403 -0.2876 -0.8724 -1.0227
 1335TIP3    H225565   2.293   3.971   1.504 -1.0410 -0.0222  0.1843
 1336TIP3   OH225566   1.027   5.820   1.042  0.8138 -0.1356  0.2553
 1336TIP3    H125567   0.937   5.797   1.021  0.5157  2.5447 -1.7919
 1336TIP3    H225568   1.080   5.757   0.993  0.1672 -1.9956  1.7981
 1337TIP3   OH225569   0.522   4.190   7.595  0.0739 -0.2391  0.1954
 1337TIP3    H125570   0.541   4.282   7.575  1.4354 -0.0599  1.9929
 1337TIP3    H225571   0.606   4.146   7.583 -0.2905 -1.0213  0.5061
 1338TIP3   OH225572   1.517   3.342   0.299  0.5687  0.0961  0.2478
 1338TIP3    H125573   1.449   3.401   0.267 -0.6222  0.1591  2.6378
 1338TIP3    H225574   1.597   3.372   0.256 -0.6306  1.0650 -1.4139
 1339TIP3   OH225575   1.302   5.098   0.776  0.1547 -0.2205 -0.8610
 1339TIP3    H125576   1.289   5.034   0.706 -1.6350 -0.1984 -0.5787
 1339TIP3    H225577   1.233   5.079   0.839  2.5352 -1.1725  1.6786
 1340TIP3   OH225578   6.495   6.054   1.377  0.1033 -0.3341  0.4388
 1340TIP3    H125579   6.481   6.118   1.448 -1.2614 -2.5677  2.3643
 1340TIP3    H225580   6.437   6.083   1.307 -0.0069  0.8707  1.0008
 1341TIP3   OH225581   5.924   4.918   1.139  0.3199  0.0110 -0.2828
 1341TIP3    H125582   5.883   5.002   1.162  0.2241 -0.2548  0.5546
 1341TIP3    H225583   6.003   4.914   1.193 -0.7418 -1.3509  1.2603
 1342TIP3   OH225584   6.107   3.049   8.801  0.1858 -0.3877  0.0999
 1342TIP3    H125585   6.168   3.103   8.851 -1.3771  0.6892  0.9385
 1342TIP3    H225586   6.102   3.092   8.715  0.8536 -0.6880 -0.0952
 1343TIP3   OH225587   0.955   5.577   8.766 -0.5058  0.0467 -0.2173
 1343TIP3    H125588   0.877   5.604   8.814  0.6265  1.1062  1.1266
 1343TIP3    H225589   0.982   5.496   8.809 -1.2777 -0.7365 -1.1847
 1344TIP3   OH225590   0.967   6.775   2.458 -0.4388 -0.2098  0.3196
 1344TIP3    H125591   0.964   6.713   2.530  0.2247 -1.0405 -0.3418
 1344TIP3    H225592   0.885   6.824   2.465 -0.6712 -0.7110  1.2509
 1345TIP3   OH225593   0.981   2.430   0.113 -0.6986  1.0276 -0.0859
 1345TIP3    H125594   0.897   2.419   0.159 -0.5006  2.6745  0.7336
 1345TIP3    H225595   1.008   2.340   0.092 -2.3574  0.4166  0.1707
 1346TIP3   OH225596   2.535   2.063   2.682 -0.1880 -0.2465  0.0103
 1346TIP3    H125597   2.590   2.017   2.746  1.0800  1.7514  0.4464
 1346TIP3    H225598   2.465   2.102   2.735  0.0198  0.1628 -0.0068
 1347TIP3   OH225599   6.373   0.375   2.360  0.0877  0.0564  0.1489
 1347TIP3    H125600   6.368   0.340   2.271  0.1843 -0.8811  0.4984
 1347TIP3    H225601   6.410   0.463   2.349 -1.7339  0.7444 -0.9024
 1348TIP3   OH225602   0.580   1.600   0.787  0.4896 -0.1042 -0.7053
 1348TIP3    H125603   0.488   1.623   0.776  0.7681  1.2202 -0.4098
 1348TIP3    H225604   0.621   1.678   0.823  1.3307 -1.3395  1.2150
 1349TIP3   OH225605   2.506   3.486   2.025 -0.4506  0.5491  0.4473
 1349TIP3    H125606   2.530   3.401   1.990  0.4674 -0.5247  3.3834
 1349TIP3    H225607   2.584   3.540   2.014 -0.1837  0.2332  0.7653
 1350TIP3   OH225608   2.363   0.450   1.255 -0.1213  0.8338  0.1363
 1350TIP3    H125609   2.348   0.509   1.181 -0.8394 -0.3114 -0.6735
 1350TIP3    H225610   2.278   0.407   1.269  0.6410 -0.8464 -0.0831
 1351TIP3   OH225611   6.300   4.439   0.570 -0.4446 -0.2606 -0.3711
 1351TIP3    H125612   6.334   4.375   0.632 -1.1335  0.6770  1.0375
 1351TIP3    H225613   6.349   4.423   0.489  1.7046 -0.4336  0.8844
 1352TIP3   OH225614   2.720   1.873   8.068  0.0885  0.4724 -0.2282
 1352TIP3    H125615   2.722   1.899   7.976  0.3822  0.5135 -0.2121
 1352TIP3    H225616   2.757   1.948   8.115 -0.1393  0.4862 -0.0674
 1353TIP3   OH225617   0.238   6.439   6.974 -0.0336  0.0768  1.1996
 1353TIP3    H125618   0.228   6.488   6.892 -0.9567 -1.2477  0.4767
 1353TIP3    H225619   0.148   6.420   7.001  0.2443 -2.8930  0.3634
 1354TIP3   OH225620   0.044   6.228   1.519 -0.2509  0.6659  0.1816
 1354TIP3    H125621   0.139   6.236   1.529 -0.0989  0.0851 -0.6683
 1354TIP3    H225622   0.026   6.270   1.435 -0.8325  1.2722  0.6017
 1355TIP3   OH225623   4.299   1.122   1.338 -1.0401 -0.1288  0.3816
 1355TIP3    H125624   4.220   1.169   1.313 -0.9651 -0.4606 -0.4955
 1355TIP3    H225625   4.268   1.051   1.395 -1.5584 -1.1304 -1.0952
 1356TIP3   OH225626   3.839   2.173   0.730 -0.6460 -0.1174  0.0039
 1356TIP3    H125627   3.765   2.117   0.754  0.0458 -0.4643  1.4410
 1356TIP3    H225628   3.906   2.154   0.796  0.5663  0.5180 -0.9985
 1357TIP3   OH225629   2.966   0.264   1.352  0.4550 -0.3729  1.0937
 1357TIP3    H125630   2.888   0.276   1.406  0.4576  1.7522  0.7180
 1357TIP3    H225631   2.945   0.307   1.269  2.0649  0.4222  1.0618
 1358TIP3   OH225632   6.035   6.803   7.915 -0.5588 -0.8957  0.4164
 1358TIP3    H125633   6.112   6.776   7.965 -0.6135  0.6656  1.4371
 1358TIP3    H225634   5.971   6.733   7.929 -0.3681 -0.7764  2.1165
 1359TIP3   OH225635   5.707   3.147   0.051 -0.5599 -0.3709 -0.0752
 1359TIP3    H125636   5.701   3.220  -0.010 -0.3541 -1.4030 -1.3660
 1359TIP3    H225637   5.616   3.123   0.070 -0.6209 -0.4887 -0.5182
 1360TIP3   OH225638   1.438   0.594   1.133 -0.3244  0.2965  0.1948
 1360TIP3    H125639   1.496   0.658   1.173  0.2784  0.0499 -0.2798
 1360TIP3    H225640   1.407   0.541   1.206  0.6276 -0.0392  0.3619
 1361TIP3   OH225641   3.882   3.668   1.651  0.2059 -0.3936 -0.2827
 1361TIP3    H125642   3.888   3.576   1.622 -1.9320 -1.1321  1.4209
 1361TIP3    H225643   3.971   3.688   1.681  0.5508 -2.1612  0.0330
 1362TIP3   OH225644   5.022   3.108   8.016  0.0013  0.4496 -0.2071
 1362TIP3    H125645   5.105   3.155   8.021 -0.7875  1.7960  0.9944
 1362TIP3    H225646   5.002   3.105   7.923  0.3003  2.1764 -0.3660
 1363TIP3   OH225647   5.383   4.947   8.645 -0.1402 -0.6309 -0.1125
 1363TIP3    H125648   5.293   4.958   8.675 -0.4332 -1.2633 -0.7254
 1363TIP3    H225649   5.383   4.983   8.556  0.0671 -1.1390 -0.3233
 1364TIP3   OH225650   0.130   0.032   8.288  0.2761  0.1496 -0.1927
 1364TIP3    H125651   0.204   0.087   8.262 -0.0675  1.5110  1.5145
 1364TIP3    H225652   0.054   0.090   8.285 -0.4851 -0.8239 -0.4303
 1365TIP3   OH225653   5.039   0.532   0.283  0.3609  0.1576  0.2579
 1365TIP3    H125654   5.062   0.524   0.191 -0.3778 -0.7707  0.1302
 1365TIP3    H225655   4.993   0.615   0.290 -1.8685 -0.9161 -0.7575
 1366TIP3   OH225656   3.508   5.656   1.749 -0.3414 -0.2621  0.6196
 1366TIP3    H125657   3.420   5.652   1.788 -0.8004  1.6740 -0.0747
 1366TIP3    H225658   3.492   5.649   1.655  0.0142  1.7205  0.3590
 1367TIP3   OH225659   3.923   4.227   1.086 -0.4714  0.5885 -0.2384
 1367TIP3    H125660   3.937   4.203   1.178 -0.5084  0.9522 -0.1346
 1367TIP3    H225661   3.966   4.312   1.077  1.1601 -0.2816 -1.0394
 1368TIP3   OH225662   3.244   6.636   7.869  0.2294  0.5530  0.0066
 1368TIP3    H125663   3.270   6.628   7.777 -1.3937  0.6486 -0.4776
 1368TIP3    H225664   3.291   6.565   7.913  0.8597  0.3815 -0.9149
 1369TIP3   OH225665   6.715   5.668   0.251 -0.1446  0.4916 -0.3028
 1369TIP3    H125666   6.773   5.680   0.327 -0.5304  0.4548  0.0006
 1369TIP3    H225667   6.766   5.700   0.177  0.0891  0.9141  0.0328
 1370TIP3   OH225668   4.858   4.774   8.283  0.0326  0.4992  0.9494
 1370TIP3    H125669   4.784   4.828   8.259 -0.4281 -0.8992 -1.0440
 1370TIP3    H225670   4.821   4.687   8.299  1.3630 -1.0913 -3.1890
 1371TIP3   OH225671   3.115   2.150   0.304 -0.0517 -0.0164 -0.0240
 1371TIP3    H125672   3.184   2.083   0.302  0.8461  0.8859 -1.6269
 1371TIP3    H225673   3.129   2.197   0.386 -0.0601 -1.1406  0.6385
 1372TIP3   OH225674   4.820   6.471   0.420  0.2602  0.2223 -0.0981
 1372TIP3    H125675   4.896   6.524   0.399  0.1704  0.0192 -0.9661
 1372TIP3    H225676   4.854   6.382   0.430  0.4192  0.4175  1.4033
 1373TIP3   OH225677   1.422   4.575   1.380 -0.6841  0.4055 -0.1133
 1373TIP3    H125678   1.389   4.497   1.336 -0.5382 -0.3353  1.0182
 1373TIP3    H225679   1.357   4.594   1.448  0.3332 -0.0576  1.0351
 1374TIP3   OH225680   0.299   0.465   7.561  0.6046  0.5775  0.0391
 1374TIP3    H125681   0.364   0.396   7.553  0.5239  0.6875 -2.7093
 1374TIP3    H225682   0.315   0.521   7.485 -2.8666  0.4090 -1.0000
 1375TIP3   OH225683   5.869   0.841   8.315  0.0940 -0.1793 -0.3781
 1375TIP3    H125684   5.850   0.920   8.366 -0.3563 -1.0611  0.8699
 1375TIP3    H225685   5.945   0.802   8.359  0.3138 -0.4541 -0.9845
 1376TIP3   OH225686   1.778   6.430   7.866 -0.1524  0.2996 -0.2835
 1376TIP3    H125687   1.827   6.468   7.939 -0.8207  0.7012 -0.0409
 1376TIP3    H225688   1.771   6.337   7.888  1.4315  0.0186 -0.8479
 1377TIP3   OH225689   3.987   2.262   2.204 -0.5931 -0.1892 -0.2028
 1377TIP3    H125690   3.976   2.335   2.264  1.3795 -0.4441  0.5596
 1377TIP3    H225691   3.911   2.206   2.219 -1.2067  0.8033  0.4952
 1378TIP3   OH225692   3.554   1.684   0.307 -0.1741 -0.0945  0.4088
 1378TIP3    H125693   3.489   1.618   0.332 -0.5038 -1.3572 -3.2007
 1378TIP3    H225694   3.503   1.762   0.286 -0.5768 -0.8888 -1.8091
 1379TIP3   OH225695   1.895   4.795   8.791  0.0820 -0.3914  0.3828
 1379TIP3    H125696   1.965   4.857   8.770  0.2977 -1.2803 -1.7345
 1379TIP3    H225697   1.878   4.809   8.885  0.4275  2.4985  0.0998
 1380TIP3   OH225698   2.212   4.580   1.854 -0.2481  0.1120 -0.0117
 1380TIP3    H125699   2.205   4.640   1.780 -2.3574 -0.4685 -0.3339
 1380TIP3    H225700   2.157   4.506   1.830  1.4654 -1.5151  0.8262
 1381TIP3   OH225701   0.130   2.731   2.474 -0.2180 -0.1832  0.4560
 1381TIP3    H125702   0.113   2.815   2.517 -0.5149 -0.6982  1.3839
 1381TIP3    H225703   0.211   2.700   2.514 -2.1386 -2.1740  3.1191
 1382TIP3   OH225704   3.590   5.997   2.480  0.1745  0.4602 -0.3852
 1382TIP3    H125705   3.568   5.975   2.570 -0.2036 -0.8447 -0.7808
 1382TIP3    H225706   3.666   5.943   2.459 -0.0892  0.3357 -1.0321
 1383TIP3   OH225707   2.991   3.927   7.830 -0.5885 -0.1079 -0.0481
 1383TIP3    H125708   3.028   3.843   7.801  1.0383  0.8190 -0.8109
 1383TIP3    H225709   3.067   3.979   7.855 -1.6686  0.6832  1.7497
 1384TIP3   OH225710   2.423   1.277   7.765  0.1166 -0.1069 -0.0666
 1384TIP3    H125711   2.470   1.308   7.842  0.1806  0.7182 -0.4338
 1384TIP3    H225712   2.491   1.262   7.699  0.0222 -0.4405 -0.0917
 1385TIP3   OH225713   6.211   2.194   0.033 -0.2683 -0.5832  0.2069
 1385TIP3    H125714   6.137   2.148   0.073  0.2185 -1.8399 -0.2632
 1385TIP3    H225715   6.288   2.154   0.074  0.1961  1.8795  1.9631
 1386TIP3   OH225716   3.063   5.141   2.121  0.1077 -0.0979  0.4927
 1386TIP3    H125717   3.086   5.054   2.155  1.4535 -0.4803 -1.2473
 1386TIP3    H225718   2.983   5.126   2.069  0.6151 -0.4152 -0.2115
 1387TIP3   OH225719   1.101   0.918   1.475  0.3954  0.4756  0.2651
 1387TIP3    H125720   1.186   0.947   1.509  0.9541 -1.6708  0.8544
 1387TIP3    H225721   1.046   0.996   1.479  1.8130  1.4836  1.5864
 1388TIP3   OH225722   2.450   6.403   2.187 -0.9237 -0.7446 -0.2419
 1388TIP3    H125723   2.491   6.327   2.228  1.0245 -0.6289 -1.8228
 1388TIP3    H225724   2.398   6.443   2.257  1.0389 -1.3888  1.7026
 1389TIP3   OH225725   1.045   2.892   1.215 -0.6030  0.1491  0.1776
 1389TIP3    H125726   1.047   2.970   1.269  1.6243  1.0774 -1.1020
 1389TIP3    H225727   1.135   2.882   1.184 -1.1739 -2.0002 -1.0124
 1390TIP3   OH225728   0.032   1.201   7.014 -0.3836  0.0709 -0.5584
 1390TIP3    H125729  -0.006   1.116   7.038  1.0638 -0.4456 -0.0344
 1390TIP3    H225730  -0.039   1.263   7.031 -0.0810 -0.4429  3.6006
 1391TIP3   OH225731   6.177   2.871   2.407 -0.0262 -0.2503  0.1560
 1391TIP3    H125732   6.169   2.776   2.393  0.2965 -0.2466 -0.0621
 1391TIP3    H225733   6.237   2.879   2.481 -0.7238 -0.2352  0.7273
 1392TIP3   OH225734   3.415   3.441   0.711 -0.3431 -0.0934 -0.1693
 1392TIP3    H125735   3.421   3.345   0.704  0.5920 -0.0172 -0.5622
 1392TIP3    H225736   3.378   3.468   0.627  0.7740 -0.0081 -0.6494
 1393TIP3   OH225737   0.908   0.844   2.522 -0.0784 -0.3152  0.6364
 1393TIP3    H125738   0.977   0.778   2.529  0.7149  0.3799 -0.3200
 1393TIP3    H225739   0.832   0.804   2.563  0.3782 -1.8400  0.0507
 1394TIP3   OH225740   0.285   3.114   0.550  0.2356  0.4510  0.5497
 1394TIP3    H125741   0.337   3.077   0.622  0.5811  1.2662  0.7304
 1394TIP3    H225742   0.226   3.176   0.593 -0.4182  0.0264  0.2654
 1395TIP3   OH225743   0.760   1.449   1.690 -0.2422  0.4675  0.3080
 1395TIP3    H125744   0.724   1.495   1.766  0.3359 -1.0223  1.5631
 1395TIP3    H225745   0.694   1.459   1.622 -0.1818  2.9941  0.5299
 1396TIP3   OH225746   4.056   0.315   0.044 -0.2321  0.0802  0.0561
 1396TIP3    H125747   3.978   0.292   0.096 -0.2820 -1.2983 -0.5882
 1396TIP3    H225748   4.128   0.312   0.107 -0.6609  1.2818  0.6416
 1397TIP3   OH225749   0.306   2.685   0.887  0.2957  0.5911 -0.1468
 1397TIP3    H125750   0.231   2.714   0.834  0.9433  0.0236 -1.4368
 1397TIP3    H225751   0.282   2.706   0.977 -1.9066 -0.6055 -0.3955
 1398TIP3   OH225752   1.599   1.971   8.635  0.0320 -0.2854 -0.1892
 1398TIP3    H125753   1.591   1.980   8.730 -0.0011 -1.2253 -0.0881
 1398TIP3    H225754   1.553   1.889   8.615  1.9922 -1.3277 -0.7026
 1399TIP3   OH225755   5.482   0.375   1.874 -0.0788  0.9379 -0.7187
 1399TIP3    H125756   5.469   0.284   1.847 -1.2630  0.3658  1.5197
 1399TIP3    H225757   5.535   0.413   1.805  0.5799 -1.4907 -1.6575
 1400TIP3   OH225758   0.155   0.865   8.771 -0.0313  0.3073 -0.3477
 1400TIP3    H125759   0.194   0.902   8.850 -2.2891  1.0668  0.4888
 1400TIP3    H225760   0.105   0.789   8.801 -0.5601  0.3363 -1.0965
 1401TIP3   OH225761   0.485   5.863   0.808 -1.1071  0.7222 -0.1148
 1401TIP3    H125762   0.456   5.816   0.885 -1.2583  0.5648 -0.2667
 1401TIP3    H225763   0.541   5.933   0.842  1.4599 -1.2361 -0.0605
 1402TIP3   OH225764   4.815   0.757   1.668  0.5556  0.2478  0.3455
 1402TIP3    H125765   4.827   0.777   1.761  2.4598  0.6481  0.0605
 1402TIP3    H225766   4.768   0.832   1.633 -3.1424 -1.2736  1.4919
 1403TIP3   OH225767   1.750   5.387   2.781  0.5032  0.2381 -0.1354
 1403TIP3    H125768   1.699   5.399   2.862 -0.2558 -1.6681 -0.2562
 1403TIP3    H225769   1.817   5.323   2.805  0.1978 -0.4417 -1.0087
 1404TIP3   OH225770   0.800   2.608   2.119  0.1412 -0.0692  0.0654
 1404TIP3    H125771   0.731   2.568   2.066 -1.5761 -1.0530  2.8183
 1404TIP3    H225772   0.878   2.557   2.098 -0.6241 -0.8898 -0.9472
 1405TIP3   OH225773   5.984   1.366   8.075 -0.0882  0.2700  0.0209
 1405TIP3    H125774   5.988   1.394   7.984  1.3505  2.3006  0.6469
 1405TIP3    H225775   5.896   1.392   8.105 -0.6241 -0.5519 -0.8001
 1406TIP3   OH225776   1.503   6.289   7.290 -0.0474 -0.0786 -1.1157
 1406TIP3    H125777   1.594   6.260   7.296 -0.0173  0.1940 -0.0414
 1406TIP3    H225778   1.500   6.367   7.346 -1.3909 -1.2306  0.4925
 1407TIP3   OH225779   4.029   6.521   2.558 -0.5643 -0.3139  0.4420
 1407TIP3    H125780   4.069   6.438   2.584  1.3833  1.1064  2.3112
 1407TIP3    H225781   3.958   6.496   2.498  0.7882 -3.2149 -0.1152
 1408TIP3   OH225782   2.901   3.831   8.736  0.4013 -0.0643 -0.1062
 1408TIP3    H125783   2.844   3.816   8.660  0.5219 -0.3657 -0.1358
 1408TIP3    H225784   2.840   3.844   8.809  0.2895 -0.1883 -0.1758
 1409TIP3   OH225785   3.595   4.488   7.565 -0.0130 -0.0774 -0.2382
 1409TIP3    H125786   3.628   4.500   7.476 -1.4025  3.5540 -0.4478
 1409TIP3    H225787   3.647   4.549   7.618 -1.1870  0.0426  0.8324
 1410TIP3   OH225788   6.087   3.148   2.263 -0.5687 -0.3959 -0.1964
 1410TIP3    H125789   6.153   3.086   2.232  2.3297  1.4667  1.7714
 1410TIP3    H225790   6.041   3.102   2.333  2.2923 -0.1256  2.0080
 1411TIP3   OH225791   2.513   1.465   0.010 -0.2395 -0.5041  0.2538
 1411TIP3    H125792   2.599   1.440   0.045  0.3457  0.8356 -0.1654
 1411TIP3    H225793   2.458   1.473   0.088  0.4464  0.1924  0.6921
 1412TIP3   OH225794   2.787   0.742   7.393 -0.8763  0.1527 -0.2857
 1412TIP3    H125795   2.842   0.697   7.329  1.5325  0.7456  1.1857
 1412TIP3    H225796   2.816   0.706   7.478 -2.4960  0.8378  0.5975
 1413TIP3   OH225797   3.324   6.105   2.345 -0.2587 -0.0758  0.0023
 1413TIP3    H125798   3.231   6.088   2.358 -0.1176 -1.3788 -0.5535
 1413TIP3    H225799   3.368   6.039   2.399  0.3134 -1.8820 -2.4736
 1414TIP3   OH225800   5.291   2.507   8.323 -0.3432 -0.4669 -0.0243
 1414TIP3    H125801   5.301   2.497   8.417  0.4075 -0.1660 -0.0607
 1414TIP3    H225802   5.310   2.600   8.306 -1.5595 -0.2568 -0.3497
 1415TIP3   OH225803   4.415   5.633   0.943  0.0901  0.0913 -0.1313
 1415TIP3    H125804   4.450   5.721   0.956 -0.6245  0.3042  0.3761
 1415TIP3    H225805   4.386   5.605   1.030  1.1330 -1.0064 -0.1138
 1416TIP3   OH225806   0.934   4.497   8.011  0.0130  0.3973 -0.3804
 1416TIP3    H125807   0.851   4.480   7.967 -0.3790  0.0343  0.4825
 1416TIP3    H225808   0.989   4.421   7.991 -0.1514  0.2495 -0.2652
 1417TIP3   OH225809   3.177   4.762   0.547 -0.2672  0.5083 -0.2449
 1417TIP3    H125810   3.214   4.782   0.633  0.3572  1.5834 -0.7437
 1417TIP3    H225811   3.210   4.675   0.527 -0.4088  0.2478  0.5950
 1418TIP3   OH225812   0.363   2.748   7.448  0.1822  0.1384  0.6655
 1418TIP3    H125813   0.354   2.653   7.457  0.9538  0.0411  0.5143
 1418TIP3    H225814   0.287   2.784   7.493  0.0065 -0.5459  0.9292
 1419TIP3   OH225815   6.608   3.013   0.104  0.4288  0.0207 -0.5508
 1419TIP3    H125816   6.625   2.946   0.039  1.8300  0.2152 -0.4165
 1419TIP3    H225817   6.668   3.084   0.082 -0.5017  0.9213 -0.2472
 1420TIP3   OH225818   5.976   3.241   0.156  0.2436  0.2916  0.2780
 1420TIP3    H125819   5.886   3.216   0.136  0.5116 -1.3086  0.8441
 1420TIP3    H225820   6.029   3.185   0.099  0.8936  1.3835 -0.2195
 1421TIP3   OH225821   4.137   3.616   0.591  0.6257  0.6763  0.6890
 1421TIP3    H125822   4.230   3.626   0.572  0.6243 -0.6469 -0.1752
 1421TIP3    H225823   4.099   3.700   0.567  1.0474  0.0360 -2.8950
 1422TIP3   OH225824   0.553   1.316   0.700  0.1079 -0.0312  0.1485
 1422TIP3    H125825   0.459   1.296   0.706  0.2025 -0.3171  0.8725
 1422TIP3    H225826   0.564   1.393   0.755  0.2124  0.3287 -0.3750
 1423TIP3   OH225827   3.623   3.082   1.825 -0.1246 -0.4449  0.2221
 1423TIP3    H125828   3.623   3.068   1.920  0.2750 -0.0533  0.2822
 1423TIP3    H225829   3.715   3.075   1.800  0.0940  1.8074  0.2165
 1424TIP3   OH225830   0.557   2.705   7.855  0.2133 -0.5900 -0.4474
 1424TIP3    H125831   0.564   2.800   7.851  3.0421 -0.6993  0.1476
 1424TIP3    H225832   0.523   2.687   7.943 -1.0226 -0.1369 -0.8182
 1425TIP3   OH225833   1.457   5.543   0.113  0.1158  0.3497 -0.0664
 1425TIP3    H125834   1.522   5.511   0.176  1.5368  0.4123 -1.4440
 1425TIP3    H225835   1.506   5.555   0.031 -1.6622  0.2841 -1.1989
 1426TIP3   OH225836   1.730   3.982   0.855  0.1592  0.2953  0.3348
 1426TIP3    H125837   1.799   3.917   0.852  0.1996  0.3566 -0.1032
 1426TIP3    H225838   1.666   3.946   0.917  1.5064  1.1752  2.3690
 1427TIP3   OH225839   6.315   1.244   7.543  0.4563 -0.5671 -0.3354
 1427TIP3    H125840   6.220   1.243   7.546  0.4648 -0.1867  2.1209
 1427TIP3    H225841   6.336   1.284   7.458 -1.5690  0.4646 -0.4033
 1428TIP3   OH225842   2.344   6.388   8.796  0.8011  0.3555  0.4778
 1428TIP3    H125843   2.331   6.430   8.711 -2.4223  0.5275  0.9544
 1428TIP3    H225844   2.374   6.300   8.774 -1.5525 -0.1790 -1.0089
 1429TIP3   OH225845   2.788   5.303   8.324 -0.3131 -0.1602  0.2629
 1429TIP3    H125846   2.824   5.382   8.284 -0.8967  0.3459  0.7216
 1429TIP3    H225847   2.737   5.262   8.254 -0.7936  0.3802  0.2834
 1430TIP3   OH225848   4.144   3.405   2.045  0.7331  0.7141  0.0952
 1430TIP3    H125849   4.088   3.342   2.000  0.9348  0.1999  0.5449
 1430TIP3    H225850   4.099   3.488   2.037  1.1617  0.8052 -1.7770
 1431TIP3   OH225851   4.968   3.749   0.420  0.1926 -1.0153 -0.1293
 1431TIP3    H125852   5.016   3.729   0.340 -0.6495 -1.3593 -0.5686
 1431TIP3    H225853   4.973   3.669   0.472 -0.7412 -1.4160 -0.6243
 1432TIP3   OH225854   0.808   2.073   2.676  0.2508  0.0626 -0.2272
 1432TIP3    H125855   0.751   2.086   2.600 -0.5418  0.6057  0.4415
 1432TIP3    H225856   0.748   2.044   2.745  1.0487 -0.9741  0.0516
 1433TIP3   OH225857   1.909   1.942   0.164 -0.7461  0.2900  0.0743
 1433TIP3    H125858   1.845   1.875   0.138  0.2346 -0.5936 -0.1461
 1433TIP3    H225859   1.950   1.906   0.243  0.0314  0.4538 -0.2432
 1434TIP3   OH225860   6.273   6.233   1.447  0.1588  0.1508  0.4387
 1434TIP3    H125861   6.232   6.149   1.430  0.0161 -0.2612  2.5038
 1434TIP3    H225862   6.204   6.298   1.435  0.4069  0.0692 -1.7022
 1435TIP3   OH225863   6.379   6.146   8.549 -0.3982  0.5112 -0.5537
 1435TIP3    H125864   6.355   6.063   8.507  0.6974  0.6092 -1.4006
 1435TIP3    H225865   6.474   6.149   8.543 -0.4605  2.0842 -0.9909
 1436TIP3   OH225866   3.137   2.915   8.509  0.0553  0.4449  0.0153
 1436TIP3    H125867   3.144   2.977   8.581 -2.4421 -1.5972  2.1969
 1436TIP3    H225868   3.048   2.926   8.476  0.2771 -0.5350 -0.9872
 1437TIP3   OH225869   5.637   2.845   8.774  0.2772 -0.2483  0.0462
 1437TIP3    H125870   5.624   2.935   8.806  0.4716  0.1811 -1.0435
 1437TIP3    H225871   5.732   2.834   8.775  0.3250  0.0164 -1.0261
 1438TIP3   OH225872   4.960   6.230   0.420 -0.7089 -0.1863  0.6828
 1438TIP3    H125873   4.877   6.188   0.440 -0.4378 -2.1988 -1.9206
 1438TIP3    H225874   5.026   6.168   0.451 -0.2255  0.2748  0.5862
 1439TIP3   OH225875   4.982   1.494   2.425  0.3043  0.4286 -0.6935
 1439TIP3    H125876   4.945   1.472   2.511  0.2199 -0.2104 -0.8814
 1439TIP3    H225877   5.071   1.523   2.444  0.3426  0.1314 -0.3983
 1440TIP3   OH225878   5.084   0.075   7.442  0.0583 -0.5822 -0.4682
 1440TIP3    H125879   5.139   0.098   7.516  1.6037 -3.1115 -0.7005
 1440TIP3    H225880   5.081   0.153   7.388  0.8512  0.5747  1.0924
 1441TIP3   OH225881   0.031   3.759   2.192 -0.3609  0.7344 -0.1765
 1441TIP3    H125882   0.004   3.689   2.133 -0.8984  0.8791 -0.1050
 1441TIP3    H225883   0.110   3.725   2.234  0.5737  0.9986 -1.6460
 1442TIP3   OH225884   4.814   1.378   2.646  0.1672  0.6354  0.0104
 1442TIP3    H125885   4.725   1.406   2.666 -0.4651 -0.5513 -1.0034
 1442TIP3    H225886   4.837   1.318   2.717 -0.4778 -0.3163 -0.5660
 1443TIP3   OH225887   5.293   6.286   1.820  0.4950 -0.4750 -0.0718
 1443TIP3    H125888   5.320   6.305   1.909  1.1486  0.3397 -0.4238
 1443TIP3    H225889   5.302   6.370   1.774 -0.0953 -0.8128 -0.8336
 1444TIP3   OH225890   5.098   3.024   0.324 -0.1061  0.2846  0.3631
 1444TIP3    H125891   5.090   3.076   0.404 -0.2074 -1.1250  1.3002
 1444TIP3    H225892   5.177   3.058   0.281 -0.2801  1.3327  0.8353
 1445TIP3   OH225893   2.953   1.112   8.822  0.7757  0.0598 -0.7663
 1445TIP3    H125894   2.942   1.046   8.754  1.4214  0.3857 -1.2006
 1445TIP3    H225895   2.955   1.063   8.904  1.4927 -0.4965 -1.1033
 1446TIP3   OH225896   5.434   4.305   7.011  0.5630  0.2506 -0.2596
 1446TIP3    H125897   5.514   4.353   6.988  0.0282  0.9664 -0.6700
 1446TIP3    H225898   5.378   4.371   7.052 -0.1333 -0.0525 -0.7130
 1447TIP3   OH225899   2.124   3.638   0.840  0.0830  0.6390 -0.5773
 1447TIP3    H125900   2.037   3.639   0.879  0.3159 -1.1041  0.0696
 1447TIP3    H225901   2.142   3.730   0.819 -1.2629  1.2250  0.6800
 1448TIP3   OH225902   5.414   2.783   0.990 -0.0833  1.1337 -0.1567
 1448TIP3    H125903   5.368   2.778   0.907 -0.7892  0.6004  0.2562
 1448TIP3    H225904   5.489   2.839   0.972  0.4732  0.0277 -1.4717
 1449TIP3   OH225905   3.321   2.805   0.742 -0.2404 -0.3620  0.4339
 1449TIP3    H125906   3.268   2.774   0.815 -0.1845  0.2862  0.7598
 1449TIP3    H225907   3.388   2.738   0.730 -0.2898 -0.5026  0.9396
 1450TIP3   OH225908   2.394   0.838   0.359 -0.0302  0.1265 -0.1097
 1450TIP3    H125909   2.367   0.879   0.441 -0.0929 -0.0093 -0.0628
 1450TIP3    H225910   2.359   0.896   0.291 -0.2632  0.0640 -0.0457
 1451TIP3   OH225911   4.560   5.489   2.406 -0.6214 -1.0703 -0.4076
 1451TIP3    H125912   4.603   5.522   2.328 -0.4855 -1.0490 -0.3241
 1451TIP3    H225913   4.595   5.400   2.417  0.4765 -0.5481  0.4600
 1452TIP3   OH225914   5.457   6.296   1.212 -0.5421 -0.0730 -0.2451
 1452TIP3    H125915   5.512   6.292   1.290 -0.2514  0.3113 -0.4266
 1452TIP3    H225916   5.518   6.281   1.139 -0.7750 -0.2116 -0.4132
 1453TIP3   OH225917   0.282   0.093   8.778 -0.1848  0.7976 -0.3184
 1453TIP3    H125918   0.347   0.136   8.833 -0.0640 -0.5937  0.6844
 1453TIP3    H225919   0.303   0.121   8.689  2.7415 -0.7490 -0.2153
 1454TIP3   OH225920   1.863   4.455   2.702  0.1575 -0.5067 -1.1217
 1454TIP3    H125921   1.866   4.371   2.746 -0.8300 -1.1677 -2.2417
 1454TIP3    H225922   1.944   4.499   2.728  0.3927 -1.5305 -0.0224
 1455TIP3   OH225923   0.713   4.572   8.191  0.3246 -0.1762  0.4787
 1455TIP3    H125924   0.695   4.651   8.139 -0.2139  0.8357  2.0943
 1455TIP3    H225925   0.796   4.539   8.157  0.2596  0.7365 -0.6485
 1456TIP3   OH225926   4.395   5.680   0.355 -0.1592 -0.7375 -0.0317
 1456TIP3    H125927   4.452   5.606   0.334  0.1339 -1.1296  1.8770
 1456TIP3    H225928   4.313   5.661   0.311  0.9926 -0.3745 -2.5063
 1457TIP3   OH225929   4.660   6.721   0.180  0.3658 -1.0161 -0.2616
 1457TIP3    H125930   4.614   6.695   0.260  0.6453 -1.4036 -0.2255
 1457TIP3    H225931   4.689   6.811   0.198  2.2146 -1.7753  0.9016
 1458TIP3   OH225932   0.360   0.873   0.473 -0.3926 -0.6532  0.3228
 1458TIP3    H125933   0.385   0.803   0.533 -1.0987  0.5383  2.0835
 1458TIP3    H225934   0.443   0.904   0.436  0.1353 -0.9282  1.2526
 1459TIP3   OH225935   6.315   3.916   0.538  0.1654  0.4222  0.3560
 1459TIP3    H125936   6.409   3.914   0.557  0.2493 -0.5322 -0.1234
 1459TIP3    H225937   6.310   3.936   0.444 -0.0113 -1.9717 -0.1949
 1460TIP3   OH225938   5.593   6.672   8.041 -0.4641  0.2830  0.6390
 1460TIP3    H125939   5.596   6.767   8.048 -0.5325  0.3214  0.1749
 1460TIP3    H225940   5.501   6.650   8.054 -0.4525  0.2829  0.7202
 1461TIP3   OH225941   3.697   4.875   8.316  0.0537  0.2559  0.9018
 1461TIP3    H125942   3.710   4.839   8.228 -0.8450  1.6184  0.1874
 1461TIP3    H225943   3.740   4.960   8.314  0.7327 -0.0366  2.0609
 1462TIP3   OH225944   1.181   2.636   2.208  0.1372  0.2342  0.4569
 1462TIP3    H125945   1.102   2.588   2.186  0.5969 -0.9654  1.3616
 1462TIP3    H225946   1.230   2.578   2.266  1.9870  0.6683 -0.5862
 1463TIP3   OH225947   4.945   1.469   8.362  0.1272 -0.4085 -0.1141
 1463TIP3    H125948   5.029   1.431   8.337  0.9760  1.1589  0.2072
 1463TIP3    H225949   4.882   1.430   8.302  1.3415 -0.4176 -1.4481
 1464TIP3   OH225950   3.683   4.093   0.086 -0.1620 -0.3026 -0.6338
 1464TIP3    H125951   3.620   4.043   0.138 -0.3373  0.0846 -0.4690
 1464TIP3    H225952   3.687   4.178   0.129 -0.6281  0.1690 -1.4939
 1465TIP3   OH225953   0.849   1.787   2.580  0.6222  0.9234 -0.1145
 1465TIP3    H125954   0.844   1.874   2.619  1.4647  0.4786  1.0299
 1465TIP3    H225955   0.761   1.772   2.543  0.5220  2.3119 -0.4856
 1466TIP3   OH225956   1.835   0.117   8.106  0.1228  0.0793 -0.6033
 1466TIP3    H125957   1.916   0.167   8.123 -0.0329  0.7052 -1.5960
 1466TIP3    H225958   1.781   0.177   8.055 -0.9107 -0.4030 -0.0972
 1467TIP3   OH225959   5.110   2.169   8.708 -0.3654  0.3034 -0.1437
 1467TIP3    H125960   5.116   2.074   8.718 -1.6773  0.3172  0.9905
 1467TIP3    H225961   5.052   2.181   8.632  0.5704  0.2285 -0.8990
 1468TIP3   OH225962   5.771   0.422   7.145  0.2209 -0.0225 -0.2907
 1468TIP3    H125963   5.797   0.432   7.054 -0.5811 -1.3995 -0.7064
 1468TIP3    H225964   5.788   0.507   7.185  1.5540  0.2991 -1.4630
 1469TIP3   OH225965   2.697   5.324   2.200  0.6464 -0.5431  0.0935
 1469TIP3    H125966   2.605   5.322   2.175  0.4765 -1.8615  0.7354
 1469TIP3    H225967   2.698   5.374   2.282  0.5315 -0.3875  0.0014
 1470TIP3   OH225968   1.585   2.859   0.639  0.5070  0.1815  0.1701
 1470TIP3    H125969   1.503   2.848   0.592 -1.1174  1.3904  2.5299
 1470TIP3    H225970   1.617   2.770   0.653 -0.9135 -0.3771  0.0176
 1471TIP3   OH225971   5.135   3.625   1.309 -0.2232 -0.0960  0.3883
 1471TIP3    H125972   5.219   3.651   1.347  0.2430  1.1624 -1.3427
 1471TIP3    H225973   5.146   3.534   1.284  0.6468  0.0679  0.1556
 1472TIP3   OH225974   1.393   6.357   1.975 -0.0074  0.1358  0.0775
 1472TIP3    H125975   1.299   6.343   1.973 -0.1959  1.0746  1.2536
 1472TIP3    H225976   1.405   6.442   1.931  0.4807 -0.7081 -1.5075
 1473TIP3   OH225977   2.245   0.862   1.382  0.0330  0.8865 -0.4647
 1473TIP3    H125978   2.246   0.796   1.313 -2.0073  0.2698  0.0407
 1473TIP3    H225979   2.256   0.945   1.335 -1.7869  0.5154 -1.6247
 1474TIP3   OH225980   5.917   4.598   0.057 -0.3984 -0.4619  0.1542
 1474TIP3    H125981   6.006   4.626   0.032 -1.0035  1.2726 -0.1960
 1474TIP3    H225982   5.923   4.584   0.152 -0.4014  2.6134  0.7168
 1475TIP3   OH225983   4.170   5.019   8.432 -0.1862 -0.7400 -0.1741
 1475TIP3    H125984   4.238   4.994   8.496  0.0240  0.0895 -0.0593
 1475TIP3    H225985   4.162   4.943   8.375  1.5198 -0.5390 -0.7547
 1476TIP3   OH225986   3.323   1.589   7.761 -0.3048  0.2913  0.3741
 1476TIP3    H125987   3.392   1.539   7.718 -0.8838 -1.8130  1.7228
 1476TIP3    H225988   3.368   1.638   7.829 -0.0971 -1.0685  1.2488
 1477TIP3   OH225989   5.966   2.990   1.653  0.3029  0.4790  0.3830
 1477TIP3    H125990   5.943   2.898   1.663  2.9203 -0.0448  3.0620
 1477TIP3    H225991   5.900   3.037   1.703 -1.9671  0.3410 -2.2621
 1478TIP3   OH225992   1.244   2.123   2.038 -0.2922 -0.2262 -0.3857
 1478TIP3    H125993   1.216   2.205   1.997 -0.2450 -0.1688 -0.3037
 1478TIP3    H225994   1.233   2.057   1.969 -2.4411 -0.5539  0.1982
 1479TIP3   OH225995   3.346   2.647   2.292 -0.1270  0.3605 -0.2059
 1479TIP3    H125996   3.251   2.650   2.299 -0.0821 -0.0314  0.6768
 1479TIP3    H225997   3.376   2.637   2.382  0.7727  0.9554 -0.4252
 1480TIP3   OH225998   0.800   6.460   0.839 -0.1436  0.4720 -0.1117
 1480TIP3    H125999   0.778   6.382   0.891  0.1034  1.1923  1.1062
 1480TIP3    H226000   0.774   6.437   0.750 -2.0090 -0.2328  0.5660
 1481TIP3   OH226001   0.356   3.879   8.065  0.1063  0.2617  0.3775
 1481TIP3    H126002   0.438   3.893   8.112  0.0760 -1.8587  1.1920
 1481TIP3    H226003   0.381   3.875   7.972  1.2068 -1.7210  0.7067
 1482TIP3   OH226004   3.755   0.137   8.663 -0.1092 -0.1229 -0.3534
 1482TIP3    H126005   3.780   0.079   8.735  0.4681  2.3023  1.5083
 1482TIP3    H226006   3.660   0.123   8.654 -0.8095  1.5063  2.9080
 1483TIP3   OH226007   1.646   3.271   0.956 -0.4226  0.2192 -0.3834
 1483TIP3    H126008   1.628   3.209   0.885 -0.6898  1.0847 -1.0868
 1483TIP3    H226009   1.676   3.216   1.029  0.1459 -0.6576 -1.2566
 1484TIP3   OH226010   4.266   4.150   1.927 -0.1967  0.2276 -0.4751
 1484TIP3    H126011   4.308   4.088   1.868 -0.1073  0.5067 -0.7049
 1484TIP3    H226012   4.325   4.154   2.003  0.1545  0.5560 -0.7622
 1485TIP3   OH226013   3.629   0.971   8.404 -0.1379 -0.3909 -0.4047
 1485TIP3    H126014   3.647   0.907   8.335 -1.1908 -1.3883  0.2158
 1485TIP3    H226015   3.534   0.975   8.409 -0.0748  0.2810  0.4366
 1486TIP3   OH226016   3.042   1.855   8.165 -0.2197  0.3856 -0.2133
 1486TIP3    H126017   3.066   1.856   8.258  2.1036 -2.2512 -0.6451
 1486TIP3    H226018   2.971   1.919   8.158 -1.9021 -0.6913  3.7472
 1487TIP3   OH226019   2.957   2.915   2.185  0.1047 -0.9760 -0.3434
 1487TIP3    H126020   3.026   2.977   2.208  0.0238 -0.7749 -0.6409
 1487TIP3    H226021   3.001   2.847   2.135 -0.3302  0.5934 -3.0929
 1488TIP3   OH226022   1.640   4.054   1.887  0.2497 -0.6789 -0.1277
 1488TIP3    H126023   1.574   4.110   1.928  0.9063 -1.0307  1.4940
 1488TIP3    H226024   1.685   4.110   1.824 -0.7615 -0.0999 -0.3498
 1489TIP3   OH226025   0.444   3.783   1.287 -0.2080  0.1693 -0.5174
 1489TIP3    H126026   0.458   3.689   1.279  0.3131  0.2312 -0.3705
 1489TIP3    H226027   0.531   3.819   1.304 -0.4142  0.6695 -0.5024
 1490TIP3   OH226028   2.377   5.891   8.082  0.1966  0.4249  0.1300
 1490TIP3    H126029   2.370   5.821   8.146  1.5557  0.4227  0.3042
 1490TIP3    H226030   2.430   5.854   8.011  0.9655  1.2521  0.2403
 1491TIP3   OH226031   4.142   4.433   2.532 -0.7447  0.2955  0.3679
 1491TIP3    H126032   4.160   4.525   2.551 -1.8894  0.3192  1.4703
 1491TIP3    H226033   4.182   4.384   2.603  0.7939 -0.1758 -0.7775
 1492TIP3   OH226034   4.582   4.932   2.402  0.2001 -0.0932  0.3769
 1492TIP3    H126035   4.661   4.878   2.405 -0.0171 -0.3737  1.5193
 1492TIP3    H226036   4.567   4.958   2.492 -2.1656 -1.7670  0.5667
 1493TIP3   OH226037   0.713   4.024   1.877  0.1898 -0.5137  0.3401
 1493TIP3    H126038   0.631   4.046   1.922 -0.1983  0.7069 -0.9027
 1493TIP3    H226039   0.776   4.087   1.912 -0.3776  1.2094 -1.5422
 1494TIP3   OH226040   0.336   4.671   2.084 -0.2339  0.1469 -0.1387
 1494TIP3    H126041   0.418   4.719   2.071  0.2510 -0.7807 -0.5803
 1494TIP3    H226042   0.363   4.587   2.121 -0.7507 -1.0981 -2.4412
 1495TIP3   OH226043   1.168   0.012   7.082 -0.5655  0.2448 -0.6413
 1495TIP3    H126044   1.240   0.053   7.034 -0.3377 -0.6174 -1.0561
 1495TIP3    H226045   1.098   0.078   7.080 -0.0186  0.8349 -0.7941
 1496TIP3   OH226046   1.063   6.765   1.983  0.5791  0.0410 -0.4982
 1496TIP3    H126047   1.022   6.797   1.903  0.0707  1.3147  0.2510
 1496TIP3    H226048   1.156   6.757   1.961  0.3597 -0.1535 -1.3692
 1497TIP3   OH226049   5.704   2.153   0.213 -0.7915  0.1621 -0.3220
 1497TIP3    H126050   5.794   2.124   0.199 -1.2439 -1.6944  0.2814
 1497TIP3    H226051   5.711   2.227   0.273  0.2250 -1.6229  1.8961
 1498TIP3   OH226052   3.339   3.517   0.428  0.6387 -0.5219 -0.3235
 1498TIP3    H126053   3.341   3.613   0.422  1.9074 -0.5009  0.1343
 1498TIP3    H226054   3.411   3.488   0.373  0.2777 -1.2156 -0.4342
 1499TIP3   OH226055   4.329   6.007   1.983 -0.8389 -0.3480 -0.0111
 1499TIP3    H126056   4.257   5.976   2.039 -1.8462  0.8206 -0.6048
 1499TIP3    H226057   4.313   6.101   1.974  0.7427 -0.0851 -0.2239
 1500TIP3   OH226058   0.342   6.215   7.623 -0.3178  0.2460  0.4531
 1500TIP3    H126059   0.321   6.162   7.546 -1.6527  0.4918  0.6165
 1500TIP3    H226060   0.376   6.152   7.686  0.8184  0.0440 -0.3301
 1501TIP3   OH226061   6.434   2.812   0.668 -0.3856  0.3213 -0.0973
 1501TIP3    H126062   6.412   2.720   0.654  0.8813 -0.0840  0.4640
 1501TIP3    H226063   6.527   2.818   0.647 -0.5164  1.5503 -0.4198
 1502TIP3   OH226064   5.254   6.746   7.808 -0.2631 -0.3682  0.4799
 1502TIP3    H126065   5.281   6.675   7.750  0.3699 -1.2658  1.8147
 1502TIP3    H226066   5.181   6.709   7.858  1.9573 -1.2761  3.3384
 1503TIP3   OH226067   1.210   6.454   1.734 -0.1601  0.0186  0.5074
 1503TIP3    H126068   1.245   6.525   1.788  0.2186 -0.0883  0.4043
 1503TIP3    H226069   1.166   6.396   1.797 -1.9848  1.2201  0.4019
 1504TIP3   OH226070   1.356   3.138   1.315  0.7505  0.3515 -0.4336
 1504TIP3    H126071   1.438   3.182   1.339  0.8408 -0.6398  1.2367
 1504TIP3    H226072   1.322   3.103   1.397 -1.2917  0.5877 -1.1212
 1505TIP3   OH226073   4.430   1.985   2.317 -0.0081  0.4434 -0.6359
 1505TIP3    H126074   4.395   1.906   2.360 -0.8056  0.5498 -1.0702
 1505TIP3    H226075   4.355   2.045   2.315  0.3207  0.8277 -1.2255
 1506TIP3   OH226076   1.504   4.939   2.047  0.4225 -0.1018  0.0883
 1506TIP3    H126077   1.599   4.936   2.058  0.5690 -0.6123 -1.1332
 1506TIP3    H226078   1.481   5.031   2.062  0.7804 -0.3521  2.5819
 1507TIP3   OH226079   1.255   6.239   1.091  0.3305 -0.1018 -0.5896
 1507TIP3    H126080   1.317   6.177   1.129  1.7141 -0.0261 -2.5573
 1507TIP3    H226081   1.197   6.185   1.038  0.0825  0.0596 -0.4847
 1508TIP3   OH226082   4.304   1.847   0.005 -0.0849  0.3941 -0.2934
 1508TIP3    H126083   4.326   1.825  -0.085  1.7267 -1.6588  0.5714
 1508TIP3    H226084   4.383   1.889   0.040  0.1421 -0.9880  0.9676
 1509TIP3   OH226085   1.525   2.404   2.507 -0.5326 -0.6591 -0.2361
 1509TIP3    H126086   1.597   2.349   2.540  1.4901  1.1031 -1.4228
 1509TIP3    H226087   1.466   2.414   2.582  1.8013 -0.0906  1.6478
 1510TIP3   OH226088   2.087   3.629   7.672  0.4928 -0.7202 -0.1514
 1510TIP3    H126089   2.156   3.687   7.639 -0.3440  2.3679  2.9699
 1510TIP3    H226090   2.014   3.641   7.611  0.7175  0.7502 -0.1713
 1511TIP3   OH226091   2.971   0.587   1.666  0.1508 -0.1062 -0.6202
 1511TIP3    H126092   2.889   0.622   1.630 -0.6341 -0.4982  0.7261
 1511TIP3    H226093   3.007   0.658   1.717  0.2995 -0.1640 -0.6443
 1512TIP3   OH226094   4.183   4.498   8.169 -0.3268  0.4939  0.3446
 1512TIP3    H126095   4.129   4.463   8.099  1.4566  1.6033 -1.7028
 1512TIP3    H226096   4.143   4.582   8.191 -1.5154 -0.3275  1.5110
 1513TIP3   OH226097   3.023   4.737   0.039 -0.1797 -0.3864  0.0798
 1513TIP3    H126098   3.099   4.795   0.035  1.2137 -2.1235 -0.2049
 1513TIP3    H226099   2.977   4.751  -0.043  0.7480 -0.4514 -0.4657
 1514TIP3   OH226100   5.600   0.388   8.737  0.4480  0.7025 -0.5662
 1514TIP3    H126101   5.688   0.389   8.774 -0.3823  0.7545  1.5460
 1514TIP3    H226102   5.549   0.445   8.795 -1.5262 -1.2870 -0.2075
 1515TIP3   OH226103   2.748   0.618   1.124 -0.3031  0.4522 -0.3464
 1515TIP3    H126104   2.815   0.686   1.130  0.0052  0.0585  0.9880
 1515TIP3    H226105   2.792   0.545   1.082 -0.1326  0.4946 -0.2446
 1516TIP3   OH226106   3.328   0.837   0.149 -0.1915 -0.5971  0.0666
 1516TIP3    H126107   3.362   0.780   0.080 -0.9074 -1.7033  0.5975
 1516TIP3    H226108   3.378   0.918   0.141  1.1146 -1.4371 -0.4686
 1517TIP3   OH226109   4.867   5.159   1.230  0.3651 -0.7853 -0.0748
 1517TIP3    H126110   4.865   5.202   1.144  0.2037 -0.8574 -0.1074
 1517TIP3    H226111   4.932   5.209   1.280  0.4320 -0.7193 -0.2266
 1518TIP3   OH226112   2.864   5.510   2.894  0.1112  0.0964  0.0971
 1518TIP3    H126113   2.797   5.448   2.923 -1.3251  1.6345  0.1790
 1518TIP3    H226114   2.827   5.596   2.912  1.0847  1.0566 -2.1208
 1519TIP3   OH226115   3.347   6.711   0.426  0.0134  0.4974 -0.6756
 1519TIP3    H126116   3.332   6.801   0.397  0.2564  0.4592 -0.9158
 1519TIP3    H226117   3.359   6.719   0.521 -2.0451  0.4773 -0.3729
 1520TIP3   OH226118   1.141   1.788   8.313 -0.2332  0.0242  0.0835
 1520TIP3    H126119   1.178   1.850   8.376 -2.4315  2.0689 -0.4972
 1520TIP3    H226120   1.064   1.752   8.357 -1.4393  1.0170 -1.1217
 1521TIP3   OH226121   4.290   0.038   1.452 -0.1652  0.0532 -0.0648
 1521TIP3    H126122   4.353  -0.013   1.502  0.8291  0.3318 -0.9957
 1521TIP3    H226123   4.206  -0.005   1.468  0.6247 -1.8580 -0.7518
 1522TIP3   OH226124   1.774   4.999   1.525 -0.1875 -0.0681 -0.0383
 1522TIP3    H126125   1.785   4.905   1.510 -0.1787 -0.3099  1.3317
 1522TIP3    H226126   1.708   5.025   1.461 -0.7920 -1.1834  0.0966
 1523TIP3   OH226127   2.255   3.185   0.124  0.1137 -0.4779 -0.6280
 1523TIP3    H126128   2.176   3.239   0.133 -1.1507 -2.5068  1.5004
 1523TIP3    H226129   2.327   3.245   0.139 -1.0333  1.2231 -1.5259
 1524TIP3   OH226130   4.114   4.830   0.301 -0.8164  0.6383  0.0717
 1524TIP3    H126131   4.158   4.772   0.239  0.3135  2.2179 -0.6802
 1524TIP3    H226132   4.043   4.777   0.338 -0.1077 -1.0554 -0.8839
 1525TIP3   OH226133   6.046   0.936   7.551  0.0758 -0.0626 -0.6302
 1525TIP3    H126134   6.068   0.905   7.638 -0.8248  0.8038 -0.0751
 1525TIP3    H226135   6.088   0.873   7.492  0.3829 -0.8675  0.4159
 1526TIP3   OH226136   1.173   1.962   1.288 -0.3307  0.1725  0.4280
 1526TIP3    H126137   1.123   2.028   1.337  1.0078  0.3829  1.5864
 1526TIP3    H226138   1.172   1.993   1.198 -3.0106 -0.3025  0.2167
 1527TIP3   OH226139   6.806   2.680   8.429  0.3818 -0.4315  0.3903
 1527TIP3    H126140   6.853   2.657   8.509  1.1292  1.1393  0.4439
 1527TIP3    H226141   6.835   2.616   8.365  0.3436 -1.2550  1.1649
 1528TIP3   OH226142   6.624   0.072   2.200  0.0778 -0.1533  0.5563
 1528TIP3    H126143   6.591  -0.004   2.151 -0.3370 -0.1166  0.7746
 1528TIP3    H226144   6.606   0.146   2.142 -0.1279 -0.1464  0.6272
 1529TIP3   OH226145   2.505   3.375   2.479 -0.1630 -0.0370 -0.0883
 1529TIP3    H126146   2.496   3.442   2.546  0.5666 -0.2855  0.2701
 1529TIP3    H226147   2.481   3.294   2.523  0.5142 -0.2294 -0.0636
 1530TIP3   OH226148   3.794   6.649   0.781  0.9050 -0.0591 -0.3976
 1530TIP3    H126149   3.730   6.702   0.828  0.1299 -1.7188  0.4896
 1530TIP3    H226150   3.743   6.605   0.713  0.5095 -3.1608  1.7109
 1531TIP3   OH226151   4.412   1.942   0.688  0.0413 -0.3717  0.3915
 1531TIP3    H126152   4.454   1.974   0.768 -1.6876 -1.6889  1.8888
 1531TIP3    H226153   4.398   1.849   0.703  1.8190 -1.2339 -2.4638
 1532TIP3   OH226154   6.600   2.590   0.444  0.1013 -0.2637 -0.5312
 1532TIP3    H126155   6.506   2.600   0.425  0.3135 -0.8285 -1.9711
 1532TIP3    H226156   6.612   2.496   0.459  0.3387 -0.1080  0.3287
 1533TIP3   OH226157   2.608   0.930   0.144  0.3581  0.1633 -0.2587
 1533TIP3    H126158   2.645   0.845   0.168  1.3988 -0.1790 -2.8051
 1533TIP3    H226159   2.586   0.922   0.051 -0.7027  2.2889 -0.2620
 1534TIP3   OH226160   5.549   4.413   8.136 -0.1111  0.3491  0.0742
 1534TIP3    H126161   5.469   4.385   8.181 -0.0128 -0.5180 -0.2900
 1534TIP3    H226162   5.619   4.395   8.198 -0.0179 -0.4766 -0.2689
 1535TIP3   OH226163   5.231   5.414   7.850  0.3066 -0.1212 -0.2784
 1535TIP3    H126164   5.211   5.506   7.866 -2.6793 -0.1597 -2.8494
 1535TIP3    H226165   5.291   5.416   7.775  0.2548 -0.2619 -0.3233
 1536TIP3   OH226166   4.729   2.970   2.335 -0.3703 -0.5920 -0.2414
 1536TIP3    H126167   4.715   2.884   2.296  1.3905 -1.1727  0.3026
 1536TIP3    H226168   4.704   2.959   2.427  0.1500 -0.6355 -0.0984
 1537TIP3   OH226169   2.107   4.261   3.051 -0.3916 -0.0238 -0.4920
 1537TIP3    H126170   2.179   4.201   3.070 -0.9802  0.1687  2.8625
 1537TIP3    H226171   2.146   4.348   3.061 -0.9890  0.0792  1.2186
 1538TIP3   OH226172   0.935   4.951   0.604  0.0521 -0.4086 -0.3214
 1538TIP3    H126173   1.025   4.921   0.619  0.2844  0.1299 -0.6106
 1538TIP3    H226174   0.922   4.944   0.509 -0.3503 -0.8526 -0.2411
 1539TIP3   OH226175   3.783   4.488   1.377  0.0367 -0.1802 -0.3072
 1539TIP3    H126176   3.878   4.491   1.376  0.0250  1.7380  0.3029
 1539TIP3    H226177   3.757   4.550   1.446 -1.6362 -1.2963  0.1367
 1540TIP3   OH226178   2.796   6.613   1.168  0.2898  0.0902  0.4286
 1540TIP3    H126179   2.768   6.703   1.187 -1.3350 -0.7847  2.7809
 1540TIP3    H226180   2.797   6.608   1.073  0.9861  2.7277  0.2048
 1541TIP3   OH226181   4.068   3.894   8.007 -0.1649  0.3472  0.5825
 1541TIP3    H126182   4.151   3.938   8.026 -0.0197 -0.2828  1.4693
 1541TIP3    H226183   4.011   3.917   8.080 -0.1004 -0.8725  1.0373
 1542TIP3   OH226184   1.269   0.974   8.773 -0.9450  0.1250  0.0487
 1542TIP3    H126185   1.320   0.930   8.840  0.5588 -0.2269 -1.2736
 1542TIP3    H226186   1.333   1.003   8.708 -1.8597  3.8347  0.5426
 1543TIP3   OH226187   1.005   0.665   1.539  0.1290  0.2477  0.4827
 1543TIP3    H126188   1.034   0.750   1.505 -0.9699 -0.0013 -1.1820
 1543TIP3    H226189   1.080   0.632   1.588  0.7466  1.9576  0.7494
 1544TIP3   OH226190   1.593   0.372   0.730 -0.2948  0.2561 -0.0969
 1544TIP3    H126191   1.501   0.393   0.747 -0.8500  0.6265 -2.9771
 1544TIP3    H226192   1.613   0.419   0.649  2.6440  0.6620  0.7609
 1545TIP3   OH226193   4.057   3.144   1.131  0.7913 -0.3731  0.6646
 1545TIP3    H126194   3.985   3.082   1.115  0.2512  0.0126  1.5229
 1545TIP3    H226195   4.103   3.148   1.047  1.6292 -2.8949  0.9121
 1546TIP3   OH226196   6.773   5.865   2.856 -0.0806  0.0714  0.2013
 1546TIP3    H126197   6.682   5.839   2.840  0.0097 -0.5651  0.6614
 1546TIP3    H226198   6.809   5.794   2.910  0.6926  0.3087  0.0139
 1547TIP3   OH226199   1.555   5.658   1.133  0.2687 -0.2360 -0.0496
 1547TIP3    H126200   1.649   5.642   1.140  0.1403 -1.0879 -0.0948
 1547TIP3    H226201   1.526   5.668   1.224  0.3354 -0.3911 -0.0112
 1548TIP3   OH226202   0.185   3.046   7.839 -0.0724 -0.2993 -0.6231
 1548TIP3    H126203   0.240   2.970   7.821 -0.1441 -0.4492 -0.2087
 1548TIP3    H226204   0.169   3.084   7.752  0.0451 -0.6954 -0.8229
 1549TIP3   OH226205   4.412   0.085   2.282 -0.3242  0.3152 -0.1191
 1549TIP3    H126206   4.385   0.059   2.370 -1.4740  2.1446  0.1260
 1549TIP3    H226207   4.337   0.064   2.227  0.1443 -0.2337 -0.5527
 1550TIP3   OH226208   5.499   2.920   2.894 -0.0554 -0.6048 -0.5729
 1550TIP3    H126209   5.481   2.879   2.979  0.8597 -1.2274 -0.6665
 1550TIP3    H226210   5.429   2.888   2.837 -0.1903 -0.8585 -0.2671
 1551TIP3   OH226211   0.375   4.871   0.859  0.2204 -0.7518  0.0068
 1551TIP3    H126212   0.295   4.924   0.855  0.4687 -0.2784  0.8939
 1551TIP3    H226213   0.347   4.783   0.833 -0.9733 -0.9940  1.9032
 1552TIP3   OH226214   5.490   2.045   8.115 -0.6139 -0.2924 -0.2022
 1552TIP3    H126215   5.437   2.120   8.088  0.3114  0.6683  0.5816
 1552TIP3    H226216   5.575   2.059   8.072 -1.3867 -2.6601 -2.8117
 1553TIP3   OH226217   4.492   6.121   0.691 -0.6836 -0.0246 -0.1744
 1553TIP3    H126218   4.566   6.074   0.731 -0.7213 -0.6458 -0.8143
 1553TIP3    H226219   4.483   6.200   0.745  0.2247 -0.1026  0.1275
 1554TIP3   OH226220   5.278   2.246   7.004 -0.1919 -0.2342 -0.0506
 1554TIP3    H126221   5.337   2.188   6.957 -1.8384 -0.8901 -1.3953
 1554TIP3    H226222   5.255   2.198   7.084  1.0809  0.0537  0.5155
 1555TIP3   OH226223   1.197   5.597   7.623  0.2416 -0.1759 -0.2161
 1555TIP3    H126224   1.132   5.530   7.602 -1.2386  1.1373 -0.0717
 1555TIP3    H226225   1.232   5.570   7.708  0.0303 -1.0211 -0.3887
 1556TIP3   OH226226   4.099   1.971   1.413  0.5811 -0.2311 -0.0579
 1556TIP3    H126227   4.075   2.014   1.495 -1.7915 -0.0477 -0.7572
 1556TIP3    H226228   4.190   1.997   1.398 -0.4569  4.2338 -0.1405
 1557TIP3   OH226229   3.897   4.287   1.813  0.3615  0.3707  0.3108
 1557TIP3    H126230   3.962   4.355   1.794 -0.7227  1.5495  0.6870
 1557TIP3    H226231   3.843   4.325   1.882 -0.8135 -0.5338 -0.0902
 1558TIP3   OH226232   3.458   5.015   0.605  0.2293 -0.0513  0.1216
 1558TIP3    H126233   3.409   5.094   0.581 -0.0073  0.4180  1.9850
 1558TIP3    H226234   3.394   4.959   0.649  0.6349 -0.8493 -0.2781
 1559TIP3   OH226235   5.871   4.666   1.125 -0.5760  1.3804  0.3670
 1559TIP3    H126236   5.865   4.762   1.126  0.1441  1.4325  0.2043
 1559TIP3    H226237   5.951   4.648   1.075 -1.8359  0.6319 -1.4865
 1560TIP3   OH226238   2.752   0.046   1.283  0.4737 -0.1104  0.2029
 1560TIP3    H126239   2.775   0.033   1.375 -2.0389 -2.2333  0.6478
 1560TIP3    H226240   2.681   0.110   1.285 -0.3360 -0.9826 -0.1179
 1561TIP3   OH226241   3.483   3.485   8.519 -0.4549 -0.3537  0.2875
 1561TIP3    H126242   3.571   3.463   8.548  0.2043 -0.8613 -1.9303
 1561TIP3    H226243   3.474   3.578   8.538  1.4101  0.2350 -1.4030
 1562TIP3   OH226244   3.472   0.828   0.547 -0.0963 -0.0668  0.5938
 1562TIP3    H126245   3.409   0.777   0.598 -0.9851  0.9031  0.5099
 1562TIP3    H226246   3.524   0.874   0.613 -2.1990  2.3358  0.7281
 1563TIP3   OH226247   5.991   3.563   8.676  0.6262 -0.1735  0.1325
 1563TIP3    H126248   6.039   3.553   8.758  0.3406 -0.4766  0.2670
 1563TIP3    H226249   5.900   3.544   8.699  0.3906  0.6692 -0.0584
 1564TIP3   OH226250   0.736   6.127   0.056  0.2444  0.1301 -0.1534
 1564TIP3    H126251   0.774   6.188   0.119 -1.6439  1.4032 -0.1577
 1564TIP3    H226252   0.717   6.180  -0.021  0.5622 -0.9472 -1.0004
 1565TIP3   OH226253   1.048   6.512   0.637 -0.3873  0.4507  0.1922
 1565TIP3    H126254   1.107   6.584   0.614  0.3992 -0.1228  0.3760
 1565TIP3    H226255   1.102   6.452   0.688 -0.9749 -0.3786 -0.1378
 1566TIP3   OH226256   3.344   5.921   1.496 -0.0722  0.3122  0.0202
 1566TIP3    H126257   3.361   5.991   1.433 -1.4849 -0.3885 -1.2041
 1566TIP3    H226258   3.431   5.897   1.530  0.3550  3.9352  2.0066
 1567TIP3   OH226259   2.460   5.393   8.487 -0.5859  0.3077  0.0930
 1567TIP3    H126260   2.554   5.377   8.484 -0.9299 -1.9284 -0.8854
 1567TIP3    H226261   2.433   5.363   8.574 -0.5233  0.1800  0.0678
 1568TIP3   OH226262   3.037   0.046   7.663  0.3930 -0.8602  0.1859
 1568TIP3    H126263   2.985   0.082   7.591  0.6008 -3.5472 -1.4501
 1568TIP3    H226264   3.127   0.073   7.643 -0.0246  2.9836  2.5116
 1569TIP3   OH226265   6.661   2.769   7.417 -0.3421 -0.1145  0.2514
 1569TIP3    H126266   6.630   2.840   7.361 -3.2696 -0.9160  0.6583
 1569TIP3    H226267   6.647   2.801   7.506 -1.0046 -0.8981  0.4437
 1570TIP3   OH226268   1.872   5.837   2.693  0.2384 -0.0883 -0.4490
 1570TIP3    H126269   1.885   5.756   2.742 -0.1000 -0.7382 -1.4076
 1570TIP3    H226270   1.793   5.821   2.640 -0.7106  1.3948  0.4278
 1571TIP3   OH226271   3.808   1.850   1.501 -0.0066  0.2622 -0.4771
 1571TIP3    H126272   3.764   1.797   1.435 -0.7376  0.5227 -0.2006
 1571TIP3    H226273   3.864   1.788   1.548 -1.7195 -0.5281  0.6154
 1572TIP3   OH226274   1.957   2.540   1.574  0.8470 -1.1534 -0.1571
 1572TIP3    H126275   1.890   2.581   1.629 -0.7970 -1.8950 -1.5423
 1572TIP3    H226276   2.024   2.511   1.636 -0.6463 -1.4221  1.3881
 1573TIP3   OH226277   3.887   6.775   8.299 -0.0388 -0.8561 -0.5950
 1573TIP3    H126278   3.982   6.781   8.284 -0.0351 -1.2325 -0.7275
 1573TIP3    H226279   3.860   6.696   8.252 -0.3386 -1.0202 -0.1567
 1574TIP3   OH226280   2.817   2.968   7.092 -0.1390  0.0469  0.2939
 1574TIP3    H126281   2.899   2.924   7.115  0.5855  0.7788 -0.8133
 1574TIP3    H226282   2.787   3.007   7.174  0.9116  0.2486  0.5881
 1575TIP3   OH226283   3.225   0.564   8.318 -0.4084 -1.0577 -0.3871
 1575TIP3    H126284   3.293   0.599   8.259 -0.5267 -0.3499 -0.1134
 1575TIP3    H226285   3.248   0.599   8.404  0.8956 -3.6426  0.4131
 1576TIP3   OH226286   1.660   5.373   7.185 -0.5045  0.8198  0.0064
 1576TIP3    H126287   1.662   5.279   7.202  0.1824  0.5636 -1.3232
 1576TIP3    H226288   1.648   5.413   7.271  0.5393 -0.4344  0.7807
 1577TIP3   OH226289   1.574   6.387   8.324  0.2815  0.2146 -0.9742
 1577TIP3    H126290   1.583   6.293   8.338 -1.0297  0.1237 -0.5606
 1577TIP3    H226291   1.481   6.405   8.342  0.6841  1.7221 -0.2297
 1578TIP3   OH226292   2.986   1.112   0.744 -0.3543  0.2662 -0.4076
 1578TIP3    H126293   2.991   1.192   0.796  2.0361  1.1068 -1.7632
 1578TIP3    H226294   3.053   1.055   0.782 -1.7289 -0.9639  0.2613
 1579TIP3   OH226295   1.308   5.506   2.872  0.1528  0.1989 -0.2141
 1579TIP3    H126296   1.316   5.576   2.807 -1.9623  1.0175  0.3508
 1579TIP3    H226297   1.390   5.511   2.922  0.9792  0.8192 -1.5570
 1580TIP3   OH226298   2.647   1.516   8.607  0.0087  0.5831  0.6295
 1580TIP3    H126299   2.581   1.523   8.538  2.0953 -0.8839 -1.6877
 1580TIP3    H226300   2.599   1.535   8.688 -2.1845  4.4466 -1.2804
 1581TIP3   OH226301   4.771   5.851   8.271  0.4997  0.4378 -0.5216
 1581TIP3    H126302   4.768   5.938   8.232  0.8109  0.2567 -0.9569
 1581TIP3    H226303   4.679   5.824   8.275  0.3309  1.1189  0.3904
 1582TIP3   OH226304   5.900   0.202   2.228 -0.9597  0.6680 -0.2317
 1582TIP3    H126305   5.897   0.298   2.234  0.2979  0.7310 -0.3929
 1582TIP3    H226306   5.879   0.183   2.137  0.4519  0.9097 -0.6364
 1583TIP3   OH226307   2.306   6.074   0.541 -0.3262  0.2740  0.3529
 1583TIP3    H126308   2.360   6.148   0.567 -0.8438  0.5931  0.5197
 1583TIP3    H226309   2.242   6.064   0.611 -1.1973  0.6109 -0.3813
 1584TIP3   OH226310   0.163   2.815   0.670 -0.1445  0.2600 -0.2565
 1584TIP3    H126311   0.111   2.862   0.606 -0.2720  0.6163  0.1061
 1584TIP3    H226312   0.154   2.866   0.751  2.2132  1.3651 -0.6112
 1585TIP3   OH226313   5.607   1.681   1.193  0.1983  0.2353  0.0783
 1585TIP3    H126314   5.669   1.609   1.205 -0.7033 -0.7351 -0.9017
 1585TIP3    H226315   5.608   1.727   1.277  0.3462 -1.2899  0.9509
 1586TIP3   OH226316   2.360   0.368   1.982 -0.2187 -0.2108  0.2080
 1586TIP3    H126317   2.453   0.371   2.007  0.1163  0.3645 -1.0316
 1586TIP3    H226318   2.313   0.370   2.066  0.8517  1.3721  0.8198
 1587TIP3   OH226319   4.521   1.063   8.781  0.1577 -0.0290 -0.0359
 1587TIP3    H126320   4.576   1.120   8.836  0.3873  0.8342 -1.1150
 1587TIP3    H226321   4.462   1.124   8.736 -0.8531 -0.8355  0.1674
 1588TIP3   OH226322   0.009   6.729   0.601  0.5761  0.5208 -0.1394
 1588TIP3    H126323  -0.065   6.669   0.604  2.0026 -1.3098 -0.1006
 1588TIP3    H226324  -0.003   6.777   0.519 -1.4047  1.3204  0.5746
 1589TIP3   OH226325   4.847   2.296   0.935 -0.1004  0.5889 -0.5689
 1589TIP3    H126326   4.760   2.299   0.974 -0.3499 -0.9911 -0.9268
 1589TIP3    H226327   4.833   2.259   0.847  0.9120  0.3230 -0.6402
 1590TIP3   OH226328   3.692   4.967   7.635 -0.5940 -0.0620  0.1068
 1590TIP3    H126329   3.645   4.997   7.557 -0.5122 -2.3984 -0.9486
 1590TIP3    H226330   3.777   5.010   7.630 -0.4914 -0.3689 -1.2923
 1591TIP3   OH226331   0.389   1.222   8.813  0.4243 -0.1934  0.3452
 1591TIP3    H126332   0.307   1.270   8.823 -0.0440 -1.0176  0.5795
 1591TIP3    H226333   0.445   1.257   8.883  0.0936  0.0123  0.5136
 1592TIP3   OH226334   5.762   0.581   2.612 -0.5322 -0.4267  0.2244
 1592TIP3    H126335   5.844   0.631   2.609 -0.1838 -1.0230 -0.4335
 1592TIP3    H226336   5.726   0.600   2.698  1.4972 -2.0406  1.5120
 1593TIP3   OH226337   1.797   4.499   3.014 -0.1480  0.4288 -0.0193
 1593TIP3    H126338   1.722   4.491   2.954 -1.6621  1.3058  1.6586
 1593TIP3    H226339   1.841   4.579   2.986  0.4164 -0.2771 -1.2431
 1594TIP3   OH226340   1.680   6.621   1.944 -0.7219  0.5308  0.4449
 1594TIP3    H126341   1.612   6.682   1.973 -0.8769 -0.3791  2.1085
 1594TIP3    H226342   1.742   6.618   2.018  0.6836  0.6623 -0.6776
 1595TIP3   OH226343   1.730   1.877   7.588 -0.2833  0.0307  0.0343
 1595TIP3    H126344   1.813   1.856   7.544 -0.3123  1.9298 -1.0473
 1595TIP3    H226345   1.677   1.798   7.577  1.3898 -1.2709  0.8451
 1596TIP3   OH226346   0.136   0.550   0.952  0.0870  0.1110  0.5817
 1596TIP3    H126347   0.179   0.509   0.877  0.0116  0.6709  0.2252
 1596TIP3    H226348   0.126   0.642   0.927 -1.1834  0.0317  0.7175
 1597TIP3   OH226349   5.466   2.631   2.467 -0.8366  0.1640  0.3991
 1597TIP3    H126350   5.422   2.704   2.511 -2.0474  0.9861 -1.9831
 1597TIP3    H226351   5.552   2.666   2.442 -1.5415  0.9576 -1.0363
 1598TIP3   OH226352   1.332   2.375   1.521  0.4668 -0.1763 -0.7024
 1598TIP3    H126353   1.322   2.433   1.445 -1.8112  1.3102  0.6296
 1598TIP3    H226354   1.273   2.411   1.587  3.1747 -0.7102  2.2558
 1599TIP3   OH226355   6.771   6.569   2.215  0.0257 -0.0731  0.3110
 1599TIP3    H126356   6.675   6.562   2.219  0.0651 -0.5447  0.6165
 1599TIP3    H226357   6.795   6.608   2.299  0.0241  1.1632 -0.2411
 1600TIP3   OH226358   5.749   6.439   1.279 -0.1978 -0.0023  0.0520
 1600TIP3    H126359   5.689   6.388   1.334 -0.2744  0.8145  0.7415
 1600TIP3    H226360   5.693   6.505   1.238 -0.5237 -1.7549 -2.5663
 1601TIP3   OH226361   2.758   3.546   8.030 -0.0429 -0.2532  0.1784
 1601TIP3    H126362   2.840   3.588   8.056 -0.2021 -0.0562  0.3708
 1601TIP3    H226363   2.691   3.590   8.082 -0.3579  0.0913 -0.5077
 1602TIP3   OH226364   2.883   5.985   0.719  0.0136 -0.4450 -0.2723
 1602TIP3    H126365   2.917   6.073   0.738 -0.5827 -0.2116 -0.2557
 1602TIP3    H226366   2.805   6.001   0.666  1.3841 -1.0637 -2.5768
 1603TIP3   OH226367   3.098   4.612   2.264  0.0235 -0.0560 -0.2778
 1603TIP3    H126368   3.065   4.677   2.326  2.1408 -0.3864  1.3014
 1603TIP3    H226369   3.165   4.564   2.313  0.1573 -1.8881 -2.1285
 1604TIP3   OH226370   1.232   5.724   8.569 -0.0515  0.2282 -0.4528
 1604TIP3    H126371   1.294   5.763   8.508 -0.6846  0.3617 -1.0167
 1604TIP3    H226372   1.217   5.636   8.535  0.7236 -0.2212  0.3415
 1605TIP3   OH226373   6.225   0.396   0.065 -0.0339  0.2531  0.1469
 1605TIP3    H126374   6.152   0.340   0.090 -0.9707  1.2399 -0.2771
 1605TIP3    H226375   6.300   0.338   0.062 -1.1969 -1.3059 -1.6188
 1606TIP3   OH226376   3.872   1.311   3.120  0.1983 -0.3300  0.5307
 1606TIP3    H126377   3.962   1.341   3.113  0.7723 -2.0411  0.2621
 1606TIP3    H226378   3.820   1.392   3.119  1.6258  0.6231 -0.7638
 1607TIP3   OH226379   0.652   2.023   7.881  0.3729 -0.4475  0.1039
 1607TIP3    H126380   0.592   2.078   7.933 -0.9278  1.2734 -2.9554
 1607TIP3    H226381   0.737   2.066   7.890  0.0667  0.1152  0.4112
 1608TIP3   OH226382   0.748   0.828   1.580 -0.0318  0.0449 -0.7298
 1608TIP3    H126383   0.825   0.782   1.611 -0.5916 -0.7383 -0.4843
 1608TIP3    H226384   0.713   0.873   1.657 -0.9452 -1.2195 -0.3906
 1609TIP3   OH226385   2.277   3.059   1.567 -0.3234  0.0287 -0.1538
 1609TIP3    H126386   2.182   3.047   1.556 -0.2133 -0.7863 -0.2382
 1609TIP3    H226387   2.284   3.143   1.614 -1.0297  0.6755 -1.1597
 1610TIP3   OH226388   2.239   0.436   8.503 -0.0122  0.7264 -0.3966
 1610TIP3    H126389   2.279   0.484   8.575  1.0576 -2.4061  1.2725
 1610TIP3    H226390   2.150   0.417   8.533 -0.4507  1.6248 -1.0742
 1611TIP3   OH226391   3.784   4.991   2.356 -0.0242  0.0445 -0.2758
 1611TIP3    H126392   3.867   5.024   2.321  0.4605 -0.8666 -0.0272
 1611TIP3    H226393   3.809   4.914   2.408 -0.9837  0.0004  0.1349
 1612TIP3   OH226394   1.840   4.048   3.317  0.2763 -0.6166  0.5316
 1612TIP3    H126395   1.808   3.982   3.255 -1.7857 -0.4323  1.2976
 1612TIP3    H226396   1.841   4.129   3.267 -1.1199 -0.5187  0.6080
 1613TIP3   OH226397   3.635   4.346   0.261 -0.7177 -0.0536 -0.0116
 1613TIP3    H126398   3.571   4.415   0.278 -0.8898  0.0016 -0.8566
 1613TIP3    H226399   3.596   4.267   0.298 -1.1760  0.0280 -0.3172
 1614TIP3   OH226400   2.982   6.711   1.629 -0.9516 -0.2526  0.5027
 1614TIP3    H126401   3.055   6.662   1.665 -0.8129  0.4301  1.1816
 1614TIP3    H226402   2.932   6.647   1.579 -0.4287 -0.9375  0.8427
 1615TIP3   OH226403   3.931   1.272   7.502  0.3930 -0.3557  0.4844
 1615TIP3    H126404   3.952   1.322   7.423  2.4437 -1.1513  0.4735
 1615TIP3    H226405   3.917   1.183   7.471 -2.8589 -0.0001  0.5601
 1616TIP3   OH226406   6.650   3.702   0.208 -0.0846  0.4901  0.0867
 1616TIP3    H126407   6.639   3.738   0.296 -0.0621  0.7813 -0.0275
 1616TIP3    H226408   6.734   3.657   0.211 -0.1645  0.3496  0.2630
 1617TIP3   OH226409   6.012   2.402   1.934  0.5693  0.3348 -0.0597
 1617TIP3    H126410   5.960   2.470   1.891 -0.9495 -2.3693 -2.9022
 1617TIP3    H226411   5.949   2.353   1.986  0.8585 -1.0362 -0.9551
 1618TIP3   OH226412   0.984   2.026   7.571 -0.6747  1.0219 -0.2044
 1618TIP3    H126413   0.965   2.019   7.477  0.8277  0.7063 -0.5071
 1618TIP3    H226414   0.959   2.116   7.593 -0.9169  1.1440 -0.9332
 1619TIP3   OH226415   4.263   6.454   1.604  0.5721  0.1488  0.1993
 1619TIP3    H126416   4.318   6.432   1.529  0.8032  0.9131  0.1393
 1619TIP3    H226417   4.193   6.388   1.602 -0.4933  1.2537 -1.7961
 1620TIP3   OH226418   2.332   4.652   0.467  0.4460  0.2127 -0.1823
 1620TIP3    H126419   2.249   4.608   0.482 -0.1978  1.7879  1.1594
 1620TIP3    H226420   2.398   4.586   0.488 -0.4598 -0.7033 -0.1456
 1621TIP3   OH226421   5.184   6.016   8.591 -0.3036  0.4215  0.5940
 1621TIP3    H126422   5.239   5.993   8.666  0.9570  0.7867 -0.1902
 1621TIP3    H226423   5.241   6.065   8.533 -1.4186  0.6575 -0.3512
 1622TIP3   OH226424   5.006   4.307   1.433  0.5691 -0.6861  0.0767
 1622TIP3    H126425   5.071   4.353   1.379  0.6612 -0.9992 -0.0836
 1622TIP3    H226426   4.987   4.367   1.504  0.7013 -0.4060 -0.1221
 1623TIP3   OH226427   3.701   4.661   0.526 -0.3920 -0.1880 -0.4874
 1623TIP3    H126428   3.791   4.635   0.504 -0.6139 -0.3882 -1.1682
 1623TIP3    H226429   3.700   4.756   0.515 -0.9122 -0.4295 -2.9346
 1624TIP3   OH226430   1.258   5.709   2.388  0.6756 -0.2652 -0.0952
 1624TIP3    H126431   1.268   5.795   2.346  0.9851 -0.1912  0.1331
 1624TIP3    H226432   1.328   5.656   2.351  1.1549 -0.1064  0.5688
 1625TIP3   OH226433   1.703   0.223   2.118 -0.4048 -0.3603  0.1204
 1625TIP3    H126434   1.645   0.219   2.042  0.6147  0.2357 -0.7049
 1625TIP3    H226435   1.721   0.316   2.130 -0.2602 -0.4789  0.8696
 1626TIP3   OH226436   2.255   4.113   1.091 -0.1276  0.1973 -0.1656
 1626TIP3    H126437   2.337   4.074   1.120  0.4651  0.9515 -0.7864
 1626TIP3    H226438   2.199   4.039   1.068  0.8160 -0.2899 -0.9150
 1627TIP3   OH226439   6.435   0.524   8.368 -0.5823 -0.3348 -0.4779
 1627TIP3    H126440   6.388   0.544   8.449  0.1242  0.8566 -0.3387
 1627TIP3    H226441   6.491   0.600   8.353  0.2720 -1.1124 -1.3874
 1628TIP3   OH226442   5.095   4.458   1.229  0.0752 -0.5158  0.1116
 1628TIP3    H126443   5.037   4.416   1.165 -1.5613  0.6213  0.7651
 1628TIP3    H226444   5.167   4.493   1.177 -0.8143 -0.3032 -1.0315
 1629TIP3   OH226445   3.125   6.255   2.626  0.0541 -0.0523  0.4167
 1629TIP3    H126446   3.204   6.215   2.663  1.1486 -0.3449 -1.9983
 1629TIP3    H226447   3.075   6.181   2.593 -0.5213  0.2411  0.6249
 1630TIP3   OH226448   2.671   0.210   7.739  0.5699 -0.1965  0.1771
 1630TIP3    H126449   2.686   0.272   7.811 -0.4770  1.8141 -1.2242
 1630TIP3    H226450   2.738   0.232   7.674  0.5207 -0.8902 -0.1141
 1631TIP3   OH226451   5.266   3.880   0.488  0.3089  0.3391  1.2103
 1631TIP3    H126452   5.339   3.942   0.484  0.4377  0.1365 -2.0380
 1631TIP3    H226453   5.309   3.794   0.488  0.1805  0.2044 -1.3400
 1632TIP3   OH226454   3.554   3.486   0.266 -0.3830  0.3661  0.1194
 1632TIP3    H126455   3.539   3.391   0.260  2.1716 -0.1992  1.4175
 1632TIP3    H226456   3.589   3.510   0.180 -2.6594  0.5398 -0.8226
 1633TIP3   OH226457   0.394   6.209   8.270 -0.3119  0.2794  0.4973
 1633TIP3    H126458   0.359   6.133   8.223  1.2660 -0.2896  0.1555
 1633TIP3    H226459   0.462   6.173   8.327 -1.6785  1.0664  2.7284
 1634TIP3   OH226460   1.576   5.109   0.679  0.2732  1.1584 -0.2457
 1634TIP3    H126461   1.507   5.113   0.746 -1.7751  0.2086 -2.1585
 1634TIP3    H226462   1.568   5.191   0.631 -0.7170  0.3836 -1.4886
 1635TIP3   OH226463   6.049   2.995   1.940  0.0939 -0.1595 -0.0103
 1635TIP3    H126464   5.979   3.042   1.985  0.3901  2.9366 -2.4670
 1635TIP3    H226465   6.111   2.971   2.009 -2.4033 -1.3670  1.9837
 1636TIP3   OH226466   3.840   2.238   7.450  0.1294  0.3913  0.1305
 1636TIP3    H126467   3.812   2.149   7.469  0.2193  0.6531  1.6387
 1636TIP3    H226468   3.772   2.274   7.393  1.3605 -1.4086 -2.6649
 1637TIP3   OH226469   2.214   1.297   2.784  1.0158  0.3899  0.3295
 1637TIP3    H126470   2.142   1.242   2.752  1.5734 -0.4915  0.5538
 1637TIP3    H226471   2.175   1.348   2.855  0.0967  1.4315 -0.8592
 1638TIP3   OH226472   2.880   1.358   0.859 -0.1255 -0.3376  0.1323
 1638TIP3    H126473   2.946   1.396   0.918  0.2690  0.7773 -0.9704
 1638TIP3    H226474   2.858   1.430   0.799 -2.8316 -0.4862  0.8473
 1639TIP3   OH226475   4.354   1.333   0.731 -0.1653  0.1181 -0.0700
 1639TIP3    H126476   4.348   1.290   0.645 -0.5234  1.5471 -0.7997
 1639TIP3    H226477   4.433   1.297   0.771 -0.2021 -0.8556 -0.8438
 1640TIP3   OH226478   4.072   3.557   2.755  0.1326  0.1047 -1.0156
 1640TIP3    H126479   4.118   3.495   2.812 -0.2800  0.5511 -0.1760
 1640TIP3    H226480   4.010   3.601   2.813 -0.0109  0.8675 -1.7293
 1641TIP3   OH226481   0.484   0.199   0.106 -0.4653 -0.3020 -0.8283
 1641TIP3    H126482   0.553   0.210   0.041  0.1430  0.9259 -0.0219
 1641TIP3    H226483   0.527   0.156   0.180 -0.2025  1.5360  0.1528
 1642TIP3   OH226484   0.381   5.735   7.614  0.2722 -0.2525  0.4538
 1642TIP3    H126485   0.331   5.771   7.540 -0.3834 -0.0947  0.9685
 1642TIP3    H226486   0.377   5.640   7.601 -1.6552 -0.3477  1.4162
 1643TIP3   OH226487   4.626   6.558   7.302  0.4212  0.7624 -0.1767
 1643TIP3    H126488   4.614   6.653   7.299 -1.2019  0.6970  1.8748
 1643TIP3    H226489   4.697   6.545   7.365  0.0437  0.5965  0.2185
 1644TIP3   OH226490   3.947   1.562   8.206 -0.6232 -0.1165 -0.5807
 1644TIP3    H126491   3.998   1.642   8.190  2.1191 -1.6125  0.0931
 1644TIP3    H226492   3.883   1.588   8.273  0.2377  1.5225 -0.3333
 1645TIP3   OH226493   4.921   2.578   7.819  0.4366 -0.2971 -0.0983
 1645TIP3    H126494   4.930   2.500   7.875 -3.2867 -1.3481 -0.6824
 1645TIP3    H226495   4.867   2.548   7.746 -1.8041  2.9738  0.0414
 1646TIP3   OH226496   5.603   5.213   7.964  0.9006 -0.1623  0.2762
 1646TIP3    H126497   5.676   5.167   8.005 -0.2916 -0.0526  2.6431
 1646TIP3    H226498   5.612   5.304   7.992 -2.0744 -0.7336  3.7941
 1647TIP3   OH226499   2.527   4.104   2.491 -0.1066  0.1286 -0.1520
 1647TIP3    H126500   2.489   4.046   2.557  0.8587 -0.5883 -0.2143
 1647TIP3    H226501   2.457   4.115   2.426 -1.3635  1.5071  1.3433
 1648TIP3   OH226502   6.773   3.168   8.738  0.2304 -0.2353  0.2129
 1648TIP3    H126503   6.740   3.251   8.705  0.0540  0.2539  1.5666
 1648TIP3    H226504   6.860   3.188   8.772  0.4788 -0.7563 -0.1019
 1649TIP3   OH226505   3.633   3.777   7.231 -0.3655  0.2860 -0.7583
 1649TIP3    H126506   3.632   3.809   7.140 -2.2647 -0.0873 -0.9149
 1649TIP3    H226507   3.625   3.682   7.222 -0.5583  0.2484 -0.1945
 1650TIP3   OH226508   4.047   6.747   1.459  0.2938  0.0944  0.4691
 1650TIP3    H126509   3.988   6.758   1.533  1.3751  2.0088  1.1286
 1650TIP3    H226510   4.015   6.669   1.413  1.5983 -3.4739  4.8635
 1651TIP3   OH226511   6.468   5.975   7.056 -0.0473 -0.0454  0.0667
 1651TIP3    H126512   6.436   6.061   7.085 -1.5733 -0.0920 -1.3489
 1651TIP3    H226513   6.495   5.989   6.966 -1.0103 -1.2098 -0.4198
 1652TIP3   OH226514   3.372   3.515   2.209 -0.3075 -0.3613  0.0385
 1652TIP3    H126515   3.436   3.584   2.197 -0.2564 -0.4906 -0.4598
 1652TIP3    H226516   3.418   3.435   2.183 -1.3476 -0.1900 -2.6179
 1653TIP3   OH226517   4.781   2.772   8.481 -0.2700 -0.2641  0.2258
 1653TIP3    H126518   4.742   2.845   8.433  2.3971  0.3840 -1.1349
 1653TIP3    H226519   4.762   2.695   8.427 -1.2954 -0.2920  0.5993
 1654TIP3   OH226520   2.677   4.268   1.813  0.2821  0.0571  0.1720
 1654TIP3    H126521   2.632   4.279   1.897 -0.6168  2.2734 -0.5043
 1654TIP3    H226522   2.607   4.252   1.750  0.4394  2.3282 -0.7045
 1655TIP3   OH226523   5.211   2.353   1.838  0.4975  0.2083 -0.2945
 1655TIP3    H126524   5.262   2.428   1.868 -0.6210  0.9453 -0.1707
 1655TIP3    H226525   5.215   2.291   1.911 -1.0509  1.4194  0.8885
 1656TIP3   OH226526   4.074   3.146   0.346 -0.0892  0.5487 -0.2051
 1656TIP3    H126527   4.122   3.226   0.366  0.8076 -0.1914  0.7272
 1656TIP3    H226528   3.984   3.165   0.371  0.1208  1.2559  0.0363
 1657TIP3   OH226529   2.206   6.169   8.318  0.3906  0.2362 -0.1310
 1657TIP3    H126530   2.290   6.211   8.335  0.6211 -0.4962  0.5787
 1657TIP3    H226531   2.217   6.078   8.347  0.0276 -0.4526 -1.9633
 1658TIP3   OH226532   6.788   3.445   7.137  0.0568  0.3701  0.2622
 1658TIP3    H126533   6.864   3.446   7.079  2.0637  0.5508  2.6898
 1658TIP3    H226534   6.799   3.523   7.192 -2.1322  0.6033  0.4470
 1659TIP3   OH226535   3.338   0.384   8.734  0.1853  0.0837 -0.2401
 1659TIP3    H126536   3.291   0.327   8.674 -1.3080 -0.7765  1.6607
 1659TIP3    H226537   3.395   0.326   8.783 -0.0007  0.4860  0.4689
 1660TIP3   OH226538   5.982   0.903   7.823 -0.0313  0.1948 -0.1483
 1660TIP3    H126539   5.960   0.816   7.856  1.0675  0.1862  0.6510
 1660TIP3    H226540   5.984   0.958   7.901  0.2753  0.7102 -0.5120
 1661TIP3   OH226541   5.515   6.468   0.062  0.1155  0.0818  0.4630
 1661TIP3    H126542   5.491   6.531  -0.006 -0.9408 -0.4103  0.3568
 1661TIP3    H226543   5.462   6.493   0.138 -0.7557 -1.0104  0.2368
 1662TIP3   OH226544   5.636   4.510   6.934  0.0375 -0.2669  0.4989
 1662TIP3    H126545   5.723   4.540   6.961 -0.3951  0.9967  0.5222
 1662TIP3    H226546   5.600   4.581   6.882 -0.6711 -1.1189 -0.2061
 1663TIP3   OH226547   5.959   5.690   0.237  0.2023  0.2370  0.0744
 1663TIP3    H126548   5.981   5.675   0.329 -0.4453  0.2827  0.2407
 1663TIP3    H226549   5.967   5.604   0.196  0.5189  0.2213  0.1690
 1664TIP3   OH226550   4.939   5.440   8.245  0.3273 -0.5385  0.0194
 1664TIP3    H126551   4.904   5.403   8.326  1.0517  2.2287  1.7537
 1664TIP3    H226552   4.865   5.487   8.206 -0.3139 -2.7349 -1.6200
 1665TIP3   OH226553   3.421   6.210   1.844  0.0914 -0.3285  0.0941
 1665TIP3    H126554   3.445   6.128   1.803 -3.0229 -0.5627 -1.5263
 1665TIP3    H226555   3.378   6.185   1.926 -0.4871 -0.3234 -0.2015
 1666TIP3   OH226556   5.563   1.964   0.890 -0.2507 -0.1964 -0.3982
 1666TIP3    H126557   5.498   1.917   0.942 -0.4149  0.3980 -0.0603
 1666TIP3    H226558   5.519   2.044   0.863  0.0364 -0.2226 -0.9473
 1667TIP3   OH226559   0.434   0.466   1.799  0.2282  0.0066  0.3076
 1667TIP3    H126560   0.341   0.451   1.819  0.7120 -2.1862  1.1644
 1667TIP3    H226561   0.432   0.522   1.721 -1.8034  0.3070  0.5104
 1668TIP3   OH226562   2.116   4.911   1.826 -0.6170  0.1933 -0.5388
 1668TIP3    H126563   2.060   4.982   1.857  2.0523  1.1458  2.6499
 1668TIP3    H226564   2.106   4.841   1.891 -0.1725 -0.7278 -1.4273
 1669TIP3   OH226565   3.566   2.721   8.090 -0.0789  0.2695 -0.1101
 1669TIP3    H126566   3.482   2.722   8.045 -0.4487  2.6828  0.4591
 1669TIP3    H226567   3.631   2.710   8.020 -0.7974 -0.5403 -0.6693
 1670TIP3   OH226568   1.972   6.171   0.229 -0.9156 -0.3332 -0.2281
 1670TIP3    H126569   1.968   6.107   0.299 -0.2094  0.5992  0.6914
 1670TIP3    H226570   1.974   6.256   0.273 -1.1814  0.3082 -1.3913
 1671TIP3   OH226571   3.391   4.268   1.033  0.5593  0.2487 -0.4660
 1671TIP3    H126572   3.365   4.275   1.124  2.0854 -0.5902  0.0794
 1671TIP3    H226573   3.346   4.190   1.001  0.3243  0.3241 -0.3158
 1672TIP3   OH226574   2.283   5.129   7.592 -0.5165  0.3684  0.7720
 1672TIP3    H126575   2.194   5.160   7.613 -1.3193 -0.8000 -0.6793
 1672TIP3    H226576   2.306   5.176   7.512  0.1820  0.6186  1.1072
 1673TIP3   OH226577   3.983   1.887   8.608  0.0262  0.1760 -0.0917
 1673TIP3    H126578   4.032   1.809   8.580  1.0740  1.0612 -0.8381
 1673TIP3    H226579   3.953   1.927   8.527 -0.4678  0.5806  0.2847
 1674TIP3   OH226580   1.559   5.428   7.839  0.7283 -0.1118  0.0314
 1674TIP3    H126581   1.537   5.499   7.778  1.3292 -1.6735 -2.1158
 1674TIP3    H226582   1.483   5.423   7.897 -0.0205  1.2483 -0.7725
 1675TIP3   OH226583   0.310   2.314   1.578 -0.0115 -0.0275 -0.4101
 1675TIP3    H126584   0.404   2.308   1.596 -0.1940 -0.2442  0.5432
 1675TIP3    H226585   0.292   2.408   1.580 -0.1176 -0.0619  1.1545
 1676TIP3   OH226586   6.364   4.053   8.731 -1.2039  0.5644 -0.7044
 1676TIP3    H126587   6.270   4.069   8.726 -1.2179  0.5013 -0.6308
 1676TIP3    H226588   6.403   4.135   8.700 -1.2905  0.1964 -1.8267
 1677TIP3   OH226589   3.131   0.376   1.579  0.3759 -0.1041 -0.4473
 1677TIP3    H126590   3.073   0.435   1.627 -0.6903  0.7313 -2.6693
 1677TIP3    H226591   3.076   0.337   1.511  2.0117 -0.5930 -1.5577
 1678TIP3   OH226592   6.786   0.211   0.560 -0.2796  0.0482  0.5590
 1678TIP3    H126593   6.801   0.305   0.550  0.0112 -0.0310  0.2497
 1678TIP3    H226594   6.870   0.170   0.542 -0.6152 -0.3294 -0.2058
 1679TIP3   OH226595   4.494   4.642   0.497  0.4469 -0.1761 -0.4128
 1679TIP3    H126596   4.480   4.667   0.406  0.9315  0.3439 -0.3544
 1679TIP3    H226597   4.589   4.646   0.509  0.4677 -1.1976 -0.1425
 1680TIP3   OH226598   1.702   0.723   1.479  0.0991 -0.3562  0.2559
 1680TIP3    H126599   1.777   0.722   1.538  0.7230  0.6535 -0.4857
 1680TIP3    H226600   1.707   0.640   1.432  1.8875  0.4732 -1.1347
 1681TIP3   OH226601   5.833   2.044   7.542  0.3244  0.9537 -0.0172
 1681TIP3    H126602   5.762   1.987   7.514  1.8359 -1.8591  1.3464
 1681TIP3    H226603   5.895   2.044   7.469  2.0332 -2.4388  1.1890
 1682TIP3   OH226604   4.387   4.970   8.057 -0.0243 -0.4714  0.3243
 1682TIP3    H126605   4.406   5.019   7.977 -0.5379  1.7204  1.4695
 1682TIP3    H226606   4.293   4.981   8.071  0.2785  0.3949  1.9392
 1683TIP3   OH226607   1.114   2.879   0.005  0.3539  0.3702  0.6660
 1683TIP3    H126608   1.080   2.939  -0.062 -0.7799 -0.3776  0.5492
 1683TIP3    H226609   1.056   2.893   0.081  1.8247  1.4583  1.6606
 1684TIP3   OH226610   5.079   1.412   0.755  0.0033  0.0745  0.0122
 1684TIP3    H126611   5.039   1.477   0.698  0.2001 -0.0792 -0.3064
 1684TIP3    H226612   5.016   1.340   0.758  0.9248 -0.8888 -1.8206
 1685TIP3   OH226613   6.038   6.077   1.733 -0.2903  0.2075  0.1838
 1685TIP3    H126614   6.009   6.161   1.696 -2.0644 -0.3956  0.0705
 1685TIP3    H226615   6.040   6.091   1.827 -0.8362  0.3338  0.1840
 1686TIP3   OH226616   0.417   0.907   1.586 -0.1329 -0.0464 -0.3664
 1686TIP3    H126617   0.475   0.952   1.647  0.5449  0.0424 -1.0664
 1686TIP3    H226618   0.419   0.960   1.507  0.4308 -1.1187 -1.0956
 1687TIP3   OH226619   5.476   3.401   7.256 -0.4703 -0.3012  0.0746
 1687TIP3    H126620   5.425   3.322   7.234 -0.1463 -0.3973 -0.3561
 1687TIP3    H226621   5.566   3.370   7.257 -0.2157  0.3138 -1.3368
 1688TIP3   OH226622   6.474   6.575   0.615 -1.0859 -0.4581 -0.5195
 1688TIP3    H126623   6.516   6.505   0.664 -2.3068 -0.3829  0.6937
 1688TIP3    H226624   6.413   6.530   0.556 -1.0306 -0.4536 -0.5811
 1689TIP3   OH226625   1.803   0.703   2.190 -0.2269  0.3247 -0.4479
 1689TIP3    H126626   1.876   0.648   2.216 -0.7157  0.7962  2.2034
 1689TIP3    H226627   1.840   0.792   2.186 -0.7218  0.6579  1.5228
 1690TIP3   OH226628   0.349   6.378   1.227 -0.0004  0.3733 -0.1442
 1690TIP3    H126629   0.299   6.449   1.266 -0.5898  0.0947 -0.3893
 1690TIP3    H226630   0.437   6.389   1.263 -0.0785  1.2324 -0.1915
 1691TIP3   OH226631   3.768   4.231   2.679  0.3526 -0.0703 -0.2018
 1691TIP3    H126632   3.697   4.276   2.635  1.5058  1.7873 -0.2468
 1691TIP3    H226633   3.784   4.282   2.758  0.9470 -1.0796  0.3562
 1692TIP3   OH226634   1.704   5.930   0.446 -0.2233  0.3923  0.1842
 1692TIP3    H126635   1.669   5.918   0.357  0.4782 -0.0089 -0.0441
 1692TIP3    H226636   1.663   5.861   0.498  2.1592 -1.8260 -0.6540
 1693TIP3   OH226637   0.989   2.904   0.258  0.0201 -0.3053 -0.5235
 1693TIP3    H126638   1.007   2.985   0.307 -1.9986 -0.7015  0.9816
 1693TIP3    H226639   1.048   2.839   0.297  0.4942  0.0589 -0.6277
 1694TIP3   OH226640   2.428   0.147   1.716 -0.0171 -0.3467  0.2801
 1694TIP3    H126641   2.489   0.105   1.777  0.7323 -0.6556 -0.6552
 1694TIP3    H226642   2.475   0.224   1.685 -1.4884  1.4246  2.1937
 1695TIP3   OH226643   2.893   5.850   8.137 -0.1208  0.0697  0.1297
 1695TIP3    H126644   2.887   5.797   8.057 -0.9327  0.5410 -0.1263
 1695TIP3    H226645   2.888   5.941   8.106 -1.2295  0.2449  0.7801
 1696TIP3   OH226646   4.415   3.244   1.954 -0.5253  0.4039  0.5338
 1696TIP3    H126647   4.321   3.260   1.964 -0.4693  0.2595  1.3731
 1696TIP3    H226648   4.446   3.317   1.901 -0.8905  1.1552  1.3333
 1697TIP3   OH226649   4.503   0.360   8.282 -0.4946 -0.0166 -0.5068
 1697TIP3    H126650   4.595   0.360   8.256 -0.2715 -2.0281  0.0994
 1697TIP3    H226651   4.463   0.428   8.229  1.4809  1.4213 -0.2518
 1698TIP3   OH226652   1.099   6.166   2.872 -0.0112 -0.1568  0.0645
 1698TIP3    H126653   1.136   6.249   2.902 -2.3956 -0.0967  3.4670
 1698TIP3    H226654   1.005   6.182   2.867 -0.3900 -2.2815 -0.6329
 1699TIP3   OH226655   1.752   0.644   8.010 -0.2667  0.4706  0.3244
 1699TIP3    H126656   1.813   0.639   7.937 -0.2753  1.3565  0.2531
 1699TIP3    H226657   1.714   0.556   8.015  0.8512 -0.0394  0.2406
 1700TIP3   OH226658   5.685   0.245   8.530  0.0421 -0.0825 -0.3661
 1700TIP3    H126659   5.774   0.278   8.513  0.6494 -0.6530  1.4602
 1700TIP3    H226660   5.649   0.305   8.596 -1.1789  0.4750 -1.4961
 1701TIP3   OH226661   5.489   2.882   7.744  0.5365 -0.2958  0.2431
 1701TIP3    H126662   5.394   2.877   7.755  0.1537  1.8435 -1.4261
 1701TIP3    H226663   5.512   2.969   7.776  1.8182 -0.4606 -0.1788
 1702TIP3   OH226664   6.754   0.495   1.125 -0.2840 -0.2448 -0.0430
 1702TIP3    H126665   6.816   0.484   1.052 -1.1710 -0.9125 -0.7166
 1702TIP3    H226666   6.762   0.587   1.149  0.2054 -0.0760 -0.8193
 1703TIP3   OH226667   1.268   6.466   0.261  0.2295 -0.1999 -0.2393
 1703TIP3    H126668   1.356   6.497   0.281 -0.6203  1.4709  1.1969
 1703TIP3    H226669   1.242   6.414   0.337  2.0355 -5.9860 -2.9862
 1704TIP3   OH226670   2.460   2.900   7.264  0.0353  0.1186  0.2369
 1704TIP3    H126671   2.454   2.948   7.182 -0.1384 -0.6141 -0.1843
 1704TIP3    H226672   2.369   2.877   7.285  0.2465 -1.6524 -0.5602
 1705TIP3   OH226673   6.254   4.340   7.680  0.5152  0.1819 -0.3972
 1705TIP3    H126674   6.329   4.399   7.687 -0.4349  1.4006 -0.1073
 1705TIP3    H226675   6.208   4.351   7.763 -1.0329  0.9405 -1.3142
 1706TIP3   OH226676   1.959   3.540   1.421 -0.1219 -0.3218 -0.3498
 1706TIP3    H126677   2.000   3.473   1.365 -0.7005 -0.1892 -0.9530
 1706TIP3    H226678   1.877   3.500   1.450  0.4041 -0.5839  0.8432
 1707TIP3   OH226679   1.958   1.373   7.526  0.0205 -0.4131  0.2921
 1707TIP3    H126680   2.017   1.415   7.588 -0.4863  1.2016 -0.2612
 1707TIP3    H226681   1.912   1.446   7.484 -1.0539 -1.5499 -0.5764
 1708TIP3   OH226682   6.747   2.819   1.338  0.5095 -0.0474 -0.4691
 1708TIP3    H126683   6.766   2.729   1.310 -0.4579 -0.8501  1.2352
 1708TIP3    H226684   6.772   2.820   1.431 -0.2725  1.2037 -0.2566
 1709TIP3   OH226685   4.426   5.162   1.060 -0.3276 -0.6927 -0.1425
 1709TIP3    H126686   4.400   5.102   0.991 -0.2730 -0.1530 -0.6363
 1709TIP3    H226687   4.371   5.138   1.135  0.7917 -2.4029  0.1836
 1710TIP3   OH226688   6.131   0.501   1.512 -0.3930 -0.1508 -0.2439
 1710TIP3    H126689   6.085   0.545   1.441  0.4209 -0.2749 -0.8645
 1710TIP3    H226690   6.223   0.504   1.487  0.2506  1.9729  1.9520
 1711TIP3   OH226691   3.150   3.472   2.970  0.3349  0.2822  0.4406
 1711TIP3    H126692   3.149   3.377   2.963 -2.1075  0.1388  1.6099
 1711TIP3    H226693   3.102   3.503   2.893  0.5238  0.5419  0.4237
 1712TIP3   OH226694   6.350   2.436   7.668  0.3589 -0.1837  0.0807
 1712TIP3    H126695   6.362   2.343   7.685 -2.1411 -0.7009 -0.5840
 1712TIP3    H226696   6.324   2.441   7.576  1.2866  1.2856 -0.1455
 1713TIP3   OH226697   4.363   3.170   1.092 -0.1970 -1.1219 -1.0187
 1713TIP3    H126698   4.365   3.261   1.061 -0.3916 -1.1258 -1.0406
 1713TIP3    H226699   4.443   3.161   1.143 -0.1165 -0.9726 -1.1179
 1714TIP3   OH226700   3.806   2.525   0.684 -0.0535 -0.1906 -0.1106
 1714TIP3    H126701   3.830   2.461   0.617 -1.1089 -0.2764 -0.4330
 1714TIP3    H226702   3.808   2.475   0.766  1.6953  0.0284  0.0142
 1715TIP3   OH226703   3.946   1.961   1.889 -0.2623  0.1521 -0.4645
 1715TIP3    H126704   3.881   1.961   1.819  0.3272 -3.2628 -1.1961
 1715TIP3    H226705   3.950   2.052   1.919 -2.5759  1.1836 -2.9343
 1716TIP3   OH226706   4.333   2.966   1.652 -0.2764 -0.2046  0.3145
 1716TIP3    H126707   4.393   2.988   1.580  0.8631 -0.1976  1.2337
 1716TIP3    H226708   4.301   3.051   1.682 -0.4111 -0.1790  0.1012
 1717TIP3   OH226709   1.672   2.379   0.889  0.0058  0.3542  0.3060
 1717TIP3    H126710   1.677   2.412   0.978  0.3216  0.5058  0.2360
 1717TIP3    H226711   1.764   2.374   0.860 -0.0691 -0.0850  0.1354
 1718TIP3   OH226712   4.881   1.539   1.055 -0.2716 -0.0978  0.2037
 1718TIP3    H126713   4.942   1.471   1.027 -1.5181 -1.4989  0.7678
 1718TIP3    H226714   4.881   1.534   1.151  2.0043  2.8996  0.4946
 1719TIP3   OH226715   0.447   4.707   8.533  0.6217  0.5430 -0.5542
 1719TIP3    H126716   0.430   4.767   8.606  0.3223  0.2552 -0.3837
 1719TIP3    H226717   0.360   4.686   8.498  0.7391  0.3728 -0.7440
 1720TIP3   OH226718   1.970   1.131   0.671 -0.5268  0.1760 -0.6055
 1720TIP3    H126719   1.895   1.098   0.622 -0.4380 -0.0681 -0.5805
 1720TIP3    H226720   1.950   1.111   0.762 -2.0523  3.2435 -0.1628
 1721TIP3   OH226721   5.467   2.238   0.049  0.0780  0.1796 -0.1662
 1721TIP3    H126722   5.528   2.178   0.092 -0.7024 -0.0530  0.6518
 1721TIP3    H226723   5.381   2.199   0.063 -0.7499  2.5681  2.4643
 1722TIP3   OH226724   0.662   3.912   8.099  0.4855 -0.2579  0.0346
 1722TIP3    H126725   0.733   3.946   8.046  0.2024 -0.6247 -0.5842
 1722TIP3    H226726   0.697   3.831   8.138  0.3115 -0.6067 -0.5193
 1723TIP3   OH226727   0.016   1.163   0.791 -0.5323 -0.1178 -0.0405
 1723TIP3    H126728   0.032   1.216   0.713  2.2771 -0.1305  0.4369
 1723TIP3    H226729   0.033   1.073   0.762 -0.1821 -0.1940  0.3921
 1724TIP3   OH226730   2.085   3.679   2.626 -0.4826  0.3878  0.1657
 1724TIP3    H126731   2.104   3.648   2.538 -0.7259  2.0748 -0.5105
 1724TIP3    H226732   1.989   3.680   2.631 -0.4744  0.0062  0.5829
 1725TIP3   OH226733   6.255   1.146   2.224 -0.5577  0.8467 -0.3257
 1725TIP3    H126734   6.342   1.117   2.254 -1.7032 -1.4794  1.0610
 1725TIP3    H226735   6.210   1.173   2.303 -1.6315  0.4546 -0.7883
 1726TIP3   OH226736   6.394   3.581   1.380  0.2453  0.0372  0.7248
 1726TIP3    H126737   6.412   3.583   1.286 -0.6597  1.6196  0.5613
 1726TIP3    H226738   6.440   3.657   1.416  0.8003 -0.6939  1.6241
 1727TIP3   OH226739   6.720   6.064   2.087  0.2570  0.1093 -0.1511
 1727TIP3    H126740   6.679   5.999   2.144  0.0685 -0.1027 -0.5313
 1727TIP3    H226741   6.810   6.071   2.119 -0.1610  0.8525  0.9319
 1728TIP3   OH226742   4.846   1.835   0.083  0.9903  0.0282 -0.7199
 1728TIP3    H126743   4.853   1.805  -0.008  0.2897 -1.3763 -0.3447
 1728TIP3    H226744   4.875   1.759   0.135  1.4245  0.8247  0.2259
 1729TIP3   OH226745   3.434   3.047   0.861  0.0676 -0.1372  0.2302
 1729TIP3    H126746   3.415   2.953   0.853 -0.8342  0.1878 -3.6957
 1729TIP3    H226747   3.358   3.083   0.907 -0.3398 -1.1394  0.3614
 1730TIP3   OH226748   6.399   4.825   2.507 -0.1319 -0.0586 -0.4028
 1730TIP3    H126749   6.416   4.764   2.579  2.9462  2.0979  0.9343
 1730TIP3    H226750   6.311   4.859   2.523 -1.4936 -3.2205 -0.6088
 1731TIP3   OH226751   4.443   4.235   7.990 -0.0060  0.6548 -0.3526
 1731TIP3    H126752   4.365   4.230   7.934  0.5292  0.1625 -1.0814
 1731TIP3    H226753   4.472   4.144   7.998 -0.0575  0.7256  0.7112
 1732TIP3   OH226754   2.596   0.494   7.626 -0.0157  0.3330  0.1852
 1732TIP3    H126755   2.690   0.480   7.613  0.2023 -0.3869  2.2483
 1732TIP3    H226756   2.572   0.433   7.694 -1.4422  2.3048  1.5581
 1733TIP3   OH226757   6.458   3.208   1.557  0.2571  0.2683  0.0599
 1733TIP3    H126758   6.370   3.175   1.538 -0.2415  1.4441  0.2363
 1733TIP3    H226759   6.502   3.134   1.599  0.0249 -1.0081 -1.7725
 1734TIP3   OH226760   6.226   3.145   2.668 -0.0396  0.4089  0.2809
 1734TIP3    H126761   6.228   3.054   2.699 -0.7822  0.1723 -0.3074
 1734TIP3    H226762   6.316   3.164   2.642  0.0334 -0.3233 -0.0346
 1735TIP3   OH226763   1.915   1.654   0.042  0.0802  0.3902  0.2912
 1735TIP3    H126764   1.821   1.667   0.038  0.0389  0.4981  1.4880
 1735TIP3    H226765   1.942   1.693   0.125  1.1253  0.0270  0.1401
 1736TIP3   OH226766   0.668   4.012   2.256  0.2054 -0.4412 -0.4330
 1736TIP3    H126767   0.718   4.088   2.228  0.0613  0.2769  1.1596
 1736TIP3    H226768   0.734   3.943   2.268  0.8056  0.3725  1.2246
 1737TIP3   OH226769   6.465   2.694   1.418  0.0328 -0.7381  0.4485
 1737TIP3    H126770   6.550   2.703   1.460  0.1671 -0.8369  0.2038
 1737TIP3    H226771   6.484   2.652   1.334 -0.0679  0.5425 -0.2492
 1738TIP3   OH226772   2.872   6.494   1.520 -0.1357  0.1685  0.4779
 1738TIP3    H126773   2.923   6.447   1.455 -1.6085 -1.3291  0.3603
 1738TIP3    H226774   2.890   6.448   1.602 -0.7345  0.0756  0.5594
 1739TIP3   OH226775   4.498   5.674   8.063  0.4403 -0.3481  0.2497
 1739TIP3    H126776   4.485   5.703   8.153 -0.7670 -1.9318  0.6326
 1739TIP3    H226777   4.412   5.682   8.022  0.1669 -2.6829  0.2260
 1740TIP3   OH226778   6.021   4.943   7.469 -0.2936 -0.5528 -0.0754
 1740TIP3    H126779   6.025   4.854   7.435 -1.4395 -0.5479 -0.2456
 1740TIP3    H226780   6.038   4.934   7.563 -3.1927 -1.3339  0.4730
 1741TIP3   OH226781   3.314   4.555   2.418  0.4401  0.8574  0.3589
 1741TIP3    H126782   3.372   4.615   2.372  2.0031 -0.4746  0.5098
 1741TIP3    H226783   3.335   4.568   2.511  1.0235 -0.1359  0.3728
 1742TIP3   OH226784   0.261   5.327   1.161  0.8140  0.0207 -0.9302
 1742TIP3    H126785   0.336   5.366   1.206  1.3782 -0.7972 -1.1372
 1742TIP3    H226786   0.292   5.241   1.133  0.2804  0.2539 -2.3408
 1743TIP3   OH226787   4.670   3.611   8.624 -0.1149  0.0833  0.5364
 1743TIP3    H126788   4.631   3.586   8.707  2.2311  0.0678  1.7033
 1743TIP3    H226789   4.686   3.705   8.631 -1.0908  0.3529 -0.4559
 1744TIP3   OH226790   4.889   4.960   8.013 -0.0500  0.7116  0.3579
 1744TIP3    H126791   4.878   4.865   8.010  1.5649  0.4979  0.3995
 1744TIP3    H226792   4.805   4.992   8.046 -0.4063 -0.7491  0.9709
 1745TIP3   OH226793   3.045   3.882   1.089  0.0464 -0.5349 -0.1706
 1745TIP3    H126794   3.088   3.823   1.026  1.3046 -1.4590  1.4660
 1745TIP3    H226795   2.952   3.875   1.068  0.1469 -3.0081 -0.1713
 1746TIP3   OH226796   0.638   1.244   1.443  0.0188  0.1406 -0.1399
 1746TIP3    H126797   0.640   1.339   1.447  1.2051  0.0973  1.5490
 1746TIP3    H226798   0.547   1.221   1.428 -0.1294  1.5415 -1.6281
 1747TIP3   OH226799   5.645   2.878   1.877 -0.3558 -0.4659  0.5398
 1747TIP3    H126800   5.704   2.806   1.855 -1.2397 -0.4255 -2.3928
 1747TIP3    H226801   5.619   2.914   1.792 -0.9236  2.5380  1.8549
 1748TIP3   OH226802   6.332   3.406   2.786 -0.7114  0.1606 -0.0097
 1748TIP3    H126803   6.275   3.415   2.863 -0.0513 -0.6982  0.5982
 1748TIP3    H226804   6.275   3.427   2.712 -0.8570  3.0504  0.7938
 1749TIP3   OH226805   6.291   0.997   8.736  0.2774  0.0461  0.0580
 1749TIP3    H126806   6.203   0.960   8.748 -0.5795  1.6720 -0.8496
 1749TIP3    H226807   6.300   1.062   8.806  1.5189 -1.3586  1.2591
 1750TIP3   OH226808   2.171   0.713   7.890  0.2087  0.3981 -0.0135
 1750TIP3    H126809   2.222   0.771   7.834  0.4445  0.6371  0.4399
 1750TIP3    H226810   2.080   0.739   7.877  0.2202  0.1368 -0.6364
 1751TIP3   OH226811   2.133   3.385   1.259 -0.3515  0.5572 -0.1117
 1751TIP3    H126812   2.171   3.346   1.180  0.8205 -1.3887  1.3350
 1751TIP3    H226813   2.208   3.403   1.315 -1.2941  0.0925  1.3352
 1752TIP3   OH226814   2.667   0.161   0.993 -0.0277  0.0077 -0.5728
 1752TIP3    H126815   2.583   0.126   0.964 -0.1934 -0.0165 -0.0680
 1752TIP3    H226816   2.663   0.158   1.088  0.2962  0.5987 -0.5374
 1753TIP3   OH226817   2.794   3.070   0.930  0.1298  0.1690 -0.5668
 1753TIP3    H126818   2.845   3.148   0.907 -0.4807  0.9613  0.6675
 1753TIP3    H226819   2.719   3.072   0.870  0.8963 -0.3400 -1.5759
 1754TIP3   OH226820   3.792   1.855   0.526 -0.3946  0.3137  0.4949
 1754TIP3    H126821   3.819   1.807   0.604  0.8668  0.8068  0.3779
 1754TIP3    H226822   3.857   1.924   0.516  1.7256 -1.8761 -3.0439
 1755TIP3   OH226823   3.290   3.640   1.600 -0.3817  0.0903 -0.1897
 1755TIP3    H126824   3.291   3.610   1.691 -2.7634 -0.1269 -0.1929
 1755TIP3    H226825   3.309   3.733   1.606 -1.1920  0.2157  0.6050
 1756TIP3   OH226826   5.473   1.267   0.953  0.2956  0.7597  0.3561
 1756TIP3    H126827   5.416   1.248   0.878  2.2879 -0.1725 -1.0402
 1756TIP3    H226828   5.485   1.362   0.951  0.2287  0.7628 -0.4653
 1757TIP3   OH226829   0.317   1.149   1.730 -0.5340 -0.0076  0.3134
 1757TIP3    H126830   0.353   1.209   1.795  0.5883  0.9185 -1.0876
 1757TIP3    H226831   0.332   1.062   1.766  1.5179  0.4245  0.6229
 1758TIP3   OH226832   4.451   1.764   1.153 -0.7269  0.4839  0.0181
 1758TIP3    H126833   4.476   1.687   1.102  0.3339  1.1152 -0.4564
 1758TIP3    H226834   4.453   1.735   1.244  1.4081  0.3811 -0.0264
 1759TIP3   OH226835   6.252   1.324   8.171  0.0456  0.6762  0.4472
 1759TIP3    H126836   6.258   1.234   8.204 -0.5342  0.4450 -0.0812
 1759TIP3    H226837   6.164   1.332   8.135  0.6472  0.9188 -1.0604
 1760TIP3   OH226838   3.547   0.911   7.447 -0.0690  0.0222  0.5612
 1760TIP3    H126839   3.590   0.832   7.416 -0.2403 -0.0945  0.6222
 1760TIP3    H226840   3.523   0.892   7.538 -1.3477 -0.3588  0.1558
 1761TIP3   OH226841   1.468   1.097   8.341  0.2828 -0.0190  0.3055
 1761TIP3    H126842   1.528   1.172   8.334 -0.3962  0.8264  2.6352
 1761TIP3    H226843   1.415   1.117   8.417 -0.4096 -2.5823  0.5563
 1762TIP3   OH226844   3.526   1.942   0.464 -0.7191  0.9358 -0.3943
 1762TIP3    H126845   3.554   2.031   0.441  0.1970  0.6952 -0.2347
 1762TIP3    H226846   3.605   1.899   0.496 -1.7798  1.0770  2.7632
 1763TIP3   OH226847   5.878   3.589   2.397  0.1421  0.0206 -0.0023
 1763TIP3    H126848   5.921   3.663   2.354  0.8021 -1.9281 -2.9437
 1763TIP3    H226849   5.913   3.512   2.353 -3.7115 -1.8851 -0.0661
 1764TIP3   OH226850   2.556   4.631   1.460 -0.0661 -0.6032  0.2418
 1764TIP3    H126851   2.524   4.628   1.370 -1.4725 -0.8737  0.7249
 1764TIP3    H226852   2.606   4.550   1.470 -1.0842 -1.2678  0.1005
 1765TIP3   OH226853   4.399   0.277   6.934  0.0649 -0.1956  0.2533
 1765TIP3    H126854   4.444   0.194   6.950  1.9765  0.8266  0.5293
 1765TIP3    H226855   4.345   0.261   6.857  1.4937 -1.3322 -0.5681
 1766TIP3   OH226856   1.631   0.792   1.242  0.5322 -0.1389  0.3081
 1766TIP3    H126857   1.646   0.789   1.336 -2.2241  0.6785  0.8747
 1766TIP3    H226858   1.661   0.880   1.216  0.3522  0.0224  0.6389
 1767TIP3   OH226859   1.882   1.544   1.747  0.4757  0.1064  0.1514
 1767TIP3    H126860   1.820   1.487   1.793 -0.6906  2.1272  1.2039
 1767TIP3    H226861   1.849   1.547   1.657 -1.4652  1.6708  0.8330
 1768TIP3   OH226862   2.719   0.002   2.852  0.7994  0.0190  0.3574
 1768TIP3    H126863   2.795   0.060   2.845 -1.2317  2.8667 -0.0494
 1768TIP3    H226864   2.699   0.000   2.946  0.2412  0.9198  0.2678
 1769TIP3   OH226865   1.275   4.919   2.695  0.5023 -0.7256 -0.1475
 1769TIP3    H126866   1.225   4.957   2.767  1.9592 -1.9944  1.6218
 1769TIP3    H226867   1.340   4.863   2.737  1.2448 -1.7574 -2.4709
 1770TIP3   OH226868   4.461   3.378   6.788 -0.6913 -0.2733 -0.3016
 1770TIP3    H126869   4.457   3.290   6.824  2.4678 -0.3637  0.0854
 1770TIP3    H226870   4.409   3.373   6.707 -0.6708 -2.4456 -0.2426
 1771TIP3   OH226871   5.764   0.093   0.182  0.6777 -0.4247 -0.1199
 1771TIP3    H126872   5.731   0.156   0.246  1.4342 -1.2380  1.1126
 1771TIP3    H226873   5.702   0.020   0.187  1.1598 -0.8157  0.2633
 1772TIP3   OH226874   3.975   4.109   0.663  0.0883 -0.2582 -0.0224
 1772TIP3    H126875   3.905   4.159   0.621  1.5089  0.9646 -1.0485
 1772TIP3    H226876   3.939   4.084   0.748 -1.7933 -0.2005 -0.7575
 1773TIP3   OH226877   2.627   2.229   0.325  0.4785 -0.5616  0.2138
 1773TIP3    H126878   2.707   2.191   0.362  0.1791 -3.4411 -1.7326
 1773TIP3    H226879   2.646   2.235   0.231 -0.0970  2.9059  0.2211
 1774TIP3   OH226880   0.615   2.056   0.634  0.3040 -0.4325  0.3327
 1774TIP3    H126881   0.614   2.119   0.562  0.2712  1.5583  1.9807
 1774TIP3    H226882   0.671   2.096   0.700 -0.0287 -1.9765  1.6186
 1775TIP3   OH226883   1.297   2.953   2.235 -0.4410 -0.1802 -0.1103
 1775TIP3    H126884   1.230   2.888   2.214 -0.7060  0.4118 -1.1309
 1775TIP3    H226885   1.372   2.927   2.182  0.3046 -1.0580  1.2991
 1776TIP3   OH226886   5.304   5.363   2.090  0.3409 -0.0410  0.9203
 1776TIP3    H126887   5.250   5.408   2.024 -0.9367 -2.5647  0.1028
 1776TIP3    H226888   5.263   5.386   2.174 -1.3893 -0.9972  0.3931
 1777TIP3   OH226889   0.334   2.735   1.872  0.1752  0.1229 -0.3045
 1777TIP3    H126890   0.363   2.809   1.818 -1.1328  0.5197 -0.4861
 1777TIP3    H226891   0.311   2.774   1.956  1.0073 -0.3211  0.1463
 1778TIP3   OH226892   2.976   5.739   0.162  0.0018  0.2427 -0.1219
 1778TIP3    H126893   2.938   5.722   0.248 -1.2161 -0.6440 -0.7873
 1778TIP3    H226894   2.964   5.833   0.149  0.1427  0.3737  0.6417
 1779TIP3   OH226895   5.114   0.237   6.622  0.1305  0.2995  0.0766
 1779TIP3    H126896   5.204   0.255   6.648 -0.3244  0.9168  1.2916
 1779TIP3    H226897   5.110   0.142   6.612  0.7128  0.1892  0.8236
 1780TIP3   OH226898   5.700   4.321   2.177 -0.1099  0.1904 -0.6478
 1780TIP3    H126899   5.710   4.248   2.238  1.5701 -1.1675 -2.4395
 1780TIP3    H226900   5.623   4.299   2.125 -0.6461  0.6007 -0.0433
 1781TIP3   OH226901   5.368   4.161   0.322 -0.0185  0.2905 -0.6333
 1781TIP3    H126902   5.419   4.156   0.241  1.8074 -0.8032  0.5157
 1781TIP3    H226903   5.420   4.216   0.380 -0.4216 -0.3679  0.3907
 1782TIP3   OH226904   6.606   2.315   0.401 -0.0565  0.0989 -0.5702
 1782TIP3    H126905   6.568   2.314   0.313 -1.3360  0.8991 -0.0550
 1782TIP3    H226906   6.636   2.225   0.414 -0.8572 -0.3096 -1.4040
 1783TIP3   OH226907   5.724   5.799   0.077 -0.3720  0.0992 -0.0585
 1783TIP3    H126908   5.786   5.805   0.004 -1.3689 -0.9302 -1.0275
 1783TIP3    H226909   5.775   5.759   0.148  0.4338  0.5183 -0.3849
 1784TIP3   OH226910   3.864   4.084   2.034 -0.0648  0.2753  0.4537
 1784TIP3    H126911   3.838   4.023   2.102 -0.0603  0.1887  0.3779
 1784TIP3    H226912   3.820   4.052   1.955 -1.5435  1.3899  0.7673
 1785TIP3   OH226913   6.693   1.867   7.983  0.2098  0.0511  0.4522
 1785TIP3    H126914   6.610   1.832   8.015 -1.6290  1.4569 -2.3985
 1785TIP3    H226915   6.703   1.829   7.896  1.8399  1.0380  0.1681
 1786TIP3   OH226916   6.794   1.043   0.433  0.4887  0.1799 -0.0749
 1786TIP3    H126917   6.719   1.096   0.461  0.9205  0.6805  0.1454
 1786TIP3    H226918   6.868   1.104   0.434  0.8514 -0.2469 -0.5436
 1787TIP3   OH226919   3.850   2.384   0.456  0.0202 -0.4897 -0.3765
 1787TIP3    H126920   3.775   2.331   0.431 -0.2157 -0.8450  1.0408
 1787TIP3    H226921   3.916   2.320   0.485 -0.8324 -0.0556  2.9227
 1788TIP3   OH226922   6.436   4.196   6.992 -0.0317 -0.6843 -0.1369
 1788TIP3    H126923   6.403   4.125   7.047 -3.2163  0.2072 -0.6832
 1788TIP3    H226924   6.357   4.233   6.951  1.4786  2.9502 -0.1302
 1789TIP3   OH226925   1.710   6.465   0.123  0.4728  0.2506  0.3924
 1789TIP3    H126926   1.688   6.510   0.205  1.4816 -0.4171  1.0555
 1789TIP3    H226927   1.715   6.535   0.058 -0.1472  0.8139  0.9321
 1790TIP3   OH226928   6.045   6.350   0.974 -0.2352 -0.0350  0.1108
 1790TIP3    H126929   6.006   6.377   0.891 -0.9549  0.7769  0.6962
 1790TIP3    H226930   6.133   6.319   0.951 -1.0818 -1.5854 -1.1949
 1791TIP3   OH226931   6.018   0.910   8.766  0.1239  0.0993 -0.6752
 1791TIP3    H126932   5.979   0.994   8.790 -0.2933  0.1250 -1.4152
 1791TIP3    H226933   5.947   0.863   8.722  0.7071 -0.1605 -1.3434
 1792TIP3   OH226934   0.761   6.744   2.920 -0.2372 -0.4385 -0.1090
 1792TIP3    H126935   0.791   6.675   2.862 -0.0808 -1.1433  0.7913
 1792TIP3    H226936   0.776   6.710   3.008  0.8408  1.1506  0.3682
 1793TIP3   OH226937   4.898   2.675   1.305 -0.4116 -0.1720 -0.6575
 1793TIP3    H126938   4.890   2.603   1.368  0.7266  1.4829  1.4988
 1793TIP3    H226939   4.984   2.661   1.264  2.3024  2.4360  3.3763
 1794TIP3   OH226940   5.258   3.341   7.993 -0.2574  0.4123  0.0304
 1794TIP3    H126941   5.310   3.376   7.921 -0.4045  0.0727 -0.2429
 1794TIP3    H226942   5.204   3.415   8.021  0.1280  0.6736  0.0960
 1795TIP3   OH226943   0.243   5.848   1.648 -0.6666 -0.4615  0.9360
 1795TIP3    H126944   0.315   5.847   1.586 -0.5318  0.3783  1.0615
 1795TIP3    H226945   0.225   5.941   1.663 -0.5598 -0.6342  2.3119
 1796TIP3   OH226946   5.674   3.916   2.535  0.3996  0.2631 -0.5235
 1796TIP3    H126947   5.701   3.928   2.626 -1.0595  0.9358 -0.1601
 1796TIP3    H226948   5.580   3.902   2.539  0.2284  0.8420 -1.9798
 1797TIP3   OH226949   3.818   4.783   0.001  0.2447 -0.3502 -0.2616
 1797TIP3    H126950   3.881   4.720   0.035  0.1907 -0.6829 -0.7746
 1797TIP3    H226951   3.758   4.731  -0.052  0.2701  0.1450 -0.7864
 1798TIP3   OH226952   4.615   6.516   7.904 -0.3690 -0.3533 -0.4136
 1798TIP3    H126953   4.591   6.567   7.827 -2.7109 -1.8174 -0.7530
 1798TIP3    H226954   4.622   6.580   7.975 -0.3924  0.7366 -1.3821
 1799TIP3   OH226955   1.272   1.565   2.104 -0.3493  0.1522  0.7633
 1799TIP3    H126956   1.279   1.604   2.018 -3.0538  2.6264  1.5102
 1799TIP3    H226957   1.307   1.631   2.164 -1.3039 -0.2388  1.7902
 1800TIP3   OH226958   0.130   3.838   0.200 -0.7154  0.4348 -0.2570
 1800TIP3    H126959   0.193   3.909   0.187 -0.6965  0.1928 -1.5435
 1800TIP3    H226960   0.045   3.877   0.185 -0.5824 -0.3845 -3.9352
 1801TIP3   OH226961   0.350   1.310   2.010  0.4125  0.3343  0.0712
 1801TIP3    H126962   0.316   1.399   2.010  1.2323  0.6703 -1.1369
 1801TIP3    H226963   0.434   1.316   2.057  0.8525  0.3688 -0.7078
 1802TIP3   OH226964   5.661   5.934   1.530  0.0854 -0.3525 -0.6157
 1802TIP3    H126965   5.721   5.981   1.471  1.2500 -2.5774 -1.3001
 1802TIP3    H226966   5.584   5.991   1.536  2.1188  2.5374  0.1268
 1803TIP3   OH226967   2.778   0.135   0.050 -0.0263 -0.2319 -0.0207
 1803TIP3    H126968   2.705   0.197   0.052  1.5779  1.7345  0.8049
 1803TIP3    H226969   2.837   0.169  -0.017  1.2340 -0.4316  0.9477
 1804TIP3   OH226970   5.179   0.598   2.533  0.1810 -0.5394  0.0633
 1804TIP3    H126971   5.269   0.617   2.507 -0.6350  1.6936 -1.4496
 1804TIP3    H226972   5.176   0.502   2.537  1.6892 -0.9729 -3.7963
 1805TIP3   OH226973   0.192   1.945   1.443 -0.0570 -0.5896  0.0575
 1805TIP3    H126974   0.264   1.940   1.379  0.6481 -0.2304  0.8029
 1805TIP3    H226975   0.115   1.968   1.391  0.7347  0.8829 -0.5124
 1806TIP3   OH226976   1.799   3.911   3.062 -0.6132  0.5283  0.2518
 1806TIP3    H126977   1.856   3.947   2.994  1.0763 -2.6642 -0.2188
 1806TIP3    H226978   1.732   3.862   3.014 -1.5425  1.1803  0.8644
 1807TIP3   OH226979   0.043   5.994   1.350  0.2866  0.0471  0.1252
 1807TIP3    H126980   0.089   6.057   1.294  0.1779 -1.8399 -2.2147
 1807TIP3    H226981  -0.002   6.049   1.415 -0.8163  2.4981 -2.5074
 1808TIP3   OH226982   4.210   1.396   1.227  0.4768 -0.5078  0.1176
 1808TIP3    H126983   4.239   1.380   1.137  0.1687  1.4074 -0.3742
 1808TIP3    H226984   4.288   1.383   1.281  1.5066  1.3958 -0.8233
 1809TIP3   OH226985   3.380   1.305   2.762  0.2741 -0.2530 -0.0279
 1809TIP3    H126986   3.467   1.267   2.746  0.7346 -0.5175  2.6726
 1809TIP3    H226987   3.319   1.235   2.743  0.7994 -0.7639  0.1419
 1810TIP3   OH226988   3.474   0.655   0.325  0.3051 -0.7600  0.3659
 1810TIP3    H126989   3.433   0.698   0.250  1.5891 -0.1691 -0.0266
 1810TIP3    H226990   3.471   0.721   0.394 -1.0802 -1.3815  0.9399
 1811TIP3   OH226991   3.537   5.101   2.486 -0.4172  0.3625 -0.0041
 1811TIP3    H126992   3.609   5.061   2.437  1.1526 -0.6551  2.9430
 1811TIP3    H226993   3.577   5.169   2.539 -1.7931  0.4558  0.9810
 1812TIP3   OH226994   1.089   5.646   2.613  0.3756  0.5371 -0.2022
 1812TIP3    H126995   1.026   5.702   2.657 -0.2933  0.8294 -1.4840
 1812TIP3    H226996   1.098   5.683   2.525  1.3994 -0.2256 -0.4532
 1813TIP3   OH226997   4.881   2.306   8.275  0.2316 -0.1304  0.0131
 1813TIP3    H126998   4.839   2.383   8.313  0.4907 -0.3520  0.7696
 1813TIP3    H226999   4.946   2.342   8.215 -0.3645  0.2230 -0.4272
 1814TIP3   OH227000   2.313   2.195   8.748  0.2078 -0.2080 -0.1514
 1814TIP3    H127001   2.270   2.127   8.696 -1.1481 -0.5568  1.3627
 1814TIP3    H227002   2.305   2.166   8.838 -3.8117  3.5541  1.0663
 1815TIP3   OH227003   6.526   3.816   1.467 -0.2937  0.5577 -0.4469
 1815TIP3    H127004   6.607   3.765   1.473 -0.4909  0.3933  1.5648
 1815TIP3    H227005   6.552   3.905   1.490 -0.3933  0.8789 -1.5321
 1816TIP3   OH227006   1.147   5.413   0.041 -0.1563 -0.2113  0.4415
 1816TIP3    H127007   1.128   5.427   0.134  0.5694 -1.7591  0.8679
 1816TIP3    H227008   1.220   5.471   0.022  0.8469 -1.1150  1.3438
 1817TIP3   OH227009   2.371   6.468   7.386  0.2899  0.3135  0.3569
 1817TIP3    H127010   2.386   6.563   7.385  0.7543  0.2446 -0.3603
 1817TIP3    H227011   2.445   6.432   7.337  0.1105 -0.4215  0.6161
 1818TIP3   OH227012   1.966   2.373   8.053  0.0382  0.4241  0.9517
 1818TIP3    H127013   2.041   2.326   8.089  1.1071  0.9496 -0.4974
 1818TIP3    H227014   1.897   2.306   8.046  1.2269 -0.7556 -0.2089
 1819TIP3   OH227015   3.839   3.343   3.273  0.1592 -0.1070  0.2657
 1819TIP3    H127016   3.866   3.405   3.206  1.4983 -1.2595 -0.2959
 1819TIP3    H227017   3.872   3.380   3.355  2.5979 -0.9294 -0.2707
 1820TIP3   OH227018   6.534   3.118   1.972  0.1139 -0.1344 -0.0742
 1820TIP3    H127019   6.628   3.134   1.964 -0.1841  1.0119 -1.9314
 1820TIP3    H227020   6.527   3.030   2.010  1.9039  0.1604  1.0690
 1821TIP3   OH227021   3.225   4.167   7.764 -0.1172 -0.3477 -0.3479
 1821TIP3    H127022   3.282   4.092   7.780  0.7935 -0.0075 -1.8551
 1821TIP3    H227023   3.285   4.239   7.745 -0.9858 -0.4444 -4.1289
 1822TIP3   OH227024   1.791   4.448   1.844 -0.3176 -0.2060  0.4909
 1822TIP3    H127025   1.731   4.466   1.772 -1.3789  1.1253  1.6594
 1822TIP3    H227026   1.875   4.433   1.801 -0.8222  0.9826 -1.0053
 1823TIP3   OH227027   1.779   5.003   0.107 -0.1549  0.1228  0.2960
 1823TIP3    H127028   1.716   5.069   0.139  0.1892  0.3727  0.4705
 1823TIP3    H227029   1.728   4.948   0.048  0.1476  2.1941 -2.0641
 1824TIP3   OH227030   6.003   0.455   8.324 -0.1681  0.1646 -0.1218
 1824TIP3    H127031   6.009   0.453   8.229 -0.1505 -2.3126 -0.1242
 1824TIP3    H227032   6.065   0.524   8.350 -1.0224  1.6975 -1.8948
 1825TIP3   OH227033   4.419   3.060   2.227 -0.2366  0.6041 -0.5495
 1825TIP3    H127034   4.487   3.032   2.167  0.3484 -1.2478  0.8914
 1825TIP3    H227035   4.351   2.993   2.220 -0.3102  0.5331  0.5632
 1826TIP3   OH227036   4.450   0.212   0.901 -0.1330  0.0680 -0.2521
 1826TIP3    H127037   4.400   0.136   0.930 -0.1744  0.5635  1.0050
 1826TIP3    H227038   4.512   0.176   0.837  0.0875 -1.0949  0.5722
 1827TIP3   OH227039   1.677   0.787   0.925  0.5619  0.0030  0.1540
 1827TIP3    H127040   1.763   0.795   0.965  0.8577 -0.8306 -0.2813
 1827TIP3    H227041   1.616   0.815   0.993  1.1768  0.7134  0.4293
 1828TIP3   OH227042   4.295   3.985   1.091  0.1890  0.4876  0.7733
 1828TIP3    H127043   4.227   3.922   1.068 -0.5922  1.2863  0.8102
 1828TIP3    H227044   4.301   4.042   1.014  0.9648  0.2967  0.6928
 1829TIP3   OH227045   5.970   1.718   1.081  0.1853 -0.1561 -0.2650
 1829TIP3    H127046   5.967   1.663   1.159  1.3957 -1.8431 -1.3397
 1829TIP3    H227047   5.926   1.667   1.014 -0.3947  1.0499 -0.8323
 1830TIP3   OH227048   0.645   1.856   7.336 -0.2664 -0.1366 -0.4733
 1830TIP3    H127049   0.596   1.936   7.314 -0.4441  0.0303  0.5030
 1830TIP3    H227050   0.735   1.875   7.309  0.0119  0.9931  1.1235
 1831TIP3   OH227051   2.908   4.376   1.416 -0.4516  0.2340 -0.0857
 1831TIP3    H127052   2.950   4.451   1.375  0.3235 -0.1288  0.0295
 1831TIP3    H227053   2.914   4.394   1.510  0.3664 -0.2906 -0.0278
 1832TIP3   OH227054   3.081   4.301   8.574 -0.2057 -0.2234 -0.3835
 1832TIP3    H127055   3.079   4.394   8.551 -0.2902 -0.4457 -1.3270
 1832TIP3    H227056   3.024   4.259   8.509  0.1144 -0.9775 -0.1918
 1833TIP3   OH227057   0.269   6.803   1.534  0.5128  0.2372 -0.8162
 1833TIP3    H127058   0.179   6.825   1.556  1.0124 -0.7536  2.8477
 1833TIP3    H227059   0.320   6.880   1.561  1.0499 -0.4238  0.0673
 1834TIP3   OH227060   1.482   5.578   2.285 -0.6035 -0.2471  0.0484
 1834TIP3    H127061   1.509   5.510   2.347 -2.6063  0.2166  1.5449
 1834TIP3    H227062   1.463   5.530   2.204 -0.1597 -1.1967  0.4904
 1835TIP3   OH227063   6.145   3.476   1.451 -0.1154 -0.0139 -0.2985
 1835TIP3    H127064   6.231   3.494   1.412  1.1823 -2.4873  1.1467
 1835TIP3    H227065   6.158   3.489   1.545 -1.4909  0.0513 -0.0989
 1836TIP3   OH227066   6.004   5.799   8.167  0.3964 -0.4405  0.1294
 1836TIP3    H127067   6.001   5.857   8.091  1.3104 -1.8772 -1.0564
 1836TIP3    H227068   6.082   5.826   8.215  0.4165 -0.2283 -0.0220
 1837TIP3   OH227069   5.706   0.831   2.782 -0.2615 -0.0508 -0.2073
 1837TIP3    H127070   5.692   0.741   2.813 -0.9312 -0.5277 -1.7796
 1837TIP3    H227071   5.800   0.837   2.767 -0.1807 -0.4057  0.1459
 1838TIP3   OH227072   4.799   4.229   1.732  0.6146 -0.2160  0.7403
 1838TIP3    H127073   4.854   4.179   1.792 -0.7140 -0.7655  1.5436
 1838TIP3    H227074   4.858   4.294   1.693  2.0715 -1.5268  0.6915
 1839TIP3   OH227075   5.120   2.291   0.258 -0.2566  0.3428 -0.1820
 1839TIP3    H127076   5.195   2.270   0.202  0.2856  1.7135 -0.0007
 1839TIP3    H227077   5.143   2.374   0.299 -1.6550  0.5166  0.2986
 1840TIP3   OH227078   2.745   1.864   0.442  0.2884  0.0132  0.2178
 1840TIP3    H127079   2.763   1.957   0.427 -0.0731  0.3102  1.5291
 1840TIP3    H227080   2.758   1.852   0.536  0.7719 -1.3715 -0.0037
 1841TIP3   OH227081   2.627   4.858   1.031  0.4794 -0.4675 -0.6717
 1841TIP3    H127082   2.560   4.790   1.029  1.0175 -1.1621  1.8360
 1841TIP3    H227083   2.704   4.816   1.068  1.3720  1.0935 -0.6286
 1842TIP3   OH227084   5.862   6.792   8.201 -0.2194 -0.1981 -0.1857
 1842TIP3    H127085   5.817   6.720   8.245 -0.8998 -0.1967 -0.8696
 1842TIP3    H227086   5.944   6.801   8.250 -0.0506 -1.5310 -0.1716
 1843TIP3   OH227087   6.151   2.687   8.758  0.6117  0.1769 -0.2906
 1843TIP3    H127088   6.217   2.710   8.823  2.7271 -0.6957 -2.0103
 1843TIP3    H227089   6.185   2.722   8.676 -2.7429  2.7294 -0.8610
 1844TIP3   OH227090   4.683   3.018   8.356  0.0257  0.0020  0.5551
 1844TIP3    H127091   4.697   3.028   8.262 -0.8689 -1.4368  0.2413
 1844TIP3    H227092   4.764   3.050   8.396  1.1458 -1.0290 -0.7947
 1845TIP3   OH227093   1.318   5.777   0.185 -1.2813 -0.1258 -0.6052
 1845TIP3    H127094   1.334   5.683   0.178 -0.6252 -0.0971  0.2421
 1845TIP3    H227095   1.341   5.812   0.099 -0.7447 -0.6444 -0.6844
 1846TIP3   OH227096   2.057   0.924   8.143  0.0927  0.2654 -0.3048
 1846TIP3    H127097   2.119   0.872   8.093  1.3517  1.2411  0.1760
 1846TIP3    H227098   2.110   0.965   8.211 -1.3741 -0.1768  1.1805
 1847TIP3   OH227099   3.467   3.755   1.207 -0.3191 -0.3892  0.0917
 1847TIP3    H127100   3.523   3.804   1.146  0.2702 -1.1876 -0.0267
 1847TIP3    H227101   3.471   3.665   1.174 -0.9994 -0.5989  0.5876
 1848TIP3   OH227102   2.736   4.000   1.370 -0.1011  0.5778  0.0512
 1848TIP3    H127103   2.711   3.908   1.379 -1.9636  0.6653 -2.8543
 1848TIP3    H227104   2.813   4.010   1.426  0.0040 -2.6577  0.6568
 1849TIP3   OH227105   5.863   4.483   1.319 -0.0095 -0.4022  0.1428
 1849TIP3    H127106   5.859   4.553   1.254 -1.5669  0.2689  0.9118
 1849TIP3    H227107   5.813   4.411   1.280 -0.9197 -0.0093  0.5446
 1850TIP3   OH227108   2.934   0.519   7.267 -0.3543  0.2165 -0.0018
 1850TIP3    H127109   2.979   0.443   7.304 -1.6673  0.0739  1.3866
 1850TIP3    H227110   2.863   0.482   7.215 -1.5431  0.4580  1.3884
 1851TIP3   OH227111   3.595   1.767   8.479 -0.3540  0.0921 -0.0654
 1851TIP3    H127112   3.545   1.829   8.427 -0.3334  0.0568 -0.1265
 1851TIP3    H227113   3.682   1.765   8.439  0.3401  1.7026  1.2779
 1852TIP3   OH227114   1.152   2.376   1.900 -0.2062  0.3258  0.1140
 1852TIP3    H127115   1.116   2.405   1.816 -1.4664 -0.9520  0.1786
 1852TIP3    H227116   1.231   2.429   1.911 -0.7340  1.4766 -1.2264
 1853TIP3   OH227117   4.424   6.408   1.354  0.5831 -0.1140 -0.3838
 1853TIP3    H127118   4.488   6.357   1.304  1.5784 -0.3596  1.0740
 1853TIP3    H227119   4.450   6.499   1.339  0.7941 -0.1780 -0.4079
 1854TIP3   OH227120   1.292   3.627   1.860 -0.2073  0.1475 -0.7060
 1854TIP3    H127121   1.221   3.647   1.798 -0.4350 -1.1841 -0.9078
 1854TIP3    H227122   1.247   3.601   1.941 -0.1171 -2.8940 -1.4865
 1855TIP3   OH227123   4.972   5.249   8.443 -0.4865  0.2109 -0.0340
 1855TIP3    H127124   4.977   5.274   8.535  0.4584 -0.2958  0.0626
 1855TIP3    H227125   4.926   5.165   8.444 -0.4374  0.1840 -0.0230
 1856TIP3   OH227126   1.880   0.866   0.466 -0.7548 -0.7276 -0.4212
 1856TIP3    H127127   1.829   0.813   0.527 -0.8573  1.4593  1.5342
 1856TIP3    H227128   1.821   0.936   0.439  0.5743  0.8279  0.4758
 1857TIP3   OH227129   4.783   6.282   2.448 -0.1999 -0.1958  0.0518
 1857TIP3    H127130   4.861   6.256   2.400  0.8245 -0.2859  1.6675
 1857TIP3    H227131   4.745   6.200   2.478 -1.8065 -0.2500 -1.9788
 1858TIP3   OH227132   2.590   1.045   7.196 -0.5452 -0.2321 -0.3406
 1858TIP3    H127133   2.578   1.076   7.106  0.2353 -0.7727 -0.6356
 1858TIP3    H227134   2.523   0.977   7.207 -2.1226  1.3203  0.2373
 1859TIP3   OH227135   3.602   5.245   2.047  0.0291  0.4741 -0.5103
 1859TIP3    H127136   3.593   5.283   1.960  0.4011  1.0785 -0.2874
 1859TIP3    H227137   3.694   5.221   2.053 -0.3139 -1.0525 -0.8802
 1860TIP3   OH227138   4.382   4.373   8.654  0.1168  0.2701 -0.0798
 1860TIP3    H127139   4.419   4.461   8.660  0.6577  0.0430 -0.0277
 1860TIP3    H227140   4.336   4.372   8.570  1.5982  0.0599 -0.9243
 1861TIP3   OH227141   5.829   4.226   1.468  0.1057 -0.0172 -0.2568
 1861TIP3    H127142   5.788   4.162   1.527  0.2907 -0.7433 -0.8992
 1861TIP3    H227143   5.814   4.311   1.511  0.3966 -0.5366  0.9202
 1862TIP3   OH227144   1.124   4.708   8.023 -0.1150  0.1777 -0.1274
 1862TIP3    H127145   1.050   4.664   7.980 -1.1069  1.7705 -0.1417
 1862TIP3    H227146   1.138   4.787   7.970 -0.2601  1.3148  1.4794
 1863TIP3   OH227147   6.321   5.923   7.937  0.2741 -0.5580 -0.0345
 1863TIP3    H127148   6.313   5.979   8.014 -0.5428  2.2411 -2.0065
 1863TIP3    H227149   6.386   5.966   7.882 -1.0663 -0.9849 -2.0469
 1864TIP3   OH227150   2.525   2.971   8.667 -0.5976 -0.2528 -0.0875
 1864TIP3    H127151   2.546   2.967   8.574 -2.2466 -0.9956 -0.4790
 1864TIP3    H227152   2.570   3.049   8.699  0.5776 -0.3774 -1.3311
 1865TIP3   OH227153   0.830   4.966   2.348 -0.3729  0.7741  0.0361
 1865TIP3    H127154   0.806   5.050   2.310  1.2663  0.3757 -2.0440
 1865TIP3    H227155   0.763   4.905   2.317  1.0474  0.4096 -2.6060
 1866TIP3   OH227156   5.373   5.194   0.526 -0.1899  0.1807  0.5202
 1866TIP3    H127157   5.350   5.118   0.579  2.0103 -1.0239 -0.1375
 1866TIP3    H227158   5.316   5.264   0.558 -1.8124 -1.5622  1.5960
 1867TIP3   OH227159   3.468   5.715   7.502  0.1028  0.1378 -0.2709
 1867TIP3    H127160   3.467   5.716   7.406  0.6552 -0.5125 -0.2939
 1867TIP3    H227161   3.544   5.662   7.524 -0.6253 -0.6105  0.5228
 1868TIP3   OH227162   5.804   4.915   0.900 -0.4342  0.4032 -0.1177
 1868TIP3    H127163   5.713   4.901   0.926 -0.5701  0.8207 -0.3597
 1868TIP3    H227164   5.855   4.896   0.979 -0.6590 -0.6930 -0.2178
 1869TIP3   OH227165   5.871   5.138   1.813 -0.2642  1.1250 -0.7377
 1869TIP3    H127166   5.959   5.177   1.816  0.5129 -0.5995  0.7208
 1869TIP3    H227167   5.877   5.070   1.746 -0.1439  0.3194  0.0676
 1870TIP3   OH227168   6.235   0.004   1.001  0.3521  0.1415 -0.0619
 1870TIP3    H127169   6.221  -0.011   1.095 -0.2859  0.4298 -0.1042
 1870TIP3    H227170   6.223  -0.082   0.961 -0.7817  0.2761 -0.0302
 1871TIP3   OH227171   3.240   5.578   1.820  0.1562 -0.2475 -0.2920
 1871TIP3    H127172   3.151   5.548   1.800  0.1288  0.1072 -0.7221
 1871TIP3    H227173   3.238   5.599   1.913 -1.3100  3.3889 -0.9960
 1872TIP3   OH227174   2.572   0.629   1.334  0.2937  0.7256  0.2505
 1872TIP3    H127175   2.615   0.628   1.249 -2.1596  1.7369 -1.1060
 1872TIP3    H227176   2.494   0.574   1.322 -0.1709  1.0068  1.7859
 1873TIP3   OH227177   2.164   5.348   2.676 -0.3008 -0.2225  0.0318
 1873TIP3    H127178   2.235   5.310   2.624 -0.4506  2.0221 -1.9846
 1873TIP3    H227179   2.206   5.417   2.727 -0.4789 -1.2224  1.5806
 1874TIP3   OH227180   0.478   1.805   8.781  0.8619 -0.1512  0.5577
 1874TIP3    H127181   0.559   1.854   8.796  3.5447 -3.4103 -1.6440
 1874TIP3    H227182   0.507   1.715   8.768 -3.3047 -1.7121  0.5174
 1875TIP3   OH227183   1.615   6.385   1.720 -0.1020  0.1098 -0.2480
 1875TIP3    H127184   1.556   6.420   1.654 -0.6249 -0.2574  0.0252
 1875TIP3    H227185   1.607   6.446   1.794  0.2564  0.3499 -0.4006
 1876TIP3   OH227186   4.053   1.088   2.063  0.9426 -0.3514  0.2765
 1876TIP3    H127187   4.059   1.121   1.973 -0.0205 -0.2603  0.2373
 1876TIP3    H227188   3.996   1.011   2.057 -2.3671  1.7951  1.3105
 1877TIP3   OH227189   4.029   6.150   1.201 -0.0392 -0.5206  0.3635
 1877TIP3    H127190   3.986   6.081   1.253  1.3325 -1.0416  0.8591
 1877TIP3    H227191   4.104   6.176   1.254 -0.0114  0.7183 -0.2547
 1878TIP3   OH227192   3.223   2.783   7.668 -0.6416  0.2597 -0.4499
 1878TIP3    H127193   3.216   2.878   7.661  0.7457  0.3791 -0.4084
 1878TIP3    H227194   3.305   2.762   7.625 -0.7628 -0.8893 -0.1463
 1879TIP3   OH227195   0.532   2.398   2.744  0.3352 -0.1293  0.1356
 1879TIP3    H127196   0.486   2.319   2.715  1.0937 -0.6188  0.2460
 1879TIP3    H227197   0.518   2.401   2.838  0.7234 -0.4112  0.2046
 1880TIP3   OH227198   3.935   6.267   8.279  0.5136  0.5550  0.6990
 1880TIP3    H127199   3.904   6.177   8.283 -0.6683  0.8618 -0.5507
 1880TIP3    H227200   3.864   6.319   8.318  0.8389  1.0092  0.6959
 1881TIP3   OH227201   0.433   2.494   7.754 -0.0638  0.0503 -0.1806
 1881TIP3    H127202   0.394   2.508   7.668 -1.6137  0.5846  0.5571
 1881TIP3    H227203   0.467   2.579   7.779 -0.0849  0.0204 -0.0492
 1882TIP3   OH227204   2.189   5.714   1.773 -0.2940 -0.2195 -0.0386
 1882TIP3    H127205   2.147   5.712   1.859 -1.5572  2.1787 -0.5271
 1882TIP3    H227206   2.159   5.634   1.730 -1.1182 -0.5446  1.0810
 1883TIP3   OH227207   5.724   4.467   8.757 -0.0839 -0.2422 -0.2150
 1883TIP3    H127208   5.728   4.378   8.792 -1.5732 -0.0870  0.3855
 1883TIP3    H227209   5.799   4.511   8.796 -0.7190 -0.5571  1.4527
 1884TIP3   OH227210   0.292   3.206   1.461 -0.1927  0.0593 -0.2706
 1884TIP3    H127211   0.288   3.204   1.365  2.1678  1.2746 -0.4647
 1884TIP3    H227212   0.384   3.190   1.481 -0.2337  1.8723  1.6888
 1885TIP3   OH227213   3.667   3.113   8.649  0.4032 -0.1725  0.3278
 1885TIP3    H127214   3.600   3.089   8.584  0.2511  2.3095 -0.5365
 1885TIP3    H227215   3.747   3.074   8.617 -0.2559 -1.6217  0.3717
 1886TIP3   OH227216   1.376   1.258   1.321  0.4107 -0.6515  0.3021
 1886TIP3    H127217   1.394   1.164   1.310  1.7284 -0.2769 -1.0841
 1886TIP3    H227218   1.329   1.264   1.404  2.2672 -2.3159  1.5684
 1887TIP3   OH227219   2.703   3.243   2.832  0.3942 -0.0407 -0.0694
 1887TIP3    H127220   2.631   3.262   2.772  1.0785  0.2757 -0.7992
 1887TIP3    H227221   2.659   3.210   2.911 -0.4897 -0.8798 -0.8830
 1888TIP3   OH227222   4.919   4.165   0.616 -0.4504  0.4696 -0.3442
 1888TIP3    H127223   5.001   4.136   0.575 -0.2580 -1.1770  1.1199
 1888TIP3    H227224   4.851   4.110   0.577 -0.2742 -1.0720  1.3863
 1889TIP3   OH227225   6.457   5.662   2.159  0.2009  0.0458  0.2165
 1889TIP3    H127226   6.449   5.590   2.222  0.8279 -0.3468 -0.1479
 1889TIP3    H227227   6.497   5.623   2.082 -0.7421  0.4861 -0.5074
 1890TIP3   OH227228   4.145   2.927   7.209  0.0308 -0.3893 -0.4360
 1890TIP3    H127229   4.106   3.012   7.190 -1.0558 -0.5169  1.0501
 1890TIP3    H227230   4.229   2.947   7.250  0.0839 -0.0476 -0.7139
 1891TIP3   OH227231   2.289   2.727   7.513 -0.0478  0.1475  0.2286
 1891TIP3    H127232   2.303   2.653   7.453 -0.6871  0.4747 -0.3468
 1891TIP3    H227233   2.200   2.714   7.546 -0.1920  0.6879  0.0673
 1892TIP3   OH227234   3.219   0.269   0.836  0.0187  0.6131 -0.8393
 1892TIP3    H127235   3.240   0.351   0.791 -1.3620  0.8962 -1.0232
 1892TIP3    H227236   3.123   0.268   0.840 -0.0497 -1.3828 -1.5985
 1893TIP3   OH227237   0.515   6.414   1.438 -0.2025  0.1054 -0.5886
 1893TIP3    H127238   0.483   6.478   1.501 -1.5515 -2.3067  1.3670
 1893TIP3    H227239   0.610   6.413   1.449 -0.2632  0.9877  0.1057
 1894TIP3   OH227240   5.795   4.278   7.886 -0.0742  0.0185  0.1756
 1894TIP3    H127241   5.732   4.223   7.935  0.2056 -0.2844  0.2007
 1894TIP3    H227242   5.864   4.217   7.860 -0.5535  0.0329 -1.2069
 1895TIP3   OH227243   5.082   2.471   0.014  0.0483  0.0164  0.2528
 1895TIP3    H127244   5.090   2.431  -0.073  0.9830  0.2668  0.2056
 1895TIP3    H227245   5.066   2.397   0.073 -1.8742 -0.0299 -0.2619
 1896TIP3   OH227246   1.369   1.831   7.409 -0.1054  0.3200  0.9592
 1896TIP3    H127247   1.299   1.849   7.472 -0.6176  2.8276 -0.2120
 1896TIP3    H227248   1.329   1.849   7.324  0.1153 -4.3363 -0.3737
 1897TIP3   OH227249   0.886   0.805   0.236  0.0543  0.0062  0.7133
 1897TIP3    H127250   0.877   0.871   0.167  2.9322 -1.2644 -1.0782
 1897TIP3    H227251   0.950   0.843   0.297  1.2293 -0.7849  0.0154
 1898TIP3   OH227252   3.438   2.356   0.293  0.2573  0.3575 -0.0907
 1898TIP3    H127253   3.397   2.353   0.207  0.6970  0.5358 -0.3085
 1898TIP3    H227254   3.511   2.417   0.283  0.7551 -0.1799  0.2100
 1899TIP3   OH227255   2.505   4.576   8.309  0.1457 -0.2908 -0.4267
 1899TIP3    H127256   2.563   4.601   8.237  1.8903  1.8889  1.5604
 1899TIP3    H227257   2.434   4.641   8.306 -0.3995 -0.9000 -0.8492
 1900TIP3   OH227258   1.543   5.529   3.006  0.0978 -0.0120  0.0061
 1900TIP3    H127259   1.629   5.559   3.035  0.6690 -1.0257 -0.5890
 1900TIP3    H227260   1.496   5.510   3.087  1.7644 -3.1069  0.3836
 1901TIP3   OH227261   2.165   4.835   2.569  0.3164  0.0325 -0.5917
 1901TIP3    H127262   2.116   4.894   2.625 -0.1389 -0.0822 -0.8572
 1901TIP3    H227263   2.256   4.844   2.597  0.0401 -0.4068  0.5147
 1902TIP3   OH227264   1.643   6.058   8.658  0.4640  0.5403  0.0124
 1902TIP3    H127265   1.735   6.076   8.640  0.5578  2.2216  1.7973
 1902TIP3    H227266   1.612   6.135   8.705 -1.5874 -0.4290  0.3857
 1903TIP3   OH227267   1.444   1.155   0.546  0.0425 -0.4854  0.0489
 1903TIP3    H127268   1.446   1.064   0.575  0.3423  0.1506  2.2374
 1903TIP3    H227269   1.376   1.196   0.600 -0.2366  0.5502 -1.0505
 1904TIP3   OH227270   1.130   6.326   1.384 -0.0254  0.0184 -1.1554
 1904TIP3    H127271   1.054   6.384   1.376  0.9238  1.6499  0.7261
 1904TIP3    H227272   1.181   6.342   1.304 -0.4763  0.7353 -1.3067
 1905TIP3   OH227273   2.989   6.352   7.462  0.1557 -0.1297 -0.0110
 1905TIP3    H127274   3.057   6.348   7.394 -0.7344 -0.0891 -0.9184
 1905TIP3    H227275   2.907   6.336   7.415 -0.3963 -0.9127  1.1908
 1906TIP3   OH227276   2.056   0.568   7.570 -0.2482  0.3970  0.3632
 1906TIP3    H127277   2.136   0.583   7.520 -0.5270 -0.4430 -0.3685
 1906TIP3    H227278   2.013   0.496   7.524 -0.5293 -0.3942  1.8188
 1907TIP3   OH227279   1.801   6.613   2.187  0.2308  0.1297  0.1138
 1907TIP3    H127280   1.772   6.586   2.275  0.1501 -2.0262 -0.5170
 1907TIP3    H227281   1.890   6.646   2.201 -0.0530  0.5274  1.1089
 1908TIP3   OH227282   4.660   1.944   7.250  0.0037 -0.4297  0.2910
 1908TIP3    H127283   4.609   2.003   7.305 -3.0178 -1.3683 -1.2508
 1908TIP3    H227284   4.622   1.857   7.266 -0.7365 -0.7978 -2.8128
 1909TIP3   OH227285   3.441   2.010   8.086  0.0001 -0.2844 -0.3078
 1909TIP3    H127286   3.399   2.076   8.141  0.5577 -0.8410  0.7999
 1909TIP3    H227287   3.496   2.060   8.026 -1.0850  0.3625 -0.8064
 1910TIP3   OH227288   6.434   6.608   1.719  0.2536  0.0913 -0.2208
 1910TIP3    H127289   6.393   6.607   1.632  0.3743  0.1384 -0.2791
 1910TIP3    H227290   6.510   6.551   1.710 -0.7698 -1.4219  0.3764
 1911TIP3   OH227291   4.045   0.353   1.121 -0.9033 -0.3016 -0.5915
 1911TIP3    H127292   3.997   0.416   1.175  0.7635 -1.0258  1.8953
 1911TIP3    H227293   4.033   0.269   1.165  1.4432 -0.7453 -0.6620
 1912TIP3   OH227294   4.267   3.633   3.136  0.3961 -0.1537 -0.0319
 1912TIP3    H127295   4.250   3.575   3.061 -0.8482 -0.9918  0.8540
 1912TIP3    H227296   4.303   3.575   3.203 -3.5222 -0.6599  1.9054
 1913TIP3   OH227297   0.224   4.135   7.639 -0.1104  0.5628 -0.0686
 1913TIP3    H127298   0.294   4.171   7.583  1.6389 -0.2445  1.5057
 1913TIP3    H227299   0.256   4.148   7.728 -0.9098 -1.8832  0.6410
 1914TIP3   OH227300   0.644   5.282   0.607 -0.0275 -0.5990 -0.1253
 1914TIP3    H127301   0.612   5.358   0.656  3.1122  0.9299 -0.2553
 1914TIP3    H227302   0.595   5.285   0.525 -2.0000 -0.4603  0.9898
 1915TIP3   OH227303   4.679   4.356   7.966 -0.7568  0.3798  0.1644
 1915TIP3    H127304   4.607   4.294   7.978  0.3977 -0.6452  2.6022
 1915TIP3    H227305   4.705   4.346   7.875 -1.3587 -1.9391  0.1800
 1916TIP3   OH227306   5.046   1.859   7.762  0.2555  0.1917 -0.3034
 1916TIP3    H127307   5.005   1.829   7.681  1.9934 -0.4070 -1.0081
 1916TIP3    H227308   4.997   1.938   7.785  1.1050  1.7434 -3.2311
 1917TIP3   OH227309   2.660   0.199   8.122 -0.4466 -0.0287  0.0069
 1917TIP3    H127310   2.573   0.197   8.082 -0.8736 -0.4704  0.9090
 1917TIP3    H227311   2.691   0.289   8.110  0.4054 -0.6407 -3.2173
 1918TIP3   OH227312   5.002   2.051   0.253  0.3241 -0.4079 -0.0071
 1918TIP3    H127313   5.033   2.141   0.258 -0.2825 -0.2173  0.4510
 1918TIP3    H227314   5.033   2.019   0.168 -1.8907  1.1589 -1.5092
 1919TIP3   OH227315   0.576   2.887   0.915 -0.2046 -0.4399 -0.5403
 1919TIP3    H127316   0.614   2.833   0.984  0.8831  0.8796 -0.0593
 1919TIP3    H227317   0.483   2.864   0.914  0.1391 -1.9823 -0.0740
 1920TIP3   OH227318   4.432   6.563   1.828  0.0791  0.6553  0.5093
 1920TIP3    H127319   4.386   6.497   1.776  0.1584  0.9675  0.0303
 1920TIP3    H227320   4.487   6.513   1.888 -0.2799  0.2857  0.5331
 1921TIP3   OH227321   5.874   2.314   2.177  0.6424 -0.2895  0.7551
 1921TIP3    H127322   5.779   2.315   2.191  0.4869  2.4200  0.0489
 1921TIP3    H227323   5.911   2.356   2.255  0.8276  2.5430 -0.7183
 1922TIP3   OH227324   0.307   6.744   0.793 -0.7776 -0.2578  0.2370
 1922TIP3    H127325   0.285   6.798   0.868 -0.6397 -1.8187  1.4483
 1922TIP3    H227326   0.357   6.802   0.735 -2.4018  1.4800  0.4783
 1923TIP3   OH227327   2.659   6.009   0.974 -0.5229 -0.0844  0.0108
 1923TIP3    H127328   2.746   5.968   0.976 -0.8663 -0.8154  1.0699
 1923TIP3    H227329   2.637   6.022   1.066 -2.0069 -0.9350 -0.1954
 1924TIP3   OH227330   4.923   5.887   0.662 -0.3541 -0.2615 -0.1096
 1924TIP3    H127331   5.014   5.893   0.691 -1.0423  1.0476  2.0251
 1924TIP3    H227332   4.903   5.794   0.665  0.9786 -0.5933 -0.8635
 1925TIP3   OH227333   1.876   3.098   1.557 -0.3047  0.5707  0.2831
 1925TIP3    H127334   1.807   3.032   1.553  0.2297  0.0391 -0.3504
 1925TIP3    H227335   1.936   3.074   1.487  1.3671  0.0737  1.8140
 1926TIP3   OH227336   4.488   0.923   2.212  0.5133  0.0906 -0.0809
 1926TIP3    H127337   4.458   0.907   2.122  1.4077 -1.3670 -0.1507
 1926TIP3    H227338   4.456   1.011   2.232  0.3218  0.4703 -1.8366
 1927TIP3   OH227339   0.983   5.036   8.535  0.1773  0.3371 -0.0773
 1927TIP3    H127340   0.956   5.099   8.469 -1.5860  2.1208  2.1661
 1927TIP3    H227341   1.026   5.088   8.603 -0.4176 -0.9843  1.3906
 1928TIP3   OH227342   4.791   1.714   0.870 -0.0164 -0.3622  0.6741
 1928TIP3    H127343   4.785   1.654   0.795 -1.8950 -2.5460  2.4172
 1928TIP3    H227344   4.825   1.661   0.941  1.3514  1.5605  1.5444
 1929TIP3   OH227345   2.605   4.760   2.377  0.0844  0.2627 -0.4062
 1929TIP3    H127346   2.664   4.697   2.417 -0.1915 -0.0345 -0.4588
 1929TIP3    H227347   2.607   4.739   2.283  0.7053  0.9344 -0.5520
 1930TIP3   OH227348   0.834   5.001   1.487 -0.3356 -0.4343 -0.5142
 1930TIP3    H127349   0.864   5.057   1.415  1.3191 -1.8424 -0.9729
 1930TIP3    H227350   0.754   4.961   1.454 -0.5520  0.2713 -0.8721
 1931TIP3   OH227351   2.473   2.913   2.781  0.1485  0.0602  0.6612
 1931TIP3    H127352   2.436   2.878   2.861 -0.2959  0.6919  0.7459
 1931TIP3    H227353   2.474   2.839   2.720  1.1023 -0.5878  1.4364
 1932TIP3   OH227354   1.794   1.324   1.216 -0.5223 -0.1168  0.1414
 1932TIP3    H127355   1.730   1.390   1.244 -0.2413  0.2438 -0.0529
 1932TIP3    H227356   1.879   1.367   1.228 -0.2247 -1.0671  1.6820
 1933TIP3   OH227357   2.543   4.263   2.082  0.0521 -0.0667 -0.4467
 1933TIP3    H127358   2.536   4.288   2.174  1.4210 -0.5768 -0.1901
 1933TIP3    H227359   2.460   4.218   2.063 -0.1406 -0.1768  0.6035
 1934TIP3   OH227360   0.782   2.122   0.866  0.5475  0.9277  0.0798
 1934TIP3    H127361   0.746   2.184   0.929  0.3721  2.4441 -1.4173
 1934TIP3    H227362   0.846   2.071   0.915  0.0758  1.7219  1.5616
 1935TIP3   OH227363   0.910   2.148   7.900  0.2972  0.0326  0.0301
 1935TIP3    H127364   0.881   2.187   7.817  0.4233  1.6681  0.7072
 1935TIP3    H227365   0.913   2.222   7.961  0.9391 -1.0044  1.3031
 1936TIP3   OH227366   4.812   4.915   0.611  0.1961  0.3103 -0.6586
 1936TIP3    H127367   4.904   4.932   0.633  0.0557 -0.1759  0.3645
 1936TIP3    H227368   4.765   4.930   0.694 -0.8200  1.7943 -1.4551
 1937TIP3   OH227369   2.526   5.769   2.146 -0.1723 -0.0562  1.0322
 1937TIP3    H127370   2.514   5.864   2.142 -0.1526  0.1761  4.0315
 1937TIP3    H227371   2.449   5.733   2.103 -0.3420  1.3078  0.1405
 1938TIP3   OH227372   0.519   2.407   8.226 -0.1269 -0.3177 -0.0430
 1938TIP3    H127373   0.506   2.380   8.317 -1.2066 -0.8708 -0.3422
 1938TIP3    H227374   0.527   2.324   8.178  1.5693 -0.0204 -0.3109
 1939TIP3   OH227375   2.650   5.738   8.401  0.7093 -0.3856 -0.0320
 1939TIP3    H127376   2.555   5.742   8.411  0.5698  0.7080 -1.4753
 1939TIP3    H227377   2.664   5.695   8.316  1.3882  1.4828 -0.9380
 1940TIP3   OH227378   6.020   2.021   2.659  0.3564  0.1010 -0.1879
 1940TIP3    H127379   6.111   2.044   2.644  0.5950  0.9525  2.1694
 1940TIP3    H227380   5.984   2.096   2.706 -1.8063  0.1301 -1.7325
 1941TIP3   OH227381   3.932   5.486   1.611  0.3891  0.0195 -0.0555
 1941TIP3    H127382   3.852   5.515   1.567 -0.0473 -0.6085  0.3062
 1941TIP3    H227383   3.941   5.545   1.685  0.1694 -0.0095 -0.0042
 1942TIP3   OH227384   6.654   3.033   8.027  0.1927  0.1001 -0.0373
 1942TIP3    H127385   6.661   2.984   7.945 -0.4440 -0.1538  0.0514
 1942TIP3    H227386   6.714   2.989   8.086  0.4213  0.0899 -0.2732
 1943TIP3   OH227387   0.829   0.183   2.197  0.1107 -0.2769  0.6444
 1943TIP3    H127388   0.822   0.221   2.285 -0.3710  0.4190  0.3150
 1943TIP3    H227389   0.751   0.215   2.151  1.1277  0.6199 -0.5106
 1944TIP3   OH227390   0.412   1.040   1.316 -0.9660 -0.4443 -0.2270
 1944TIP3    H127391   0.463   0.959   1.324 -1.8444 -1.0062 -0.2579
 1944TIP3    H227392   0.413   1.060   1.222 -1.2408 -0.7352 -0.2908
 1945TIP3   OH227393   4.805   3.448   8.423  0.1187 -0.3473 -0.4019
 1945TIP3    H127394   4.782   3.515   8.489  1.6607 -2.3380  2.3704
 1945TIP3    H227395   4.727   3.392   8.419  0.1004 -0.3488 -0.0874
 1946TIP3   OH227396   0.779   3.892   0.997  0.0748 -0.2536  0.8272
 1946TIP3    H127397   0.763   3.799   0.983 -2.0423  0.2166 -0.4842
 1946TIP3    H227398   0.847   3.915   0.934 -2.3861 -0.1728 -2.0428
 1947TIP3   OH227399   4.995   2.044   8.085  0.0161 -0.0531 -0.3323
 1947TIP3    H127400   4.921   2.054   8.025 -2.4119 -0.6836  2.2968
 1947TIP3    H227401   5.022   1.953   8.074 -0.8746 -0.3668 -0.0416
 1948TIP3   OH227402   4.694   1.320   1.257 -0.2622  0.3083 -0.3004
 1948TIP3    H127403   4.724   1.411   1.260  0.4134  0.1037 -0.7417
 1948TIP3    H227404   4.768   1.272   1.220 -0.7638 -0.3630 -0.4298
 1949TIP3   OH227405   3.898   4.885   0.898  0.6100 -0.1365 -0.2802
 1949TIP3    H127406   3.934   4.797   0.887 -1.2631 -0.8587 -0.9689
 1949TIP3    H227407   3.826   4.874   0.960  1.8883  1.3918  1.6071
 1950TIP3   OH227408   4.104   3.766   2.569  0.1655 -0.0497 -0.5673
 1950TIP3    H127409   4.102   3.689   2.626 -1.5907  0.8284  0.6374
 1950TIP3    H227410   4.155   3.831   2.618 -0.1387  0.2368 -0.6244
 1951TIP3   OH227411   3.545   2.647   0.726 -0.2538 -1.0479  0.1382
 1951TIP3    H127412   3.503   2.605   0.801 -0.1952 -1.8950 -0.2849
 1951TIP3    H227413   3.626   2.596   0.713  1.2453  0.8881  1.2954
 1952TIP3   OH227414   0.351   6.019   1.007  0.2498  0.5991  0.2581
 1952TIP3    H127415   0.299   5.958   0.955 -0.0863  1.4770 -0.4611
 1952TIP3    H227416   0.316   6.011   1.095 -0.4082  0.4159 -0.0122
 1953TIP3   OH227417   4.229   1.122   0.024 -0.0301 -0.9360 -0.2846
 1953TIP3    H127418   4.199   1.044   0.071 -2.1895  0.2212  0.3989
 1953TIP3    H227419   4.278   1.172   0.090 -3.4387  0.9062  1.1301
 1954TIP3   OH227420   2.371   3.416   1.458  0.4702  0.6222  0.4603
 1954TIP3    H127421   2.383   3.378   1.545 -2.1932 -3.0163 -0.4848
 1954TIP3    H227422   2.441   3.377   1.406 -0.8879 -1.4175  0.0153
 1955TIP3   OH227423   5.138   0.146   1.982 -0.3217 -0.4353  0.0558
 1955TIP3    H127424   5.050   0.176   2.003 -0.0688 -0.0722  0.6163
 1955TIP3    H227425   5.137   0.133   1.887  0.0582  3.1058 -0.5596
 1956TIP3   OH227426   6.459   1.759   1.165  0.2551 -0.0513  0.2391
 1956TIP3    H127427   6.413   1.700   1.225  2.4511 -2.2226 -0.0505
 1956TIP3    H227428   6.422   1.739   1.079 -0.7774  0.8894  0.4406
 1957TIP3   OH227429   4.856   1.171   1.087  0.1690 -0.3273  0.7871
 1957TIP3    H127430   4.871   1.078   1.105 -1.4233 -1.0615 -1.3074
 1957TIP3    H227431   4.876   1.181   0.994 -0.3027  1.2819  0.8302
 1958TIP3   OH227432   2.578   6.567   0.572 -0.2674  0.0889  0.0904
 1958TIP3    H127433   2.618   6.611   0.647  1.9968 -0.0575 -0.9352
 1958TIP3    H227434   2.543   6.638   0.519  0.4287  0.4213  0.0559
 1959TIP3   OH227435   0.593   0.686   0.259 -0.2162 -0.0942 -0.5936
 1959TIP3    H127436   0.555   0.739   0.329  0.8767  0.3548 -0.3205
 1959TIP3    H227437   0.688   0.697   0.269  0.1151 -2.7154 -0.0178
 1960TIP3   OH227438   2.478   4.332   0.522 -0.8313 -0.1356 -0.1140
 1960TIP3    H127439   2.536   4.388   0.471 -1.8902 -0.4022 -1.6897
 1960TIP3    H227440   2.533   4.260   0.550 -0.3820 -0.4275 -1.6430
 1961TIP3   OH227441   0.845   1.283   1.068 -0.3839 -0.1021 -0.3568
 1961TIP3    H127442   0.911   1.279   1.138 -2.3650 -0.0428  1.6236
 1961TIP3    H227443   0.783   1.350   1.097 -1.4860 -0.3541 -2.0050
 1962TIP3   OH227444   0.236   0.169   0.430  0.6682  0.1231  0.0141
 1962TIP3    H127445   0.319   0.178   0.476 -0.8550  0.9714  2.8017
 1962TIP3    H227446   0.236   0.241   0.367  2.2678 -0.2716 -0.4832
 1963TIP3   OH227447   3.325   2.591   0.927  0.1485 -0.0480  0.3526
 1963TIP3    H127448   3.268   2.634   0.991 -1.9946 -1.0934 -0.7692
 1963TIP3    H227449   3.313   2.497   0.943  2.1604 -0.3143  0.5580
 1964TIP3   OH227450   2.740   5.538   2.404  0.5820  0.5775  0.7896
 1964TIP3    H127451   2.783   5.618   2.436  0.1195  0.5964  1.3893
 1964TIP3    H227452   2.705   5.497   2.483 -1.2588  1.0094  0.2490
 1965TIP3   OH227453   2.743   0.770   0.820  0.3154  0.3782  0.4487
 1965TIP3    H127454   2.777   0.815   0.898  0.2601 -0.9624  1.2692
 1965TIP3    H227455   2.818   0.720   0.787 -0.0441 -0.1732  0.4702
 1966TIP3   OH227456   5.352   4.740   0.826  0.0944 -0.4061  0.2581
 1966TIP3    H127457   5.344   4.646   0.810 -0.6292 -0.3196  0.1151
 1966TIP3    H227458   5.331   4.751   0.919  0.3213 -0.3960  0.3109
 1967TIP3   OH227459   0.604   6.054   1.774 -0.2054 -0.4149 -0.4061
 1967TIP3    H127460   0.590   6.077   1.682 -1.4959 -2.3343 -0.7360
 1967TIP3    H227461   0.519   6.025   1.805  0.3968 -0.5933  1.1704
 1968TIP3   OH227462   1.958   6.433   0.385  0.3366  0.1728  0.3107
 1968TIP3    H127463   1.936   6.508   0.331  0.3288 -0.1822 -0.1912
 1968TIP3    H227464   1.922   6.453   0.471 -1.4366 -0.1228 -0.3260
 1969TIP3   OH227465   6.237   4.001   0.790 -0.0926 -0.2267  0.3911
 1969TIP3    H127466   6.261   3.967   0.704  2.4506  1.4806  0.3205
 1969TIP3    H227467   6.221   3.923   0.843 -0.9150 -1.3231 -1.3971
 1970TIP3   OH227468   1.302   6.302   0.017  0.1895  0.0989 -0.2142
 1970TIP3    H127469   1.308   6.366   0.088  2.1737 -0.5653  0.2545
 1970TIP3    H227470   1.392   6.284  -0.007 -0.4079 -0.8278 -1.9050
 1971TIP3   OH227471   1.681   2.910   8.528  0.0145  0.1672 -0.3975
 1971TIP3    H127472   1.739   2.835   8.516  0.7807  0.6364  0.2685
 1971TIP3    H227473   1.599   2.873   8.560  0.9113 -0.2594  1.5355
 1972TIP3   OH227474   0.623   2.758   1.138  0.0243 -0.0376  0.0379
 1972TIP3    H127475   0.580   2.694   1.194  0.4902  0.2537  0.7461
 1972TIP3    H227476   0.621   2.839   1.189  0.2376  0.2913 -0.4677
 1973TIP3   OH227477   2.776   0.456   8.128 -0.3826  0.2820  0.1844
 1973TIP3    H127478   2.853   0.511   8.142  0.2402 -0.8836  1.4945
 1973TIP3    H227479   2.713   0.484   8.195  0.2291 -1.0859  1.3619
 1974TIP3   OH227480   2.825   3.715   2.268 -0.1108 -0.1889  0.3039
 1974TIP3    H127481   2.765   3.788   2.284 -0.3575 -0.1401 -0.7767
 1974TIP3    H227482   2.781   3.639   2.308 -0.3250  0.0595  0.5523
 1975TIP3   OH227483   2.744   5.686   0.294  0.2217  0.1972  0.2825
 1975TIP3    H127484   2.723   5.663   0.385  1.5743 -0.5804  0.4316
 1975TIP3    H227485   2.755   5.602   0.250 -0.8065  0.5670 -0.7191
 1976TIP3   OH227486   2.127   6.429   0.690 -0.0252 -0.2925 -0.1970
 1976TIP3    H127487   2.087   6.348   0.722  0.0644 -0.5960 -0.8340
 1976TIP3    H227488   2.053   6.490   0.682  0.0681  0.0750  1.3879
 1977TIP3   OH227489   3.232   2.306   0.954  0.6371  0.5250  0.1950
 1977TIP3    H127490   3.296   2.287   0.885 -0.6081  0.0143 -0.8540
 1977TIP3    H227491   3.251   2.242   1.022 -0.0493 -1.0179 -0.9989
 1978TIP3   OH227492   3.700   2.902   2.264 -0.0932  0.0726 -0.0557
 1978TIP3    H127493   3.650   2.936   2.338 -0.2340  0.1368 -0.1782
 1978TIP3    H227494   3.788   2.937   2.275  0.1059 -0.5961  0.5345
 1979TIP3   OH227495   2.353   1.806   2.478 -0.0356 -0.5409  0.2144
 1979TIP3    H127496   2.406   1.769   2.548  0.3540 -1.6149 -0.6241
 1979TIP3    H227497   2.417   1.837   2.413 -0.4038 -0.5181 -0.1431
 1980TIP3   OH227498   2.496   2.546   7.945 -0.6059  0.1201 -0.3845
 1980TIP3    H127499   2.489   2.633   7.908  1.8877  0.6338  0.1819
 1980TIP3    H227500   2.558   2.555   8.018  0.0033 -2.1645 -0.5248
 1981TIP3   OH227501   6.097   6.306   7.670 -0.4134  0.1667  0.1182
 1981TIP3    H127502   6.138   6.389   7.646  1.6409 -0.7650  0.1582
 1981TIP3    H227503   6.063   6.271   7.587  0.4303  0.1913 -0.2553
 1982TIP3   OH227504   3.451   5.640   1.491 -0.4319 -0.0055 -0.6928
 1982TIP3    H127505   3.356   5.645   1.494 -0.4545 -0.2895 -0.9104
 1982TIP3    H227506   3.478   5.716   1.439 -0.4113  1.2944  1.1202
 1983TIP3   OH227507   2.062   2.360   1.056  0.5470  0.3888  0.1798
 1983TIP3    H127508   2.013   2.318   0.985 -0.5715 -0.6470  1.5006
 1983TIP3    H227509   2.034   2.451   1.054  0.3800  0.3253 -0.5875
 1984TIP3   OH227510   2.317   6.653   1.660  0.5861  0.1887  0.4453
 1984TIP3    H127511   2.273   6.649   1.745 -1.8491  2.3264 -0.5785
 1984TIP3    H227512   2.275   6.585   1.608  0.7948  0.0843  0.4124
 1985TIP3   OH227513   6.789   5.401   1.003 -0.5066  0.0366 -0.1072
 1985TIP3    H127514   6.749   5.482   0.970  0.3735  1.0451  1.2049
 1985TIP3    H227515   6.883   5.416   0.996 -0.3002 -1.7789 -1.8895
 1986TIP3   OH227516   0.429   1.207   1.031 -0.6364  0.1086  0.2327
 1986TIP3    H127517   0.429   1.210   0.936 -1.3037 -0.5547  0.1991
 1986TIP3    H227518   0.358   1.146   1.053  1.4649 -2.2406  1.0500
 1987TIP3   OH227519   3.342   5.332   1.371 -0.2411  0.1946  0.2636
 1987TIP3    H127520   3.326   5.377   1.288  0.9783  2.2904  1.0718
 1987TIP3    H227521   3.258   5.334   1.417  0.2459  4.3911  1.4267
 1988TIP3   OH227522   0.631   0.758   8.543  0.2493 -0.3533  0.4860
 1988TIP3    H127523   0.650   0.813   8.468  0.0182  2.0859  2.0906
 1988TIP3    H227524   0.537   0.743   8.540  0.4921 -1.8986 -0.6843
 1989TIP3   OH227525   4.101   6.331   0.599  0.0285  0.6343  0.5787
 1989TIP3    H127526   4.138   6.274   0.532 -1.4387  0.6355 -0.2695
 1989TIP3    H227527   4.167   6.331   0.669 -0.0426 -2.4194  0.8108
 1990TIP3   OH227528   3.295   2.403   0.042  0.3756 -0.2488 -0.2557
 1990TIP3    H127529   3.338   2.489   0.043  0.2937 -0.2053 -0.5609
 1990TIP3    H227530   3.210   2.419   0.001 -1.0276  0.1963  2.5377
 1991TIP3   OH227531   3.856   1.667   0.336 -0.0320  0.7206 -0.3781
 1991TIP3    H127532   3.769   1.706   0.335 -0.0850  0.6371  0.4347
 1991TIP3    H227533   3.877   1.656   0.429  1.4991  2.2052 -0.4910
 1992TIP3   OH227534   1.042   1.747   6.632 -0.4022  0.3952  0.1441
 1992TIP3    H127535   0.984   1.679   6.665 -1.0141  0.0351 -1.5607
 1992TIP3    H227536   1.033   1.819   6.694 -2.0299  0.0194  0.3897
 1993TIP3   OH227537   3.773   0.201   8.328 -0.1096 -0.2472 -0.4612
 1993TIP3    H127538   3.749   0.205   8.420  1.0934 -0.7571 -0.0970
 1993TIP3    H227539   3.791   0.108   8.312  0.1747 -0.0930 -1.0753
 1994TIP3   OH227540   1.362   0.719   0.592 -0.0603 -0.8442  0.2596
 1994TIP3    H127541   1.395   0.684   0.509 -2.5816 -0.9362 -0.7772
 1994TIP3    H227542   1.424   0.789   0.614  0.5916 -0.7034 -1.7907
 1995TIP3   OH227543   2.783   0.335   0.319 -0.6392  0.0909 -0.6629
 1995TIP3    H127544   2.870   0.371   0.335 -1.3660  1.4215  0.5804
 1995TIP3    H227545   2.751   0.310   0.406 -1.5077 -0.3673 -1.1012
 1996TIP3   OH227546   6.740   0.773   1.166  0.1753 -0.0620  0.3141
 1996TIP3    H127547   6.762   0.840   1.101  0.7741 -1.4560 -0.9617
 1996TIP3    H227548   6.797   0.792   1.240  0.4244  0.7616 -0.0710
 1997TIP3   OH227549   0.854   6.620   1.655 -0.1075 -0.0686  0.0990
 1997TIP3    H127550   0.866   6.702   1.703  0.1678  0.5209 -0.9619
 1997TIP3    H227551   0.924   6.620   1.590 -0.2728 -1.0248 -0.0881
 1998TIP3   OH227552   1.260   5.309   1.963 -0.1531 -0.0447  0.2258
 1998TIP3    H127553   1.209   5.278   1.888  0.4188  0.2841 -0.3083
 1998TIP3    H227554   1.286   5.229   2.009  2.4744 -0.5479 -1.9015
 1999TIP3   OH227555   5.131   5.892   0.374 -0.1508  0.9089  0.0863
 1999TIP3    H127556   5.178   5.860   0.297  0.0575 -2.2072  1.3665
 1999TIP3    H227557   5.039   5.896   0.346  0.2536  2.7481 -1.1298
 2000TIP3   OH227558   5.066   1.062   2.830 -0.1991 -0.2478 -0.3479
 2000TIP3    H127559   4.993   1.117   2.860 -0.0359  0.5229 -1.3202
 2000TIP3    H227560   5.097   1.105   2.751 -0.3354 -1.9735 -1.3895
 2001TIP3   OH227561   0.844   1.424   7.319 -0.3747 -0.0341 -0.2670
 2001TIP3    H127562   0.753   1.415   7.289 -0.0115  1.9360 -2.1735
 2001TIP3    H227563   0.840   1.486   7.392 -0.3561  2.0009 -1.9250
 2002TIP3   OH227564   0.307   4.944   1.406  0.5215 -0.3093 -0.3653
 2002TIP3    H127565   0.298   4.895   1.325 -0.7235  1.4887 -1.3660
 2002TIP3    H227566   0.337   5.031   1.380 -0.8283  0.6173  0.9687
 2003TIP3   OH227567   6.488   2.256   8.496  0.1455 -0.7590  0.1380
 2003TIP3    H127568   6.529   2.307   8.426 -1.0453 -0.8374 -0.6334
 2003TIP3    H227569   6.396   2.283   8.496  0.0014 -1.1590  1.3203
 2004TIP3   OH227570   2.938   1.761   2.769  0.6865 -0.0217 -0.2275
 2004TIP3    H127571   2.981   1.842   2.744 -0.6530  0.8714  0.2239
 2004TIP3    H227572   2.910   1.776   2.860 -0.6345 -0.4913 -0.5281
 2005TIP3   OH227573   6.708   2.124   8.611  0.6402  0.3538 -0.0520
 2005TIP3    H127574   6.729   2.213   8.639  0.0842  0.2882  0.6044
 2005TIP3    H227575   6.642   2.134   8.543  0.2730  0.4315  0.3136
 2006TIP3   OH227576   3.183   1.678   2.955  0.2432 -0.2585  0.6965
 2006TIP3    H127577   3.212   1.635   2.874 -3.3447 -1.8587  0.0401
 2006TIP3    H227578   3.161   1.605   3.013 -0.5628  0.8186  1.7744
 2007TIP3   OH227579   3.989   0.658   0.145  0.8177 -0.3158  0.0423
 2007TIP3    H127580   4.047   0.613   0.207  0.4489  0.2123  0.7927
 2007TIP3    H227581   3.915   0.687   0.199 -0.1393 -0.9670 -0.9036
 2008TIP3   OH227582   3.479   4.971   7.776  0.0210 -0.1110 -0.1125
 2008TIP3    H127583   3.570   4.959   7.749  0.5067  1.1473  0.8921
 2008TIP3    H227584   3.428   4.937   7.702  1.2828 -1.4111 -0.4353
 2009TIP3   OH227585   1.342   4.457   1.980 -0.4017  0.1094  0.3626
 2009TIP3    H127586   1.324   4.434   1.889 -1.0833 -0.3197  0.5973
 2009TIP3    H227587   1.256   4.477   2.018  0.0163  1.6535  0.5545
 2010TIP3   OH227588   0.532   4.291   8.004  0.3667  0.4841  0.6168
 2010TIP3    H127589   0.461   4.336   7.959 -0.7030  1.0872  2.7934
 2010TIP3    H227590   0.612   4.333   7.971 -0.3094  0.5162 -1.0679
 2011TIP3   OH227591   5.010   0.490   8.038  0.5249  0.0730  0.1515
 2011TIP3    H127592   4.979   0.433   8.110  0.1462  0.7692  0.5533
 2011TIP3    H227593   5.022   0.576   8.079 -1.5800  0.9939 -0.9853
 2012TIP3   OH227594   5.044   3.141   0.612  0.4002 -0.8286 -0.8207
 2012TIP3    H127595   4.986   3.069   0.637 -0.6317  0.2752  0.0896
 2012TIP3    H227596   5.045   3.198   0.689  2.8558 -0.8792 -0.7200
 2013TIP3   OH227597   0.731   1.725   2.839 -0.0225  0.8174  0.2462
 2013TIP3    H127598   0.775   1.720   2.754  1.4197  0.2137  0.9755
 2013TIP3    H227599   0.645   1.688   2.824  0.2120  0.7083 -0.9444
 2014TIP3   OH227600   5.307   5.659   8.731  0.2131  0.3551  0.6471
 2014TIP3    H127601   5.351   5.610   8.662 -0.8679 -2.2586  1.6471
 2014TIP3    H227602   5.374   5.717   8.766  1.5256 -0.1857 -0.8443
 2015TIP3   OH227603   4.615   5.473   0.313 -0.6325 -0.0421 -0.3815
 2015TIP3    H127604   4.641   5.448   0.224 -1.7457 -0.1952 -0.6832
 2015TIP3    H227605   4.631   5.395   0.366  0.1833  0.0990 -0.4012
 2016TIP3   OH227606   0.513   4.988   2.390  0.1747 -0.3670  0.0255
 2016TIP3    H127607   0.502   4.920   2.456 -0.6487 -0.8061 -0.5358
 2016TIP3    H227608   0.583   4.956   2.334  0.2866 -0.4067  0.1884
 2017TIP3   OH227609   2.757   4.243   2.420  0.1562  0.2334  0.5190
 2017TIP3    H127610   2.691   4.189   2.462 -0.8350 -0.0786 -1.3309
 2017TIP3    H227611   2.838   4.193   2.430 -0.0870  0.0596  1.7862
 2018TIP3   OH227612   2.182   2.076   0.890 -0.0749 -0.0241  0.3174
 2018TIP3    H127613   2.175   1.987   0.855 -0.2502  0.1197 -0.0179
 2018TIP3    H227614   2.132   2.073   0.972  0.7968 -0.5058  0.8514
 2019TIP3   OH227615   1.957   5.101   7.968 -0.1977 -0.2129 -0.2408
 2019TIP3    H127616   1.902   5.026   7.946  0.6948 -0.4135 -1.9385
 2019TIP3    H227617   1.896   5.171   7.990 -1.0657 -1.0501  0.0487
 2020TIP3   OH227618   4.108   5.467   8.566 -0.4206  0.2590 -0.0725
 2020TIP3    H127619   4.090   5.480   8.473 -1.2419  1.2906  0.2072
 2020TIP3    H227620   4.202   5.483   8.574 -0.2851 -0.1470 -0.7665
 2021TIP3   OH227621   0.943   5.886   2.280 -0.2510 -0.3221  0.3527
 2021TIP3    H127622   0.988   5.960   2.238 -0.8827 -0.7995 -1.2421
 2021TIP3    H227623   0.976   5.886   2.370  1.1019  0.8100 -0.1006
 2022TIP3   OH227624   3.158   0.907   0.815 -0.5538  0.5667  0.0570
 2022TIP3    H127625   3.241   0.867   0.788 -0.6753  0.1440  0.3019
 2022TIP3    H227626   3.162   0.908   0.911 -0.6485  0.9416  0.0575
 2023TIP3   OH227627   3.219   2.509   0.380  0.3448  0.4240 -0.5813
 2023TIP3    H127628   3.145   2.456   0.409  0.3694 -0.3519 -1.8578
 2023TIP3    H227629   3.289   2.445   0.364  0.3486  0.8117 -2.2283
 2024TIP3   OH227630   3.331   2.515   2.807 -0.5969  0.0701  0.3523
 2024TIP3    H127631   3.307   2.451   2.740  0.2432  0.1715 -0.0682
 2024TIP3    H227632   3.303   2.476   2.889 -1.6787 -0.0459 -0.0542
 2025TIP3   OH227633   3.021   0.599   8.105  0.1173  0.2876  0.5911
 2025TIP3    H127634   3.081   0.602   8.180 -0.1540  0.7221  0.7884
 2025TIP3    H227635   3.075   0.565   8.034  0.6758  0.9109  0.7028
 2026TIP3   OH227636   0.816   6.366   1.511 -0.3931  0.9280  0.6599
 2026TIP3    H127637   0.874   6.305   1.557 -0.1578 -0.0698 -0.8922
 2026TIP3    H227638   0.809   6.441   1.570  3.5405  1.7075  0.4164
 2027TIP3   OH227639   5.696   0.645   7.721  0.5667 -0.0083 -0.4084
 2027TIP3    H127640   5.742   0.668   7.802  0.6903 -1.8074  0.0657
 2027TIP3    H227641   5.765   0.633   7.656  0.6270 -0.7757 -0.2025
 2028TIP3   OH227642   4.016   2.006   7.985  0.5848  0.3535 -0.0799
 2028TIP3    H127643   4.017   2.087   7.933 -0.3213 -0.5182 -1.5239
 2028TIP3    H227644   3.966   1.944   7.932  1.5410 -1.2756  0.8450
 2029TIP3   OH227645   0.032   0.105   7.930  0.2600 -0.2175 -0.0211
 2029TIP3    H127646   0.091   0.143   7.865 -0.0248 -0.3380 -0.3511
 2029TIP3    H227647   0.004   0.179   7.984  0.2259 -0.0645 -0.2500
 2030TIP3   OH227648   5.656   4.378   1.825  0.0078  0.4295  0.2071
 2030TIP3    H127649   5.663   4.441   1.896  0.6822  0.8068 -0.1921
 2030TIP3    H227650   5.707   4.302   1.855  1.3133  1.0543 -0.3698
 2031TIP3   OH227651   2.642   0.530   2.069 -0.1779 -0.3981 -0.1799
 2031TIP3    H127652   2.594   0.592   2.124 -1.7491 -1.0105 -0.8076
 2031TIP3    H227653   2.718   0.505   2.122 -0.5563  0.5661  0.8622
 2032TIP3   OH227654   4.778   2.088   2.559  0.4269 -0.6411  0.3482
 2032TIP3    H127655   4.872   2.091   2.575  0.3398  0.2777  0.7392
 2032TIP3    H227656   4.738   2.119   2.641 -0.2993 -2.7284  0.8539
 2033TIP3   OH227657   6.117   3.726   8.017  0.3050 -0.1239 -0.2337
 2033TIP3    H127658   6.208   3.722   8.047  0.2070  0.9262  0.2318
 2033TIP3    H227659   6.113   3.805   7.963 -0.6083  0.5290  0.7513
 2034TIP3   OH227660   2.939   4.048   8.085  0.1301  0.2919  0.0241
 2034TIP3    H127661   2.956   4.080   7.997  2.1350 -1.0353 -0.1496
 2034TIP3    H227662   2.907   3.958   8.072 -1.3802  0.7109  0.6222
 2035TIP3   OH227663   5.264   1.092   8.414 -0.5901  0.1263  0.0938
 2035TIP3    H127664   5.303   1.023   8.361  1.2184  1.5293 -0.5205
 2035TIP3    H227665   5.189   1.051   8.456 -0.4111 -1.7989 -1.3433
 2036TIP3   OH227666   4.647   1.760   7.953  0.2751  0.0374 -0.3199
 2036TIP3    H127667   4.570   1.812   7.933  0.4304  1.0443  1.5415
 2036TIP3    H227668   4.617   1.695   8.017  1.1861  1.2300  1.3785
 2037TIP3   OH227669   5.892   0.682   7.231  0.1348 -0.7958 -0.0984
 2037TIP3    H127670   5.969   0.651   7.278  0.1581 -0.1831  0.2834
 2037TIP3    H227671   5.883   0.774   7.257  0.0539 -0.4864 -1.1675
 2038TIP3   OH227672   0.660   4.796   7.454 -0.0990 -0.3453 -0.0313
 2038TIP3    H127673   0.567   4.818   7.451 -0.2144 -0.7226  0.7223
 2038TIP3    H227674   0.698   4.843   7.380 -1.0219 -0.8269 -0.8338
 2039TIP3   OH227675   6.120   1.599   0.334  0.3228  0.4218  0.0825
 2039TIP3    H127676   6.133   1.598   0.428  1.0395  1.3099  0.0078
 2039TIP3    H227677   6.042   1.653   0.321  0.8826  1.2514  0.1096
 2040TIP3   OH227678   6.606   6.539   8.163 -0.5270  0.5468  0.4216
 2040TIP3    H127679   6.671   6.506   8.225 -0.7934 -1.2088 -0.1850
 2040TIP3    H227680   6.651   6.610   8.117  0.9245 -0.5110  0.1405
 2041TIP3   OH227681   0.443   5.185   2.619 -0.2800 -0.4139  0.1128
 2041TIP3    H127682   0.387   5.130   2.673 -1.3812  0.0693 -0.4976
 2041TIP3    H227683   0.532   5.161   2.643 -0.7502 -1.0412  1.2734
 2042TIP3   OH227684   3.983   1.240   1.067  0.3399 -0.1458 -0.4862
 2042TIP3    H127685   4.043   1.169   1.087  1.2388  0.2820 -1.5650
 2042TIP3    H227686   3.986   1.249   0.971 -1.3122  0.0128 -0.5652
 2043TIP3   OH227687   5.158   0.125   0.591  0.0461  0.4171 -0.2147
 2043TIP3    H127688   5.137   0.214   0.562 -2.5773 -0.4469 -1.2001
 2043TIP3    H227689   5.159   0.073   0.511  0.2430 -0.6798  0.4829
 2044TIP3   OH227690   4.630   3.470   2.457 -0.6600  0.1975 -0.1016
 2044TIP3    H127691   4.572   3.518   2.398 -0.4048  0.1131 -0.4240
 2044TIP3    H227692   4.590   3.384   2.465 -0.5458  0.1149 -0.3839
 2045TIP3   OH227693   3.255   2.380   1.325  0.6566  0.0157 -0.1583
 2045TIP3    H127694   3.283   2.319   1.257  0.5021 -2.0152  1.5004
 2045TIP3    H227695   3.165   2.353   1.345 -0.5429  2.7401 -1.4033
 2046TIP3   OH227696   1.307   2.139   8.804  0.1273  0.2324 -0.9315
 2046TIP3    H127697   1.309   2.190   8.885 -3.0569 -2.1864  0.8867
 2046TIP3    H227698   1.381   2.079   8.812  0.8124  1.0805 -0.6611
 2047TIP3   OH227699   1.496   4.720   2.224  1.2160  0.1121  0.1039
 2047TIP3    H127700   1.537   4.664   2.158 -0.4917  1.7627 -2.5461
 2047TIP3    H227701   1.468   4.798   2.176 -0.7540  1.1313  2.6535
 2048TIP3   OH227702   4.492   6.748   1.594  0.1643  0.2296  0.4932
 2048TIP3    H127703   4.491   6.707   1.681 -1.3479 -1.4924 -0.2672
 2048TIP3    H227704   4.565   6.708   1.549 -0.1444 -0.2179  0.3870
 2049TIP3   OH227705   5.422   0.962   0.580 -0.0156  0.2903  0.2595
 2049TIP3    H127706   5.338   1.000   0.552  0.4313  0.7270 -0.5554
 2049TIP3    H227707   5.405   0.869   0.589 -0.5026  0.3233 -0.2710
 2050TIP3   OH227708   5.742   5.734   1.310  0.5729  0.2655  0.6211
 2050TIP3    H127709   5.694   5.752   1.391  0.1621  1.1974  0.1812
 2050TIP3    H227710   5.829   5.706   1.340  0.9136  2.0212  1.3821
 2051TIP3   OH227711   1.736   2.209   2.169  0.0614  0.2019  0.2665
 2051TIP3    H127712   1.647   2.208   2.134  0.8798 -1.3809 -1.9399
 2051TIP3    H227713   1.739   2.135   2.230 -0.4146  0.9659  1.2570
 2052TIP3   OH227714   4.798   0.321   2.148  0.3428  0.1521  0.1978
 2052TIP3    H127715   4.825   0.352   2.235  0.3269 -0.4186  0.4154
 2052TIP3    H227716   4.813   0.395   2.090 -0.8638  0.9773  0.8983
 2053TIP3   OH227717   2.656   0.226   6.900  0.2769  0.2810 -0.4831
 2053TIP3    H127718   2.617   0.288   6.838  0.8471  1.3847  0.2442
 2053TIP3    H227719   2.593   0.154   6.904 -0.6457  1.0403 -0.9497
 2054TIP3   OH227720   5.260   5.246   8.456 -0.0255  0.5271 -0.3487
 2054TIP3    H127721   5.328   5.220   8.394 -1.1258 -0.3493 -1.2313
 2054TIP3    H227722   5.179   5.246   8.405 -0.8627  0.4849  0.9232
 2055TIP3   OH227723   1.932   0.291   2.652  0.2476 -0.2651 -0.3930
 2055TIP3    H127724   1.875   0.237   2.596  0.1955 -1.1497  0.4798
 2055TIP3    H227725   1.961   0.231   2.721  0.6923  0.6796  0.2592
 2056TIP3   OH227726   1.533   3.571   0.863 -0.1664 -0.7408  0.0452
 2056TIP3    H127727   1.461   3.519   0.827 -0.9213 -0.2112  0.7496
 2056TIP3    H227728   1.609   3.514   0.856 -0.7970 -1.5953 -0.0462
 2057TIP3   OH227729   6.055   3.453   1.822 -0.1972 -0.1487  0.0250
 2057TIP3    H127730   6.000   3.483   1.894  0.4894 -0.3844  0.6600
 2057TIP3    H227731   6.081   3.533   1.777 -0.7317 -0.0102 -0.0417
 2058TIP3   OH227732   4.143   2.746   0.807  0.6824  0.1125  0.3478
 2058TIP3    H127733   4.142   2.830   0.853 -0.3839  1.0135 -1.2244
 2058TIP3    H227734   4.084   2.690   0.858  0.3951  0.7205  0.6896
 2059TIP3   OH227735   5.110   3.891   7.526  0.4765  0.3031  0.2213
 2059TIP3    H127736   5.026   3.865   7.489  0.0983  3.4763 -1.4644
 2059TIP3    H227737   5.171   3.824   7.495 -0.6564  0.4058 -2.5470
 2060TIP3   OH227738   4.203   5.348   0.314  0.2720  0.3852 -0.3240
 2060TIP3    H127739   4.268   5.327   0.246 -0.2777  1.4402 -1.2110
 2060TIP3    H227740   4.155   5.266   0.327  0.9877 -0.0763 -0.5399
 2061TIP3   OH227741   5.598   2.022   1.180  0.0593 -0.1774  0.0410
 2061TIP3    H127742   5.673   1.967   1.205 -1.2337 -1.5244  1.1598
 2061TIP3    H227743   5.619   2.053   1.092  0.8780 -2.4933 -0.6527
 2062TIP3   OH227744   3.925   2.564   8.513  0.3516  0.0755 -0.1952
 2062TIP3    H127745   3.839   2.524   8.523  0.3821  0.3683  1.7926
 2062TIP3    H227746   3.984   2.492   8.491  0.2650 -0.9353  2.5052
 2063TIP3   OH227747   3.668   2.916   3.174  0.3324 -0.0593  0.1562
 2063TIP3    H127748   3.742   2.977   3.176 -0.1249  0.5184 -0.0285
 2063TIP3    H227749   3.599   2.962   3.222 -0.5682  0.3005 -1.4351
 2064TIP3   OH227750   3.148   3.602   8.333  0.2264 -0.1128 -0.4591
 2064TIP3    H127751   3.190   3.683   8.304  0.3213 -0.2282 -0.6459
 2064TIP3    H227752   3.118   3.560   8.253  1.9138 -1.2215 -0.5808
 2065TIP3   OH227753   5.608   4.735   8.724  0.1277  0.1670 -0.0096
 2065TIP3    H127754   5.681   4.778   8.680 -0.3161  0.1239 -0.7958
 2065TIP3    H227755   5.646   4.655   8.761  0.4452  0.0616 -0.5542
 2066TIP3   OH227756   1.292   4.697   8.283  0.1436  0.1935 -0.2825
 2066TIP3    H127757   1.219   4.733   8.332 -0.7369 -1.3152 -0.4430
 2066TIP3    H227758   1.260   4.689   8.193  0.6732 -0.0170 -0.4606
 2067TIP3   OH227759   5.662   5.629   0.471 -0.3372  0.9915  0.7178
 2067TIP3    H127760   5.725   5.567   0.507 -2.0094 -0.3272  1.5292
 2067TIP3    H227761   5.626   5.584   0.394  2.1715  3.1936 -1.9682
 2068TIP3   OH227762   2.616   4.743   8.533 -0.1516  0.7210  0.2041
 2068TIP3    H127763   2.589   4.831   8.504 -0.2720 -0.1323 -2.4875
 2068TIP3    H227764   2.647   4.700   8.454 -0.9671 -2.0115  1.2673
 2069TIP3   OH227765   1.207   1.469   2.405 -0.4023 -0.1959 -0.4589
 2069TIP3    H127766   1.138   1.484   2.341  0.6196 -0.4397 -1.6476
 2069TIP3    H227767   1.205   1.547   2.461 -1.9959 -0.4619 -0.1046
 2070TIP3   OH227768   2.232   6.521   8.060 -0.2748 -0.4034  0.1320
 2070TIP3    H127769   2.139   6.521   8.081 -0.2173 -2.0496  0.5634
 2070TIP3    H227770   2.240   6.461   7.986  0.3977  0.0632 -0.1849
 2071TIP3   OH227771   6.381   0.826   8.321  0.7052  0.2238 -0.1653
 2071TIP3    H127772   6.444   0.817   8.250 -0.0662 -0.8736 -0.7431
 2071TIP3    H227773   6.434   0.843   8.399  1.8217 -1.7793 -0.4315
 2072TIP3   OH227774   4.019   5.832   7.491  0.1417  0.7727  0.0231
 2072TIP3    H127775   4.097   5.827   7.436  0.2976  1.2843  0.1903
 2072TIP3    H227776   3.953   5.781   7.444  1.1444 -1.4339  0.8825
 2073TIP3   OH227777   0.214   5.532   0.970  0.8879  0.0390 -0.1449
 2073TIP3    H127778   0.233   5.449   1.012  1.5216  0.0271 -0.4334
 2073TIP3    H227779   0.288   5.588   0.993  1.2271  0.0441 -1.1914
 2074TIP3   OH227780   5.621   5.187   6.513 -0.1496 -0.0080 -0.3264
 2074TIP3    H127781   5.685   5.247   6.551 -1.9820  2.2893 -0.6947
 2074TIP3    H227782   5.568   5.157   6.587  0.9140 -1.4912 -0.1034
 2075TIP3   OH227783   0.736   2.435   0.237  0.0704  0.3390 -0.3669
 2075TIP3    H127784   0.728   2.519   0.283 -0.4141  0.6483 -1.0089
 2075TIP3    H227785   0.778   2.377   0.301 -1.8975  0.3359  1.0448
 2076TIP3   OH227786   4.870   1.394   7.425 -0.1724  0.0632  0.0146
 2076TIP3    H127787   4.850   1.444   7.346 -1.3638 -0.6204 -0.1327
 2076TIP3    H227788   4.946   1.341   7.401 -0.7376 -0.4001 -0.8073
 2077TIP3   OH227789   1.587   1.536   7.311 -0.4836  0.0781 -0.7315
 2077TIP3    H127790   1.550   1.569   7.392  1.1597 -0.0477  0.1061
 2077TIP3    H227791   1.669   1.583   7.300  0.9796 -2.2301 -0.5126
 2078TIP3   OH227792   3.851   5.193   2.555 -0.1346 -0.7626 -0.1355
 2078TIP3    H127793   3.811   5.245   2.625 -0.3718 -1.0259 -0.0705
 2078TIP3    H227794   3.834   5.102   2.580  0.5105 -0.8815 -0.1123
 2079TIP3   OH227795   2.344   3.569   0.995 -1.0694 -0.0515  0.7782
 2079TIP3    H127796   2.409   3.624   0.952 -0.7474 -0.2618  0.9880
 2079TIP3    H227797   2.260   3.612   0.979 -0.8390  0.3929  0.7809
 2080TIP3   OH227798   3.455   6.208   1.361  0.6943 -0.0579  0.0894
 2080TIP3    H127799   3.415   6.295   1.358  2.0982  0.9420  3.9369
 2080TIP3    H227800   3.526   6.211   1.297  0.3209  1.3988 -0.2933
 2081TIP3   OH227801   2.565   2.463   1.776  0.6206 -0.4103 -0.2550
 2081TIP3    H127802   2.521   2.427   1.854 -0.4732  2.4179  0.5721
 2081TIP3    H227803   2.656   2.434   1.784  0.3260 -0.9657  1.5705
 2082TIP3   OH227804   0.311   6.465   0.796  0.8237  0.6525  0.0155
 2082TIP3    H127805   0.218   6.485   0.806  0.3454 -1.4605  0.4050
 2082TIP3    H227806   0.356   6.549   0.804 -1.0422  1.6962 -0.1068
 2083TIP3   OH227807   3.474   2.766   7.543  0.2608 -0.7462  0.0440
 2083TIP3    H127808   3.545   2.816   7.585 -1.0478 -0.5307  2.1357
 2083TIP3    H227809   3.507   2.676   7.540  1.0479 -0.4677 -0.0052
 2084TIP3   OH227810   5.085   5.359   0.250 -0.6837  0.6704  0.4170
 2084TIP3    H127811   5.019   5.382   0.315 -0.7436  2.6487 -0.2785
 2084TIP3    H227812   5.058   5.406   0.171 -0.1088 -0.9342 -0.7885
 2085TIP3   OH227813   6.565   0.445   8.745  0.0217 -0.0294 -0.2221
 2085TIP3    H127814   6.535   0.380   8.809 -2.1487 -0.4006 -1.5031
 2085TIP3    H227815   6.562   0.398   8.661  0.2598  1.1936 -0.9360
 2086TIP3   OH227816   5.913   2.865   8.769 -0.0223  0.0682 -0.3989
 2086TIP3    H127817   5.965   2.944   8.783 -1.9578  1.2742  0.3402
 2086TIP3    H227818   5.977   2.794   8.769  2.0243  1.7303 -2.8257
 2087TIP3   OH227819   3.034   6.758   0.658  0.0509 -0.1290 -0.0138
 2087TIP3    H127820   3.057   6.671   0.691 -0.8713  0.2559  1.7716
 2087TIP3    H227821   3.044   6.816   0.734  0.3892  1.2837 -1.0994
 2088TIP3   OH227822   5.263   2.456   2.692 -0.6068  0.1422 -0.0958
 2088TIP3    H127823   5.252   2.379   2.749  0.9703 -0.3892 -0.4728
 2088TIP3    H227824   5.235   2.425   2.605  1.7253 -0.6017 -0.6332
 2089TIP3   OH227825   2.342   1.377   2.293  0.2467 -0.3798 -0.1412
 2089TIP3    H127826   2.312   1.334   2.373 -1.0378 -1.9226 -1.3702
 2089TIP3    H227827   2.289   1.337   2.224  0.9743  1.2462 -1.7115
 2090TIP3   OH227828   0.006   3.397   2.397 -0.4328  0.0411  0.1190
 2090TIP3    H127829   0.093   3.403   2.357 -0.0663 -0.4897  0.7973
 2090TIP3    H227830  -0.021   3.306   2.381  0.1962 -0.5335  1.9409
 2091TIP3   OH227831   3.530   1.733   2.835  0.0559 -0.2887 -0.3281
 2091TIP3    H127832   3.474   1.787   2.892  2.7942  1.1008  1.2563
 2091TIP3    H227833   3.554   1.792   2.763  1.8550  0.1858  0.6158
 2092TIP3   OH227834   3.287   3.317   2.489 -0.2779 -0.3398  0.5187
 2092TIP3    H127835   3.347   3.257   2.534 -0.2338  0.1032  1.0551
 2092TIP3    H227836   3.290   3.290   2.397 -0.9704 -1.7782  0.8825
 2093TIP3   OH227837   1.356   6.777   7.626 -0.0718 -0.1673 -0.5264
 2093TIP3    H127838   1.437   6.823   7.601 -0.3699  1.2711  0.9360
 2093TIP3    H227839   1.287   6.823   7.579 -0.6312  2.5390  2.6116
 2094TIP3   OH227840   6.394   3.581   0.384  0.5057  0.1746 -0.4726
 2094TIP3    H127841   6.398   3.610   0.293  1.5258  1.1633 -0.1267
 2094TIP3    H227842   6.480   3.544   0.402  0.6659  0.9591  0.4078
 2095TIP3   OH227843   4.997   3.666   1.597  0.4807 -0.1131 -0.0156
 2095TIP3    H127844   5.035   3.712   1.672  0.1224  0.4137 -0.1469
 2095TIP3    H227845   5.048   3.695   1.522  0.3431 -0.0333 -0.0799
 2096TIP3   OH227846   2.642   6.094   2.284 -0.9185 -0.2948  0.8029
 2096TIP3    H127847   2.638   6.100   2.379 -0.0075  1.9791  0.7796
 2096TIP3    H227848   2.735   6.080   2.264 -1.2309 -1.7743  0.2360
 2097TIP3   OH227849   4.508   5.913   7.165 -0.2465 -0.5775  0.2079
 2097TIP3    H127850   4.510   5.933   7.071 -2.4604  0.6128  0.3564
 2097TIP3    H227851   4.521   5.818   7.169  1.8507 -0.4294 -1.1231
 2098TIP3   OH227852   0.014   5.407   1.592  0.5041 -0.0324 -0.1421
 2098TIP3    H127853   0.010   5.359   1.509  0.8674 -0.7101  0.2189
 2098TIP3    H227854   0.062   5.349   1.651  2.4594  1.4888 -0.1492
 2099TIP3   OH227855   5.480   0.475   1.139  0.1335 -0.0471  0.3917
 2099TIP3    H127856   5.567   0.450   1.169  0.0940 -1.2269 -0.4148
 2099TIP3    H227857   5.486   0.476   1.044 -0.6406  0.2270  0.3364
 2100TIP3   OH227858   1.217   4.272   0.521 -0.6115  0.3076 -0.5678
 2100TIP3    H127859   1.247   4.203   0.461 -0.6445 -0.1814 -0.0323
 2100TIP3    H227860   1.279   4.343   0.509 -0.5828  0.1878 -1.1382
 2101TIP3   OH227861   1.181   2.621   0.087  0.6212  0.0474  0.1022
 2101TIP3    H127862   1.110   2.558   0.075  1.0064 -0.0636 -1.9802
 2101TIP3    H227863   1.139   2.707   0.082  0.1163  0.0552  2.8078
 2102TIP3   OH227864   4.335   5.463   7.501  0.4454  0.0579 -0.7675
 2102TIP3    H127865   4.392   5.409   7.446 -0.6139 -2.6424  0.5923
 2102TIP3    H227866   4.250   5.461   7.457  0.4324  0.7548 -0.7787
 2103TIP3   OH227867   1.937   1.715   0.342  0.1742 -0.3277 -0.3421
 2103TIP3    H127868   1.970   1.643   0.396 -0.7142 -3.3640 -3.4817
 2103TIP3    H227869   1.842   1.705   0.344  0.1097 -0.3937 -2.1964
 2104TIP3   OH227870   2.759   0.445   0.825 -0.2983  0.0254  0.4198
 2104TIP3    H127871   2.733   0.462   0.915  0.2394 -1.0470  0.7866
 2104TIP3    H227872   2.849   0.477   0.820 -0.2509 -0.1229  0.3257
 2105TIP3   OH227873   1.173   5.952   8.123  0.0342  0.3071  0.0283
 2105TIP3    H127874   1.094   5.958   8.177  0.1668  1.3651  0.1145
 2105TIP3    H227875   1.181   5.858   8.103  0.0173 -0.1311  1.9029
 2106TIP3   OH227876   0.576   4.337   0.957 -0.4484  0.2326 -0.7412
 2106TIP3    H127877   0.665   4.305   0.942 -0.9949 -2.0917  0.5516
 2106TIP3    H227878   0.533   4.331   0.872  0.3327  0.4034 -1.1569
 2107TIP3   OH227879   5.518   2.415   8.646  0.0949 -0.0385 -0.4810
 2107TIP3    H127880   5.611   2.407   8.625  0.0491  0.4504 -0.8940
 2107TIP3    H227881   5.508   2.370   8.729  0.6622 -0.2869 -0.5432
 2108TIP3   OH227882   5.307   2.814   0.232 -0.0777  0.2609 -0.5840
 2108TIP3    H127883   5.332   2.721   0.234  0.0163  0.2902  1.2349
 2108TIP3    H227884   5.238   2.818   0.166 -0.9838 -1.3673  0.1813
 2109TIP3   OH227885   4.855   5.564   2.598 -0.0505  0.3812 -0.3927
 2109TIP3    H127886   4.940   5.602   2.576 -0.6857  1.5817 -0.8941
 2109TIP3    H227887   4.837   5.503   2.527 -0.6389  1.8821 -1.6128
 2110TIP3   OH227888   6.621   0.422   1.566 -0.1357  0.0125  0.3977
 2110TIP3    H127889   6.643   0.470   1.646  0.1581 -0.8623  0.8573
 2110TIP3    H227890   6.703   0.420   1.516 -0.5070  1.2200 -0.3001
 2111TIP3   OH227891   5.669   5.211   1.102  0.3700  0.0710 -0.1873
 2111TIP3    H127892   5.595   5.262   1.137  0.4354  0.3519 -0.4488
 2111TIP3    H227893   5.732   5.208   1.173 -0.4883 -1.4282  0.5709
 2112TIP3   OH227894   4.345   0.589   1.092 -0.3263 -0.0568 -0.3203
 2112TIP3    H127895   4.262   0.577   1.137 -0.6064  0.5762 -0.6540
 2112TIP3    H227896   4.410   0.551   1.151 -0.8714 -0.7741 -0.1649
 2113TIP3   OH227897   2.388   4.632   2.508 -0.1352  0.2714 -0.2041
 2113TIP3    H127898   2.453   4.668   2.448 -2.5618  0.6368 -2.8380
 2113TIP3    H227899   2.389   4.690   2.584  2.6720  0.1141 -0.0186
 2114TIP3   OH227900   3.717   0.404   1.600  0.3133 -0.1976 -0.0978
 2114TIP3    H127901   3.673   0.362   1.526  0.6039 -1.1160  0.2356
 2114TIP3    H227902   3.649   0.456   1.642  0.2050  0.5268 -1.1470
 2115TIP3   OH227903   1.054   6.241   8.152  0.1672  0.5914 -0.2911
 2115TIP3    H127904   0.984   6.196   8.105  1.5551 -0.4662 -1.4398
 2115TIP3    H227905   1.045   6.333   8.126 -0.3881  0.3631 -0.9510
 2116TIP3   OH227906   1.622   2.398   1.854 -0.3422 -0.3218 -0.0285
 2116TIP3    H127907   1.602   2.310   1.821 -0.1566 -0.7569  0.9828
 2116TIP3    H227908   1.632   2.386   1.949 -1.9831  1.0687  0.3701
 2117TIP3   OH227909   5.664   1.431   8.646 -0.1977  0.1003  0.5288
 2117TIP3    H127910   5.594   1.483   8.686 -0.3420 -0.0735  0.5001
 2117TIP3    H227911   5.726   1.497   8.613 -0.3486  0.2534  0.5490
 2118TIP3   OH227912   4.623   6.343   8.761 -0.2576  0.4024  0.0122
 2118TIP3    H127913   4.560   6.400   8.717 -0.1527  0.5011 -0.0106
 2118TIP3    H227914   4.671   6.301   8.689 -2.2843 -1.9608 -0.0872
 2119TIP3   OH227915   2.510   1.964   0.332  0.2958 -0.1155  0.8273
 2119TIP3    H127916   2.528   2.058   0.344 -0.5489 -0.0939  2.1674
 2119TIP3    H227917   2.588   1.920   0.365 -0.1630  0.0850  2.2470
 2120TIP3   OH227918   4.725   4.686   1.179  0.0270 -0.2012  0.1389
 2120TIP3    H127919   4.675   4.752   1.130 -0.2046 -0.5547 -0.1082
 2120TIP3    H227920   4.806   4.730   1.202  0.0147  0.0679 -0.3175
 2121TIP3   OH227921   2.687   5.948   8.708  0.5699 -0.3855 -0.1478
 2121TIP3    H127922   2.674   5.901   8.790  1.9631  1.3518  1.1402
 2121TIP3    H227923   2.768   5.912   8.672 -0.8931 -2.3294 -1.7048
 2122TIP3   OH227924   0.984   2.092   1.432  0.1002  0.4331 -0.0659
 2122TIP3    H127925   1.020   2.030   1.495 -1.2858 -1.4440 -1.0214
 2122TIP3    H227926   0.947   2.163   1.486  0.2776 -0.3685  1.1410
 2123TIP3   OH227927   0.582   6.713   8.795 -0.3567 -0.6596  0.6523
 2123TIP3    H127928   0.556   6.802   8.771 -1.0779 -0.5837  1.6603
 2123TIP3    H227929   0.524   6.657   8.742  0.3674 -0.5498 -0.2777
 2124TIP3   OH227930   1.650   6.383   1.350  0.2193 -0.3329 -0.1009
 2124TIP3    H127931   1.694   6.365   1.267 -0.4545  0.2387 -0.5996
 2124TIP3    H227932   1.565   6.341   1.342 -0.3108  0.7126 -0.1941
 2125TIP3   OH227933   2.804   5.412   7.692 -0.6305  0.0621 -0.5156
 2125TIP3    H127934   2.825   5.487   7.637  0.6493  0.0015 -0.1446
 2125TIP3    H227935   2.735   5.366   7.644  1.1983 -0.6276 -2.6791
 2126TIP3   OH227936   5.055   2.864   8.148 -0.2305  0.0960  0.1786
 2126TIP3    H127937   5.085   2.890   8.235  1.3652 -0.4740 -0.1728
 2126TIP3    H227938   5.043   2.946   8.101  2.3551  0.3548 -0.1464
 2127TIP3   OH227939   4.208   1.653   8.625  0.4304 -0.3960 -0.3147
 2127TIP3    H127940   4.185   1.589   8.557  0.8964 -0.7745 -0.1229
 2127TIP3    H227941   4.220   1.601   8.704 -1.1820  0.1552  0.3379
 2128TIP3   OH227942   2.667   1.339   8.291 -0.1176  0.2996 -0.3754
 2128TIP3    H127943   2.701   1.428   8.278 -0.7136  0.4471 -1.0122
 2128TIP3    H227944   2.739   1.282   8.262  0.6274  0.5331  0.9169
 2129TIP3   OH227945   2.824   5.815   7.851  0.6959  0.1277 -0.2630
 2129TIP3    H127946   2.776   5.733   7.839  2.5754 -1.6143  2.6921
 2129TIP3    H227947   2.877   5.824   7.772  1.9694 -2.7217  0.1318
 2130TIP3   OH227948   1.263   6.121   7.286 -0.2517  0.0022 -0.5134
 2130TIP3    H127949   1.314   6.201   7.299  0.6856 -0.3913 -1.5515
 2130TIP3    H227950   1.210   6.139   7.209  0.3553 -0.5380 -1.0729
 2131TIP3   OH227951   0.679   4.742   1.650 -0.7001  0.3840 -0.6414
 2131TIP3    H127952   0.606   4.732   1.589 -0.3465  1.5888 -1.3029
 2131TIP3    H227953   0.755   4.757   1.594 -0.3717  1.5703  0.0655
 2132TIP3   OH227954   5.093   6.700   2.045 -0.2615 -0.1211 -0.3699
 2132TIP3    H127955   5.050   6.753   1.977  0.6492  0.1648 -0.7372
 2132TIP3    H227956   5.034   6.627   2.060 -1.5794  1.0111  0.1771
 2133TIP3   OH227957   0.692   1.733   7.912  0.5503  0.0222 -0.6446
 2133TIP3    H127958   0.687   1.822   7.947  2.2808  0.7983 -2.2231
 2133TIP3    H227959   0.612   1.724   7.861  0.5073  0.8004 -0.7331
 2134TIP3   OH227960   1.678   1.994   2.331  0.9173  0.0210  1.1595
 2134TIP3    H127961   1.592   2.027   2.356  0.1095 -0.9805 -0.1512
 2134TIP3    H227962   1.686   1.911   2.379  0.6264 -0.4501  0.4230
 2135TIP3   OH227963   3.001   2.294   1.273  0.0547  0.2585 -0.7123
 2135TIP3    H127964   2.946   2.233   1.323  1.2318  0.8861  1.5038
 2135TIP3    H227965   2.941   2.335   1.211 -1.3475 -1.1486 -0.3580
 2136TIP3   OH227966   3.643   6.036   6.843 -0.0686 -0.0847 -0.5470
 2136TIP3    H127967   3.626   6.022   6.936  0.9275  2.5126  0.1181
 2136TIP3    H227968   3.681   5.954   6.813 -3.4996 -2.2470  0.4142
 2137TIP3   OH227969   4.190   2.570   2.449 -0.4509  0.0403  0.3664
 2137TIP3    H127970   4.239   2.635   2.500 -2.6454  0.8853  1.5323
 2137TIP3    H227971   4.117   2.545   2.505 -1.6083 -0.8482 -1.4192
 2138TIP3   OH227972   0.733   6.698   8.466  0.5509 -0.1663 -0.3780
 2138TIP3    H127973   0.724   6.777   8.520  2.9145 -1.3259  1.9478
 2138TIP3    H227974   0.809   6.715   8.411  1.3237 -0.9084  0.4241
 2139TIP3   OH227975   5.773   3.945   7.781 -0.1484 -0.3355 -0.3316
 2139TIP3    H127976   5.801   3.905   7.699  1.1241 -0.1770  0.0054
 2139TIP3    H227977   5.814   4.032   7.780  1.5426 -1.0519  1.3443
 2140TIP3   OH227978   3.926   4.766   2.479 -0.1414 -0.3041  0.0790
 2140TIP3    H127979   3.915   4.671   2.485  1.1529 -0.3925  2.4799
 2140TIP3    H227980   4.005   4.778   2.426 -0.1915 -0.5684 -0.0554
 2141TIP3   OH227981   2.166   4.358   8.215 -0.6948  0.2002  0.9950
 2141TIP3    H127982   2.107   4.429   8.241 -2.4071 -0.6096 -0.4622
 2141TIP3    H227983   2.220   4.396   8.146 -1.5843  0.1439  0.2409
 2142TIP3   OH227984   5.919   4.694   0.763 -0.0403 -0.3635  0.2903
 2142TIP3    H127985   5.982   4.723   0.698  0.4143 -1.5940  0.1452
 2142TIP3    H227986   5.903   4.770   0.818  1.4079  0.0216  0.1944
 2143TIP3   OH227987   5.410   1.852   0.481 -0.0642  0.5639 -0.0632
 2143TIP3    H127988   5.397   1.947   0.486 -0.0718  0.4943  2.1759
 2143TIP3    H227989   5.420   1.824   0.572  1.8719 -1.3316 -0.7667
 2144TIP3   OH227990   2.833   4.582   7.846  0.4945  0.5193 -0.3378
 2144TIP3    H127991   2.795   4.520   7.784  2.9612 -3.9821  2.1553
 2144TIP3    H227992   2.765   4.594   7.912  0.8340 -1.8874  0.5417
 2145TIP3   OH227993   2.217   0.735   7.392  0.3829  0.0091 -0.1816
 2145TIP3    H127994   2.193   0.815   7.437  0.3246 -0.7697  1.2179
 2145TIP3    H227995   2.310   0.721   7.414  1.3377  1.3024 -2.9539
 2146TIP3   OH227996   3.201   1.449   0.832  0.0472  0.6225 -0.3244
 2146TIP3    H127997   3.215   1.383   0.899  1.7480  1.7834  0.5587
 2146TIP3    H227998   3.228   1.407   0.751 -1.1211 -0.4900 -0.1613
 2147TIP3   OH227999   1.101   3.701   0.798  0.5905 -0.1078  0.3160
 2147TIP3    H128000   1.141   3.670   0.717 -0.0977 -1.9618  0.6476
 2147TIP3    H228001   1.146   3.784   0.816  1.6387 -0.2848 -1.2742
 2148TIP3   OH228002   2.579   6.481   1.006 -0.2896 -0.5336 -0.0053
 2148TIP3    H128003   2.611   6.551   0.949  0.7778 -1.2263 -0.2848
 2148TIP3    H228004   2.488   6.505   1.024 -0.0909  0.6688 -0.4784
 2149TIP3   OH228005   0.592   3.772   1.646 -0.1546 -0.0860  0.1378
 2149TIP3    H128006   0.638   3.853   1.621 -0.2336  0.1392  0.7019
 2149TIP3    H228007   0.501   3.788   1.622  0.0895 -0.6304 -1.2147
 2150TIP3   OH228008   2.883   4.384   2.236 -0.8641  0.2634 -0.1337
 2150TIP3    H128009   2.842   4.355   2.318 -1.4757  0.3838 -0.3928
 2150TIP3    H228010   2.963   4.429   2.264 -0.5062 -0.6459  0.3341
 2151TIP3   OH228011   4.718   4.121   7.831 -0.6337  0.2790  0.8737
 2151TIP3    H128012   4.627   4.108   7.858 -0.2495 -0.8021  1.7325
 2151TIP3    H228013   4.755   4.033   7.830  0.2720  0.6566  0.0138
 2152TIP3   OH228014   2.839   2.698   1.434 -0.0112 -0.1986  0.3383
 2152TIP3    H128015   2.826   2.785   1.472  1.3658 -0.1633  0.7810
 2152TIP3    H228016   2.755   2.654   1.447 -0.5477  0.8580  0.6300
 2153TIP3   OH228017   6.268   5.833   1.295 -0.4483  0.1082  0.2678
 2153TIP3    H128018   6.311   5.890   1.359 -1.1557  1.4249 -0.3969
 2153TIP3    H228019   6.334   5.818   1.228 -0.1157 -0.2369  0.6665
 2154TIP3   OH228020   2.685   5.199   1.714  0.3976  0.1603  0.1863
 2154TIP3    H128021   2.677   5.279   1.767 -0.3686 -0.0645  0.4172
 2154TIP3    H228022   2.595   5.168   1.704  0.7094 -0.8202  0.3192
 2155TIP3   OH228023   0.753   1.230   0.370 -0.2888  0.2275  0.5290
 2155TIP3    H128024   0.766   1.190   0.284 -3.4072 -1.4533  0.7003
 2155TIP3    H228025   0.771   1.159   0.432  0.0700  0.8737  1.1755
 2156TIP3   OH228026   2.439   0.733   7.703  0.0540 -0.1228 -0.2015
 2156TIP3    H128027   2.512   0.677   7.677 -2.0269 -2.6430 -1.0709
 2156TIP3    H228028   2.455   0.816   7.658  2.3560 -0.5431 -0.3010
 2157TIP3   OH228029   3.362   6.717   0.909 -0.3106  0.0948  0.5032
 2157TIP3    H128030   3.369   6.641   0.852  1.0298  1.8302 -1.7882
 2157TIP3    H228031   3.320   6.683   0.989 -0.3227 -2.8653 -0.6438
 2158TIP3   OH228032   3.713   2.593   1.666  0.7362 -0.2840  0.1800
 2158TIP3    H128033   3.788   2.617   1.720  0.9671 -1.3777  0.3700
 2158TIP3    H228034   3.751   2.558   1.586  0.4066  0.3880 -0.2800
 2159TIP3   OH228035   5.439   3.109   2.293  0.2779  0.1896  0.1689
 2159TIP3    H128036   5.464   3.043   2.229  0.1796 -1.7305  2.0313
 2159TIP3    H228037   5.343   3.102   2.298  0.2835  0.3513  0.5136
 2160TIP3   OH228038   6.047   2.601   0.397 -0.1968 -0.2841  0.3117
 2160TIP3    H128039   6.026   2.586   0.305 -1.6370  0.1174  0.5528
 2160TIP3    H228040   6.025   2.693   0.412  0.0161 -0.3480  1.0506
 2161TIP3   OH228041   0.454   5.525   2.900 -0.0688 -0.0238 -0.5552
 2161TIP3    H128042   0.460   5.558   2.810  0.7980 -0.8909 -0.8275
 2161TIP3    H228043   0.532   5.472   2.912 -0.5952 -0.6111  0.4417
 2162TIP3   OH228044   4.550   2.931   7.666 -0.4144  0.3935  0.3249
 2162TIP3    H128045   4.575   2.880   7.589 -0.0950  1.0715 -0.0315
 2162TIP3    H228046   4.612   2.904   7.734 -0.6595 -0.1621  0.3381
 2163TIP3   OH228047   1.085   6.011   1.295 -0.2782  0.3513 -0.0066
 2163TIP3    H128048   1.060   6.000   1.203 -1.3260  1.2588  0.1481
 2163TIP3    H228049   1.069   6.104   1.313  3.2624  1.0638  0.1385
 2164TIP3   OH228050   1.256   1.376   8.749 -0.6745 -0.1824 -0.2363
 2164TIP3    H128051   1.312   1.444   8.714 -1.5877  0.3381 -0.7358
 2164TIP3    H228052   1.217   1.414   8.828  0.8985 -1.1297  1.0760
 2165TIP3   OH228053   1.087   0.777   1.243  0.3188  0.3205  0.3877
 2165TIP3    H128054   1.087   0.792   1.337 -0.6949 -1.1231  0.6603
 2165TIP3    H228055   1.106   0.683   1.234  1.7564  0.6932 -0.9216
 2166TIP3   OH228056   2.134   0.701   1.161 -0.4372  0.0955  0.3632
 2166TIP3    H128057   2.185   0.758   1.103  0.3460  1.2697  2.1000
 2166TIP3    H228058   2.134   0.616   1.117  4.1545 -0.3838  0.7514
 2167TIP3   OH228059   1.006   2.885   2.593 -0.8926 -0.1680 -0.1733
 2167TIP3    H128060   1.072   2.894   2.661 -0.3041 -0.5890 -0.6726
 2167TIP3    H228061   0.996   2.791   2.581 -1.1718 -0.1022 -0.4893
 2168TIP3   OH228062   1.227   6.314   0.773 -0.0193 -0.4615  0.4534
 2168TIP3    H128063   1.158   6.285   0.832  2.0571  2.1791  4.7011
 2168TIP3    H228064   1.308   6.282   0.814  1.5563 -0.1620 -2.1715
 2169TIP3   OH228065   5.231   0.824   1.243 -0.5268 -0.0924 -0.1139
 2169TIP3    H128066   5.212   0.914   1.217 -0.5284  0.6589  2.2555
 2169TIP3    H228067   5.289   0.833   1.319  1.8444 -2.1740 -1.5060
 2170TIP3   OH228068   0.156   4.738   2.741  0.0609  0.2026 -0.2658
 2170TIP3    H128069   0.061   4.750   2.741  0.1634  1.1085 -1.2314
 2170TIP3    H228070   0.170   4.655   2.695 -0.1965  0.8110 -1.4692
 2171TIP3   OH228071   0.622   4.635   7.665 -0.1078 -0.3591  0.4275
 2171TIP3    H128072   0.530   4.627   7.641 -0.0526 -1.7378  0.6058
 2171TIP3    H228073   0.659   4.693   7.598 -1.0948  0.2208  0.3626
 2172TIP3   OH228074   5.940   6.743   0.523 -0.8031  0.2097  0.5948
 2172TIP3    H128075   5.972   6.701   0.603 -0.8929  1.5050  1.3498
 2172TIP3    H228076   5.887   6.676   0.480  2.3074 -1.8270 -0.4052
 2173TIP3   OH228077   0.889   4.405   1.294 -0.2962  0.6972  0.6014
 2173TIP3    H128078   0.876   4.311   1.281 -0.1160  0.7910 -0.3130
 2173TIP3    H228079   0.829   4.447   1.233  0.0348  1.1713  0.5910
 2174TIP3   OH228080   2.098   5.946   0.793 -0.0096 -0.2900  0.5596
 2174TIP3    H128081   2.026   5.891   0.762 -1.0176  0.6751  1.0985
 2174TIP3    H228082   2.126   5.906   0.875  0.6064 -1.1150 -0.0431
 2175TIP3   OH228083   1.510   5.720   1.937 -0.0749  0.2757  0.6872
 2175TIP3    H128084   1.463   5.637   1.952 -2.1707  1.6421  2.3778
 2175TIP3    H228085   1.446   5.787   1.960  1.4891  2.4029 -0.8446
 2176TIP3   OH228086   6.416   4.811   1.486  0.1303 -0.3106 -0.0916
 2176TIP3    H128087   6.378   4.870   1.551 -0.2923 -0.2746 -0.3637
 2176TIP3    H228088   6.340   4.766   1.449  0.3529 -0.1824 -0.7072
 2177TIP3   OH228089   6.092   5.378   0.769 -0.0592 -0.1257 -0.0718
 2177TIP3    H128090   6.187   5.376   0.773 -0.0562 -0.2351 -0.1936
 2177TIP3    H228091   6.063   5.331   0.848 -0.0113 -0.4845 -0.2684
 2178TIP3   OH228092   2.582   1.103   1.085 -0.1784 -0.1422  0.6622
 2178TIP3    H128093   2.669   1.101   1.123 -0.3581 -1.7447  1.0808
 2178TIP3    H228094   2.589   1.162   1.009  1.0123  0.4571  1.2224
 2179TIP3   OH228095   4.913   3.916   0.950 -0.0765 -0.2367  0.2998
 2179TIP3    H128096   4.945   3.963   0.873  1.7162 -1.0531  0.4970
 2179TIP3    H228097   4.987   3.918   1.012 -0.7859 -1.2822  1.2183
 2180TIP3   OH228098   1.740   1.640   8.099  0.2922  0.3354  0.3964
 2180TIP3    H128099   1.762   1.547   8.100  0.4271  0.3450  2.4550
 2180TIP3    H228100   1.810   1.680   8.046 -0.3828 -0.8161 -1.4699
 2181TIP3   OH228101   5.413   1.824   0.049  0.7438 -0.3107 -0.6766
 2181TIP3    H128102   5.482   1.872   0.004  0.0545 -0.1568 -1.6081
 2181TIP3    H228103   5.457   1.747   0.085  1.7254  0.6330  0.2368
 2182TIP3   OH228104   3.056   1.927   1.423 -0.0317 -0.2888  0.4201
 2182TIP3    H128105   2.991   1.985   1.384  1.1198  0.2746 -0.7150
 2182TIP3    H228106   3.059   1.952   1.515  0.3335  1.3558 -0.0167
 2183TIP3   OH228107   1.726   2.410   1.476  0.3356 -0.7228 -0.2738
 2183TIP3    H128108   1.811   2.450   1.496  0.2747 -0.5477 -0.3652
 2183TIP3    H228109   1.661   2.471   1.510  0.2465 -1.5301  1.0840
 2184TIP3   OH228110   1.361   5.500   8.320 -0.0409 -0.3132  0.1245
 2184TIP3    H128111   1.338   5.432   8.257 -1.9500  0.5078 -0.1362
 2184TIP3    H228112   1.301   5.485   8.394 -0.0105  0.6557  0.3595
 2185TIP3   OH228113   0.978   0.284   2.946 -0.7550 -0.0300 -0.0069
 2185TIP3    H128114   0.968   0.379   2.953 -0.4720  0.1648 -1.9072
 2185TIP3    H228115   1.072   0.270   2.934 -0.7907 -0.5618  0.2741
 2186TIP3   OH228116   5.914   5.894   0.544  0.4157 -0.4466 -0.2397
 2186TIP3    H128117   5.975   5.909   0.472  1.7036 -0.8346  0.7214
 2186TIP3    H228118   5.928   5.802   0.568  1.4147  0.1570  1.7030
 2187TIP3   OH228119   0.964   0.369   1.061 -0.5383 -0.2112 -0.2379
 2187TIP3    H128120   0.992   0.310   0.990 -2.8330 -1.1392 -0.4820
 2187TIP3    H228121   0.927   0.445   1.016 -1.2314 -0.4200 -0.0359
 2188TIP3   OH228122   3.751   2.070   0.190  0.5118 -0.2299  0.1493
 2188TIP3    H128123   3.768   2.018   0.112 -0.7986 -0.5130  0.0282
 2188TIP3    H228124   3.812   2.035   0.256 -0.9687 -2.6301  0.3656
 2189TIP3   OH228125   3.148   3.126   8.709  0.3190 -0.0442 -0.4349
 2189TIP3    H128126   3.068   3.176   8.696  0.8091  0.5628 -1.1950
 2189TIP3    H228127   3.146   3.100   8.801 -1.1131 -0.6874 -0.6214
 2190TIP3   OH228128   5.295   0.453   2.113 -0.4088 -0.3201  0.4303
 2190TIP3    H128129   5.211   0.492   2.089 -0.8756 -2.1254 -1.1009
 2190TIP3    H228130   5.328   0.413   2.032  0.7800 -1.6894  1.5232
 2191TIP3   OH228131   1.518   3.072   0.792  0.5656 -0.1563 -0.1409
 2191TIP3    H128132   1.501   3.149   0.737 -2.3258 -1.1961 -0.9231
 2191TIP3    H228133   1.538   3.002   0.730  1.0671 -0.5155  0.4173
 2192TIP3   OH228134   2.646   6.108   0.671  0.2263  0.3196 -0.0060
 2192TIP3    H128135   2.634   6.143   0.583  2.5358 -0.1284 -0.5394
 2192TIP3    H228136   2.653   6.185   0.727 -0.2892  0.6147 -0.3378
 2193TIP3   OH228137   5.534   3.620   0.192  0.1357 -0.7574  0.5231
 2193TIP3    H128138   5.483   3.547   0.227 -0.7943 -0.6089 -0.4755
 2193TIP3    H228139   5.533   3.685   0.262  1.0980 -1.7256  1.4822
 2194TIP3   OH228140   0.998   5.614   2.226 -0.3541  0.0751 -0.2630
 2194TIP3    H128141   0.979   5.606   2.133  3.2912  0.8559 -1.2584
 2194TIP3    H228142   0.998   5.709   2.242 -0.7034 -0.0440  0.4886
 2195TIP3   OH228143   5.378   2.985   8.753 -0.3321  0.1762 -0.7001
 2195TIP3    H128144   5.371   2.916   8.687  0.7668  2.7191 -3.8064
 2195TIP3    H228145   5.316   3.052   8.724  1.9803  2.4647 -0.7066
 2196TIP3   OH228146   4.696   2.035   1.262 -0.3745  0.1592  0.0613
 2196TIP3    H128147   4.686   1.986   1.180 -0.5338  0.6966 -0.2483
 2196TIP3    H228148   4.748   2.111   1.237 -1.6218  1.0652  0.1620
 2197TIP3   OH228149   5.668   4.836   1.308 -0.3396  0.2750 -0.1586
 2197TIP3    H128150   5.605   4.764   1.311 -0.6227  0.4318 -1.4823
 2197TIP3    H228151   5.754   4.793   1.302 -0.4376  0.0567 -0.0008
 2198TIP3   OH228152   4.500   5.802   2.081  0.1014 -0.0636 -0.1728
 2198TIP3    H128153   4.459   5.886   2.063  1.5909  0.8051  0.3584
 2198TIP3    H228154   4.427   5.744   2.103 -1.2964  0.2610 -3.3462
 2199TIP3   OH228155   6.683   6.452   7.296 -0.4376 -0.2278  0.0634
 2199TIP3    H128156   6.602   6.419   7.335  0.4562 -0.2767  1.9847
 2199TIP3    H228157   6.702   6.532   7.345  0.4896 -0.0198 -0.6082
 2200TIP3   OH228158   0.729   4.714   0.028 -0.0683  0.3299 -0.5864
 2200TIP3    H128159   0.710   4.795   0.075 -0.8976 -0.3882  0.3501
 2200TIP3    H228160   0.759   4.743  -0.059 -1.9868  1.5925 -0.8761
 2201TIP3   OH228161   5.511   5.610   1.169 -0.4385  0.5307  0.1917
 2201TIP3    H128162   5.532   5.587   1.078  0.0307 -0.9206  0.6382
 2201TIP3    H228163   5.596   5.627   1.209 -0.6943  1.8055  0.2147
 2202TIP3   OH228164   4.682   2.500   8.714 -0.1119  0.0063 -0.2114
 2202TIP3    H128165   4.710   2.553   8.639  0.7345  1.9842  1.4258
 2202TIP3    H228166   4.690   2.559   8.789 -0.5296 -2.0437  1.5121
 2203TIP3   OH228167   2.800   3.668   0.286 -0.3248 -0.3815 -0.7262
 2203TIP3    H128168   2.713   3.673   0.327  0.0287  2.9448 -0.0743
 2203TIP3    H228169   2.852   3.614   0.345 -0.9529  0.8511  1.0312
 2204TIP3   OH228170   3.434   0.222   1.295  0.1010 -0.4574 -0.2688
 2204TIP3    H128171   3.510   0.268   1.261 -0.6759  1.1358  0.0273
 2204TIP3    H228172   3.402   0.169   1.222  0.8062 -0.2352 -0.7401
 2205TIP3   OH228173   6.212   1.816   7.470  0.9043 -0.0100 -0.0563
 2205TIP3    H128174   6.154   1.843   7.399 -2.0348  1.2237  2.5828
 2205TIP3    H228175   6.230   1.897   7.518 -0.2667 -1.2198  2.6206
 2206TIP3   OH228176   4.192   5.407   2.636  0.4904  0.5639  0.2741
 2206TIP3    H128177   4.211   5.375   2.724 -0.1575 -0.9723 -0.1148
 2206TIP3    H228178   4.236   5.345   2.578 -0.7033  0.4056 -0.5007
 2207TIP3   OH228179   4.825   4.655   0.257  0.1663  0.2402 -0.2519
 2207TIP3    H128180   4.793   4.568   0.231 -1.3221  0.6861  0.0350
 2207TIP3    H228181   4.796   4.665   0.348 -0.8415  1.5742 -0.6955
 2208TIP3   OH228182   3.225   2.996   1.050  0.5229 -0.2973 -0.0124
 2208TIP3    H128183   3.161   3.066   1.065  1.6741  0.7524  0.2287
 2208TIP3    H228184   3.175   2.927   1.007 -0.5613  0.8739 -0.7235
 2209TIP3   OH228185   2.492   1.410   7.061  0.0720 -0.6955 -0.4344
 2209TIP3    H128186   2.422   1.467   7.091 -1.2848 -1.5765 -1.8008
 2209TIP3    H228187   2.458   1.368   6.982  2.4026 -0.6052 -1.6013
 2210TIP3   OH228188   3.469   1.427   7.597  0.0476  0.2759  0.0483
 2210TIP3    H128189   3.556   1.466   7.604 -0.0300  0.3504  0.7364
 2210TIP3    H228190   3.485   1.336   7.571  0.2817  0.4955 -0.5966
 2211TIP3   OH228191   5.863   6.724   1.552 -0.0400  0.3122  0.5248
 2211TIP3    H128192   5.929   6.772   1.602 -0.3597 -2.1460  3.6204
 2211TIP3    H228193   5.787   6.782   1.552  0.6458  1.2518  1.0443
 2212TIP3   OH228194   4.937   4.209   8.690  0.6470  0.3942  0.8371
 2212TIP3    H128195   4.926   4.301   8.666  1.3089  0.9894  2.6500
 2212TIP3    H228196   4.849   4.173   8.685  0.0384  1.6328  1.9665
 2213TIP3   OH228197   1.237   5.072   1.058 -0.1841  0.5692  0.7410
 2213TIP3    H128198   1.160   5.077   1.001  0.1456 -2.1673 -0.0859
 2213TIP3    H228199   1.201   5.064   1.146 -0.8435  0.0854  0.4353
 2214TIP3   OH228200   4.593   2.478   1.543  0.4035  0.4379 -0.3046
 2214TIP3    H128201   4.592   2.484   1.638 -0.3431  1.2085 -0.3492
 2214TIP3    H228202   4.683   2.500   1.518  0.9446 -1.0446  0.2792
 2215TIP3   OH228203   3.400   1.406   2.036  0.0229 -0.4722  0.3838
 2215TIP3    H128204   3.425   1.492   2.070 -0.6566  0.3104 -1.0162
 2215TIP3    H228205   3.404   1.349   2.113 -0.1405  0.9328  1.5010
 2216TIP3   OH228206   4.696   1.313   7.933  0.1263 -0.4957 -0.4118
 2216TIP3    H128207   4.601   1.304   7.939  0.0848  0.0802 -0.1513
 2216TIP3    H228208   4.712   1.341   7.842  0.2245 -2.6181 -1.1011
 2217TIP3   OH228209   5.635   0.490   8.026 -0.4937 -0.5030  0.5240
 2217TIP3    H128210   5.562   0.434   8.000  0.2475 -0.3405 -2.2206
 2217TIP3    H228211   5.668   0.450   8.107 -1.9261 -2.1701  0.3394
 2218TIP3   OH228212   3.422   6.006   7.569 -0.9095  0.2808  0.1757
 2218TIP3    H128213   3.420   5.915   7.540 -0.2077 -0.4126  2.1357
 2218TIP3    H228214   3.330   6.031   7.578 -1.1083 -0.1638 -0.5949
 2219TIP3   OH228215   3.085   4.478   0.068  0.2524  0.1828  0.2495
 2219TIP3    H128216   3.005   4.427   0.081  0.5693 -1.0029 -2.0731
 2219TIP3    H228217   3.054   4.568   0.059 -0.6765 -0.0682  0.7458
 2220TIP3   OH228218   5.809   3.798   0.549  0.3418 -0.1784  0.4098
 2220TIP3    H128219   5.790   3.715   0.594  1.2336  0.6682  2.4165
 2220TIP3    H228220   5.864   3.772   0.475 -0.4276 -1.4993  0.2511
 2221TIP3   OH228221   0.865   3.914   7.477  0.1646  0.1223  0.2753
 2221TIP3    H128222   0.776   3.907   7.513 -0.0603  2.7035  0.4290
 2221TIP3    H228223   0.875   4.007   7.458  2.1738 -0.3895 -1.5384
 2222TIP3   OH228224   6.552   6.489   8.496 -0.1007  0.4073  0.3412
 2222TIP3    H128225   6.590   6.410   8.457  0.8930  1.8086 -1.7187
 2222TIP3    H228226   6.595   6.496   8.581  1.3253 -0.2194 -0.2849
 2223TIP3   OH228227   2.444   2.864   1.896  0.2264  0.5026 -0.2448
 2223TIP3    H128228   2.464   2.841   1.805  2.0907  0.2426  0.1798
 2223TIP3    H228229   2.381   2.798   1.924  0.1663  0.1586 -1.1454
 2224TIP3   OH228230   4.898   2.630   7.065  0.1683 -0.4420  0.4559
 2224TIP3    H128231   4.988   2.600   7.055  0.8421  1.7016 -0.3458
 2224TIP3    H228232   4.865   2.640   6.976 -0.3773  0.1726  0.7155
 2225TIP3   OH228233   0.428   2.899   2.630  0.5716  0.2509  0.1949
 2225TIP3    H128234   0.340   2.906   2.594  0.1654 -3.0606  0.2605
 2225TIP3    H228235   0.441   2.981   2.678 -3.3519  0.0177  2.0232
 2226TIP3   OH228236   3.926   0.605   7.705  0.5542 -0.2787 -0.0506
 2226TIP3    H128237   3.871   0.684   7.703 -0.8495 -1.1759  0.8940
 2226TIP3    H228238   3.934   0.578   7.614  0.4164  0.5315 -0.3072
 2227TIP3   OH228239   5.149   3.951   1.053  0.2366  0.2191 -0.6142
 2227TIP3    H128240   5.194   3.885   1.107 -0.8245 -0.7089 -0.8308
 2227TIP3    H228241   5.207   4.027   1.056  1.1292 -0.4601  0.2675
 2228TIP3   OH228242   2.786   6.676   1.812  0.3856 -0.4328  0.1391
 2228TIP3    H128243   2.834   6.701   1.732 -0.9685  1.2212 -0.2259
 2228TIP3    H228244   2.836   6.716   1.883  0.2458  0.2337 -0.1277
 2229TIP3   OH228245   3.119   4.752   8.264  0.0626  0.2044  0.0548
 2229TIP3    H128246   3.026   4.739   8.281  0.1387 -1.5127 -0.6263
 2229TIP3    H228247   3.126   4.842   8.233 -1.4110  0.2840 -0.0765
 2230TIP3   OH228248   4.235   1.893   7.788  0.0628  0.1035  0.4323
 2230TIP3    H128249   4.323   1.920   7.816  0.0574  0.8452 -0.2181
 2230TIP3    H228250   4.219   1.812   7.835  1.0388  0.0380  0.6840
 2231TIP3   OH228251   5.973   3.802   1.422 -0.4799  0.3716  0.4294
 2231TIP3    H128252   6.046   3.864   1.424 -1.3614  1.4727 -0.0190
 2231TIP3    H228253   5.992   3.745   1.347 -1.1591  2.0991 -1.1464
 2232TIP3   OH228254   2.560   5.687   8.789  0.1100 -0.4393 -0.2246
 2232TIP3    H128255   2.599   5.745   8.854  0.5533 -0.6952 -0.2621
 2232TIP3    H228256   2.488   5.644   8.837 -1.2814  1.3194 -0.6384
 2233TIP3   OH228257   2.776   2.475   0.163  0.7520 -0.6672  0.0654
 2233TIP3    H128258   2.834   2.402   0.141  2.3210  0.7877 -0.9016
 2233TIP3    H228259   2.721   2.486   0.086 -0.6256 -1.8047  0.8373
 2234TIP3   OH228260   3.558   5.225   1.009 -0.2462  0.5849  0.0152
 2234TIP3    H128261   3.621   5.158   0.982  0.9457  0.8462  1.9821
 2234TIP3    H228262   3.612   5.302   1.030 -0.9545  0.2888  3.4010
 2235TIP3   OH228263   1.311   4.130   7.638 -0.1123  0.2552 -0.2556
 2235TIP3    H128264   1.260   4.115   7.559 -1.2234  0.8239  0.3266
 2235TIP3    H228265   1.345   4.044   7.662  3.2843  0.5033 -3.2800
 2236TIP3   OH228266   3.659   1.342   7.877 -0.4343  0.2013  0.1526
 2236TIP3    H128267   3.644   1.418   7.821 -0.1980  1.7814  2.1325
 2236TIP3    H228268   3.576   1.329   7.923 -0.0551  0.1212  0.8216
 2237TIP3   OH228269   2.677   5.019   0.321  0.1742 -0.0069  0.1669
 2237TIP3    H128270   2.607   5.052   0.264 -0.1189  1.0804  1.1207
 2237TIP3    H228271   2.727   4.960   0.265  0.6149  1.9001 -1.5969
 2238TIP3   OH228272   3.274   6.427   1.328 -0.6355 -0.7249 -0.2242
 2238TIP3    H128273   3.286   6.497   1.392 -1.2010  0.8288 -1.7436
 2238TIP3    H228274   3.179   6.423   1.315 -0.4636 -0.1631 -1.8182
 2239TIP3   OH228275   2.651   3.281   1.572 -0.4085  0.3973 -0.3714
 2239TIP3    H128276   2.681   3.231   1.648  2.5543  1.1403 -0.9278
 2239TIP3    H228277   2.631   3.368   1.607 -1.0144  0.1731 -0.1481
 2240TIP3   OH228278   0.145   1.637   0.602  0.7055 -0.6238  0.7386
 2240TIP3    H128279   0.194   1.632   0.520 -0.1929 -1.1849  0.2098
 2240TIP3    H228280   0.108   1.725   0.603 -0.4063 -1.0612 -0.1526
 2241TIP3   OH228281   2.367   6.599   1.151 -0.3519  0.2664  0.6033
 2241TIP3    H128282   2.430   6.566   1.215  1.1063  1.3912 -0.1905
 2241TIP3    H228283   2.355   6.691   1.175  2.4578  1.5998 -2.2647
 2242TIP3   OH228284   5.739   3.157   2.048 -0.1226  0.0624  0.4695
 2242TIP3    H128285   5.751   3.071   2.089  0.1119  0.4434  1.2077
 2242TIP3    H228286   5.645   3.166   2.037 -0.2472  0.2475  1.5749
 2243TIP3   OH228287   0.937   6.070   0.387  0.0494 -0.1394  0.3227
 2243TIP3    H128288   0.849   6.072   0.425  0.0303  0.7277  0.2459
 2243TIP3    H228289   0.995   6.090   0.460  0.6748 -5.1800  1.5619
 2244TIP3   OH228290   3.298   1.133   8.750 -0.1624 -0.5908 -0.5256
 2244TIP3    H128291   3.249   1.062   8.708 -1.8834  0.4477 -0.3703
 2244TIP3    H228292   3.253   1.146   8.834  2.1757 -1.5028  0.9679
 2245TIP3   OH228293   4.975   0.641   2.316  0.2829  1.1035  0.2085
 2245TIP3    H128294   5.035   0.677   2.381 -0.4329  2.0224  0.3687
 2245TIP3    H228295   4.953   0.554   2.350 -0.9077  1.9767  1.7636
 2246TIP3   OH228296   5.276   0.908   2.466 -0.2221 -0.1803  0.2713
 2246TIP3    H128297   5.262   0.982   2.525  0.2338 -1.2677  1.7830
 2246TIP3    H228298   5.332   0.848   2.515 -0.0841 -1.2698 -1.1563
 2247TIP3   OH228299   0.568   0.958   0.322  0.4106  0.2369 -0.1117
 2247TIP3    H128300   0.640   0.990   0.376 -0.8463 -0.2832  2.0143
 2247TIP3    H228301   0.590   0.985   0.233  1.0908  3.9665  1.0240
 2248TIP3   OH228302   0.065   3.558   0.072 -0.3262  0.3331  0.3017
 2248TIP3    H128303   0.097   3.566   0.161  2.1238  0.7336 -0.5466
 2248TIP3    H228304   0.124   3.612   0.020 -2.1015  0.6677 -1.4930
 2249TIP3   OH228305   3.376   1.274   7.957 -0.2061 -0.7439 -0.3311
 2249TIP3    H128306   3.287   1.271   7.922 -0.3758 -0.5566  0.0788
 2249TIP3    H228307   3.367   1.318   8.042 -0.0059 -2.4696  0.6163
 2250TIP3   OH228308   0.884   1.389   2.002  0.2958 -0.0574  0.4128
 2250TIP3    H128309   0.827   1.438   1.943  0.2945 -0.9647 -0.3647
 2250TIP3    H228310   0.869   1.297   1.980  1.7575 -0.3373  0.4436
 2251TIP3   OH228311   3.207   0.688   7.659 -0.2146 -0.0820  0.5294
 2251TIP3    H128312   3.236   0.692   7.751  0.2092 -1.6389  0.4866
 2251TIP3    H228313   3.280   0.648   7.612 -0.3202  0.9524 -0.5566
 2252TIP3   OH228314   0.902   3.785   7.201 -0.3434  0.3727  0.1266
 2252TIP3    H128315   0.889   3.714   7.138  0.6075 -1.4707  1.9019
 2252TIP3    H228316   0.891   3.865   7.149  0.3503 -1.0287 -2.3530
 2253TIP3   OH228317   3.888   3.466   0.161  0.1078 -0.0865  0.3096
 2253TIP3    H128318   3.826   3.453   0.089 -0.9520  3.1225  0.4946
 2253TIP3    H228319   3.863   3.400   0.226 -1.5579 -0.4198 -0.6130
 2254TIP3   OH228320   1.367   2.116   1.588  0.0325  0.0227  0.1920
 2254TIP3    H128321   1.399   2.082   1.504  0.5064  0.5220  0.1666
 2254TIP3    H228322   1.354   2.210   1.573 -0.2098  0.0531  0.5759
 2255TIP3   OH228323   4.268   4.475   8.432 -0.4919 -0.3432 -0.1849
 2255TIP3    H128324   4.208   4.545   8.458 -0.2840 -0.2057 -0.0753
 2255TIP3    H228325   4.257   4.468   8.337 -1.6494 -1.2070 -0.0144
 2256TIP3   OH228326   3.407   1.663   2.137  0.0675 -0.1680 -0.5857
 2256TIP3    H128327   3.476   1.702   2.191 -0.9978 -0.4814  1.0978
 2256TIP3    H228328   3.377   1.735   2.082  1.7014 -0.0279 -1.3440
 2257TIP3   OH228329   0.652   2.798   7.478  0.9598 -0.1827 -0.4605
 2257TIP3    H128330   0.662   2.844   7.561  0.0794  1.7722 -1.3537
 2257TIP3    H228331   0.558   2.780   7.471  0.9434  0.1560 -1.2568
 2258TIP3   OH228332   5.621   4.930   2.780 -0.1243  0.5957  0.5850
 2258TIP3    H128333   5.600   5.016   2.817 -0.2713 -0.3313  2.8393
 2258TIP3    H228334   5.696   4.946   2.723 -0.9278  2.4035 -0.0384
 2259TIP3   OH228335   5.089   1.723   1.741 -0.8089 -0.2498 -0.2095
 2259TIP3    H128336   5.136   1.655   1.790 -0.6488 -0.3058 -0.4393
 2259TIP3    H228337   5.043   1.774   1.808 -0.0811  0.0678  0.0599
 2260TIP3   OH228338   1.287   3.730   7.963  0.0648 -0.3899  0.4532
 2260TIP3    H128339   1.258   3.664   8.025  2.1519 -1.8127  0.0319
 2260TIP3    H228340   1.283   3.813   8.011  2.6702 -1.5702  2.9329
 2261TIP3   OH228341   6.708   4.526   2.187 -0.1112  0.4532 -0.1306
 2261TIP3    H128342   6.738   4.438   2.210 -0.5450  0.4028  0.2652
 2261TIP3    H228343   6.769   4.555   2.120 -2.0046 -1.5557 -2.9774
 2262TIP3   OH228344   6.346   5.570   7.093 -0.4674 -0.0743 -0.4107
 2262TIP3    H128345   6.293   5.493   7.114  0.2357 -0.0582  1.6794
 2262TIP3    H228346   6.331   5.585   7.000 -1.6983 -1.9036 -0.5591
 2263TIP3   OH228347   4.533   2.985   8.591  0.2660 -0.3679  0.2364
 2263TIP3    H128348   4.593   3.054   8.621  0.5120 -0.7788  0.7036
 2263TIP3    H228349   4.563   2.965   8.502  0.3528 -0.0457  0.1905
 2264TIP3   OH228350   5.044   1.841   1.314  0.2762 -0.4211  0.3429
 2264TIP3    H128351   5.132   1.860   1.346  0.6010  1.5256 -1.4467
 2264TIP3    H228352   5.058   1.812   1.224 -0.9416  3.1850 -1.2106
 2265TIP3   OH228353   0.758   6.803   7.780 -0.2445  0.2004  0.6457
 2265TIP3    H128354   0.702   6.880   7.788 -1.0035 -0.1793 -0.6572
 2265TIP3    H228355   0.837   6.834   7.736  0.1917  0.5541  1.6526
 2266TIP3   OH228356   0.574   3.157   0.042  0.3603  0.2016  0.0873
 2266TIP3    H128357   0.549   3.219   0.111  1.2608 -0.9284  1.4530
 2266TIP3    H228358   0.643   3.104   0.080 -2.5446 -3.9412  0.2473
 2267TIP3   OH228359   0.469   2.495   1.007 -0.5909  0.0644 -0.0505
 2267TIP3    H128360   0.512   2.431   0.951  0.5901  1.1052 -0.3834
 2267TIP3    H228361   0.442   2.565   0.948  0.2080  0.9329  0.5793
 2268TIP3   OH228362   2.799   0.726   0.213 -0.0896 -0.4401 -0.0248
 2268TIP3    H128363   2.888   0.721   0.178 -0.1155 -0.8656 -0.0422
 2268TIP3    H228364   2.752   0.655   0.169 -0.6210  0.2125 -0.5295
 2269TIP3   OH228365   1.481   5.447   2.046  0.2125 -0.3881 -0.2326
 2269TIP3    H128366   1.535   5.368   2.047  1.0559  0.1624 -0.6587
 2269TIP3    H228367   1.394   5.418   2.019  0.7461 -1.0286 -1.2995
 2270TIP3   OH228368   3.584   6.599   8.319 -0.1909  0.1183 -0.2860
 2270TIP3    H128369   3.504   6.652   8.316 -2.1045 -2.5453  0.1519
 2270TIP3    H228370   3.553   6.508   8.313  2.7717 -1.0650  0.5611
 2271TIP3   OH228371   4.205   0.397   0.839  0.2392  0.2037 -0.0014
 2271TIP3    H128372   4.172   0.376   0.927 -0.9307 -0.9155 -0.6761
 2271TIP3    H228373   4.274   0.333   0.824 -0.3587 -0.3713 -0.3438
 2272TIP3   OH228374   6.488   4.783   7.840  0.2053 -0.3840 -0.4120
 2272TIP3    H128375   6.547   4.836   7.786 -0.3761 -0.0501 -0.7215
 2272TIP3    H228376   6.400   4.811   7.815 -0.1602 -2.3216 -1.4463
 2273TIP3   OH228377   5.249   5.512   2.767 -0.0542 -0.3591 -1.0542
 2273TIP3    H128378   5.344   5.507   2.757  0.3689 -0.7099  2.1633
 2273TIP3    H228379   5.218   5.424   2.745  0.7086 -0.9936  0.3195
 2274TIP3   OH228380   6.619   3.403   8.397  0.4879 -0.0323 -0.0586
 2274TIP3    H128381   6.710   3.412   8.426 -0.0274  0.9391  1.3692
 2274TIP3    H228382   6.578   3.349   8.464 -0.0770 -0.1245 -0.4801
 2275TIP3   OH228383   5.801   1.973   1.904  0.0763  0.2915  0.1562
 2275TIP3    H128384   5.896   1.977   1.907  0.1002  0.0866 -0.2885
 2275TIP3    H228385   5.773   2.010   1.987  0.5564 -0.1913  0.5341
 2276TIP3   OH228386   4.644   5.272   0.491 -0.5179 -0.3227 -0.0046
 2276TIP3    H128387   4.555   5.271   0.527 -0.3033 -0.3825  0.5315
 2276TIP3    H228388   4.665   5.179   0.476 -1.5102 -0.2079 -2.5899
 2277TIP3   OH228389   5.735   4.488   0.679 -0.2504 -0.3080  0.6807
 2277TIP3    H128390   5.819   4.453   0.649  0.1393 -2.8595  4.1192
 2277TIP3    H228391   5.758   4.570   0.722 -0.0056  0.4362 -0.8049
 2278TIP3   OH228392   6.246   2.049   0.936 -0.5280 -0.2926  0.8622
 2278TIP3    H128393   6.170   2.105   0.921  1.6833  2.3305 -2.0366
 2278TIP3    H228394   6.321   2.107   0.922  1.9936 -3.5325 -0.4072
 2279TIP3   OH228395   6.823   0.411   1.389  0.4159 -0.5415 -0.3300
 2279TIP3    H128396   6.773   0.443   1.314 -0.6374 -1.7924 -0.1968
 2279TIP3    H228397   6.888   0.352   1.350  0.5175 -0.4208 -0.3428
 2280TIP3   OH228398   4.836   6.305   8.080 -0.2241 -0.6302  0.3291
 2280TIP3    H128399   4.890   6.244   8.031 -2.0813 -0.5401 -2.0032
 2280TIP3    H228400   4.895   6.376   8.105  1.1448 -1.5074 -0.3253
 2281TIP3   OH228401   6.628   4.439   2.732 -0.5519  0.1998  0.6108
 2281TIP3    H128402   6.620   4.390   2.650  0.3941  2.3486 -0.8402
 2281TIP3    H228403   6.577   4.388   2.795 -1.8876 -1.1691 -1.4458
 2282TIP3   OH228404   3.325   1.580   2.736  0.6937 -0.2457  0.0459
 2282TIP3    H128405   3.401   1.638   2.740  0.6095  0.0473 -1.7722
 2282TIP3    H228406   3.360   1.493   2.755  1.1955  0.0859  0.6889
 2283TIP3   OH228407   1.058   3.400   1.661  0.7460  0.3032 -0.2767
 2283TIP3    H128408   1.024   3.339   1.727  1.3078  0.4631  0.1739
 2283TIP3    H228409   1.147   3.368   1.644  1.6124  1.8360  1.0680
 2284TIP3   OH228410   2.829   4.428   8.696  0.1812  0.3707 -0.3690
 2284TIP3    H128411   2.749   4.384   8.669 -0.5002  0.5261  1.2449
 2284TIP3    H228412   2.889   4.358   8.722  0.6155  0.2508 -1.6450
 2285TIP3   OH228413   6.613   2.457   1.940  0.4096  0.3585 -0.0432
 2285TIP3    H128414   6.551   2.392   1.910  0.5218 -1.1225  2.6264
 2285TIP3    H228415   6.687   2.407   1.973  1.3267  1.9109  0.3860
 2286TIP3   OH228416   2.458   5.631   2.384 -0.2103  0.5974 -0.0875
 2286TIP3    H128417   2.511   5.656   2.308  1.7728  1.3985  1.4618
 2286TIP3    H228418   2.507   5.559   2.424 -1.6159 -0.3202  0.0411
 2287TIP3   OH228419   4.796   3.031   1.784 -0.4018 -0.7975 -0.3656
 2287TIP3    H128420   4.874   3.012   1.836 -1.8043 -2.6491  1.2177
 2287TIP3    H228421   4.829   3.078   1.708  2.0220  0.0866  1.1088
 2288TIP3   OH228422   2.175   1.125   1.063  0.2438 -0.0005 -0.4021
 2288TIP3    H128423   2.210   1.053   1.011 -1.0599 -1.4929  0.7141
 2288TIP3    H228424   2.236   1.134   1.136  0.7742  0.5236 -0.8894
 2289TIP3   OH228425   2.605   3.884   2.349 -0.6137  0.3670  0.0748
 2289TIP3    H128426   2.532   3.830   2.318 -0.0181 -2.2520  2.7953
 2289TIP3    H228427   2.564   3.952   2.401 -1.1942 -0.4472  0.7022
 2290TIP3   OH228428   4.162   5.101   2.078 -0.4840 -0.2897  0.1192
 2290TIP3    H128429   4.220   5.085   2.003  0.1258  0.9635  0.2938
 2290TIP3    H228430   4.082   5.138   2.038 -0.5346 -0.5011  0.0196
 2291TIP3   OH228431   1.389   3.310   1.097  0.2268 -0.8906  0.7410
 2291TIP3    H128432   1.457   3.258   1.054 -0.2678 -0.5204 -0.5490
 2291TIP3    H228433   1.353   3.253   1.165  0.4832 -1.8032  0.1207
 2292TIP3   OH228434   3.381   3.890   1.634 -0.4654  0.3912  0.1075
 2292TIP3    H128435   3.476   3.880   1.632 -0.4865  0.2567 -0.4774
 2292TIP3    H228436   3.366   3.981   1.609 -0.3655  1.4483  3.4198
 2293TIP3   OH228437   5.779   2.954   2.282 -0.5513  1.0116 -0.1560
 2293TIP3    H128438   5.709   2.897   2.314 -0.1962  0.7234  0.1003
 2293TIP3    H228439   5.840   2.962   2.355 -0.9353  2.2680  0.0467
 2294TIP3   OH228440   1.764   2.482   7.829 -0.6211  0.3264 -0.1517
 2294TIP3    H128441   1.676   2.445   7.829 -0.1906 -0.8888 -2.6460
 2294TIP3    H228442   1.813   2.425   7.889 -1.2195  0.2555  0.2900
 2295TIP3   OH228443   3.921   0.937   2.505  0.4228  0.1936 -0.2163
 2295TIP3    H128444   3.898   0.848   2.478  1.5178  0.1066 -0.9039
 2295TIP3    H228445   3.912   0.936   2.601  0.0434 -0.5414 -0.2530
 2296TIP3   OH228446   1.968   5.595   1.653 -0.0895  0.2214  0.3971
 2296TIP3    H128447   2.002   5.549   1.576  0.1639 -0.0881  0.6885
 2296TIP3    H228448   1.877   5.614   1.632 -0.6499 -1.7413  0.8592
 2297TIP3   OH228449   2.497   0.295   0.801  0.7042 -0.2228  0.4514
 2297TIP3    H128450   2.578   0.282   0.850  0.6421  0.2063  0.6787
 2297TIP3    H228451   2.438   0.227   0.834  1.1220 -0.8318 -0.0546
 2298TIP3   OH228452   1.866   6.565   3.045 -0.3313  0.2016 -0.0602
 2298TIP3    H128453   1.958   6.581   3.026 -0.5495 -0.2136 -1.5674
 2298TIP3    H228454   1.834   6.648   3.081  0.4862  0.5224 -0.0606
 2299TIP3   OH228455   2.341   4.489   8.015 -0.1941  0.4124  0.5146
 2299TIP3    H128456   2.314   4.562   7.958 -0.5585 -0.1546 -0.0445
 2299TIP3    H228457   2.372   4.422   7.955 -1.3856 -0.5335  0.9237
 2300TIP3   OH228458   2.484   0.516   0.413  0.2471 -0.2552 -1.2540
 2300TIP3    H128459   2.554   0.466   0.455 -1.2385 -0.2695  1.4186
 2300TIP3    H228460   2.512   0.608   0.421 -0.6925 -0.1135  1.3857
 2301TIP3   OH228461   1.438   4.353   6.873 -0.6294  0.2977  0.1974
 2301TIP3    H128462   1.467   4.431   6.921 -1.2060  0.3231  0.5153
 2301TIP3    H228463   1.346   4.370   6.854 -0.5936 -0.0305 -0.2942
 2302TIP3   OH228464   0.873   2.221   0.371  0.4688  0.6087  0.4005
 2302TIP3    H128465   0.874   2.221   0.466 -0.2663 -0.9036  0.4413
 2302TIP3    H228466   0.961   2.193   0.345  0.2249 -0.4838  0.6913
 2303TIP3   OH228467   4.437   1.328   7.913 -0.2670 -0.2404  0.0034
 2303TIP3    H128468   4.425   1.267   7.841  0.0303 -1.4471  0.9466
 2303TIP3    H228469   4.353   1.374   7.920 -0.5787 -0.7136 -0.5496
 2304TIP3   OH228470   0.833   6.482   7.388 -0.1120 -0.4845  0.4250
 2304TIP3    H128471   0.885   6.558   7.361  1.0048 -0.6404  1.9978
 2304TIP3    H228472   0.752   6.520   7.424  1.2363  0.1932  3.0235
 2305TIP3   OH228473   1.556   6.264   0.012  0.1159  0.0736  0.0658
 2305TIP3    H128474   1.605   6.334   0.055  0.4360  0.9423 -1.6470
 2305TIP3    H228475   1.553   6.193   0.077  0.5473  1.3315  1.5044
 2306TIP3   OH228476   2.349   2.241   1.668 -0.0116  0.4342 -0.5599
 2306TIP3    H128477   2.359   2.335   1.678  0.6347  0.1636  2.1374
 2306TIP3    H228478   2.265   2.221   1.711  0.5053 -0.3366  0.1353
 2307TIP3   OH228479   0.317   3.226   2.871 -0.1637 -0.2704 -0.3255
 2307TIP3    H128480   0.272   3.240   2.954 -0.5599  2.1600 -0.8592
 2307TIP3    H228481   0.247   3.232   2.805  0.3918 -0.2990 -0.9261
 2308TIP3   OH228482   6.255   6.046   7.481 -0.0511  0.0031  0.0612
 2308TIP3    H128483   6.221   5.957   7.478  1.3580 -0.5541 -2.7971
 2308TIP3    H228484   6.350   6.036   7.477  0.1865  1.6502  0.5921
 2309TIP3   OH228485   4.388   1.981   8.309 -0.2029  0.2474 -0.1098
 2309TIP3    H128486   4.363   1.942   8.393 -0.8147  2.8224  0.9900
 2309TIP3    H228487   4.470   1.937   8.286  0.6871  0.3567  2.5169
 2310TIP3   OH228488   3.990   4.522   3.156  0.2728 -0.1390 -0.2295
 2310TIP3    H128489   4.064   4.581   3.169  1.0938 -1.3551  1.0055
 2310TIP3    H228490   3.913   4.579   3.160  1.0752  0.9883 -0.2415
 2311TIP3   OH228491   2.560   6.631   2.110 -0.0646  0.0236  0.1652
 2311TIP3    H128492   2.626   6.651   2.177 -1.0606  0.6264  0.9930
 2311TIP3    H228493   2.513   6.555   2.144 -0.2481  0.0158 -0.1013
 2312TIP3   OH228494   3.885   1.538   7.271  0.6522  0.4499 -0.1436
 2312TIP3    H128495   3.815   1.476   7.255 -0.3614  1.6579 -0.5870
 2312TIP3    H228496   3.886   1.594   7.193  0.5190  1.9175  0.8761
 2313TIP3   OH228497   4.834   0.282   2.641  0.1934  0.2411 -0.8027
 2313TIP3    H128498   4.788   0.338   2.704  1.0094 -1.9377  1.9580
 2313TIP3    H228499   4.921   0.271   2.678  0.4314 -1.8425 -1.8512
 2314TIP3   OH228500   3.378   4.272   0.670  0.2118  0.1994 -0.1238
 2314TIP3    H128501   3.351   4.296   0.758  1.2229  2.3252 -0.3082
 2314TIP3    H228502   3.443   4.203   0.682  0.9751  1.0510  0.9043
 2315TIP3   OH228503   4.726   6.388   1.545 -0.0214  0.0630 -0.7523
 2315TIP3    H128504   4.809   6.372   1.500  0.2726 -0.1134 -0.1485
 2315TIP3    H228505   4.749   6.400   1.637 -0.7957 -1.4783 -0.3146
 2316TIP3   OH228506   5.585   3.933   7.144  0.2357 -0.7521  0.2850
 2316TIP3    H128507   5.560   3.850   7.185  0.2245 -0.5755  0.6373
 2316TIP3    H228508   5.681   3.929   7.139  0.1536 -2.1354 -2.5288
 2317TIP3   OH228509   5.874   1.278   0.575 -0.1554 -0.1253  0.2030
 2317TIP3    H128510   5.789   1.291   0.618  0.2315  0.4842  0.7955
 2317TIP3    H228511   5.917   1.363   0.581  0.0750 -0.1328 -1.0519
 2318TIP3   OH228512   3.061   2.963   7.907  0.7095  0.1168  0.5848
 2318TIP3    H128513   3.073   3.058   7.900  1.4005 -0.1016 -2.0863
 2318TIP3    H228514   3.148   2.927   7.893  0.2630 -0.9497  0.4584
 2319TIP3   OH228515   4.989   6.168   7.909  0.0892 -0.0404 -1.0107
 2319TIP3    H128516   4.918   6.193   7.850 -0.0029  1.4049 -0.3206
 2319TIP3    H228517   4.997   6.073   7.898 -2.0761 -0.2791 -0.9756
 2320TIP3   OH228518   6.101   0.606   1.084 -0.0136  0.2268 -0.0751
 2320TIP3    H128519   6.069   0.545   1.017  1.2697  1.1023 -1.5620
 2320TIP3    H228520   6.182   0.566   1.116  1.2746  1.4080 -1.6288
 2321TIP3   OH228521   1.546   1.122   0.179  0.0476  0.0412  0.1944
 2321TIP3    H128522   1.624   1.126   0.124  0.9245  0.0943  1.3918
 2321TIP3    H228523   1.527   1.028   0.186  0.6692 -0.0418  0.7952
 2322TIP3   OH228524   1.935   4.869   7.070  0.3456 -0.0599  0.5380
 2322TIP3    H128525   1.913   4.809   6.998 -0.2869 -0.4391  1.0402
 2322TIP3    H228526   2.028   4.888   7.057 -0.2794  1.9049 -1.8696
 2323TIP3   OH228527   5.772   4.547   7.776  0.1282  0.4485  0.1532
 2323TIP3    H128528   5.751   4.525   7.685  0.3534  1.6311 -0.2161
 2323TIP3    H228529   5.764   4.465   7.824 -2.4159  0.2444 -0.4803
 2324TIP3   OH228530   3.559   4.124   0.411 -0.0860 -0.1562 -0.6415
 2324TIP3    H128531   3.594   4.040   0.440  0.3560  0.3227  0.2681
 2324TIP3    H228532   3.465   4.118   0.426  0.1992  0.3468  1.7285
 2325TIP3   OH228533   1.469   3.866   1.757 -0.6821 -0.3104 -0.4690
 2325TIP3    H128534   1.407   3.939   1.752 -1.7488 -1.0776  0.8665
 2325TIP3    H228535   1.541   3.900   1.811 -0.6333  0.0980 -0.7792
 2326TIP3   OH228536   5.154   6.414   8.681  0.1792  0.0890  0.1502
 2326TIP3    H128537   5.202   6.339   8.716 -2.1228 -1.0791  0.9918
 2326TIP3    H228538   5.132   6.467   8.758  2.1914  1.9835 -0.4704
 2327TIP3   OH228539   2.669   3.516   0.801  0.0107 -0.0438 -0.6293
 2327TIP3    H128540   2.671   3.530   0.896 -0.9083  1.2079 -0.7621
 2327TIP3    H228541   2.595   3.458   0.787  1.6320 -2.2753 -0.4004
 2328TIP3   OH228542   2.482   2.550   0.748  0.3193 -0.6363  0.1601
 2328TIP3    H128543   2.428   2.487   0.795  1.1212 -1.0956  0.4908
 2328TIP3    H228544   2.552   2.498   0.708  0.0106 -0.1715 -1.0376
 2329TIP3   OH228545   2.351   4.755   1.075 -0.0464 -0.1370  0.1445
 2329TIP3    H128546   2.288   4.690   1.045 -1.3089  0.5630  1.1624
 2329TIP3    H228547   2.333   4.832   1.022 -1.3624  0.6614  1.6621
 2330TIP3   OH228548   0.007   2.338   8.779  0.4309  0.0016 -0.2349
 2330TIP3    H128549   0.022   2.375   8.865 -1.1358 -1.4147  0.7047
 2330TIP3    H228550   0.085   2.286   8.761  0.3705 -0.4424  0.7542
 2331TIP3   OH228551   2.485   0.520   2.474 -0.3258 -0.1105 -0.0076
 2331TIP3    H128552   2.460   0.565   2.393  2.6924  0.6562 -0.5991
 2331TIP3    H228553   2.561   0.568   2.507 -0.7466 -1.1223  2.6944
 2332TIP3   OH228554   2.848   2.707   8.029  0.3893 -0.7497  0.2558
 2332TIP3    H128555   2.854   2.719   7.934 -1.8748 -0.4643  0.1147
 2332TIP3    H228556   2.772   2.757   8.056  1.1457 -0.5880  2.3052
 2333TIP3   OH228557   1.406   3.579   8.400  0.3703  0.0931 -0.2205
 2333TIP3    H128558   1.458   3.589   8.320 -0.7269  1.4520 -0.8030
 2333TIP3    H228559   1.327   3.631   8.384 -0.5455 -0.8123  1.1768
 2334TIP3   OH228560   6.639   0.321   2.943  0.2630  0.8606 -0.2895
 2334TIP3    H128561   6.558   0.367   2.921 -0.3710  0.3366  0.8500
 2334TIP3    H228562   6.636   0.241   2.891  0.7731  1.5176 -1.3506
 2335TIP3   OH228563   5.357   0.939   7.785  0.4305 -0.0017  0.1907
 2335TIP3    H128564   5.417   0.896   7.847  1.2765 -0.3827 -0.8634
 2335TIP3    H228565   5.301   0.994   7.841  1.2335 -0.2472  1.2844
 2336TIP3   OH228566   1.029   5.357   1.335  0.1150 -0.1550 -0.0753
 2336TIP3    H128567   0.939   5.385   1.353  0.1878 -0.3584  0.6670
 2336TIP3    H228568   1.067   5.427   1.283 -0.5408 -0.1681 -0.5741
 2337TIP3   OH228569   2.420   3.701   0.537 -0.2667 -0.5997 -0.0566
 2337TIP3    H128570   2.465   3.754   0.604 -1.0781  2.2866 -1.6234
 2337TIP3    H228571   2.366   3.641   0.588  2.0118 -1.2314  1.8544
 2338TIP3   OH228572   0.058   1.849   0.287 -0.9457 -0.5586  0.1813
 2338TIP3    H128573   0.053   1.900   0.368 -0.1926 -0.8524  0.4186
 2338TIP3    H228574   0.151   1.838   0.271 -0.9855  1.3610 -1.9217
 2339TIP3   OH228575   5.712   2.076   7.793 -0.4949  0.2124 -0.1164
 2339TIP3    H128576   5.749   2.070   7.705  0.6030  1.6163  0.2079
 2339TIP3    H228577   5.663   1.995   7.804 -0.4506 -0.1006 -1.9222
 2340TIP3   OH228578   4.057   3.024   1.455  0.2704  0.0218 -0.0257
 2340TIP3    H128579   4.085   2.978   1.376 -0.9952 -0.6012 -0.1302
 2340TIP3    H228580   3.962   3.023   1.451  0.1480 -0.7828  1.9397
 2341TIP3   OH228581   0.187   3.428   0.900 -0.4659  0.4150 -0.6068
 2341TIP3    H128582   0.280   3.407   0.901 -0.5907 -0.1613 -0.8067
 2341TIP3    H228583   0.184   3.523   0.916  0.1997  0.6008 -1.5114
 2342TIP3   OH228584   0.931   0.273   1.576 -0.2551  0.3891 -0.0468
 2342TIP3    H128585   1.015   0.317   1.588  1.1388 -2.0773 -0.0525
 2342TIP3    H228586   0.894   0.312   1.497  1.8344  0.1920 -1.1921
 2343TIP3   OH228587   1.351   1.625   1.123  0.5158 -0.1967  0.3108
 2343TIP3    H128588   1.274   1.680   1.137  0.7452  0.6207 -1.3534
 2343TIP3    H228589   1.416   1.659   1.185 -0.9718 -2.1877  3.1991
 2344TIP3   OH228590   3.496   1.395   1.013 -0.5730 -0.4050 -0.3266
 2344TIP3    H128591   3.417   1.435   1.049 -1.0925  0.8480 -2.7216
 2344TIP3    H228592   3.466   1.311   0.978 -0.5556 -0.5136 -0.0880
 2345TIP3   OH228593   0.975   1.860   8.710  0.1552 -0.0288 -0.6193
 2345TIP3    H128594   0.946   1.951   8.703 -0.1242 -0.1064 -0.4684
 2345TIP3    H228595   0.958   1.822   8.624  0.4787  0.1219 -0.7519
 2346TIP3   OH228596   6.722   2.393   2.360  0.2027  0.0729  0.3745
 2346TIP3    H128597   6.736   2.398   2.454 -0.7580 -0.7853  0.5788
 2346TIP3    H228598   6.627   2.388   2.349  0.2730  0.6503 -0.6709
 2347TIP3   OH228599   1.116   6.301   1.975  0.1668 -0.0597  0.2374
 2347TIP3    H128600   1.124   6.319   2.068 -0.2920 -0.1871  0.3068
 2347TIP3    H228601   1.026   6.326   1.953  0.5333  0.8055 -0.3656
 2348TIP3   OH228602   6.805   4.602   8.535 -0.1067  0.8501 -0.1074
 2348TIP3    H128603   6.771   4.540   8.599 -0.1434  2.6498  1.7237
 2348TIP3    H228604   6.766   4.575   8.452 -3.6297  0.9425  1.3199
 2349TIP3   OH228605   2.912   2.499   7.274 -0.5850  0.1895  0.0649
 2349TIP3    H128606   2.895   2.559   7.201  3.4779 -0.1722 -1.4042
 2349TIP3    H228607   2.950   2.553   7.342  0.3714 -0.2289 -0.1217
 2350TIP3   OH228608   0.253   5.112   8.222 -0.4691 -0.3246 -0.3293
 2350TIP3    H128609   0.233   5.202   8.248 -0.2951 -0.1659 -0.7310
 2350TIP3    H228610   0.341   5.117   8.183  0.2786 -0.9646  1.2010
 2351TIP3   OH228611   5.824   6.061   7.483  0.1724  0.7873 -0.7628
 2351TIP3    H128612   5.878   6.139   7.490  2.3291 -0.7814  3.7160
 2351TIP3    H228613   5.758   6.070   7.552  1.2609 -1.6832  0.7730
 2352TIP3   OH228614   0.626   3.918   0.001 -0.0860 -0.4535  0.2091
 2352TIP3    H128615   0.580   3.952  -0.076 -0.7953 -1.9173 -0.0674
 2352TIP3    H228616   0.558   3.910   0.068  0.7413  1.9056  1.4400
 2353TIP3   OH228617   6.811   5.836   6.671 -0.4044 -0.2261  0.0518
 2353TIP3    H128618   6.732   5.865   6.626  0.1110 -0.2939 -0.9126
 2353TIP3    H228619   6.877   5.830   6.603  0.9174  1.4749  1.0708
 2354TIP3   OH228620   5.508   5.306   8.651  0.3699  0.1281 -0.2178
 2354TIP3    H128621   5.524   5.314   8.557  0.1157  0.9465 -0.1965
 2354TIP3    H228622   5.416   5.280   8.657  0.3725  0.1242 -0.1927
 2355TIP3   OH228623   2.008   2.831   2.142  0.2472  0.1742  0.1433
 2355TIP3    H128624   2.017   2.923   2.118 -0.2253  0.2734  0.3391
 2355TIP3    H228625   1.994   2.831   2.237 -3.9294  0.2400 -0.2787
 2356TIP3   OH228626   5.068   5.623   1.380  0.3086 -0.6675 -0.2829
 2356TIP3    H128627   5.117   5.679   1.319  0.2352  0.3032  0.5202
 2356TIP3    H228628   4.985   5.607   1.335  1.1310 -1.9238 -1.4442
 2357TIP3   OH228629   2.966   6.487   8.673 -0.4955  0.1988 -0.0757
 2357TIP3    H128630   2.887   6.435   8.690  0.7739 -1.1255  2.3333
 2357TIP3    H228631   2.972   6.547   8.748  0.6531  0.3980 -0.3055
 2358TIP3   OH228632   3.874   4.520   8.328 -0.0911  0.1765  0.5140
 2358TIP3    H128633   3.859   4.602   8.375 -0.0848  0.0228  0.7895
 2358TIP3    H228634   3.905   4.459   8.396  2.3977  0.6352 -0.1043
 2359TIP3   OH228635   5.242   5.719   0.193  0.0528  0.6377 -0.1417
 2359TIP3    H128636   5.259   5.635   0.236 -0.5270  0.3616 -0.4441
 2359TIP3    H228637   5.318   5.772   0.215 -0.5536  0.7542  1.8373
 2360TIP3   OH228638   6.391   5.987   2.447  0.6103 -0.2169 -0.1900
 2360TIP3    H128639   6.308   5.954   2.483  0.8570  0.8372  1.4604
 2360TIP3    H228640   6.367   6.065   2.397  0.5271 -0.3117 -0.2975
 2361TIP3   OH228641   1.146   3.706   3.115 -0.0480 -0.5955 -0.8349
 2361TIP3    H128642   1.102   3.661   3.044 -3.3860 -1.8524  1.7858
 2361TIP3    H228643   1.164   3.638   3.180  1.0879  0.7787  0.3660
 2362TIP3   OH228644   6.382   4.919   8.342  0.3476  0.3721 -0.5994
 2362TIP3    H128645   6.330   4.839   8.336  0.1902  0.5487 -1.8241
 2362TIP3    H228646   6.350   4.975   8.271  1.0404  1.1784 -0.3046
 2363TIP3   OH228647   5.279   2.203   8.361 -0.0048 -0.0751  1.0789
 2363TIP3    H128648   5.323   2.209   8.276  0.9967 -1.0513  1.5078
 2363TIP3    H228649   5.246   2.292   8.377 -2.1244 -0.3287 -1.3000
 2364TIP3   OH228650   3.841   1.275   1.760  0.3125  0.2314 -0.1932
 2364TIP3    H128651   3.896   1.200   1.735  1.3982  0.9579 -0.0732
 2364TIP3    H228652   3.805   1.307   1.677  0.1896 -0.1721 -0.2951
 2365TIP3   OH228653   4.907   3.572   7.565 -0.1126  0.0526 -0.0975
 2365TIP3    H128654   4.851   3.609   7.633  1.2700  0.9980  0.5628
 2365TIP3    H228655   4.846   3.541   7.498 -1.4114  1.4072  0.4065
 2366TIP3   OH228656   4.264   0.378   7.296 -0.5606 -0.8382  0.1860
 2366TIP3    H128657   4.242   0.395   7.205  1.0227  0.2839 -0.0169
 2366TIP3    H228658   4.278   0.283   7.300 -2.0929 -1.1122 -0.3796
 2367TIP3   OH228659   5.130   0.075   8.592  0.3286  0.2866 -0.2703
 2367TIP3    H128660   5.088   0.088   8.677 -0.1139  0.9261 -0.5786
 2367TIP3    H228661   5.153  -0.017   8.590  0.4642  0.2967  0.6010
 2368TIP3   OH228662   5.014   2.056   7.434 -0.0920  0.3986  0.1064
 2368TIP3    H128663   5.067   2.107   7.373 -0.7892  0.2191 -0.6653
 2368TIP3    H228664   5.016   2.106   7.516  3.7322 -1.0612  1.1085
 2369TIP3   OH228665   3.978   0.779   2.027  0.0439  0.5348  0.0390
 2369TIP3    H128666   3.934   0.780   1.941  0.6721  0.3101 -0.2883
 2369TIP3    H228667   3.925   0.720   2.080  0.1928 -0.0814 -0.4861
 2370TIP3   OH228668   3.230   3.885   1.348 -0.0588  0.4025 -0.3226
 2370TIP3    H128669   3.301   3.822   1.335 -1.8110 -2.0246  0.9400
 2370TIP3    H228670   3.186   3.890   1.263 -0.6503 -1.1175 -0.1294
 2371TIP3   OH228671   2.539   3.317   1.206 -0.2528  0.3585  0.0623
 2371TIP3    H128672   2.456   3.281   1.178 -1.2615  0.9708  2.0089
 2371TIP3    H228673   2.567   3.373   1.134 -1.8585  0.6068 -0.4169
 2372TIP3   OH228674   5.000   5.927   2.374  0.0682 -0.8022 -0.2083
 2372TIP3    H128675   4.964   6.009   2.409 -2.4850 -0.8888 -2.3591
 2372TIP3    H228676   5.083   5.953   2.335  0.4574  0.2757  1.2429
 2373TIP3   OH228677   1.109   0.684   2.109  0.2269  0.4027  0.0023
 2373TIP3    H128678   1.104   0.644   2.196  0.5931 -1.3426 -0.7451
 2373TIP3    H228679   1.053   0.629   2.054 -2.8656  3.4312 -0.2482
 2374TIP3   OH228680   5.598   6.334   1.793 -0.0370 -0.1861  0.4937
 2374TIP3    H128681   5.559   6.402   1.848  0.3143  1.1494 -0.8443
 2374TIP3    H228682   5.622   6.380   1.712  0.6688 -1.8103 -0.2511
 2375TIP3   OH228683   2.182   2.895   2.559  0.1628  0.1853 -0.1055
 2375TIP3    H128684   2.090   2.920   2.557  0.0658 -0.1250  0.3296
 2375TIP3    H228685   2.199   2.873   2.651 -0.0112 -2.2002 -0.5650
 2376TIP3   OH228686   6.809   5.749   7.887  0.4683  0.3751  0.4764
 2376TIP3    H128687   6.850   5.688   7.826  1.0832 -0.1119  1.3580
 2376TIP3    H228688   6.740   5.698   7.930 -0.5297  0.9504 -0.3865
 2377TIP3   OH228689   3.878   6.553   1.695 -0.0690 -0.3844  0.0148
 2377TIP3    H128690   3.839   6.531   1.610  1.9134 -2.2061 -0.4877
 2377TIP3    H228691   3.806   6.596   1.743 -1.8410 -1.1032 -1.8326
 2378TIP3   OH228692   0.732   3.005   1.255 -0.2900 -0.2733  0.0951
 2378TIP3    H128693   0.685   2.997   1.338 -1.2396  1.3360 -0.2561
 2378TIP3    H228694   0.823   3.018   1.280 -0.8492  2.3455  1.0130
 2379TIP3   OH228695   2.034   6.603   1.499  0.8614 -0.1856 -0.0310
 2379TIP3    H128696   1.968   6.552   1.452  0.2756  1.4082 -0.9997
 2379TIP3    H228697   2.115   6.553   1.489  0.3359 -0.8540 -1.0508
 2380TIP3   OH228698   5.723   5.949   8.026  0.1071  0.3681  0.0772
 2380TIP3    H128699   5.681   5.877   7.977  0.0250  1.6643 -1.8478
 2380TIP3    H228700   5.815   5.944   8.001  0.4325 -0.0956  1.2995
 2381TIP3   OH228701   4.099   3.639   0.257  0.1877 -0.4294 -0.8340
 2381TIP3    H128702   4.030   3.684   0.306  1.0405 -1.2230  1.1990
 2381TIP3    H228703   4.056   3.562   0.220  0.3375 -2.0586  2.1548
 2382TIP3   OH228704   4.866   5.951   0.282 -0.4567 -0.9426 -0.1560
 2382TIP3    H128705   4.825   6.008   0.216 -1.0226 -0.1688  0.8411
 2382TIP3    H228706   4.831   5.982   0.365 -0.2962 -2.3721  0.4623
 2383TIP3   OH228707   5.181   6.244   8.293 -0.3685 -0.5631  0.3533
 2383TIP3    H128708   5.198   6.152   8.269 -0.0655 -0.7269  1.1443
 2383TIP3    H228709   5.235   6.258   8.371  1.1849  0.8988 -0.8971
 2384TIP3   OH228710   1.398   4.857   1.297  0.1423 -0.2587  0.2995
 2384TIP3    H128711   1.395   4.847   1.202 -0.6966 -0.2650  0.3254
 2384TIP3    H228712   1.431   4.773   1.328 -1.6213 -1.0558  0.1414
 2385TIP3   OH228713   3.276   4.025   2.863  0.5812  0.0360  0.2805
 2385TIP3    H128714   3.239   3.984   2.941  1.2109  1.8303  1.5888
 2385TIP3    H228715   3.201   4.042   2.806  0.1210 -1.3412  0.4386
 2386TIP3   OH228716   0.117   3.066   1.193 -0.1581 -0.1403 -0.0292
 2386TIP3    H128717   0.083   3.147   1.155 -0.8224 -0.6251 -0.4981
 2386TIP3    H228718   0.058   2.998   1.161  1.2363 -1.0276 -0.8191
 2387TIP3   OH228719   2.663   0.809   8.015 -0.8055  0.1546 -0.7149
 2387TIP3    H128720   2.598   0.741   7.998 -0.9281  0.2475 -0.6125
 2387TIP3    H228721   2.697   0.831   7.928  2.4839 -3.2063 -0.5663
 2388TIP3   OH228722   1.858   5.188   0.758  0.2885 -0.2053  0.3507
 2388TIP3    H128723   1.776   5.236   0.744  0.7062  0.5912  0.5812
 2388TIP3    H228724   1.908   5.204   0.678  2.0059  2.9894  1.8858
 2389TIP3   OH228725   6.735   4.837   0.946  0.4413 -0.3813 -0.0345
 2389TIP3    H128726   6.798   4.903   0.917  0.8364 -0.3917  0.7607
 2389TIP3    H228727   6.728   4.776   0.873 -0.7590  1.1119 -1.2333
 2390TIP3   OH228728   2.861   5.125   0.729  0.1733 -0.0342 -0.1488
 2390TIP3    H128729   2.883   5.043   0.684  0.4498 -1.1157  1.8165
 2390TIP3    H228730   2.768   5.139   0.710  0.1923 -0.6639 -0.7357
 2391TIP3   OH228731   5.436   1.419   1.253  0.2556 -0.2706 -0.1021
 2391TIP3    H128732   5.523   1.439   1.286 -0.1387  1.3625  0.0590
 2391TIP3    H228733   5.412   1.337   1.295  0.6744  0.5921  1.9279
 2392TIP3   OH228734   0.257   3.626   2.331 -0.1461 -0.4159 -0.0470
 2392TIP3    H128735   0.224   3.710   2.364 -1.1681 -1.2011  1.0680
 2392TIP3    H228736   0.324   3.600   2.395  0.9127  0.0200 -0.9593
 2393TIP3   OH228737   5.695   6.340   2.775  0.0407  0.8322  0.5985
 2393TIP3    H128738   5.704   6.381   2.689  3.2883  0.4765  0.6580
 2393TIP3    H228739   5.699   6.246   2.758 -0.2623  0.7226  1.0919
 2394TIP3   OH228740   5.641   0.348   2.110 -0.0390 -0.0279  0.3919
 2394TIP3    H128741   5.608   0.393   2.033  2.6091  0.8737 -0.3152
 2394TIP3    H228742   5.650   0.417   2.176  1.7215  0.0582  0.0942
 2395TIP3   OH228743   5.548   5.033   2.243 -0.6430  0.6462 -0.0521
 2395TIP3    H128744   5.639   5.058   2.227 -1.2313  3.2112  0.1982
 2395TIP3    H228745   5.525   4.979   2.168  0.7964  0.7642 -0.6122
 2396TIP3   OH228746   1.412   1.952   7.983 -0.3843  0.0875 -0.0972
 2396TIP3    H128747   1.398   1.875   8.038 -1.8009  0.8396  0.6326
 2396TIP3    H228748   1.471   2.008   8.034  0.1889 -0.2355 -0.3867
 2397TIP3   OH228749   6.355   5.432   8.076 -0.1325 -0.8113  0.3034
 2397TIP3    H128750   6.278   5.422   8.020 -0.9515 -1.0828  1.4449
 2397TIP3    H228751   6.420   5.372   8.039 -0.7171 -1.1144 -0.2483
 2398TIP3   OH228752   5.289   2.738   2.727  0.2098  0.2248  0.2622
 2398TIP3    H128753   5.292   2.647   2.697 -0.5386  0.2043  0.2341
 2398TIP3    H228754   5.217   2.778   2.678  0.2101  0.6978  0.6313
 2399TIP3   OH228755   1.354   6.334   1.531  0.1398 -0.7753 -0.3010
 2399TIP3    H128756   1.270   6.312   1.492 -0.1149  0.7303 -0.6598
 2399TIP3    H228757   1.335   6.406   1.591  1.3391  0.5091 -1.3827
 2400TIP3   OH228758   4.479   4.630   2.421 -0.0581 -0.8599  0.2859
 2400TIP3    H128759   4.494   4.617   2.515  1.2784 -2.9560 -0.1441
 2400TIP3    H228760   4.488   4.724   2.408  0.4684 -0.6148  2.1483
 2401TIP3   OH228761   3.489   5.003   8.733 -0.0146 -0.4504  0.2071
 2401TIP3    H128762   3.497   5.072   8.799  0.2579 -0.9785  0.7401
 2401TIP3    H228763   3.544   5.032   8.660 -0.7285  0.3876 -0.0197
 2402TIP3   OH228764   2.411   1.284   8.667 -0.0611 -0.6201 -0.6497
 2402TIP3    H128765   2.423   1.360   8.724 -1.5538 -0.0493 -1.0492
 2402TIP3    H228766   2.351   1.227   8.715 -0.6175 -0.5514 -1.2504
 2403TIP3   OH228767   4.627   1.002   8.203 -0.6618  0.9296  0.7766
 2403TIP3    H128768   4.624   0.981   8.110 -1.8939  3.1558  0.2670
 2403TIP3    H228769   4.536   1.003   8.231 -0.2877 -0.2853  2.1924
 2404TIP3   OH228770   3.757   6.162   3.190  0.2059  0.5314 -0.0549
 2404TIP3    H128771   3.663   6.177   3.194 -0.1251 -1.4040  0.2839
 2404TIP3    H228772   3.775   6.141   3.099 -0.2532 -2.0553  0.3730
 2405TIP3   OH228773   5.700   4.650   8.087  0.6188  0.4004  0.0110
 2405TIP3    H128774   5.657   4.564   8.094 -0.5769  1.0187  0.5482
 2405TIP3    H228775   5.665   4.688   8.007  1.3152  0.3128 -0.3424
 2406TIP3   OH228776   2.575   1.510   0.453  0.1504  0.2006 -0.5129
 2406TIP3    H128777   2.519   1.476   0.383 -0.0657  2.0951 -1.3182
 2406TIP3    H228778   2.517   1.563   0.507  0.2219 -1.5709  1.4409
 2407TIP3   OH228779   5.961   3.386   2.677 -0.4387  0.1526 -0.1997
 2407TIP3    H128780   5.870   3.415   2.679 -0.2374  0.8265  1.6428
 2407TIP3    H228781   5.980   3.370   2.585 -2.0743  1.1062 -0.7326
 2408TIP3   OH228782   5.200   2.392   7.424 -0.6811  0.9652 -0.2975
 2408TIP3    H128783   5.278   2.429   7.467 -1.3955  2.0497  0.1256
 2408TIP3    H228784   5.234   2.323   7.367  0.3413 -0.2320  1.6827
 2409TIP3   OH228785   5.677   5.720   2.751  0.3601 -0.1859 -0.4251
 2409TIP3    H128786   5.587   5.717   2.783  0.5577  0.7238  0.2641
 2409TIP3    H228787   5.698   5.629   2.730 -0.2025 -0.6397  0.8825
 2410TIP3   OH228788   5.965   0.661   0.115  0.0544 -0.1151  0.3410
 2410TIP3    H128789   5.993   0.751   0.099  0.0471 -0.2141 -0.2322
 2410TIP3    H228790   6.037   0.622   0.165  0.1278  0.1599  0.4485
 2411TIP3   OH228791   6.482   0.734   1.345 -0.3464 -0.6743 -0.5191
 2411TIP3    H128792   6.449   0.815   1.384  0.8142 -1.1355  1.5921
 2411TIP3    H228793   6.552   0.763   1.286 -0.8479 -0.0621 -0.8181
 2412TIP3   OH228794   6.497   6.022   2.940  0.5387  0.6644  0.0688
 2412TIP3    H128795   6.517   5.943   2.890 -1.3163  0.3147 -0.1961
 2412TIP3    H228796   6.402   6.033   2.930  0.4637  1.8226  1.7263
 2413TIP3   OH228797   0.897   1.576   7.802 -0.1523  0.2176  0.3668
 2413TIP3    H128798   0.831   1.609   7.862 -2.5649 -2.3406 -0.6869
 2413TIP3    H228799   0.928   1.495   7.842 -1.7644 -1.5087 -1.6885
 2414TIP3   OH228800   6.207   5.450   8.332  0.6232  0.4129  0.4605
 2414TIP3    H128801   6.219   5.370   8.382  2.1836 -0.5338 -1.2731
 2414TIP3    H228802   6.261   5.437   8.253 -0.6308  2.3586 -0.8057
 2415TIP3   OH228803   4.198   3.120   0.615 -0.0821  0.0164  1.1004
 2415TIP3    H128804   4.142   3.148   0.543  1.0748  0.7716  0.4803
 2415TIP3    H228805   4.262   3.061   0.575 -1.5765 -2.5017  2.1280
 2416TIP3   OH228806   1.328   5.263   8.173  0.3571  0.4292  0.6441
 2416TIP3    H128807   1.305   5.174   8.149  1.1607  0.4044 -0.1053
 2416TIP3    H228808   1.419   5.257   8.204  0.4037  0.9753  0.6288
 2417TIP3   OH228809   6.127   3.231   0.786  0.4559  0.1882 -0.1856
 2417TIP3    H128810   6.173   3.305   0.826  0.4251  0.3533 -0.4553
 2417TIP3    H228811   6.042   3.229   0.829 -0.2145  1.3962 -1.4095
 2418TIP3   OH228812   0.572   1.353   2.179  0.1833 -0.1331  0.5995
 2418TIP3    H128813   0.568   1.364   2.274  0.0304 -0.3741  0.6219
 2418TIP3    H228814   0.604   1.263   2.167  1.0108  0.1773  0.4256
 2419TIP3   OH228815   4.544   0.093   2.728  0.0623  0.0822  0.2056
 2419TIP3    H128816   4.571   0.146   2.803 -2.2538 -0.3656  1.4443
 2419TIP3    H228817   4.626   0.061   2.690  1.3269  0.8359  2.1651
 2420TIP3   OH228818   4.808   1.037   1.595 -0.6257  0.3732 -0.1140
 2420TIP3    H128819   4.884   1.086   1.564 -0.3251 -0.2698 -0.4001
 2420TIP3    H228820   4.754   1.103   1.640 -1.2737  1.4526 -2.2881
 2421TIP3   OH228821   5.308   6.554   0.269 -0.3058 -0.1177  0.3593
 2421TIP3    H128822   5.285   6.569   0.361 -0.3060 -0.4920  0.4209
 2421TIP3    H228823   5.317   6.642   0.232 -0.4060  0.0340  0.6924
 2422TIP3   OH228824   1.634   3.169   1.315 -1.1598  0.0419  0.4682
 2422TIP3    H128825   1.678   3.248   1.282  0.1086 -0.6244  0.5273
 2422TIP3    H228826   1.672   3.097   1.264 -1.2303 -0.6946  1.4320
 2423TIP3   OH228827   2.937   6.178   7.757  0.1384 -0.1608  0.1471
 2423TIP3    H128828   2.877   6.145   7.824  0.8719 -2.0072 -0.0342
 2423TIP3    H228829   2.963   6.100   7.708  0.0377  1.0588 -1.9698
 2424TIP3   OH228830   4.225   2.682   0.229 -0.0576 -0.3430 -0.1416
 2424TIP3    H128831   4.308   2.681   0.181  0.1090 -1.9836  0.1260
 2424TIP3    H228832   4.158   2.666   0.162 -0.1683  0.7324 -0.3168
 2425TIP3   OH228833   5.435   6.169   1.615 -0.3028 -0.0173 -0.2135
 2425TIP3    H128834   5.433   6.080   1.652 -0.6581  0.4558  0.9652
 2425TIP3    H228835   5.416   6.226   1.690 -0.1594  1.0508 -0.9712
 2426TIP3   OH228836   6.036   6.600   7.401 -0.3488  0.3194  0.1137
 2426TIP3    H128837   6.043   6.634   7.490 -0.9034 -0.9003  0.6379
 2426TIP3    H228838   5.980   6.663   7.356 -0.5459  0.6303  0.7783
 2427TIP3   OH228839   2.397   3.984   8.457 -0.6289 -0.4370 -0.1394
 2427TIP3    H128840   2.385   3.948   8.546 -0.6231 -0.9110 -0.3242
 2427TIP3    H228841   2.312   4.021   8.434  0.0236  2.0035  1.0494
 2428TIP3   OH228842   5.441   5.425   1.666 -0.3020  0.0541  0.2079
 2428TIP3    H128843   5.370   5.366   1.639 -0.6368 -0.0334  1.2663
 2428TIP3    H228844   5.516   5.367   1.680 -0.0102  0.1405 -0.8542
 2429TIP3   OH228845   5.250   4.379   8.185  0.1714  0.0209  0.4306
 2429TIP3    H128846   5.198   4.445   8.231  0.9053 -0.1152  1.5043
 2429TIP3    H228847   5.285   4.323   8.255  0.7280 -0.6427 -0.3576
 2430TIP3   OH228848   3.664   2.343   1.960  0.4242  0.6461 -0.1307
 2430TIP3    H128849   3.615   2.264   1.984  0.8354 -0.1217 -1.6619
 2430TIP3    H228850   3.607   2.387   1.896  1.8291 -0.4866 -2.2778
 2431TIP3   OH228851   6.614   5.323   7.586 -0.3734  0.1804  0.2450
 2431TIP3    H128852   6.608   5.383   7.661  1.9471  1.0292 -0.1760
 2431TIP3    H228853   6.632   5.380   7.511  0.6525 -0.9259 -0.3840
 2432TIP3   OH228854   6.101   4.722   0.560 -0.1180  0.3859 -0.5571
 2432TIP3    H128855   6.051   4.799   0.531  2.8244  1.6618 -2.7857
 2432TIP3    H228856   6.139   4.687   0.479  1.4840 -1.2795  0.8463
 2433TIP3   OH228857   4.162   4.283   2.982 -0.5096 -0.2620 -0.2982
 2433TIP3    H128858   4.212   4.360   3.010  0.8484 -1.0794 -0.3946
 2433TIP3    H228859   4.204   4.255   2.901 -2.1997 -0.0045 -1.3192
 2434TIP3   OH228860   6.224   3.389   2.027  0.6795  0.3145  0.3068
 2434TIP3    H128861   6.184   3.404   1.941  0.0254 -0.3031  0.4921
 2434TIP3    H228862   6.182   3.453   2.084 -0.6197 -0.7994  0.6579
 2435TIP3   OH228863   5.489   6.524   1.958  0.0114 -0.2174 -0.5708
 2435TIP3    H128864   5.534   6.607   1.975 -1.0267 -0.1414  2.5663
 2435TIP3    H228865   5.435   6.510   2.036 -1.8006 -2.6151 -2.1050
 2436TIP3   OH228866   2.115   3.150   8.455 -0.1844  0.2003 -0.2586
 2436TIP3    H128867   2.037   3.129   8.405  0.3524 -1.5659 -0.4523
 2436TIP3    H228868   2.099   3.112   8.542 -0.3532  1.6180  0.3625
 2437TIP3   OH228869   2.139   1.301   1.761  0.2139  0.1067 -0.2383
 2437TIP3    H128870   2.184   1.220   1.786 -0.2459 -0.7296 -2.0087
 2437TIP3    H228871   2.104   1.334   1.844  1.5402 -0.7714  0.7278
 2438TIP3   OH228872   2.171   5.217   2.103  0.2199  0.0262 -0.1257
 2438TIP3    H128873   2.134   5.161   2.171  1.3407  0.3893  0.8206
 2438TIP3    H228874   2.098   5.233   2.043 -1.1609  0.6861  1.6252
 2439TIP3   OH228875   3.038   2.617   1.277 -0.6102 -0.0250  0.1165
 2439TIP3    H128876   3.058   2.565   1.355  0.7113  1.3029  0.7060
 2439TIP3    H228877   2.945   2.638   1.286 -0.9404 -1.4950  0.3236
 2440TIP3   OH228878   4.029   6.623   7.785  0.0795  0.8208 -0.1284
 2440TIP3    H128879   4.060   6.544   7.829  1.5759  1.4623  0.0508
 2440TIP3    H228880   3.959   6.593   7.727  0.7385 -0.6577 -0.2038
 2441TIP3   OH228881   0.411   4.833   0.534 -1.0591  0.2319  0.2436
 2441TIP3    H128882   0.399   4.928   0.537 -2.4450  0.1585 -1.4682
 2441TIP3    H228883   0.322   4.798   0.526 -0.4644 -1.0891 -1.1790
 2442TIP3   OH228884   6.069   1.163   8.477  0.3922  0.5390  0.3142
 2442TIP3    H128885   6.119   1.124   8.549 -0.2979 -0.3881  0.3151
 2442TIP3    H228886   6.093   1.111   8.400 -1.3396 -0.6450  0.5127
 2443TIP3   OH228887   1.209   1.551   0.520  0.7568  0.6079 -0.2519
 2443TIP3    H128888   1.134   1.503   0.484  1.4816  0.4920 -1.6932
 2443TIP3    H228889   1.265   1.483   0.558 -0.4177  0.8026  2.0357
 2444TIP3   OH228890   6.026   1.742   2.876  0.5066 -0.5076  0.4180
 2444TIP3    H128891   6.000   1.796   2.951  1.3164 -1.1128  1.1595
 2444TIP3    H228892   6.105   1.698   2.905  1.0074 -0.5279 -0.9207
 2445TIP3   OH228893   3.005   0.212   7.888  0.1943  0.2460 -0.4021
 2445TIP3    H128894   3.081   0.249   7.932 -0.2376 -0.7362  1.2297
 2445TIP3    H228895   3.039   0.134   7.844 -0.0550 -0.8790  1.3280
 2446TIP3   OH228896   4.198   2.438   0.991 -0.5559 -0.0841  0.6491
 2446TIP3    H128897   4.214   2.376   1.062  0.4456  0.0484  0.5506
 2446TIP3    H228898   4.252   2.406   0.919 -1.5217 -0.1844 -0.0459
 2447TIP3   OH228899   6.380   0.608   8.626  0.4235  0.1883  0.1488
 2447TIP3    H128900   6.441   0.569   8.688  1.0773  3.0384  1.4959
 2447TIP3    H228901   6.413   0.697   8.612 -1.7978  0.8823 -1.4011
 2448TIP3   OH228902   4.132   1.395   2.895  0.3275  1.4007 -0.5690
 2448TIP3    H128903   4.097   1.461   2.955 -0.2393  1.8680 -1.4055
 2448TIP3    H228904   4.204   1.355   2.944 -1.6278  0.0480  1.4153
 2449TIP3   OH228905   4.862   6.181   8.666 -0.0275  0.1186  0.3304
 2449TIP3    H128906   4.835   6.252   8.608  1.6653 -0.0112 -0.6837
 2449TIP3    H228907   4.878   6.224   8.751 -0.8613  0.6057  0.2509
 2450TIP3   OH228908   5.950   2.567   0.121  0.3666  0.3047 -0.6842
 2450TIP3    H128909   6.019   2.570   0.054  0.9799 -1.2923 -0.1733
 2450TIP3    H228910   5.889   2.500   0.090  0.5249 -0.2719  0.2013
 2451TIP3   OH228911   6.790   5.778   1.185  0.5481  0.5463 -0.0013
 2451TIP3    H128912   6.831   5.844   1.240  1.2621  1.9598 -2.1035
 2451TIP3    H228913   6.781   5.820   1.099  1.3603 -2.1938 -1.5579
 2452TIP3   OH228914   1.915   3.358   8.465  0.3341 -0.3991 -0.2481
 2452TIP3    H128915   2.003   3.328   8.485  0.3947  0.9093  1.7088
 2452TIP3    H228916   1.925   3.420   8.393  0.8675 -0.9092 -0.6231
 2453TIP3   OH228917   2.102   2.593   8.155  0.2333  0.0651 -0.3106
 2453TIP3    H128918   2.032   2.531   8.137  1.7566 -1.1577 -2.5478
 2453TIP3    H228919   2.157   2.549   8.220  1.2405 -0.9709 -1.7998
 2454TIP3   OH228920   1.351   2.717   0.957 -0.3517 -0.1408  0.2260
 2454TIP3    H128921   1.342   2.794   1.014  1.7904 -1.2925  2.2943
 2454TIP3    H228922   1.438   2.683   0.976 -0.8019 -2.4832 -1.4337
 2455TIP3   OH228923   6.218   0.804   7.388  0.0071 -0.1915  0.0467
 2455TIP3    H128924   6.169   0.726   7.362 -2.9666  1.7151 -0.6049
 2455TIP3    H228925   6.216   0.861   7.311  1.0300  1.0111  0.8707
 2456TIP3   OH228926   4.957   6.006   8.381 -0.3577  0.3137  0.2268
 2456TIP3    H128927   4.979   6.074   8.317 -3.7607  2.0477  0.6742
 2456TIP3    H228928   4.899   5.947   8.333  1.8074 -1.8573  0.1271
 2457TIP3   OH228929   1.876   5.813   8.352 -0.0955  0.2043  0.7161
 2457TIP3    H128930   1.790   5.772   8.341  0.2958 -0.4251 -0.0542
 2457TIP3    H228931   1.861   5.905   8.331 -0.5899  0.1012  0.5986
 2458TIP3   OH228932   0.419   3.387   1.836 -0.0182  0.0498  0.1107
 2458TIP3    H128933   0.330   3.363   1.865  0.3505 -1.2281  0.2410
 2458TIP3    H228934   0.470   3.307   1.847  0.6937  0.1747 -1.8819
 2459TIP3   OH228935   2.085   3.591   0.538 -0.6757 -0.5737  0.4678
 2459TIP3    H128936   2.116   3.613   0.626 -2.9324 -0.0331  1.1967
 2459TIP3    H228937   2.021   3.521   0.552 -2.6717  0.9724 -0.4256
 2460TIP3   OH228938   0.321   1.531   7.300  0.0054  0.7802  0.0597
 2460TIP3    H128939   0.263   1.583   7.355  0.3029  0.4036  0.7449
 2460TIP3    H228940   0.263   1.483   7.241 -0.2889  1.5295 -0.2607
 2461TIP3   OH228941   4.704   2.292   7.584  0.0521 -0.1473 -0.0721
 2461TIP3    H128942   4.659   2.336   7.511  0.9375 -0.0304 -0.5591
 2461TIP3    H228943   4.648   2.309   7.660  0.7721  2.6120 -0.0545
 2462TIP3   OH228944   1.093   5.636   2.996  0.8972  0.3487 -0.0230
 2462TIP3    H128945   1.174   5.621   2.947  0.4273 -0.6932 -0.5241
 2462TIP3    H228946   1.100   5.576   3.070  0.9020  0.7830  0.3272
 2463TIP3   OH228947   4.736   5.586   0.975  0.2628 -0.0308 -0.1919
 2463TIP3    H128948   4.687   5.667   0.986 -2.2625 -1.6314  1.2302
 2463TIP3    H228949   4.736   5.570   0.880 -2.3473 -0.1185 -0.2362
 2464TIP3   OH228950   2.649   5.310   1.478  0.0404 -0.2761  0.0817
 2464TIP3    H128951   2.639   5.398   1.513 -0.4896 -0.0119 -0.7164
 2464TIP3    H228952   2.689   5.260   1.550  1.0761  0.7859  0.2752
 2465TIP3   OH228953   2.087   3.945   2.520 -0.6438 -0.3590  0.0481
 2465TIP3    H128954   2.080   4.039   2.508 -0.3261 -0.1015  1.5822
 2465TIP3    H228955   2.106   3.910   2.433  0.3979  1.1196 -0.3592
 2466TIP3   OH228956   5.811   4.254   0.067  0.0531 -0.2417 -0.1871
 2466TIP3    H128957   5.784   4.165   0.092  1.0464 -0.8471 -1.1306
 2466TIP3    H228958   5.845   4.292   0.147  0.5766 -1.1184  0.0331
 2467TIP3   OH228959   2.795   5.157   3.257 -0.4925 -0.3153  0.0221
 2467TIP3    H128960   2.839   5.101   3.321 -0.1949  0.0317  0.1205
 2467TIP3    H228961   2.703   5.128   3.259 -0.8915  0.9557  1.9856
 2468TIP3   OH228962   3.708   1.657   1.315 -0.1406 -0.1531 -0.1746
 2468TIP3    H128963   3.773   1.593   1.286 -1.6242 -1.7831 -0.1012
 2468TIP3    H228964   3.642   1.658   1.245 -1.3915 -0.6335  0.9343
 2469TIP3   OH228965   1.347   0.576   0.876 -0.2242  0.7429  0.4696
 2469TIP3    H128966   1.340   0.669   0.852 -0.4214  0.6836  0.2968
 2469TIP3    H228967   1.367   0.577   0.970 -0.3105  0.9585  0.4864
 2470TIP3   OH228968   3.657   6.569   0.236 -0.4527 -0.2488 -0.3749
 2470TIP3    H128969   3.687   6.507   0.302 -0.8161 -1.3730 -1.2411
 2470TIP3    H228970   3.575   6.604   0.271  0.3358  0.6558  0.6509
 2471TIP3   OH228971   6.480   4.099   0.159 -0.1676  0.5336  0.3445
 2471TIP3    H128972   6.441   4.068   0.077 -2.1297 -1.3293  1.8537
 2471TIP3    H228973   6.570   4.066   0.157  1.0064  3.3636 -2.4165
 2472TIP3   OH228974   4.245   0.482   7.029  0.4266  0.2368  0.1340
 2472TIP3    H128975   4.296   0.405   7.002  1.0688  1.1734 -1.4548
 2472TIP3    H228976   4.154   0.459   7.008  0.6978  0.1808 -1.0255
 2473TIP3   OH228977   2.932   5.335   1.838  0.0264 -0.1871  0.0297
 2473TIP3    H128978   2.856   5.289   1.802 -0.2696  0.0561  0.3375
 2473TIP3    H228979   2.939   5.415   1.786 -0.6227  0.3413  0.7381
 2474TIP3   OH228980   0.842   0.171   1.222  0.1046  0.1193  0.1049
 2474TIP3    H128981   0.747   0.162   1.231 -0.0299  2.2032  1.2291
 2474TIP3    H228982   0.854   0.244   1.161  1.0627 -1.6239 -1.9507
 2475TIP3   OH228983   1.145   2.832   0.754 -0.1266 -0.2675 -0.4885
 2475TIP3    H128984   1.174   2.922   0.768  0.6063 -0.2069 -2.1593
 2475TIP3    H228985   1.220   2.778   0.779 -0.9178 -0.5378  1.5429
 2476TIP3   OH228986   4.500   5.806   8.297 -0.2579 -0.5517  0.1928
 2476TIP3    H128987   4.483   5.900   8.295  3.0348  0.1780  0.6586
 2476TIP3    H228988   4.448   5.774   8.370  1.3505  1.6679  2.4770
 2477TIP3   OH228989   2.700   6.158   0.188  0.5265 -0.2824 -0.3346
 2477TIP3    H128990   2.720   6.252   0.187 -0.7239  0.0281  0.8525
 2477TIP3    H228991   2.785   6.115   0.176  1.2240  0.9943 -0.1527
 2478TIP3   OH228992   4.764   3.203   0.682  0.0464 -0.1904  0.2621
 2478TIP3    H128993   4.766   3.220   0.588  1.8542 -0.6598  0.1877
 2478TIP3    H228994   4.718   3.119   0.690  1.4474 -1.0597 -0.4004
 2479TIP3   OH228995   4.981   3.440   0.954 -0.1131 -0.2587 -0.1088
 2479TIP3    H128996   4.907   3.493   0.983  0.5810  0.3630  0.5733
 2479TIP3    H228997   4.976   3.361   1.008 -0.7863 -0.6227 -0.6898
 2480TIP3   OH228998   1.214   4.651   1.003 -0.1706  0.4111  0.0241
 2480TIP3    H128999   1.292   4.704   0.991 -0.4872  0.7542 -0.6093
 2480TIP3    H229000   1.178   4.678   1.088  0.0425  0.7226  0.0153
 2481TIP3   OH229001   2.970   5.920   8.703  0.5648 -0.2997  0.0051
 2481TIP3    H129002   2.976   5.859   8.630  0.4773  0.7952 -0.9298
 2481TIP3    H229003   3.059   5.955   8.713  0.8913 -1.3692  1.2751
 2482TIP3   OH229004   2.294   3.148   2.903 -0.1893 -0.0283 -0.5023
 2482TIP3    H129005   2.343   3.072   2.873 -0.5762 -0.0160 -1.1905
 2482TIP3    H229006   2.352   3.222   2.887  0.0860 -0.1433 -0.0696
 2483TIP3   OH229007   4.052   0.329   3.016 -0.5620 -0.4948 -0.2104
 2483TIP3    H129008   4.119   0.384   3.055  1.3923 -1.1746 -2.4119
 2483TIP3    H229009   4.001   0.296   3.091  2.4144 -1.0524  1.7143
 2484TIP3   OH229010   6.596   4.716   8.367  0.1840  0.0308 -0.5822
 2484TIP3    H129011   6.535   4.788   8.351  2.1076  2.1025  0.7200
 2484TIP3    H229012   6.598   4.708   8.462 -0.9529 -2.7473 -0.7009
 2485TIP3   OH229013   1.530   2.365   7.774 -0.0666  0.0404  0.3790
 2485TIP3    H129014   1.547   2.271   7.761  1.2620  0.0773  1.6749
 2485TIP3    H229015   1.510   2.398   7.686 -0.8762 -1.5080 -0.0560
 2486TIP3   OH229016   5.941   6.253   7.949  0.1138 -0.0425 -0.7935
 2486TIP3    H129017   5.937   6.302   8.032 -1.4188 -0.7270 -0.4329
 2486TIP3    H229018   5.855   6.265   7.910  0.5512 -0.4275 -1.8972
 2487TIP3   OH229019   2.192   3.632   1.527 -0.7800  0.1004 -0.0559
 2487TIP3    H129020   2.107   3.588   1.526  0.0418 -1.7607  2.7413
 2487TIP3    H229021   2.256   3.563   1.510  0.3051  1.1606 -0.4576
 2488TIP3   OH229022   5.793   0.494   0.561  0.4069 -0.4140  0.4763
 2488TIP3    H129023   5.811   0.547   0.483 -0.9685  0.0191  0.4099
 2488TIP3    H229024   5.878   0.464   0.591  1.3324  2.4009  0.9059
 2489TIP3   OH229025   6.166   2.745   1.746 -0.0432 -0.0687 -0.0093
 2489TIP3    H129026   6.074   2.718   1.748 -0.0280 -0.1323 -0.1354
 2489TIP3    H229027   6.191   2.737   1.654 -0.0003  0.2503 -0.0254
 2490TIP3   OH229028   4.889   4.464   2.171 -0.1195  0.3164  0.8334
 2490TIP3    H129029   4.971   4.514   2.174 -0.7547  1.3935  1.0316
 2490TIP3    H229030   4.916   4.375   2.151  0.9854  0.9459 -0.7690
 2491TIP3   OH229031   2.656   5.076   7.463 -0.4153  0.1289 -0.0978
 2491TIP3    H129032   2.604   5.156   7.463  2.0762  1.8602 -0.0997
 2491TIP3    H229033   2.679   5.063   7.555 -0.3498 -0.2752 -0.1699
 2492TIP3   OH229034   0.423   2.183   0.161 -0.0586 -0.0288  0.7172
 2492TIP3    H129035   0.413   2.167   0.255 -0.3753  0.4859  0.7733
 2492TIP3    H229036   0.393   2.273   0.148 -0.7598 -0.3498  0.0031
 2493TIP3   OH229037   4.077   1.805   8.178 -0.6376  0.5340  0.3302
 2493TIP3    H129038   4.064   1.870   8.109  0.5839  0.3023 -0.1401
 2493TIP3    H229039   4.157   1.832   8.222  0.0015 -0.7195  0.0137
 2494TIP3   OH229040   4.353   5.222   2.213  0.6397 -0.0927 -0.4359
 2494TIP3    H129041   4.430   5.175   2.181  0.6650 -0.4227  0.0962
 2494TIP3    H229042   4.278   5.174   2.176  0.6796  0.9551 -1.9783
 2495TIP3   OH229043   5.904   6.791   1.982 -0.3151  0.3287 -0.1931
 2495TIP3    H129044   5.971   6.726   1.961  0.5060  0.9643  0.3962
 2495TIP3    H229045   5.946   6.875   1.965 -0.7973  0.7504  0.6408
 2496TIP3   OH229046   4.208   4.862   0.562  0.2199 -0.0675  0.2014
 2496TIP3    H129047   4.137   4.923   0.580 -0.5395 -0.9714  0.3094
 2496TIP3    H229048   4.202   4.845   0.468  0.4998  0.0902  0.1514
 2497TIP3   OH229049   6.760   4.261   0.524  0.2705  0.0746 -0.3283
 2497TIP3    H129050   6.791   4.261   0.614  4.2928 -0.8900 -1.5384
 2497TIP3    H229051   6.763   4.352   0.497 -0.8239  0.3497  0.4153
 2498TIP3   OH229052   0.651   5.231   0.132  0.2415  0.4199  0.0114
 2498TIP3    H129053   0.731   5.243   0.080  0.9162  0.6192  1.0687
 2498TIP3    H229054   0.586   5.285   0.088  0.1955 -1.0444 -1.8638
 2499TIP3   OH229055   2.609   3.146   2.324  0.6137 -0.0056 -0.0577
 2499TIP3    H129056   2.581   3.109   2.407  0.5692 -0.6088 -0.3359
 2499TIP3    H229057   2.541   3.209   2.300 -0.5151 -1.4376 -0.7191
 2500TIP3   OH229058   1.447   0.663   2.364 -0.6308 -0.3382  0.1149
 2500TIP3    H129059   1.390   0.656   2.288  0.9472 -1.1381 -1.0655
 2500TIP3    H229060   1.491   0.578   2.369  0.5731  0.2937  0.8367
 2501TIP3   OH229061   1.819   5.487   6.991  0.0667  0.3703  0.3482
 2501TIP3    H129062   1.758   5.456   7.058 -0.0120  0.3355  0.2602
 2501TIP3    H229063   1.840   5.576   7.018 -1.0756  0.8694 -0.3583
 2502TIP3   OH229064   1.169   2.028   8.486  0.0913  0.3238  0.2468
 2502TIP3    H129065   1.207   2.105   8.443  0.9724 -0.2209  0.0288
 2502TIP3    H229066   1.074   2.041   8.478  0.1699  2.0794  1.4369
 2503TIP3   OH229067   0.449   5.317   6.969 -0.3066  0.2960  0.6026
 2503TIP3    H129068   0.393   5.388   6.938 -0.3217 -0.2439 -0.6545
 2503TIP3    H229069   0.391   5.242   6.976  0.2486 -0.3096 -0.8666
 2504TIP3   OH229070   2.335   6.065   1.841 -0.0929  0.1433  0.2170
 2504TIP3    H129071   2.374   6.026   1.919  0.9409  0.2430 -0.2373
 2504TIP3    H229072   2.355   6.159   1.849  0.1065  0.1376 -0.2229
 2505TIP3   OH229073   0.316   4.176   8.137 -0.1996 -0.0004  0.0072
 2505TIP3    H129074   0.397   4.222   8.113  0.3864 -1.1069 -0.1821
 2505TIP3    H229075   0.294   4.125   8.059 -0.2097 -0.9164  0.5946
 2506TIP3   OH229076   0.952   0.397   0.588  0.3570 -0.3002  0.0909
 2506TIP3    H129077   0.935   0.487   0.559  0.5444 -0.8316 -1.8727
 2506TIP3    H229078   1.042   0.398   0.618  0.0948  0.3387  0.8794
 2507TIP3   OH229079   4.385   0.889   2.487 -0.4456  0.2148 -0.0373
 2507TIP3    H129080   4.388   0.951   2.560  0.4692 -0.0929  0.2077
 2507TIP3    H229081   4.353   0.941   2.413  3.8531  2.1777 -0.8852
 2508TIP3   OH229082   4.016   4.225   0.271 -0.1021  0.2209 -0.5319
 2508TIP3    H129083   3.975   4.183   0.347 -1.3014  2.5877  0.2262
 2508TIP3    H229084   4.109   4.231   0.294 -0.0703 -1.0533 -0.2428
 2509TIP3   OH229085   4.580   2.051   8.553 -0.4129  0.3169 -0.2622
 2509TIP3    H129086   4.555   1.960   8.539  0.6921  0.0226 -0.4702
 2509TIP3    H229087   4.619   2.053   8.640  2.2560 -0.0752 -1.3496
 2510TIP3   OH229088   0.632   0.950   1.819 -0.3536 -0.5180 -0.1676
 2510TIP3    H129089   0.707   0.924   1.872  0.4491  1.0083 -0.5081
 2510TIP3    H229090   0.576   0.999   1.879 -2.4439 -3.7342  0.7922
 2511TIP3   OH229091   1.553   5.010   8.405  0.1810  0.1781  0.7112
 2511TIP3    H129092   1.615   4.978   8.472 -1.1698 -1.9756  1.0500
 2511TIP3    H229093   1.592   4.982   8.322  0.3199  0.0310  0.8245
 2512TIP3   OH229094   2.401   1.710   7.962  0.8905 -0.2505 -0.3457
 2512TIP3    H129095   2.438   1.713   7.874  1.6182  1.8169 -0.0380
 2512TIP3    H229096   2.415   1.799   7.996 -1.0039 -0.4810  1.1846
 2513TIP3   OH229097   4.618   5.042   7.587 -0.6742  0.0587  0.7933
 2513TIP3    H129098   4.660   4.962   7.557 -0.8394 -0.5029  2.0037
 2513TIP3    H229099   4.688   5.092   7.629 -0.4984  0.7225 -0.2498
 2514TIP3   OH229100   2.609   4.990   8.416  0.7582 -0.0193  0.3836
 2514TIP3    H129101   2.562   5.033   8.488 -1.5957 -2.5020  0.5141
 2514TIP3    H229102   2.585   5.039   8.338  2.2953  1.9158  1.0407
 2515TIP3   OH229103   1.681   4.943   8.172 -1.2566  0.3550 -0.0672
 2515TIP3    H129104   1.766   4.918   8.135 -0.0776  4.7917 -0.9229
 2515TIP3    H229105   1.617   4.909   8.110 -0.0316 -1.4716 -0.4177
 2516TIP3   OH229106   1.194   3.854   7.434  0.2635 -0.3622  0.1836
 2516TIP3    H129107   1.197   3.948   7.451  0.0332 -0.1418 -0.9072
 2516TIP3    H229108   1.261   3.816   7.490  1.1888  0.5979 -0.2586
 2517TIP3   OH229109   2.574   1.763   2.324  0.3505  0.5272  0.7139
 2517TIP3    H129110   2.558   1.696   2.258 -0.2223  0.9863  0.3658
 2517TIP3    H229111   2.624   1.719   2.392 -0.2739 -0.3322  0.6356
 2518TIP3   OH229112   4.715   6.074   7.532  0.0687  0.1133  0.2279
 2518TIP3    H129113   4.707   6.130   7.455 -0.3593  0.5857  0.6144
 2518TIP3    H229114   4.699   5.986   7.499 -1.1369  0.4221 -0.0353
 2519TIP3   OH229115   5.487   2.345   2.145  0.3622 -0.0741  0.4096
 2519TIP3    H129116   5.450   2.428   2.174  0.0689  0.7138 -2.0545
 2519TIP3    H229117   5.548   2.321   2.215  1.4786  2.8760  0.5777
 2520TIP3   OH229118   1.587   0.141   7.568  0.1142 -0.3685  0.1857
 2520TIP3    H129119   1.652   0.104   7.508 -0.2486  1.2348 -1.3075
 2520TIP3    H229120   1.620   0.229   7.587 -1.1738  0.1514  0.0931
 2521TIP3   OH229121   1.353   6.138   7.867 -0.0756  0.3581 -0.0047
 2521TIP3    H129122   1.352   6.197   7.791  1.7920  0.7737  0.2290
 2521TIP3    H229123   1.351   6.197   7.943 -1.2711 -0.0272  0.2718
 2522TIP3   OH229124   4.292   1.472   2.683  0.3461  0.2378  0.3878
 2522TIP3    H129125   4.217   1.469   2.743 -0.4664 -0.2810 -0.6165
 2522TIP3    H229126   4.347   1.543   2.717 -0.7086  0.7836  1.0273
 2523TIP3   OH229127   4.360   3.651   2.499 -0.2240  0.6890  0.3916
 2523TIP3    H129128   4.383   3.560   2.514  0.2486  0.8587  0.7417
 2523TIP3    H229129   4.283   3.648   2.443  1.0953  0.1005 -1.5010
 2524TIP3   OH229130   4.734   5.939   1.957 -0.4387  0.0167  0.2645
 2524TIP3    H129131   4.713   5.892   2.038 -0.6796  1.6122  1.1691
 2524TIP3    H229132   4.827   5.921   1.942 -0.8707 -1.9648 -0.2807
 2525TIP3   OH229133   6.745   3.678   1.617  0.0304 -0.5879 -0.1911
 2525TIP3    H129134   6.669   3.677   1.676  0.2041  2.1837  0.2372
 2525TIP3    H229135   6.820   3.663   1.673  0.0271 -0.1791 -0.0760
 2526TIP3   OH229136   2.247   0.313   6.848 -0.4121 -0.1605 -0.0775
 2526TIP3    H129137   2.168   0.335   6.896 -0.5343 -0.9112  0.0867
 2526TIP3    H229138   2.253   0.217   6.855  2.1400  0.0345  2.5632
 2527TIP3   OH229139   3.992   5.864   2.643  0.1705  0.8137  0.1597
 2527TIP3    H129140   3.902   5.872   2.672 -0.4817 -0.0523 -1.4678
 2527TIP3    H229141   4.033   5.804   2.705 -1.4446 -1.8019 -1.1325
 2528TIP3   OH229142   3.034   3.016   0.786 -0.4249  0.5927 -0.0496
 2528TIP3    H129143   3.038   2.948   0.719 -0.2000 -0.6644  1.1869
 2528TIP3    H229144   2.946   3.009   0.822 -0.0697  0.2551  0.7737
 2529TIP3   OH229145   4.698   5.973   0.755 -0.2785  0.2820  0.2225
 2529TIP3    H129146   4.783   5.952   0.716 -0.8408 -1.4963 -0.1589
 2529TIP3    H229147   4.715   6.045   0.814  1.4472  0.1280 -0.0458
 2530TIP3   OH229148   6.772   5.733   7.258  0.2828 -0.5211  0.3455
 2530TIP3    H129149   6.834   5.696   7.196  2.3548 -0.8350  2.4753
 2530TIP3    H229150   6.792   5.827   7.259  0.3703 -0.5424  0.6573
 2531TIP3   OH229151   4.009   0.714   8.072 -0.5234 -0.6371 -0.1580
 2531TIP3    H129152   4.089   0.677   8.110 -0.3457  1.1235  1.2843
 2531TIP3    H229153   3.938   0.666   8.115 -0.2798 -0.2299  0.7127
 2532TIP3   OH229154   6.139   3.655   1.693  0.1772  0.2897  0.0448
 2532TIP3    H129155   6.207   3.713   1.728 -1.2445  0.7720  2.1917
 2532TIP3    H229156   6.134   3.676   1.600  1.2139  2.0355  0.3487
 2533TIP3   OH229157   1.426   0.169   1.057 -0.8971  0.3591  0.1205
 2533TIP3    H129158   1.331   0.162   1.053 -0.8739  0.4341 -0.8161
 2533TIP3    H229159   1.453   0.179   0.966 -0.0710  1.4820  0.4717
 2534TIP3   OH229160   1.299   2.262   8.334  0.0358 -0.2517 -0.2941
 2534TIP3    H129161   1.216   2.309   8.326  0.8544  1.5234  0.9146
 2534TIP3    H229162   1.328   2.281   8.423  0.5563 -2.9281  0.1958
 2535TIP3   OH229163   4.322   5.410   2.893  0.2427 -0.1790  0.2098
 2535TIP3    H129164   4.310   5.502   2.914  0.4040  0.3712 -1.8790
 2535TIP3    H229165   4.400   5.407   2.838 -0.9972 -1.2027 -1.6341
 2536TIP3   OH229166   3.795   3.312   0.368  0.1283 -0.8717 -0.3601
 2536TIP3    H129167   3.712   3.265   0.355  0.8275 -2.5841  0.8717
 2536TIP3    H229168   3.779   3.369   0.442 -0.0669 -0.8739 -0.3992
 2537TIP3   OH229169   6.418   3.702   0.823 -0.3723 -0.4146  0.0528
 2537TIP3    H129170   6.437   3.794   0.839 -0.1465 -0.5850  0.8341
 2537TIP3    H229171   6.348   3.702   0.758 -0.4663  0.3047  0.1534
 2538TIP3   OH229172   1.370   1.278   0.327 -0.6308 -0.2509  0.1469
 2538TIP3    H129173   1.426   1.226   0.270 -0.7793 -0.6664  0.3729
 2538TIP3    H229174   1.397   1.254   0.416  0.5269  1.3761  0.2967
 2539TIP3   OH229175   0.863   0.116   7.396 -0.6222 -0.1992  0.2233
 2539TIP3    H129176   0.772   0.094   7.412 -0.7309  0.6082  0.7913
 2539TIP3    H229177   0.872   0.206   7.428  0.6289 -0.6271  1.1980
 2540TIP3   OH229178   3.809   6.579   8.134  0.0401  0.1435 -0.1224
 2540TIP3    H129179   3.869   6.527   8.081 -0.4794 -1.5300  0.8612
 2540TIP3    H229180   3.737   6.520   8.154 -2.2371  2.2164 -1.6339
 2541TIP3   OH229181   5.718   5.267   2.287  0.2993 -0.1075 -0.4109
 2541TIP3    H129182   5.695   5.296   2.375 -0.3681 -0.3724 -0.4902
 2541TIP3    H229183   5.809   5.237   2.294  1.0145  1.9663 -0.3402
 2542TIP3   OH229184   4.528   6.787   7.448  0.4360 -0.6608  0.2087
 2542TIP3    H129185   4.510   6.795   7.354 -1.9681 -1.5084  0.5199
 2542TIP3    H229186   4.595   6.853   7.465  0.4291 -0.0008 -1.9749
 2543TIP3   OH229187   1.979   5.963   0.420 -0.1532  0.6010 -1.1178
 2543TIP3    H129188   1.890   5.934   0.442  0.6180 -0.0212  1.6856
 2543TIP3    H229189   2.033   5.884   0.430  0.8770  1.2070 -1.6505
 2544TIP3   OH229190   3.969   5.940   0.553 -0.2420 -0.1984 -0.0652
 2544TIP3    H129191   3.876   5.959   0.565  0.0036  2.0314 -1.1181
 2544TIP3    H229192   3.971   5.857   0.506 -1.6901 -0.2868 -0.0100
 2545TIP3   OH229193   1.393   0.241   1.333  0.5842 -0.2914  0.0152
 2545TIP3    H129194   1.406   0.214   1.242 -0.3407 -1.1944  0.1372
 2545TIP3    H229195   1.448   0.181   1.384  0.3039 -0.4594  0.1223
 2546TIP3   OH229196   3.358   5.120   2.118 -0.3081  0.0290  0.1243
 2546TIP3    H129197   3.281   5.121   2.062  0.7627 -3.0974 -1.6677
 2546TIP3    H229198   3.419   5.181   2.076 -0.2498 -0.7954 -1.0383
 2547TIP3   OH229199   4.992   3.811   7.995 -0.4115 -0.1888  0.4242
 2547TIP3    H129200   5.077   3.844   8.024 -0.7332  1.4642 -0.4120
 2547TIP3    H229201   4.993   3.821   7.899 -1.7904  0.4853  0.4549
 2548TIP3   OH229202   1.146   5.930   7.571  0.2052 -0.3984  0.1795
 2548TIP3    H129203   1.127   5.840   7.597  1.3743 -1.1713 -1.4042
 2548TIP3    H229204   1.192   5.968   7.646  0.0330 -1.2345  0.7207
 2549TIP3   OH229205   0.830   0.776   7.094  0.3269  0.2476  0.2254
 2549TIP3    H129206   0.924   0.789   7.102  0.2815  0.4380  0.4756
 2549TIP3    H229207   0.820   0.703   7.033  0.6257  0.4812 -0.1032
 2550TIP3   OH229208   3.715   4.113   8.626 -0.2786 -0.0949 -0.3811
 2550TIP3    H129209   3.719   4.208   8.621  1.7979 -0.1968 -2.1232
 2550TIP3    H229210   3.730   4.093   8.719 -1.3682  1.2439  0.1230
 2551TIP3   OH229211   2.533   6.383   8.512  0.4324  0.2044 -0.2615
 2551TIP3    H129212   2.521   6.306   8.567  0.4813  0.4014  0.0300
 2551TIP3    H229213   2.578   6.350   8.434 -0.5865 -0.2651 -0.6691
 2552TIP3   OH229214   3.485   5.028   1.805  0.3057 -0.7328 -0.1710
 2552TIP3    H129215   3.487   5.122   1.788  1.3890 -1.0123 -1.9128
 2552TIP3    H229216   3.417   5.016   1.871 -0.2961  1.1917 -0.3894
 2553TIP3   OH229217   0.231   2.524   2.808 -0.3260  0.2948 -0.2134
 2553TIP3    H129218   0.271   2.512   2.722  0.9597  0.3363  0.3633
 2553TIP3    H229219   0.298   2.568   2.860 -1.1271  0.3690  0.7846
 2554TIP3   OH229220   4.290   1.400   8.778  0.4658  0.1019  0.2319
 2554TIP3    H129221   4.243   1.322   8.749  0.7250  0.0733 -0.1182
 2554TIP3    H229222   4.289   1.394   8.874 -0.8655  0.4799  0.2653
 2555TIP3   OH229223   4.413   6.014   7.403  0.6707  0.4932 -0.1625
 2555TIP3    H129224   4.391   5.925   7.430  2.3728 -0.0494 -0.4451
 2555TIP3    H229225   4.444   6.005   7.313 -0.9897  1.6853 -0.9034
 2556TIP3   OH229226   2.607   6.779   1.580 -0.1509  0.3299 -0.3093
 2556TIP3    H129227   2.593   6.691   1.545  2.1059 -1.2157  2.2376
 2556TIP3    H229228   2.525   6.801   1.624  0.1950 -1.9021  1.6182
 2557TIP3   OH229229   3.959   0.794   0.636 -0.0887  0.1147  0.5458
 2557TIP3    H129230   3.900   0.723   0.663 -0.3031  0.1232  0.1125
 2557TIP3    H229231   3.900   0.864   0.608  0.1246  0.4430  0.9161
 2558TIP3   OH229232   1.894   2.636   3.002  0.2602 -0.0751  0.1164
 2558TIP3    H129233   1.916   2.647   3.094 -1.7806  0.8709  0.5486
 2558TIP3    H229234   1.867   2.544   2.994 -0.9919  0.2058  0.8376
 2559TIP3   OH229235   1.314   2.565   8.686  0.1867 -0.8143  0.5931
 2559TIP3    H129236   1.264   2.574   8.767 -0.0883 -4.2095  0.9618
 2559TIP3    H229237   1.403   2.588   8.710 -0.4450  1.7031  0.8535
 2560TIP3   OH229238   5.930   1.992   8.500  0.0305  0.0862 -0.5511
 2560TIP3    H129239   5.874   2.045   8.444  0.2135  0.2275 -0.6037
 2560TIP3    H229240   5.924   1.904   8.464 -1.3378 -0.2144  0.3513
 2561TIP3   OH229241   0.364   1.177   2.341  0.1593 -0.3170  0.1463
 2561TIP3    H129242   0.341   1.267   2.318 -0.0279 -0.5055 -0.4293
 2561TIP3    H229243   0.453   1.183   2.377 -0.5373  0.3308  1.8401
 2562TIP3   OH229244   1.163   3.141   7.658 -0.2255 -0.0582 -0.4753
 2562TIP3    H129245   1.231   3.204   7.637  0.7691 -0.7348  0.5567
 2562TIP3    H229246   1.203   3.056   7.642  0.1218 -0.5713  2.4735
 2563TIP3   OH229247   3.503   3.621   7.585 -0.0413  0.1117 -0.4764
 2563TIP3    H129248   3.550   3.607   7.667 -1.2707  0.1416  0.2668
 2563TIP3    H229249   3.472   3.533   7.561  0.4249  0.0834 -0.9824
 2564TIP3   OH229250   6.214   0.608   7.827  0.2804  0.3278 -0.2390
 2564TIP3    H129251   6.160   0.609   7.748  2.4063  1.2529 -1.7598
 2564TIP3    H229252   6.261   0.525   7.822 -0.8564 -0.4498  1.0557
 2565TIP3   OH229253   4.439   6.654   8.406 -0.2702 -0.8500 -0.3225
 2565TIP3    H129254   4.503   6.722   8.429 -0.0165 -0.3547 -2.3009
 2565TIP3    H229255   4.459   6.633   8.314  0.5405 -4.5946  0.5682
 2566TIP3   OH229256   4.064   5.638   2.802 -0.5810  0.3321 -0.4283
 2566TIP3    H129257   4.052   5.544   2.788 -0.3371  0.1748  0.3837
 2566TIP3    H229258   4.151   5.646   2.840 -1.5481  0.6263  1.8947
 2567TIP3   OH229259   1.022   3.088   2.409  0.0164 -0.1590 -0.2168
 2567TIP3    H129260   1.034   3.022   2.478  1.4191  2.0223  1.7864
 2567TIP3    H229261   1.032   3.171   2.455 -5.3481  1.7420 -1.8152
 2568TIP3   OH229262   4.199   2.011   1.063  0.3403 -0.0712  0.4149
 2568TIP3    H129263   4.205   2.107   1.071  1.2838  0.1065 -1.7592
 2568TIP3    H229264   4.179   1.981   1.152 -1.5239  2.2328  0.8692
 2569TIP3   OH229265   0.429   3.629   0.420 -0.3331  0.0062  0.0639
 2569TIP3    H129266   0.427   3.553   0.362 -0.9988 -0.9725  1.3249
 2569TIP3    H229267   0.497   3.686   0.383 -0.3810 -0.8312 -1.3483
 2570TIP3   OH229268   0.579   1.341   8.653  0.4256 -0.0084 -0.3794
 2570TIP3    H129269   0.515   1.292   8.705  1.5643 -1.2468 -0.0796
 2570TIP3    H229270   0.608   1.279   8.586  0.9268  0.6943 -0.8270
 2571TIP3   OH229271   2.811   0.460   2.888 -0.4792  0.8709 -1.0988
 2571TIP3    H129272   2.726   0.451   2.931  0.3000 -0.4011  0.2289
 2571TIP3    H229273   2.847   0.542   2.923  0.4301 -0.4501  1.3508
 2572TIP3   OH229274   2.042   4.377   1.739 -0.2989 -0.1924 -0.6838
 2572TIP3    H129275   2.052   4.368   1.644  2.2762 -0.9342 -0.4105
 2572TIP3    H229276   2.056   4.289   1.773  0.0400  0.2861  0.4543
 2573TIP3   OH229277   5.197   6.018   6.768  0.1477  0.2096  0.1031
 2573TIP3    H129278   5.261   5.958   6.808  1.0767  1.9378  1.3677
 2573TIP3    H229279   5.172   5.975   6.686  0.6066 -1.9687  1.0210
 2574TIP3   OH229280   6.027   2.398   1.078  0.0579  0.5312  0.2643
 2574TIP3    H129281   5.984   2.471   1.032  0.5573  0.1803 -0.8099
 2574TIP3    H229282   5.959   2.332   1.085 -0.1370  0.7420  0.3817
 2575TIP3   OH229283   4.041   5.928   0.100 -0.2066 -0.1117  0.0958
 2575TIP3    H129284   3.974   5.872   0.139 -1.2965  1.1886  0.1647
 2575TIP3    H229285   4.062   5.992   0.168  0.0041  0.3915 -0.4279
 2576TIP3   OH229286   0.355   1.793   1.789  0.2998 -0.5783 -0.1126
 2576TIP3    H129287   0.345   1.765   1.698 -0.5275  0.3750 -0.3342
 2576TIP3    H229288   0.449   1.807   1.800  0.3593 -0.2925 -0.9493
 2577TIP3   OH229289   4.118   3.783   0.984 -0.1042 -0.4166  0.0597
 2577TIP3    H129290   4.025   3.786   0.962  0.0063 -1.1002 -0.5471
 2577TIP3    H229291   4.131   3.696   1.021  0.7382 -1.2335 -2.0293
 2578TIP3   OH229292   1.341   3.833   7.705 -0.0685  0.1639 -0.3793
 2578TIP3    H129293   1.392   3.755   7.686 -1.7667 -0.7336 -1.5282
 2578TIP3    H229294   1.299   3.815   7.789  0.5240  0.4128 -0.0170
 2579TIP3   OH229295   5.384   5.152   1.876 -0.8248 -0.0510 -0.2502
 2579TIP3    H129296   5.301   5.187   1.909  0.5392  0.9661  2.4571
 2579TIP3    H229297   5.450   5.214   1.908  1.0295 -1.0109 -1.9959
 2580TIP3   OH229298   4.324   1.752   7.343 -0.4495 -0.0356 -0.6652
 2580TIP3    H129299   4.330   1.785   7.253 -0.5768  0.9716 -0.3180
 2580TIP3    H229300   4.414   1.729   7.366 -0.0845  1.5932 -0.3744
 2581TIP3   OH229301   1.470   4.402   0.463  0.2266  0.0692  0.0128
 2581TIP3    H129302   1.521   4.349   0.402  3.7377  1.9163  1.0869
 2581TIP3    H229303   1.504   4.378   0.549 -2.3539 -0.1574  1.0515
 2582TIP3   OH229304   1.131   1.358   0.166  0.7459 -0.1185  0.0690
 2582TIP3    H129305   1.072   1.401   0.228 -1.5651 -2.1590 -0.5218
 2582TIP3    H229306   1.208   1.336   0.217 -0.4188 -0.2962  1.8429
 2583TIP3   OH229307   3.884   1.368   8.570  0.2580 -0.3961 -0.9210
 2583TIP3    H129308   3.883   1.273   8.582 -0.9557 -0.1822  0.9532
 2583TIP3    H229309   3.899   1.379   8.476  0.2723 -2.4334 -1.2092
 2584TIP3   OH229310   5.045   4.893   0.885 -0.0362  0.5109  0.2408
 2584TIP3    H129311   4.950   4.902   0.877 -0.0621 -0.0988 -0.1683
 2584TIP3    H229312   5.057   4.857   0.973 -0.1867  0.5556  0.2813
 2585TIP3   OH229313   0.061   0.915   8.468 -0.2157 -0.0686 -1.0133
 2585TIP3    H129314   0.011   0.845   8.511  1.7435  0.2610  2.1046
 2585TIP3    H229315   0.040   0.994   8.519  0.3975  0.8968 -2.2089
 2586TIP3   OH229316   2.173   3.900   2.918 -0.5580 -0.1488 -0.9654
 2586TIP3    H129317   2.259   3.860   2.926  0.3310  1.8899  0.2871
 2586TIP3    H229318   2.123   3.864   2.992  0.6031  1.7890  0.8600
 2587TIP3   OH229319   0.199   3.697   1.664 -0.0585 -0.0909 -0.3583
 2587TIP3    H129320   0.239   3.612   1.645  0.4277  0.0286  0.1175
 2587TIP3    H229321   0.178   3.733   1.577 -0.7215 -0.8972 -0.5478
 2588TIP3   OH229322   3.071   3.831   1.577  0.2707 -0.1082 -0.1011
 2588TIP3    H129323   3.097   3.855   1.488 -0.5174  2.0565  0.1878
 2588TIP3    H229324   3.110   3.899   1.633  0.3084 -1.1261  1.1497
 2589TIP3   OH229325   2.002   0.046   0.718  0.2761  0.0977 -0.1739
 2589TIP3    H129326   1.940   0.104   0.672  0.2154  0.1221 -0.0615
 2589TIP3    H229327   1.963   0.034   0.805  0.9082  0.8827  0.2246
 2590TIP3   OH229328   6.386   0.516   6.847 -0.0992  0.2050 -1.0132
 2590TIP3    H129329   6.394   0.597   6.796  1.4655  0.4379 -0.4561
 2590TIP3    H229330   6.326   0.539   6.919  3.2220  2.1815  1.4144
 2591TIP3   OH229331   6.669   5.154   1.062 -0.0269 -0.4237  0.0830
 2591TIP3    H129332   6.730   5.080   1.070  0.0771 -0.1242  3.1254
 2591TIP3    H229333   6.725   5.231   1.059 -0.1791 -0.2640  0.9769
 2592TIP3   OH229334   3.864   2.668   2.440 -0.1177  0.6885 -0.2319
 2592TIP3    H129335   3.880   2.655   2.534  0.6109 -1.2019 -0.5845
 2592TIP3    H229336   3.768   2.665   2.432 -0.1223 -1.8201  0.1538
 2593TIP3   OH229337   4.559   1.701   1.949  0.4248  0.1390 -0.1807
 2593TIP3    H129338   4.472   1.739   1.955  0.3813 -0.0620  0.5373
 2593TIP3    H229339   4.598   1.718   2.035  1.3809  0.9128 -0.7386
 2594TIP3   OH229340   4.615   4.440   2.123 -0.5427 -0.1620 -0.4020
 2594TIP3    H129341   4.649   4.362   2.079  3.9357  1.0647  0.3660
 2594TIP3    H229342   4.691   4.476   2.169 -2.9981  3.2863  1.3742
 2595TIP3   OH229343   5.751   0.424   6.870  0.0286 -0.0556  0.2300
 2595TIP3    H129344   5.820   0.448   6.807 -0.1348  0.2978  0.1818
 2595TIP3    H229345   5.752   0.329   6.871  1.0727 -0.0447  0.8403
 2596TIP3   OH229346   5.877   4.489   7.142 -0.2931 -0.3205 -0.3626
 2596TIP3    H129347   5.951   4.502   7.083  0.8792  2.5832  1.5346
 2596TIP3    H229348   5.846   4.578   7.162 -1.1920 -1.1789  2.6460
 2597TIP3   OH229349   6.000   5.679   1.591 -0.0254 -0.2547  0.1239
 2597TIP3    H129350   5.906   5.667   1.604 -0.1722 -1.8039 -1.8512
 2597TIP3    H229351   6.042   5.614   1.648 -0.2139 -0.4416  0.0482
 2598TIP3   OH229352   3.316   6.246   8.766 -0.1062  0.2971 -0.1568
 2598TIP3    H129353   3.235   6.296   8.775  0.6238  1.3292  0.9321
 2598TIP3    H229354   3.363   6.289   8.695  0.2781  0.8089  0.4093
 2599TIP3   OH229355   1.431   3.760   8.813  0.0217 -0.0714 -0.3325
 2599TIP3    H129356   1.438   3.750   8.719 -1.2996 -1.2988 -0.3361
 2599TIP3    H229357   1.337   3.754   8.831  0.3330 -1.2209  1.1845
 2600TIP3   OH229358   6.059   6.745   7.632  0.5655 -0.6079  0.7202
 2600TIP3    H129359   6.068   6.831   7.592  0.4627 -1.1152 -0.4265
 2600TIP3    H229360   6.032   6.763   7.722  3.0802  0.6344  1.2986
 2601TIP3   OH229361   4.762   5.018   1.909 -0.3584 -0.0302  0.1996
 2601TIP3    H129362   4.788   4.975   1.827  1.9228  1.0545  0.2926
 2601TIP3    H229363   4.694   5.080   1.882 -1.3368 -1.3392 -0.4523
 2602TIP3   OH229364   0.263   6.792   1.080 -0.4361  0.5651  0.7936
 2602TIP3    H129365   0.341   6.749   1.116 -1.3028 -1.5534  0.3407
 2602TIP3    H229366   0.204   6.803   1.155 -0.2303  0.9066  0.9043
 2603TIP3   OH229367   0.372   3.982   0.424  0.5724  0.0894  0.3382
 2603TIP3    H129368   0.371   4.074   0.448 -0.3558  0.1492  0.1170
 2603TIP3    H229369   0.306   3.942   0.480  0.5286 -0.3192  0.0024
 2604TIP3   OH229370   2.862   3.443   1.793  0.0262 -0.0367 -0.5016
 2604TIP3    H129371   2.922   3.459   1.720 -0.6592 -0.0603 -1.0791
 2604TIP3    H229372   2.871   3.349   1.811  3.0524  0.5865  2.0089
 2605TIP3   OH229373   4.876   5.278   6.920 -0.7280  0.1207 -0.5000
 2605TIP3    H129374   4.910   5.354   6.967  0.8847 -1.1861  0.5524
 2605TIP3    H229375   4.781   5.284   6.930 -0.5303  0.9176  1.2905
 2606TIP3   OH229376   3.934   5.503   2.499 -0.5823 -0.0231  0.0515
 2606TIP3    H129377   3.872   5.479   2.567 -0.8728 -2.4692 -0.9663
 2606TIP3    H229378   4.014   5.528   2.546 -1.1698 -0.4322  1.3060
 2607TIP3   OH229379   5.609   3.516   2.403  0.0491  0.2900 -0.1549
 2607TIP3    H129380   5.699   3.550   2.410 -0.1093  0.3344  3.5350
 2607TIP3    H229381   5.558   3.573   2.460 -1.3362 -2.5916  1.7247
 2608TIP3   OH229382   4.199   3.373   0.727 -0.0765 -0.3052 -0.5109
 2608TIP3    H129383   4.180   3.446   0.669 -3.1684 -0.8782 -0.3702
 2608TIP3    H229384   4.178   3.295   0.675  0.3161 -0.9710  0.2996
 2609TIP3   OH229385   6.181   2.897   2.144 -0.2700 -0.0538 -0.9373
 2609TIP3    H129386   6.190   2.887   2.239 -0.5325  1.2704 -0.7525
 2609TIP3    H229387   6.226   2.821   2.108 -0.3602 -0.6977  0.2508
 2610TIP3   OH229388   0.610   0.336   1.241  0.6727  0.4204 -0.0795
 2610TIP3    H129389   0.526   0.333   1.288  0.8134 -0.4566  0.1420
 2610TIP3    H229390   0.667   0.388   1.297  0.9758 -0.9935  0.9843
 2611TIP3   OH229391   2.768   3.214   1.331 -0.2165  0.3797 -0.3074
 2611TIP3    H129392   2.702   3.253   1.274  0.2641  0.7311 -0.6392
 2611TIP3    H229393   2.737   3.232   1.419  0.3710  2.2693 -0.4221
 2612TIP3   OH229394   1.600   5.200   0.186  0.0327  0.0166 -0.2931
 2612TIP3    H129395   1.631   5.290   0.179 -0.0409  0.1566  0.9812
 2612TIP3    H229396   1.547   5.187   0.107 -1.4116  1.6744  0.3226
 2613TIP3   OH229397   3.471   0.644   8.528 -0.0809 -0.4213 -0.5329
 2613TIP3    H129398   3.474   0.549   8.515 -1.1977 -0.4580 -0.5851
 2613TIP3    H229399   3.532   0.679   8.463  2.4226 -1.2360  1.2172
 2614TIP3   OH229400   0.822   5.847   0.610 -0.0798  0.2052  0.9254
 2614TIP3    H129401   0.764   5.905   0.561  0.5186  1.1587  1.3158
 2614TIP3    H229402   0.909   5.885   0.597  0.5829 -1.5366 -0.1687
 2615TIP3   OH229403   5.751   1.122   7.759 -0.9899 -0.5061  0.0840
 2615TIP3    H129404   5.839   1.096   7.786 -0.7603 -0.2817 -0.4345
 2615TIP3    H229405   5.693   1.059   7.802 -0.6421 -0.1227  1.1344
 2616TIP3   OH229406   6.774   2.864   8.759  0.1799 -0.8218  0.0683
 2616TIP3    H129407   6.846   2.817   8.715  1.3377  0.8966  0.0143
 2616TIP3    H229408   6.792   2.957   8.741 -0.8575 -0.2271  1.8925
 2617TIP3   OH229409   4.348   3.875   0.794  0.2462  0.0422  0.3880
 2617TIP3    H129410   4.426   3.828   0.822  0.1462  0.2774  1.0939
 2617TIP3    H229411   4.277   3.812   0.805  0.6367 -1.1513 -2.9381
 2618TIP3   OH229412   4.391   1.366   8.225 -0.1294 -0.1814  0.0882
 2618TIP3    H129413   4.414   1.278   8.195 -2.8314 -0.8139 -0.3731
 2618TIP3    H229414   4.297   1.373   8.211  0.0308  2.9579 -0.2730
 2619TIP3   OH229415   6.214   6.761   0.322 -0.3259 -0.0234  0.2601
 2619TIP3    H129416   6.190   6.709   0.246  0.6321 -1.1699  0.7058
 2619TIP3    H229417   6.133   6.771   0.371 -0.5057 -1.2577  0.2440
 2620TIP3   OH229418   3.647   5.138   7.109 -0.2597 -0.4626 -0.6580
 2620TIP3    H129419   3.580   5.205   7.101 -0.9722 -1.0168  0.3766
 2620TIP3    H229420   3.603   5.056   7.084 -0.0175 -0.8539  0.1614
 2621TIP3   OH229421   5.919   3.840   1.792 -0.1632 -0.0969 -0.0267
 2621TIP3    H129422   5.967   3.757   1.785 -0.2196 -0.1767  0.5078
 2621TIP3    H229423   5.835   3.816   1.830 -0.4742  0.1024 -0.5843
 2622TIP3   OH229424   2.585   3.415   8.535 -0.2574  0.1371 -0.4520
 2622TIP3    H129425   2.505   3.422   8.586  0.4019  0.0130  0.6395
 2622TIP3    H229426   2.556   3.407   8.444 -1.4764 -0.3068 -0.0330
 2623TIP3   OH229427   0.028   0.464   7.627 -0.2375 -0.2315  0.5941
 2623TIP3    H129428   0.100   0.490   7.570  0.8803 -2.4377  0.8872
 2623TIP3    H229429   0.014   0.372   7.607 -2.2959 -0.1222  1.3116
 2624TIP3   OH229430   6.148   4.402   1.523  0.4999 -0.1216 -0.3129
 2624TIP3    H129431   6.142   4.411   1.427 -2.2455  2.0766 -0.0545
 2624TIP3    H229432   6.074   4.452   1.556  0.8082 -1.6454  2.9902
 2625TIP3   OH229433   2.714   1.509   2.029  0.1208  0.2142  0.0964
 2625TIP3    H129434   2.681   1.444   1.967 -0.7733  1.0539 -0.3244
 2625TIP3    H229435   2.677   1.483   2.113  1.3366 -0.9272  0.3089
 2626TIP3   OH229436   2.084   2.040   8.157  0.3975 -0.4426  0.0337
 2626TIP3    H129437   2.116   2.011   8.072 -1.0511  1.3377 -1.2070
 2626TIP3    H229438   2.120   2.128   8.168 -1.0337  0.1487  0.2776
 2627TIP3   OH229439   0.981   1.255   1.317  0.3356 -0.0559 -0.0192
 2627TIP3    H129440   1.069   1.221   1.301  0.2316 -0.9248  1.1576
 2627TIP3    H229441   0.933   1.182   1.356 -0.4965  0.8374  0.6923
 2628TIP3   OH229442   1.827   2.393   0.089 -0.0623  0.2845 -0.1914
 2628TIP3    H129443   1.768   2.336   0.139  0.2642 -0.0970 -0.2374
 2628TIP3    H229444   1.806   2.482   0.119 -1.9578  0.3412 -1.5156
 2629TIP3   OH229445   4.411   6.504   8.623 -0.1278 -0.5300 -0.2989
 2629TIP3    H129446   4.360   6.438   8.576  0.2807 -0.1134 -1.3410
 2629TIP3    H229447   4.430   6.571   8.558 -2.1142  1.5881  1.1572
 2630TIP3   OH229448   5.402   6.244   8.780  0.4872 -0.7932 -0.1802
 2630TIP3    H129449   5.455   6.319   8.805 -0.2346  0.0574 -1.1348
 2630TIP3    H229450   5.400   6.189   8.858 -0.6349  1.1326  1.2318
 2631TIP3   OH229451   2.945   0.644   7.602 -0.3035  0.7388  0.9296
 2631TIP3    H129452   2.980   0.599   7.525 -1.6340  0.3690  0.5069
 2631TIP3    H229453   3.012   0.709   7.625  0.2855  0.5979 -0.3075
 2632TIP3   OH229454   3.340   6.195   8.135 -0.2877 -0.1437  0.4403
 2632TIP3    H129455   3.254   6.155   8.121  1.0992 -2.9222 -0.9416
 2632TIP3    H229456   3.372   6.157   8.216 -0.4784  1.2199  1.1873
 2633TIP3   OH229457   6.464   4.508   7.705  0.3033 -0.0440  0.2811
 2633TIP3    H129458   6.514   4.440   7.750  0.6813  1.4086  2.1531
 2633TIP3    H229459   6.465   4.583   7.764 -0.2258  1.5816 -1.6444
 2634TIP3   OH229460   2.610   1.778   1.079 -0.0556 -0.5410  0.8910
 2634TIP3    H129461   2.685   1.719   1.082  1.2947  1.0437 -0.2115
 2634TIP3    H229462   2.644   1.860   1.043 -2.3364  0.1953  0.1794
 2635TIP3   OH229463   6.119   2.524   7.229  0.3020  0.9654  0.1101
 2635TIP3    H129464   6.060   2.599   7.221 -1.5845 -0.5499 -1.3252
 2635TIP3    H229465   6.161   2.535   7.314  0.9259  4.1844 -0.5090
 2636TIP3   OH229466   5.278   6.029   7.533 -0.1219  0.2301  0.5260
 2636TIP3    H129467   5.184   6.017   7.546 -0.1017  0.4097  0.8543
 2636TIP3    H229468   5.317   5.995   7.614  0.1144 -0.1407  0.2590
 2637TIP3   OH229469   5.375   3.445   7.771 -0.3636 -0.2866  0.3391
 2637TIP3    H129470   5.428   3.415   7.697  1.3132  2.2486  0.3781
 2637TIP3    H229471   5.300   3.489   7.731 -0.3794 -0.4340  0.2029
 2638TIP3   OH229472   3.874   4.462   0.202 -0.2885 -0.0172 -0.2125
 2638TIP3    H129473   3.786   4.457   0.166  1.1650 -0.2783 -4.3539
 2638TIP3    H229474   3.899   4.371   0.218 -0.3805 -0.0301 -0.1418
 2639TIP3   OH229475   5.979   6.434   7.129  0.3940 -0.0490 -0.6359
 2639TIP3    H129476   5.895   6.412   7.169 -0.2902 -1.2304 -2.5878
 2639TIP3    H229477   5.977   6.392   7.043  2.4745  0.9617 -1.2573
 2640TIP3   OH229478   2.684   4.781   0.611 -0.6263 -0.2678  0.2865
 2640TIP3    H129479   2.764   4.832   0.604 -0.7344 -0.0612  0.5347
 2640TIP3    H229480   2.619   4.832   0.563 -0.3246 -1.0493 -0.9947
 2641TIP3   OH229481   4.627   1.867   8.269 -0.1098 -0.3921 -0.0824
 2641TIP3    H129482   4.661   1.847   8.181  0.2199 -0.7257  0.1180
 2641TIP3    H229483   4.705   1.863   8.325  0.0047  1.5396 -0.0426
 2642TIP3   OH229484   2.359   4.872   8.770 -0.5590 -0.0805  0.1601
 2642TIP3    H129485   2.354   4.839   8.860 -0.0186  0.0643  0.2457
 2642TIP3    H229486   2.445   4.915   8.765 -1.0275  0.8336 -0.1186
 2643TIP3   OH229487   5.485   1.643   8.631  0.1184 -0.3239 -0.5346
 2643TIP3    H129488   5.489   1.724   8.683  0.3784 -0.3197 -0.5613
 2643TIP3    H229489   5.439   1.669   8.551  1.2159  0.0776 -1.0530
 2644TIP3   OH229490   4.432   6.569   2.318 -0.1226  0.5565 -0.2966
 2644TIP3    H129491   4.425   6.482   2.277  1.0122  0.6720 -0.7604
 2644TIP3    H229492   4.512   6.606   2.281 -0.6677  1.8626 -0.2042
 2645TIP3   OH229493   5.955   2.062   0.102  0.5570 -0.4059  0.0769
 2645TIP3    H129494   5.923   1.972   0.099 -0.2075 -0.1904  1.2650
 2645TIP3    H229495   5.947   2.094   0.012  0.0138 -1.2361 -0.1755
 2646TIP3   OH229496   3.346   3.206   1.915 -0.3290  0.1323  0.0492
 2646TIP3    H129497   3.369   3.115   1.897 -1.4737 -0.2252  0.3130
 2646TIP3    H229498   3.387   3.255   1.844 -1.5986 -0.8483 -1.4556
 2647TIP3   OH229499   2.519   4.063   1.705 -0.0746  0.1280 -0.2967
 2647TIP3    H129500   2.600   4.013   1.702 -0.6225 -0.7833 -0.0559
 2647TIP3    H229501   2.482   4.055   1.617 -0.9431 -1.2288  0.1617
 2648TIP3   OH229502   6.438   3.185   8.092  0.8029  0.2392  0.0054
 2648TIP3    H129503   6.495   3.260   8.075  0.4980  1.8474  4.5484
 2648TIP3    H229504   6.496   3.110   8.088  2.1963  1.2771 -0.1639
 2649TIP3   OH229505   5.321   5.744   7.262  0.1988 -0.0339 -0.3875
 2649TIP3    H129506   5.319   5.686   7.186  0.9169 -2.3745  1.2831
 2649TIP3    H229507   5.414   5.756   7.281  0.0307 -0.4862  0.8134
 2650TIP3   OH229508   1.762   2.737   0.894  0.2591 -0.2709 -0.5346
 2650TIP3    H129509   1.690   2.720   0.955  2.0042 -2.1111  1.1283
 2650TIP3    H229510   1.724   2.720   0.808 -1.9116  1.1155  0.0700
 2651TIP3   OH229511   5.742   6.594   2.868  0.0405  0.9439 -0.5541
 2651TIP3    H129512   5.749   6.499   2.855  0.6461  0.5932  1.8176
 2651TIP3    H229513   5.746   6.630   2.779  2.0717 -1.1272 -1.4289
 2652TIP3   OH229514   0.750   5.107   7.877 -0.4028 -0.0360 -0.6856
 2652TIP3    H129515   0.656   5.124   7.887 -0.6891 -0.1993 -2.6452
 2652TIP3    H229516   0.755   5.030   7.821  0.9379 -1.4379  1.2237
 2653TIP3   OH229517   6.380   5.877   8.452 -0.3514 -0.0581  0.6233
 2653TIP3    H129518   6.373   5.828   8.534 -1.0256  1.7986  1.7377
 2653TIP3    H229519   6.329   5.826   8.390 -0.1973 -1.2825  1.4504
 2654TIP3   OH229520   1.559   6.003   8.105 -0.4139 -0.4270  0.2308
 2654TIP3    H129521   1.499   6.075   8.126 -0.7491 -0.0905 -1.7234
 2654TIP3    H229522   1.510   5.924   8.127 -0.5973 -0.1102  1.0054
 2655TIP3   OH229523   1.247   4.747   8.707 -0.6283 -0.1383  0.1778
 2655TIP3    H129524   1.187   4.740   8.632 -0.1839 -0.5485 -0.1451
 2655TIP3    H229525   1.310   4.676   8.694 -0.2854  0.0645  0.7075
 2656TIP3   OH229526   6.017   1.012   1.202  0.1029 -0.0431 -0.0168
 2656TIP3    H129527   5.976   1.095   1.228  0.4141 -0.4806  1.9858
 2656TIP3    H229528   6.109   1.034   1.187 -0.0857  0.2164 -0.8864
 2657TIP3   OH229529   0.075   6.689   7.204 -0.3645 -0.2052  0.4868
 2657TIP3    H129530   0.108   6.647   7.283 -0.7362  0.7237  1.1521
 2657TIP3    H229531   0.026   6.620   7.159 -1.9096 -0.2339  2.1120
 2658TIP3   OH229532   5.762   2.565   1.041 -0.0577 -0.2215 -0.6090
 2658TIP3    H129533   5.673   2.578   1.072  0.1986 -1.3581  0.7221
 2658TIP3    H229534   5.753   2.529   0.953 -0.8951  0.1820 -0.6902
 2659TIP3   OH229535   0.433   2.755   2.862 -0.3682  0.9182 -0.1243
 2659TIP3    H129536   0.383   2.814   2.917 -0.1187  1.2139 -0.2127
 2659TIP3    H229537   0.427   2.793   2.774 -2.1004 -0.3794 -0.6434
 2660TIP3   OH229538   0.214   2.993   1.713  0.1076  0.0779 -0.0448
 2660TIP3    H129539   0.136   2.950   1.748  0.5304 -1.1988 -0.6286
 2660TIP3    H229540   0.204   2.988   1.618  1.2305 -0.7522 -0.1406
 2661TIP3   OH229541   0.254   5.123   6.996 -0.2614  0.2488  0.0215
 2661TIP3    H129542   0.185   5.064   6.967 -1.8592  2.2058 -0.4188
 2661TIP3    H229543   0.245   5.127   7.091  1.3262 -1.8565  0.3253
 2662TIP3   OH229544   1.874   3.749   1.599 -0.0935  0.3925  0.5395
 2662TIP3    H129545   1.901   3.682   1.537 -0.5821  1.1041 -0.4735
 2662TIP3    H229546   1.793   3.716   1.637  0.1560 -0.0035  0.7325
 2663TIP3   OH229547   6.234   1.985   2.371 -0.3296  0.1801 -0.1883
 2663TIP3    H129548   6.285   1.937   2.437  1.0824  0.7265 -0.8495
 2663TIP3    H229549   6.246   2.077   2.394  0.7131  0.4103 -1.5706
 2664TIP3   OH229550   0.811   1.749   3.103 -0.1116 -0.4400  0.2880
 2664TIP3    H129551   0.823   1.844   3.108  0.3573 -0.5286  1.1975
 2664TIP3    H229552   0.767   1.734   3.019  0.1592  0.5441 -0.0454
 2665TIP3   OH229553   6.247   4.117   7.330  0.0537 -0.0841 -0.5101
 2665TIP3    H129554   6.228   4.064   7.252 -1.3545  0.5301 -0.6068
 2665TIP3    H229555   6.246   4.207   7.298 -1.1048  0.2166  0.2995
 2666TIP3   OH229556   4.444   1.958   0.956  0.3006  0.2260  0.8147
 2666TIP3    H129557   4.435   1.879   1.009 -0.8995  0.1811  0.5649
 2666TIP3    H229558   4.358   2.000   0.960  0.0402  0.0395 -1.3816
 2667TIP3   OH229559   0.473   3.107   1.797  0.4139  0.3174 -0.2697
 2667TIP3    H129560   0.527   3.107   1.876  0.1238  0.1387 -0.0685
 2667TIP3    H229561   0.401   3.048   1.817  0.4430  0.1114 -0.7426
 2668TIP3   OH229562   1.462   2.795   1.802 -0.1930  0.2986  0.1720
 2668TIP3    H129563   1.415   2.858   1.748 -0.2976 -0.1765 -0.3057
 2668TIP3    H229564   1.545   2.837   1.822  0.7135 -0.2794 -2.0644
 2669TIP3   OH229565   2.935   2.694   8.646 -0.0308  0.1415 -0.5487
 2669TIP3    H129566   2.933   2.782   8.609 -1.5616  0.0488 -0.7721
 2669TIP3    H229567   2.881   2.642   8.585 -0.6586 -0.5302  0.5473
 2670TIP3   OH229568   2.494   6.178   8.734 -0.4795 -0.0975 -0.2006
 2670TIP3    H129569   2.517   6.140   8.818 -0.4585  2.8048  1.2460
 2670TIP3    H229570   2.539   6.124   8.670  2.3414 -0.4524  1.8784
 2671TIP3   OH229571   1.361   6.187   8.140  0.4317 -0.0989 -0.2601
 2671TIP3    H129572   1.345   6.276   8.173  1.6460 -0.6507  2.0525
 2671TIP3    H229573   1.278   6.142   8.153  0.2822  0.2744  0.1511
 2672TIP3   OH229574   4.568   1.767   0.294 -0.2630 -0.0743  0.2731
 2672TIP3    H129575   4.485   1.744   0.336 -0.9979  0.7729 -0.6727
 2672TIP3    H229576   4.584   1.858   0.321 -0.5199  0.3336 -0.8885
 2673TIP3   OH229577   1.938   0.908   7.150  0.1054  0.1322  0.7708
 2673TIP3    H129578   2.026   0.903   7.112  0.6658  2.9120  1.4197
 2673TIP3    H229579   1.913   1.000   7.138 -2.5227 -0.4897  1.0439
 2674TIP3   OH229580   1.896   1.866   8.113 -0.2831 -0.2798 -0.2694
 2674TIP3    H129581   1.959   1.932   8.141 -0.4836  0.2168 -0.9629
 2674TIP3    H229582   1.892   1.875   8.018  0.8105 -2.2937 -0.5810
 2675TIP3   OH229583   1.960   6.031   8.730 -0.6919 -0.7918  0.3601
 2675TIP3    H129584   2.054   6.031   8.712 -0.5723 -0.0628  0.9162
 2675TIP3    H229585   1.941   5.941   8.757  0.0478 -0.7079  1.2037
 2676TIP3   OH229586   5.239   4.143   1.857  0.0761  0.0357  0.9386
 2676TIP3    H129587   5.240   4.081   1.931  1.2955  0.1319  1.0300
 2676TIP3    H229588   5.305   4.109   1.797  0.9537  1.3806  1.1093
 2677TIP3   OH229589   5.871   6.308   1.578 -0.3463  0.2906  0.0739
 2677TIP3    H129590   5.815   6.379   1.610  1.5637  1.2736  1.4533
 2677TIP3    H229591   5.943   6.353   1.534 -0.0877 -0.9035 -0.7684
 2678TIP3   OH229592   0.702   6.128   8.586 -0.8499  0.4384  0.2955
 2678TIP3    H129593   0.674   6.075   8.511  1.0930 -0.8718  0.4141
 2678TIP3    H229594   0.786   6.165   8.559 -0.3509  0.3333  1.6358
 2679TIP3   OH229595   6.103   5.016   0.723 -0.1525  0.3027  0.2770
 2679TIP3    H129596   6.038   5.014   0.653 -1.5180  0.1461  1.5053
 2679TIP3    H229597   6.055   4.989   0.801  1.3174  0.5232  1.2932
 2680TIP3   OH229598   5.804   1.672   0.604  0.3955  0.2142 -0.0767
 2680TIP3    H129599   5.891   1.646   0.574 -1.1245 -0.2609 -4.9822
 2680TIP3    H229600   5.813   1.765   0.627  1.9009  0.7244 -2.4186
 2681TIP3   OH229601   1.212   3.297   2.079 -0.1801 -0.3313  0.0336
 2681TIP3    H129602   1.232   3.225   2.019  3.1168  2.0721 -2.1348
 2681TIP3    H229603   1.253   3.272   2.162 -0.3678 -1.5444 -0.2228
 2682TIP3   OH229604   5.787   1.068   8.439  0.2626 -0.2238 -0.1548
 2682TIP3    H129605   5.717   1.089   8.501 -0.2064 -3.4117  0.6138
 2682TIP3    H229606   5.863   1.115   8.472 -1.0863  1.9764 -0.0220
 2683TIP3   OH229607   1.293   3.398   0.825  0.7763  0.4477 -0.0705
 2683TIP3    H129608   1.314   3.402   0.918 -0.7722  1.5968  0.2731
 2683TIP3    H229609   1.197   3.401   0.821  0.7847 -0.0069 -1.6918
 2684TIP3   OH229610   0.306   6.020   0.674  0.2549 -0.3012  0.0133
 2684TIP3    H129611   0.373   6.087   0.669  0.4578 -0.4930  0.1484
 2684TIP3    H229612   0.351   5.942   0.706  0.1462 -0.6771 -0.7279
 2685TIP3   OH229613   1.271   1.604   8.583  0.6646  0.1290  0.2130
 2685TIP3    H129614   1.254   1.686   8.628 -1.3056  1.2126 -2.2543
 2685TIP3    H229615   1.186   1.561   8.576  1.4060 -1.4293  0.0966
 2686TIP3   OH229616   3.781   4.007   3.604 -0.2117 -0.3139  0.0345
 2686TIP3    H129617   3.690   4.012   3.635 -0.7150 -0.4123 -1.3431
 2686TIP3    H229618   3.779   4.048   3.518  1.0431 -0.4354 -0.0684
 2687TIP3   OH229619   2.972   1.802   2.157  0.6488 -0.7973  0.3918
 2687TIP3    H129620   3.021   1.872   2.114  0.6405 -1.7470 -1.2319
 2687TIP3    H229621   3.011   1.797   2.245  0.1733  1.6679  0.8274
 2688TIP3   OH229622   3.061   5.829   7.638  0.1739  0.1735  0.0274
 2688TIP3    H129623   3.075   5.921   7.613  0.4177  0.1042 -0.0966
 2688TIP3    H229624   3.126   5.781   7.587  1.4719  0.1342  1.6419
 2689TIP3   OH229625   0.425   5.180   1.687 -0.2651  0.2012  0.1132
 2689TIP3    H129626   0.334   5.209   1.678  0.2015  1.4207 -1.0075
 2689TIP3    H229627   0.430   5.144   1.775 -1.8014  0.2141  0.2337
 2690TIP3   OH229628   2.803   2.625   0.383  0.0708 -0.5137 -0.0385
 2690TIP3    H129629   2.838   2.563   0.447 -1.6820 -1.1030  0.4051
 2690TIP3    H229630   2.788   2.572   0.304 -1.7108 -0.7726  0.4370
 2691TIP3   OH229631   5.959   3.212   1.369  0.5939 -0.1636  0.3006
 2691TIP3    H129632   5.896   3.243   1.435 -1.2226  0.0865 -1.4697
 2691TIP3    H229633   5.995   3.292   1.331  0.7100 -0.2985  0.1247
 2692TIP3   OH229634   4.468   0.969   0.260 -0.0677  0.5777 -0.1355
 2692TIP3    H129635   4.429   1.056   0.250  0.0894  0.8243  1.2567
 2692TIP3    H229636   4.545   0.971   0.202 -1.7837  0.2219 -2.5856
 2693TIP3   OH229637   5.597   4.647   0.301  0.3252 -0.2090 -0.1710
 2693TIP3    H129638   5.509   4.622   0.273 -0.0349  0.0298  0.7059
 2693TIP3    H229639   5.641   4.564   0.318  0.4173 -0.3413 -1.0323
 2694TIP3   OH229640   5.265   5.122   7.585 -0.1897  0.2260 -0.1248
 2694TIP3    H129641   5.358   5.103   7.587 -0.3825 -1.0139 -1.3714
 2694TIP3    H229642   5.238   5.103   7.495 -1.5885  0.8316  0.1381
 2695TIP3   OH229643   1.074   0.841   8.601  0.0986  0.4289  0.4218
 2695TIP3    H129644   1.098   0.916   8.656  0.4823  0.4840  0.1793
 2695TIP3    H229645   1.072   0.877   8.512 -1.5748  0.6092  0.4900
 2696TIP3   OH229646   1.071   5.197   7.819  0.4595  0.1294  0.6613
 2696TIP3    H129647   0.997   5.252   7.793  1.2324  0.3917 -1.1730
 2696TIP3    H229648   1.114   5.175   7.736  0.4723 -2.8632  1.3799
 2697TIP3   OH229649   5.806   2.152   1.655 -0.2697 -0.6124 -0.7920
 2697TIP3    H129650   5.801   2.129   1.748 -0.5563 -0.3020 -0.7259
 2697TIP3    H229651   5.738   2.218   1.643  0.9825  0.7392 -0.8039
 2698TIP3   OH229652   1.235   1.289   2.874  0.5512 -0.2385 -0.3143
 2698TIP3    H129653   1.219   1.223   2.807  0.3745 -0.4838 -0.0343
 2698TIP3    H229654   1.330   1.291   2.883  0.5017 -1.9467  1.1239
 2699TIP3   OH229655   0.974   6.167   1.642 -0.5814 -0.3861 -0.1813
 2699TIP3    H129656   1.025   6.241   1.608 -1.6293 -0.1104 -1.2398
 2699TIP3    H229657   1.034   6.093   1.638  0.1019  0.1564 -0.2949
 2700TIP3   OH229658   6.462   3.013   2.342  0.0984  0.3769 -0.0833
 2700TIP3    H129659   6.414   3.079   2.293 -3.6122 -1.7055  0.3972
 2700TIP3    H229660   6.471   3.050   2.430  0.7301  1.3813 -0.5518
 2701TIP3   OH229661   1.104   4.169   2.278 -0.3497 -0.0149 -0.6895
 2701TIP3    H129662   1.111   4.212   2.363 -0.7578  1.4666 -1.3705
 2701TIP3    H229663   1.010   4.167   2.260 -0.3236 -1.0613 -0.7505
 2702TIP3   OH229664   2.540   6.468   1.682  0.6089 -0.1034  0.4087
 2702TIP3    H129665   2.498   6.414   1.750 -1.1134  1.4495  0.6451
 2702TIP3    H229666   2.485   6.545   1.675  1.1378  0.1261 -2.2969
 2703TIP3   OH229667   3.875   4.098   1.322  0.1024 -0.2555  0.4480
 2703TIP3    H129668   3.962   4.105   1.361  0.1779  0.0062  0.2351
 2703TIP3    H229669   3.861   4.004   1.311 -0.0602 -0.3636  1.4150
 2704TIP3   OH229670   0.657   2.578   2.357  0.1059 -0.5323 -0.3122
 2704TIP3    H129671   0.590   2.646   2.364 -1.5163 -1.6158 -3.3854
 2704TIP3    H229672   0.704   2.600   2.276  2.4429 -0.7561  0.8945
 2705TIP3   OH229673   6.275   1.114   1.228  0.1445  0.0237 -0.2059
 2705TIP3    H129674   6.353   1.061   1.217  0.0051 -0.2248 -0.0109
 2705TIP3    H229675   6.279   1.179   1.158 -0.2803 -0.9685 -1.1647
 2706TIP3   OH229676   1.887   0.126   2.443 -0.1217 -0.6738 -0.1198
 2706TIP3    H129677   1.925   0.147   2.358  1.5516 -1.0927  0.4909
 2706TIP3    H229678   1.836   0.046   2.428  0.1003 -0.7002 -0.7432
 2707TIP3   OH229679   0.835   5.266   8.738 -0.4301 -0.3094  0.7574
 2707TIP3    H129680   0.859   5.292   8.649 -2.2053 -0.0804  0.2964
 2707TIP3    H229681   0.890   5.191   8.757 -1.2082 -1.4791 -1.2374
 2708TIP3   OH229682   0.834   4.700   1.429  0.0187 -0.2670  0.1095
 2708TIP3    H129683   0.850   4.606   1.419 -0.3257 -0.2813 -0.3303
 2708TIP3    H229684   0.831   4.733   1.339 -0.2612  0.0985  0.2523
 2709TIP3   OH229685   3.631   4.926   1.084 -0.5458  0.0940  0.0959
 2709TIP3    H129686   3.631   4.832   1.103  0.4723  0.2446  0.9686
 2709TIP3    H229687   3.539   4.951   1.085 -0.7799 -0.7494  0.7158
 2710TIP3   OH229688   3.894   5.645   2.262 -0.8451  0.0759 -0.8062
 2710TIP3    H129689   3.938   5.601   2.335 -0.9121  0.3295 -0.6115
 2710TIP3    H229690   3.838   5.577   2.224 -0.1185 -0.3150 -1.1983
 2711TIP3   OH229691   6.248   1.987   0.310  0.4057  0.1460  0.4431
 2711TIP3    H129692   6.154   1.970   0.317  0.3385 -1.3171 -2.3838
 2711TIP3    H229693   6.264   2.061   0.369 -1.9118 -1.4071  3.2477
 2712TIP3   OH229694   4.417   0.724   0.380 -0.5671  0.7021 -0.6329
 2712TIP3    H129695   4.345   0.684   0.332  0.1399  0.1179 -1.2439
 2712TIP3    H229696   4.414   0.816   0.355 -2.2988  1.1071  0.8891
 2713TIP3   OH229697   0.635   6.557   8.235 -0.2877  0.7032 -0.5174
 2713TIP3    H129698   0.669   6.568   8.146 -0.9586  0.0574 -0.8643
 2713TIP3    H229699   0.685   6.620   8.288 -0.9840  2.2628 -1.6249
 2714TIP3   OH229700   3.899   3.762   2.370  0.1542 -0.4318 -0.2166
 2714TIP3    H129701   3.958   3.790   2.440 -0.3639  0.6185 -0.1633
 2714TIP3    H229702   3.943   3.788   2.289  0.3498 -0.8238 -0.2336
 2715TIP3   OH229703   4.616   0.948   7.952  0.3531 -0.1090 -0.0992
 2715TIP3    H129704   4.626   0.876   7.889  0.5748 -2.2211  2.2239
 2715TIP3    H229705   4.521   0.964   7.954  0.5140  2.5634 -3.5167
 2716TIP3   OH229706   4.733   0.264   1.402 -0.0313 -0.1587  0.2163
 2716TIP3    H129707   4.682   0.220   1.333  0.0436  0.0950  0.0005
 2716TIP3    H229708   4.821   0.226   1.395 -0.2593 -0.8308  0.7949
 2717TIP3   OH229709   6.763   6.350   1.284  0.1828  0.9222 -0.4434
 2717TIP3    H129710   6.810   6.433   1.279 -0.2635  1.3901  1.7399
 2717TIP3    H229711   6.671   6.375   1.290  0.1253  0.4449  1.7496
 2718TIP3   OH229712   0.834   4.244   2.232  0.2611 -0.0929  0.2567
 2718TIP3    H129713   0.865   4.273   2.317  0.1643  0.2985  0.1636
 2718TIP3    H229714   0.753   4.293   2.218  0.7582  0.5568 -0.4634
 2719TIP3   OH229715   0.365   1.886   8.381  0.1569 -0.3343  0.3186
 2719TIP3    H129716   0.303   1.911   8.449  0.8425  0.8955  0.5197
 2719TIP3    H229717   0.312   1.839   8.316 -1.1137  1.1487  0.2256
 2720TIP3   OH229718   6.766   5.991   8.006  0.2505 -0.1012 -0.2297
 2720TIP3    H129719   6.759   5.970   8.099  1.5853 -1.2746 -0.3570
 2720TIP3    H229720   6.769   5.906   7.962 -0.6492  0.4395 -1.3869
 2721TIP3   OH229721   6.094   4.478   0.923  0.5192  0.1639  0.0519
 2721TIP3    H129722   6.049   4.400   0.890  0.0908 -0.0850  1.1855
 2721TIP3    H229723   6.065   4.549   0.865  0.6943 -0.4491 -0.8144
 2722TIP3   OH229724   5.893   2.764   7.495 -0.0687 -0.4484  0.5685
 2722TIP3    H129725   5.868   2.769   7.403 -0.1009 -1.8681  0.4785
 2722TIP3    H229726   5.978   2.808   7.500 -0.9658  1.4205  0.2528
 2723TIP3   OH229727   0.244   4.267   8.555  0.7794  0.6085 -0.2776
 2723TIP3    H129728   0.326   4.312   8.534 -0.1824  1.7769 -1.7335
 2723TIP3    H229729   0.228   4.289   8.647  1.4536  1.4061 -0.3353
 2724TIP3   OH229730   2.089   4.147   1.899 -0.1751  0.1280 -0.4328
 2724TIP3    H129731   2.024   4.119   1.964 -0.6271  0.1734 -0.8636
 2724TIP3    H229732   2.113   4.066   1.854  0.4463  0.0300  0.0641
 2725TIP3   OH229733   3.326   4.518   3.174  0.5222 -0.4345 -0.1727
 2725TIP3    H129734   3.397   4.459   3.200 -1.0881 -2.3377  0.1633
 2725TIP3    H229735   3.298   4.560   3.256  2.1711  1.5086 -0.5178
 2726TIP3   OH229736   4.805   6.472   1.801  0.5707  0.3017 -0.2543
 2726TIP3    H129737   4.850   6.481   1.885 -0.5552  1.8282  0.2264
 2726TIP3    H229738   4.718   6.508   1.816 -0.3014 -1.0999 -1.6018
 2727TIP3   OH229739   1.763   4.532   1.224 -0.3288 -0.0269 -0.3051
 2727TIP3    H129740   1.840   4.508   1.276 -0.6509  0.4858  0.4253
 2727TIP3    H229741   1.792   4.525   1.133  0.5353  0.0085 -0.0398
 2728TIP3   OH229742   0.946   3.348   8.075 -0.1715 -0.2273  0.3643
 2728TIP3    H129743   0.927   3.257   8.050  0.4084  0.0983 -1.3828
 2728TIP3    H229744   1.000   3.382   8.003 -2.3701  2.2637 -0.2453
 2729TIP3   OH229745   5.983   0.313   7.404  0.1463  0.7217 -0.1385
 2729TIP3    H129746   6.029   0.363   7.472  0.4066  0.1052  0.1423
 2729TIP3    H229747   5.965   0.377   7.336  2.3554  0.7683 -0.7321
 2730TIP3   OH229748   6.322   0.030   0.010  0.1784  0.0368 -0.4078
 2730TIP3    H129749   6.232   0.028  -0.023 -0.5918 -0.7043  1.6013
 2730TIP3    H229750   6.354  -0.059  -0.005  0.8288  0.4589 -1.6766
 2731TIP3   OH229751   3.376   2.803   1.896 -0.0160  0.3060 -0.4511
 2731TIP3    H129752   3.427   2.787   1.975 -0.3054 -0.9830 -0.5008
 2731TIP3    H229753   3.430   2.767   1.825  0.1628  1.2922 -0.8286
 2732TIP3   OH229754   1.090   3.681   1.590 -1.0897 -0.0009 -1.0471
 2732TIP3    H129755   1.041   3.599   1.585 -0.2996 -0.4231 -1.9949
 2732TIP3    H229756   1.025   3.746   1.619 -1.4902 -1.1339  0.7871
 2733TIP3   OH229757   2.215   1.178   0.568 -0.2845 -0.0367 -0.2906
 2733TIP3    H129758   2.230   1.271   0.585 -0.3370 -0.2974  1.3384
 2733TIP3    H229759   2.131   1.160   0.611  0.8103 -1.3176  1.4006
 2734TIP3   OH229760   4.309   3.048   8.734  0.6108 -0.9889  0.1477
 2734TIP3    H129761   4.240   3.013   8.678  2.1985 -0.1408 -2.4963
 2734TIP3    H229762   4.390   3.016   8.694  1.8285 -1.5775  2.8814
 2735TIP3   OH229763   4.323   0.106   8.688  0.2282  0.8385  0.3601
 2735TIP3    H129764   4.347   0.036   8.628  0.2494  1.0145  0.1627
 2735TIP3    H229765   4.408   0.141   8.718  0.2186  1.0840  0.1023
 2736TIP3   OH229766   4.654   3.546   3.222 -0.3828  0.2582  0.1744
 2736TIP3    H129767   4.573   3.498   3.239 -0.5182 -0.0900 -1.3209
 2736TIP3    H229768   4.626   3.621   3.168  0.3839 -0.3709 -1.1523
 2737TIP3   OH229769   4.660   4.059   0.532 -0.4219 -0.2382 -0.1263
 2737TIP3    H129770   4.617   4.020   0.608 -0.1110 -1.3642 -0.5104
 2737TIP3    H229771   4.595   4.120   0.496 -0.2352  1.0279  1.5656
 2738TIP3   OH229772   4.023   1.155   0.340 -0.3901  0.2613 -0.1148
 2738TIP3    H129773   3.978   1.079   0.377  0.7681 -1.1677 -1.4602
 2738TIP3    H229774   4.013   1.145   0.246  1.4413  0.6974 -0.3921
 2739TIP3   OH229775   4.143   2.787   8.528 -0.0121  0.1889 -0.2938
 2739TIP3    H129776   4.189   2.743   8.601 -1.2740  1.9494  1.6825
 2739TIP3    H229777   4.091   2.717   8.488  0.7436 -0.8510  0.4561
 2740TIP3   OH229778   5.649   6.744   1.912 -0.2659 -0.3897  0.4661
 2740TIP3    H129779   5.743   6.733   1.932 -0.2569  0.6065  1.0055
 2740TIP3    H229780   5.644   6.827   1.865 -0.7391 -1.0353 -0.6537
 2741TIP3   OH229781   0.358   0.780   1.839 -0.1669 -0.7628  0.5052
 2741TIP3    H129782   0.442   0.814   1.808 -0.9845 -0.7960 -1.9508
 2741TIP3    H229783   0.381   0.718   1.908  1.8411 -0.9204 -0.2391
 2742TIP3   OH229784   6.302   0.099   2.226  0.0978 -0.0165 -0.8424
 2742TIP3    H129785   6.310   0.174   2.167 -0.5632  1.4607  0.8480
 2742TIP3    H229786   6.389   0.090   2.266 -0.4030  1.4369  0.7000
 2743TIP3   OH229787   5.821   1.485   0.047 -0.1310 -0.5776 -0.4140
 2743TIP3    H129788   5.884   1.422   0.082 -1.1634 -1.0870  0.5788
 2743TIP3    H229789   5.743   1.434   0.029 -1.5720  0.6158  1.9233
 2744TIP3   OH229790   3.967   1.682   1.649 -0.1978 -0.2256  0.0557
 2744TIP3    H129791   4.030   1.749   1.674 -1.5379  1.7660 -1.5363
 2744TIP3    H229792   3.944   1.638   1.731 -1.5071  3.2972  1.7712
 2745TIP3   OH229793   0.576   0.312   2.072 -0.4269 -0.3773  0.3412
 2745TIP3    H129794   0.571   0.350   2.160  1.0708  0.9407 -0.0896
 2745TIP3    H229795   0.492   0.268   2.060 -1.1294  0.4246  1.9792
 2746TIP3   OH229796   4.918   1.594   0.631 -0.0372 -0.0598  0.1813
 2746TIP3    H129797   4.990   1.655   0.647  2.6140 -2.8986  0.1904
 2746TIP3    H229798   4.886   1.617   0.544 -1.0132  2.9360  1.2152
 2747TIP3   OH229799   2.859   2.772   7.751  0.5710 -0.2188 -0.2356
 2747TIP3    H129800   2.944   2.809   7.776  0.0203  1.3346 -0.5008
 2747TIP3    H229801   2.846   2.802   7.661  0.2834 -1.4783 -0.6270
 2748TIP3   OH229802   6.449   5.728   2.532 -0.3508 -0.1439 -0.5522
 2748TIP3    H129803   6.364   5.685   2.542 -0.8431  0.6955 -0.9786
 2748TIP3    H229804   6.430   5.806   2.478  0.6550  0.1481 -0.5037
 2749TIP3   OH229805   4.724   0.050   2.536  0.6739 -0.2579  0.4589
 2749TIP3    H129806   4.789  -0.019   2.543  0.8052 -0.2540 -0.5345
 2749TIP3    H229807   4.770   0.129   2.565  0.7229 -0.4657  0.9606
 2750TIP3   OH229808   5.252   3.571   2.045 -0.0112 -0.1790 -0.5529
 2750TIP3    H129809   5.168   3.617   2.054 -1.3649 -1.8052 -3.3863
 2750TIP3    H229810   5.315   3.641   2.026 -1.0954  0.9197 -0.2768
 2751TIP3   OH229811   1.677   4.201   6.911 -0.3116  0.0142  0.3478
 2751TIP3    H129812   1.732   4.276   6.890 -1.3384  0.2898 -1.5870
 2751TIP3    H229813   1.587   4.234   6.905 -0.8768 -1.7217 -2.5502
 2752TIP3   OH229814   5.585   0.579   7.371 -0.4171  0.4794  0.2971
 2752TIP3    H129815   5.594   0.634   7.293  0.1985 -0.2009 -0.1218
 2752TIP3    H229816   5.544   0.636   7.436  0.3949  1.4990 -0.0587
 2753TIP3   OH229817   6.562   6.304   7.578  0.1331 -0.1291 -0.3514
 2753TIP3    H129818   6.578   6.380   7.634  1.4904 -0.4830 -0.2332
 2753TIP3    H229819   6.526   6.341   7.497  2.2907  0.8656 -0.9452
 2754TIP3   OH229820   5.051   0.567   2.042 -0.4388 -0.0104 -0.1283
 2754TIP3    H129821   5.031   0.568   2.135 -0.4351 -1.6476 -0.0951
 2754TIP3    H229822   5.030   0.656   2.013 -2.3493 -0.0182  1.0373
 2755TIP3   OH229823   3.596   4.948   1.399  0.6029  0.1247 -0.3998
 2755TIP3    H129824   3.675   4.894   1.399 -0.0187 -0.8598 -1.4305
 2755TIP3    H229825   3.591   4.982   1.309  0.2544  0.7782 -0.1350
 2756TIP3   OH229826   6.643   6.447   1.655  0.1712  0.2729 -0.3111
 2756TIP3    H129827   6.735   6.423   1.665  0.1678  0.8247  1.4553
 2756TIP3    H229828   6.599   6.365   1.634  0.4903 -0.9966  3.2469
 2757TIP3   OH229829   1.276   2.436   8.049 -0.0104  0.8437 -0.0674
 2757TIP3    H129830   1.231   2.438   7.965  0.8154 -1.3201 -0.6380
 2757TIP3    H229831   1.267   2.345   8.078  1.9598  0.9136  0.9017
 2758TIP3   OH229832   1.605   1.745   0.598 -0.2574  0.3342 -0.1739
 2758TIP3    H129833   1.555   1.683   0.545 -0.2364  0.0964  0.0843
 2758TIP3    H229834   1.661   1.691   0.652  2.1597  0.5907 -2.2234
 2759TIP3   OH229835   1.239   0.625   7.974 -0.4080  0.1779 -0.5324
 2759TIP3    H129836   1.151   0.661   7.963 -0.2907  0.8038  0.4286
 2759TIP3    H229837   1.239   0.592   8.064  0.6073  0.9520 -0.2427
 2760TIP3   OH229838   5.556   2.092   8.463 -0.2433  0.0053  0.1246
 2760TIP3    H129839   5.635   2.119   8.417 -0.9127  1.3326 -0.2716
 2760TIP3    H229840   5.509   2.173   8.482 -2.3267 -0.8087 -1.1208
 2761TIP3   OH229841   2.234   6.151   0.104  0.5978  0.2382 -0.4369
 2761TIP3    H129842   2.249   6.245   0.113  1.4407  0.0102  0.6363
 2761TIP3    H229843   2.144   6.138   0.135  1.1924  0.4118  1.4223
 2762TIP3   OH229844   1.621   5.442   2.531 -0.2916 -0.2182  0.2286
 2762TIP3    H129845   1.537   5.397   2.535 -0.5313  0.2202  0.1306
 2762TIP3    H229846   1.663   5.422   2.615 -0.6616 -0.1065  0.4386
 2763TIP3   OH229847   3.549   1.386   8.466  0.1975 -0.5788 -0.0949
 2763TIP3    H129848   3.593   1.468   8.490  3.0339 -1.3075 -2.2351
 2763TIP3    H229849   3.543   1.338   8.549  3.4901 -0.3514  0.4228
 2764TIP3   OH229850   3.208   1.704   7.997 -0.1877  0.1607  0.1252
 2764TIP3    H129851   3.158   1.751   8.063 -2.3623 -0.8428 -0.6814
 2764TIP3    H229852   3.165   1.618   7.992  0.7169 -0.2438 -1.6393
 2765TIP3   OH229853   6.496   4.984   2.033 -0.1260  0.4222  0.6856
 2765TIP3    H129854   6.556   4.977   1.958 -1.1780  0.5050 -0.1854
 2765TIP3    H229855   6.503   5.076   2.060 -1.4304  1.0078 -0.7968
 2766TIP3   OH229856   5.852   2.622   8.162  0.7788  0.3522  0.1925
 2766TIP3    H129857   5.765   2.623   8.121 -0.0592 -1.5592  1.7582
 2766TIP3    H229858   5.851   2.697   8.221 -0.5773 -0.6812  1.5666
 2767TIP3   OH229859   2.607   3.517   1.684 -0.2702 -0.4689 -0.2464
 2767TIP3    H129860   2.544   3.579   1.722 -0.0104 -0.4285  0.1257
 2767TIP3    H229861   2.689   3.536   1.729 -0.3157 -1.4655  0.2856
 2768TIP3   OH229862   3.073   1.467   8.021  0.4165  0.1125 -0.1357
 2768TIP3    H129863   3.090   1.390   7.967 -1.2413 -0.7118  0.4340
 2768TIP3    H229864   3.136   1.461   8.093  1.1198 -0.0172 -0.7578
 2769TIP3   OH229865   3.944   1.342   2.701  0.2039 -0.5669  0.1637
 2769TIP3    H129866   3.977   1.287   2.630  1.2456  1.8160 -1.3140
 2769TIP3    H229867   4.017   1.348   2.764 -0.0735 -1.2074  0.5557
 2770TIP3   OH229868   4.826   1.392   8.775 -0.4156 -0.5323 -0.6876
 2770TIP3    H129869   4.895   1.429   8.721  1.3994 -2.7505 -0.0386
 2770TIP3    H229870   4.747   1.398   8.720  0.5225  0.8446 -1.9764
 2771TIP3   OH229871   4.565   6.009   3.297  0.1377  0.1561 -0.0830
 2771TIP3    H129872   4.661   6.008   3.292  0.1181  0.4628 -0.5388
 2771TIP3    H229873   4.536   5.967   3.217 -0.1089 -0.2534  0.2197
 2772TIP3   OH229874   2.131   6.429   1.888  0.6046 -0.6330  0.8298
 2772TIP3    H129875   2.068   6.360   1.870  0.6211 -0.1499 -1.3890
 2772TIP3    H229876   2.077   6.505   1.910  0.5282 -0.8664  1.4762
 2773TIP3   OH229877   3.816   5.866   2.419  0.2919 -0.4431  0.3044
 2773TIP3    H129878   3.849   5.805   2.354  1.6536  1.6731 -1.1405
 2773TIP3    H229879   3.883   5.868   2.487  0.1083 -0.7550  0.4964
 2774TIP3   OH229880   5.655   3.493   1.526 -0.5755 -0.0966  0.4884
 2774TIP3    H129881   5.737   3.444   1.531  1.4447  2.9340 -0.2053
 2774TIP3    H229882   5.596   3.436   1.476  0.5493 -2.9568  2.1967
 2775TIP3   OH229883   5.400   5.376   8.142  0.8193  0.4802  0.3615
 2775TIP3    H129884   5.472   5.410   8.088  0.5859  2.7351  1.3662
 2775TIP3    H229885   5.333   5.445   8.139 -0.2508 -0.4724  1.4794
 2776TIP3   OH229886   3.330   4.449   1.619  0.5094 -0.6333 -0.2075
 2776TIP3    H129887   3.407   4.482   1.666  1.2135 -0.0092 -1.7400
 2776TIP3    H229888   3.257   4.464   1.679  1.5536 -1.1871  1.2535
 2777TIP3   OH229889   3.220   0.525   1.351 -0.0516 -0.1648 -0.2581
 2777TIP3    H129890   3.275   0.513   1.428 -0.4645 -0.8566 -0.0577
 2777TIP3    H229891   3.157   0.453   1.355 -0.5295  0.2065 -0.8566
 2778TIP3   OH229892   4.628   2.913   2.570 -0.3993 -0.1494  0.0585
 2778TIP3    H129893   4.628   2.825   2.608 -0.4171 -0.9289 -1.6414
 2778TIP3    H229894   4.573   2.964   2.628 -0.2257 -1.2007  1.2047
 2779TIP3   OH229895   4.612   5.369   8.318  0.2832  0.1987  0.1369
 2779TIP3    H129896   4.629   5.397   8.408 -0.0828 -1.3963  0.7318
 2779TIP3    H229897   4.538   5.308   8.325 -0.8449  1.3015 -1.4580
 2780TIP3   OH229898   0.775   2.495   0.552  0.0960  0.1609 -0.0872
 2780TIP3    H129899   0.688   2.457   0.546  0.4787 -0.7760  0.2195
 2780TIP3    H229900   0.762   2.576   0.601 -0.6853  0.3390 -0.5581
 2781TIP3   OH229901   6.088   3.966   1.128  0.4665 -0.4003  0.6401
 2781TIP3    H129902   6.038   4.047   1.138 -2.2724 -2.0609  1.2646
 2781TIP3    H229903   6.165   3.978   1.183 -0.3918  1.3659  1.5189
 2782TIP3   OH229904   2.088   2.189   2.979 -0.1553  0.0992  0.1023
 2782TIP3    H129905   2.108   2.106   3.022 -1.0394 -0.1788  0.0031
 2782TIP3    H229906   2.081   2.252   3.051 -0.0297 -0.0311  0.2288
 2783TIP3   OH229907   6.504   3.945   8.194 -0.0896  0.0610 -0.5352
 2783TIP3    H129908   6.557   3.906   8.264 -0.8358 -0.7208 -0.3863
 2783TIP3    H229909   6.420   3.964   8.234  0.0548  1.2965 -0.7761
 2784TIP3   OH229910   5.439   3.364   8.716  0.4787  0.5372  0.8059
 2784TIP3    H129911   5.384   3.431   8.674  1.1786  0.3016 -0.5133
 2784TIP3    H229912   5.455   3.299   8.648 -0.3261 -1.1144  2.1124
 2785TIP3   OH229913   6.321   5.034   7.797 -0.3204 -0.1931  0.5779
 2785TIP3    H129914   6.227   5.031   7.780 -0.2367 -0.5005  0.1647
 2785TIP3    H229915   6.328   5.052   7.891 -0.7902 -0.9021  0.7527
 2786TIP3   OH229916   1.219   6.076   0.147  0.3122 -0.3457  0.1705
 2786TIP3    H129917   1.146   6.060   0.206  1.5862 -0.7127  1.7288
 2786TIP3    H229918   1.227   6.172   0.145 -0.7528 -0.2560 -0.7505
 2787TIP3   OH229919   4.474   0.144   0.468  0.4267  0.3062  0.5542
 2787TIP3    H129920   4.527   0.211   0.425 -1.3066  2.7072  1.9193
 2787TIP3    H229921   4.418   0.109   0.398  1.4982  0.0694 -0.2147
 2788TIP3   OH229922   5.917   4.190   1.169  0.4271 -0.1354  0.3095
 2788TIP3    H129923   5.844   4.178   1.108  0.7065  0.0149 -0.0622
 2788TIP3    H229924   5.879   4.174   1.255 -0.1290  0.2837  0.1524
 2789TIP3   OH229925   2.882   1.131   7.801 -0.0362 -0.1668 -0.4336
 2789TIP3    H129926   2.964   1.180   7.798  1.6509 -2.7644 -0.0567
 2789TIP3    H229927   2.852   1.140   7.891 -0.1348  0.6839 -0.5394
 2790TIP3   OH229928   3.204   0.380   1.122 -0.1671 -0.1094 -0.1317
 2790TIP3    H129929   3.252   0.327   1.059 -0.2811  1.3906 -1.5510
 2790TIP3    H229930   3.268   0.403   1.189  0.1810 -0.9965 -0.1493
 2791TIP3   OH229931   4.919   3.333   0.225 -0.6836  0.2498  0.0671
 2791TIP3    H129932   5.000   3.287   0.248 -0.9336 -0.1895  0.0882
 2791TIP3    H229933   4.859   3.315   0.297  0.0658  2.9342  1.5065
 2792TIP3   OH229934   4.120   1.420   2.041  0.2464 -0.1190  0.4472
 2792TIP3    H129935   4.100   1.380   2.125  1.6994 -1.7465  0.0760
 2792TIP3    H229936   4.211   1.395   2.024  0.8673  2.4462 -0.3612
 2793TIP3   OH229937   4.652   0.548   1.405 -0.7196 -0.2949  0.1746
 2793TIP3    H129938   4.581   0.575   1.346 -1.9694  0.4553  1.9328
 2793TIP3    H229939   4.684   0.631   1.441 -0.5081 -0.7819  1.1151
 2794TIP3   OH229940   4.039   3.867   0.508  0.4114  0.1962  0.1883
 2794TIP3    H129941   3.986   3.855   0.430  0.3498 -0.3952  0.3151
 2794TIP3    H229942   4.011   3.952   0.543  0.9258  0.7879 -0.7925
 2795TIP3   OH229943   1.053   2.157   0.083  0.4521 -0.3920  0.0668
 2795TIP3    H129944   1.057   2.102   0.161 -0.3047  1.3888  1.4538
 2795TIP3    H229945   1.138   2.146   0.041  1.1819 -0.8243  1.5850
 2796TIP3   OH229946   5.799   6.547   2.532  0.4293 -0.0515  0.5562
 2796TIP3    H129947   5.860   6.620   2.526  0.3250 -0.0060  0.0513
 2796TIP3    H229948   5.849   6.471   2.500  0.3233 -0.0758  0.4480
 2797TIP3   OH229949   3.231   5.870   8.575 -0.0453 -0.1720 -0.6650
 2797TIP3    H129950   3.256   5.815   8.501  0.3127 -0.2687 -0.4717
 2797TIP3    H229951   3.293   5.942   8.573  1.3586 -1.2742  0.8227
 2798TIP3   OH229952   6.756   1.666   1.965 -0.1711 -0.0934 -0.2897
 2798TIP3    H129953   6.795   1.633   1.884  0.3487 -0.9893  0.3119
 2798TIP3    H229954   6.830   1.703   2.013 -0.4850  0.4797 -0.2397
 2799TIP3   OH229955   6.628   1.388   7.843  0.0112  0.1127  0.2031
 2799TIP3    H129956   6.675   1.468   7.822 -0.9500  1.1296  1.7639
 2799TIP3    H229957   6.633   1.381   7.938 -0.1115 -1.5812  0.1215
 2800TIP3   OH229958   0.140   2.801   7.605 -0.3142  0.5487  0.2173
 2800TIP3    H129959   0.084   2.869   7.567  0.0119  1.1793  0.8333
 2800TIP3    H229960   0.087   2.761   7.674  0.2263  1.6694  1.3255
 2801TIP3   OH229961   2.904   5.023   1.173  0.1608 -0.0114  0.0554
 2801TIP3    H129962   2.813   5.031   1.201  0.2280 -1.1598  0.6698
 2801TIP3    H229963   2.911   4.933   1.141  0.7421  0.4745 -1.2805
 2802TIP3   OH229964   2.361   1.886   8.308 -0.2343 -0.5398 -0.5721
 2802TIP3    H129965   2.357   1.911   8.215 -0.9551 -1.0264 -0.6826
 2802TIP3    H229966   2.281   1.835   8.322 -0.6161  0.3445  0.5612
 2803TIP3   OH229967   0.524   0.548   8.329  0.5507 -0.4799 -0.2535
 2803TIP3    H129968   0.486   0.500   8.256 -1.1749 -0.7017  0.7289
 2803TIP3    H229969   0.495   0.639   8.317  0.7292 -0.4049 -0.1363
 2804TIP3   OH229970   5.441   3.963   7.736  0.0572 -0.7409 -0.2010
 2804TIP3    H129971   5.364   4.019   7.723  2.5031  3.1862  0.5940
 2804TIP3    H229972   5.424   3.918   7.818 -0.4258  2.1297  1.4076
 2805TIP3   OH229973   6.786   2.680   1.982  0.1920 -0.5379 -0.0209
 2805TIP3    H129974   6.848   2.644   2.046  0.3888 -0.2003 -0.0200
 2805TIP3    H229975   6.729   2.606   1.961  1.4030 -1.2449 -1.0042
 2806TIP3   OH229976   1.189   1.739   0.264  0.0009  0.1722 -0.2280
 2806TIP3    H129977   1.193   1.657   0.315  2.7681 -0.6648 -1.5394
 2806TIP3    H229978   1.152   1.713   0.180  1.3101  0.1161 -0.8099
 2807TIP3   OH229979   1.538   1.066   8.708  0.4373  0.2391  0.0263
 2807TIP3    H129980   1.536   0.976   8.739 -1.6681  0.8483  1.9106
 2807TIP3    H229981   1.620   1.102   8.741  0.2172 -0.3505  1.2485
 2808TIP3   OH229982   3.378   1.633   8.644  0.0794  0.4148  0.3146
 2808TIP3    H129983   3.444   1.664   8.582  0.9470 -2.0655 -0.1288
 2808TIP3    H229984   3.426   1.621   8.726  0.0858 -0.8480  0.1464
 2809TIP3   OH229985   3.766   4.291   0.516  0.1107 -0.0649  0.3296
 2809TIP3    H129986   3.692   4.239   0.485  0.2862  0.8671 -1.8418
 2809TIP3    H229987   3.775   4.361   0.452  2.8168 -0.1041  0.5254
 2810TIP3   OH229988   2.513   4.631   1.737 -0.0770 -0.3012  0.1558
 2810TIP3    H129989   2.525   4.646   1.643  0.1700 -0.1338  0.2165
 2810TIP3    H229990   2.419   4.618   1.746 -0.3559  1.5493  0.1635
 2811TIP3   OH229991   5.961   4.207   8.662  0.2093 -0.5656  0.0494
 2811TIP3    H129992   5.958   4.111   8.653 -1.1289 -0.4046 -1.6986
 2811TIP3    H229993   5.899   4.226   8.733 -2.7398 -0.8189 -2.2460
 2812TIP3   OH229994   6.396   6.721   1.426  0.2275 -0.7016  0.4524
 2812TIP3    H129995   6.419   6.813   1.418  0.6179 -0.7466  0.9856
 2812TIP3    H229996   6.308   6.715   1.389  0.3817 -0.2052 -0.0097
 2813TIP3   OH229997   6.525   6.503   7.811 -0.5575  0.7273 -0.3278
 2813TIP3    H129998   6.602   6.559   7.809 -2.4704  3.5105 -0.9334
 2813TIP3    H229999   6.454   6.557   7.775 -2.6245 -2.0053 -0.6946
 2814TIP3   OH230000   4.296   5.357   7.999  0.2030 -0.2762 -0.1559
 2814TIP3    H130001   4.295   5.452   7.984  1.9187 -0.1695  0.1746
 2814TIP3    H230002   4.368   5.325   7.945 -0.8032 -1.5142 -0.8148
 2815TIP3   OH230003   3.948   2.620   0.952 -0.0247  0.0403  0.1780
 2815TIP3    H130004   4.007   2.549   0.977 -0.9028  0.0036  2.3716
 2815TIP3    H230005   3.871   2.576   0.917  0.6813  0.0549 -1.4854
 2816TIP3   OH230006   3.636   3.853   8.117 -0.1320  0.0340  0.4542
 2816TIP3    H130007   3.651   3.821   8.028 -0.3608  0.6564  0.1843
 2816TIP3    H230008   3.719   3.892   8.143  0.2644 -1.1004  0.9293
 2817TIP3   OH230009   0.566   1.575   8.505  0.1551 -0.1484  0.1128
 2817TIP3    H130010   0.568   1.503   8.568  1.4694  0.4723  0.8423
 2817TIP3    H230011   0.515   1.542   8.431 -1.1788 -1.0059  1.3651
 2818TIP3   OH230012   1.480   6.047   0.776  0.2069  0.1633 -0.0345
 2818TIP3    H130013   1.527   5.991   0.714  0.5881  0.2732  0.1485
 2818TIP3    H230014   1.511   6.017   0.862 -0.2427  0.0767  0.1008
 2819TIP3   OH230015   3.458   4.750   1.646 -0.4191 -0.2675  0.5108
 2819TIP3    H130016   3.390   4.782   1.587 -0.5876 -0.1077  0.7866
 2819TIP3    H230017   3.501   4.829   1.679 -0.0331 -0.3716  0.2604
 2820TIP3   OH230018   3.914   6.221   1.861 -0.4209  0.2624  0.3090
 2820TIP3    H130019   3.833   6.262   1.892 -0.2539 -0.3588  1.6517
 2820TIP3    H230020   3.983   6.279   1.891 -0.2633 -0.2724  1.0030
 2821TIP3   OH230021   5.739   5.788   7.740  0.4874  0.1554  0.5348
 2821TIP3    H130022   5.714   5.801   7.649  2.8458 -1.6911 -0.4783
 2821TIP3    H230023   5.656   5.775   7.786 -0.7037 -0.2557 -1.5938
 2822TIP3   OH230024   5.809   0.308   7.751 -0.0898 -0.0639  0.0941
 2822TIP3    H130025   5.717   0.333   7.749 -0.4854 -1.4580 -0.1281
 2822TIP3    H230026   5.822   0.258   7.671  0.4353 -1.2585  0.8965
 2823TIP3   OH230027   5.890   6.375   1.959 -0.1513  0.2919  0.1664
 2823TIP3    H130028   5.824   6.351   1.894  1.5680 -0.4088 -1.4149
 2823TIP3    H230029   5.920   6.291   1.995  0.4598  0.5379  0.2464
 2824TIP3   OH230030   6.503   6.243   0.726  0.8357  0.2065  0.4248
 2824TIP3    H130031   6.557   6.227   0.649  0.3085  1.0481 -0.1480
 2824TIP3    H230032   6.558   6.296   0.784  0.9293  0.3314  0.2232
 2825TIP3   OH230033   1.507   0.801   7.258  0.0547  0.2883  0.0962
 2825TIP3    H130034   1.446   0.768   7.193 -0.9088  1.5630  0.2956
 2825TIP3    H230035   1.455   0.807   7.339 -0.2766  3.3616 -0.1928
 2826TIP3   OH230036   0.912   5.222   2.130  0.2229 -0.3770  0.4676
 2826TIP3    H130037   0.953   5.250   2.212 -0.0545 -0.5220  0.6603
 2826TIP3    H230038   0.889   5.303   2.085 -1.1913 -0.2572  1.3319
 2827TIP3   OH230039   3.840   0.990   2.774 -0.5159 -0.0018 -0.3303
 2827TIP3    H130040   3.912   1.024   2.829 -0.6855  1.3084 -0.8667
 2827TIP3    H230041   3.761   1.010   2.824 -0.6343  0.6778 -0.7729
 2828TIP3   OH230042   5.258   5.992   8.259  0.0089 -0.1115  0.2613
 2828TIP3    H130043   5.184   5.948   8.217  0.1523 -0.7556  0.6567
 2828TIP3    H230044   5.329   5.929   8.253 -0.4087 -0.9943  2.9597
 2829TIP3   OH230045   2.602   2.999   8.400 -0.2387  0.5425 -0.1081
 2829TIP3    H130046   2.659   3.056   8.348 -0.0921  1.7817  1.3445
 2829TIP3    H230047   2.517   3.043   8.398 -0.7125 -0.3666 -0.7774
 2830TIP3   OH230048   2.980   4.282   7.837  0.1735  0.8744 -0.0975
 2830TIP3    H130049   2.922   4.321   7.772 -2.3527 -3.6230 -0.9103
 2830TIP3    H230050   3.040   4.227   7.787  0.3251 -0.1713  1.1706
 2831TIP3   OH230051   5.975   0.468   2.209  0.7754  0.1558  0.1726
 2831TIP3    H130052   5.945   0.551   2.246 -1.1934  1.3316 -3.5055
 2831TIP3    H230053   6.064   0.486   2.179  0.8008  0.5514  0.4734
 2832TIP3   OH230054   0.091   6.459   2.662 -0.2668  0.6478 -0.2251
 2832TIP3    H130055   0.143   6.389   2.623 -0.1391  0.4538  0.2779
 2832TIP3    H230056   0.096   6.442   2.756 -1.1454  0.6948 -0.1635
 2833TIP3   OH230057   4.676   4.190   8.690  0.0635 -0.1896  0.0720
 2833TIP3    H130058   4.591   4.162   8.655  0.7744  0.7525 -2.6819
 2833TIP3    H230059   4.656   4.219   8.779 -2.7062  0.7707 -0.7346
 2834TIP3   OH230060   5.908   6.345   8.192 -0.0546 -0.7836 -0.1052
 2834TIP3    H130061   5.968   6.367   8.264 -0.6120 -0.6127  0.3203
 2834TIP3    H230062   5.875   6.258   8.214 -1.5134 -0.0472  0.7562
 2835TIP3   OH230063   1.579   2.373   0.212  0.4466 -0.1018 -0.2786
 2835TIP3    H130064   1.490   2.352   0.241  0.5485 -0.7036 -0.3912
 2835TIP3    H230065   1.570   2.395   0.119  0.5315 -0.9969 -0.5071
 2836TIP3   OH230066   3.460   2.982   0.431  0.3534 -0.4074 -0.2985
 2836TIP3    H130067   3.405   2.904   0.423  0.6987 -0.5280 -1.7875
 2836TIP3    H230068   3.531   2.955   0.489  0.1093 -0.9841 -0.2593
 2837TIP3   OH230069   2.999   3.702   8.104 -0.2245  0.0109  0.7198
 2837TIP3    H130070   3.057   3.669   8.035 -1.3687  2.1180 -1.3902
 2837TIP3    H230071   3.057   3.752   8.162  0.3808  0.6031 -0.3636
 2838TIP3   OH230072   5.560   6.035   2.141 -0.6234  0.7834  0.1251
 2838TIP3    H130073   5.626   6.063   2.078 -0.5458 -1.2000 -0.7527
 2838TIP3    H230074   5.609   6.018   2.222 -0.2192  0.3567 -0.2045
 2839TIP3   OH230075   1.248   3.832   2.584  0.1380 -0.2701  0.5823
 2839TIP3    H130076   1.311   3.902   2.598 -1.2293  0.9670  0.7738
 2839TIP3    H230077   1.208   3.817   2.669 -0.4520 -0.3992  0.2927
 2840TIP3   OH230078   4.173   1.949   0.229 -0.2299 -0.3226  0.5631
 2840TIP3    H130079   4.176   1.909   0.142 -0.7756  0.1252  0.3352
 2840TIP3    H230080   4.231   1.894   0.282 -1.1343 -1.5592  0.3190
 2841TIP3   OH230081   3.214   1.965   2.369  0.2295 -0.1150 -0.5159
 2841TIP3    H130082   3.216   1.873   2.345  0.5807 -0.2134 -0.1252
 2841TIP3    H230083   3.293   1.978   2.423 -0.4454  0.1388  0.4283
 2842TIP3   OH230084   0.237   2.512   1.138 -0.2360 -0.0834  0.2373
 2842TIP3    H130085   0.230   2.607   1.141  0.4929 -0.0107 -0.3028
 2842TIP3    H230086   0.302   2.494   1.071 -0.5331 -0.9738  0.1691
 2843TIP3   OH230087   0.437   6.727   2.025  0.6877 -0.8034 -0.6297
 2843TIP3    H130088   0.406   6.645   2.064  1.4084 -0.5723  0.4834
 2843TIP3    H230089   0.372   6.748   1.958  1.0036 -2.7697 -1.6201
 2844TIP3   OH230090   4.879   6.136   1.372 -0.3480  0.3286  0.4198
 2844TIP3    H130091   4.958   6.188   1.383  0.0291 -0.4550  1.7237
 2844TIP3    H230092   4.866   6.094   1.457 -2.1733  0.4428  0.2377
 2845TIP3   OH230093   0.562   1.355   0.186  0.2011  0.2138 -0.2878
 2845TIP3    H130094   0.535   1.414   0.256  0.8221  0.3281 -0.1439
 2845TIP3    H230095   0.623   1.294   0.228 -0.4928 -0.5864 -0.4148
 2846TIP3   OH230096   3.186   0.424   1.881 -0.2524  0.3454 -0.8827
 2846TIP3    H130097   3.228   0.448   1.799 -1.8685  4.3505 -0.7604
 2846TIP3    H230098   3.235   0.473   1.948 -0.3084 -1.1506  0.3098
 2847TIP3   OH230099   2.710   5.161   7.057  0.4109  0.0987  0.5170
 2847TIP3    H130100   2.747   5.226   7.116 -0.0243  1.5853 -0.7882
 2847TIP3    H230101   2.759   5.172   6.976 -0.9533  0.1276 -0.3211
 2848TIP3   OH230102   3.156   4.136   1.714  0.2037  0.1413  0.4141
 2848TIP3    H130103   3.250   4.126   1.698  0.2156  1.6289 -0.6966
 2848TIP3    H230104   3.140   4.088   1.795  2.0694  0.4406  1.0121
 2849TIP3   OH230105   1.360   1.457   6.901  0.1172 -0.4044 -0.2371
 2849TIP3    H130106   1.276   1.427   6.868  1.0963 -1.8024 -1.6134
 2849TIP3    H230107   1.410   1.376   6.917  1.1044  0.3764  0.8416
 2850TIP3   OH230108   1.015   1.506   8.110  0.1614 -0.3838  0.1059
 2850TIP3    H130109   1.004   1.422   8.154 -0.4750 -0.4897 -0.2540
 2850TIP3    H230110   0.961   1.567   8.160 -1.3253 -0.6967 -1.0573
 2851TIP3   OH230111   4.972   3.679   0.788 -0.5166 -0.5576  0.2457
 2851TIP3    H130112   4.955   3.744   0.856 -2.0188 -1.0699  0.3954
 2851TIP3    H230113   4.992   3.598   0.836 -0.5523 -0.6692  0.0748
 2852TIP3   OH230114   6.659   6.506   8.740  0.4355  0.1829  0.2612
 2852TIP3    H130115   6.671   6.598   8.765  0.2677  0.1110  0.6036
 2852TIP3    H230116   6.689   6.457   8.816 -1.6252 -0.0181  0.9908
 2853TIP3   OH230117   3.719   1.861   0.850  0.1682  0.7444  0.6447
 2853TIP3    H130118   3.690   1.773   0.829 -1.8222  1.4509  0.1317
 2853TIP3    H230119   3.806   1.851   0.887 -0.2154 -1.4636  1.0408
 2854TIP3   OH230120   6.172   5.158   7.371  0.4410 -0.0449  0.2810
 2854TIP3    H130121   6.248   5.158   7.428 -0.5688  0.5061  1.7006
 2854TIP3    H230122   6.129   5.074   7.386  1.2175 -0.7439 -1.1996
 2855TIP3   OH230123   0.021   1.224   7.424  0.0967  0.3295  0.3132
 2855TIP3    H130124  -0.068   1.221   7.389  0.0372  0.3055  0.4636
 2855TIP3    H230125   0.074   1.178   7.360  0.0432  0.5681  0.0955
 2856TIP3   OH230126   6.818   3.008   7.504 -0.5577 -0.0214  0.6700
 2856TIP3    H130127   6.854   3.097   7.512  0.2205 -0.3091  0.4819
 2856TIP3    H230128   6.751   3.015   7.437  0.3660  0.1702 -0.2534
 2857TIP3   OH230129   2.418   4.351   8.427 -0.1183 -0.3201 -0.3206
 2857TIP3    H130130   2.330   4.350   8.389 -0.8458  2.3853  1.0130
 2857TIP3    H230131   2.455   4.435   8.401  1.1840 -0.4409  0.9860
 2858TIP3   OH230132   0.183   4.066   2.231 -0.3171 -0.1892  0.1041
 2858TIP3    H130133   0.186   3.993   2.293 -0.5508  1.4073  2.1396
 2858TIP3    H230134   0.090   4.076   2.211 -0.4468  0.3188  0.8814
 2859TIP3   OH230135   4.877   3.246   1.224  0.4479 -0.4945 -0.5290
 2859TIP3    H130136   4.954   3.213   1.269  0.2210 -0.5118 -0.1507
 2859TIP3    H230137   4.840   3.311   1.283  0.6081  0.0819 -1.0545
 2860TIP3   OH230138   6.411   5.757   1.753  0.5728 -0.2459  0.4741
 2860TIP3    H130139   6.413   5.820   1.680  0.4574  0.5577  1.1544
 2860TIP3    H230140   6.464   5.683   1.722  1.7303  0.6950  0.1299
 2861TIP3   OH230141   4.210   3.611   1.792  0.1507 -0.1232 -0.1099
 2861TIP3    H130142   4.231   3.519   1.807 -1.6229 -0.2410  2.3468
 2861TIP3    H230143   4.225   3.624   1.699  0.0861 -3.0051 -0.6226
 2862TIP3   OH230144   1.562   0.053   1.457 -0.0634 -0.1961 -0.4750
 2862TIP3    H130145   1.574   0.030   1.549 -0.8077  1.1853 -0.0074
 2862TIP3    H230146   1.578  -0.029   1.410 -0.6987 -1.1835  0.9447
 2863TIP3   OH230147   1.575   1.356   8.068 -0.2127  0.7068  0.4665
 2863TIP3    H130148   1.550   1.439   8.026 -4.2266 -0.3423  0.4339
 2863TIP3    H230149   1.545   1.365   8.158 -2.9926 -1.4742 -0.1290
 2864TIP3   OH230150   0.190   3.256   0.032  0.4866  0.3289 -0.3020
 2864TIP3    H130151   0.238   3.187   0.079  2.1919  2.1313  0.7872
 2864TIP3    H230152   0.171   3.321   0.100 -4.0887 -0.4560 -0.5620
 2865TIP3   OH230153   6.233   2.381   8.624 -0.0995 -0.1822  0.0312
 2865TIP3    H130154   6.212   2.313   8.689  1.7105 -1.1450 -0.3448
 2865TIP3    H230155   6.307   2.428   8.661  0.7864 -0.5723 -1.1918
 2866TIP3   OH230156   3.283   5.769   8.175 -0.0803 -0.1148 -0.2868
 2866TIP3    H130157   3.351   5.836   8.189 -0.6138  0.4295 -0.2311
 2866TIP3    H230158   3.305   5.699   8.237  0.0364  0.3666  0.2303
 2867TIP3   OH230159   3.302   3.001   2.315  0.5960 -0.2550  0.3086
 2867TIP3    H130160   3.358   2.926   2.336 -1.1740 -0.9541  2.9987
 2867TIP3    H230161   3.254   3.018   2.396 -1.1905  1.9560 -1.1147
 2868TIP3   OH230162   5.460   2.062   1.724  0.0287  0.3849  0.1598
 2868TIP3    H130163   5.367   2.057   1.703  0.1558  0.6743 -0.5020
 2868TIP3    H230164   5.483   2.154   1.711  0.3520  0.3716  0.5856
 2869TIP3   OH230165   6.701   3.158   0.712  0.0706 -0.1311  0.3127
 2869TIP3    H130166   6.776   3.214   0.691  0.0638 -0.2382 -0.0064
 2869TIP3    H230167   6.670   3.190   0.797  0.3364  0.0623  0.3383
 2870TIP3   OH230168   3.020   6.806   1.248 -0.1115  0.5336  0.6901
 2870TIP3    H130169   3.049   6.895   1.269 -0.2714 -0.1922  4.7500
 2870TIP3    H230170   2.925   6.814   1.236  0.1815  1.2179 -1.6789
 2871TIP3   OH230171   2.314   2.905   3.160 -0.3369  0.1293 -0.0810
 2871TIP3    H130172   2.300   2.812   3.143  0.6844 -0.2191  0.9360
 2871TIP3    H230173   2.228   2.937   3.188 -0.5139 -0.6835  0.3333
 2872TIP3   OH230174   2.225   5.677   1.303  0.1719  0.1636  0.1736
 2872TIP3    H130175   2.294   5.615   1.327 -0.6095  0.0167  2.2544
 2872TIP3    H230176   2.148   5.623   1.289  0.2006  0.4233 -1.1354
 2873TIP3   OH230177   2.586   3.065   0.724 -0.2159  0.1155 -0.3958
 2873TIP3    H130178   2.585   2.971   0.738 -0.2523  0.2534  0.5834
 2873TIP3    H230179   2.633   3.076   0.641  1.9408 -0.6372  0.6575
 2874TIP3   OH230180   5.699   0.497   1.342  0.9596  0.1017 -0.6027
 2874TIP3    H130181   5.781   0.544   1.327  1.3035  0.6737  2.4901
 2874TIP3    H230182   5.723   0.404   1.333  1.4529  0.3043 -1.5893
 2875TIP3   OH230183   4.845   1.466   3.051  0.0625  1.4175  0.0441
 2875TIP3    H130184   4.936   1.438   3.059  0.2984  2.0972 -0.1903
 2875TIP3    H230185   4.798   1.387   3.023  0.4146  0.8281  1.0573
 2876TIP3   OH230186   4.020   4.153   7.179 -0.2907  0.0076  0.1971
 2876TIP3    H130187   4.095   4.197   7.219 -0.5926  0.2741  0.4806
 2876TIP3    H230188   4.033   4.060   7.199  1.1684 -0.2479 -1.7474
 2877TIP3   OH230189   0.689   4.256   8.233 -0.0554 -0.0451  0.0584
 2877TIP3    H130190   0.626   4.237   8.163  1.2567  0.3754 -1.2823
 2877TIP3    H230191   0.658   4.338   8.271  0.6640  1.1759 -1.8383
 2878TIP3   OH230192   6.823   3.567   8.011 -0.0671 -0.0314  0.1072
 2878TIP3    H130193   6.842   3.505   8.082  2.0260  0.9709  0.5021
 2878TIP3    H230194   6.904   3.570   7.960 -0.3363  1.8715 -0.2837
 2879TIP3   OH230195   3.289   2.626   7.894  0.0732  0.2825  0.5064
 2879TIP3    H130196   3.239   2.544   7.896 -1.3868  1.1381  0.7793
 2879TIP3    H230197   3.251   2.674   7.820  0.0686  1.2114  1.1040
 2880TIP3   OH230198   4.517   3.664   0.778  0.3597 -0.2799  0.0532
 2880TIP3    H130199   4.498   3.676   0.871 -0.8034 -1.4633 -0.0007
 2880TIP3    H230200   4.562   3.579   0.773 -1.2251 -1.1360 -0.6070
 2881TIP3   OH230201   6.321   2.167   0.501 -0.4183 -0.5615  0.3726
 2881TIP3    H130202   6.263   2.174   0.576  0.6550 -1.1200  1.2734
 2881TIP3    H230203   6.403   2.207   0.530 -0.2683  0.0332 -0.8061
 2882TIP3   OH230204   3.541   5.985   1.757 -0.5852  0.5823  0.9334
 2882TIP3    H130205   3.631   6.008   1.784 -0.8954  1.7138  1.0648
 2882TIP3    H230206   3.532   5.893   1.780  0.8969  0.1568 -0.0388
 2883TIP3   OH230207   1.377   6.498   2.248 -0.3186 -0.3716  0.6317
 2883TIP3    H130208   1.450   6.441   2.272 -0.0286 -0.1668  0.2504
 2883TIP3    H230209   1.392   6.519   2.156 -1.7033 -1.5767  0.1035
 2884TIP3   OH230210   4.562   6.067   1.750 -0.0224 -0.1960 -0.4364
 2884TIP3    H130211   4.582   5.980   1.785  0.1741  0.4312  1.0613
 2884TIP3    H230212   4.579   6.127   1.822 -0.1879  1.1029 -1.4353
 2885TIP3   OH230213   0.640   5.976   2.100  0.2397 -0.3175  0.2067
 2885TIP3    H130214   0.697   5.913   2.056 -0.1299  0.6937 -1.7979
 2885TIP3    H230215   0.696   6.052   2.115  0.0214 -0.1911  0.3892
 2886TIP3   OH230216   0.808   1.177   0.800 -0.1163 -0.4196 -0.6967
 2886TIP3    H130217   0.751   1.226   0.741  0.0179 -0.1114 -0.5731
 2886TIP3    H230218   0.798   1.221   0.885 -0.6361 -1.1186 -0.3814
 2887TIP3   OH230219   4.331   2.721   2.639 -0.0818 -0.3129  0.1665
 2887TIP3    H130220   4.426   2.712   2.646  0.3665  2.8966 -0.3336
 2887TIP3    H230221   4.299   2.711   2.728  0.4589 -2.8656  0.1672
 2888TIP3   OH230222   0.065   6.351   0.512  0.0908  0.1394 -0.4158
 2888TIP3    H130223   0.154   6.328   0.486  0.0552  0.0211 -0.4341
 2888TIP3    H230224   0.070   6.443   0.539  0.2665  0.0637 -0.1858
 2889TIP3   OH230225   5.192   1.102   0.503 -0.2628 -0.3082 -0.0197
 2889TIP3    H130226   5.175   1.191   0.470  1.0092  0.1219  0.4130
 2889TIP3    H230227   5.133   1.046   0.453  0.4771  0.5196 -1.9065
 2890TIP3   OH230228   2.187   5.497   8.631  0.1129 -0.3307  0.6391
 2890TIP3    H130229   2.164   5.529   8.718 -0.2078 -1.2956  0.9137
 2890TIP3    H230230   2.129   5.545   8.572  1.5724  1.7172  0.7323
 2891TIP3   OH230231   2.429   6.752   7.740  0.4616 -0.4385  0.2958
 2891TIP3    H130232   2.491   6.771   7.810 -0.9094  0.8272  1.2417
 2891TIP3    H230233   2.403   6.661   7.754  0.2483 -0.2204  1.4409
 2892TIP3   OH230234   1.508   5.679   8.060 -0.0674 -0.1422 -0.3705
 2892TIP3    H130235   1.501   5.684   7.965  0.9164  0.4952 -0.4215
 2892TIP3    H230236   1.571   5.609   8.077  2.6108  2.0955 -0.3566
 2893TIP3   OH230237   0.259   6.623   1.316 -0.9571 -0.5153  0.2982
 2893TIP3    H130238   0.280   6.668   1.398 -1.3605 -2.2979  1.4465
 2893TIP3    H230239   0.165   6.606   1.322 -1.3619  0.8840 -1.3893
 2894TIP3   OH230240   1.431   4.651   1.800 -0.6267  0.8718  0.3105
 2894TIP3    H130241   1.457   4.579   1.743 -2.0292 -0.0140  0.7345
 2894TIP3    H230242   1.335   4.650   1.797 -0.7736  0.6143  2.8766
 2895TIP3   OH230243   6.695   5.091   8.620 -0.4490 -0.0092 -0.0214
 2895TIP3    H130244   6.747   5.022   8.579  1.1028  0.3948  1.1633
 2895TIP3    H230245   6.606   5.077   8.588 -0.0881 -2.2867 -0.1472
 2896TIP3   OH230246   1.806   0.483   0.100 -0.1095 -0.2707  0.3530
 2896TIP3    H130247   1.774   0.505   0.013  0.4696  1.2031  0.4893
 2896TIP3    H230248   1.806   0.566   0.148  1.8359 -0.5840  1.0102
 2897TIP3   OH230249   1.674   2.730   7.430  0.4965  0.2419  0.6348
 2897TIP3    H130250   1.703   2.640   7.448  1.7110  0.6747  0.9492
 2897TIP3    H230251   1.644   2.728   7.339  0.3790 -0.5074  0.6787
 2898TIP3   OH230252   5.486   0.097   8.129 -0.1435  0.1633 -0.3664
 2898TIP3    H130253   5.581   0.110   8.125 -0.0156 -0.8074 -0.4973
 2898TIP3    H230254   5.454   0.128   8.045  0.0955  0.1425 -0.4658
 2899TIP3   OH230255   4.246   5.248   7.304 -0.0980  0.8211  0.3127
 2899TIP3    H130256   4.233   5.338   7.275 -0.7689  0.9195  0.8903
 2899TIP3    H230257   4.165   5.204   7.280  0.0632  0.4676  0.4125
 2900TIP3   OH230258   5.548   2.547   0.593 -0.3268  0.4238  0.2904
 2900TIP3    H130259   5.559   2.481   0.525 -0.3037 -0.3656  1.0446
 2900TIP3    H230260   5.590   2.625   0.557  0.9085 -0.3699 -0.0407
 2901TIP3   OH230261   4.825   4.880   1.699  0.1764  0.7307 -0.1694
 2901TIP3    H130262   4.881   4.815   1.741  0.7925  0.8833 -0.7331
 2901TIP3    H230263   4.806   4.844   1.612  2.5362  2.3260 -1.4643
 2902TIP3   OH230264   6.706   0.169   8.278  0.3938 -0.3328 -0.2416
 2902TIP3    H130265   6.611   0.181   8.284 -0.0497 -1.9152 -2.7295
 2902TIP3    H230266   6.734   0.231   8.211  0.8647 -0.9806 -0.6502
 2903TIP3   OH230267   0.367   3.434   8.646  0.0295 -0.0545 -0.1001
 2903TIP3    H130268   0.455   3.399   8.654 -0.1771 -0.4743  0.3515
 2903TIP3    H230269   0.319   3.398   8.720 -0.5870 -0.0214 -0.4690
 2904TIP3   OH230270   4.362   4.071   3.042  0.5325 -0.2588  0.3559
 2904TIP3    H130271   4.446   4.113   3.024  0.5982 -0.3165  0.5217
 2904TIP3    H230272   4.363   3.991   2.989  0.9209 -0.6642  0.9578
 2905TIP3   OH230273   5.491   4.342   2.707 -0.3503 -0.6075 -0.1339
 2905TIP3    H130274   5.435   4.408   2.748 -0.0941 -0.7847  0.5202
 2905TIP3    H230275   5.433   4.297   2.646 -0.4938  0.2918 -0.6701
 2906TIP3   OH230276   5.400   3.882   8.768  0.0157 -0.2118  0.3694
 2906TIP3    H130277   5.382   3.852   8.857 -4.2016  0.9981  0.1437
 2906TIP3    H230278   5.414   3.976   8.777  0.1467 -0.1733 -0.1930
 2907TIP3   OH230279   4.044   0.342   1.457 -0.3837  0.5447 -0.2199
 2907TIP3    H130280   3.956   0.306   1.446 -0.1289  0.1889 -1.1306
 2907TIP3    H230281   4.082   0.292   1.530 -0.8263  0.5065 -0.0141
 2908TIP3   OH230282   2.750   1.349   1.261  0.1431 -0.4937 -0.4457
 2908TIP3    H130283   2.712   1.399   1.333  0.1141  0.2471 -0.9651
 2908TIP3    H230284   2.809   1.287   1.303  0.3116  0.0987  0.2104
 2909TIP3   OH230285   5.465   1.191   0.354 -0.0931  0.1718 -0.1477
 2909TIP3    H130286   5.467   1.095   0.348  0.3260  0.2432 -1.8522
 2909TIP3    H230287   5.462   1.209   0.447 -0.1371 -1.5082  0.2166
 2910TIP3   OH230288   5.798   0.149   0.662  0.0963  0.0886 -0.4878
 2910TIP3    H130289   5.859   0.154   0.736  0.5351  1.9245 -0.9352
 2910TIP3    H230290   5.848   0.106   0.593  0.6965  1.0172 -0.6472
 2911TIP3   OH230291   2.549   6.725   0.139 -0.4277 -0.1158  0.2081
 2911TIP3    H130292   2.615   6.702   0.073 -0.8808  1.0912 -0.6929
 2911TIP3    H230293   2.466   6.726   0.091 -1.1580 -1.7200  1.3512
 2912TIP3   OH230294   0.176   1.700   7.856  0.4793 -0.0497  0.2341
 2912TIP3    H130295   0.081   1.686   7.862  0.5507 -0.4557  0.4479
 2912TIP3    H230296   0.188   1.791   7.884  0.1588 -0.0091  0.2510
 2913TIP3   OH230297   4.495   4.073   2.614  1.0062 -0.0571  0.0408
 2913TIP3    H130298   4.545   3.992   2.621  1.2744 -0.1005 -1.7653
 2913TIP3    H230299   4.559   4.137   2.579  0.1813  0.2474 -0.9675
 2914TIP3   OH230300   3.651   0.854   1.756  0.6146 -0.2905  0.3605
 2914TIP3    H130301   3.653   0.939   1.800  1.7988  0.6969 -1.4497
 2914TIP3    H230302   3.709   0.865   1.681 -0.1044 -2.3572 -0.5728
 2915TIP3   OH230303   0.068   0.309   2.163  0.4485 -0.6258  0.0716
 2915TIP3    H130304   0.060   0.402   2.144  2.2925 -0.3614  0.4639
 2915TIP3    H230305  -0.017   0.273   2.139 -0.7092  1.3202  1.0079
 2916TIP3   OH230306   3.061   1.911   3.004  0.2225 -0.4727 -0.0563
 2916TIP3    H130307   2.989   1.877   3.057  1.5803  0.3566  2.4964
 2916TIP3    H230308   3.109   1.833   2.975 -1.9555 -1.0720 -2.3433
 2917TIP3   OH230309   4.743   3.421   1.383 -0.2797 -0.4751  0.3811
 2917TIP3    H130310   4.769   3.509   1.356  1.0995 -1.3846 -1.4656
 2917TIP3    H230311   4.656   3.432   1.422 -0.1641  1.6783  0.1123
 2918TIP3   OH230312   4.476   3.181   2.461 -0.4647 -0.8519 -0.0381
 2918TIP3    H130313   4.485   3.159   2.368  0.1609  0.1256 -0.2262
 2918TIP3    H230314   4.530   3.117   2.507 -0.2355 -0.9166 -0.3984
 2919TIP3   OH230315   6.616   1.194   7.299  0.0462 -0.0141  0.0001
 2919TIP3    H130316   6.550   1.129   7.277  1.2377 -1.3773  0.2938
 2919TIP3    H230317   6.624   1.247   7.220 -2.6294  1.3736  0.5349
 2920TIP3   OH230318   1.527   6.092   8.416  0.2263  0.1878  0.4213
 2920TIP3    H130319   1.484   6.009   8.394 -0.0497  0.1948  0.9263
 2920TIP3    H230320   1.559   6.080   8.506 -1.1563  1.1525  1.0788
 2921TIP3   OH230321   3.738   1.017   2.120 -0.6115  0.5522 -0.0699
 2921TIP3    H130322   3.687   0.939   2.143  0.9529 -0.1677  1.1963
 2921TIP3    H230323   3.712   1.038   2.031  0.7103 -2.9764 -1.4663
 2922TIP3   OH230324   6.211   4.355   6.874  0.4226 -0.4221  0.2488
 2922TIP3    H130325   6.184   4.317   6.790  0.0825  0.5813 -0.1072
 2922TIP3    H230326   6.138   4.410   6.900  1.5601  1.2986 -0.0747
 2923TIP3   OH230327   1.036   2.486   7.581  0.4532  0.2440 -0.1460
 2923TIP3    H130328   1.063   2.409   7.531 -0.4756 -0.5610  0.5665
 2923TIP3    H230329   1.107   2.549   7.567  1.4010 -0.8527 -0.4749
 2924TIP3   OH230330   2.915   0.854   8.073  0.2105 -0.2946 -0.3231
 2924TIP3    H130331   2.945   0.764   8.085 -0.6628 -0.6139 -0.4543
 2924TIP3    H230332   2.826   0.846   8.038  0.7832  0.6124 -2.1434
 2925TIP3   OH230333   6.164   4.355   1.818  0.6423  0.5883  0.1063
 2925TIP3    H130334   6.152   4.260   1.820 -0.3877  0.7024 -0.2546
 2925TIP3    H230335   6.148   4.379   1.727  0.9261  1.1135  0.1902
 2926TIP3   OH230336   0.645   5.423   1.578  0.0074  0.1743 -0.7496
 2926TIP3    H130337   0.570   5.456   1.627 -0.8150 -1.7262 -0.6447
 2926TIP3    H230338   0.665   5.338   1.618  2.0136  0.4610 -1.0105
 2927TIP3   OH230339   5.478   4.617   7.549  0.3422 -0.9916 -0.8309
 2927TIP3    H130340   5.568   4.585   7.555  0.3205 -0.8524  4.4687
 2927TIP3    H230341   5.424   4.542   7.572 -0.3197  0.3392  2.4216
 2928TIP3   OH230342   2.237   6.461   0.423  0.8569 -0.3882 -0.5235
 2928TIP3    H130343   2.220   6.419   0.507  1.4462 -1.1014 -0.7529
 2928TIP3    H230344   2.150   6.478   0.387  0.5483  0.9679  0.7127
 2929TIP3   OH230345   0.754   2.733   8.781  0.2469  0.3455  0.1195
 2929TIP3    H130346   0.706   2.746   8.699  0.7301  0.2162 -0.1865
 2929TIP3    H230347   0.764   2.822   8.817  0.4061  0.4485 -0.1752
 2930TIP3   OH230348   2.022   4.827   2.139 -0.1931  0.3011  0.1832
 2930TIP3    H130349   1.991   4.757   2.197  0.7030  0.1094  0.4374
 2930TIP3    H230350   2.116   4.832   2.155 -0.5205  3.1302  1.9080
 2931TIP3   OH230351   1.513   5.220   1.003  0.3514  0.3232  0.2938
 2931TIP3    H130352   1.443   5.162   0.973  0.9701  0.5384 -1.6709
 2931TIP3    H230353   1.535   5.187   1.090 -0.7026 -1.1045  0.0590
 2932TIP3   OH230354   4.923   2.108   2.114  0.4592  0.0095  0.0755
 2932TIP3    H130355   4.838   2.067   2.096  0.2981  1.0913 -1.8479
 2932TIP3    H230356   4.927   2.114   2.210 -0.8399 -1.6474  0.2816
 2933TIP3   OH230357   5.303   0.252   2.294 -0.3891  0.3471 -0.2396
 2933TIP3    H130358   5.242   0.281   2.361 -1.0692  1.0146 -1.1078
 2933TIP3    H230359   5.316   0.330   2.238 -2.0946 -0.8854 -2.5254
 2934TIP3   OH230360   2.838   0.105   1.566  0.1717  0.5508  0.8429
 2934TIP3    H130361   2.913   0.051   1.589  0.6106  1.0621  0.6361
 2934TIP3    H230362   2.763   0.046   1.573  0.8156 -0.6248 -1.2422
 2935TIP3   OH230363   4.101   6.311   0.162 -0.1954 -0.0441  0.3861
 2935TIP3    H130364   4.112   6.277   0.251  1.8820 -1.4024 -0.3156
 2935TIP3    H230365   4.180   6.363   0.147 -0.0773 -0.5921 -0.9835
 2936TIP3   OH230366   1.238   4.797   2.056  0.1473  0.0681  0.2291
 2936TIP3    H130367   1.321   4.840   2.037  0.3578 -0.3730  0.1291
 2936TIP3    H230368   1.224   4.739   1.982  1.8716 -3.0054  2.0720
 2937TIP3   OH230369   2.331   1.980   1.233 -0.0723 -0.0329 -0.2728
 2937TIP3    H130370   2.349   1.894   1.272  0.6416  0.0326 -0.4546
 2937TIP3    H230371   2.413   2.028   1.241 -0.7151  0.9627  0.6283
 2938TIP3   OH230372   6.086   0.158   2.419 -0.7265 -0.5131  0.2109
 2938TIP3    H130373   6.164   0.160   2.364 -1.3586 -1.0559 -0.7265
 2938TIP3    H230374   6.013   0.168   2.357 -1.3454  3.6862  1.3096
 2939TIP3   OH230375   2.928   4.361   1.055 -0.0373 -0.1995  1.2254
 2939TIP3    H130376   3.006   4.380   1.004  0.2738 -1.8571  1.0264
 2939TIP3    H230377   2.952   4.286   1.109 -0.9249  0.4168  2.5347
 2940TIP3   OH230378   3.456   3.911   8.775  0.2818  0.2082  0.6615
 2940TIP3    H130379   3.550   3.931   8.780  0.1920  0.6375  0.6923
 2940TIP3    H230380   3.443   3.841   8.839  0.7126 -0.3781  0.1174
 2941TIP3   OH230381   4.954   1.098   7.125  0.2788 -0.3692  0.3504
 2941TIP3    H130382   4.928   1.132   7.039 -0.9323 -0.1940  0.7736
 2941TIP3    H230383   4.924   1.007   7.125 -0.2358 -0.2023  0.8006
 2942TIP3   OH230384   4.134   4.935   8.127 -0.7253  0.3667 -0.2804
 2942TIP3    H130385   4.068   4.990   8.084 -0.4709  0.8760 -0.0302
 2942TIP3    H230386   4.100   4.846   8.118 -0.3249  0.3592 -2.1781
 2943TIP3   OH230387   6.626   6.152   1.027  0.0412  0.1154 -0.2381
 2943TIP3    H130388   6.697   6.217   1.020 -0.4566  0.5849 -1.0025
 2943TIP3    H230389   6.590   6.167   1.115  0.1633  0.6266 -0.2689
 2944TIP3   OH230390   4.630   2.581   0.842 -0.1321 -0.1794  0.0338
 2944TIP3    H130391   4.584   2.664   0.836  1.5834  0.8450  0.2109
 2944TIP3    H230392   4.578   2.528   0.902 -0.5957  1.2470  0.9383
 2945TIP3   OH230393   2.861   5.369   0.420 -0.4205 -0.4502  0.1224
 2945TIP3    H130394   2.868   5.276   0.399  1.9718 -0.6401  1.3479
 2945TIP3    H230395   2.847   5.412   0.336 -1.8736 -1.9076 -0.4290
 2946TIP3   OH230396   2.222   5.883   8.355 -0.3009  0.1549  0.8992
 2946TIP3    H130397   2.155   5.849   8.296 -0.2871  0.5243  0.6720
 2946TIP3    H230398   2.274   5.806   8.378  0.5495  0.2314 -0.6724
 2947TIP3   OH230399   0.896   0.518   0.842  0.1202  0.0464  0.2355
 2947TIP3    H130400   0.803   0.507   0.860 -0.4227  0.6771 -1.9295
 2947TIP3    H230401   0.914   0.458   0.769  1.5009 -0.3236  0.8475
 2948TIP3   OH230402   3.031   0.380   8.385 -0.0800  0.5230  0.3319
 2948TIP3    H130403   3.108   0.436   8.371  0.7844 -0.2400  1.7574
 2948TIP3    H230404   3.067   0.292   8.394 -1.0856  0.1839  1.2740
 2949TIP3   OH230405   4.387   0.816   8.051 -0.1785  0.3556  0.3757
 2949TIP3    H130406   4.365   0.848   8.139  0.6050  1.9075  0.0482
 2949TIP3    H230407   4.447   0.743   8.066 -0.6488  0.1162  1.1442
 2950TIP3   OH230408   5.436   5.746   8.247  0.1718 -0.2730 -0.0662
 2950TIP3    H130409   5.528   5.737   8.270  0.5913 -0.1528 -1.6006
 2950TIP3    H230410   5.435   5.748   8.151 -1.3807  0.1966 -0.0687
 2951TIP3   OH230411   4.431   1.646   1.421 -0.0635 -0.0684  0.2698
 2951TIP3    H130412   4.506   1.676   1.472  0.0800  2.6751 -1.3504
 2951TIP3    H230413   4.355   1.678   1.468 -0.0533  0.1313  0.1513
 2952TIP3   OH230414   2.450   2.324   1.186  0.2250 -0.2841 -0.1137
 2952TIP3    H130415   2.382   2.293   1.245 -0.0225 -2.0604 -1.2554
 2952TIP3    H230416   2.520   2.259   1.193  0.6556  0.0596 -0.9429
 2953TIP3   OH230417   3.016   1.638   1.482 -0.1991 -0.0771 -0.0198
 2953TIP3    H130418   3.026   1.593   1.398  0.1864 -1.4556  0.7307
 2953TIP3    H230419   3.037   1.730   1.463  2.3426 -0.7692 -0.9458
 2954TIP3   OH230420   1.669   0.487   0.494  0.3429  0.1438  0.0581
 2954TIP3    H130421   1.741   0.457   0.439  1.6476  2.2131  0.5250
 2954TIP3    H230422   1.628   0.557   0.444 -0.6841 -0.2862  0.2695
 2955TIP3   OH230423   0.384   5.867   8.247  0.1207 -0.3495  0.1857
 2955TIP3    H130424   0.370   5.922   8.170  1.5366  0.3435  0.3803
 2955TIP3    H230425   0.365   5.778   8.217  3.4384 -0.5467 -1.9225
 2956TIP3   OH230426   0.696   1.098   2.182  0.0700  0.0288 -0.2651
 2956TIP3    H130427   0.760   1.060   2.122  0.3166  1.0169 -0.6537
 2956TIP3    H230428   0.682   1.030   2.248  0.1109 -0.9144 -1.2006
 2957TIP3   OH230429   0.208   0.449   0.700 -0.5382  0.0204 -0.1630
 2957TIP3    H130430   0.260   0.397   0.638  0.3351  0.0744  0.5018
 2957TIP3    H230431   0.137   0.485   0.647 -0.2680 -0.5864 -0.9625
 2958TIP3   OH230432   6.283   3.446   0.833 -0.1586 -0.0619  0.4078
 2958TIP3    H130433   6.234   3.493   0.766  1.5315  0.1216 -0.7674
 2958TIP3    H230434   6.374   3.453   0.805  0.3491 -2.3323  1.2440
 2959TIP3   OH230435   5.138   4.116   0.443 -0.1711  0.2927 -0.8918
 2959TIP3    H130436   5.155   4.022   0.454  1.0931  0.7299  1.5071
 2959TIP3    H230437   5.211   4.148   0.391  0.8078  0.3360  0.4545
 2960TIP3   OH230438   5.617   2.919   1.610  0.6860 -0.3625 -0.9023
 2960TIP3    H130439   5.535   2.886   1.573  1.0196 -1.9735 -0.2865
 2960TIP3    H230440   5.663   2.958   1.535 -0.2533 -0.2113 -1.4208
 2961TIP3   OH230441   5.810   0.439   0.093 -0.2392  0.0161  0.5289
 2961TIP3    H130442   5.870   0.513   0.095 -0.0978 -0.0571 -0.5784
 2961TIP3    H230443   5.726   0.475   0.123 -0.0418  0.5002  0.5029
 2962TIP3   OH230444   4.974   2.983   7.758  0.1257 -0.7579 -0.0773
 2962TIP3    H130445   4.926   3.023   7.687  1.6706 -0.3774 -0.9633
 2962TIP3    H230446   4.910   2.928   7.803 -1.1752 -0.0422 -0.9877
 2963TIP3   OH230447   5.451   0.715   7.657  0.2316 -0.1549  0.0654
 2963TIP3    H130448   5.436   0.809   7.657 -0.0951 -0.2062  0.0507
 2963TIP3    H230449   5.544   0.705   7.680 -0.2649  0.0783  2.4375
 2964TIP3   OH230450   1.076   6.513   8.667  0.2330  0.2168 -0.3005
 2964TIP3    H130451   1.060   6.420   8.682 -0.1020  0.2717 -0.3015
 2964TIP3    H230452   1.051   6.528   8.576  0.6555  0.2295 -0.4160
 2965TIP3   OH230453   0.134   6.386   0.187 -0.2291  0.1787  0.5180
 2965TIP3    H130454   0.199   6.349   0.247  1.0041 -1.1670 -1.5109
 2965TIP3    H230455   0.173   6.468   0.157  0.4699 -0.5068 -0.5090
 2966TIP3   OH230456   3.906   4.807   8.496 -0.1755  0.0536  0.3706
 2966TIP3    H130457   3.875   4.822   8.407 -0.4603  0.3931  0.5273
 2966TIP3    H230458   3.901   4.892   8.539  1.4135  0.2436  0.2654
 2967TIP3   OH230459   3.454   3.042   0.083  0.3811  0.4566  0.3408
 2967TIP3    H130460   3.361   3.022   0.089  0.6376 -0.4514  2.3933
 2967TIP3    H230461   3.486   2.988   0.011 -0.3082 -0.9238  1.0379
 2968TIP3   OH230462   0.798   6.314   0.237 -0.0163  0.0748  0.2955
 2968TIP3    H130463   0.824   6.382   0.299  0.6564  1.3356 -1.3087
 2968TIP3    H230464   0.818   6.232   0.282 -0.0792  0.9246  1.9534
 2969TIP3   OH230465   1.540   1.450   1.423 -0.4851  1.0141 -0.5915
 2969TIP3    H130466   1.484   1.404   1.361 -0.6783  1.1969 -0.5550
 2969TIP3    H230467   1.564   1.384   1.487 -1.6879  1.2073  0.1023
 2970TIP3   OH230468   3.466   6.103   0.520  0.3503  0.0610  0.5137
 2970TIP3    H130469   3.484   6.105   0.426 -3.0738 -1.3576 -0.3375
 2970TIP3    H230470   3.460   6.195   0.545 -1.8633  0.5591 -1.4841
 2971TIP3   OH230471   4.611   6.666   7.650  0.3984  0.2352 -0.7152
 2971TIP3    H130472   4.566   6.712   7.580  0.5393 -0.0317 -0.9866
 2971TIP3    H230473   4.689   6.629   7.608 -0.8712 -2.2513 -1.0939
 2972TIP3   OH230474   4.162   4.352   1.758 -0.1413 -0.0221  0.3714
 2972TIP3    H130475   4.195   4.280   1.812  1.1982  0.8834  0.8215
 2972TIP3    H230476   4.234   4.416   1.757 -0.5625  0.4958 -1.5440
 2973TIP3   OH230477   0.374   2.530   2.575 -0.7412  0.0034 -0.2994
 2973TIP3    H130478   0.446   2.505   2.633 -1.6186 -0.2891  0.6911
 2973TIP3    H230479   0.404   2.504   2.488  1.2444  1.8467 -0.2416
 2974TIP3   OH230480   1.710   5.565   0.752 -0.0207 -0.3801  0.3046
 2974TIP3    H130481   1.639   5.567   0.815 -0.1074 -1.0563  0.2366
 2974TIP3    H230482   1.776   5.508   0.791  0.3530 -0.0170  0.2235
 2975TIP3   OH230483   5.328   5.110   8.073  0.2292 -0.0516 -0.2405
 2975TIP3    H130484   5.406   5.128   8.020  0.7502 -0.5084  0.3373
 2975TIP3    H230485   5.296   5.196   8.099 -0.5638  0.2212 -1.9985
 2976TIP3   OH230486   2.702   4.695   3.204 -0.2265  0.6616  0.4452
 2976TIP3    H130487   2.742   4.780   3.184 -0.0874  0.4958  0.0046
 2976TIP3    H230488   2.732   4.638   3.134 -1.4715  0.5984 -0.0655
 2977TIP3   OH230489   0.088   6.125   0.783  0.3383 -0.7766 -0.1308
 2977TIP3    H130490   0.073   6.187   0.712  2.4157  0.1780  0.1694
 2977TIP3    H230491   0.165   6.075   0.755  1.4914 -0.0743  1.5696
 2978TIP3   OH230492   4.873   3.614   7.165 -0.4165  0.0158  0.4172
 2978TIP3    H130493   4.807   3.683   7.153  0.4805  1.1303  1.5502
 2978TIP3    H230494   4.950   3.647   7.118  0.3353  0.2923  1.7912
 2979TIP3   OH230495   0.761   6.041   7.834  0.5879  0.1311  0.3318
 2979TIP3    H130496   0.749   6.066   7.742 -2.4769 -0.8545  0.3513
 2979TIP3    H230497   0.849   6.004   7.838  0.8643  0.3745 -2.1643
 2980TIP3   OH230498   0.616   4.687   0.708 -0.3271  0.0172 -0.0285
 2980TIP3    H130499   0.681   4.734   0.759  0.9518 -0.0334 -1.5169
 2980TIP3    H230500   0.578   4.754   0.650  0.2240 -0.3989 -0.9015
 2981TIP3   OH230501   5.658   0.932   1.941  0.0850 -0.0252  0.1428
 2981TIP3    H130502   5.644   0.845   1.978  1.9212  0.0921  1.2442
 2981TIP3    H230503   5.744   0.958   1.974  0.0839  1.7279 -1.1214
 2982TIP3   OH230504   0.835   4.269   0.949  0.4840 -0.5671 -0.0063
 2982TIP3    H130505   0.888   4.348   0.960 -0.1936  0.1548 -1.7446
 2982TIP3    H230506   0.889   4.199   0.988  2.1113  0.3659 -0.4765
 2983TIP3   OH230507   3.573   5.288   1.532 -0.2304 -0.3133 -0.0662
 2983TIP3    H130508   3.596   5.196   1.535 -2.0624 -0.8155  0.1161
 2983TIP3    H230509   3.509   5.295   1.461  0.0769  0.8783 -0.2617
 2984TIP3   OH230510   2.749   1.006   7.398 -0.1243  0.5116 -0.3905
 2984TIP3    H130511   2.686   1.029   7.330  0.3869  1.6064 -0.5087
 2984TIP3    H230512   2.750   0.910   7.398 -2.3196  0.4368  0.1270
 2985TIP3   OH230513   1.369   6.332   7.655  0.6392 -0.3388 -0.7550
 2985TIP3    H130514   1.355   6.401   7.720 -1.4477 -1.0750 -0.3457
 2985TIP3    H230515   1.385   6.380   7.573  0.2020  0.6338 -0.2929
 2986TIP3   OH230516   5.626   6.026   8.592  0.3247  0.4153 -0.2682
 2986TIP3    H130517   5.584   6.065   8.516  0.4296 -0.3450 -0.7201
 2986TIP3    H230518   5.704   5.982   8.557  0.7989  0.7147  0.3819
 2987TIP3   OH230519   5.949   5.801   7.481 -0.1831  0.3699  0.3764
 2987TIP3    H130520   6.034   5.822   7.522 -0.4430 -1.6184  2.1403
 2987TIP3    H230521   5.904   5.885   7.474  1.6061  1.3614  0.1574
 2988TIP3   OH230522   4.342   5.313   3.129 -0.0905  0.4690  0.0063
 2988TIP3    H130523   4.287   5.253   3.079 -0.2868 -0.6902  1.5434
 2988TIP3    H230524   4.359   5.386   3.069 -2.2599  0.2823 -0.9204
 2989TIP3   OH230525   2.351   4.085   1.926  0.0292 -0.2738  0.1425
 2989TIP3    H130526   2.404   4.107   1.849 -1.1087  1.0254 -0.3000
 2989TIP3    H230527   2.273   4.140   1.918 -0.4449 -0.6489  1.8554
 2990TIP3   OH230528   4.680   0.075   2.264 -0.5563 -0.0288  0.3576
 2990TIP3    H130529   4.690   0.067   2.359 -0.2893  1.1653  0.4506
 2990TIP3    H230530   4.585   0.077   2.250 -0.6304  1.4881  0.8025
 2991TIP3   OH230531   5.388   4.861   7.438 -0.1811 -0.5333  0.1863
 2991TIP3    H130532   5.468   4.914   7.441 -0.6334  0.1487  0.9574
 2991TIP3    H230533   5.409   4.783   7.490 -0.0317 -0.3323  0.4300
 2992TIP3   OH230534   3.381   0.959   2.591 -0.3603 -1.1292 -0.3206
 2992TIP3    H130535   3.303   0.992   2.635 -1.2029 -0.4950 -2.1962
 2992TIP3    H230536   3.435   1.037   2.577 -0.8254 -1.0562 -1.7844
 2993TIP3   OH230537   0.932   4.330   0.056  0.4454 -0.7704 -0.1495
 2993TIP3    H130538   0.915   4.420   0.085  2.4076  0.1223 -1.5884
 2993TIP3    H230539   0.865   4.314  -0.012  0.4283 -0.2042 -0.2677
 2994TIP3   OH230540   1.171   6.558   7.046 -0.2381  0.4864 -0.2038
 2994TIP3    H130541   1.087   6.513   7.039 -0.1876  0.1405  1.1390
 2994TIP3    H230542   1.148   6.651   7.044 -0.6519  0.3937  0.0857
 2995TIP3   OH230543   4.530   3.979   1.462  0.0856 -0.6845  0.2464
 2995TIP3    H130544   4.478   4.046   1.507  1.4773  2.4918 -2.5124
 2995TIP3    H230545   4.601   3.958   1.523 -0.4059  0.3299  1.1907
 2996TIP3   OH230546   5.036   0.943   8.503  0.0974  0.0263 -0.2714
 2996TIP3    H130547   4.966   0.978   8.448 -1.7608 -2.5564  0.2930
 2996TIP3    H230548   5.002   0.860   8.536  2.2978  0.0421  2.4225
 2997TIP3   OH230549   2.768   2.787   6.837 -0.5601 -0.0752  0.2196
 2997TIP3    H130550   2.689   2.741   6.810 -0.4309 -0.2949  0.2144
 2997TIP3    H230551   2.741   2.879   6.844 -0.6265 -0.0234 -0.5659
 2998TIP3   OH230552   3.348   3.625   3.138  0.6057 -0.3373  0.7508
 2998TIP3    H130553   3.418   3.564   3.158  0.4927 -0.7999 -0.2372
 2998TIP3    H230554   3.285   3.575   3.087  0.0877  0.3669  0.6753
 2999TIP3   OH230555   5.163   6.587   8.480  0.0107 -0.5814  0.0176
 2999TIP3    H130556   5.257   6.603   8.478 -0.1044  0.6382  1.7083
 2999TIP3    H230557   5.152   6.514   8.542 -0.1795 -0.2777  0.3513
 3000TIP3   OH230558   2.956   0.213   8.701  0.2126 -0.4342  0.7068
 3000TIP3    H130559   2.891   0.182   8.638  0.8698 -1.6326  0.5890
 3000TIP3    H230560   3.038   0.211   8.653  0.3699  1.0630  0.8604
 3001TIP3   OH230561   4.377   5.733   7.471 -0.1176 -0.2826 -0.6376
 3001TIP3    H130562   4.387   5.645   7.507 -0.4334 -0.0043  0.1468
 3001TIP3    H230563   4.295   5.730   7.422 -0.5726 -0.1922  0.1084
 3002TIP3   OH230564   3.309   4.892   1.454 -0.6712  0.7232 -0.2834
 3002TIP3    H130565   3.233   4.946   1.476 -1.6845  0.4845 -2.8688
 3002TIP3    H230566   3.366   4.950   1.403  0.9173  0.8704  1.5375
 3003TIP3   OH230567   0.765   2.905   1.501  0.1241  0.3880 -0.4871
 3003TIP3    H130568   0.827   2.925   1.571  0.2001 -2.0473  0.2428
 3003TIP3    H230569   0.801   2.828   1.458 -1.6224 -0.2034 -0.9906
 3004TIP3   OH230570   4.230   4.637   1.754  0.8992  0.5602 -0.0167
 3004TIP3    H130571   4.168   4.708   1.770 -1.1979 -0.8149 -1.4513
 3004TIP3    H230572   4.273   4.660   1.672 -0.5487 -0.2328 -1.0506
 3005TIP3   OH230573   1.008   1.318   2.586  0.0195  0.3754  0.6261
 3005TIP3    H130574   0.976   1.379   2.652 -0.6551  1.5882 -0.7604
 3005TIP3    H230575   1.044   1.374   2.517  3.4777 -0.8622  1.1951
 3006TIP3   OH230576   0.138   6.263   2.883  0.6392 -0.5592 -0.5580
 3006TIP3    H130577   0.211   6.222   2.930  0.8885  0.6804  0.1785
 3006TIP3    H230578   0.061   6.243   2.937  0.7361 -0.2247 -0.2881
 3007TIP3   OH230579   4.679   1.739   2.193  0.1031  0.7634  0.0040
 3007TIP3    H130580   4.691   1.645   2.209 -1.0044  0.2631 -1.7243
 3007TIP3    H230581   4.720   1.782   2.267  2.2274 -1.0403 -0.0178
 3008TIP3   OH230582   0.108   0.861   0.577  0.3219 -0.1281  0.0675
 3008TIP3    H130583   0.053   0.915   0.520  1.9528  1.1783 -0.3799
 3008TIP3    H230584   0.195   0.865   0.537  1.4822  0.5801  2.4433
 3009TIP3   OH230585   3.405   4.416   1.988 -0.4354 -0.0168 -0.3423
 3009TIP3    H130586   3.334   4.476   1.967  0.2886  1.5508  1.4540
 3009TIP3    H230587   3.484   4.459   1.954 -0.0324 -0.4758 -0.0051
 3010TIP3   OH230588   2.638   5.070   1.225 -0.0996 -0.6762  0.0961
 3010TIP3    H130589   2.636   5.005   1.155  0.6340  0.4288 -0.9931
 3010TIP3    H230590   2.569   5.043   1.285 -1.7838 -0.8375 -1.8238
 3011TIP3   OH230591   0.444   0.123   0.638 -0.3492 -0.3655 -0.3179
 3011TIP3    H130592   0.525   0.153   0.678 -0.2225  1.2865 -1.7048
 3011TIP3    H230593   0.471   0.055   0.577  0.1368  0.6865 -1.3164
 3012TIP3   OH230594   5.206   4.726   8.497  0.2894 -0.2183  0.2322
 3012TIP3    H130595   5.132   4.774   8.534  0.0278 -1.6295  1.6400
 3012TIP3    H230596   5.283   4.779   8.519 -0.2538  1.3340 -1.3658
 3013TIP3   OH230597   3.083   2.701   2.077  0.1818 -0.0372 -0.8101
 3013TIP3    H130598   3.057   2.627   2.132 -0.2351 -1.0275 -2.2765
 3013TIP3    H230599   3.142   2.662   2.012  1.1592  1.2154 -0.7089
 3014TIP3   OH230600   1.244   6.748   3.042 -0.1022  0.1636  0.2318
 3014TIP3    H130601   1.187   6.726   2.969  0.0733  0.4532  0.0073
 3014TIP3    H230602   1.203   6.825   3.083 -0.4970 -0.3239  0.7723
 3015TIP3   OH230603   2.265   2.958   2.310  0.6697  0.2471 -0.0629
 3015TIP3    H130604   2.249   2.935   2.402  0.3719  1.2944  0.1602
 3015TIP3    H230605   2.204   3.029   2.292  3.3501  2.8000  0.1166
 3016TIP3   OH230606   2.866   3.391   8.561  0.2831  0.2003 -0.8625
 3016TIP3    H130607   2.873   3.404   8.466  0.2917 -0.1884 -0.9162
 3016TIP3    H230608   2.772   3.397   8.578 -0.0454 -2.4542 -1.3149
 3017TIP3   OH230609   6.056   4.561   6.985 -0.2213 -0.1953 -0.0695
 3017TIP3    H130610   6.081   4.637   7.037 -0.0413 -1.1377  1.2708
 3017TIP3    H230611   6.054   4.593   6.895  2.6878  0.7144  0.0966
 3018TIP3   OH230612   4.326   6.151   0.481 -0.1613  0.3185 -0.1431
 3018TIP3    H130613   4.384   6.137   0.556 -1.5959  1.2881  1.1933
 3018TIP3    H230614   4.363   6.095   0.412  0.8792 -1.0330  1.4296
 3019TIP3   OH230615   6.529   1.335   1.906  0.1726 -0.1544  0.3875
 3019TIP3    H130616   6.572   1.296   1.982  0.0615 -2.5711 -0.7031
 3019TIP3    H230617   6.583   1.309   1.832 -0.6931  0.6385 -0.5531
 3020TIP3   OH230618   5.147   6.275   6.839 -0.1607 -0.2646  0.0625
 3020TIP3    H130619   5.052   6.282   6.846 -0.2580  0.5770 -1.6374
 3020TIP3    H230620   5.162   6.188   6.800 -0.2231 -0.3779  0.2876
 3021TIP3   OH230621   0.007   4.971   7.445 -0.5572 -0.6184 -0.5714
 3021TIP3    H130622  -0.031   5.055   7.417 -1.7686 -1.3020 -1.0434
 3021TIP3    H230623   0.021   4.923   7.363 -0.7994 -1.2581 -0.2399
 3022TIP3   OH230624   2.576   1.426   1.060 -0.3641 -0.7294  0.3629
 3022TIP3    H130625   2.624   1.394   0.983  1.4313 -0.2082  1.2086
 3022TIP3    H230626   2.632   1.402   1.134 -1.1363  0.4309  1.3469
 3023TIP3   OH230627   5.237   1.057   1.052  0.1050 -0.3451  0.5349
 3023TIP3    H130628   5.241   1.013   0.967 -1.6616  0.6079 -0.1002
 3023TIP3    H230629   5.279   1.141   1.037 -0.2704 -0.1483  0.5590
 3024TIP3   OH230630   3.359   5.310   8.542  0.4347 -0.5709  0.4035
 3024TIP3    H130631   3.426   5.245   8.519 -1.9534 -3.0110 -0.1343
 3024TIP3    H230632   3.317   5.274   8.620 -0.6146  0.5935  0.4053
 3025TIP3   OH230633   6.382   4.190   2.199 -0.3148 -0.2291  0.2094
 3025TIP3    H130634   6.345   4.218   2.284  1.3330 -0.2682  0.9714
 3025TIP3    H230635   6.311   4.141   2.158 -0.8842 -0.9612  1.9532
 3026TIP3   OH230636   6.392   1.449   7.291  0.2780 -0.4503  0.4775
 3026TIP3    H130637   6.323   1.383   7.298 -0.0868 -0.4459 -2.0546
 3026TIP3    H230638   6.446   1.420   7.217  1.6045  0.7749  0.9223
 3027TIP3   OH230639   5.099   1.752   1.051  0.0884  0.4086  0.0906
 3027TIP3    H130640   5.072   1.835   1.011 -2.0154  0.2916  1.0975
 3027TIP3    H230641   5.029   1.691   1.029 -0.7702  0.1232  3.0921
 3028TIP3   OH230642   6.618   5.585   8.026  0.2024 -0.6982 -0.4094
 3028TIP3    H130643   6.664   5.519   8.078 -0.3097  0.4743  1.6334
 3028TIP3    H230644   6.536   5.600   8.073  0.5659  1.8234 -0.4487
 3029TIP3   OH230645   5.212   4.765   1.372 -0.2266  0.5184 -0.1477
 3029TIP3    H130646   5.140   4.701   1.375 -0.8126  1.1735  0.0596
 3029TIP3    H230647   5.235   4.779   1.464  0.3472  0.1157 -0.2283
 3030TIP3   OH230648   5.682   3.676   0.948  0.2437  0.6259 -0.1197
 3030TIP3    H130649   5.621   3.615   0.990 -1.2444  1.8476 -0.4302
 3030TIP3    H230650   5.756   3.681   1.009 -0.2148 -0.4413  0.5551
 3031TIP3   OH230651   6.568   5.259   0.825 -0.0326  0.3271  0.3158
 3031TIP3    H130652   6.557   5.248   0.920  1.1597  1.1821  0.5690
 3031TIP3    H230653   6.661   5.276   0.813  0.1955 -1.6462 -1.2275
 3032TIP3   OH230654   0.747   5.776   8.251  0.6514 -0.2712 -0.7179
 3032TIP3    H130655   0.712   5.753   8.165  0.4510 -2.8354 -0.0505
 3032TIP3    H230656   0.717   5.705   8.309 -0.3107  2.0013  1.7775
 3033TIP3   OH230657   5.698   2.927   7.145  0.2942 -0.6018  0.1229
 3033TIP3    H130658   5.714   2.941   7.052  1.6624  0.1218  0.4245
 3033TIP3    H230659   5.660   3.009   7.176  2.4454  0.2661  0.6899
 3034TIP3   OH230660   6.387   5.997   0.925  0.0330 -0.0549 -0.1085
 3034TIP3    H130661   6.438   6.065   0.970  2.1230  0.0560 -2.4480
 3034TIP3    H230662   6.400   5.919   0.979 -0.7944  0.9064  1.5601
 3035TIP3   OH230663   3.272   4.287   8.271  0.1755 -0.0046 -0.0042
 3035TIP3    H130664   3.280   4.379   8.296  0.0567 -0.6577  2.8075
 3035TIP3    H230665   3.201   4.285   8.208 -1.1137  1.6396  1.3120
 3036TIP3   OH230666   4.215   5.417   1.903 -0.2304 -0.4024 -0.5801
 3036TIP3    H130667   4.194   5.498   1.855  0.5632  0.3278  0.2672
 3036TIP3    H230668   4.225   5.445   1.994  3.4392 -0.7780 -0.7161
 3037TIP3   OH230669   2.168   0.020   2.363 -0.1997  0.1327  0.1269
 3037TIP3    H130670   2.154  -0.045   2.432 -0.3967 -1.1546 -1.0689
 3037TIP3    H230671   2.179  -0.032   2.283  1.1179  1.5130 -0.6528
 3038TIP3   OH230672   6.093   5.337   7.689 -0.0322 -0.3969  0.4145
 3038TIP3    H130673   6.067   5.430   7.687 -0.2807 -0.4586  0.6234
 3038TIP3    H230674   6.130   5.321   7.603  0.5086  0.0372  0.5634
 3039TIP3   OH230675   6.271   6.364   1.797 -0.2062  0.3869 -0.1044
 3039TIP3    H130676   6.194   6.416   1.776 -1.2493  0.5545  3.4603
 3039TIP3    H230677   6.341   6.428   1.808  0.0832  0.3860 -1.7717
 3040TIP3   OH230678   2.918   0.212   2.843  0.2900  0.0977 -0.0370
 3040TIP3    H130679   2.982   0.173   2.902  2.8047  0.5581 -2.2756
 3040TIP3    H230680   2.915   0.304   2.868  1.9533  0.4586 -1.0470
 3041TIP3   OH230681   4.416   3.555   8.463 -0.0675 -0.0204  0.0414
 3041TIP3    H130682   4.385   3.630   8.514  2.6540  0.5895  0.9412
 3041TIP3    H230683   4.476   3.509   8.522 -0.4815 -2.0606 -1.0297
 3042TIP3   OH230684   2.090   0.526   1.390  0.2317  0.2998  0.1615
 3042TIP3    H130685   2.181   0.549   1.369  0.2951 -0.7343 -0.7552
 3042TIP3    H230686   2.038   0.583   1.333  0.3078  0.6930  0.4818
 3043TIP3   OH230687   1.665   3.845   7.703 -0.6622  0.4455  0.4767
 3043TIP3    H130688   1.754   3.879   7.709 -0.7100  0.5801  0.4193
 3043TIP3    H230689   1.613   3.903   7.759 -0.4664 -0.4848  1.6696
 3044TIP3   OH230690   1.181   4.405   8.629  0.7600  0.0870 -0.0829
 3044TIP3    H130691   1.261   4.448   8.601  1.4754 -1.5440 -0.6785
 3044TIP3    H230692   1.129   4.396   8.549  0.4159  0.2479  0.1195
 3045TIP3   OH230693   6.613   6.169   7.288  0.1512  0.1494  0.2439
 3045TIP3    H130694   6.699   6.128   7.277  0.1750  0.1552  0.4124
 3045TIP3    H230695   6.574   6.125   7.363  0.5947  1.1328  1.0749
 3046TIP3   OH230696   0.593   3.248   3.096 -0.3554  0.2048  0.0481
 3046TIP3    H130697   0.641   3.211   3.022  0.6281 -1.0943  1.2912
 3046TIP3    H230698   0.650   3.318   3.129 -1.0088  1.1048 -0.6772
 3047TIP3   OH230699   0.161   4.870   0.092 -0.2715  0.2656 -0.5369
 3047TIP3    H130700   0.083   4.924   0.085 -0.0787  0.9041  1.6406
 3047TIP3    H230701   0.191   4.859   0.001 -3.5551 -1.0940 -1.6105
 3048TIP3   OH230702   6.326   6.143   1.175 -0.2849  0.8221 -0.1527
 3048TIP3    H130703   6.258   6.162   1.239  0.5963 -0.8613  1.3640
 3048TIP3    H230704   6.288   6.077   1.117 -1.1537  2.4892 -1.5898
 3049TIP3   OH230705   0.613   5.296   8.294 -0.0051 -0.1660  0.2488
 3049TIP3    H130706   0.704   5.272   8.310  0.9430  2.6423 -0.3103
 3049TIP3    H230707   0.563   5.254   8.364  1.8791 -0.7811  1.2740
 3050TIP3   OH230708   2.570   5.415   2.583 -0.1963  0.9273 -0.1275
 3050TIP3    H130709   2.566   5.444   2.674 -1.9272  1.7758 -0.4359
 3050TIP3    H230710   2.633   5.343   2.584  0.5274  1.5204  1.5567
 3051TIP3   OH230711   6.737   2.044   0.046 -0.3092  0.1704  0.5132
 3051TIP3    H130712   6.727   2.068  -0.046  0.2178 -0.8406  0.1884
 3051TIP3    H230713   6.831   2.045   0.061 -0.4096  0.8705  1.2051
 3052TIP3   OH230714   4.365   5.710   8.498 -0.5910  0.0331  0.0268
 3052TIP3    H130715   4.368   5.626   8.545 -1.9803  0.0752  0.2473
 3052TIP3    H230716   4.306   5.764   8.550  1.5446  1.7615  0.7884
 3053TIP3   OH230717   6.059   2.873   1.234  0.2132  0.5789 -0.0079
 3053TIP3    H130718   6.148   2.849   1.259 -0.0614  0.6508  1.0664
 3053TIP3    H230719   6.006   2.798   1.261 -0.0146  0.3909 -0.9510
 3054TIP3   OH230720   3.106   1.509   8.439 -0.1031  0.2316  0.2013
 3054TIP3    H130721   3.149   1.527   8.522  0.2205 -0.2981  0.1527
 3054TIP3    H230722   3.034   1.573   8.434  1.3489  1.9269 -0.2347
 3055TIP3   OH230723   5.138   3.926   1.375 -0.0167 -0.7162  0.0164
 3055TIP3    H130724   5.054   3.901   1.337  0.3871 -1.3911 -0.4562
 3055TIP3    H230725   5.203   3.887   1.317  0.6464  0.8674 -0.3725
 3056TIP3   OH230726   4.192   0.375   8.428 -0.0078 -0.3600  0.3721
 3056TIP3    H130727   4.256   0.348   8.361 -0.6293  0.0803 -0.4172
 3056TIP3    H230728   4.107   0.355   8.388 -0.4745  1.9876  0.0852
 3057TIP3   OH230729   5.597   0.615   2.037 -0.1689 -0.3359  0.1250
 3057TIP3    H130730   5.506   0.622   2.007 -0.0779 -0.8050 -0.2706
 3057TIP3    H230731   5.590   0.615   2.133 -0.5541  0.0117  0.1025
 3058TIP3   OH230732   1.243   4.061   1.760  0.2386  0.0513 -0.1217
 3058TIP3    H130733   1.257   4.147   1.800  0.5268 -0.8123  1.7308
 3058TIP3    H230734   1.151   4.063   1.733 -0.4746  0.1525  2.0798
 3059TIP3   OH230735   4.362   2.629   0.713 -0.7172 -0.1651 -0.0401
 3059TIP3    H130736   4.377   2.550   0.765  0.4322  0.2483  0.2932
 3059TIP3    H230737   4.305   2.683   0.768 -1.4907 -0.7488 -0.2612
 3060TIP3   OH230738   5.701   6.250   0.443 -0.0136 -0.2036  0.8649
 3060TIP3    H130739   5.695   6.157   0.421  0.4009  0.1875 -1.0643
 3060TIP3    H230740   5.655   6.257   0.527 -0.5672 -2.0427  0.7760
 3061TIP3   OH230741   0.120   1.425   7.122 -0.2340  0.3146 -0.3297
 3061TIP3    H130742   0.119   1.349   7.064 -1.0763  0.4221 -0.4703
 3061TIP3    H230743   0.028   1.444   7.139 -0.0092  0.2646  1.0821
 3062TIP3   OH230744   4.120   6.196   7.324 -0.6043  0.4425  0.2713
 3062TIP3    H130745   4.212   6.209   7.299 -0.3449  1.6569  1.6935
 3062TIP3    H230746   4.070   6.223   7.247  0.2034 -1.8350 -1.1550
 3063TIP3   OH230747   2.660   4.012   8.457 -0.0545 -0.0728 -0.2357
 3063TIP3    H130748   2.565   4.009   8.465  0.0802 -0.7462  1.7851
 3063TIP3    H230749   2.689   3.926   8.488  1.2194  0.1946 -0.6381
 3064TIP3   OH230750   2.524   5.799   1.396 -0.1738  0.1224 -0.0017
 3064TIP3    H130751   2.496   5.819   1.485 -0.9751 -1.6903  0.2123
 3064TIP3    H230752   2.468   5.854   1.340  0.2808  1.2061  0.5896
 3065TIP3   OH230753   5.203   6.554   7.527 -0.7360  0.0540  0.7651
 3065TIP3    H130754   5.172   6.549   7.617 -0.1963 -0.0359  0.9517
 3065TIP3    H230755   5.170   6.637   7.494 -1.3594 -0.1434  0.8823
 3066TIP3   OH230756   0.532   4.711   0.320  0.5620 -0.1021 -0.5185
 3066TIP3    H130757   0.514   4.754   0.404 -1.2486 -0.6917 -0.5671
 3066TIP3    H230758   0.579   4.777   0.269  1.5849  0.3125  0.8995
 3067TIP3   OH230759   3.927   4.010   2.629 -0.1500  0.3322 -0.0653
 3067TIP3    H130760   4.014   3.993   2.665 -0.2847 -0.9047 -0.2716
 3067TIP3    H230761   3.900   4.093   2.668  0.4241 -0.1064  1.3215
 3068TIP3   OH230762   1.094   0.582   8.463  0.1247 -0.0916 -0.0874
 3068TIP3    H130763   1.159   0.620   8.405 -1.1260  0.8986 -0.8973
 3068TIP3    H230764   1.075   0.651   8.527 -0.4916 -0.1870 -0.1654
 3069TIP3   OH230765   3.879   0.153   1.628 -0.3533  0.5820  0.4643
 3069TIP3    H130766   3.910   0.219   1.688 -1.7133  0.9255  0.8336
 3069TIP3    H230767   3.797   0.189   1.592 -0.2549 -0.1745 -0.5915
 3070TIP3   OH230768   0.965   5.925   8.490  0.0568  0.0262  0.2213
 3070TIP3    H130769   1.032   5.994   8.490  0.2942 -0.1765 -0.9329
 3070TIP3    H230770   0.925   5.931   8.403 -1.2050 -0.0836  0.7730
 3071TIP3   OH230771   1.675   3.703   1.368 -0.1399  0.3983  0.3072
 3071TIP3    H130772   1.619   3.690   1.444  0.1943  1.2273  0.7077
 3071TIP3    H230773   1.655   3.629   1.311 -2.7941  1.4676 -0.2771
 3072TIP3   OH230774   1.696   5.479   0.256  0.6407 -0.5415  0.2778
 3072TIP3    H130775   1.715   5.521   0.340 -0.0107 -0.9080  0.6071
 3072TIP3    H230776   1.775   5.429   0.236  1.9017  1.6329 -0.6420
 3073TIP3   OH230777   6.554   4.696   7.361 -0.1153  0.4161  0.0866
 3073TIP3    H130778   6.626   4.748   7.325  0.2814 -0.0627  0.1844
 3073TIP3    H230779   6.592   4.652   7.437 -0.5725  0.3256  0.2665
 3074TIP3   OH230780   3.972   2.001   2.967 -0.6528  0.5328 -0.4604
 3074TIP3    H130781   4.011   2.054   2.897 -0.7165 -0.6049 -1.3975
 3074TIP3    H230782   3.996   1.911   2.944 -1.3655  0.0704  0.5554
 3075TIP3   OH230783   3.469   4.792   8.449  0.4202 -0.3694 -0.5364
 3075TIP3    H130784   3.494   4.793   8.541 -0.4135 -2.9141 -0.1905
 3075TIP3    H230785   3.547   4.822   8.402  0.6696  1.5323  0.9807
 3076TIP3   OH230786   5.443   1.751   0.767  0.2663 -0.3095  0.0180
 3076TIP3    H130787   5.404   1.737   0.853 -1.1343  0.0801 -0.5300
 3076TIP3    H230788   5.505   1.823   0.780 -0.4219  0.1948  0.5631
 3077TIP3   OH230789   0.308   4.386   1.909 -0.2958 -1.0215 -0.1280
 3077TIP3    H130790   0.357   4.448   1.855 -1.9513 -0.1359 -0.6839
 3077TIP3    H230791   0.217   4.399   1.884 -0.8127 -2.8397  0.6407
 3078TIP3   OH230792   4.354   5.935   3.432  0.0963  0.8815 -0.1879
 3078TIP3    H130793   4.385   5.860   3.483 -3.5960 -3.8695 -3.9248
 3078TIP3    H230794   4.433   5.967   3.387  1.6490 -2.0810  0.1718
 3079TIP3   OH230795   4.406   3.807   2.202  0.1269 -0.1302  0.1371
 3079TIP3    H130796   4.389   3.868   2.274  1.5280  0.4033  0.0407
 3079TIP3    H230797   4.481   3.845   2.156  0.4547 -1.4732 -0.4602
 3080TIP3   OH230798   4.326   1.521   2.316 -0.4603  0.3279  0.6915
 3080TIP3    H130799   4.381   1.472   2.377 -1.2739 -0.7048  0.6164
 3080TIP3    H230800   4.361   1.502   2.230 -1.0434 -0.5003  0.6269
 3081TIP3   OH230801   1.411   3.337   7.926 -0.0932  0.0457 -0.0942
 3081TIP3    H130802   1.465   3.293   7.860 -1.0253 -1.4228  0.0877
 3081TIP3    H230803   1.438   3.429   7.921  1.6131 -0.4589 -0.7721
 3082TIP3   OH230804   1.348   4.670   0.504  0.1309 -0.4914  0.2336
 3082TIP3    H130805   1.321   4.600   0.445 -0.6731  0.8750 -1.1072
 3082TIP3    H230806   1.376   4.625   0.584 -2.1881 -2.2342  0.1694
 3083TIP3   OH230807   1.742   3.409   0.618  0.0305 -0.3375  0.1474
 3083TIP3    H130808   1.711   3.498   0.599  0.2123  0.0187  1.4047
 3083TIP3    H230809   1.665   3.354   0.605 -0.6139  0.2657  1.1882
 3084TIP3   OH230810   2.234   6.372   0.962  0.6302 -0.1861 -0.0691
 3084TIP3    H130811   2.184   6.392   1.041  1.4812  1.6345  0.0589
 3084TIP3    H230812   2.176   6.316   0.911 -0.7363  0.2196  0.9681
 3085TIP3   OH230813   1.908   6.789   1.668  0.3481  0.1301 -0.2403
 3085TIP3    H130814   1.974   6.746   1.614  0.8556 -0.4461  0.8282
 3085TIP3    H230815   1.921   6.754   1.756 -0.4318  1.0968  0.2823
 3086TIP3   OH230816   0.392   5.460   7.507  0.0757 -0.0279  0.0244
 3086TIP3    H130817   0.398   5.378   7.556  1.0745 -0.3713 -0.6415
 3086TIP3    H230818   0.386   5.432   7.415  1.2042  0.6326 -0.2719
 3087TIP3   OH230819   4.805   4.791   2.253 -0.2631  0.1900  0.1739
 3087TIP3    H130820   4.862   4.719   2.278 -1.6161 -1.9453 -2.3333
 3087TIP3    H230821   4.864   4.862   2.227  1.1095 -0.4489  1.4187
 3088TIP3   OH230822   6.144   3.528   6.902  0.1564  0.0486  0.3439
 3088TIP3    H130823   6.224   3.518   6.954  0.6404 -0.2155 -0.4422
 3088TIP3    H230824   6.108   3.439   6.896  0.3576 -0.0019 -0.1659
 3089TIP3   OH230825   2.507   0.225   8.781  0.2469  0.1175  0.2239
 3089TIP3    H130826   2.478   0.139   8.811 -1.1875  0.9332  1.3795
 3089TIP3    H230827   2.445   0.286   8.822  1.2211  1.6988 -0.5521
 3090TIP3   OH230828   4.429   5.777   1.545  0.7025  0.2384  0.2155
 3090TIP3    H130829   4.479   5.720   1.604  0.2382 -0.8143 -0.3742
 3090TIP3    H230830   4.349   5.798   1.593  0.4691 -0.3573  0.0926
 3091TIP3   OH230831   5.324   2.063   2.285  0.3482 -0.0388  0.3323
 3091TIP3    H130832   5.411   2.094   2.312  1.0301  0.0810 -1.8498
 3091TIP3    H230833   5.339   2.019   2.202 -2.0348  2.2565 -1.4635
 3092TIP3   OH230834   3.796   5.738   1.701  0.2225  0.1435 -0.3125
 3092TIP3    H130835   3.710   5.711   1.733  1.3019 -3.8714 -0.3441
 3092TIP3    H230836   3.819   5.813   1.756 -2.6644  0.4803  0.6021
 3093TIP3   OH230837   6.805   3.238   0.998 -0.1940 -0.0959 -0.2455
 3093TIP3    H130838   6.757   3.301   1.053  1.7326 -0.0925  1.5635
 3093TIP3    H230839   6.872   3.290   0.955 -0.7675 -0.3697 -1.5234
 3094TIP3   OH230840   5.938   3.090   2.754 -0.1644  0.1672  0.0706
 3094TIP3    H130841   5.938   3.184   2.769 -0.4419 -0.1615  2.4889
 3094TIP3    H230842   6.010   3.057   2.807 -0.1320 -1.0141 -0.6633
 3095TIP3   OH230843   5.623   3.423   2.107  0.6467  0.0116 -0.1910
 3095TIP3    H130844   5.713   3.413   2.078  0.0107 -0.3896 -2.1884
 3095TIP3    H230845   5.570   3.390   2.034 -1.1095 -0.4520  1.2053
 3096TIP3   OH230846   1.865   5.580   2.128  0.0475 -0.1379  0.0234
 3096TIP3    H130847   1.796   5.645   2.122 -1.0316 -1.1930  0.5857
 3096TIP3    H230848   1.850   5.536   2.212 -0.5200 -2.4432 -1.1932
 3097TIP3   OH230849   2.421   5.707   1.036  0.1701 -0.1068 -0.4660
 3097TIP3    H130850   2.341   5.668   1.000 -1.3228  1.4473  0.9944
 3097TIP3    H230851   2.402   5.801   1.041  1.1973  0.0352  2.0452
 3098TIP3   OH230852   2.940   3.539   2.101  0.0152 -0.2876  0.2305
 3098TIP3    H130853   2.901   3.531   2.014  1.9370 -0.6499 -0.6509
 3098TIP3    H230854   2.878   3.593   2.151 -0.5351  1.0121 -1.7462
 3099TIP3   OH230855   3.992   2.107   8.272 -0.6687 -0.4393 -0.1324
 3099TIP3    H130856   3.929   2.104   8.200 -0.7141  3.4479 -0.4494
 3099TIP3    H230857   3.959   2.175   8.331  2.6396  1.0268  0.2384
 3100TIP3   OH230858   4.339   5.301   0.085 -0.1542 -0.2726 -0.0133
 3100TIP3    H130859   4.421   5.258   0.061  0.3890 -0.1344  1.4824
 3100TIP3    H230860   4.341   5.384   0.037  0.3853 -0.4509 -0.3100
 3101TIP3   OH230861   4.402   2.366   0.798 -0.2863 -0.1259  0.2620
 3101TIP3    H130862   4.404   2.333   0.708  0.4113 -2.0384  0.9139
 3101TIP3    H230863   4.450   2.299   0.848 -0.5277  0.9713  2.0270
 3102TIP3   OH230864   4.645   1.692   2.514 -0.3646 -0.5771  0.0577
 3102TIP3    H130865   4.706   1.744   2.461  2.1108 -2.5910  0.7113
 3102TIP3    H230866   4.642   1.737   2.598  0.1485 -0.3816 -0.0226
 3103TIP3   OH230867   0.603   2.046   2.847  0.4200  0.2717 -0.0012
 3103TIP3    H130868   0.610   2.065   2.940 -0.2486 -0.4608  0.2176
 3103TIP3    H230869   0.541   1.973   2.843  0.9179 -0.1130 -0.9722
 3104TIP3   OH230870   1.419   2.104   2.436  0.8987 -0.3714  0.2177
 3104TIP3    H130871   1.462   2.086   2.520  0.2246  0.3799  0.7363
 3104TIP3    H230872   1.357   2.174   2.456 -0.8927 -1.7296 -0.4002
 3105TIP3   OH230873   5.430   5.420   7.097 -0.0247  0.0645 -0.1990
 3105TIP3    H130874   5.464   5.469   7.022 -0.3507  0.8165  0.1323
 3105TIP3    H230875   5.354   5.372   7.062 -0.5878  0.9345 -0.2196
 3106TIP3   OH230876   5.377   1.810   1.041 -0.2031  0.4752 -0.1940
 3106TIP3    H130877   5.434   1.762   1.100 -1.1969 -1.2577 -0.5752
 3106TIP3    H230878   5.293   1.765   1.047 -0.7062  1.1135 -1.8859
 3107TIP3   OH230879   4.709   4.289   8.434  0.3842  0.9247  0.8081
 3107TIP3    H130880   4.789   4.241   8.412 -0.1340 -0.0979  1.0563
 3107TIP3    H230881   4.697   4.274   8.528  0.9143  2.6694  1.1901
 3108TIP3   OH230882   4.850   0.031   1.604  0.3451  0.5760 -0.0491
 3108TIP3    H130883   4.888   0.083   1.533  0.5055  0.7687  0.1726
 3108TIP3    H230884   4.808  -0.043   1.561  2.2638 -0.4852 -0.2236
 3109TIP3   OH230885   4.256   2.228   1.767  0.1129  0.3355  0.0856
 3109TIP3    H130886   4.304   2.204   1.846  0.0816  1.2855  0.4043
 3109TIP3    H230887   4.164   2.230   1.794  0.1281  0.9484  0.1040
 3110TIP3   OH230888   0.196   0.591   3.004  0.2926 -0.0253  0.5640
 3110TIP3    H130889   0.274   0.556   3.047 -0.1809  0.5019  1.8973
 3110TIP3    H230890   0.165   0.519   2.949 -0.0862 -1.4136  2.4619
 3111TIP3   OH230891   5.558   0.612   6.951  0.1437  0.1271 -0.6001
 3111TIP3    H130892   5.627   0.548   6.930 -0.5629 -0.2598 -1.8105
 3111TIP3    H230893   5.596   0.696   6.927 -0.7004 -0.3064 -3.8455
 3112TIP3   OH230894   2.345   1.606   2.067 -0.1621 -0.4540  0.3847
 3112TIP3    H130895   2.300   1.622   2.151 -0.0284 -0.9312  0.5516
 3112TIP3    H230896   2.373   1.693   2.038  0.0233 -0.3140  0.9651
 3113TIP3   OH230897   5.290   1.620   7.054  0.0070  0.5903  0.1075
 3113TIP3    H130898   5.199   1.612   7.083  0.1129  1.7809  0.8051
 3113TIP3    H230899   5.294   1.705   7.010  0.7944  0.5614  0.1155
 3114TIP3   OH230900   6.686   6.366   0.151  0.3079  0.6603 -0.5267
 3114TIP3    H130901   6.773   6.386   0.185  0.2839 -0.1502  0.0472
 3114TIP3    H230902   6.692   6.275   0.121 -0.8455 -0.1170  1.3577
 3115TIP3   OH230903   0.448   0.575   3.108  0.4180  0.5161  0.3835
 3115TIP3    H130904   0.505   0.627   3.163  1.5623  1.4392 -1.6013
 3115TIP3    H230905   0.506   0.515   3.062 -0.5792 -0.6567  0.5854
 3116TIP3   OH230906   3.540   0.576   1.757 -0.1624  0.1690  0.2551
 3116TIP3    H130907   3.568   0.666   1.744 -2.4671  1.3338  2.5304
 3116TIP3    H230908   3.531   0.567   1.852 -0.8454 -2.1867  0.0263
 3117TIP3   OH230909   5.797   6.510   0.111 -0.0480 -0.2565  0.2284
 3117TIP3    H130910   5.717   6.458   0.101 -0.7468  0.3887  1.9997
 3117TIP3    H230911   5.805   6.557   0.028 -1.2577 -0.6769 -0.1522
 3118TIP3   OH230912   1.583   2.091   2.650  0.4303 -0.2298  0.0485
 3118TIP3    H130913   1.668   2.053   2.674  0.8988  0.2291 -0.8429
 3118TIP3    H230914   1.544   2.116   2.734  0.3249 -2.1581  0.6255
 3119TIP3   OH230915   0.786   0.879   2.031  0.0940  0.0276  0.5367
 3119TIP3    H130916   0.851   0.839   1.973  0.1507 -0.5986  1.0187
 3119TIP3    H230917   0.798   0.835   2.115 -0.8026  0.0633  0.6975
 3120TIP3   OH230918   5.178   5.601   7.471 -0.6128  0.3334  0.5847
 3120TIP3    H130919   5.226   5.651   7.404 -3.1919  1.3515 -0.6594
 3120TIP3    H230920   5.134   5.531   7.422 -3.2111  1.5857  0.9438
 3121TIP3   OH230921   6.250   5.658   6.826 -0.1541  0.2536  0.0336
 3121TIP3    H130922   6.345   5.640   6.826 -0.3928 -1.2178  1.0306
 3121TIP3    H230923   6.232   5.691   6.738  1.0361 -0.9445 -0.7110
 3122TIP3   OH230924   6.541   1.948   0.876 -0.4435  0.0418  0.2926
 3122TIP3    H130925   6.484   1.877   0.903 -1.0975  0.4152 -0.0721
 3122TIP3    H230926   6.517   2.021   0.933 -0.7818  0.3867 -0.2758
 3123TIP3   OH230927   2.392   3.398   7.848  0.0869 -0.1589  0.8142
 3123TIP3    H130928   2.305   3.358   7.845  0.1633 -0.3188  0.6549
 3123TIP3    H230929   2.409   3.424   7.757 -0.4374  1.2938  1.1062
 3124TIP3   OH230930   5.937   0.604   1.352 -0.6024  0.0346  0.4249
 3124TIP3    H130931   5.985   0.590   1.271 -0.3492 -0.1925  0.6087
 3124TIP3    H230932   5.888   0.685   1.338  0.6709  0.8658  0.6108
 3125TIP3   OH230933   2.617   2.560   8.207  0.1858 -0.3419  0.0181
 3125TIP3    H130934   2.637   2.653   8.199 -1.0313  0.0091  0.8730
 3125TIP3    H230935   2.700   2.521   8.235  0.6468  0.5151 -0.1029
 3126TIP3   OH230936   2.515   5.690   0.494  0.0430  0.3218 -0.2041
 3126TIP3    H130937   2.424   5.722   0.493  0.6131  2.0479 -1.8429
 3126TIP3    H230938   2.552   5.726   0.575 -0.6382 -0.2080  0.3618
 3127TIP3   OH230939   1.768   5.259   7.489  0.1428  0.1689 -0.5380
 3127TIP3    H130940   1.828   5.195   7.450  0.2641  1.4129 -2.5305
 3127TIP3    H230941   1.825   5.333   7.511 -0.6183  1.6341 -3.0449
 3128TIP3   OH230942   1.926   1.097   8.616 -0.3198 -0.4681 -0.2131
 3128TIP3    H130943   1.862   1.107   8.687  0.2807 -2.0630  0.5770
 3128TIP3    H230944   1.940   1.003   8.608  2.1563 -0.1661 -0.1808
 3129TIP3   OH230945   0.205   3.886   1.392  0.8760  0.2918  0.2102
 3129TIP3    H130946   0.129   3.848   1.348  0.6894 -1.4855  1.9231
 3129TIP3    H230947   0.280   3.857   1.340  0.4573  1.9017 -1.3842
 3130TIP3   OH230948   5.330   6.191   0.221  0.4463  0.0314  0.1757
 3130TIP3    H130949   5.351   6.167   0.312  2.0873 -0.4298 -0.2814
 3130TIP3    H230950   5.304   6.283   0.227 -0.2021 -0.1956  1.1982
 3131TIP3   OH230951   5.849   6.594   7.960 -0.7019 -0.3112  0.1788
 3131TIP3    H130952   5.757   6.602   7.984 -0.7731  0.4802 -0.3090
 3131TIP3    H230953   5.891   6.558   8.038 -1.4242 -0.7214  0.3918
 3132TIP3   OH230954   5.159   2.910   1.403  0.0005  0.1231  1.2064
 3132TIP3    H130955   5.160   2.843   1.334  0.7079  0.6766  0.6611
 3132TIP3    H230956   5.133   2.863   1.482 -2.6804 -0.1929  0.2440
 3133TIP3   OH230957   6.252   2.522   0.965  0.3269 -0.1281  0.5056
 3133TIP3    H130958   6.168   2.500   1.006 -0.3822 -0.4244 -1.0317
 3133TIP3    H230959   6.304   2.443   0.972  1.0631  0.4964  2.7633
 3134TIP3   OH230960   2.492   1.663   8.279  0.0989 -0.0379 -0.0547
 3134TIP3    H130961   2.443   1.745   8.275  0.4254  0.1275 -1.1302
 3134TIP3    H230962   2.431   1.597   8.247 -0.4784 -0.4052  1.6923
 3135TIP3   OH230963   3.701   4.896   1.719 -0.3603 -0.0894  0.3205
 3135TIP3    H130964   3.719   4.880   1.812  1.1202  2.0814  0.4686
 3135TIP3    H230965   3.634   4.964   1.718  0.4379  0.7100 -0.1679
 3136TIP3   OH230966   5.737   1.320   0.894 -0.0424  0.1415 -0.3528
 3136TIP3    H130967   5.669   1.305   0.959 -0.0559  2.1916  0.1772
 3136TIP3    H230968   5.742   1.238   0.845 -1.9945 -0.4903  0.4037
 3137TIP3   OH230969   6.686   3.073   8.489 -0.8876  0.3135  0.3719
 3137TIP3    H130970   6.716   3.106   8.574  1.3107 -3.5488  1.3725
 3137TIP3    H230971   6.762   3.081   8.432 -0.5200 -1.8976  0.4375
 3138TIP3   OH230972   5.640   6.820   7.728 -0.2812  0.3174 -0.2198
 3138TIP3    H130973   5.699   6.798   7.800 -0.9702  0.1584  0.3094
 3138TIP3    H230974   5.698   6.845   7.656  0.4284  0.0152  0.2364
 3139TIP3   OH230975   1.250   2.707   8.155 -0.2457  0.0049 -0.3655
 3139TIP3    H130976   1.297   2.624   8.159  1.0356  0.7468  1.1341
 3139TIP3    H230977   1.300   2.765   8.212 -2.1283  1.2893  0.0564
 3140TIP3   OH230978   1.915   0.662   7.778  0.8501 -0.1584  0.4733
 3140TIP3    H130979   1.823   0.653   7.750  0.9826 -0.8521  0.2502
 3140TIP3    H230980   1.965   0.661   7.697  1.1331 -0.8309  0.6503
 3141TIP3   OH230981   6.538   3.694   2.163  0.6506  0.1898  0.5025
 3141TIP3    H130982   6.548   3.643   2.244  1.4072  1.0990  1.0005
 3141TIP3    H230983   6.619   3.679   2.115  0.5179  0.2511  0.2605
 3142TIP3   OH230984   6.083   1.189   7.755  0.2721 -0.0681  0.2054
 3142TIP3    H130985   6.168   1.216   7.787  0.7559 -0.5101 -0.6693
 3142TIP3    H230986   6.086   1.093   7.756 -0.8562 -0.1332  1.8066
 3143TIP3   OH230987   0.844   0.747   2.255 -0.0418 -0.0169  0.2352
 3143TIP3    H130988   0.897   0.669   2.240 -0.4875 -0.3001  0.1300
 3143TIP3    H230989   0.876   0.782   2.338  1.4007  0.7023 -0.5847
 3144TIP3   OH230990   2.639   2.114   0.735  0.4477  0.2563  0.7301
 3144TIP3    H130991   2.549   2.113   0.703  0.6307  0.0919  0.2117
 3144TIP3    H230992   2.675   2.196   0.702  0.8871 -0.2974 -0.2095
 3145TIP3   OH230993   0.669   0.057   0.288  0.7572 -0.5668 -0.4846
 3145TIP3    H130994   0.668   0.152   0.297  1.1237 -0.6033  0.0091
 3145TIP3    H230995   0.725   0.041   0.212  0.2152 -0.3679 -0.9297
 3146TIP3   OH230996   2.709   6.446   1.952  0.4107  0.3181  0.2474
 3146TIP3    H130997   2.742   6.505   1.883 -0.9672  0.9519  0.1065
 3146TIP3    H230998   2.647   6.499   2.001 -0.3899 -0.8384  0.5150
 3147TIP3   OH230999   4.453   5.459   1.687 -0.1958 -0.2234  0.0012
 3147TIP3    H131000   4.524   5.507   1.731  1.3910 -0.6664 -1.9372
 3147TIP3    H231001   4.402   5.421   1.759  1.1604  0.6068  1.4777
 3148TIP3   OH231002   2.915   5.168   7.381 -0.2614  0.0942  0.1133
 3148TIP3    H131003   2.914   5.243   7.321  0.1762 -0.3958 -0.5228
 3148TIP3    H231004   2.825   5.135   7.381 -0.6676  1.1171  1.0636
 3149TIP3   OH231005   0.209   5.742   2.384 -0.1755  0.3398  0.4138
 3149TIP3    H131006   0.219   5.653   2.349 -0.0786 -0.4536  2.2927
 3149TIP3    H231007   0.251   5.738   2.470  0.9915  2.5934  0.0297
 3150TIP3   OH231008   6.603   4.757   0.504 -0.1183  0.2536  0.3937
 3150TIP3    H131009   6.549   4.711   0.569 -0.0806  0.2308  0.4083
 3150TIP3    H231010   6.559   4.842   0.492 -0.6292 -0.0808 -0.2029
 3151TIP3   OH231011   5.213   5.111   0.951 -0.3880 -0.0978 -0.1185
 3151TIP3    H131012   5.184   5.027   0.914  3.5410 -1.9772  0.4928
 3151TIP3    H231013   5.192   5.105   1.044  1.5448 -1.3963  0.3023
 3152TIP3   OH231014   5.689   2.762   0.518 -0.1421  0.3762 -0.8138
 3152TIP3    H131015   5.661   2.851   0.495 -0.6163  1.3412  2.8329
 3152TIP3    H231016   5.775   2.774   0.556 -0.9158 -0.3937  1.3128
 3153TIP3   OH231017   4.838   4.178   2.172  0.5434  0.5004 -0.0118
 3153TIP3    H131018   4.776   4.204   2.104  0.5450 -0.1068 -0.2482
 3153TIP3    H231019   4.924   4.186   2.131  0.5593  0.3618 -0.0061
 3154TIP3   OH231020   0.905   6.516   0.385  0.1779  0.2538 -0.0487
 3154TIP3    H131021   0.948   6.546   0.305 -0.4436  2.1925  0.2781
 3154TIP3    H231022   0.968   6.537   0.455  0.7914 -1.5870 -0.0069
 3155TIP3   OH231023   3.032   6.257   8.262 -0.2835  0.2493  0.5619
 3155TIP3    H131024   2.995   6.274   8.348  1.4472  1.0014  1.2072
 3155TIP3    H231025   3.022   6.340   8.215  1.5209  0.8313  1.1379
 3156TIP3   OH231026   4.495   4.695   0.214 -0.0785 -0.2959 -0.3367
 3156TIP3    H131027   4.576   4.685   0.163  0.0974 -1.0000  0.0591
 3156TIP3    H231028   4.425   4.693   0.148  0.2256  0.4820 -0.6959
 3157TIP3   OH231029   1.145   6.645   2.256  0.0327 -0.4086  0.4042
 3157TIP3    H131030   1.191   6.566   2.227  1.1510 -0.2143  1.5238
 3157TIP3    H231031   1.119   6.625   2.346 -1.0517 -0.0522  0.1857
 3158TIP3   OH231032   4.669   4.619   8.501  0.5344  0.4407  0.3838
 3158TIP3    H131033   4.693   4.705   8.536  1.4825  0.3476 -0.0260
 3158TIP3    H231034   4.616   4.639   8.424 -0.1397  0.6427  0.8831
 3159TIP3   OH231035   0.300   1.197   0.617 -0.0697 -0.5895 -0.2199
 3159TIP3    H131036   0.218   1.246   0.617 -0.0853 -0.6161  0.5856
 3159TIP3    H231037   0.310   1.168   0.526  0.7210  2.1907 -1.0918
 3160TIP3   OH231038   4.061   0.168   0.466  0.3292  0.2327  0.4628
 3160TIP3    H131039   4.115   0.111   0.521 -1.7058 -1.7720  0.5112
 3160TIP3    H231040   4.002   0.109   0.420 -1.3221  2.2605 -0.1924
 3161TIP3   OH231041   1.124   2.404   7.838  0.6256  0.6979 -0.1213
 3161TIP3    H131042   1.135   2.439   7.749  0.6920  0.0871 -0.3607
 3161TIP3    H231043   1.111   2.310   7.825 -1.0333  0.8220  0.4057
 3162TIP3   OH231044   5.470   1.834   2.753  0.6118  0.0539 -0.1059
 3162TIP3    H131045   5.468   1.754   2.701  0.5876 -1.2818  1.8436
 3162TIP3    H231046   5.410   1.894   2.708  0.6567 -0.9932 -1.6249
 3163TIP3   OH231047   2.964   4.043   2.409  0.0480 -0.5166 -0.0300
 3163TIP3    H131048   2.972   3.950   2.429  0.9964 -0.3625  0.3662
 3163TIP3    H231049   3.010   4.054   2.326  0.8382 -0.2465  0.4255
 3164TIP3   OH231050   1.157   3.319   8.379 -0.8331 -0.3366 -0.7246
 3164TIP3    H131051   1.233   3.278   8.420 -0.3097  0.0966 -1.2422
 3164TIP3    H231052   1.139   3.266   8.302 -0.3153  0.2309 -1.2518
 3165TIP3   OH231053   0.616   1.888   8.183 -0.2126  0.6255  0.3244
 3165TIP3    H131054   0.588   1.835   8.258  0.6896  1.8574  1.5706
 3165TIP3    H231055   0.545   1.878   8.119 -0.9229 -0.5800  1.2605
 3166TIP3   OH231056   4.387   2.556   1.235  0.4164 -0.8164 -0.3639
 3166TIP3    H131057   4.468   2.590   1.199  0.8150 -0.7764  0.5514
 3166TIP3    H231058   4.375   2.602   1.317 -1.8957  1.1018 -1.6392
 3167TIP3   OH231059   1.729   2.529   8.684  0.5861 -0.0305 -0.5160
 3167TIP3    H131060   1.786   2.570   8.619 -0.4925  0.8192 -0.9613
 3167TIP3    H231061   1.788   2.502   8.755  1.4636  1.4439 -0.6434
 3168TIP3   OH231062   5.507   0.777   2.579  0.0866 -0.1708 -0.0122
 3168TIP3    H131063   5.591   0.733   2.587  0.0539 -0.3786 -0.8087
 3168TIP3    H231064   5.509   0.820   2.494 -0.3744  0.3315  0.2196
 3169TIP3   OH231065   4.772   5.191   7.205  0.0986 -0.1872  0.0257
 3169TIP3    H131066   4.771   5.187   7.109 -1.1238 -0.5506  0.0410
 3169TIP3    H231067   4.684   5.219   7.229  0.3403 -0.2678  1.0626
 3170TIP3   OH231068   3.347   0.601   2.046 -0.6532 -0.2258 -0.5507
 3170TIP3    H131069   3.362   0.533   2.112  0.4660  0.6619  0.1467
 3170TIP3    H231070   3.285   0.661   2.086  1.3676  1.2984  0.5279
 3171TIP3   OH231071   5.625   5.284   0.634 -0.0505 -0.5986 -0.1667
 3171TIP3    H131072   5.575   5.249   0.708 -1.1895  2.0397  0.3992
 3171TIP3    H231073   5.573   5.262   0.557  0.1555 -1.6265 -0.0378
 3172TIP3   OH231074   5.974   1.705   8.375  0.1186  0.3033  0.1556
 3172TIP3    H131075   6.051   1.656   8.347  1.1281  1.9708 -0.1657
 3172TIP3    H231076   5.902   1.671   8.322  0.2115 -2.4221  1.5806
 3173TIP3   OH231077   2.043   1.659   1.904 -0.3329  0.3903 -0.0141
 3173TIP3    H131078   2.098   1.580   1.908 -0.9967 -0.0702  0.2630
 3173TIP3    H231079   1.986   1.645   1.829 -0.5548  0.5389  0.1249
 3174TIP3   OH231080   1.785   4.475   6.909  0.2860  0.0583 -0.5047
 3174TIP3    H131081   1.845   4.453   6.980  0.9467  0.9986 -0.7521
 3174TIP3    H231082   1.722   4.536   6.949  1.3045  1.4509 -0.9639
 3175TIP3   OH231083   1.527   3.949   7.904  0.0787  0.2090  0.4767
 3175TIP3    H131084   1.529   3.916   7.994 -1.8265 -0.3618  0.3541
 3175TIP3    H231085   1.436   3.975   7.890  0.4443  0.7395 -1.1367
 3176TIP3   OH231086   4.218   2.161   2.358  0.0935  0.0084  0.1338
 3176TIP3    H131087   4.258   2.248   2.370 -0.1767  0.0768  0.5629
 3176TIP3    H231088   4.140   2.178   2.305  0.0721  0.0203  0.1685
 3177TIP3   OH231089   6.401   3.569   8.311 -0.2390 -0.1367 -0.0658
 3177TIP3    H131090   6.462   3.510   8.355  0.3511 -1.1414 -2.1044
 3177TIP3    H231091   6.329   3.580   8.374  1.5803  0.3994  2.0546
 3178TIP3   OH231092   0.245   2.777   1.150 -0.1245 -0.2471 -0.7385
 3178TIP3    H131093   0.167   2.824   1.178  0.0331 -0.1927 -0.3895
 3178TIP3    H231094   0.318   2.834   1.176  0.0322 -0.2877 -1.0808
 3179TIP3   OH231095   3.330   2.965   7.929 -0.3647 -0.3451 -0.3903
 3179TIP3    H131096   3.393   2.942   7.997  0.9499 -0.3608 -1.5657
 3179TIP3    H231097   3.315   3.059   7.941 -1.6183 -0.6768  1.0595
 3180TIP3   OH231098   1.093   3.530   7.385 -0.2085  0.3398 -0.4907
 3180TIP3    H131099   1.184   3.526   7.354 -0.1107  1.6404 -0.4263
 3180TIP3    H231100   1.081   3.449   7.434  1.8654  1.3927  1.9772
 3181TIP3   OH231101   3.919   2.285   0.161 -0.9570  0.0954  0.1922
 3181TIP3    H131102   4.003   2.240   0.153 -0.6789  0.6598 -0.2512
 3181TIP3    H231103   3.857   2.218   0.186 -0.6424 -0.6269 -0.8887
 3182TIP3   OH231104   2.191   6.058   2.229 -0.3391 -0.3119  0.0647
 3182TIP3    H131105   2.161   6.149   2.233  2.2370  0.6974 -1.3261
 3182TIP3    H231106   2.131   6.016   2.167 -0.5137  0.9173 -0.6391
 3183TIP3   OH231107   4.466   5.930   0.352  0.8452 -0.2790 -0.4899
 3183TIP3    H131108   4.439   5.842   0.377  3.1063 -0.8186  0.2935
 3183TIP3    H231109   4.447   5.936   0.259 -0.6909 -1.0263 -0.2519
 3184TIP3   OH231110   6.667   0.594   7.845  0.7054  0.0688 -0.3216
 3184TIP3    H131111   6.619   0.543   7.910  2.5481  0.2312  1.2544
 3184TIP3    H231112   6.722   0.530   7.800  3.3011  0.5519  1.9124
 3185TIP3   OH231113   5.816   4.148   1.933  0.3180 -0.0919  0.1244
 3185TIP3    H131114   5.876   4.188   1.995  0.3264  0.5053 -0.2661
 3185TIP3    H231115   5.796   4.062   1.971  0.9365 -0.0497  0.5552
 3186TIP3   OH231116   0.541   2.343   2.375 -0.3704 -0.0141 -0.6407
 3186TIP3    H131117   0.583   2.265   2.412 -1.0834  0.9049  2.3374
 3186TIP3    H231118   0.599   2.415   2.397 -0.8513  0.6102 -1.3646
 3187TIP3   OH231119   2.284   5.264   8.303 -0.4981 -0.1667  0.0972
 3187TIP3    H131120   2.268   5.288   8.394  0.2382  1.3257 -0.1317
 3187TIP3    H231121   2.373   5.295   8.285  0.1865 -2.3101 -0.5407
 3188TIP3   OH231122   6.161   3.349   2.453  0.2154  0.0563  0.1762
 3188TIP3    H131123   6.133   3.289   2.384 -0.3760 -1.4312  1.6349
 3188TIP3    H231124   6.237   3.306   2.492  1.6813  1.7602 -0.6636
 3189TIP3   OH231125   2.189   5.428   2.367 -0.1366 -0.4780  0.2058
 3189TIP3    H131126   2.154   5.341   2.348 -1.8118  0.1385  0.3349
 3189TIP3    H231127   2.282   5.422   2.342 -0.4120 -2.0350 -0.5902
 3190TIP3   OH231128   6.049   4.664   7.401 -0.0563  0.3421  0.4074
 3190TIP3    H131129   6.007   4.578   7.399 -2.3762  1.4184 -0.6086
 3190TIP3    H231130   6.100   4.663   7.482  0.8332 -2.3227 -0.0656
 3191TIP3   OH231131   1.297   4.961   0.034  0.7733 -0.1534  0.0268
 3191TIP3    H131132   1.253   4.886  -0.007 -0.5626 -0.2265  1.5279
 3191TIP3    H231133   1.319   4.931   0.122  0.5670  1.0940  0.5205
 3192TIP3   OH231134   0.862   4.765   1.890  0.5583 -0.2622 -0.4296
 3192TIP3    H131135   0.920   4.828   1.932  2.8148 -1.9543 -0.8199
 3192TIP3    H231136   0.836   4.705   1.960 -0.3080  0.1695 -0.3679
 3193TIP3   OH231137   1.391   3.339   8.524  0.1394  0.6159  0.0296
 3193TIP3    H131138   1.402   3.427   8.487  0.2649  1.2796  1.5705
 3193TIP3    H231139   1.476   3.297   8.511 -0.3513  0.1531 -2.0469
 3194TIP3   OH231140   2.225   3.371   3.139 -0.4099  0.2201  0.6576
 3194TIP3    H131141   2.246   3.453   3.095  0.1778 -0.0405  0.4483
 3194TIP3    H231142   2.269   3.378   3.224 -0.5963  0.2388  0.7536
 3195TIP3   OH231143   6.471   4.590   1.789 -0.3537  0.2293 -0.1438
 3195TIP3    H131144   6.412   4.658   1.758  0.5945  0.6318 -1.1133
 3195TIP3    H231145   6.442   4.573   1.879  0.6900  3.4298  0.9105
 3196TIP3   OH231146   2.413   5.350   2.164  0.1627  0.3291 -0.0556
 3196TIP3    H131147   2.323   5.319   2.150 -0.0827  0.3304  1.3672
 3196TIP3    H231148   2.412   5.441   2.134 -0.3988  0.4224  0.2267
 3197TIP3   OH231149   1.041   6.479   8.384  0.4194  0.2617 -0.0605
 3197TIP3    H131150   0.989   6.551   8.349 -0.7349 -0.5670 -0.0844
 3197TIP3    H231151   0.984   6.403   8.380  1.3773 -0.5266  0.6174
 3198TIP3   OH231152   4.050   4.525   1.388  0.5050  0.0182 -0.5329
 3198TIP3    H131153   4.084   4.592   1.328  0.3936  0.3335 -0.2498
 3198TIP3    H231154   4.079   4.442   1.351  0.6172  0.2230 -0.9081
 3199TIP3   OH231155   2.573   2.546   8.788  0.3926  0.1911  0.2447
 3199TIP3    H131156   2.483   2.519   8.770  1.0130 -1.2443 -0.9366
 3199TIP3    H231157   2.587   2.622   8.731  0.3879 -0.5382 -0.7701
 3200TIP3   OH231158   1.613   4.515   1.573 -0.0560  0.2712  0.5061
 3200TIP3    H131159   1.556   4.552   1.505  1.5431  1.7753 -0.0928
 3200TIP3    H231160   1.587   4.423   1.578 -0.3182  0.1173 -2.0926
 3201TIP3   OH231161   6.536   2.931   0.354  0.1316  0.1167 -0.1226
 3201TIP3    H131162   6.440   2.930   0.361  0.1089 -1.4957 -0.3465
 3201TIP3    H231163   6.552   2.947   0.260  0.1161  1.0743  0.0236
 3202TIP3   OH231164   1.098   3.366   1.198 -0.0929 -0.0428 -0.3753
 3202TIP3    H131165   1.112   3.446   1.148 -1.6589 -0.4817 -1.6016
 3202TIP3    H231166   1.056   3.306   1.136 -1.6995 -0.7806  1.3458
 3203TIP3   OH231167   2.476   3.388   8.281 -0.5307  0.7699  0.6260
 3203TIP3    H131168   2.443   3.314   8.331 -1.0136  0.8816  0.4895
 3203TIP3    H231169   2.452   3.368   8.190 -1.6136  1.5573  0.7038
 3204TIP3   OH231170   0.539   2.852   2.388 -0.8407  0.6035 -0.0364
 3204TIP3    H131171   0.485   2.885   2.460 -0.9240 -1.9003  1.1549
 3204TIP3    H231172   0.627   2.881   2.409 -1.1930  1.7982 -0.1474
 3205TIP3   OH231173   0.572   2.029   6.693  0.2593  0.1903  0.3245
 3205TIP3    H131174   0.512   1.956   6.678 -0.3409  0.8825 -0.7370
 3205TIP3    H231175   0.652   2.005   6.646 -0.0239  0.3209 -0.2272
 3206TIP3   OH231176   2.304   0.643   1.914 -0.4808  0.1689 -0.4312
 3206TIP3    H131177   2.278   0.651   2.006 -0.0684 -0.0804 -0.2903
 3206TIP3    H231178   2.313   0.549   1.900  3.6346  0.2114  0.4892
 3207TIP3   OH231179   0.608   1.005   1.072  0.2051 -0.0775 -0.4662
 3207TIP3    H131180   0.704   1.007   1.063  0.1571  1.7581 -1.0563
 3207TIP3    H231181   0.585   1.095   1.094 -1.6623  0.3529 -3.5538
 3208TIP3   OH231182   6.110   4.000   7.540 -1.1158  0.4344  0.0816
 3208TIP3    H131183   6.186   3.965   7.587 -1.5067  0.7083  0.9502
 3208TIP3    H231184   6.146   4.038   7.460 -0.5120 -0.6236 -0.1606
 3209TIP3   OH231185   6.042   0.320   1.003  0.3961  0.1147 -0.2612
 3209TIP3    H131186   6.031   0.380   0.929 -0.8000 -0.9144 -0.9481
 3209TIP3    H231187   6.129   0.283   0.990 -0.2518 -0.9403 -1.8563
 3210TIP3   OH231188   1.786   6.051   0.861 -0.0131  0.1709  0.5215
 3210TIP3    H131189   1.744   6.076   0.943 -0.0390 -0.2629  0.6454
 3210TIP3    H231190   1.855   5.989   0.888 -0.9852 -1.1490  0.0991
 3211TIP3   OH231191   3.933   3.627   7.129 -0.0397  0.2019 -0.3989
 3211TIP3    H131192   3.871   3.609   7.058  0.2020 -0.4383 -0.4520
 3211TIP3    H231193   3.973   3.543   7.148 -0.6754  0.1932  1.0532
 3212TIP3   OH231194   1.582   3.133   2.328  0.1552  0.1673 -0.4894
 3212TIP3    H131195   1.531   3.210   2.300  0.0888 -0.2639 -1.6069
 3212TIP3    H231196   1.620   3.159   2.412  0.4856  1.5977 -1.0446
 3213TIP3   OH231197   5.522   3.663   7.204 -0.3711 -0.1004 -0.3715
 3213TIP3    H131198   5.491   3.575   7.224  0.9771 -0.2901  1.0595
 3213TIP3    H231199   5.617   3.659   7.215 -0.2969  1.5846 -0.0519
 3214TIP3   OH231200   2.273   2.264   0.436  0.0635  0.8294  0.0960
 3214TIP3    H131201   2.178   2.272   0.443  0.0193  1.3175 -0.8984
 3214TIP3    H231202   2.300   2.229   0.521 -0.9124  1.4879  0.6973
 3215TIP3   OH231203   0.977   0.647   7.892  0.0589 -0.0280  0.3819
 3215TIP3    H131204   1.002   0.692   7.811  0.4298 -0.4422  0.2609
 3215TIP3    H231205   0.978   0.554   7.868  0.2668 -0.1583  0.8898
 3216TIP3   OH231206   1.948   5.296   2.939  0.1218 -0.1583 -0.1816
 3216TIP3    H131207   1.976   5.252   3.019  0.0286  0.2032  0.0574
 3216TIP3    H231208   2.001   5.376   2.935  0.7763 -0.6207 -0.9746
 3217TIP3   OH231209   0.414   3.970   1.590 -0.0743 -0.1642  0.1320
 3217TIP3    H131210   0.398   4.004   1.678 -0.2845  1.2448 -0.4192
 3217TIP3    H231211   0.328   3.943   1.558  0.0638 -1.0689  0.4981
 3218TIP3   OH231212   0.682   4.527   8.458  0.1817 -0.2636 -0.4633
 3218TIP3    H131213   0.682   4.552   8.366 -0.1298 -0.7454 -0.5962
 3218TIP3    H231214   0.601   4.565   8.493 -0.0668 -0.6994 -0.5606
 3219TIP3   OH231215   4.692   0.705   8.494  0.2967 -0.2520 -0.0066
 3219TIP3    H131216   4.635   0.644   8.540 -1.6318  1.2609 -0.2691
 3219TIP3    H231217   4.780   0.685   8.526  0.3020 -5.0176 -2.0728
 3220TIP3   OH231218   4.340   4.995   1.887  0.6439 -0.0833  0.1556
 3220TIP3    H131219   4.352   5.040   1.803 -1.7933  1.7936  0.6851
 3220TIP3    H231220   4.410   4.929   1.889  1.2702  0.2996 -2.9744
 3221TIP3   OH231221   3.550   6.638   2.518 -0.0451  0.4579  0.3697
 3221TIP3    H131222   3.484   6.701   2.490  0.1666  1.0311  1.1437
 3221TIP3    H231223   3.507   6.553   2.511 -0.2418  0.6393 -0.9735
 3222TIP3   OH231224   1.861   3.681   2.280 -0.4291  0.1165 -0.1559
 3222TIP3    H131225   1.945   3.723   2.265 -0.5778  0.9120  1.1424
 3222TIP3    H231226   1.797   3.737   2.235 -0.3640 -0.1018 -0.5327
 3223TIP3   OH231227   5.239   5.234   2.644  0.4837 -0.6589  0.0149
 3223TIP3    H131228   5.331   5.256   2.656  0.0359  0.8403  1.1686
 3223TIP3    H231229   5.235   5.190   2.559  2.1671 -0.2033 -0.3407
 3224TIP3   OH231230   6.658   4.142   1.304  0.0814 -0.6463 -0.7859
 3224TIP3    H131231   6.675   4.089   1.382 -0.4762  0.0009 -0.2117
 3224TIP3    H231232   6.578   4.190   1.324  1.7478  2.1922 -0.2928
 3225TIP3   OH231233   4.970   6.730   2.591  0.1378 -0.5638  0.6229
 3225TIP3    H131234   5.018   6.648   2.579  1.8154  0.4704 -0.0136
 3225TIP3    H231235   5.038   6.798   2.594 -1.1370  0.7306  2.0409
 3226TIP3   OH231236   3.302   2.102   1.167  0.3578 -0.4262 -0.1585
 3226TIP3    H131237   3.398   2.100   1.166  0.3920 -1.2574  1.3242
 3226TIP3    H231238   3.277   2.014   1.195 -0.9404 -0.9236 -2.6240
 3227TIP3   OH231239   4.076   6.242   1.637  0.0561 -0.6545 -0.5698
 3227TIP3    H131240   4.000   6.276   1.684  0.4788  0.1976 -0.4748
 3227TIP3    H231241   4.041   6.177   1.577 -1.1784  1.8276 -2.7014
 3228TIP3   OH231242   2.560   3.241   0.174 -0.3006 -0.5260  0.0163
 3228TIP3    H131243   2.557   3.275   0.264  1.0840 -1.3296  0.3896
 3228TIP3    H231244   2.534   3.149   0.182 -1.6939 -0.2324 -0.6612
 3229TIP3   OH231245   1.845   3.251   1.162  0.5268 -0.0014 -0.1531
 3229TIP3    H131246   1.893   3.215   1.087 -0.2369 -0.2855 -0.5136
 3229TIP3    H231247   1.912   3.267   1.228  0.7824 -3.4914  0.6138
 3230TIP3   OH231248   6.491   6.073   7.706  0.2285  0.4747 -0.2365
 3230TIP3    H131249   6.549   5.998   7.689 -0.8614 -0.6149  0.6790
 3230TIP3    H231250   6.521   6.141   7.645  2.1236 -0.2258 -0.1497
 3231TIP3   OH231251   1.669   5.659   1.720 -0.2205  0.0904  0.2161
 3231TIP3    H131252   1.613   5.668   1.797  0.5519 -1.5733  1.0404
 3231TIP3    H231253   1.663   5.566   1.698  1.6302  0.0088 -0.0952
 3232TIP3   OH231254   1.191   2.150   7.748  0.2503 -0.3844  0.2316
 3232TIP3    H131255   1.223   2.137   7.838 -0.5419 -0.1988  0.5511
 3232TIP3    H231256   1.170   2.062   7.717  0.5907 -0.4559  0.1993
 3233TIP3   OH231257   1.772   2.378   2.626  0.4044  0.2147  0.6875
 3233TIP3    H131258   1.850   2.434   2.630  0.5235  0.1530 -0.3115
 3233TIP3    H231259   1.778   2.322   2.703  1.5486 -0.0398  0.4342
 3234TIP3   OH231260   2.884   5.486   0.171  0.1030  0.0367 -0.8589
 3234TIP3    H131261   2.907   5.422   0.104  1.8731  0.6523 -0.8995
 3234TIP3    H231262   2.937   5.563   0.149 -0.5778  0.8522  0.2514
 3235TIP3   OH231263   4.047   0.068   8.711  0.1697 -0.2153  0.2331
 3235TIP3    H131264   3.978   0.129   8.683  0.5703  1.8540  3.2167
 3235TIP3    H231265   4.125   0.124   8.720  1.6740 -2.0478 -0.8296
 3236TIP3   OH231266   3.730   1.164   0.163 -0.0361 -0.1813 -0.1860
 3236TIP3    H131267   3.720   1.225   0.236 -0.0533 -0.1169 -0.2414
 3236TIP3    H231268   3.790   1.209   0.103  0.3244 -0.4243 -0.0062
 3237TIP3   OH231269   1.001   2.925   1.654  0.3285 -0.5524  0.1295
 3237TIP3    H131270   1.095   2.930   1.637  0.4326  0.5928  0.9280
 3237TIP3    H231271   0.993   2.873   1.733  0.2400 -1.1099 -0.2392
 3238TIP3   OH231272   3.986   6.745   0.331  0.2089  0.3247  0.2421
 3238TIP3    H131273   4.031   6.686   0.391 -0.4862 -1.4003 -0.8447
 3238TIP3    H231274   4.016   6.717   0.244  0.2642  1.9492 -0.2921
 3239TIP3   OH231275   3.324   6.131   8.388  0.0340 -0.1548 -0.6207
 3239TIP3    H131276   3.363   6.111   8.473  0.8021 -0.3393 -1.0008
 3239TIP3    H231277   3.243   6.177   8.408 -0.0058 -0.5816  0.2154
 3240TIP3   OH231278   3.819   0.591   2.182  0.3760  0.1472 -0.9415
 3240TIP3    H131279   3.736   0.546   2.201  0.4759  0.6354  0.9479
 3240TIP3    H231280   3.887   0.526   2.201  0.4546  0.3253 -0.5921
 3241TIP3   OH231281   5.929   5.597   7.853  0.2388 -0.2376 -0.0787
 3241TIP3    H131282   5.900   5.686   7.834 -0.2819 -0.3089  0.3435
 3241TIP3    H231283   5.872   5.541   7.799  0.9090 -0.3018 -0.7416
 3242TIP3   OH231284   0.049   5.472   0.021  0.3549  0.0653 -0.3440
 3242TIP3    H131285   0.104   5.551   0.021  1.2561 -0.5294  0.5746
 3242TIP3    H231286   0.093   5.413  -0.040  1.6566 -0.9719  1.4853
 3243TIP3   OH231287   6.798   6.641   2.502 -0.2416  0.1563  0.1279
 3243TIP3    H131288   6.850   6.577   2.550 -1.4298 -1.9792 -1.2540
 3243TIP3    H231289   6.707   6.610   2.510 -1.1382  2.7176  0.9158
 3244TIP3   OH231290   0.823   5.402   8.491 -0.1202  0.3692 -0.2312
 3244TIP3    H131291   0.881   5.425   8.419  0.1946  1.8748  0.4758
 3244TIP3    H231292   0.760   5.474   8.495 -2.5439 -1.5179 -1.4292
 3245TIP3   OH231293   3.747   0.852   0.065  1.0661  0.2083  0.0155
 3245TIP3    H131294   3.676   0.874   0.006  0.9024  1.7585  0.7420
 3245TIP3    H231295   3.822   0.835   0.008 -0.0381 -2.3535 -0.8123
 3246TIP3   OH231296   1.247   1.687   1.881 -0.0271  0.1368 -0.3072
 3246TIP3    H131297   1.178   1.678   1.815 -1.0985 -0.0353  0.8006
 3246TIP3    H231298   1.329   1.685   1.831 -0.8286  0.7919 -1.7049
 3247TIP3   OH231299   2.848   4.176   8.318  0.5035 -0.2809 -0.6917
 3247TIP3    H131300   2.857   4.137   8.231  0.9870  1.0094 -1.2494
 3247TIP3    H231301   2.777   4.127   8.360 -0.8986  0.1706 -2.4421
 3248TIP3   OH231302   2.220   2.008   8.577 -0.2660  0.2652 -0.2520
 3248TIP3    H131303   2.126   2.005   8.557 -0.3245 -2.4124  0.0426
 3248TIP3    H231304   2.262   1.968   8.501  0.3303 -1.2723  0.8387
 3249TIP3   OH231305   3.524   1.044   1.205  0.3254  0.1304  0.1669
 3249TIP3    H131306   3.585   1.100   1.157 -0.7782  0.4521 -0.9022
 3249TIP3    H231307   3.540   1.064   1.297  0.4821  1.6336 -0.1694
 3250TIP3   OH231308   0.591   5.561   0.327 -0.6138 -0.0596  0.0219
 3250TIP3    H131309   0.565   5.616   0.401 -2.2043  0.9463 -1.2085
 3250TIP3    H231310   0.538   5.481   0.337  1.0704 -1.0878  1.3337
 3251TIP3   OH231311   4.835   5.155   1.588 -0.2629  0.1986 -0.5515
 3251TIP3    H131312   4.774   5.150   1.515 -0.8142  0.1703 -0.0930
 3251TIP3    H231313   4.820   5.075   1.638 -0.4171  0.5610 -0.0017
 3252TIP3   OH231314   6.055   3.887   0.101 -0.1096  0.4659 -0.3442
 3252TIP3    H131315   6.098   3.873   0.017 -1.0059  0.3690 -0.7981
 3252TIP3    H231316   5.962   3.879   0.082 -0.4035  1.7419  0.4007
 3253TIP3   OH231317   4.421   2.599   2.203 -0.7460 -0.3507  0.4350
 3253TIP3    H131318   4.451   2.532   2.265  0.1514 -0.5210 -0.1647
 3253TIP3    H231319   4.350   2.557   2.154  0.7398 -1.4082 -0.9199
 3254TIP3   OH231320   4.615   4.174   2.970  0.0579 -0.0951 -0.2212
 3254TIP3    H131321   4.581   4.251   2.924  0.9382 -0.1746 -1.0159
 3254TIP3    H231322   4.705   4.197   2.992 -0.2208 -0.2137  1.1429
 3255TIP3   OH231323   1.852   1.941   1.939 -0.7540  0.3126 -0.1066
 3255TIP3    H131324   1.897   2.024   1.927 -0.2197 -0.0534 -0.6942
 3255TIP3    H231325   1.816   1.921   1.853  1.2406 -1.2624 -0.6595
 3256TIP3   OH231326   3.544   2.809   1.680  0.2791  0.2856  1.0851
 3256TIP3    H131327   3.611   2.873   1.705  0.2320  1.2796 -1.1454
 3256TIP3    H231328   3.587   2.725   1.689  1.7161  0.8832  0.1093
 3257TIP3   OH231329   0.602   0.450   7.593 -0.3140 -0.0079 -0.6266
 3257TIP3    H131330   0.692   0.417   7.587  0.2289  0.2362  3.1521
 3257TIP3    H231331   0.547   0.375   7.575  0.8144 -1.4860  1.6138
 3258TIP3   OH231332   2.859   2.179   8.485 -0.0182 -0.1176  0.0386
 3258TIP3    H131333   2.788   2.117   8.503 -0.9807  0.6174 -1.0946
 3258TIP3    H231334   2.849   2.246   8.552  1.3847 -1.4087  1.6361
 3259TIP3   OH231335   3.884   5.171   6.976  0.0497 -0.7104 -0.1766
 3259TIP3    H131336   3.790   5.160   6.991  0.1516 -3.4805 -1.0030
 3259TIP3    H231337   3.922   5.170   7.064 -0.6028 -0.4288  0.1156
 3260TIP3   OH231338   2.305   5.314   7.193  0.4487 -0.7540  0.0116
 3260TIP3    H131339   2.227   5.367   7.180  0.4111 -0.7989  0.0525
 3260TIP3    H231340   2.354   5.324   7.111  1.2157  0.6124  0.6084
 3261TIP3   OH231341   0.157   2.079   1.935 -0.3544 -0.3400  0.4125
 3261TIP3    H131342   0.184   2.075   1.843 -0.1313  1.3480  0.3743
 3261TIP3    H231343   0.062   2.082   1.932 -0.3318  0.2657  0.1981
 3262TIP3   OH231344   5.976   5.295   8.210  0.2323 -0.1855  0.3408
 3262TIP3    H131345   5.954   5.377   8.255 -2.1732 -1.3681  1.5098
 3262TIP3    H231346   6.019   5.323   8.130  0.0812  2.2053  1.0088
 3263TIP3   OH231347   6.733   4.001   2.240 -0.3842  0.8891 -0.6694
 3263TIP3    H131348   6.751   3.932   2.176  1.1214  1.2374 -0.6582
 3263TIP3    H231349   6.733   3.956   2.325  1.7777  1.0336 -0.5414
 3264TIP3   OH231350   6.734   1.692   7.724 -0.0347 -0.1397 -0.2935
 3264TIP3    H131351   6.747   1.615   7.668 -0.6540 -0.7338  0.3636
 3264TIP3    H231352   6.702   1.760   7.664  0.1246 -0.5070 -0.8048
 3265TIP3   OH231353   0.973   4.801   1.644 -0.0851 -0.1142  0.0387
 3265TIP3    H131354   0.914   4.791   1.719  0.5144 -1.8546  0.3131
 3265TIP3    H231355   0.927   4.863   1.587 -0.9909  0.5198  1.3908
 3266TIP3   OH231356   4.186   4.744   1.283 -0.0278  0.7152  0.1876
 3266TIP3    H131357   4.238   4.763   1.205 -0.4022  0.3833 -0.1466
 3266TIP3    H231358   4.225   4.798   1.352 -0.5789  2.0920 -0.5594
 3267TIP3   OH231359   3.625   5.152   8.490 -0.2158 -0.2875  0.3009
 3267TIP3    H131360   3.673   5.081   8.532 -1.0720  0.1114  2.0599
 3267TIP3    H231361   3.666   5.232   8.524  0.4564  0.0759 -1.3150
 3268TIP3   OH231362   3.048   6.075   2.308 -0.4747 -0.5125  0.7986
 3268TIP3    H131363   3.011   6.074   2.396 -1.8823  0.4144  0.2473
 3268TIP3    H231364   2.984   6.029   2.253  0.2041 -0.7490  0.1717
 3269TIP3   OH231365   5.999   4.402   7.577  0.0543 -0.2382 -0.0029
 3269TIP3    H131366   5.961   4.340   7.639  0.3866  0.9558  1.4538
 3269TIP3    H231367   6.092   4.377   7.571 -0.0792 -0.6481 -0.4020
 3270TIP3   OH231368   4.500   2.938   1.961 -0.5964  0.6185  0.1247
 3270TIP3    H131369   4.528   2.914   1.873  1.1287  0.1156  0.7707
 3270TIP3    H231370   4.409   2.964   1.951 -0.1271  1.6138 -1.9853
 3271TIP3   OH231371   2.946   4.903   7.269 -0.2813 -0.0834  0.0421
 3271TIP3    H131372   2.994   4.984   7.254  0.2842 -0.4637 -0.1925
 3271TIP3    H231373   2.925   4.870   7.182  1.4825 -1.3713  0.0428
 3272TIP3   OH231374   6.216   5.664   7.812  0.2668 -0.3521 -0.1738
 3272TIP3    H131375   6.248   5.755   7.814 -0.1963 -0.2021  1.6083
 3272TIP3    H231376   6.134   5.667   7.861  0.3527 -1.7903  0.0705
 3273TIP3   OH231377   0.433   2.829   8.347 -0.3579  0.1240  0.5807
 3273TIP3    H131378   0.450   2.923   8.346 -2.1672  0.5032 -1.3191
 3273TIP3    H231379   0.340   2.822   8.368 -0.4731 -1.1740 -0.2613
 3274TIP3   OH231380   0.563   1.065   8.127 -0.1509  0.1415 -0.2143
 3274TIP3    H131381   0.617   1.031   8.056  0.9857  0.8064  0.2991
 3274TIP3    H231382   0.612   1.140   8.160 -1.9780  1.5534 -0.5271
 3275TIP3   OH231383   0.086   1.349   0.592 -0.1667  0.1121  0.0506
 3275TIP3    H131384   0.104   1.436   0.627  1.8827 -0.4605  0.5650
 3275TIP3    H231385   0.051   1.365   0.505  0.7546  1.4605 -0.1002
 3276TIP3   OH231386   0.023   2.014   1.239  0.0712 -0.8380 -0.7485
 3276TIP3    H131387  -0.041   1.970   1.182 -1.5594  3.0042 -2.2282
 3276TIP3    H231388  -0.030   2.069   1.297  1.9170 -1.5534  1.8056
 3277TIP3   OH231389   2.304   0.042   1.223  0.2545 -0.3625  0.0383
 3277TIP3    H131390   2.249   0.119   1.208 -0.1455 -0.6566 -0.0415
 3277TIP3    H231391   2.302   0.030   1.318  2.0588  0.9722  0.2983
 3278TIP3   OH231392   1.123   1.989   0.799  0.2343 -0.1134  0.4429
 3278TIP3    H131393   1.114   1.934   0.721  1.5952  2.1130 -1.4486
 3278TIP3    H231394   1.099   2.077   0.769 -2.4256  0.3754  3.4464
 3279TIP3   OH231395   1.758   6.791   3.166  0.1780 -0.0080  0.2922
 3279TIP3    H131396   1.698   6.858   3.134  0.8388 -0.0620 -1.1495
 3279TIP3    H231397   1.724   6.767   3.252 -0.0601  2.2109  0.8921
 3280TIP3   OH231398   6.381   5.021   1.072 -0.8017 -0.6377 -0.1959
 3280TIP3    H131399   6.454   5.081   1.089 -1.2415  0.6562 -2.5066
 3280TIP3    H231400   6.420   4.934   1.077  0.7625  0.0075 -0.6909
 3281TIP3   OH231401   2.635   2.351   0.583 -0.0125  0.3664  0.4982
 3281TIP3    H131402   2.729   2.359   0.564 -0.1316  1.0500  0.1446
 3281TIP3    H231403   2.599   2.306   0.506 -0.2614  1.8254 -0.2875
 3282TIP3   OH231404   5.507   3.448   8.204  0.3332  0.7018  0.1057
 3282TIP3    H131405   5.492   3.532   8.248  0.0765  0.9967 -0.5299
 3282TIP3    H231406   5.433   3.394   8.229  0.4075  0.7273  0.3784
 3283TIP3   OH231407   2.089   5.732   2.030 -0.4419 -0.0259 -0.3729
 3283TIP3    H131408   2.017   5.673   2.052 -1.7372  1.4376 -0.5759
 3283TIP3    H231409   2.080   5.805   2.091  1.5899 -0.3320  0.3764
 3284TIP3   OH231410   0.920   1.768   0.433  0.0620 -0.0951  0.2374
 3284TIP3    H131411   0.877   1.694   0.388  2.3071 -0.8902 -0.7392
 3284TIP3    H231412   0.907   1.842   0.374 -0.9457 -0.0222  0.5236
 3285TIP3   OH231413   2.189   0.636   8.719 -0.5128  0.1141  0.6297
 3285TIP3    H131414   2.211   0.650   8.811  0.6298 -1.2364  0.6104
 3285TIP3    H231415   2.228   0.710   8.673 -0.4596  0.4176  1.1517
 3286TIP3   OH231416   4.152   3.232   2.249 -0.0703 -0.3537 -0.0660
 3286TIP3    H131417   4.138   3.302   2.185  1.9264 -0.0414 -0.2126
 3286TIP3    H231418   4.241   3.201   2.232 -1.1929 -3.6438 -0.6761
 3287TIP3   OH231419   2.794   6.622   0.884 -0.0019  0.4531 -0.2242
 3287TIP3    H131420   2.772   6.686   0.817  1.8564  2.0153  0.5550
 3287TIP3    H231421   2.889   6.625   0.889  0.1332 -2.1527  0.1123
 3288TIP3   OH231422   4.293   0.023   7.906  0.0599  0.1751 -0.4348
 3288TIP3    H131423   4.270  -0.065   7.937 -0.7464  0.6232  0.2968
 3288TIP3    H231424   4.246   0.082   7.966  0.1940  1.0952 -1.2197
 3289TIP3   OH231425   6.645   3.814   0.477 -0.5788 -0.1222 -0.5963
 3289TIP3    H131426   6.621   3.895   0.522  1.3934 -0.1386  0.5952
 3289TIP3    H231427   6.686   3.760   0.544  0.4671 -1.0452 -1.9097
 3290TIP3   OH231428   6.740   0.217   6.978  0.4704 -0.5015  0.0661
 3290TIP3    H131429   6.706   0.223   6.889  0.9446 -0.5697 -0.1229
 3290TIP3    H231430   6.727   0.125   7.002 -0.2080 -0.3527  0.2956
 3291TIP3   OH231431   1.386   2.875   8.626 -0.8132 -0.1226  0.1547
 3291TIP3    H131432   1.311   2.823   8.599 -0.0001 -1.0607 -0.3311
 3291TIP3    H231433   1.409   2.841   8.713  0.3466 -1.3067 -0.5875
 3292TIP3   OH231434   2.120   1.764   8.282  0.3523 -0.4284 -0.3464
 3292TIP3    H131435   2.054   1.771   8.213  0.1015  0.9859  0.0020
 3292TIP3    H231436   2.105   1.678   8.321 -1.9941  0.2380  0.3971
 3293TIP3   OH231437   1.854   3.439   7.750 -0.8120  0.3334  0.0967
 3293TIP3    H131438   1.887   3.511   7.696  0.3105 -0.2731 -0.0421
 3293TIP3    H231439   1.783   3.479   7.800 -0.6695  1.3684 -0.4766
 3294TIP3   OH231440   2.840   1.559   1.663 -0.1085  0.3442 -0.0715
 3294TIP3    H131441   2.764   1.530   1.613  0.5815 -0.3217 -0.7694
 3294TIP3    H231442   2.902   1.591   1.597  0.2894  0.7008  0.4641
 3295TIP3   OH231443   3.662   2.499   1.185  0.5312 -0.1019  0.3057
 3295TIP3    H131444   3.684   2.440   1.256 -0.1835 -1.3816 -0.4910
 3295TIP3    H231445   3.571   2.523   1.201  0.4432 -0.1971 -0.0501
 3296TIP3   OH231446   0.686   0.632   2.543 -0.4534  0.3204  0.1441
 3296TIP3    H131447   0.745   0.571   2.588  1.4120  0.1348 -2.2801
 3296TIP3    H231448   0.659   0.694   2.610  2.6831  0.4840  1.4281
 3297TIP3   OH231449   2.347   5.142   2.574  0.2676 -0.7949 -0.3788
 3297TIP3    H131450   2.432   5.108   2.547  1.4808  1.4453  0.4119
 3297TIP3    H231451   2.337   5.110   2.664  2.0202  1.7870  0.8505
 3298TIP3   OH231452   1.246   6.305   0.494 -0.1279  0.1086  0.1290
 3298TIP3    H131453   1.232   6.295   0.588  0.3370  0.3666  0.2269
 3298TIP3    H231454   1.325   6.253   0.475 -0.4152 -0.2239 -0.1802
 3299TIP3   OH231455   4.385   6.071   1.032  0.2909  0.0239  0.1175
 3299TIP3    H131456   4.289   6.079   1.030  0.2389 -0.6342 -0.7512
 3299TIP3    H231457   4.401   5.977   1.033  0.9228  0.0515  3.4215
 3300TIP3   OH231458   2.228   0.023   1.880  0.0306 -0.2520  0.4824
 3300TIP3    H131459   2.311   0.058   1.847  0.2998 -0.3025  1.0774
 3300TIP3    H231460   2.174   0.101   1.895  0.5330 -0.0918  1.5498
 3301TIP3   OH231461   1.069   1.281   8.428  0.7243 -0.5131 -0.0242
 3301TIP3    H131462   1.051   1.368   8.465  0.1020 -0.7920  0.3458
 3301TIP3    H231463   1.057   1.292   8.334  1.6207  0.0353 -0.0840
 3302TIP3   OH231464   3.653   3.848   1.580  0.8590 -0.2576  0.4819
 3302TIP3    H131465   3.632   3.865   1.489  1.9215  1.2547  0.4879
 3302TIP3    H231466   3.721   3.780   1.576  0.3041 -0.8163  0.2181
 3303TIP3   OH231467   3.327   4.039   8.396  0.8251  0.2128  0.2122
 3303TIP3    H131468   3.422   4.032   8.396  0.7139 -2.2524  0.0763
 3303TIP3    H231469   3.309   4.129   8.370  3.0997  0.6466 -0.0460
 3304TIP3   OH231470   3.133   5.377   7.998 -0.0722 -0.1173 -0.2175
 3304TIP3    H131471   3.176   5.461   7.981 -0.5257  0.1866  0.1045
 3304TIP3    H231472   3.117   5.376   8.092 -0.6153 -0.2922 -0.3032
 3305TIP3   OH231473   0.507   2.033   6.964  0.0355 -0.4143 -0.1874
 3305TIP3    H131474   0.573   1.976   7.003 -0.1425 -0.5302 -0.0577
 3305TIP3    H231475   0.536   2.044   6.873 -0.7793 -1.9950 -0.6645
 3306TIP3   OH231476   3.284   2.790   0.345  0.4229 -0.3837 -0.1056
 3306TIP3    H131477   3.324   2.792   0.257  1.9929 -1.0529  0.5470
 3306TIP3    H231478   3.252   2.700   0.354  0.9097 -0.5194  0.2743
 3307TIP3   OH231479   0.795   5.510   1.362  0.7322 -0.4247  0.1692
 3307TIP3    H131480   0.716   5.477   1.405  0.9171  1.5060  2.1203
 3307TIP3    H231481   0.768   5.526   1.272 -1.5572  1.5180  1.1130
 3308TIP3   OH231482   5.009   0.759   0.878  0.2706  0.5928 -0.1810
 3308TIP3    H131483   4.931   0.724   0.835 -0.6347  0.3089  1.5555
 3308TIP3    H231484   5.046   0.821   0.816 -0.9443  0.2070 -1.3358
 3309TIP3   OH231485   0.278   5.250   0.833  0.1767  0.7173  0.1213
 3309TIP3    H131486   0.271   5.292   0.747 -0.7988 -0.2224 -0.2756
 3309TIP3    H231487   0.372   5.236   0.844  0.3445  1.1762 -0.6281
 3310TIP3   OH231488   3.748   6.300   2.740 -0.0741  0.1403 -0.9247
 3310TIP3    H131489   3.724   6.393   2.747 -1.2132 -0.0471 -1.8788
 3310TIP3    H231490   3.716   6.274   2.653  1.1344 -0.8939 -1.0834
 3311TIP3   OH231491   6.710   4.686   0.267 -0.2827 -0.5212 -0.0421
 3311TIP3    H131492   6.647   4.709   0.199  0.8411 -0.4398 -1.1022
 3311TIP3    H231493   6.671   4.718   0.349 -1.7992 -0.8824 -0.5947
 3312TIP3   OH231494   6.049   2.578   1.290 -0.2872 -0.6912  0.7825
 3312TIP3    H131495   6.066   2.503   1.232 -0.7091 -0.6503  0.6036
 3312TIP3    H231496   6.006   2.540   1.366 -0.3003 -0.6592  0.7909
 3313TIP3   OH231497   4.438   3.517   8.167 -0.1944  0.3438 -0.1001
 3313TIP3    H131498   4.400   3.578   8.231 -2.0524 -0.5504 -0.2849
 3313TIP3    H231499   4.507   3.567   8.124 -0.0025  1.4928  1.4666
 3314TIP3   OH231500   4.126   6.621   0.510  0.1178 -0.5066 -0.1459
 3314TIP3    H131501   4.113   6.546   0.568  1.8084 -0.7979 -0.0917
 3314TIP3    H231502   4.156   6.691   0.568 -2.9106  0.7589  0.0545
 3315TIP3   OH231503   3.631   1.116   1.835 -0.4431  0.1903 -0.6391
 3315TIP3    H131504   3.563   1.173   1.799  0.1411  0.1272 -1.9140
 3315TIP3    H231505   3.707   1.174   1.845 -0.4486  0.0848  0.0033
 3316TIP3   OH231506   2.404   1.468   8.075  0.3461  0.4214 -0.1884
 3316TIP3    H131507   2.314   1.469   8.108 -0.2667 -0.7872 -1.7143
 3316TIP3    H231508   2.411   1.547   8.021  0.5086  0.9752  0.6142
 3317TIP3   OH231509   5.172   4.112   8.695  0.1815  0.1979  0.0865
 3317TIP3    H131510   5.228   4.185   8.719  0.6921 -0.0404 -0.3610
 3317TIP3    H231511   5.083   4.144   8.709  0.3854  1.0496 -0.5298
 3318TIP3   OH231512   5.218   3.261   1.956 -0.0923 -0.2775 -0.4879
 3318TIP3    H131513   5.224   3.259   2.052 -0.2890 -2.0092 -0.4791
 3318TIP3    H231514   5.154   3.193   1.935 -1.0570  0.9683 -1.8059
 3319TIP3   OH231515   5.395   3.646   1.457  0.3848 -0.0967  0.4849
 3319TIP3    H131516   5.389   3.552   1.475  2.5041 -0.1874  0.9841
 3319TIP3    H231517   5.397   3.687   1.544 -0.1725  0.4096  0.2723
 3320TIP3   OH231518   1.921   5.149   2.654  0.3696  0.6874 -0.1777
 3320TIP3    H131519   1.891   5.217   2.714 -1.4606  0.5594 -0.8609
 3320TIP3    H231520   1.948   5.077   2.712 -1.7075  0.4178  0.5614
 3321TIP3   OH231521   3.585   2.981   7.800 -0.3713  0.1666 -0.0675
 3321TIP3    H131522   3.491   2.974   7.817 -0.0149  0.2841  2.2452
 3321TIP3    H231523   3.623   2.906   7.846  0.7026  0.3133 -0.6922
 3322TIP3   OH231524   3.562   2.727   8.355 -0.0197  0.7299 -0.6569
 3322TIP3    H131525   3.615   2.807   8.360  0.0378  0.6659 -0.1888
 3322TIP3    H231526   3.566   2.701   8.263  0.5134  0.8978 -0.6835
 3323TIP3   OH231527   4.688   0.784   0.478 -0.5632 -0.6778  0.3139
 3323TIP3    H131528   4.703   0.693   0.507 -1.6454 -1.0543 -0.2314
 3323TIP3    H231529   4.596   0.784   0.450  0.8213 -0.9532 -5.2654
 3324TIP3   OH231530   2.307   2.219   1.394 -0.2124 -0.7498 -0.3338
 3324TIP3    H131531   2.272   2.136   1.362  0.0942 -0.5548 -1.2087
 3324TIP3    H231532   2.325   2.203   1.486 -0.6058 -1.5083 -0.3790
 3325TIP3   OH231533   0.068   4.958   6.872  0.2325 -0.2429 -0.0487
 3325TIP3    H131534   0.024   5.030   6.917  3.1196  1.6499  0.0376
 3325TIP3    H231535   0.090   4.995   6.786 -0.2800 -1.9038 -0.9456
 3326TIP3   OH231536   6.041   1.231   1.480  0.1338 -0.1103 -0.3422
 3326TIP3    H131537   5.984   1.156   1.461  0.5015 -0.5962  0.4389
 3326TIP3    H231538   6.019   1.255   1.571  0.7382  0.0832 -0.2437
 3327TIP3   OH231539   2.279   6.514   8.551 -0.1310  0.4812 -0.1291
 3327TIP3    H131540   2.359   6.464   8.532 -0.3339 -0.0429  0.3551
 3327TIP3    H231541   2.211   6.448   8.559 -0.2035  0.6991  1.6341
 3328TIP3   OH231542   0.113   3.416   8.216  0.1814 -0.1021 -0.6321
 3328TIP3    H131543   0.192   3.447   8.261  0.4015  0.9405 -1.6840
 3328TIP3    H231544   0.140   3.333   8.176  1.5634  1.3479 -2.9802
 3329TIP3   OH231545   4.684   3.010   0.970 -0.1176 -0.1807  0.2002
 3329TIP3    H131546   4.617   3.052   1.024 -0.1473 -2.1559  1.8425
 3329TIP3    H231547   4.639   2.987   0.888 -0.7824  0.5866  0.3475
 3330TIP3   OH231548   2.951   2.903   0.185  0.3355  0.4418  0.0014
 3330TIP3    H131549   2.987   2.825   0.142 -0.6757  0.6711 -1.2923
 3330TIP3    H231550   2.857   2.888   0.187  0.1781  1.4129  0.1984
 3331TIP3   OH231551   6.503   4.164   1.788  0.1789  0.0112 -0.1636
 3331TIP3    H131552   6.494   4.237   1.727  1.1067 -0.1343 -0.4934
 3331TIP3    H231553   6.416   4.154   1.827  0.6582  3.2590  2.1524
 3332TIP3   OH231554   2.806   4.811   8.316 -0.2157  0.5464  0.5501
 3332TIP3    H131555   2.752   4.878   8.358  0.7587  2.1211 -0.5758
 3332TIP3    H231556   2.812   4.839   8.224  0.4066 -0.9804  0.0942
 3333TIP3   OH231557   2.833   5.607   0.554  0.1183 -0.6458  0.0131
 3333TIP3    H131558   2.846   5.530   0.498  0.2055  0.0475 -0.9371
 3333TIP3    H231559   2.791   5.572   0.633  0.1537 -1.6664 -0.3994
 3334TIP3   OH231560   1.181   1.205   1.554  0.3093  0.3707  1.1864
 3334TIP3    H131561   1.236   1.165   1.621  1.2093  0.8241  0.7382
 3334TIP3    H231562   1.107   1.242   1.602  0.3423 -0.3283  1.7853
 3335TIP3   OH231563   3.097   1.169   8.134  0.0725 -0.2728  0.2638
 3335TIP3    H131564   3.125   1.164   8.225  0.5787  2.9426  0.4007
 3335TIP3    H231565   3.153   1.106   8.088  1.3825 -0.3198  1.8453
 3336TIP3   OH231566   6.351   0.007   0.598  0.3722  0.3709  0.2038
 3336TIP3    H131567   6.312  -0.043   0.526 -0.5863 -0.7776  1.4613
 3336TIP3    H231568   6.393  -0.060   0.652 -0.3511  0.9965  1.5828
 3337TIP3   OH231569   5.583   5.935   1.154 -0.2417 -0.0439  0.2171
 3337TIP3    H131570   5.643   6.009   1.141  0.2103 -0.6800 -1.6436
 3337TIP3    H231571   5.641   5.862   1.175 -0.0816 -1.0415 -3.1708
 3338TIP3   OH231572   5.365   4.612   1.996  0.3744 -0.8159 -0.1710
 3338TIP3    H131573   5.349   4.579   1.908 -0.7357 -0.3991 -0.1409
 3338TIP3    H231574   5.331   4.544   2.054 -0.1249 -0.4916 -0.0828
 3339TIP3   OH231575   0.738   4.450   7.837 -0.3348  0.0926 -0.2548
 3339TIP3    H131576   0.711   4.522   7.780 -0.5699 -0.5947 -1.0345
 3339TIP3    H231577   0.761   4.379   7.777 -0.0630 -0.4680  0.4956
 3340TIP3   OH231578   4.386   1.495   8.461 -0.4344  0.2276  0.0067
 3340TIP3    H131579   4.420   1.421   8.512  0.3641  0.9782  0.5920
 3340TIP3    H231580   4.393   1.466   8.370  1.1087  0.0474  0.1475
 3341TIP3   OH231581   5.313   6.342   7.052 -0.1286 -0.4267  0.0171
 3341TIP3    H131582   5.375   6.399   7.007  0.4241 -1.9419 -1.2123
 3341TIP3    H231583   5.255   6.310   6.983  0.3603 -2.3265  0.4283
 3342TIP3   OH231584   3.342   0.095   0.661  0.4032 -0.2869  0.2562
 3342TIP3    H131585   3.305   0.133   0.582  0.1916 -0.1028  0.4458
 3342TIP3    H231586   3.298   0.140   0.733  1.1232  0.0665  0.4824
 3343TIP3   OH231587   4.702   0.566   7.632 -0.7460  0.9326 -0.0891
 3343TIP3    H131588   4.628   0.626   7.639  0.2941  2.3655 -0.8974
 3343TIP3    H231589   4.768   0.601   7.692 -0.3412  0.2566 -0.1188
 3344TIP3   OH231590   2.412   5.161   1.765  0.1070 -0.9322  0.2168
 3344TIP3    H131591   2.329   5.118   1.745 -0.3744 -0.4347  1.0997
 3344TIP3    H231592   2.445   5.114   1.841  0.9055 -1.4619 -0.4324
 3345TIP3   OH231593   4.765   3.213   1.551  0.2853 -0.3246 -0.0820
 3345TIP3    H131594   4.845   3.244   1.594  1.0513 -0.5127 -1.3222
 3345TIP3    H231595   4.747   3.278   1.483 -0.6968 -0.2215  0.2628
 3346TIP3   OH231596   2.145   0.642   8.156  0.0142 -0.6881  0.0367
 3346TIP3    H131597   2.165   0.660   8.064  0.2099  0.8893  0.3706
 3346TIP3    H231598   2.194   0.562   8.176  0.1144 -0.9441 -1.1691
 3347TIP3   OH231599   0.725   6.466   8.609 -0.3225 -0.6006  0.2964
 3347TIP3    H131600   0.713   6.549   8.564 -1.6586 -0.7796  0.2950
 3347TIP3    H231601   0.772   6.488   8.690  0.3445 -0.0151 -0.2438
 3348TIP3   OH231602   0.616   1.723   0.263  0.2167 -0.1174 -0.6335
 3348TIP3    H131603   0.643   1.811   0.236 -1.1330  0.1931 -1.0653
 3348TIP3    H231604   0.592   1.732   0.355  0.5062 -0.1413 -0.5545
 3349TIP3   OH231605   2.538   5.021   1.945  0.0452  0.2649  0.5750
 3349TIP3    H131606   2.561   4.973   1.865 -0.9801 -1.6362  1.3646
 3349TIP3    H231607   2.621   5.052   1.979  0.7104 -0.6986 -0.1289
 3350TIP3   OH231608   0.357   5.089   1.130  0.1770  0.2369  0.5885
 3350TIP3    H131609   0.364   5.017   1.067  0.2825  0.2120  0.6279
 3350TIP3    H231610   0.448   5.110   1.152  0.1516  0.4903  0.4541
 3351TIP3   OH231611   4.462   5.171   8.544 -0.6784  0.1340  0.1229
 3351TIP3    H131612   4.404   5.151   8.470  1.0606  0.1598 -1.3289
 3351TIP3    H231613   4.457   5.094   8.600 -2.8855  0.5736  0.5989
 3352TIP3   OH231614   0.141   5.994   0.456 -0.1476 -0.2425 -0.7216
 3352TIP3    H131615   0.167   5.910   0.419 -0.1339 -0.6823  0.2508
 3352TIP3    H231616   0.196   6.004   0.534 -0.9385  0.1301 -0.1939
 3353TIP3   OH231617   1.081   6.037   2.074  0.2474 -0.2589  0.4033
 3353TIP3    H131618   1.000   6.075   2.040  0.5566  1.7409  1.6997
 3353TIP3    H231619   1.140   6.112   2.084  2.7518 -1.7860 -1.6227
 3354TIP3   OH231620   4.755   5.557   0.691 -0.2608 -0.1164 -0.3334
 3354TIP3    H131621   4.833   5.519   0.651  0.4563  0.6992  0.2377
 3354TIP3    H231622   4.714   5.607   0.621 -0.2503 -0.5053 -0.6227
 3355TIP3   OH231623   3.843   1.860   7.850  0.4292 -0.3705  0.8289
 3355TIP3    H131624   3.808   1.832   7.935  0.9164 -1.8039  0.5915
 3355TIP3    H231625   3.777   1.920   7.815  0.2308  0.2634  2.2204
 3356TIP3   OH231626   1.180   4.044   0.711  0.3211  0.4518 -0.2149
 3356TIP3    H131627   1.161   4.088   0.629 -0.3099 -0.5612 -0.6319
 3356TIP3    H231628   1.269   4.072   0.734  0.3138  1.1172 -0.9896
 3357TIP3   OH231629   5.930   6.791   2.549 -0.2416 -0.2799 -0.0064
 3357TIP3    H131630   5.925   6.808   2.643 -0.2819 -0.4022  0.0136
 3357TIP3    H231631   6.004   6.844   2.520 -0.9896  0.7166 -0.1293
 3358TIP3   OH231632   4.778   5.807   2.738 -0.3404 -0.0330 -0.1128
 3358TIP3    H131633   4.699   5.780   2.785  2.6504 -2.5362  4.1507
 3358TIP3    H231634   4.805   5.730   2.690 -0.4303  0.8316 -1.6155
 3359TIP3   OH231635   6.694   6.244   1.880 -0.0885  0.2699  0.3905
 3359TIP3    H131636   6.691   6.175   1.946 -0.6869 -0.0264  0.0600
 3359TIP3    H231637   6.625   6.222   1.819  2.3199 -1.1668 -2.0492
 3360TIP3   OH231638   4.115   2.924   8.120  0.0974 -0.0308 -0.1448
 3360TIP3    H131639   4.066   3.007   8.114  2.0068  1.2715  1.1731
 3360TIP3    H231640   4.055   2.864   8.165 -0.6592  1.2219  0.5698
 3361TIP3   OH231641   0.791   5.446   1.984 -0.1711  0.0022  0.0065
 3361TIP3    H131642   0.718   5.506   1.965 -0.6489 -0.4252  0.4484
 3361TIP3    H231643   0.845   5.448   1.906  0.3876  1.8143  0.3987
 3362TIP3   OH231644   2.119   1.681   2.440 -0.2443 -0.1543  0.0532
 3362TIP3    H131645   2.063   1.725   2.504 -1.0662  0.0069 -0.7532
 3362TIP3    H231646   2.207   1.714   2.459 -0.6883  1.0680  0.1309
 3363TIP3   OH231647   0.899   1.991   8.455  1.0732 -0.2821  0.6315
 3363TIP3    H131648   0.820   1.937   8.458 -0.1181  1.0839 -2.2334
 3363TIP3    H231649   0.879   2.067   8.511 -0.0165  0.4292 -0.6745
 3364TIP3   OH231650   0.815   3.367   7.383  0.1760 -0.1304  0.2632
 3364TIP3    H131651   0.779   3.455   7.386  1.1818  0.2993 -0.0779
 3364TIP3    H231652   0.742   3.312   7.352 -0.0808  0.7736 -0.7658
 3365TIP3   OH231653   4.121   4.144   1.516 -0.6650  0.5351 -0.2574
 3365TIP3    H131654   4.106   4.102   1.601 -0.3021  0.6864 -0.1145
 3365TIP3    H231655   4.168   4.225   1.538 -0.5669  0.5718 -0.6048
 3366TIP3   OH231656   0.977   0.382   7.938 -0.4348  0.2337  0.0068
 3366TIP3    H131657   1.043   0.316   7.915 -1.7723 -1.2046  0.0519
 3366TIP3    H231658   0.998   0.407   8.027  2.0772  2.4340 -1.0817
 3367TIP3   OH231659   3.101   3.366   2.238  0.0397  0.0892  0.5536
 3367TIP3    H131660   3.076   3.441   2.185 -1.2649 -0.4369  0.3969
 3367TIP3    H231661   3.108   3.294   2.175 -1.1020 -0.4450  1.0149
 3368TIP3   OH231662   0.182   2.136   2.260 -0.8216 -0.1789 -0.0696
 3368TIP3    H131663   0.091   2.136   2.233 -0.5832 -1.5050 -0.9903
 3368TIP3    H231664   0.198   2.048   2.293  0.5199 -0.5171 -1.4574
 3369TIP3   OH231665   2.993   5.411   2.658 -0.0296 -0.0178  0.1546
 3369TIP3    H131666   2.952   5.446   2.738 -0.4509  0.4347 -0.2575
 3369TIP3    H231667   2.920   5.396   2.598  0.3931  0.8236 -0.5962
 3370TIP3   OH231668   6.290   3.229   0.057  0.5897  0.4909 -0.3094
 3370TIP3    H131669   6.306   3.247  -0.036  1.0119  1.8473  0.0105
 3370TIP3    H231670   6.372   3.250   0.100 -0.1490  1.6043  0.5966
 3371TIP3   OH231671   5.991   6.104   2.013  0.1857  0.3455  0.1250
 3371TIP3    H131672   5.898   6.098   1.991  0.8116  0.9614 -3.2235
 3371TIP3    H231673   5.993   6.147   2.098 -2.5728 -0.0314  0.4730
 3372TIP3   OH231674   4.238   2.066   7.198 -0.2359 -0.2080  0.1638
 3372TIP3    H131675   4.223   2.140   7.139 -1.7474 -1.1162 -0.6357
 3372TIP3    H231676   4.309   2.096   7.255 -0.6234  1.7564 -0.2931
 3373TIP3   OH231677   6.654   2.951   1.129  0.6124  0.1175  0.5129
 3373TIP3    H131678   6.589   2.886   1.100  1.1179 -0.3796  0.4850
 3373TIP3    H231679   6.688   2.916   1.211  0.7183  0.4685  0.6211
 3374TIP3   OH231680   1.908   0.114   0.247  0.0384 -0.2475 -0.1142
 3374TIP3    H131681   1.899   0.020   0.260  0.2255 -0.2713 -0.1461
 3374TIP3    H231682   1.983   0.139   0.301 -1.4550  0.3083  1.8083
 3375TIP3   OH231683   5.918   2.690   2.852 -0.6354  0.4028  0.0446
 3375TIP3    H131684   5.904   2.742   2.931 -0.6369  0.1258  0.2314
 3375TIP3    H231685   5.867   2.734   2.784  0.0651  1.1433 -0.0144
 3376TIP3   OH231686   4.175   2.085   7.620 -0.0173  0.7017  0.7607
 3376TIP3    H131687   4.131   2.041   7.548  0.6881  0.7940  0.2636
 3376TIP3    H231688   4.212   2.015   7.673  1.1966  0.6716 -0.0885
 3377TIP3   OH231689   2.368   1.340   2.015 -0.0130  0.3442 -0.5440
 3377TIP3    H131690   2.437   1.326   1.950 -0.9635  1.8435 -1.9728
 3377TIP3    H231691   2.369   1.434   2.030 -1.3608  0.3124 -0.1511
 3378TIP3   OH231692   4.109   0.837   0.425  0.0523  0.2610 -0.1187
 3378TIP3    H131693   4.185   0.873   0.471 -0.9267  0.6004  1.2901
 3378TIP3    H231694   4.043   0.826   0.493 -1.5835  1.1316 -1.5138
 3379TIP3   OH231695   3.724   2.971   7.575 -0.3596 -0.3205 -0.1468
 3379TIP3    H131696   3.698   3.000   7.663  0.4760  2.0949 -0.6315
 3379TIP3    H231697   3.673   3.026   7.516  2.2705  1.2522 -1.1117
 3380TIP3   OH231698   6.032   6.344   0.316 -0.1558  0.2236 -0.4414
 3380TIP3    H131699   6.104   6.281   0.317 -0.2732  0.0870 -0.6137
 3380TIP3    H231700   5.958   6.296   0.280 -0.2725  0.4310 -0.4815
 3381TIP3   OH231701   6.529   5.524   8.297 -0.5487  0.0614 -0.4915
 3381TIP3    H131702   6.447   5.475   8.285 -0.7169 -0.4456  2.0558
 3381TIP3    H231703   6.507   5.591   8.362  1.3148 -0.9479  1.2988
 3382TIP3   OH231704   6.065   6.490   2.322 -0.2824  0.2419  0.3912
 3382TIP3    H131705   6.153   6.478   2.357 -0.3826 -0.6503  0.3383
 3382TIP3    H231706   6.071   6.573   2.274  1.5738 -1.5183 -2.7627
 3383TIP3   OH231707   0.757   3.647   7.376  0.1483  0.2016 -0.5120
 3383TIP3    H131708   0.666   3.678   7.377  0.1378  0.3128  2.3173
 3383TIP3    H231709   0.795   3.689   7.299 -1.4905  2.4068 -0.2285
 3384TIP3   OH231710   6.728   5.648   2.431  0.2408  0.2616 -0.3916
 3384TIP3    H131711   6.771   5.606   2.506  2.8383  1.4697 -1.1033
 3384TIP3    H231712   6.642   5.673   2.465  0.6006 -0.9445  1.5966
 3385TIP3   OH231713   4.573   3.810   2.573  0.4146  0.2401  0.5371
 3385TIP3    H131714   4.656   3.765   2.555  0.5767 -0.3206  2.4648
 3385TIP3    H231715   4.506   3.751   2.537  0.8085  0.5698 -0.7950
 3386TIP3   OH231716   3.856   3.172   8.399  0.1672  0.0270 -0.1587
 3386TIP3    H131717   3.862   3.252   8.347  1.7455 -0.2691 -0.4950
 3386TIP3    H231718   3.947   3.144   8.410 -0.3455 -1.8621 -0.2769
 3387TIP3   OH231719   4.624   1.761   1.582  0.0111 -0.0878  0.0185
 3387TIP3    H131720   4.620   1.832   1.645 -1.3852 -0.9673  0.9916
 3387TIP3    H231721   4.707   1.774   1.535  1.8519 -0.2059  2.9923
 3388TIP3   OH231722   2.596   0.739   8.751  0.6509 -0.1206  0.2507
 3388TIP3    H131723   2.581   0.657   8.798  1.1444  0.1773  0.9618
 3388TIP3    H231724   2.666   0.720   8.689  0.3035 -0.4050 -0.0561
 3389TIP3   OH231725   0.870   3.596   7.023 -0.1293  0.8696  0.0130
 3389TIP3    H131726   0.903   3.506   7.030 -0.1969  0.5703 -2.6182
 3389TIP3    H231727   0.778   3.586   7.003 -0.3502  1.5796  0.6336
 3390TIP3   OH231728   4.596   3.197   1.223  0.5961  0.2981 -0.0495
 3390TIP3    H131729   4.629   3.284   1.243  1.0222 -0.0701  0.9365
 3390TIP3    H231730   4.649   3.138   1.277 -0.9761 -0.4110  0.7826
 3391TIP3   OH231731   4.863   3.639   1.297  0.3268  0.1999 -0.2978
 3391TIP3    H131732   4.847   3.725   1.336 -0.5062 -0.5524  1.0953
 3391TIP3    H231733   4.958   3.627   1.305  0.5877  1.3383 -1.3301
 3392TIP3   OH231734   3.773   4.046   7.616 -0.2409 -0.1876 -0.4431
 3392TIP3    H131735   3.716   4.114   7.654  0.4468 -0.6898  1.6278
 3392TIP3    H231736   3.718   4.002   7.551 -1.3795  0.9807 -0.3136
 3393TIP3   OH231737   4.350   4.194   0.040 -0.0916 -0.2450  0.2682
 3393TIP3    H131738   4.441   4.192   0.070 -0.1706  0.7325  0.5947
 3393TIP3    H231739   4.349   4.259  -0.030 -0.4645 -0.5611 -0.0294
 3394TIP3   OH231740   0.762   0.938   8.341  0.2252  0.9514  0.0589
 3394TIP3    H131741   0.786   0.861   8.289 -1.1029  0.3481  0.3161
 3394TIP3    H231742   0.845   0.985   8.353  1.2883 -0.9867  0.8241
 3395TIP3   OH231743   3.663   3.215   0.768  0.2942  0.0290  0.6660
 3395TIP3    H131744   3.707   3.236   0.850 -2.1381  0.5680  1.9075
 3395TIP3    H231745   3.587   3.164   0.794 -0.2531 -0.2377 -1.3199
 3396TIP3   OH231746   1.671   5.734   2.512 -0.1175 -0.0358 -0.1458
 3396TIP3    H131747   1.623   5.654   2.535 -0.3581  0.2427  0.3478
 3396TIP3    H231748   1.605   5.792   2.474 -0.3257  0.5892  1.1151
 3397TIP3   OH231749   0.773   5.269   7.604  0.1347  0.1117 -0.2885
 3397TIP3    H131750   0.793   5.179   7.628 -1.1147 -0.4177 -1.1411
 3397TIP3    H231751   0.754   5.265   7.510  0.6593  1.3752 -0.4697
 3398TIP3   OH231752   0.762   3.190   0.702 -0.0517 -0.5383  0.0471
 3398TIP3    H131753   0.795   3.240   0.628  1.6200 -0.6819  0.6670
 3398TIP3    H231754   0.768   3.249   0.777  0.1788 -1.0469  0.4382
 3399TIP3   OH231755   4.635   3.688   8.334 -0.8282 -0.2554 -0.2094
 3399TIP3    H131756   4.602   3.633   8.404 -0.8873 -0.8171 -0.6739
 3399TIP3    H231757   4.622   3.637   8.254  2.0545 -0.9514 -0.3489
 3400TIP3   OH231758   6.531   4.835   8.093 -0.1916  0.0308 -0.3781
 3400TIP3    H131759   6.535   4.739   8.095 -1.0311 -0.0224 -0.9827
 3400TIP3    H231760   6.519   4.857   8.001 -2.7238  0.5846  0.0195
 3401TIP3   OH231761   5.009   4.033   1.590 -0.1948 -0.0432 -0.4200
 3401TIP3    H131762   5.007   4.116   1.542 -1.4813 -0.2265 -0.7082
 3401TIP3    H231763   5.064   3.976   1.536  1.0193  0.7129 -0.0257
 3402TIP3   OH231764   1.638   2.826   8.186 -0.2741 -0.0120  0.1108
 3402TIP3    H131765   1.669   2.737   8.202 -0.3998  0.0346  0.6189
 3402TIP3    H231766   1.718   2.877   8.172 -0.1904 -0.1503  0.0869
 3403TIP3   OH231767   3.756   6.043   8.590  0.6624  0.5347 -0.0545
 3403TIP3    H131768   3.835   6.048   8.643  0.6380 -2.0762  0.3478
 3403TIP3    H231769   3.753   6.126   8.543  3.3218  0.9220  0.3389
 3404TIP3   OH231770   6.676   1.214   2.119  0.1478 -0.4088  0.2574
 3404TIP3    H131771   6.664   1.282   2.187  1.0285 -0.0933  0.1035
 3404TIP3    H231772   6.770   1.197   2.118  0.4582  0.9508 -2.1625
 3405TIP3   OH231773   3.699   1.392   0.349 -0.4096  0.2227  0.3782
 3405TIP3    H131774   3.657   1.426   0.428  0.7120  1.4290  0.5009
 3405TIP3    H231775   3.752   1.465   0.317 -1.1190 -0.1288 -1.7152
 3406TIP3   OH231776   6.773   4.280   2.282 -0.3364  0.1683 -0.2776
 3406TIP3    H131777   6.762   4.190   2.251  2.6063  0.2065 -1.8303
 3406TIP3    H231778   6.838   4.273   2.353 -0.8102  0.9802  0.2560
 3407TIP3   OH231779   3.453   3.263   1.174 -0.3516 -0.1088  0.1332
 3407TIP3    H131780   3.497   3.186   1.138  0.4232  1.2382 -1.9576
 3407TIP3    H231781   3.390   3.289   1.107 -2.0000 -0.0157  1.6513
 3408TIP3   OH231782   0.630   2.420   0.777  0.1678  0.3032 -0.2520
 3408TIP3    H131783   0.675   2.425   0.861  0.5018  2.5315 -0.5013
 3408TIP3    H231784   0.696   2.448   0.713 -0.1717 -1.0560 -1.2445
 3409TIP3   OH231785   2.329   5.581   2.055 -0.2594 -0.0651  0.4059
 3409TIP3    H131786   2.245   5.625   2.049  0.3672  1.6660  2.8163
 3409TIP3    H231787   2.337   5.532   1.973 -2.3363  1.9796 -1.1334
 3410TIP3   OH231788   1.054   6.624   0.189  0.0064 -0.1665  0.2460
 3410TIP3    H131789   1.126   6.569   0.220  1.8546  0.8449 -1.9478
 3410TIP3    H231790   1.073   6.710   0.227 -0.0412  0.0889 -0.2943
 3411TIP3   OH231791   4.279   4.993   7.464  0.3375  0.6019 -0.9060
 3411TIP3    H131792   4.285   5.030   7.376 -1.6683 -0.1025 -1.4045
 3411TIP3    H231793   4.317   4.906   7.456 -2.5025 -0.6628 -1.9317
 3412TIP3   OH231794   3.736   0.745   0.347  0.0543  0.2645 -0.4301
 3412TIP3    H131795   3.746   0.777   0.257  0.1760 -1.0293 -0.8940
 3412TIP3    H231796   3.652   0.699   0.348  1.6941 -3.0521 -0.9857
 3413TIP3   OH231797   4.656   3.767   7.074 -0.3491 -1.0077 -1.2000
 3413TIP3    H131798   4.692   3.842   7.027  0.1312  0.1379  0.8517
 3413TIP3    H231799   4.562   3.771   7.058 -0.5352  0.9516 -0.0078
 3414TIP3   OH231800   0.394   4.476   2.271 -0.6028  0.0449  0.1219
 3414TIP3    H131801   0.408   4.381   2.262  0.0641  0.2057 -0.6303
 3414TIP3    H231802   0.383   4.489   2.365 -2.2052 -0.9760  0.1144
 3415TIP3   OH231803   2.207   1.135   2.067 -0.0395 -0.6213 -0.0082
 3415TIP3    H131804   2.272   1.198   2.037  0.1364 -0.3835  0.8415
 3415TIP3    H231805   2.123   1.182   2.059  0.0229 -0.5028  0.0269
 3416TIP3   OH231806   5.891   5.203   7.148  0.1484  0.4190 -0.5897
 3416TIP3    H131807   5.971   5.212   7.095  0.0303 -2.4005 -1.4360
 3416TIP3    H231808   5.829   5.264   7.109  1.1655  0.9463 -1.4318
 3417TIP3   OH231809   0.173   2.924   1.444  0.0099  0.0673  0.0806
 3417TIP3    H131810   0.120   2.972   1.380 -1.3581 -2.2002 -0.6056
 3417TIP3    H231811   0.111   2.869   1.491  1.5745 -1.7861  0.1087
 3418TIP3   OH231812   3.150   1.198   8.420 -0.2309 -0.8052  0.3967
 3418TIP3    H131813   3.138   1.284   8.459 -0.6427 -0.8556  0.3840
 3418TIP3    H231814   3.169   1.140   8.494  2.0229 -0.3717  0.2426
 3419TIP3   OH231815   5.614   5.844   7.319  0.0718  0.1423 -0.8652
 3419TIP3    H131816   5.663   5.883   7.247  0.9108  2.9278  1.0554
 3419TIP3    H231817   5.562   5.916   7.354 -2.5307 -1.8071 -0.3781
 3420TIP3   OH231818   0.837   0.539   0.248 -0.4572 -0.4286 -0.3238
 3420TIP3    H131819   0.786   0.522   0.168 -1.2277  0.1463  0.0318
 3420TIP3    H231820   0.860   0.631   0.242 -1.0477 -0.2292  0.4067
 3421TIP3   OH231821   3.906   0.601   1.544 -0.3139  0.1277  0.1488
 3421TIP3    H131822   3.899   0.597   1.448  0.3727 -0.3598  0.1081
 3421TIP3    H231823   3.853   0.527   1.574  0.1949 -0.2578  0.1016
 3422TIP3   OH231824   2.902   6.176   8.486  0.4179 -0.0550  0.0138
 3422TIP3    H131825   2.849   6.180   8.566  0.8963  0.6384  0.3133
 3422TIP3    H231826   2.909   6.083   8.466 -0.3452 -0.1879  0.3530
 3423TIP3   OH231827   5.948   6.099   0.071  0.2765 -0.0268 -0.3793
 3423TIP3    H131828   5.883   6.150   0.023  1.7439  3.9263  1.3699
 3423TIP3    H231829   6.021   6.089   0.010  1.7925  4.2425  0.3055
 3424TIP3   OH231830   6.387   3.062   7.596  0.5711  0.3149 -0.2504
 3424TIP3    H131831   6.329   3.062   7.520  0.3220  1.9577 -0.1018
 3424TIP3    H231832   6.341   3.113   7.662  1.4658  0.2291  0.4617
 3425TIP3   OH231833   0.851   5.903   1.395  0.1918  0.0575 -0.7950
 3425TIP3    H131834   0.884   5.820   1.430  0.3620  0.4523  0.0069
 3425TIP3    H231835   0.929   5.953   1.373  0.1035  0.3101 -0.5384
 3426TIP3   OH231836   0.247   5.723   7.368  0.0585 -0.0841  0.1095
 3426TIP3    H131837   0.217   5.799   7.319 -2.2834 -0.9723  0.0493
 3426TIP3    H231838   0.227   5.649   7.312 -0.0886 -0.9157  1.2176
 3427TIP3   OH231839   5.086   2.041   0.620 -0.7755  0.4616  0.2799
 3427TIP3    H131840   5.151   2.027   0.550  0.2817 -1.2216  1.5030
 3427TIP3    H231841   5.073   2.135   0.623  0.3732  0.7012 -1.1126
 3428TIP3   OH231842   0.008   3.697   7.265  0.0122 -0.3850  0.4185
 3428TIP3    H131843  -0.014   3.728   7.177  2.2519  1.5644  0.4267
 3428TIP3    H231844   0.005   3.775   7.320  0.6979 -1.1648  1.6235
 3429TIP3   OH231845   0.631   2.463   8.797  0.7393 -0.6813 -0.6516
 3429TIP3    H131846   0.652   2.555   8.781 -3.3318  0.2834 -1.4800
 3429TIP3    H231847   0.662   2.447   8.886 -1.9662  2.8388  1.1657
 3430TIP3   OH231848   5.818   6.456   8.645  0.0545 -0.4578 -0.4174
 3430TIP3    H131849   5.790   6.371   8.678 -0.1144  0.0074  0.6913
 3430TIP3    H231850   5.899   6.475   8.693 -0.5150  0.4973  0.2083
 3431TIP3   OH231851   4.923   2.106   1.106 -0.3350 -0.3459 -0.4325
 3431TIP3    H131852   4.914   2.191   1.063 -1.1358 -0.7244 -1.0421
 3431TIP3    H231853   4.966   2.050   1.040 -1.7012 -0.9680 -0.8372
 3432TIP3   OH231854   0.950   1.503   1.423 -0.2619  0.2117 -0.1451
 3432TIP3    H131855   0.936   1.487   1.517  1.0027 -0.2550 -0.0109
 3432TIP3    H231856   0.954   1.415   1.385 -1.1684  0.4063 -0.7187
 3433TIP3   OH231857   0.299   5.601   2.079  0.0904 -0.2439  0.6096
 3433TIP3    H131858   0.210   5.607   2.114 -1.5406 -0.1257 -3.1242
 3433TIP3    H231859   0.309   5.680   2.027  2.7170  0.0664  1.4530
 3434TIP3   OH231860   4.173   0.560   0.299  0.1676 -0.2125  0.3478
 3434TIP3    H131861   4.206   0.470   0.295 -0.2371 -0.4554  1.7158
 3434TIP3    H231862   4.171   0.580   0.393 -1.2078  0.6711  0.1537
 3435TIP3   OH231863   6.371   2.467   8.236 -0.3341 -0.2422 -0.3179
 3435TIP3    H131864   6.320   2.437   8.311  1.0993 -0.1299  0.7456
 3435TIP3    H231865   6.451   2.416   8.240  0.7516  1.3842 -0.3970
 3436TIP3   OH231866   4.667   4.213   1.982  0.0439  0.1012  0.0851
 3436TIP3    H131867   4.677   4.209   1.887  0.6143  0.4291  0.1255
 3436TIP3    H231868   4.578   4.181   1.998  1.0878 -3.2802 -0.2576
 3437TIP3   OH231869   0.313   0.222   2.115  0.5740 -0.0549  0.6186
 3437TIP3    H131870   0.280   0.136   2.089  0.9773 -0.4860  1.5003
 3437TIP3    H231871   0.235   0.277   2.120  0.5673  0.4633 -2.8340
 3438TIP3   OH231872   5.669   1.646   1.833 -0.1544 -0.3078  0.4478
 3438TIP3    H131873   5.667   1.708   1.760  0.6558 -1.1282 -0.3065
 3438TIP3    H231874   5.596   1.672   1.889 -1.4004 -0.2177 -1.1339
 3439TIP3   OH231875   4.233   4.452   2.193  0.1674 -0.3332  0.3152
 3439TIP3    H131876   4.235   4.366   2.150  1.0592 -0.0199 -0.3173
 3439TIP3    H231877   4.163   4.445   2.257 -0.0167 -1.4172  0.0268
 3440TIP3   OH231878   3.814   5.551   0.343 -0.1169  0.2843  0.2152
 3440TIP3    H131879   3.859   5.476   0.306 -0.9974 -0.1063 -0.0766
 3440TIP3    H231880   3.734   5.515   0.382 -1.5660  1.2971 -1.6664
 3441TIP3   OH231881   5.306   2.448   0.920  0.0230  0.3134 -0.2288
 3441TIP3    H131882   5.216   2.453   0.888 -0.4497  0.1146  0.9965
 3441TIP3    H231883   5.349   2.524   0.882 -0.9863  1.0762  0.0890
 3442TIP3   OH231884   5.177   1.020   8.740  0.0385  0.3266  0.4795
 3442TIP3    H131885   5.263   0.979   8.729  0.4268  0.6245  2.0713
 3442TIP3    H231886   5.138   1.018   8.653  1.2453 -0.7385 -0.0746
 3443TIP3   OH231887   4.339   5.624   2.446 -0.2211  0.5136 -0.1745
 3443TIP3    H131888   4.292   5.562   2.502  0.2681 -1.2593 -1.6243
 3443TIP3    H231889   4.417   5.576   2.418  0.5024  2.0365 -0.8342
 3444TIP3   OH231890   3.875   2.747   0.482  0.3486  0.5092  0.3003
 3444TIP3    H131891   3.847   2.675   0.539  0.0362  2.0315  2.1453
 3444TIP3    H231892   3.969   2.756   0.500  0.3420  0.7074  0.2379
 3445TIP3   OH231893   1.518   6.712   1.021  0.1428  0.1299  0.6228
 3445TIP3    H131894   1.445   6.765   1.054 -1.2196 -1.3159  0.1092
 3445TIP3    H231895   1.564   6.768   0.960 -0.2095  1.2619  1.3750
 3446TIP3   OH231896   6.569   1.171   8.614  0.0947 -0.1530  0.9456
 3446TIP3    H131897   6.661   1.191   8.632 -0.4490  1.8504  1.8612
 3446TIP3    H231898   6.536   1.134   8.695  0.1861 -1.3396  0.4583
 3447TIP3   OH231899   6.445   2.389   0.721 -0.0233  0.9568 -0.1164
 3447TIP3    H131900   6.374   2.438   0.679 -1.5582  2.1214  3.4052
 3447TIP3    H231901   6.525   2.437   0.698 -0.4552  0.4415 -3.0268
 3448TIP3   OH231902   2.143   1.420   7.701  0.0539 -0.5259  0.8683
 3448TIP3    H131903   2.228   1.382   7.677  0.2109  0.0386  0.4880
 3448TIP3    H231904   2.166   1.503   7.744 -0.3215  0.6486 -1.0742
 3449TIP3   OH231905   2.986   0.605   0.791  0.1587  0.4248  0.1842
 3449TIP3    H131906   3.008   0.647   0.708 -0.1408  0.1986 -0.0080
 3449TIP3    H231907   3.069   0.603   0.839  0.4918 -0.1022 -0.4001
 3450TIP3   OH231908   5.982   0.067   2.797  0.0197 -0.3400  0.3545
 3450TIP3    H131909   5.964   0.077   2.890  0.9201  0.4898  0.4597
 3450TIP3    H231910   6.077   0.079   2.790 -0.0932  0.0036 -0.7178
 3451TIP3   OH231911   6.610   0.687   0.478 -0.1872 -0.0831  0.4324
 3451TIP3    H131912   6.580   0.774   0.455  0.8065  0.0671 -0.3860
 3451TIP3    H231913   6.544   0.653   0.539 -0.2488  1.4771  1.2700
 3452TIP3   OH231914   5.820   2.914   1.077 -0.3731 -0.0564  0.1513
 3452TIP3    H131915   5.837   2.831   1.122 -0.4012  0.2245  0.6844
 3452TIP3    H231916   5.887   2.974   1.111 -0.1768  0.0689 -0.4390
 3453TIP3   OH231917   4.156   5.022   0.012  0.5208  0.1807 -0.1806
 3453TIP3    H131918   4.175   4.973  -0.068 -1.7981 -2.3070  0.6129
 3453TIP3    H231919   4.237   5.018   0.063  1.4497  0.1801 -1.6149
 3454TIP3   OH231920   4.316   4.694   1.006 -0.7546 -0.2432  0.1278
 3454TIP3    H131921   4.243   4.631   1.010  0.5383 -1.9025 -1.0277
 3454TIP3    H231922   4.329   4.708   0.912 -0.4926  1.1801  0.3578
 3455TIP3   OH231923   5.880   3.533   2.024  0.1460 -0.4117 -0.7263
 3455TIP3    H131924   5.889   3.471   2.097  1.0081 -0.9566 -1.2772
 3455TIP3    H231925   5.930   3.609   2.052  1.8528 -1.2361 -1.3831
 3456TIP3   OH231926   4.021   5.874   8.621  0.2315  0.1785 -0.4737
 3456TIP3    H131927   4.037   5.965   8.643 -0.6321  0.5359 -1.2115
 3456TIP3    H231928   4.015   5.829   8.705  2.4960  0.4252 -0.1190
 3457TIP3   OH231929   1.872   5.696   7.168  0.2417  0.2559  0.4710
 3457TIP3    H131930   1.866   5.672   7.260 -1.5242  0.3343  0.4075
 3457TIP3    H231931   1.876   5.791   7.167 -0.4143  0.2895  0.4611
 3458TIP3   OH231932   1.153   0.163   0.992  0.2655  0.2104 -0.2964
 3458TIP3    H131933   1.075   0.116   0.966  0.2376  0.0705  0.0412
 3458TIP3    H231934   1.133   0.199   1.078  0.1759  1.0864 -0.6633
 3459TIP3   OH231935   4.190   5.212   7.634 -0.1115  0.2868 -0.1256
 3459TIP3    H131936   4.259   5.180   7.575  0.4267  0.2351  0.5187
 3459TIP3    H231937   4.166   5.298   7.598  0.0768  0.1711 -0.5314
 3460TIP3   OH231938   3.472   3.543   0.987 -0.1742  0.0121 -0.4670
 3460TIP3    H131939   3.545   3.503   1.034  0.1364  0.2885 -0.7131
 3460TIP3    H231940   3.465   3.492   0.906  0.2675  0.4928 -0.8139
 3461TIP3   OH231941   6.713   3.380   0.252 -0.7755  0.5571  0.2696
 3461TIP3    H131942   6.657   3.412   0.323 -0.6086 -0.9014  1.0920
 3461TIP3    H231943   6.789   3.437   0.253 -0.6899  0.4351  1.3935
 3462TIP3   OH231944   0.724   2.291   3.023 -0.3528  0.2216 -0.1079
 3462TIP3    H131945   0.778   2.310   2.946  0.1025 -0.2081  0.0960
 3462TIP3    H231946   0.663   2.365   3.029 -0.2058  0.3961 -0.7144
 3463TIP3   OH231947   6.720   1.776   8.775  0.3374  0.0817  0.1621
 3463TIP3    H131948   6.741   1.851   8.831  1.1903 -0.4683  0.5900
 3463TIP3    H231949   6.628   1.757   8.795  0.4834  0.2171  1.0013
 3464TIP3   OH231950   0.228   1.423   1.399 -0.7572 -0.3164  0.5528
 3464TIP3    H131951   0.244   1.335   1.434 -0.7833 -0.1547  0.9746
 3464TIP3    H231952   0.279   1.426   1.317 -0.2888 -0.5263  0.8304
 3465TIP3   OH231953   2.077   2.796   0.109 -0.2161  0.3988 -0.5093
 3465TIP3    H131954   2.090   2.742   0.186  0.0648  1.7296  0.4092
 3465TIP3    H231955   2.159   2.845   0.101 -1.1519  2.0879 -0.1669
 3466TIP3   OH231956   3.809   0.614   1.260  0.0275  0.0943 -0.1417
 3466TIP3    H131957   3.757   0.668   1.200 -0.9149 -0.6739 -0.0561
 3466TIP3    H231958   3.743   0.562   1.307  0.5479  2.0021  2.9513
 3467TIP3   OH231959   2.822   2.495   8.389 -0.2291 -0.5371 -1.0164
 3467TIP3    H131960   2.904   2.512   8.343 -0.1788  1.8897 -0.2039
 3467TIP3    H231961   2.845   2.436   8.460  1.0932  0.9536 -0.1473
 3468TIP3   OH231962   6.507   1.661   8.259 -0.3629 -0.6500  0.1233
 3468TIP3    H131963   6.510   1.755   8.241 -0.1480 -1.1268 -2.7730
 3468TIP3    H231964   6.443   1.652   8.329 -2.2840  1.4564 -1.2474
 3469TIP3   OH231965   5.774   3.142   1.781 -0.3484  0.1155  0.3085
 3469TIP3    H131966   5.703   3.079   1.769 -1.4616  1.4980 -0.8680
 3469TIP3    H231967   5.777   3.158   1.875 -0.2403 -1.4301  0.5921
 3470TIP3   OH231968   4.340   4.092   6.925  0.1177 -0.3851 -0.5980
 3470TIP3    H131969   4.313   4.131   7.008 -1.7159  0.3516 -1.4654
 3470TIP3    H231970   4.402   4.154   6.887 -0.4266  0.1772 -0.5782
 3471TIP3   OH231971   3.773   2.687   7.111 -0.3530 -0.5901  0.1984
 3471TIP3    H131972   3.741   2.768   7.072 -0.3736 -0.2143  0.9804
 3471TIP3    H231973   3.843   2.715   7.170 -0.3170 -1.1482  0.4276
 3472TIP3   OH231974   3.121   5.093   2.738 -0.5227  0.5098 -0.1839
 3472TIP3    H131975   3.116   5.054   2.825 -2.5390  0.6125 -0.2124
 3472TIP3    H231976   3.030   5.096   2.707 -0.3079  3.5638 -0.8998
 3473TIP3   OH231977   6.818   2.345   2.067 -0.2593 -0.8278 -0.1037
 3473TIP3    H131978   6.876   2.400   2.120  0.1753 -1.3160 -0.0592
 3473TIP3    H231979   6.801   2.268   2.122  0.0997 -1.2820 -0.6134
 3474TIP3   OH231980   6.658   4.415   1.283  0.1413 -0.2558 -0.1307
 3474TIP3    H131981   6.668   4.429   1.189 -3.1042  0.2147 -0.5209
 3474TIP3    H231982   6.686   4.325   1.298  2.1586  0.1337 -1.2107
 3475TIP3   OH231983   1.553   4.190   1.632 -0.3004 -0.3013 -0.3385
 3475TIP3    H131984   1.504   4.120   1.588 -1.7296  0.6949 -0.4127
 3475TIP3    H231985   1.644   4.160   1.629 -0.3161 -0.4732 -3.6905
 3476TIP3   OH231986   4.065   2.071   3.215 -0.1835 -0.1939  0.2153
 3476TIP3    H131987   4.015   2.028   3.145  0.0469 -1.6187  0.8927
 3476TIP3    H231988   4.150   2.091   3.175 -1.1853  2.1674 -0.9199
 3477TIP3   OH231989   2.498   0.648   7.098 -0.1298 -0.4106  0.4407
 3477TIP3    H131990   2.589   0.664   7.073 -0.3350 -0.8682 -0.6726
 3477TIP3    H231991   2.492   0.678   7.188  0.5408  1.8095 -0.1977
 3478TIP3   OH231992   5.445   6.697   1.655 -0.1074  0.1693  0.2181
 3478TIP3    H131993   5.400   6.718   1.573 -0.0172  1.4858  0.4798
 3478TIP3    H231994   5.449   6.781   1.702  1.0159 -0.2876  0.9825
 3479TIP3   OH231995   0.111   1.381   7.623  0.3887  0.9652 -0.1738
 3479TIP3    H131996   0.089   1.309   7.564  2.3287 -1.1389  1.4689
 3479TIP3    H231997   0.068   1.457   7.586 -2.0111 -1.0726 -1.8888
 3480TIP3   OH231998   6.747   5.917   0.966  0.2637 -0.2479 -0.5761
 3480TIP3    H131999   6.710   5.998   1.001  2.0792  0.7871 -0.9282
 3480TIP3    H232000   6.774   5.939   0.877  0.7254 -1.2766 -0.7086
 3481TIP3   OH232001   4.786   1.795   1.350  0.5750  0.7365 -0.4277
 3481TIP3    H132002   4.747   1.879   1.327  0.4615  0.2897 -1.9882
 3481TIP3    H232003   4.880   1.808   1.340  0.4771  0.2268 -2.4746
 3482TIP3   OH232004   1.124   3.910   2.346 -0.4941  0.4311  0.1007
 3482TIP3    H132005   1.151   3.905   2.438  0.7077 -0.4021 -0.2746
 3482TIP3    H232006   1.122   4.004   2.327  0.5187  0.5736  0.6284
 3483TIP3   OH232007   4.688   3.054   0.093  0.1454 -0.0046 -0.4338
 3483TIP3    H132008   4.734   3.040   0.011 -0.0543 -0.2471 -0.5030
 3483TIP3    H232009   4.748   3.021   0.160  0.9255  1.4825 -0.3549
 3484TIP3   OH232010   1.997   4.733   0.718  0.0543 -0.1016  0.2517
 3484TIP3    H132011   1.941   4.810   0.718  1.0207  0.6400  1.4485
 3484TIP3    H232012   1.938   4.661   0.695 -1.3867  0.6484  1.3890
 3485TIP3   OH232013   4.873   2.631   1.983  0.3536 -0.6310 -0.3613
 3485TIP3    H132014   4.795   2.670   2.024  0.5925  0.2198 -0.6986
 3485TIP3    H232015   4.938   2.701   1.984  0.9479 -1.1734 -0.5667
 3486TIP3   OH232016   0.901   1.186   1.679  0.3466 -0.0052 -0.2110
 3486TIP3    H132017   0.822   1.184   1.626 -1.0305 -0.1143  1.7541
 3486TIP3    H232018   0.915   1.279   1.698 -0.4079 -0.1197  0.9724
 3487TIP3   OH232019   6.775   1.061   8.030  0.3892  0.0853  0.2725
 3487TIP3    H132020   6.688   1.058   8.069 -0.0822  1.3963 -0.6270
 3487TIP3    H232021   6.800   0.969   8.020 -0.1708 -0.3031  2.0631
 3488TIP3   OH232022   6.373   3.291   1.273 -0.1650  0.4419 -0.5455
 3488TIP3    H132023   6.417   3.279   1.357  1.8038  1.0730 -1.4166
 3488TIP3    H232024   6.392   3.212   1.224  0.6412  1.0074 -1.1772
 3489TIP3   OH232025   3.847   5.494   1.979  0.0113 -0.4745  0.2184
 3489TIP3    H132026   3.887   5.422   2.028  0.3666 -0.1584  0.3927
 3489TIP3    H232027   3.916   5.526   1.921 -0.9605 -2.1565 -1.9989
 3490TIP3   OH232028   0.817   3.754   1.886  0.5227  0.7821 -0.3348
 3490TIP3    H132029   0.754   3.685   1.864  1.0378 -0.0791  0.8018
 3490TIP3    H232030   0.776   3.834   1.854 -1.7607  0.4344  1.4471
 3491TIP3   OH232031   4.472   0.696   0.656  0.1842 -0.2345 -0.3943
 3491TIP3    H132032   4.454   0.703   0.562 -1.9864  0.7616  0.0450
 3491TIP3    H232033   4.430   0.615   0.683  0.0585 -0.0871 -0.1391
 3492TIP3   OH232034   4.412   5.953   2.692  0.0239 -0.1091  0.1239
 3492TIP3    H132035   4.423   6.044   2.719  0.6816  0.0728 -0.7179
 3492TIP3    H232036   4.459   5.902   2.758 -1.7765  0.0083  1.5640
 3493TIP3   OH232037   4.545   1.445   2.459 -0.2489  0.4583  0.2848
 3493TIP3    H132038   4.596   1.526   2.471  4.3915 -1.8915 -1.0794
 3493TIP3    H232039   4.543   1.405   2.546  2.2410 -0.3111  0.0705
 3494TIP3   OH232040   2.880   0.040   1.990 -0.0208  0.3251 -0.2167
 3494TIP3    H132041   2.867   0.127   1.953  0.1563 -0.0814 -1.2703
 3494TIP3    H232042   2.882   0.054   2.085 -0.6189  1.3736 -0.3481
 3495TIP3   OH232043   3.270   3.726   0.213 -0.5465  0.4804 -0.0921
 3495TIP3    H132044   3.279   3.648   0.159 -1.2544 -0.7006  1.4369
 3495TIP3    H232045   3.224   3.789   0.157  1.0289  0.2564 -1.7301
 3496TIP3   OH232046   5.488   5.300   6.740 -0.1507  0.3844 -0.9259
 3496TIP3    H132047   5.563   5.331   6.690  0.6515  0.2719  0.1650
 3496TIP3    H232048   5.477   5.365   6.809 -1.2325  0.5345 -1.2203
 3497TIP3   OH232049   6.481   6.315   7.070 -0.0502  0.1661 -0.2170
 3497TIP3    H132050   6.533   6.309   6.990 -0.1254  1.3644 -0.3799
 3497TIP3    H232051   6.543   6.297   7.140 -0.1225 -1.5393 -0.5536
 3498TIP3   OH232052   4.609   2.844   1.734 -0.2948  0.6986 -0.2343
 3498TIP3    H132053   4.569   2.890   1.660 -0.9893 -0.2476 -0.4700
 3498TIP3    H232054   4.682   2.899   1.759 -0.5974  1.5052 -1.0426
 3499TIP3   OH232055   0.225   5.596   8.235 -0.2749 -0.0319  0.0300
 3499TIP3    H132056   0.139   5.607   8.276 -0.2460 -0.1649  0.1257
 3499TIP3    H232057   0.210   5.533   8.165 -0.3134  0.1563 -0.1309
 3500TIP3   OH232058   6.675   6.180   8.515  0.3423  0.1068  0.1862
 3500TIP3    H132059   6.735   6.124   8.466  0.6730  1.1340 -0.6275
 3500TIP3    H232060   6.732   6.240   8.563  0.0506 -1.2854  2.4184
 3501TIP3   OH232061   0.998   3.334   0.615 -0.5449  0.0459  0.4518
 3501TIP3    H132062   1.068   3.354   0.553  0.4944 -1.3195  1.1291
 3501TIP3    H232063   0.918   3.361   0.570  0.1712 -0.9218 -1.4992
 3502TIP3   OH232064   3.900   6.125   1.477 -0.4585 -0.2957  0.0386
 3502TIP3    H132065   3.934   6.037   1.460 -1.4483 -0.5387 -0.8108
 3502TIP3    H232066   3.816   6.110   1.520  0.2650  0.2835  1.7516
 3503TIP3   OH232067   3.141   2.256   0.548 -0.0302  0.1760  0.4406
 3503TIP3    H132068   3.227   2.256   0.591 -0.9051 -1.4309  2.3690
 3503TIP3    H232069   3.094   2.184   0.590 -1.1384 -1.3173 -3.0112
 3504TIP3   OH232070   3.512   1.327   1.734 -0.1467 -0.2248  0.0490
 3504TIP3    H132071   3.450   1.382   1.783  1.1732  0.3149  1.1833
 3504TIP3    H232072   3.578   1.388   1.702  0.7284 -0.9930  0.3442
 3505TIP3   OH232073   2.617   6.233   1.559 -0.0621 -0.2487 -0.3281
 3505TIP3    H132074   2.527   6.220   1.529 -0.9516  0.7028  1.6921
 3505TIP3    H232075   2.618   6.322   1.595  2.3295  0.6346 -2.2767
 3506TIP3   OH232076   6.393   1.218   8.417 -0.2888  0.1552 -0.1324
 3506TIP3    H132077   6.453   1.194   8.487  0.6263  0.1060 -0.9116
 3506TIP3    H232078   6.334   1.143   8.409  0.7422 -0.6208 -0.6285
 3507TIP3   OH232079   0.535   5.259   2.342  0.3759 -0.6223 -0.2933
 3507TIP3    H132080   0.578   5.323   2.398  1.1079  0.1469 -1.6600
 3507TIP3    H232081   0.504   5.191   2.401  0.5197  0.4783  1.0866
 3508TIP3   OH232082   1.356   1.697   8.165 -0.0259 -0.3068  0.1212
 3508TIP3    H132083   1.314   1.634   8.107 -1.3948  1.4926 -0.9528
 3508TIP3    H232084   1.286   1.731   8.220  0.9580 -0.7592  1.7501
 3509TIP3   OH232085   1.810   0.773   0.091  0.2989  0.0023 -0.0138
 3509TIP3    H132086   1.840   0.813   0.009 -2.4160  0.2981 -0.9545
 3509TIP3    H232087   1.715   0.770   0.083 -0.0170 -0.5688  2.8888
 3510TIP3   OH232088   3.394   1.731   2.437 -0.3957 -0.1697 -0.2588
 3510TIP3    H132089   3.468   1.728   2.376  0.3478 -2.8014  0.6463
 3510TIP3    H232090   3.427   1.779   2.513  0.3456 -1.1467  0.0532
 3511TIP3   OH232091   3.297   1.734   0.175 -0.7150 -0.3116 -0.3743
 3511TIP3    H132092   3.327   1.808   0.123 -0.5704 -0.1708 -0.0892
 3511TIP3    H232093   3.344   1.659   0.139  0.5184  0.0059  0.5138
 3512TIP3   OH232094   2.055   2.877   8.660 -0.3954 -0.2508 -0.0165
 3512TIP3    H132095   2.139   2.832   8.656  0.9115  2.0901 -0.7032
 3512TIP3    H232096   2.030   2.874   8.752  0.6126 -0.6846  0.2544
 3513TIP3   OH232097   5.215   2.466   1.186  0.1774 -0.8122  0.0691
 3513TIP3    H132098   5.249   2.461   1.096  0.5840  0.3247  0.1499
 3513TIP3    H232099   5.213   2.375   1.215 -0.0077 -1.2097 -1.1063
 3514TIP3   OH232100   0.200   3.535   7.828 -0.5536  0.5814 -0.0854
 3514TIP3    H132101   0.217   3.506   7.738 -1.9661 -0.6921  0.0240
 3514TIP3    H232102   0.262   3.486   7.881  0.0557  1.0862 -0.3134
 3515TIP3   OH232103   5.587   5.132   2.940 -0.2565  0.3126  0.6766
 3515TIP3    H132104   5.652   5.091   2.996 -0.6348  2.6775  3.0175
 3515TIP3    H232105   5.623   5.219   2.920 -0.3730 -0.2300 -2.4355
 3516TIP3   OH232106   0.840   2.054   3.131 -0.0505  0.1245  0.1053
 3516TIP3    H132107   0.774   2.019   3.191 -2.1312 -0.9884 -2.6101
 3516TIP3    H232108   0.798   2.128   3.089  1.4798  1.0971  0.2052
 3517TIP3   OH232109   4.992   5.439   1.017 -0.5647 -0.0821 -0.1566
 3517TIP3    H132110   4.931   5.512   1.033 -0.4519 -0.1250  0.4942
 3517TIP3    H232111   4.936   5.367   0.988 -0.7186  0.1566 -0.4560
 3518TIP3   OH232112   5.270   5.238   1.518 -0.5033 -0.2249 -0.6326
 3518TIP3    H132113   5.295   5.231   1.426 -0.9253 -0.4873 -0.7307
 3518TIP3    H232114   5.204   5.306   1.520 -1.4727 -1.1433 -0.7333
 3519TIP3   OH232115   4.598   2.757   0.413  0.7704  0.0020  0.2909
 3519TIP3    H132116   4.521   2.700   0.419 -0.0680  1.1243  0.6354
 3519TIP3    H232117   4.665   2.711   0.463 -0.5164  0.2780  2.3926
 3520TIP3   OH232118   2.398   0.254   0.384 -0.3118 -0.0628 -0.4014
 3520TIP3    H132119   2.482   0.210   0.392 -0.2355  0.0451 -0.6071
 3520TIP3    H232120   2.417   0.347   0.396 -0.5008 -0.0951  0.2177
 3521TIP3   OH232121   5.182   4.478   2.189  0.3152  0.1072  0.3807
 3521TIP3    H132122   5.239   4.427   2.246  0.3876  0.5419  0.7012
 3521TIP3    H232123   5.144   4.544   2.246 -0.1701  0.0980  0.0748
 3522TIP3   OH232124   5.945   4.647   1.526 -0.1097 -0.2349 -0.5784
 3522TIP3    H132125   5.912   4.585   1.461  0.7404 -0.5683 -0.7038
 3522TIP3    H232126   5.934   4.603   1.610  0.8747 -0.7303 -0.7043
 3523TIP3   OH232127   1.726   3.067   2.098 -0.1215 -0.5833 -0.2716
 3523TIP3    H132128   1.679   3.065   2.182 -0.0129 -0.9952 -0.2187
 3523TIP3    H232129   1.804   3.014   2.113  0.2458 -0.0863 -0.4323
 3524TIP3   OH232130   5.581   5.499   0.001 -0.2017  0.3590  0.4133
 3524TIP3    H132131   5.572   5.436  -0.071 -0.7132  0.2099  0.5980
 3524TIP3    H232132   5.589   5.584  -0.042  0.0784  0.2119  0.1696
 3525TIP3   OH232133   6.606   3.751   8.764 -0.1635 -0.2838 -0.3324
 3525TIP3    H132134   6.682   3.710   8.723 -0.1830 -0.9219  0.2668
 3525TIP3    H232135   6.604   3.716   8.853 -1.9380 -1.3363 -0.7463
 3526TIP3   OH232136   1.099   2.028   3.193  0.1334  0.8242  0.2251
 3526TIP3    H132137   1.170   2.089   3.174  1.4144 -0.6770 -0.0514
 3526TIP3    H232138   1.022   2.066   3.151  1.0210  1.9404 -0.4454
 3527TIP3   OH232139   4.746   2.627   7.293 -0.5577 -0.1738 -0.1530
 3527TIP3    H132140   4.746   2.537   7.324  3.9427 -0.1411  0.6501
 3527TIP3    H232141   4.808   2.627   7.220 -1.5017  2.0674 -1.0419
 3528TIP3   OH232142   4.661   6.021   7.808 -0.0742  0.6753 -0.0946
 3528TIP3    H132143   4.666   5.926   7.818 -0.7811  0.6025 -0.3731
 3528TIP3    H232144   4.679   6.036   7.716  0.7743  0.8785  0.0985
 3529TIP3   OH232145   0.849   6.250   1.235 -0.2547 -0.3787  0.0504
 3529TIP3    H132146   0.758   6.221   1.237  0.1134 -1.5945  2.5065
 3529TIP3    H232147   0.852   6.326   1.294  0.0095  0.7929 -1.4222
 3530TIP3   OH232148   1.794   6.353   7.240 -0.2135 -0.2606  0.3734
 3530TIP3    H132149   1.881   6.322   7.264  0.0687  0.1226 -0.1310
 3530TIP3    H232150   1.783   6.434   7.290 -0.0922 -0.0722  0.1007
 3531TIP3   OH232151   1.103   2.333   2.968 -0.4396 -0.5240 -0.3469
 3531TIP3    H132152   1.035   2.384   3.011 -0.1882  1.4481 -2.1545
 3531TIP3    H232153   1.150   2.291   3.041 -1.8757  0.2320  1.0867
 3532TIP3   OH232154   5.865   0.733   2.304  0.1404 -0.1326 -0.2475
 3532TIP3    H132155   5.832   0.809   2.352 -1.5464 -0.4789 -0.7617
 3532TIP3    H232156   5.902   0.770   2.224  1.0574  0.2762  0.3474
 3533TIP3   OH232157   4.597   0.072   0.713  0.8166  0.3307  0.2748
 3533TIP3    H132158   4.567   0.080   0.623  2.2201 -1.4811 -0.4219
 3533TIP3    H232159   4.692   0.063   0.705  0.9162 -0.3346  1.9070
 3534TIP3   OH232160   5.515   6.389   0.695  0.6027 -0.2662  0.4676
 3534TIP3    H132161   5.504   6.294   0.684 -3.1448  0.1245 -0.2991
 3534TIP3    H232162   5.610   6.400   0.704  1.2499 -4.0094  0.1369
 3535TIP3   OH232163   2.816   2.928   1.574  0.3563 -0.1129  0.4085
 3535TIP3    H132164   2.887   2.983   1.542  0.5276 -0.5160  0.0977
 3535TIP3    H232165   2.845   2.900   1.661 -0.1902  1.1286  1.0294
 3536TIP3   OH232166   6.742   5.153   6.975 -0.3726 -0.4345  0.0136
 3536TIP3    H132167   6.693   5.128   7.053 -0.0237  0.3852  0.5098
 3536TIP3    H232168   6.685   5.216   6.930 -0.5407 -0.8481 -0.3621
 3537TIP3   OH232169   6.050   0.216   1.913  0.0887 -0.2693 -0.1732
 3537TIP3    H132170   6.066   0.304   1.879 -0.1916 -0.1739 -0.0634
 3537TIP3    H232171   6.136   0.174   1.914  0.2480  0.0579 -0.0693
 3538TIP3   OH232172   2.540   0.010   1.918 -0.5469  0.1103 -0.3205
 3538TIP3    H132173   2.541  -0.058   1.985 -1.2537  0.2595 -0.1553
 3538TIP3    H232174   2.620  -0.006   1.867  0.1411  0.1466  0.7018
 3539TIP3   OH232175   2.381   3.354   3.371 -0.2139 -0.8257 -0.0121
 3539TIP3    H132176   2.313   3.373   3.436 -1.0886  0.5473 -1.2537
 3539TIP3    H232177   2.425   3.275   3.404 -0.5008 -0.0847  2.2990
 3540TIP3   OH232178   1.856   2.718   1.333 -0.4292 -0.9150  0.4694
 3540TIP3    H132179   1.804   2.746   1.409 -2.0968 -0.8097 -0.6441
 3540TIP3    H232180   1.903   2.641   1.363  0.0958 -0.0317  2.0324
 3541TIP3   OH232181   5.357   2.565   2.240 -0.8871 -0.1853 -0.0188
 3541TIP3    H132182   5.410   2.598   2.312 -0.4620 -0.0858 -0.3721
 3541TIP3    H232183   5.268   2.566   2.274 -0.5657 -1.2095  0.8948
 3542TIP3   OH232184   3.395   6.229   0.981  0.2723 -0.4827 -0.2825
 3542TIP3    H132185   3.301   6.230   1.000  0.4817  0.1505  0.7895
 3542TIP3    H232186   3.420   6.137   0.989  0.2015 -0.3516  1.8827
 3543TIP3   OH232187   4.177   6.005   2.510 -0.3366 -0.2670 -0.4257
 3543TIP3    H132188   4.259   5.983   2.554 -0.0917  0.9466 -0.2346
 3543TIP3    H232189   4.111   5.950   2.551  0.0085  0.3312  0.9807
 3544TIP3   OH232190   2.901   6.328   1.753 -0.7644  0.1303  0.3037
 3544TIP3    H132191   2.819   6.345   1.798  0.4944 -0.0821  2.8268
 3544TIP3    H232192   2.967   6.379   1.800  0.7394 -0.5076 -0.9813
 3545TIP3   OH232193   4.999   1.957   0.883 -0.1189  0.0801 -0.3515
 3545TIP3    H132194   4.920   1.926   0.839 -0.1338  0.2450 -0.4421
 3545TIP3    H232195   5.039   2.017   0.820  0.3349 -0.3751 -0.5059
 3546TIP3   OH232196   1.757   4.921   2.106 -0.1366 -0.1304 -0.8361
 3546TIP3    H132197   1.845   4.885   2.115 -0.3175 -0.3696  0.0879
 3546TIP3    H232198   1.753   4.992   2.170 -0.6441 -0.1726 -0.8175
 3547TIP3   OH232199   4.515   5.237   7.420 -0.0339  0.1843  0.0719
 3547TIP3    H132200   4.546   5.164   7.474 -1.8957 -0.9834 -0.3385
 3547TIP3    H232201   4.430   5.208   7.387 -0.9871  2.6723  0.1174
 3548TIP3   OH232202   2.032   5.498   0.035  0.1448 -0.4026 -0.2265
 3548TIP3    H132203   2.049   5.540   0.120 -0.8145  1.1855 -0.7682
 3548TIP3    H232204   1.991   5.414   0.057 -0.3206  0.0985  0.8935
 3549TIP3   OH232205   6.740   2.835   0.497  0.2367  0.5249 -0.0946
 3549TIP3    H132206   6.673   2.886   0.452 -1.1905 -0.2103  1.0973
 3549TIP3    H232207   6.704   2.746   0.500  1.5067  0.0020  0.1105
 3550TIP3   OH232208   2.019   5.709   7.910  0.5048  0.3047  0.1809
 3550TIP3    H132209   2.099   5.756   7.886  0.6571  0.5593  1.1246
 3550TIP3    H232210   1.958   5.778   7.934 -0.6535  0.2328 -2.2914
 3551TIP3   OH232211   3.370   4.189   1.565 -0.3169  1.3837 -0.4363
 3551TIP3    H132212   3.311   4.264   1.575 -0.3782  1.0333  3.6963
 3551TIP3    H232213   3.458   4.225   1.575  0.1219  1.4595 -3.5276
 3552TIP3   OH232214   1.214   1.996   2.281  0.1625 -0.5395  0.3118
 3552TIP3    H132215   1.210   2.042   2.197 -1.4418 -0.9008  0.1743
 3552TIP3    H232216   1.280   2.045   2.331 -1.0701  1.6128 -0.0248
 3553TIP3   OH232217   1.184   1.702   1.368 -0.0074 -0.3934  0.5875
 3553TIP3    H132218   1.166   1.795   1.354  0.8269 -0.2324  0.5450
 3553TIP3    H232219   1.098   1.659   1.359 -0.1135  0.1387 -1.2241
 3554TIP3   OH232220   4.885   4.394   0.102  0.1964 -0.6927  0.6115
 3554TIP3    H132221   4.864   4.433   0.017 -0.1437 -1.0954  0.5112
 3554TIP3    H232222   4.816   4.330   0.117  0.1512 -0.4869  1.2811
 3555TIP3   OH232223   2.513   0.817   7.355  0.8114 -0.0944 -0.3956
 3555TIP3    H132224   2.479   0.850   7.439  0.8555  1.1751 -0.8579
 3555TIP3    H232225   2.600   0.785   7.376 -0.3561 -2.8453  0.6877
 3556TIP3   OH232226   1.609   1.627   1.947  0.7818 -0.1527  0.2229
 3556TIP3    H132227   1.663   1.649   2.024 -0.3813 -1.6245  1.5135
 3556TIP3    H232228   1.580   1.712   1.913  0.8415  0.5118  1.7624
 3557TIP3   OH232229   4.238   3.625   1.519  0.2725  0.0959  0.5417
 3557TIP3    H132230   4.279   3.702   1.478  3.3953 -2.0126 -0.6368
 3557TIP3    H232231   4.188   3.584   1.448 -0.5545  0.4573  0.9041
 3558TIP3   OH232232   1.475   4.365   7.668  0.1982 -0.4565 -0.1665
 3558TIP3    H132233   1.564   4.357   7.633  0.5702 -0.3041  0.7103
 3558TIP3    H232234   1.425   4.296   7.623  0.6304 -0.2174 -1.0368
 3559TIP3   OH232235   4.529   5.369   0.751  0.2461 -0.4543 -0.1203
 3559TIP3    H132236   4.593   5.428   0.710 -1.6587  0.2270 -2.3489
 3559TIP3    H232237   4.582   5.307   0.800  2.4828  1.3980 -0.0076
 3560TIP3   OH232238   0.488   1.369   6.947 -0.8846  0.0969 -0.0903
 3560TIP3    H132239   0.421   1.311   6.912 -0.6416 -0.7349  0.7826
 3560TIP3    H232240   0.546   1.386   6.872  0.5985 -3.0365  0.1841
 3561TIP3   OH232241   3.468   0.915   2.064  0.2646  0.1719 -0.4325
 3561TIP3    H132242   3.430   0.828   2.052  1.0108 -0.0315 -1.4411
 3561TIP3    H232243   3.458   0.958   1.978  0.7005  0.7549 -0.1983
 3562TIP3   OH232244   2.852   0.840   2.130  0.1016 -0.0619  0.4283
 3562TIP3    H132245   2.792   0.825   2.203  1.0098  0.0027  1.2168
 3562TIP3    H232246   2.804   0.897   2.071 -0.3366  0.6504  1.4310
 3563TIP3   OH232247   3.338   0.959   8.419 -0.1570 -0.0403 -0.5047
 3563TIP3    H132248   3.300   0.953   8.507  0.9622 -1.4562 -0.0779
 3563TIP3    H232249   3.270   0.926   8.361 -0.5202 -0.1121 -0.0425
 3564TIP3   OH232250   3.848   0.320   7.728  0.9114 -0.4905 -0.6358
 3564TIP3    H132251   3.848   0.392   7.791  2.4765 -1.6499  0.7842
 3564TIP3    H232252   3.919   0.340   7.667  1.4128 -0.8654 -0.1807
 3565TIP3   OH232253   0.170   6.787   2.001 -0.2352  0.1674 -0.0620
 3565TIP3    H132254   0.111   6.792   2.076 -0.3694 -2.3023  0.0589
 3565TIP3    H232255   0.117   6.751   1.930  0.8523 -1.3155 -0.1870
 3566TIP3   OH232256   0.601   1.620   2.148 -0.1436 -0.2575 -0.0740
 3566TIP3    H132257   0.617   1.526   2.161  0.8012 -0.2915 -1.2715
 3566TIP3    H232258   0.508   1.631   2.167  0.2043 -0.9754  2.3933
 3567TIP3   OH232259   3.875   1.231   8.010 -0.1280  0.0895 -0.1914
 3567TIP3    H132260   3.817   1.220   8.085 -2.0677  0.1058 -1.5994
 3567TIP3    H232261   3.826   1.289   7.951  0.4261 -1.5099 -2.3332
 3568TIP3   OH232262   5.013   1.024   0.316  0.3818 -0.4909  0.1346
 3568TIP3    H132263   4.989   0.933   0.296 -1.6802 -0.4910  2.1531
 3568TIP3    H232264   5.090   1.041   0.263 -0.5387 -2.6558 -2.1004
 3569TIP3   OH232265   1.012   6.819   7.672  0.3031 -0.2705  0.0130
 3569TIP3    H132266   1.039   6.730   7.652  0.8861 -0.3002  0.8989
 3569TIP3    H232267   1.051   6.872   7.603  0.8154 -0.5768  0.0650
 3570TIP3   OH232268   1.653   1.381   1.844 -0.7346  0.1678  0.3736
 3570TIP3    H132269   1.560   1.374   1.820 -0.5190  2.1016 -1.2525
 3570TIP3    H232270   1.659   1.463   1.893  0.1425  0.1465  0.3151
 3571TIP3   OH232271   0.944   2.718   1.450 -0.1356 -0.6312  0.2558
 3571TIP3    H132272   0.997   2.748   1.377 -1.8044  0.8061 -0.4315
 3571TIP3    H232273   0.987   2.755   1.528  0.8273 -0.9650 -0.0991
 3572TIP3   OH232274   0.272   0.262   8.236 -0.7723  0.3691  0.5301
 3572TIP3    H132275   0.341   0.223   8.291  0.0287  0.3299 -0.4639
 3572TIP3    H232276   0.318   0.287   8.156 -1.6708  1.5631  0.3710
 3573TIP3   OH232277   6.770   5.157   7.900 -0.0958 -0.1567 -0.1477
 3573TIP3    H132278   6.775   5.132   7.808  0.1268  0.6291 -0.3623
 3573TIP3    H232279   6.679   5.185   7.912  0.2338  1.1479 -0.5273
 3574TIP3   OH232280   1.307   2.034   1.009 -0.1891  0.1079  0.0370
 3574TIP3    H132281   1.361   1.956   1.000 -1.0740 -0.5818  0.4596
 3574TIP3    H232282   1.251   2.034   0.932 -0.0034  0.4880 -0.1022
 3575TIP3   OH232283   3.708   1.106   7.725  0.1004  0.5327  0.3831
 3575TIP3    H132284   3.669   1.133   7.642  1.2150 -1.0938 -0.7304
 3575TIP3    H232285   3.696   1.182   7.783 -1.8650  1.2154 -0.8299
 3576TIP3   OH232286   3.513   1.445   7.267  0.2424  0.0582  0.0866
 3576TIP3    H132287   3.444   1.384   7.294  0.2409  0.0309  0.0216
 3576TIP3    H232288   3.580   1.390   7.226  1.2639 -0.1878  1.9839
 3577TIP3   OH232289   1.296   3.222   2.325  0.3873 -0.1648 -0.5573
 3577TIP3    H132290   1.289   3.129   2.301  0.3341 -0.3764  0.2691
 3577TIP3    H232291   1.239   3.232   2.401  0.6429  0.4805 -0.4455
 3578TIP3   OH232292   4.009   0.373   2.219  0.2915  0.3501  0.3783
 3578TIP3    H132293   4.089   0.382   2.168  0.1821 -1.8697 -0.2908
 3578TIP3    H232294   3.957   0.307   2.172 -0.7737 -0.1726  2.1603
 3579TIP3   OH232295   4.970   6.726   7.289 -0.1572 -0.2444  0.1219
 3579TIP3    H132296   5.050   6.684   7.259 -0.2654  0.9815 -2.1194
 3579TIP3    H232297   5.000   6.796   7.348  0.2589 -1.0400  0.8669
 3580TIP3   OH232298   1.363   0.259   7.693 -0.0258  0.1598 -0.4794
 3580TIP3    H132299   1.425   0.203   7.646  0.3089  1.8137 -2.1686
 3580TIP3    H232300   1.383   0.348   7.662 -1.6251  1.0234  0.7946
 3581TIP3   OH232301   3.612   0.137   7.719 -0.5613 -0.1498  0.4676
 3581TIP3    H132302   3.686   0.193   7.696 -0.0509 -1.9290 -2.7697
 3581TIP3    H232303   3.538   0.197   7.726  0.8037  1.4664  2.1600
 3582TIP3   OH232304   4.436   0.517   0.081 -0.5623 -0.1749 -0.3771
 3582TIP3    H132305   4.376   0.474   0.020 -0.3399  0.5210 -1.0975
 3582TIP3    H232306   4.413   0.610   0.076  0.3655  0.0638 -0.4490
 3583TIP3   OH232307   3.496   3.170   2.612  0.0843 -0.2229 -0.2536
 3583TIP3    H132308   3.573   3.188   2.665 -0.3869 -1.7410  1.0051
 3583TIP3    H232309   3.522   3.095   2.558  0.0802  0.4274 -1.1924
 3584TIP3   OH232310   1.711   1.580   2.262  1.0756 -0.2287  0.6900
 3584TIP3    H132311   1.743   1.656   2.214  1.1237 -0.2642  0.6663
 3584TIP3    H232312   1.638   1.614   2.315  0.9048 -0.2259  0.4551
 3585TIP3   OH232313   3.220   4.265   2.159 -0.2242 -0.7517  0.5566
 3585TIP3    H132314   3.139   4.244   2.114 -1.5411  2.2049  1.2820
 3585TIP3    H232315   3.257   4.338   2.110 -0.3781  0.8562  2.6561
 3586TIP3   OH232316   0.402   1.805   8.028  0.2226 -0.6371  0.0685
 3586TIP3    H132317   0.395   1.759   7.944  3.2702  1.3746 -1.4619
 3586TIP3    H232318   0.373   1.894   8.009 -0.8008 -0.5904  1.6830
 3587TIP3   OH232319   1.655   1.701   0.266  0.0040 -0.4304  0.1584
 3587TIP3    H132320   1.583   1.760   0.290 -0.4130 -1.0701  0.5086
 3587TIP3    H232321   1.613   1.629   0.219  0.6233 -0.0006 -1.0893
 3588TIP3   OH232322   3.331   4.791   6.846  0.3098 -0.7559  0.0375
 3588TIP3    H132323   3.252   4.790   6.901 -0.3944  0.7982 -0.8883
 3588TIP3    H232324   3.334   4.703   6.808 -0.2921 -1.2216  1.0234
 3589TIP3   OH232325   2.276   2.665   1.944 -0.3743 -0.1468 -0.5765
 3589TIP3    H132326   2.282   2.569   1.944 -0.3767 -0.1987  1.4993
 3589TIP3    H232327   2.202   2.684   1.886  0.4772 -1.2834 -2.1191
 3590TIP3   OH232328   2.371   3.637   1.852 -0.4054  0.0939  0.1522
 3590TIP3    H132329   2.427   3.578   1.901  1.0750  1.2383 -0.0697
 3590TIP3    H232330   2.306   3.668   1.915  0.9950  0.9448  1.2393
 3591TIP3   OH232331   2.743   6.309   0.868 -0.3689  0.1848 -0.3881
 3591TIP3    H132332   2.775   6.256   0.941  0.0029 -2.0123 -2.0300
 3591TIP3    H232333   2.681   6.370   0.907  0.1318 -0.6192  1.7967
 3592TIP3   OH232334   1.895   5.030   7.608 -0.0996  0.2118 -0.6799
 3592TIP3    H132335   1.959   4.960   7.626 -0.3656 -0.2064 -1.3216
 3592TIP3    H232336   1.938   5.110   7.638  0.7238 -0.0656 -1.0829
 3593TIP3   OH232337   4.492   2.015   0.422  0.0046 -0.0638  0.3499
 3593TIP3    H132338   4.580   2.050   0.435  0.1300 -0.0592 -0.4672
 3593TIP3    H232339   4.465   1.986   0.509  0.0996  1.5732  0.9681
 3594TIP3   OH232340   3.414   1.015   7.845 -0.0717 -0.3102 -0.8385
 3594TIP3    H132341   3.400   1.100   7.803  0.2927 -0.2125 -0.7668
 3594TIP3    H232342   3.326   0.981   7.860 -0.2319  0.2558 -0.4616
 3595TIP3   OH232343   6.380   0.964   1.479  0.2957 -0.2824  0.7081
 3595TIP3    H132344   6.295   0.920   1.479  0.2460 -0.1958  0.2634
 3595TIP3    H232345   6.368   1.039   1.421  0.1124  0.8568  2.1611
 3596TIP3   OH232346   4.427   4.216   0.498 -0.1253  0.0852 -0.3445
 3596TIP3    H132347   4.463   4.278   0.561 -0.3033 -1.4956  1.4100
 3596TIP3    H232348   4.337   4.199   0.528 -0.7840  0.4797 -1.9664
 3597TIP3   OH232349   0.447   3.006   2.982  0.2433  0.2520 -0.5090
 3597TIP3    H132350   0.503   3.056   3.042  0.1754 -0.2293 -0.0388
 3597TIP3    H232351   0.413   3.072   2.921 -0.0018  0.8190  0.2218
 3598TIP3   OH232352   3.040   3.131   8.339 -0.6157  0.0489  0.2151
 3598TIP3    H132353   3.092   3.210   8.321 -0.0265 -0.3057  0.3124
 3598TIP3    H232354   3.059   3.073   8.265  0.3157 -0.6665  0.9795
 3599TIP3   OH232355   1.681   1.317   0.345 -0.2251 -0.1277 -0.2853
 3599TIP3    H132356   1.619   1.255   0.308 -1.8078  0.9871  0.3830
 3599TIP3    H232357   1.687   1.387   0.280  3.3530 -1.9283 -2.1437
 3600TIP3   OH232358   2.364   3.516   8.702 -0.0794  0.5138  0.3939
 3600TIP3    H132359   2.279   3.552   8.727 -1.4948 -2.3892  0.2595
 3600TIP3    H232360   2.413   3.511   8.785 -0.0952  1.9517  0.5158
 3601TIP3   OH232361   5.247   6.759   2.378  0.0451  0.0333  0.5307
 3601TIP3    H132362   5.228   6.829   2.441  1.0712 -0.0426  0.9409
 3601TIP3    H232363   5.213   6.680   2.419 -1.1235  0.2678  0.0644
 3602TIP3   OH232364   3.684   5.871   7.838  0.1533 -0.0825  0.3901
 3602TIP3    H132365   3.700   5.926   7.761  1.1481  0.4848  0.9809
 3602TIP3    H232366   3.589   5.869   7.847 -0.0208 -0.6511 -1.1951
 3603TIP3   OH232367   6.626   6.448   0.899 -0.3548 -0.2295 -0.3770
 3603TIP3    H132368   6.561   6.426   0.966  1.9804  0.5545  2.3582
 3603TIP3    H232369   6.711   6.435   0.943  1.4873 -2.2816 -4.0774
 3604TIP3   OH232370   2.461   0.855   1.897  0.0043 -0.4064 -0.2384
 3604TIP3    H132371   2.429   0.765   1.903  0.0462 -0.5534 -1.9053
 3604TIP3    H232372   2.472   0.882   1.989 -1.1435 -1.6719  0.3063
 3605TIP3   OH232373   5.335   5.293   0.203  0.2196 -0.1134  0.1568
 3605TIP3    H132374   5.355   5.246   0.284 -0.5322  1.1266  1.0942
 3605TIP3    H232375   5.240   5.306   0.206  0.3090  0.7507 -0.4655
 3606TIP3   OH232376   2.800   5.227   2.453 -0.4911  0.0189 -0.2753
 3606TIP3    H132377   2.813   5.158   2.518  0.0613 -0.4931 -0.9160
 3606TIP3    H232378   2.755   5.183   2.380  0.2531  0.2328 -0.8682
 3607TIP3   OH232379   1.892   4.185   0.768  0.1780 -0.1181  0.6536
 3607TIP3    H132380   1.918   4.129   0.695  0.4490 -2.3020  2.3136
 3607TIP3    H232381   1.822   4.137   0.812 -0.1893  1.2754  1.6721
 3608TIP3   OH232382   3.153   5.401   3.036  0.2606  0.4460  0.4962
 3608TIP3    H132383   3.166   5.307   3.048  0.9701  0.5162  0.3189
 3608TIP3    H232384   3.060   5.410   3.015  0.4038 -0.3220 -0.5298
 3609TIP3   OH232385   0.509   3.075   0.723 -0.2135  0.1620 -0.4219
 3609TIP3    H132386   0.580   3.139   0.722  0.0411 -0.0546  0.9337
 3609TIP3    H232387   0.528   3.020   0.800 -2.9417  1.3633  1.2691
 3610TIP3   OH232388   0.397   2.927   0.356  0.1323  0.0315 -0.7393
 3610TIP3    H132389   0.487   2.894   0.353  0.1489 -0.0630  0.4526
 3610TIP3    H232390   0.388   2.968   0.442 -0.0018  2.9222 -2.0233
 3611TIP3   OH232391   4.130   4.528   0.850 -1.1607  0.5198  0.3569
 3611TIP3    H132392   4.037   4.548   0.841 -0.9810  1.0143 -0.4322
 3611TIP3    H232393   4.169   4.553   0.766 -0.3600  0.0616  0.5790
 3612TIP3   OH232394   0.307   6.066   7.415  0.4861  0.2658 -0.2469
 3612TIP3    H132395   0.263   6.042   7.334 -0.6577  0.3927  0.3168
 3612TIP3    H232396   0.383   6.009   7.420 -0.7150 -1.3941 -0.2574
 3613TIP3   OH232397   6.467   1.744   0.048 -0.0422 -0.1262 -0.2030
 3613TIP3    H132398   6.474   1.688   0.125 -0.8558  1.3214  0.9704
 3613TIP3    H232399   6.373   1.753   0.033  0.0661  1.0339 -0.2652
 3614TIP3   OH232400   5.165   4.489   7.626  0.3550  0.7852  0.3607
 3614TIP3    H132401   5.222   4.412   7.619  1.2587  1.4424  0.4595
 3614TIP3    H232402   5.163   4.524   7.537 -1.6167 -0.4254 -0.1407
 3615TIP3   OH232403   3.856   2.885   7.336 -0.9314 -0.2847 -0.3604
 3615TIP3    H132404   3.901   2.958   7.295 -1.7558 -0.4515 -1.6343
 3615TIP3    H232405   3.799   2.925   7.402 -2.1607  0.3545 -1.7643
 3616TIP3   OH232406   3.064   4.469   6.931 -0.0581  0.0077  0.0502
 3616TIP3    H132407   3.085   4.401   6.995  0.1091  0.0957  0.0891
 3616TIP3    H232408   2.971   4.485   6.942  0.1379  0.6483  0.8808
 3617TIP3   OH232409   4.694   6.491   1.094 -0.4969  0.1512  0.8937
 3617TIP3    H132410   4.642   6.425   1.141 -0.2244  0.3965  1.5543
 3617TIP3    H232411   4.784   6.459   1.101 -0.3961  0.4573  0.9789
 3618TIP3   OH232412   6.260   5.320   7.171 -0.3921  0.0943 -0.1684
 3618TIP3    H132413   6.233   5.269   7.247 -0.0784 -0.5160 -0.4608
 3618TIP3    H232414   6.201   5.293   7.101 -1.5407  1.5987  0.1490
 3619TIP3   OH232415   6.395   0.910   0.475 -0.0637  0.2142 -0.3593
 3619TIP3    H132416   6.328   0.951   0.531 -0.5000  0.0641 -0.7666
 3619TIP3    H232417   6.363   0.821   0.461  0.8070 -0.2350  0.3926
 3620TIP3   OH232418   0.920   3.977   0.767 -0.2004  0.1322 -0.0958
 3620TIP3    H132419   0.889   4.039   0.701 -0.1110 -0.8721 -1.1063
 3620TIP3    H232420   1.015   3.976   0.756 -0.1545  0.2093  0.2848
 3621TIP3   OH232421   2.334   2.375   0.910 -0.0084 -0.1324 -0.3836
 3621TIP3    H132422   2.400   2.350   0.974  0.6348  1.0806 -0.5409
 3621TIP3    H232423   2.256   2.394   0.962 -0.0106 -0.8437 -0.1248
 3622TIP3   OH232424   0.926   1.693   1.057  0.2843  0.6695  0.1485
 3622TIP3    H132425   0.881   1.610   1.044  3.3457 -1.0586 -0.3813
 3622TIP3    H232426   0.883   1.733   1.132 -1.7602 -0.9982 -0.0486
 3623TIP3   OH232427   2.053   0.099   2.848  0.6918 -0.1115 -0.4686
 3623TIP3    H132428   1.965   0.067   2.867  0.9052  0.6530  2.2345
 3623TIP3    H232429   2.097   0.025   2.808 -0.0618 -1.8617  1.7159
 3624TIP3   OH232430   0.465   2.029   1.307  0.0259 -0.1729  0.3838
 3624TIP3    H132431   0.405   2.103   1.312  1.4096  0.8819  2.4951
 3624TIP3    H232432   0.524   2.051   1.234 -1.3775 -0.6868 -0.9598
 3625TIP3   OH232433   2.447   1.008   1.530 -0.4961  0.0011  0.2051
 3625TIP3    H132434   2.408   0.958   1.458 -0.2619 -0.5167  0.4322
 3625TIP3    H232435   2.499   1.076   1.487 -2.1488  1.1447 -0.1197
 3626TIP3   OH232436   6.664   5.632   0.910  0.5693  0.0323  0.0349
 3626TIP3    H132437   6.681   5.726   0.902 -0.4885  0.3963  1.6480
 3626TIP3    H232438   6.592   5.615   0.850  0.0103  0.4869  0.5718
 3627TIP3   OH232439   2.484   6.436   0.264  0.4332  0.2320  0.1660
 3627TIP3    H132440   2.397   6.450   0.300  0.8624  1.4809  0.7889
 3627TIP3    H232441   2.469   6.392   0.181 -0.5680 -3.3572  2.0475
 3628TIP3   OH232442   2.531   6.146   8.074  0.3204  0.1469  0.1000
 3628TIP3    H132443   2.596   6.123   8.008 -0.0888 -0.4457 -0.1128
 3628TIP3    H232444   2.492   6.062   8.100  0.0827  0.4276  0.6832
 3629TIP3   OH232445   2.769   2.375   8.676 -0.0458 -0.0955  0.3330
 3629TIP3    H132446   2.714   2.452   8.685 -0.8407 -0.5399 -0.5795
 3629TIP3    H232447   2.724   2.306   8.725  0.0647 -0.2826  0.1748
 3630TIP3   OH232448   0.885   0.580   7.338 -0.2270  0.5071 -0.1986
 3630TIP3    H132449   0.897   0.663   7.384 -0.8950 -0.2384  1.4182
 3630TIP3    H232450   0.966   0.568   7.288  0.3429  1.5834  0.4360
 3631TIP3   OH232451   6.153   4.644   8.675  0.1683  0.5184  0.0955
 3631TIP3    H132452   6.187   4.637   8.764  2.6236 -0.4767 -0.8417
 3631TIP3    H232453   6.230   4.659   8.620 -1.0447 -0.4979 -2.0303
 3632TIP3   OH232454   4.705   0.637   7.998  0.4039 -0.4505 -0.7690
 3632TIP3    H132455   4.727   0.694   8.072  1.2282 -0.3938 -1.0451
 3632TIP3    H232456   4.768   0.661   7.930 -0.6433 -0.1760 -1.6669
 3633TIP3   OH232457   0.520   5.177   0.861 -0.2892 -0.2884 -0.1879
 3633TIP3    H132458   0.499   5.084   0.855  1.1237 -0.7802  1.6837
 3633TIP3    H232459   0.582   5.192   0.789 -1.0068 -0.6058 -0.8953
 3634TIP3   OH232460   4.972   6.457   7.714  0.0267  0.4606 -0.3000
 3634TIP3    H132461   4.902   6.397   7.741  0.3816 -0.1171 -0.6643
 3634TIP3    H232462   4.934   6.544   7.727  0.0161  0.2130  1.6613
 3635TIP3   OH232463   1.772   1.943   1.647 -0.2065 -0.3014  0.2854
 3635TIP3    H132464   1.763   2.015   1.585 -0.6393 -1.1447 -0.6635
 3635TIP3    H232465   1.821   1.876   1.599 -1.9831 -1.6290  0.2468
 3636TIP3   OH232466   4.144   6.000   2.216  0.3661  0.5272 -0.2844
 3636TIP3    H132467   4.171   5.909   2.206 -0.1698  0.3136  0.1507
 3636TIP3    H232468   4.167   6.023   2.306 -1.3367  0.1699  0.2717
 3637TIP3   OH232469   3.414   3.256   7.730  0.2246 -0.3153  0.0291
 3637TIP3    H132470   3.390   3.304   7.651 -0.7061  1.4439  1.3187
 3637TIP3    H232471   3.509   3.263   7.735  0.2092  0.2977 -0.4868
 3638TIP3   OH232472   5.863   1.579   0.871 -0.4205  0.2890 -0.6980
 3638TIP3    H132473   5.817   1.494   0.867 -0.0178 -0.1352  1.8442
 3638TIP3    H232474   5.848   1.618   0.785 -1.1097 -2.1054 -1.7623
 3639TIP3   OH232475   5.365   3.764   7.919 -0.1114  0.2147  0.2159
 3639TIP3    H132476   5.304   3.690   7.905  1.3260 -0.9129 -0.3298
 3639TIP3    H232477   5.362   3.779   8.014  1.8799 -2.7197  0.9037
 3640TIP3   OH232478   3.536   3.188   0.283 -0.7685 -0.3132  0.1487
 3640TIP3    H132479   3.499   3.157   0.201 -1.8785  0.2143  0.4245
 3640TIP3    H232480   3.554   3.109   0.334  0.1937 -0.6568 -0.6958
 3641TIP3   OH232481   6.779   4.542   0.527 -0.1829 -0.2190 -0.3943
 3641TIP3    H132482   6.833   4.540   0.448  0.3914 -0.8882 -0.0079
 3641TIP3    H232483   6.710   4.605   0.508  0.7090  0.6210 -0.9265
 3642TIP3   OH232484   0.743   6.236   2.128  0.0895  0.4220  0.1536
 3642TIP3    H132485   0.792   6.301   2.178  0.2985  1.3403 -1.1846
 3642TIP3    H232486   0.776   6.245   2.039 -0.7287 -0.7117 -0.2801
 3643TIP3   OH232487   5.456   0.123   0.262 -0.4125  0.0410 -0.0148
 3643TIP3    H132488   5.519   0.181   0.305  0.6446  0.7548 -2.3445
 3643TIP3    H232489   5.373   0.168   0.268 -0.0774  0.6203  0.3396
 3644TIP3   OH232490   4.947   5.870   7.805 -0.1183  0.4097 -0.2924
 3644TIP3    H132491   4.877   5.805   7.806 -0.6632  0.9952  0.1393
 3644TIP3    H232492   5.018   5.828   7.755 -0.9217 -0.0305 -1.0917
 3645TIP3   OH232493   3.930   5.822   2.029 -0.0622  0.0062  0.2450
 3645TIP3    H132494   3.931   5.754   2.097  0.6569  0.0295  0.2703
 3645TIP3    H232495   3.955   5.902   2.075  0.3086  0.0470 -0.0213
 3646TIP3   OH232496   1.315   1.178   8.547  0.3767 -0.2269  0.0682
 3646TIP3    H132497   1.237   1.227   8.521 -0.2738 -0.7767  0.9165
 3646TIP3    H232498   1.318   1.187   8.643  1.2795 -0.3286  0.0578
 3647TIP3   OH232499   4.849   2.779   0.972 -0.0153 -0.2186 -0.1018
 3647TIP3    H132500   4.784   2.850   0.970  1.9079  1.6464 -2.3911
 3647TIP3    H232501   4.931   2.823   0.998  0.7851 -2.1132  0.7580
 3648TIP3   OH232502   1.886   6.687   1.269  0.1914  0.1159  0.0430
 3648TIP3    H132503   1.794   6.676   1.296  0.1661  2.7534  1.3137
 3648TIP3    H232504   1.928   6.727   1.345  2.4450 -1.0432 -0.5249
 3649TIP3   OH232505   6.060   4.709   2.161  0.0901 -0.0596  0.8218
 3649TIP3    H132506   6.063   4.725   2.256 -3.4000  2.3079  0.7228
 3649TIP3    H232507   6.033   4.618   2.153 -0.5314 -0.0149  2.1551
 3650TIP3   OH232508   2.709   5.631   8.161  0.9179  0.5167 -0.4524
 3650TIP3    H132509   2.717   5.656   8.069  1.7471  2.2672  0.0487
 3650TIP3    H232510   2.782   5.570   8.175  1.7653  1.4564 -0.6105
 3651TIP3   OH232511   4.652   6.411   8.245 -0.0304  0.3299  0.1061
 3651TIP3    H132512   4.701   6.348   8.192  0.8282  1.2044 -0.1698
 3651TIP3    H232513   4.598   6.458   8.182 -2.1791 -1.3815  0.5260
 3652TIP3   OH232514   6.704   3.840   7.941 -0.0308 -0.5305 -0.5932
 3652TIP3    H132515   6.750   3.764   7.977 -0.1118  0.8134  2.5915
 3652TIP3    H232516   6.704   3.904   8.011 -1.9369  1.6255 -2.4094
 3653TIP3   OH232517   6.107   5.789   6.621 -0.1774  0.5109  0.0487
 3653TIP3    H132518   6.053   5.773   6.544  1.8350 -0.5836 -1.1933
 3653TIP3    H232519   6.043   5.803   6.692 -2.0758 -0.1355 -1.4473
 3654TIP3   OH232520   3.195   0.660   8.638  0.1186  0.6621  0.4255
 3654TIP3    H132521   3.138   0.584   8.644  0.2461  0.4154 -1.0366
 3654TIP3    H232522   3.279   0.630   8.671  0.7710 -0.5408 -2.0754
 3655TIP3   OH232523   4.420   3.373   7.627 -0.0399 -0.6302  0.6143
 3655TIP3    H132524   4.405   3.310   7.698  2.7399 -0.4656  1.4537
 3655TIP3    H232525   4.502   3.416   7.650 -0.3514  1.2508 -1.4541
 3656TIP3   OH232526   1.301   6.554   7.782  0.1510 -0.5428 -0.1211
 3656TIP3    H132527   1.248   6.602   7.846 -1.1928 -0.9554 -0.8903
 3656TIP3    H232528   1.318   6.617   7.712 -0.9875 -0.9287 -0.7795
 3657TIP3   OH232529   1.786   1.130   1.782 -0.2314 -0.1936 -0.0324
 3657TIP3    H132530   1.755   1.219   1.797  2.5884  1.0128 -0.6959
 3657TIP3    H232531   1.797   1.093   1.870 -0.4329  0.5012  0.2893
 3658TIP3   OH232532   0.013   3.934   8.170 -0.4796 -0.5564 -0.0621
 3658TIP3    H132533  -0.024   4.009   8.216  1.1007  1.2649 -1.5975
 3658TIP3    H232534   0.076   3.896   8.231  0.7757  1.1427 -0.2304
 3659TIP3   OH232535   4.048   0.366   1.793  0.1186  0.0903  0.0115
 3659TIP3    H132536   4.025   0.451   1.830 -0.4311  2.0470 -4.2157
 3659TIP3    H232537   4.142   0.358   1.807  0.2690  1.6460  0.0980
 3660TIP3   OH232538   1.523   3.431   2.600 -0.4794  0.3256  0.7657
 3660TIP3    H132539   1.443   3.480   2.587 -0.5280  0.9058  2.8431
 3660TIP3    H232540   1.590   3.479   2.552 -1.1305  0.5918  0.1228
 3661TIP3   OH232541   3.268   0.097   1.498  0.6021  0.6815  0.2244
 3661TIP3    H132542   3.307   0.117   1.413 -1.1733 -1.1581 -1.0907
 3661TIP3    H232543   3.225   0.178   1.524  0.6605  1.0926 -0.9087
 3662TIP3   OH232544   1.550   5.986   2.029  0.2207 -0.2092  0.4447
 3662TIP3    H132545   1.579   5.896   2.017  1.3096  0.4108 -2.1173
 3662TIP3    H232546   1.626   6.031   2.066  2.1293  0.9098 -4.1560
 3663TIP3   OH232547   3.571   3.200   8.132 -0.2343 -0.2182  0.7146
 3663TIP3    H132548   3.497   3.260   8.142 -0.4803 -0.4294  0.2226
 3663TIP3    H232549   3.533   3.113   8.147 -0.0690 -0.3217  0.5335
 3664TIP3   OH232550   2.618   6.741   2.607  0.4151 -0.4970 -0.0943
 3664TIP3    H132551   2.645   6.765   2.695 -0.6439  0.1101  0.0847
 3664TIP3    H232552   2.611   6.824   2.561 -1.8314 -0.5356  0.0912
 3665TIP3   OH232553   6.377   6.396   1.071 -0.8315 -0.0485  0.8576
 3665TIP3    H132554   6.358   6.310   1.108  0.9482 -0.6167  0.5329
 3665TIP3    H232555   6.291   6.436   1.058 -1.7629 -2.1812 -0.0084
 3666TIP3   OH232556   6.491   5.457   2.327  0.2675  0.4166 -0.2651
 3666TIP3    H132557   6.575   5.414   2.312  0.0055  0.3125 -1.5294
 3666TIP3    H232558   6.501   5.497   2.413  0.7856 -1.5071  0.6366
 3667TIP3   OH232559   3.261   3.357   1.332  0.4706 -0.7602 -0.5671
 3667TIP3    H132560   3.191   3.312   1.283 -0.6643  0.2098  0.1000
 3667TIP3    H232561   3.338   3.350   1.275 -0.1614 -1.8498 -1.3353
 3668TIP3   OH232562   2.722   3.032   2.082 -0.2762 -0.1828 -0.3381
 3668TIP3    H132563   2.695   3.088   2.154 -0.4820 -1.1921  0.3881
 3668TIP3    H232564   2.806   2.995   2.110  0.1173  0.1477 -1.0350
 3669TIP3   OH232565   6.526   0.517   0.712 -0.0470 -0.1700 -0.0632
 3669TIP3    H132566   6.530   0.424   0.689  0.3360  0.0277 -0.8213
 3669TIP3    H232567   6.433   0.538   0.711 -0.0468 -0.1209 -1.7015
 3670TIP3   OH232568   3.554   0.880   8.697  0.3027 -0.0436 -1.1493
 3670TIP3    H132569   3.515   0.801   8.659  0.9908 -0.1371 -1.6704
 3670TIP3    H232570   3.542   0.948   8.631  0.3605  0.1124 -1.0007
 3671TIP3   OH232571   1.648   5.399   1.673  0.6843 -0.0161 -0.0185
 3671TIP3    H132572   1.667   5.402   1.579 -0.3089 -0.3415 -0.2397
 3671TIP3    H232573   1.632   5.307   1.692  1.7415 -0.0766  0.6637
 3672TIP3   OH232574   2.716   0.671   2.333 -0.2455 -0.0897  0.3583
 3672TIP3    H132575   2.721   0.581   2.365  1.7190  0.4677  1.7264
 3672TIP3    H232576   2.713   0.725   2.411 -1.2215  1.0851 -0.4462
 3673TIP3   OH232577   1.912   3.734   1.942  0.3616  0.0810 -0.3536
 3673TIP3    H132578   1.974   3.661   1.930  0.2680  0.2643 -2.1262
 3673TIP3    H232579   1.830   3.702   1.906  0.3267  1.0644 -1.1876
 3674TIP3   OH232580   1.929   5.396   8.242  0.3858 -0.1508  0.0653
 3674TIP3    H132581   2.007   5.391   8.187  0.9555  1.7433  0.6039
 3674TIP3    H232582   1.935   5.321   8.300  0.5326 -1.3656 -1.4636
 3675TIP3   OH232583   0.201   5.116   7.258  0.3673 -0.2551  0.0558
 3675TIP3    H132584   0.257   5.095   7.332 -0.0539 -0.1891  0.3967
 3675TIP3    H232585   0.162   5.201   7.281  2.2340  1.0787 -1.4064
 3676TIP3   OH232586   5.193   3.322   0.794  0.1638  0.1113 -0.0784
 3676TIP3    H132587   5.148   3.333   0.878  1.1570  2.6501  0.2170
 3676TIP3    H232588   5.160   3.395   0.741  1.9250  0.4526 -0.7454
 3677TIP3   OH232589   0.759   2.338   1.030 -0.6493  0.2800  0.3548
 3677TIP3    H132590   0.733   2.307   1.116  1.8166 -3.3208  0.0371
 3677TIP3    H232591   0.837   2.392   1.046  0.1017 -0.7891  0.4295
 3678TIP3   OH232592   3.927   5.828   1.471 -0.0703  0.2103  0.1740
 3678TIP3    H132593   3.916   5.765   1.399  0.1387  1.3447 -0.8745
 3678TIP3    H232594   3.880   5.788   1.544 -0.0359 -1.1184 -0.4898
 3679TIP3   OH232595   6.794   0.669   8.589 -0.0086  0.5068  0.4328
 3679TIP3    H132596   6.701   0.649   8.604 -0.1143  0.2796 -0.5089
 3679TIP3    H232597   6.840   0.613   8.651 -0.3723 -1.5673 -1.0562
 3680TIP3   OH232598   2.365   0.224   2.407 -0.2288 -0.1397 -0.3839
 3680TIP3    H132599   2.310   0.147   2.422  0.9543 -1.2262 -1.4142
 3680TIP3    H232600   2.305   0.298   2.416 -1.0434 -1.0189  2.4398
 3681TIP3   OH232601   0.499   3.849   7.842  0.5821  0.0982  0.1879
 3681TIP3    H132602   0.484   3.901   7.763 -0.8040  1.9546  1.5702
 3681TIP3    H232603   0.581   3.882   7.877  1.2007 -0.7302 -0.4295
 3682TIP3   OH232604   6.126   6.620   1.648  0.0043  0.0981 -0.2550
 3682TIP3    H132605   6.048   6.671   1.628  0.4875  0.8686 -0.2197
 3682TIP3    H232606   6.127   6.615   1.744 -1.1010 -1.6824 -0.2961
 3683TIP3   OH232607   3.881   1.641   0.717 -0.5332  0.3819 -0.1377
 3683TIP3    H132608   3.970   1.609   0.705 -0.3835  0.1386  1.4008
 3683TIP3    H232609   3.859   1.616   0.807 -2.8663 -1.3500 -1.0991
 3684TIP3   OH232610   3.558   3.753   0.742 -0.3619 -0.4943  0.1554
 3684TIP3    H132611   3.645   3.740   0.706 -0.1809 -1.9966  1.0473
 3684TIP3    H232612   3.559   3.706   0.826 -1.7450  0.2046  0.6018
 3685TIP3   OH232613   0.773   3.958   1.544 -0.4002  0.5040  0.0803
 3685TIP3    H132614   0.754   3.948   1.451  0.4934  0.5204 -0.1146
 3685TIP3    H232615   0.736   4.043   1.567  0.4333  1.0517 -0.5584
 3686TIP3   OH232616   4.445   0.308   1.482  0.6300 -0.7823  0.2136
 3686TIP3    H132617   4.429   0.218   1.453  0.5951 -0.7046 -0.0117
 3686TIP3    H232618   4.383   0.361   1.430  0.2871 -0.6829  0.7134
 3687TIP3   OH232619   1.641   6.596   7.688  0.7084  0.0586  0.0390
 3687TIP3    H132620   1.558   6.611   7.735 -0.2474  0.3013 -1.6532
 3687TIP3    H232621   1.684   6.528   7.739 -0.2201  0.3981  1.3438
 3688TIP3   OH232622   3.638   3.312   1.402  0.2865 -0.0918 -0.7287
 3688TIP3    H132623   3.593   3.264   1.332 -2.4528  1.5548 -0.2311
 3688TIP3    H232624   3.590   3.395   1.409  0.4366 -0.1617  3.0745
 3689TIP3   OH232625   5.321   2.494   0.223 -0.2474  0.4433  0.2871
 3689TIP3    H132626   5.284   2.484   0.135  0.9862  0.2223 -0.2384
 3689TIP3    H232627   5.409   2.529   0.207  0.2614 -0.2734  1.3902
 3690TIP3   OH232628   0.888   5.878   0.001  0.5018  0.3478 -0.5232
 3690TIP3    H132629   0.823   5.949   0.003 -0.6087 -0.6440 -0.4293
 3690TIP3    H232630   0.896   5.850   0.092  1.5447  0.8725 -0.4407
 3691TIP3   OH232631   1.731   3.691   0.539  0.2790 -0.0255 -0.1842
 3691TIP3    H132632   1.664   3.754   0.561  1.3692  0.9768  0.3914
 3691TIP3    H232633   1.733   3.690   0.443  0.6652  1.3109 -0.2137
 3692TIP3   OH232634   6.773   1.552   7.497  0.0237  0.0520 -0.3393
 3692TIP3    H132635   6.726   1.471   7.477  0.4451 -0.3335  0.1861
 3692TIP3    H232636   6.745   1.613   7.430 -1.4373 -0.0840  0.0988
 3693TIP3   OH232637   5.671   0.853   0.777  0.3317 -0.3110  0.1499
 3693TIP3    H132638   5.759   0.821   0.798  0.8695 -0.7490 -2.4242
 3693TIP3    H232639   5.670   0.943   0.808  0.4283 -1.2820  3.2860
 3694TIP3   OH232640   4.611   3.488   0.060 -0.2547 -0.1284 -0.1298
 3694TIP3    H132641   4.569   3.402   0.059 -2.3460  0.8472 -0.6365
 3694TIP3    H232642   4.705   3.468   0.059 -0.6677 -2.3964 -0.9281
 3695TIP3   OH232643   5.937   5.727   8.732  0.2339  0.2945  0.4890
 3695TIP3    H132644   5.934   5.689   8.644 -1.1551  0.6602  0.3617
 3695TIP3    H232645   5.974   5.658   8.786 -0.4470 -0.5532 -0.0953
 3696TIP3   OH232646   1.677   2.378   1.190  0.6579 -0.8440 -0.4907
 3696TIP3    H132647   1.692   2.379   1.284  0.7201 -0.3996 -0.5045
 3696TIP3    H232648   1.710   2.292   1.162  0.9175 -0.8574 -0.1542
 3697TIP3   OH232649   4.207   0.482   0.578 -0.2405 -0.0652 -0.2748
 3697TIP3    H132650   4.174   0.474   0.667  0.6958  0.6355  0.1622
 3697TIP3    H232651   4.298   0.453   0.583  0.3667  1.6512 -0.6017
 3698TIP3   OH232652   3.326   4.617   1.378  0.0538  0.2802  0.1021
 3698TIP3    H132653   3.334   4.569   1.461  3.0196 -0.1071 -0.3235
 3698TIP3    H232654   3.316   4.709   1.404 -0.2402  0.0373  0.8733
 3699TIP3   OH232655   2.698   3.684   1.953 -0.1949  0.4024  0.6508
 3699TIP3    H132656   2.773   3.710   1.900 -0.0628 -0.7228  0.2541
 3699TIP3    H232657   2.676   3.762   2.003 -2.6175  2.8363 -3.6148
 3700TIP3   OH232658   5.370   5.812   6.889 -0.6055 -0.8559 -0.2205
 3700TIP3    H132659   5.457   5.792   6.854  0.3330  0.8026  1.0253
 3700TIP3    H232660   5.350   5.739   6.947  1.2029 -0.0419  1.5561
 3701TIP3   OH232661   6.662   6.166   0.526 -0.6653  0.0396  0.2305
 3701TIP3    H132662   6.606   6.137   0.454 -0.2609 -0.9706  0.3122
 3701TIP3    H232663   6.718   6.233   0.487 -1.4759  0.5999 -0.0087
 3702TIP3   OH232664   6.128   4.102   7.076  0.6074 -0.3221  0.3267
 3702TIP3    H132665   6.038   4.112   7.044  1.0154 -2.3266 -1.6044
 3702TIP3    H232666   6.168   4.187   7.059 -0.6110  0.2765  0.2801
 3703TIP3   OH232667   5.795   6.105   8.215  0.1008 -0.2260 -0.0029
 3703TIP3    H132668   5.760   6.037   8.159  0.9741 -1.0863  0.4560
 3703TIP3    H232669   5.733   6.177   8.208  0.0307 -0.4119 -1.8270
 3704TIP3   OH232670   5.452   5.064   1.318 -0.1109  0.4912  0.1730
 3704TIP3    H132671   5.479   5.151   1.289 -0.2072  0.6445  0.5298
 3704TIP3    H232672   5.524   5.033   1.373 -0.5347  0.7972  0.9218
 3705TIP3   OH232673   3.626   1.021   7.121 -0.1452 -0.0151  0.4753
 3705TIP3    H132674   3.705   1.023   7.068 -1.4218  2.2558 -1.5660
 3705TIP3    H232675   3.571   0.955   7.079 -0.1635 -0.0309  0.5243
 3706TIP3   OH232676   3.276   6.670   2.335  0.2778 -0.1543 -0.1396
 3706TIP3    H132677   3.224   6.693   2.258 -0.3016  0.2043  0.3493
 3706TIP3    H232678   3.293   6.754   2.377  1.2285 -0.2718 -0.2717
 3707TIP3   OH232679   4.808   3.748   2.025  0.2942 -0.7325  0.3608
 3707TIP3    H132680   4.797   3.716   1.935 -2.4336  1.0131 -0.0376
 3707TIP3    H232681   4.868   3.822   2.017 -0.8570  0.1774 -0.3058
 3708TIP3   OH232682   3.255   4.040   8.653 -0.2851  0.2978 -0.6131
 3708TIP3    H132683   3.335   4.011   8.697 -0.2116  1.4332  0.0494
 3708TIP3    H232684   3.272   4.028   8.560  0.5026  0.1576 -0.4555
 3709TIP3   OH232685   1.227   1.244   7.101 -0.3594 -0.4853 -0.2656
 3709TIP3    H132686   1.252   1.152   7.088  2.5823  0.3120 -1.1254
 3709TIP3    H232687   1.206   1.275   7.013  1.7567  0.3859 -0.5199
 3710TIP3   OH232688   2.823   2.620   0.896 -0.2597 -0.3268  0.4214
 3710TIP3    H132689   2.841   2.662   0.812 -0.0901 -2.0930 -0.4686
 3710TIP3    H232690   2.727   2.621   0.903 -0.2351  0.8642  0.7866
 3711TIP3   OH232691   6.277   2.460   2.020 -0.3181  0.8296 -0.0397
 3711TIP3    H132692   6.194   2.436   1.978  0.5155  0.1087 -1.3598
 3711TIP3    H232693   6.294   2.550   1.992  1.6686 -0.5153 -3.9290
 3712TIP3   OH232694   2.613   0.541   0.128 -0.0457 -0.8226 -0.0245
 3712TIP3    H132695   2.553   0.583   0.190 -0.7688 -0.6804 -0.8101
 3712TIP3    H232696   2.654   0.471   0.179  1.4176  0.9768  1.3936
 3713TIP3   OH232697   5.272   4.734   1.643 -0.0072  0.1419  0.0719
 3713TIP3    H132698   5.301   4.652   1.682  0.8808  0.3196 -0.2000
 3713TIP3    H232699   5.290   4.800   1.709 -2.0297 -0.0329  0.8705
 3714TIP3   OH232700   2.553   5.450   0.312 -0.3684 -0.4205 -0.0949
 3714TIP3    H132701   2.468   5.414   0.338 -0.4520  0.1198  0.3961
 3714TIP3    H232702   2.561   5.531   0.363 -0.5230  0.6596 -1.7113
 3715TIP3   OH232703   1.301   2.333   0.194  0.2246  0.1866  0.5058
 3715TIP3    H132704   1.225   2.387   0.173  0.9552  1.2080  0.4273
 3715TIP3    H232705   1.280   2.295   0.279  1.4727  4.1735  2.8867
 3716TIP3   OH232706   1.953   0.150   2.161 -0.3250  0.0643 -0.1423
 3716TIP3    H132707   1.858   0.157   2.149 -0.4457  1.5172  1.3692
 3716TIP3    H232708   1.990   0.201   2.089 -0.7654  1.0912  0.3397
 3717TIP3   OH232709   0.570   2.139   8.316 -0.6243  0.1654 -0.2973
 3717TIP3    H132710   0.659   2.175   8.314 -0.7336  0.6483  1.4111
 3717TIP3    H232711   0.580   2.048   8.288  0.4172  0.2060 -0.1086
 3718TIP3   OH232712   1.166   5.457   7.888 -0.0521  0.5569 -0.6353
 3718TIP3    H132713   1.151   5.366   7.916  1.9080  0.3944  0.0158
 3718TIP3    H232714   1.083   5.483   7.848 -2.5897  0.2524  3.7784
 3719TIP3   OH232715   1.238   4.637   7.150 -0.1281 -0.3288  0.6240
 3719TIP3    H132716   1.223   4.562   7.094 -0.6902 -0.0871  0.4421
 3719TIP3    H232717   1.302   4.690   7.103  0.7105 -0.9696  1.0224
 3720TIP3   OH232718   5.472   5.846   0.282  0.1325 -0.5668 -0.6546
 3720TIP3    H132719   5.457   5.857   0.376  0.7423  1.5505 -0.7516
 3720TIP3    H232720   5.562   5.814   0.275  0.7437  1.0431 -0.5396
 3721TIP3   OH232721   2.320   0.025   8.814 -0.3177  0.4009 -0.1370
 3721TIP3    H132722   2.233   0.065   8.813 -2.6997 -4.0786  0.5769
 3721TIP3    H232723   2.324  -0.024   8.731  0.8318 -0.7187  0.5474
 3722TIP3   OH232724   4.353   4.771   7.347 -0.3214  0.4443 -1.2171
 3722TIP3    H132725   4.329   4.732   7.263 -1.8564  0.1183 -0.6646
 3722TIP3    H232726   4.429   4.720   7.376 -2.4822 -2.5335 -0.3226
 3723TIP3   OH232727   4.818   1.726   8.648 -0.2789 -0.2332  0.1980
 3723TIP3    H132728   4.729   1.692   8.636 -0.5727  1.0665 -1.6257
 3723TIP3    H232729   4.833   1.782   8.572  1.6185  0.6300  1.1517
 3724TIP3   OH232730   5.722   3.187   2.421 -0.2055 -0.0643 -0.1065
 3724TIP3    H132731   5.762   3.120   2.366 -1.5173  0.8418 -2.3107
 3724TIP3    H232732   5.678   3.138   2.490 -0.2500 -1.4392 -1.0678
 3725TIP3   OH232733   5.386   5.841   0.550  0.3999  0.1841 -0.4113
 3725TIP3    H132734   5.292   5.833   0.540  0.4058 -0.3052 -0.0803
 3725TIP3    H232735   5.409   5.779   0.619  0.7514  1.4090  0.6259
 3726TIP3   OH232736   0.611   1.421   2.830 -0.0248  0.6036 -0.2870
 3726TIP3    H132737   0.532   1.368   2.821  0.4881 -0.3078  0.3249
 3726TIP3    H232738   0.580   1.508   2.855 -0.8231  0.2023  0.1381
 3727TIP3   OH232739   1.660   1.675   8.788 -0.2498  0.5024 -0.1413
 3727TIP3    H132740   1.630   1.697   8.699 -1.0015  1.0581  0.2418
 3727TIP3    H232741   1.600   1.608   8.818  0.1211  0.1787 -0.1157
 3728TIP3   OH232742   4.686   3.629   8.069 -0.3478 -0.0031 -0.1703
 3728TIP3    H132743   4.668   3.615   7.976 -0.1013 -0.8498 -0.0943
 3728TIP3    H232744   4.695   3.724   8.077 -1.8116  0.2213 -0.7429
 3729TIP3   OH232745   3.683   6.318   1.951 -0.0114  0.5717  0.5237
 3729TIP3    H132746   3.616   6.279   1.895  1.7275 -0.9141 -0.6391
 3729TIP3    H232747   3.645   6.315   2.039 -2.6426  2.5740 -0.4148
 3730TIP3   OH232748   6.227   4.617   1.138  0.6528  0.3435 -0.7816
 3730TIP3    H132749   6.310   4.659   1.117  0.4819  0.9417 -0.2582
 3730TIP3    H232750   6.205   4.567   1.059  0.6969  1.4815 -1.5310
 3731TIP3   OH232751   4.584   4.783   8.135  0.0040  0.0742  0.0142
 3731TIP3    H132752   4.504   4.817   8.094 -1.4049 -1.6827  1.1253
 3731TIP3    H232753   4.555   4.755   8.223  1.8945 -0.4012  0.5211
 3732TIP3   OH232754   0.316   3.932   1.086 -0.3740 -1.0374  0.5144
 3732TIP3    H132755   0.346   3.854   1.132  2.3040  0.3249  1.2523
 3732TIP3    H232756   0.377   3.943   1.013  1.1562  1.8367  2.0548
 3733TIP3   OH232757   6.631   5.752   7.598 -0.5628 -0.0585  0.5898
 3733TIP3    H132758   6.575   5.706   7.660  0.0647  0.3238  1.4620
 3733TIP3    H232759   6.718   5.714   7.612 -0.0195  1.3894  1.3618
 3734TIP3   OH232760   4.531   6.206   1.520  0.1274 -0.1794 -0.1620
 3734TIP3    H132761   4.554   6.162   1.601  0.0862  1.5117  0.8281
 3734TIP3    H232762   4.608   6.258   1.499  0.4078 -1.1367 -1.6254
 3735TIP3   OH232763   3.811   6.108   2.908  0.0832 -0.1468 -0.2915
 3735TIP3    H132764   3.773   6.181   2.859 -2.0572  0.1292  1.5899
 3735TIP3    H232765   3.765   6.030   2.874  0.6705 -0.3332 -0.6746
 3736TIP3   OH232766   6.775   5.884   8.284  0.2692  0.6923 -0.4168
 3736TIP3    H132767   6.791   5.797   8.321 -2.3082 -0.2122 -1.2437
 3736TIP3    H232768   6.822   5.944   8.343  1.2656 -1.1486  0.7569
 3737TIP3   OH232769   0.883   2.673   1.134  0.8611  0.6523  0.1698
 3737TIP3    H132770   0.796   2.701   1.108  0.0390 -0.6502  1.3870
 3737TIP3    H232771   0.926   2.752   1.167 -0.8023  0.8378  2.0136
 3738TIP3   OH232772   5.204   4.480   7.183 -0.2038 -0.3611 -0.5388
 3738TIP3    H132773   5.132   4.489   7.120 -0.1085 -0.2901 -0.6349
 3738TIP3    H232774   5.167   4.513   7.265  0.4005  1.7068 -1.0525
 3739TIP3   OH232775   1.862   4.611   0.962 -0.3837 -0.0654 -0.4042
 3739TIP3    H132776   1.861   4.546   0.892  0.9917 -0.0349 -0.4815
 3739TIP3    H232777   1.943   4.660   0.948 -1.1311  1.3266 -0.0352
 3740TIP3   OH232778   6.071   1.770   7.951 -0.0014  0.2473  0.0210
 3740TIP3    H132779   5.990   1.735   7.989  0.7170 -0.2642  1.1282
 3740TIP3    H232780   6.132   1.697   7.953  1.0539  1.1147  0.9220
 3741TIP3   OH232781   2.289   0.947   8.349  0.1246  0.3287  0.2038
 3741TIP3    H132782   2.368   0.912   8.307  1.3855  0.3350  2.3926
 3741TIP3    H232783   2.310   1.038   8.368 -1.6212  1.2474 -1.8687
 3742TIP3   OH232784   2.630   6.556   1.423 -0.4979 -0.3293 -0.2655
 3742TIP3    H132785   2.693   6.587   1.357 -0.7048  1.9134  0.5009
 3742TIP3    H232786   2.684   6.509   1.487 -0.0750 -1.1108 -1.1646
 3743TIP3   OH232787   2.133   3.584   8.251 -0.2306  0.1527  0.0542
 3743TIP3    H132788   2.181   3.572   8.169  0.1366  1.7872  0.0037
 3743TIP3    H232789   2.201   3.586   8.319 -0.4841 -0.5801  0.3378
 3744TIP3   OH232790   2.315   3.436   0.360  0.0736  0.2283 -0.6624
 3744TIP3    H132791   2.282   3.429   0.449  0.6848  1.0262 -0.3575
 3744TIP3    H232792   2.410   3.425   0.369  0.4704  2.8095 -0.8339
 3745TIP3   OH232793   0.019   0.761   1.932 -0.2597  0.0300  0.6976
 3745TIP3    H132794   0.053   0.698   1.996 -1.0008  0.8212  1.9044
 3745TIP3    H232795   0.093   0.821   1.917  0.5490 -1.2370 -0.6823
 3746TIP3   OH232796   0.431   2.927   1.340 -0.0989 -0.6672  0.0056
 3746TIP3    H132797   0.466   2.850   1.384  0.1593  0.1150  1.2269
 3746TIP3    H232798   0.347   2.944   1.384  0.4506  0.4886  0.6415
 3747TIP3   OH232799   1.407   4.190   8.519 -0.1308  0.5522 -0.2694
 3747TIP3    H132800   1.381   4.191   8.427 -0.2652 -1.8060 -0.3176
 3747TIP3    H232801   1.335   4.233   8.565 -2.1495 -1.9342 -0.8752
 3748TIP3   OH232802   6.383   2.482   1.705 -0.3618 -0.1740 -0.0657
 3748TIP3    H132803   6.397   2.396   1.744  0.1575 -1.0619 -2.0578
 3748TIP3    H232804   6.288   2.493   1.705 -0.4137 -0.5416  0.5864
 3749TIP3   OH232805   4.827   5.455   1.283 -0.0584 -0.1759  0.2910
 3749TIP3    H132806   4.762   5.493   1.342 -1.7942 -0.1293 -1.5224
 3749TIP3    H232807   4.782   5.450   1.198  1.6446 -2.0330 -0.5977
 3750TIP3   OH232808   3.539   0.357   8.533  0.1565  0.4624 -0.1581
 3750TIP3    H132809   3.519   0.282   8.476  1.6589  0.5675 -0.8776
 3750TIP3    H232810   3.499   0.334   8.617  1.9678 -1.9540  0.1534
 3751TIP3   OH232811   0.261   1.214   6.854 -0.0407  0.4289  0.4126
 3751TIP3    H132812   0.181   1.203   6.905 -0.5503 -0.0996 -0.4704
 3751TIP3    H232813   0.246   1.164   6.774  1.3071  0.0619  0.3623
 3752TIP3   OH232814   4.728   3.449   6.853  0.0879  0.0195  0.7591
 3752TIP3    H132815   4.638   3.419   6.842  0.2873 -0.7730  1.2030
 3752TIP3    H232816   4.730   3.485   6.942  0.4988 -1.1131  1.2358
 3753TIP3   OH232817   2.076   3.593   8.611  0.4002 -0.0041 -0.3278
 3753TIP3    H132818   2.003   3.550   8.655 -0.2170  2.6526  1.4816
 3753TIP3    H232819   2.041   3.618   8.525  0.1959 -1.4064 -0.6662
 3754TIP3   OH232820   6.140   1.822   1.381  0.1086 -0.0383  0.2144
 3754TIP3    H132821   6.083   1.862   1.447  1.4142  0.8889  0.8423
 3754TIP3    H232822   6.155   1.891   1.317 -0.2003 -0.5646 -0.4311
 3755TIP3   OH232823   1.932   4.070   1.073  0.3129 -0.8317 -0.0186
 3755TIP3    H132824   1.895   3.990   1.110  0.0353 -0.9507 -0.5475
 3755TIP3    H232825   1.858   4.131   1.070  0.5577 -0.4976  0.5282
 3756TIP3   OH232826   1.545   0.183   0.430  0.7951 -0.0356  0.1995
 3756TIP3    H132827   1.597   0.117   0.476  0.3132 -0.2013  0.5102
 3756TIP3    H232828   1.582   0.185   0.341  0.0431 -1.6003 -0.1928
 3757TIP3   OH232829   0.437   0.459   0.490 -0.1522 -0.3818  0.1078
 3757TIP3    H132830   0.380   0.448   0.414 -0.3115 -1.2837  0.3479
 3757TIP3    H232831   0.392   0.522   0.545 -0.5007 -0.4446 -0.1034
 3758TIP3   OH232832   1.341   1.046   2.290 -0.2092 -0.1284 -0.7257
 3758TIP3    H132833   1.259   1.034   2.338 -1.0060  0.8344 -1.8213
 3758TIP3    H232834   1.408   1.047   2.359 -1.0904 -0.9322  0.1864
 3759TIP3   OH232835   1.634   3.902   8.160  0.0220  0.6459 -0.5052
 3759TIP3    H132836   1.650   3.932   8.249  1.7367  0.8649 -0.8528
 3759TIP3    H232837   1.717   3.916   8.115 -0.0256 -1.8242 -1.4915
 3760TIP3   OH232838   3.582   6.665   8.692  0.2483 -0.1260 -0.3335
 3760TIP3    H132839   3.600   6.600   8.760 -1.1635  0.3751  0.5578
 3760TIP3    H232840   3.666   6.676   8.646  0.5071 -2.6640 -0.6184
 3761TIP3   OH232841   4.251   3.907   0.056  0.6052 -0.1059  0.8184
 3761TIP3    H132842   4.173   3.896   0.111 -1.2315 -0.7410 -1.7391
 3761TIP3    H232843   4.289   3.990   0.085 -0.8040  0.0705  2.3463
 3762TIP3   OH232844   4.239   5.727   2.218  0.9485 -0.3660  0.0132
 3762TIP3    H132845   4.257   5.695   2.306  1.8034  0.3695  0.1151
 3762TIP3    H232846   4.220   5.648   2.167 -1.4381 -0.6781  1.2508
 3763TIP3   OH232847   1.413   4.041   7.395 -0.3755  0.4019  0.7139
 3763TIP3    H132848   1.358   4.084   7.330  0.1508 -0.0400 -0.0275
 3763TIP3    H232849   1.469   3.982   7.345  0.1102  0.1314  1.5532
 3764TIP3   OH232850   5.475   5.011   7.109 -0.2592  0.1531 -0.2677
 3764TIP3    H132851   5.395   5.048   7.071  0.5556  0.5166 -1.7202
 3764TIP3    H232852   5.471   5.035   7.201 -2.5002 -1.0651  0.0329
 3765TIP3   OH232853   0.838   1.610   7.521  0.6762  0.0733 -0.2738
 3765TIP3    H132854   0.834   1.564   7.605  3.1651 -1.1120 -0.7414
 3765TIP3    H232855   0.754   1.657   7.516  0.7218  0.7478  3.1546
 3766TIP3   OH232856   4.338   0.100   0.184 -0.3915  0.4625  0.1382
 3766TIP3    H132857   4.301   0.029   0.132 -0.5287 -0.4945  1.4942
 3766TIP3    H232858   4.411   0.133   0.132 -1.9239  1.0907 -1.6916
 3767TIP3   OH232859   1.681   3.456   8.360  0.2315 -0.1041  0.0812
 3767TIP3    H132860   1.645   3.402   8.289  0.8640  0.1400 -0.4361
 3767TIP3    H232861   1.719   3.393   8.420 -2.1381 -0.4767  1.3124
 3768TIP3   OH232862   5.774   2.019   8.045 -0.0357  0.2436 -0.0352
 3768TIP3    H132863   5.764   2.042   7.953  0.4991 -1.0214 -0.4380
 3768TIP3    H232864   5.808   1.930   8.043  0.6561  0.4565  1.3883
 3769TIP3   OH232865   4.448   3.417   1.477  0.3677 -0.0449  0.4190
 3769TIP3    H132866   4.397   3.352   1.428  1.0231  0.9436 -1.7125
 3769TIP3    H232867   4.392   3.494   1.481  0.4844  0.0193  0.8739
 3770TIP3   OH232868   6.699   6.044   1.650 -0.1041 -0.2713  0.3919
 3770TIP3    H132869   6.766   6.110   1.633  0.6040 -1.3584 -1.1984
 3770TIP3    H232870   6.618   6.085   1.619  0.4260 -0.3615 -1.1953
 3771TIP3   OH232871   0.041   5.264   1.359 -1.1514  0.3040  0.4392
 3771TIP3    H132872   0.101   5.191   1.379 -0.4624  1.0836  1.2991
 3771TIP3    H232873   0.076   5.303   1.279 -0.3990  0.8506  1.0218
 3772TIP3   OH232874   4.550   2.477   8.068  0.1177 -0.0930 -0.0943
 3772TIP3    H132875   4.574   2.568   8.057  0.2099  0.0726  1.3545
 3772TIP3    H232876   4.466   2.480   8.114 -0.0158 -0.7382 -0.2844
 3773TIP3   OH232877   0.336   5.100   0.533 -0.2689  0.5146  0.2984
 3773TIP3    H132878   0.269   5.126   0.595 -1.2158  0.7850 -0.8118
 3773TIP3    H232879   0.379   5.181   0.507  0.1557  0.3980  0.6128
 3774TIP3   OH232880   2.525   2.808   0.771 -0.3596  0.1163 -0.4580
 3774TIP3    H132881   2.543   2.718   0.795  1.1909 -0.0451 -2.0497
 3774TIP3    H232882   2.437   2.805   0.731 -1.2853 -0.2430  1.4966
 3775TIP3   OH232883   4.748   3.213   0.423 -0.3893 -0.4588  0.4065
 3775TIP3    H132884   4.653   3.215   0.412 -0.2472 -0.1129 -0.9485
 3775TIP3    H232885   4.771   3.120   0.420 -0.5029 -0.4516 -1.1979
 3776TIP3   OH232886   3.853   5.094   8.271  0.3253  0.5193 -0.0843
 3776TIP3    H132887   3.909   5.088   8.348  1.3383  0.7297 -0.7793
 3776TIP3    H232888   3.883   5.173   8.226  0.4410 -0.1410 -1.2067
 3777TIP3   OH232889   4.779   4.891   0.943  0.3717 -0.0125  0.1726
 3777TIP3    H132890   4.734   4.807   0.942  1.6518 -0.7679  1.6026
 3777TIP3    H232891   4.812   4.899   1.032  0.1602  2.0949  0.0975
 3778TIP3   OH232892   5.850   1.665   0.301  0.4166  0.4650  0.0098
 3778TIP3    H132893   5.795   1.677   0.378 -0.6682  1.1095 -0.8484
 3778TIP3    H232894   5.825   1.579   0.267  2.1283 -0.6273  1.3076
 3779TIP3   OH232895   4.134   6.716   0.110  0.1204  0.1415 -0.0099
 3779TIP3    H132896   4.212   6.678   0.149 -0.2350 -1.8440 -1.0940
 3779TIP3    H232897   4.164   6.751   0.026  0.4802  2.5770  1.0455
 3780TIP3   OH232898   1.521   1.287   2.910 -0.0965  0.3067 -0.0010
 3780TIP3    H132899   1.536   1.200   2.945  1.2824  0.0047 -1.2598
 3780TIP3    H232900   1.600   1.336   2.934 -0.7169  1.1272  0.4127
 3781TIP3   OH232901   3.544   2.108   7.662 -0.0157 -0.0157 -0.3918
 3781TIP3    H132902   3.485   2.155   7.604  0.5312  1.3719  0.1087
 3781TIP3    H232903   3.617   2.082   7.606  0.0978  0.5478 -0.5184
 3782TIP3   OH232904   4.391   0.924   8.312  0.2128 -0.1943  0.1367
 3782TIP3    H132905   4.300   0.951   8.311  0.6517  1.4201 -1.8065
 3782TIP3    H232906   4.416   0.928   8.405 -1.1594  1.2476  0.4782
 3783TIP3   OH232907   5.291   2.040   0.154  0.3846 -0.2230 -0.3849
 3783TIP3    H132908   5.257   2.023   0.242 -0.4863 -0.6854 -0.7950
 3783TIP3    H232909   5.336   1.959   0.129 -0.3472 -0.5116 -0.7973
 3784TIP3   OH232910   1.945   3.981   8.505 -0.2337  0.1696 -0.7223
 3784TIP3    H132911   1.851   3.983   8.490 -0.4219 -0.2867  0.2983
 3784TIP3    H232912   1.982   3.943   8.425 -0.9564 -0.0535 -0.9531
 3785TIP3   OH232913   0.948   2.394   8.074 -0.3892 -0.4138  0.5469
 3785TIP3    H132914   0.997   2.430   8.148 -0.7978  2.1399 -0.3372
 3785TIP3    H232915   1.012   2.392   8.003 -0.5816 -0.8082  0.3813
 3786TIP3   OH232916   0.952   2.436   1.285 -0.2444  0.3124 -0.3111
 3786TIP3    H132917   0.920   2.513   1.238 -0.1555  1.3205  1.2261
 3786TIP3    H232918   0.954   2.463   1.377 -1.1430 -1.8490  0.3917
 3787TIP3   OH232919   4.217   5.854   1.725  0.3985 -0.4446 -0.4060
 3787TIP3    H132920   4.272   5.873   1.801 -0.1376  0.6121 -0.2655
 3787TIP3    H232921   4.214   5.936   1.676 -1.4942 -0.2885 -0.1034
 3788TIP3   OH232922   0.070   4.226   1.084  0.4968 -0.2813  0.1607
 3788TIP3    H132923   0.056   4.141   1.125 -0.0994  0.8771  2.5522
 3788TIP3    H232924   0.145   4.263   1.132 -0.6677  1.4163  0.7762
 3789TIP3   OH232925   0.830   6.824   0.056  0.3284 -0.1325  0.6005
 3789TIP3    H132926   0.881   6.836  -0.024  1.1804 -1.0364  0.9867
 3789TIP3    H232927   0.762   6.761   0.032 -0.3379  0.7377  0.1991
 3790TIP3   OH232928   3.616   4.378   8.630  0.3848  0.1108 -0.5965
 3790TIP3    H132929   3.598   4.394   8.537 -0.7640 -0.5121 -0.5071
 3790TIP3    H232930   3.531   4.350   8.666  0.8098  0.3716  0.6455
 3791TIP3   OH232931   3.407   3.221   7.228  0.1327  0.4178  0.3495
 3791TIP3    H132932   3.327   3.257   7.188 -0.8298 -1.7709  0.1115
 3791TIP3    H232933   3.436   3.154   7.165  1.5905  0.4755  0.9300
 3792TIP3   OH232934   3.765   3.222   2.671  0.0477  0.1982 -0.7428
 3792TIP3    H132935   3.784   3.223   2.764  0.7162 -1.1732 -0.8277
 3792TIP3    H232936   3.777   3.312   2.642  1.1786  0.3880  0.2540
 3793TIP3   OH232937   3.226   2.703   8.295 -0.6441 -0.5018  0.1785
 3793TIP3    H132938   3.276   2.757   8.356 -1.9899  0.1871  0.7192
 3793TIP3    H232939   3.259   2.614   8.309  3.6884  0.3327 -2.7532
 3794TIP3   OH232940   3.828   2.810   2.937 -0.2899  0.8309 -0.0078
 3794TIP3    H132941   3.904   2.827   2.993  0.3002  0.9466 -0.8213
 3794TIP3    H232942   3.753   2.834   2.990  0.2239  0.3644  0.9461
 3795TIP3   OH232943   4.478   3.132   6.900  0.3141 -0.6299 -0.1407
 3795TIP3    H132944   4.554   3.103   6.952 -0.7644 -1.8042  0.8727
 3795TIP3    H232945   4.428   3.051   6.886 -1.3343  0.2915  0.2363
 3796TIP3   OH232946   6.291   2.164   8.115  0.4445 -0.6418  0.0016
 3796TIP3    H132947   6.280   2.193   8.206  0.8127  2.1922 -0.7714
 3796TIP3    H232948   6.203   2.172   8.077  0.5701 -0.4394 -0.2482
 3797TIP3   OH232949   1.987   6.082   2.624 -0.2144  0.3273 -0.5859
 3797TIP3    H132950   2.070   6.075   2.576  0.2782  0.3398  0.2479
 3797TIP3    H232951   1.963   5.991   2.643  0.4382  0.3788  0.5530
 3798TIP3   OH232952   6.183   2.633   2.276 -0.1349  0.3989  0.2528
 3798TIP3    H132953   6.231   2.598   2.200 -1.6731 -0.0028 -0.5741
 3798TIP3    H232954   6.127   2.561   2.305 -0.9632  1.1497  0.5694
 3799TIP3   OH232955   1.169   1.843   7.598  0.1387 -0.4562 -0.5615
 3799TIP3    H132956   1.089   1.891   7.576  0.2025 -0.8291 -1.6833
 3799TIP3    H232957   1.145   1.751   7.590  0.9500 -0.5753 -2.0867
 3800TIP3   OH232958   5.295   3.708   7.450 -0.2530  0.2055  0.1174
 3800TIP3    H132959   5.283   3.675   7.361 -0.9600  0.5828  0.0653
 3800TIP3    H232960   5.385   3.742   7.451 -0.1067 -0.1575 -0.3292
 3801TIP3   OH232961   0.646   0.669   7.263  0.2878 -0.5838  0.0336
 3801TIP3    H132962   0.664   0.721   7.185  3.0262  1.2990  1.7026
 3801TIP3    H232963   0.731   0.632   7.287 -0.5987 -1.6509  1.7499
 3802TIP3   OH232964   1.917   2.970   8.421  0.1458 -0.0517 -0.1255
 3802TIP3    H132965   1.824   2.969   8.444  0.2667  1.0355  0.4695
 3802TIP3    H232966   1.961   2.940   8.501  0.4177  1.4097  0.3045
 3803TIP3   OH232967   4.777   3.938   0.316  0.2989  0.2814  0.0199
 3803TIP3    H132968   4.830   3.868   0.353 -0.5483  0.1347  1.0058
 3803TIP3    H232969   4.754   3.993   0.390 -0.9082  0.3361 -0.3658
 3804TIP3   OH232970   0.186   0.224   1.356 -0.1487 -0.3124 -0.1326
 3804TIP3    H132971   0.184   0.241   1.261 -0.1354  0.8508  0.0593
 3804TIP3    H232972   0.278   0.237   1.380 -0.1106 -0.8280  0.0101
 3805TIP3   OH232973   0.752   6.166   8.096  0.2708 -0.2415  0.5252
 3805TIP3    H132974   0.727   6.146   8.006 -0.0284 -1.1695  0.8078
 3805TIP3    H232975   0.720   6.255   8.110  1.8669  0.6091 -0.8386
 3806TIP3   OH232976   0.025   4.388   1.509  0.2942 -0.1764  0.1678
 3806TIP3    H132977   0.007   4.432   1.426 -0.7547  0.0006  0.4670
 3806TIP3    H232978   0.060   4.303   1.484 -2.2215 -1.0943 -0.5623
 3807TIP3   OH232979   1.536   0.941   0.693 -0.4980  0.4147  0.3965
 3807TIP3    H132980   1.608   0.882   0.715  0.0998  1.2147  0.6052
 3807TIP3    H232981   1.509   0.979   0.777 -1.2444  0.0332  0.3356
 3808TIP3   OH232982   5.929   2.731   7.227  0.1221  0.3401 -0.3772
 3808TIP3    H132983   5.854   2.776   7.189  0.7110  1.0534 -0.7089
 3808TIP3    H232984   6.000   2.795   7.225  0.9452 -0.5492 -0.7522
 3809TIP3   OH232985   5.373   2.213   0.795  0.2101 -0.0711  0.2578
 3809TIP3    H132986   5.375   2.302   0.829 -2.5427  0.2986 -0.3479
 3809TIP3    H232987   5.315   2.165   0.854 -1.2529 -0.4752 -1.4129
 3810TIP3   OH232988   1.943   6.521   8.080 -0.1034  0.7068  0.1847
 3810TIP3    H132989   1.953   6.443   8.135  0.5605  0.9070  0.3636
 3810TIP3    H232990   1.938   6.593   8.143  0.9067  0.9621 -0.0189
 3811TIP3   OH232991   2.688   3.187   8.192 -0.3067  0.2785 -0.4002
 3811TIP3    H132992   2.710   3.121   8.127 -0.0214 -1.0938  1.0383
 3811TIP3    H232993   2.607   3.227   8.160 -0.1970 -0.4025 -1.5570
 3812TIP3   OH232994   6.364   3.635   8.685 -0.2548  0.1178  0.3964
 3812TIP3    H132995   6.447   3.681   8.699 -0.5495  1.6875 -2.2524
 3812TIP3    H232996   6.303   3.678   8.744  0.5839 -0.3917  1.6698
 3813TIP3   OH232997   1.856   2.179   2.801  0.1434  0.5002 -0.7500
 3813TIP3    H132998   1.807   2.097   2.798 -0.9267  0.9295  1.7617
 3813TIP3    H232999   1.937   2.157   2.846 -1.2026  1.1161  2.2858
 3814TIP3   OH233000   5.709   4.977   7.627  0.3933  0.4743 -0.2465
 3814TIP3    H133001   5.785   5.016   7.671  0.5462 -0.4523  0.3546
 3814TIP3    H233002   5.697   5.029   7.548  1.3681  0.9338 -0.1053
 3815TIP3   OH233003   5.392   5.322   0.968  0.5984 -1.0665 -0.1802
 3815TIP3    H133004   5.369   5.360   1.053 -0.4794 -0.4075 -0.7388
 3815TIP3    H233005   5.328   5.252   0.955  1.0078 -1.4234 -0.2718
 3816TIP3   OH233006   0.977   3.078   1.387 -0.3096  0.5629 -0.1722
 3816TIP3    H133007   1.049   3.141   1.395 -0.7856  0.9790  1.1198
 3816TIP3    H233008   0.944   3.068   1.477  0.5391 -2.4747 -0.0955
 3817TIP3   OH233009   2.371   3.818   1.586  0.5000 -0.9224 -0.7652
 3817TIP3    H133010   2.311   3.750   1.557  0.0666 -0.6828 -0.4362
 3817TIP3    H233011   2.376   3.807   1.681  1.5870 -1.4391 -0.8637
 3818TIP3   OH233012   3.545   4.348   2.533  0.3962 -0.8402  0.5905
 3818TIP3    H133013   3.547   4.338   2.438  1.1522 -0.7951  0.5929
 3818TIP3    H233014   3.454   4.369   2.554  0.2163 -0.9134 -0.1164
 3819TIP3   OH233015   1.277   3.387   2.833 -0.4218 -0.0658  0.4549
 3819TIP3    H133016   1.270   3.292   2.819 -0.4697 -0.0605  0.4413
 3819TIP3    H233017   1.218   3.424   2.768 -0.2011 -0.0161  0.2832
 3820TIP3   OH233018   2.433   6.244   1.130  0.1402  0.0895 -0.1042
 3820TIP3    H133019   2.368   6.292   1.078  1.1383 -0.0225 -1.5005
 3820TIP3    H233020   2.513   6.296   1.121  0.1062  0.6539  2.2351
 3821TIP3   OH233021   3.022   6.428   1.218  0.1092 -0.0932 -0.1831
 3821TIP3    H133022   2.946   6.486   1.212 -2.6539 -2.9219  3.0359
 3821TIP3    H233023   3.020   6.377   1.137 -2.4830 -1.1175  0.4385
 3822TIP3   OH233024   5.312   3.868   0.190  0.0396  0.1324 -0.2840
 3822TIP3    H133025   5.285   3.952   0.227 -0.4657 -0.2741  0.2762
 3822TIP3    H233026   5.323   3.811   0.265 -2.0463 -1.0165 -0.7805
 3823TIP3   OH233027   2.716   1.327   0.106 -0.4364 -0.3313 -0.1750
 3823TIP3    H133028   2.743   1.293   0.192  0.4286  2.6414  0.8483
 3823TIP3    H233029   2.711   1.249   0.050  2.1417 -2.0333  1.7180
 3824TIP3   OH233030   4.766   0.766   8.237 -0.2165 -0.2447 -0.5131
 3824TIP3    H133031   4.691   0.821   8.215 -2.8495 -3.3498 -0.1038
 3824TIP3    H233032   4.744   0.731   8.324  2.1329 -0.6740 -0.0407
 3825TIP3   OH233033   1.730   2.907   1.850 -0.5530 -0.3222  0.1690
 3825TIP3    H133034   1.822   2.906   1.822 -0.4979 -2.0509  0.3414
 3825TIP3    H233035   1.727   2.973   1.920  0.6086 -0.4135  0.3251
 3826TIP3   OH233036   6.669   0.525   0.223  0.2756 -1.0480  0.3413
 3826TIP3    H133037   6.657   0.477   0.141 -1.7576  1.3331 -0.9091
 3826TIP3    H233038   6.595   0.500   0.278 -0.6461  0.3305 -0.2124
 3827TIP3   OH233039   5.790   4.048   1.672  0.2042  0.4975 -0.4289
 3827TIP3    H133040   5.804   4.068   1.764 -1.0510  1.6477 -0.4530
 3827TIP3    H233041   5.829   3.962   1.660  0.2668  0.2652  1.2051
 3828TIP3   OH233042   5.540   1.921   2.996  0.2065  0.2523 -0.1758
 3828TIP3    H133043   5.614   1.974   2.969  0.1092  0.6064  0.2400
 3828TIP3    H233044   5.507   1.881   2.915  1.7314 -1.0700 -0.1844
 3829TIP3   OH233045   3.840   4.572   1.933 -0.1610 -0.4041  0.2044
 3829TIP3    H133046   3.891   4.612   1.863  0.1254 -1.5089 -0.2338
 3829TIP3    H233047   3.837   4.639   2.001 -2.2081  1.5372 -1.6153
 3830TIP3   OH233048   3.333   6.701   8.327 -0.5772 -0.5319  0.3225
 3830TIP3    H133049   3.287   6.620   8.349 -1.0498 -0.0168  1.3294
 3830TIP3    H233050   3.278   6.741   8.260 -1.3899 -0.1453  1.1899
 3831TIP3   OH233051   2.597   5.349   1.006  0.2919 -0.3225 -0.3069
 3831TIP3    H133052   2.551   5.319   0.928  0.2537 -0.1356 -0.3569
 3831TIP3    H233053   2.673   5.396   0.973 -1.3059  2.4539 -0.3548
 3832TIP3   OH233054   2.499   2.974   0.240  0.7430  0.1038  0.0232
 3832TIP3    H133055   2.430   2.907   0.243 -0.0974  0.9668  0.7003
 3832TIP3    H233056   2.566   2.940   0.299  0.2978 -0.1182  0.4144
 3833TIP3   OH233057   2.898   0.330   7.661 -0.1717  0.3435  0.1986
 3833TIP3    H133058   2.937   0.292   7.740  0.7681 -1.5398 -1.0735
 3833TIP3    H233059   2.967   0.386   7.625 -0.1141  0.1851  0.0585
 3834TIP3   OH233060   4.085   3.621   8.265 -0.1479 -0.3319  0.3757
 3834TIP3    H133061   4.124   3.707   8.252 -0.2488 -0.3503 -0.0845
 3834TIP3    H233062   4.144   3.561   8.218  1.3597 -0.8829  2.8058
 3835TIP3   OH233063   3.854   1.811   2.131  0.2155 -0.5289 -0.1307
 3835TIP3    H133064   3.893   1.850   2.052  0.3419 -0.5037 -0.0554
 3835TIP3    H233065   3.918   1.747   2.161 -0.5551 -1.7576 -1.0054
 3836TIP3   OH233066   2.888   1.528   0.092 -0.2897  0.3722 -0.0158
 3836TIP3    H133067   2.851   1.440   0.096  0.6278  0.0061  0.7342
 3836TIP3    H233068   2.814   1.586   0.109 -0.9293 -0.2371 -0.6537
 3837TIP3   OH233069   0.965   3.312   7.636  0.1557 -0.3608  0.7604
 3837TIP3    H133070   0.906   3.274   7.571 -1.3154 -1.6657  2.7451
 3837TIP3    H233071   1.043   3.257   7.634  0.8435  0.5798 -0.9462
 3838TIP3   OH233072   0.430   5.691   1.029  0.2154 -0.0523 -0.1192
 3838TIP3    H133073   0.521   5.685   1.057 -0.1690 -0.2292  1.1720
 3838TIP3    H233074   0.384   5.727   1.105 -0.6025  1.2500 -1.1891
 3839TIP3   OH233075   4.013   2.461   6.996  0.0996  0.2378 -0.0678
 3839TIP3    H133076   3.952   2.487   7.065  0.2465 -0.8913  0.5246
 3839TIP3    H233077   3.973   2.383   6.957  0.0989  0.7786 -1.1685
 3840TIP3   OH233078   0.578   4.173   8.505  0.1945  0.0390  0.3650
 3840TIP3    H133079   0.522   4.097   8.519 -0.0390  0.3455  1.1541
 3840TIP3    H233080   0.657   4.137   8.465 -0.6512 -0.3589 -1.0305
 3841TIP3   OH233081   2.894   3.133   7.405  0.1919  0.2430 -0.6452
 3841TIP3    H133082   2.804   3.162   7.391  0.0017  0.1902  0.3596
 3841TIP3    H233083   2.946   3.214   7.399 -0.1352  0.5527  0.4749
 3842TIP3   OH233084   1.438   1.580   2.807 -0.4637  0.8183  0.2062
 3842TIP3    H133085   1.353   1.537   2.816  0.7307 -1.5246  0.8714
 3842TIP3    H233086   1.450   1.626   2.890 -0.4440 -0.0685  0.6998
 3843TIP3   OH233087   2.121   3.377   2.699  0.3756 -0.0651  0.1229
 3843TIP3    H133088   2.130   3.471   2.716 -0.7620 -0.1008  0.9933
 3843TIP3    H233089   2.199   3.338   2.737  0.2226  0.3955  0.9292
 3844TIP3   OH233090   3.657   3.708   1.873  0.6071  0.2843 -0.3668
 3844TIP3    H133091   3.655   3.671   1.785 -0.3097 -0.3005 -0.1140
 3844TIP3    H233092   3.731   3.769   1.872 -0.7394  2.0539 -2.2564
 3845TIP3   OH233093   0.323   0.366   0.239 -0.5061  0.1651 -0.0428
 3845TIP3    H133094   0.326   0.453   0.200  1.3251 -0.5622 -1.6335
 3845TIP3    H233095   0.370   0.310   0.178 -1.9186 -2.0398  0.7757
 3846TIP3   OH233096   0.174   1.889   0.891  0.6333 -0.3049  0.3131
 3846TIP3    H133097   0.147   1.826   0.958  0.9893 -0.6233  0.1594
 3846TIP3    H233098   0.101   1.951   0.886  1.3163  0.7233  2.2115
 3847TIP3   OH233099   4.808   6.565   6.511 -0.0848  0.1214 -0.0403
 3847TIP3    H133100   4.737   6.622   6.482 -0.6873  0.0736  1.2701
 3847TIP3    H233101   4.785   6.478   6.479 -1.7145 -0.3012  2.0447
 3848TIP3   OH233102   4.861   0.017   8.405  0.1766 -0.0094  0.0192
 3848TIP3    H133103   4.855  -0.056   8.343 -0.3244  1.3499 -1.6254
 3848TIP3    H233104   4.940  -0.000   8.456  0.0850 -1.6632 -0.3400
 3849TIP3   OH233105   1.476   6.704   3.141 -0.3972 -0.2097 -0.0353
 3849TIP3    H133106   1.454   6.630   3.198  0.2103 -0.3966 -0.0447
 3849TIP3    H233107   1.393   6.724   3.097 -0.5205 -1.0133 -0.1871
 3850TIP3   OH233108   1.028   6.350   7.804  0.2027 -0.0352  0.2777
 3850TIP3    H133109   1.075   6.406   7.742  0.7861 -0.6443  0.1575
 3850TIP3    H233110   0.945   6.395   7.819  0.5655  0.7397  0.0044
 3851TIP3   OH233111   0.103   2.962   0.891  0.2204  0.2972 -0.1049
 3851TIP3    H133112   0.014   2.959   0.857  1.1073  1.7996 -2.8479
 3851TIP3    H233113   0.109   3.047   0.935  0.4449  0.4229 -0.3756
 3852TIP3   OH233114   4.105   4.670   2.087  0.3446  0.2642  0.6063
 3852TIP3    H133115   4.036   4.604   2.099 -0.2007  1.0083  1.7899
 3852TIP3    H233116   4.187   4.621   2.094 -0.0473 -0.6252 -0.7500
 3853TIP3   OH233117   5.122   2.715   1.165  0.0112  0.5106  0.1844
 3853TIP3    H133118   5.187   2.752   1.106 -1.1891  0.4851 -1.1992
 3853TIP3    H233119   5.152   2.626   1.183  0.2300  0.4193 -0.6330
 3854TIP3   OH233120   2.685   6.811   0.689  0.3602  0.2716  0.1937
 3854TIP3    H133121   2.752   6.846   0.630 -1.8222  0.6643 -2.2596
 3854TIP3    H233122   2.605   6.858   0.664 -1.4691 -2.3129  0.8258
 3855TIP3   OH233123   0.509   2.498   1.273  0.3636  0.2387 -0.1967
 3855TIP3    H133124   0.582   2.439   1.257  0.8793  0.7124  0.3352
 3855TIP3    H233125   0.471   2.514   1.187  0.6193 -0.3555 -0.4191
 3856TIP3   OH233126   5.672   3.028   2.670 -0.3017  0.4892 -0.4521
 3856TIP3    H133127   5.621   3.031   2.751 -0.6735  0.7500 -0.6935
 3856TIP3    H233128   5.762   3.045   2.698 -0.6670  2.4481 -0.2913
 3857TIP3   OH233129   6.442   1.883   8.110  0.0806  0.1637  0.5280
 3857TIP3    H133130   6.446   1.927   8.194  0.1618  1.4364 -0.1231
 3857TIP3    H233131   6.348   1.870   8.094  0.1055 -1.4016  1.4531
 3858TIP3   OH233132   2.220   6.064   8.662 -0.4833  0.0385 -0.3402
 3858TIP3    H133133   2.227   6.080   8.756  0.5050  0.3464 -0.4531
 3858TIP3    H233134   2.268   5.982   8.648  3.2273  2.1123 -1.1230
 3859TIP3   OH233135   0.322   3.575   0.663  0.0264  0.6209 -0.5547
 3859TIP3    H133136   0.352   3.633   0.594 -1.3162 -0.4118 -2.0785
 3859TIP3    H233137   0.230   3.597   0.676 -0.1386 -0.2249 -0.1810
 3860TIP3   OH233138   3.287   5.280   1.063 -0.2971 -0.0968  0.3603
 3860TIP3    H133139   3.236   5.203   1.088 -1.0566  0.3533  0.2202
 3860TIP3    H233140   3.378   5.252   1.070 -0.5067 -0.4483  2.1567
 3861TIP3   OH233141   0.131   1.004   1.907 -0.1940 -0.4294 -0.0055
 3861TIP3    H133142   0.217   1.001   1.948  0.0510 -1.5517 -0.5630
 3861TIP3    H233143   0.076   1.051   1.970  0.6924 -0.1788  0.5963
 3862TIP3   OH233144   2.634   2.243   7.813 -0.0592 -1.1741 -0.2159
 3862TIP3    H133145   2.615   2.209   7.726 -2.2714 -1.0267  0.1439
 3862TIP3    H233146   2.641   2.165   7.868 -0.2753 -1.2247 -0.2569
 3863TIP3   OH233147   0.052   4.275   0.819  0.0609 -0.3843  0.3809
 3863TIP3    H133148   0.077   4.236   0.903  0.2040 -0.0653  0.4861
 3863TIP3    H233149   0.126   4.331   0.795 -0.6237  0.7019  0.7795
 3864TIP3   OH233150   3.390   0.712   0.815  0.0295  0.6357 -0.0376
 3864TIP3    H133151   3.316   0.664   0.852  0.3051  0.6842  0.5784
 3864TIP3    H233152   3.463   0.652   0.820  0.5804  1.3747  1.5173
 3865TIP3   OH233153   6.754   6.042   0.252 -0.1762  0.4622  0.2332
 3865TIP3    H133154   6.813   6.032   0.177  0.4708 -0.7130  0.8795
 3865TIP3    H233155   6.812   6.045   0.328 -0.9613 -1.9547  0.9971
 3866TIP3   OH233156   1.582   0.863   2.070  0.6926  0.4465 -0.3455
 3866TIP3    H133157   1.634   0.801   2.122 -0.2186  0.0310  0.0969
 3866TIP3    H233158   1.647   0.913   2.020  1.5517  0.3952  0.6804
 3867TIP3   OH233159   5.726   3.816   2.271  0.2187  0.2672  0.7809
 3867TIP3    H133160   5.739   3.824   2.365 -0.1849  0.2307  0.8395
 3867TIP3    H233161   5.813   3.832   2.234  0.4582 -0.0885  1.1752
 3868TIP3   OH233162   5.176   0.986   1.626  0.0472  0.3178  0.3074
 3868TIP3    H133163   5.147   1.044   1.555  1.2864 -0.9553 -1.2995
 3868TIP3    H233164   5.270   0.976   1.612 -0.1689 -2.3468  0.3079
 3869TIP3   OH233165   6.281   6.185   0.050  0.0510  0.5396 -0.1745
 3869TIP3    H133166   6.244   6.208  -0.036 -1.4396  2.6185  0.9231
 3869TIP3    H233167   6.374   6.207   0.042  0.5689 -1.8374 -2.0209
 3870TIP3   OH233168   6.784   2.883   8.233 -0.0773  0.2617  0.4732
 3870TIP3    H133169   6.856   2.946   8.242 -2.4435  3.0615  1.6611
 3870TIP3    H233170   6.767   2.853   8.322  0.3957 -1.4223  0.0320
 3871TIP3   OH233171   1.539   1.530   0.941  0.0260 -0.2438  0.7961
 3871TIP3    H133172   1.523   1.534   1.035  0.8747  1.2246  0.9161
 3871TIP3    H233173   1.542   1.437   0.920 -2.6478 -0.6410  1.7579
 3872TIP3   OH233174   6.413   4.626   2.721 -0.8152  0.1804 -0.1038
 3872TIP3    H133175   6.368   4.589   2.797 -0.1310  2.0446  1.2830
 3872TIP3    H233176   6.488   4.568   2.707 -1.3427 -0.5911  0.1547
 3873TIP3   OH233177   5.248   2.345   2.425 -0.0417  0.1121  0.2006
 3873TIP3    H133178   5.246   2.249   2.421  0.3248  0.1392 -1.2634
 3873TIP3    H233179   5.309   2.370   2.356 -1.3692  1.4569 -0.5367
 3874TIP3   OH233180   0.626   1.790   2.406 -0.3904  0.0188 -0.0235
 3874TIP3    H133181   0.537   1.756   2.394  0.1272 -1.1625 -0.7792
 3874TIP3    H233182   0.664   1.788   2.318  0.4260  0.3806  0.3139
 3875TIP3   OH233183   1.915   0.661   1.650 -0.0064  0.1291  0.0961
 3875TIP3    H133184   1.973   0.585   1.661  0.9654  0.4330 -2.3225
 3875TIP3    H233185   1.974   0.736   1.656 -0.0231  0.4347 -2.6382
 3876TIP3   OH233186   6.489   3.651   1.825  0.4223 -0.3059 -0.2422
 3876TIP3    H133187   6.403   3.654   1.867  0.2412 -0.0175 -0.6378
 3876TIP3    H233188   6.481   3.581   1.760  0.2553  0.2131 -0.7866
 3877TIP3   OH233189   4.984   0.117   2.256 -0.2921 -0.1498  0.8780
 3877TIP3    H133190   4.998   0.187   2.320 -1.0890  0.9655 -0.1239
 3877TIP3    H233191   4.889   0.112   2.247 -0.2651 -1.5952  1.1426
 3878TIP3   OH233192   1.424   0.722   1.534 -0.5906 -0.1938  0.4713
 3878TIP3    H133193   1.414   0.649   1.473 -1.0708 -0.7768  1.2212
 3878TIP3    H233194   1.519   0.729   1.547 -0.5115 -0.3656  0.0230
 3879TIP3   OH233195   2.331   2.332   7.936 -0.0237  0.1122 -0.4204
 3879TIP3    H133196   2.307   2.305   7.848 -2.2110  0.1180  0.1328
 3879TIP3    H233197   2.398   2.399   7.923  0.1672 -0.3453 -2.0273
 3880TIP3   OH233198   2.207   3.820   0.109 -0.0239 -0.3673 -0.4148
 3880TIP3    H133199   2.226   3.897   0.164 -0.7375  0.0247 -0.7120
 3880TIP3    H233200   2.121   3.838   0.071 -0.0420 -1.1606 -0.7636
 3881TIP3   OH233201   1.624   6.612   2.923 -0.4480 -0.0693  0.1267
 3881TIP3    H133202   1.689   6.573   2.981  0.2160 -0.0196 -0.5747
 3881TIP3    H233203   1.567   6.662   2.982  1.0822  1.1901  0.6077
 3882TIP3   OH233204   2.863   2.752   0.661  0.2817 -0.1945 -0.4505
 3882TIP3    H133205   2.801   2.788   0.598 -0.1862  1.4633  0.8747
 3882TIP3    H233206   2.948   2.755   0.616  0.0853  1.6489 -0.7968
 3883TIP3   OH233207   5.876   2.700   2.155 -0.3361  0.0500 -0.2458
 3883TIP3    H133208   5.876   2.795   2.162 -4.3549  0.0825  4.0806
 3883TIP3    H233209   5.962   2.674   2.189  0.5683  2.0364 -0.8302
 3884TIP3   OH233210   1.660   3.573   8.597 -0.0001  0.5495  0.1129
 3884TIP3    H133211   1.646   3.536   8.510  0.0142  0.5425  0.1135
 3884TIP3    H233212   1.595   3.643   8.604 -0.3366  0.2245  0.2898
 3885TIP3   OH233213   4.286   2.338   7.942  0.0810  0.5804 -0.3000
 3885TIP3    H133214   4.371   2.382   7.949 -0.7138  2.0606  0.8915
 3885TIP3    H233215   4.279   2.287   8.023  0.1033 -0.0304 -0.6856
 3886TIP3   OH233216   4.507   3.744   1.651 -0.1180  0.1280  0.7450
 3886TIP3    H133217   4.596   3.773   1.672  0.4290  1.4824 -2.7665
 3886TIP3    H233218   4.451   3.789   1.714  1.4715  1.6485  1.1446
 3887TIP3   OH233219   4.295   4.911   1.457  0.1238  0.6009  0.2345
 3887TIP3    H133220   4.212   4.911   1.505  0.5081  0.5229  0.9161
 3887TIP3    H233221   4.345   4.839   1.496  0.8216  1.1556  0.3891
 3888TIP3   OH233222   0.039   2.621   7.861 -0.8105  0.0486 -1.0188
 3888TIP3    H133223  -0.013   2.662   7.930 -1.7169  0.3687 -1.8708
 3888TIP3    H233224   0.028   2.527   7.876  2.1219 -0.0305  1.5820
 3889TIP3   OH233225   6.215   1.776   2.626  0.4783 -0.4663  0.7735
 3889TIP3    H133226   6.243   1.868   2.631  0.0624 -0.3974  2.7326
 3889TIP3    H233227   6.245   1.738   2.709 -1.5031 -1.4593  1.0876
 3890TIP3   OH233228   2.190   4.940   0.565  0.5590 -0.0528  0.4858
 3890TIP3    H133229   2.211   4.894   0.646  0.9595  1.9089  1.5477
 3890TIP3    H233230   2.227   4.885   0.496 -0.2052 -2.0134  1.5484
 3891TIP3   OH233231   1.000   1.869   7.855 -0.4554 -0.1614 -0.0173
 3891TIP3    H133232   0.952   1.821   7.787 -0.4141 -0.3968  0.1212
 3891TIP3    H233233   0.960   1.956   7.855  0.3159  0.2246 -1.1641
 3892TIP3   OH233234   2.494   6.671   8.072 -0.0166  0.1849 -0.6444
 3892TIP3    H133235   2.435   6.598   8.090 -0.4969  0.2527 -1.8404
 3892TIP3    H233236   2.451   6.748   8.109 -0.8345  0.2779 -1.7526
 3893TIP3   OH233237   6.510   5.085   7.126  0.3030 -0.3647 -0.3073
 3893TIP3    H133238   6.440   5.055   7.183 -1.3815  1.8012 -1.1020
 3893TIP3    H233239   6.467   5.107   7.044  2.3917 -1.7053 -1.8794
 3894TIP3   OH233240   6.542   6.772   8.393 -0.1498  0.1867 -0.0563
 3894TIP3    H133241   6.611   6.770   8.327  0.4099 -0.6675  0.5333
 3894TIP3    H233242   6.546   6.686   8.435 -0.5992  0.6465  0.9774
 3895TIP3   OH233243   6.063   0.042   8.746  0.0994 -0.3951  0.0821
 3895TIP3    H133244   5.989  -0.001   8.703  0.7863 -0.8110 -0.7259
 3895TIP3    H233245   6.035   0.133   8.757 -0.1526 -0.3018 -1.1785
 3896TIP3   OH233246   0.201   1.986   7.915 -0.3416 -0.5249  0.1114
 3896TIP3    H133247   0.254   2.058   7.880 -1.1738 -0.0602 -0.2191
 3896TIP3    H233248   0.124   2.030   7.953 -1.6225 -1.3276 -1.4516
 3897TIP3   OH233249   5.344   4.579   0.183  0.1220  0.1930  0.5844
 3897TIP3    H133250   5.260   4.590   0.139  0.7355  3.6482  0.0082
 3897TIP3    H233251   5.322   4.568   0.276 -0.9739 -1.1583  0.1972
 3898TIP3   OH233252   6.275   4.339   8.090  0.1002  0.1196 -0.1334
 3898TIP3    H133253   6.348   4.381   8.135 -1.5680  1.7370  1.2448
 3898TIP3    H233254   6.269   4.252   8.129  1.9183 -0.4745 -1.0642
 3899TIP3   OH233255   3.977   6.281   8.625 -0.6411  0.0071  0.0428
 3899TIP3    H133256   3.942   6.356   8.674  1.0302  0.9513 -0.1414
 3899TIP3    H233257   3.945   6.293   8.536 -0.6654  0.3137  0.0915
 3900TIP3   OH233258   5.192   5.098   2.409  0.7367 -0.6980 -0.2141
 3900TIP3    H133259   5.150   5.015   2.386  0.4920 -0.5436 -0.3222
 3900TIP3    H233260   5.285   5.076   2.416  0.8439 -0.7394 -1.4596
 3901TIP3   OH233261   4.779   3.356   1.846 -0.1451  0.2833  0.1579
 3901TIP3    H133262   4.794   3.261   1.846  2.1852  0.5659  1.3234
 3901TIP3    H233263   4.867   3.393   1.854 -1.1119  2.5041  1.2804
 3902TIP3   OH233264   4.312   1.398   1.815 -0.1726 -0.1990  0.3000
 3902TIP3    H133265   4.347   1.445   1.740 -0.1245 -0.2525  0.2894
 3902TIP3    H233266   4.357   1.437   1.891  1.2132 -1.4514  0.1616
 3903TIP3   OH233267   6.269   5.787   8.729  0.2820 -0.2217 -0.3630
 3903TIP3    H133268   6.232   5.755   8.811  0.1855  0.9246  0.0665
 3903TIP3    H233269   6.266   5.712   8.670  2.1832 -1.6447  1.2450
 3904TIP3   OH233270   4.774   3.624   1.746 -0.1291  0.4418  0.5558
 3904TIP3    H133271   4.850   3.618   1.689 -1.7209  0.8056 -1.7273
 3904TIP3    H233272   4.741   3.534   1.752 -1.1555  0.7029 -0.8631
 3905TIP3   OH233273   1.300   3.562   2.484  0.2653 -0.5865  0.0133
 3905TIP3    H133274   1.347   3.618   2.422  0.8445 -0.8785  0.1826
 3905TIP3    H233275   1.259   3.623   2.546  0.5616 -0.3397 -0.0337
 3906TIP3   OH233276   1.623   0.011   1.722  0.6987 -0.5258  0.4443
 3906TIP3    H133277   1.591  -0.075   1.748  1.3109 -1.4954 -1.7517
 3906TIP3    H233278   1.718  -0.001   1.713  0.5708 -0.2833 -1.9150
 3907TIP3   OH233279   2.812   1.316   1.803  0.1639 -0.1943  0.2542
 3907TIP3    H133280   2.905   1.313   1.824  0.2968  1.3343  0.0253
 3907TIP3    H233281   2.800   1.401   1.761 -1.1200 -0.8547 -0.8005
 3908TIP3   OH233282   2.317   3.487   0.713 -0.7009 -0.4524  0.1312
 3908TIP3    H133283   2.256   3.512   0.782 -0.5194 -0.8755  0.4504
 3908TIP3    H233284   2.331   3.393   0.725  0.8272 -0.1822  0.7418
 3909TIP3   OH233285   0.823   4.103   1.213  0.0662  0.4965 -0.3009
 3909TIP3    H133286   0.806   4.064   1.127  1.2757 -0.8270  0.0029
 3909TIP3    H233287   0.737   4.112   1.254 -0.3122 -1.7464 -0.4806
 3910TIP3   OH233288   0.298   2.379   2.237  0.1169 -0.8180 -0.0551
 3910TIP3    H133289   0.391   2.370   2.257  0.7119  1.7896 -1.2590
 3910TIP3    H233290   0.261   2.292   2.255  1.9183 -0.8859  4.5095
 3911TIP3   OH233291   1.746   5.895   0.115  0.4938 -0.1927  0.0626
 3911TIP3    H133292   1.816   5.955   0.139 -0.8825  1.0023  1.2162
 3911TIP3    H233293   1.787   5.835   0.053  1.9046  1.9564 -1.2137
 3912TIP3   OH233294   4.489   0.928   8.555 -0.0941 -0.1726  0.0147
 3912TIP3    H133295   4.569   0.879   8.540  0.4656  0.7987 -0.3041
 3912TIP3    H233296   4.493   0.954   8.647 -0.9759 -1.7045  0.5155
 3913TIP3   OH233297   6.360   5.206   1.463 -0.1959  0.0711 -0.2094
 3913TIP3    H133298   6.356   5.120   1.506  1.2291  1.6152  3.5041
 3913TIP3    H233299   6.446   5.240   1.486 -1.1604  2.9719 -0.4254
 3914TIP3   OH233300   0.561   0.545   0.822 -0.0515  0.3249  0.3068
 3914TIP3    H133301   0.593   0.543   0.732 -1.8582 -0.8516 -0.3727
 3914TIP3    H233302   0.597   0.466   0.862 -0.3560  0.1255  0.1907
 3915TIP3   OH233303   2.128   1.436   8.087 -0.0340 -0.0524 -0.6400
 3915TIP3    H133304   2.136   1.365   8.023  0.4892 -0.6491  0.0626
 3915TIP3    H233305   2.035   1.456   8.089 -0.2314 -0.9394 -0.6332
 3916TIP3   OH233306   2.629   1.208   1.536 -0.4088 -0.5462 -0.0153
 3916TIP3    H133307   2.721   1.234   1.537 -0.6447  0.3471  1.7270
 3916TIP3    H233308   2.581   1.288   1.514 -0.8192 -0.8872 -0.4020
 3917TIP3   OH233309   2.580   5.019   7.933 -0.2504  0.1772  0.2011
 3917TIP3    H133310   2.509   5.055   7.881  0.9774  1.9388 -0.3427
 3917TIP3    H233311   2.588   4.928   7.904 -2.3565 -0.1231  0.4164
 3918TIP3   OH233312   4.053   6.654   8.572  0.7635 -0.0191 -0.4772
 3918TIP3    H133313   4.056   6.729   8.632  2.0784  0.0925 -0.6618
 3918TIP3    H233314   3.959   6.637   8.561  0.4194  1.6168 -0.4555
 3919TIP3   OH233315   6.643   5.835   1.924 -0.8645 -0.6869  0.1825
 3919TIP3    H133316   6.612   5.792   1.843 -1.4996  1.4886 -0.7971
 3919TIP3    H233317   6.706   5.900   1.894  0.9522 -1.6342  1.7412
 3920TIP3   OH233318   4.549   3.228   7.877 -0.0919 -0.1902  0.4702
 3920TIP3    H133319   4.612   3.216   7.948 -1.7952 -1.3196  1.8842
 3920TIP3    H233320   4.469   3.186   7.908 -0.7441 -1.3859 -2.4155
 3921TIP3   OH233321   3.846   1.027   7.402  0.0731 -1.0091  0.5092
 3921TIP3    H133322   3.768   1.023   7.458 -0.7707  0.8077 -0.4607
 3921TIP3    H233323   3.827   0.965   7.331 -0.4573 -0.6518  0.3343
 3922TIP3   OH233324   3.684   6.287   8.487 -0.5446 -0.4651 -0.1017
 3922TIP3    H133325   3.649   6.297   8.398 -0.0662 -1.9653 -0.4862
 3922TIP3    H233326   3.613   6.317   8.544 -1.1852 -0.2984 -0.9545
 3923TIP3   OH233327   3.873   5.715   8.443 -0.0770 -0.9721  0.5686
 3923TIP3    H133328   3.926   5.774   8.496 -0.3274  0.9103 -1.1675
 3923TIP3    H233329   3.805   5.684   8.502 -1.8980  3.0277  0.9095
 3924TIP3   OH233330   5.205   5.430   1.178 -0.2697 -0.1200  0.0396
 3924TIP3    H133331   5.147   5.437   1.102  0.5226  0.7447 -0.5034
 3924TIP3    H233332   5.217   5.520   1.207  2.9703  0.0920 -1.5576
 3925TIP3   OH233333   6.572   2.576   2.197  0.3963 -0.1271 -0.1527
 3925TIP3    H133334   6.571   2.496   2.146  2.3403 -1.5228  1.8064
 3925TIP3    H233335   6.488   2.577   2.244  0.2505 -0.8605 -0.3969
 3926TIP3   OH233336   1.182   2.459   2.740  0.2749  0.2431 -0.1846
 3926TIP3    H133337   1.276   2.452   2.727  0.1573  0.3187 -1.2033
 3926TIP3    H233338   1.166   2.422   2.827  1.2304  0.1502 -0.0447
 3927TIP3   OH233339   6.237   5.451   1.939 -0.7748 -0.0270  0.5984
 3927TIP3    H133340   6.332   5.452   1.951 -0.5348 -1.3675 -0.8824
 3927TIP3    H233341   6.205   5.398   2.012 -0.3548  0.1963  0.9519
 3928TIP3   OH233342   4.635   6.508   2.514 -0.4361  0.0710 -0.5443
 3928TIP3    H133343   4.683   6.430   2.485 -2.2566 -1.3891  0.1368
 3928TIP3    H233344   4.568   6.521   2.446 -1.3552 -0.1498  0.2939
 3929TIP3   OH233345   0.879   5.269   0.749 -0.0354  0.7129  0.2632
 3929TIP3    H133346   0.909   5.360   0.747  2.3665 -0.0306 -1.1221
 3929TIP3    H233347   0.811   5.265   0.682  1.9133  0.9119 -1.8316
 3930TIP3   OH233348   2.106   3.800   1.337  0.3341 -0.1470  0.7885
 3930TIP3    H133349   2.060   3.747   1.271  2.3632 -1.0143 -0.0095
 3930TIP3    H233350   2.135   3.737   1.402 -1.3615  0.6710  2.4278
 3931TIP3   OH233351   2.324   6.655   0.864  0.4564  0.1878 -0.1775
 3931TIP3    H133352   2.322   6.599   0.786 -2.5204  1.4429 -1.1656
 3931TIP3    H233353   2.282   6.602   0.932  0.1560  0.2087 -0.3428
 3932TIP3   OH233354   6.387   3.612   2.535  0.4926  1.1143 -0.3075
 3932TIP3    H133355   6.413   3.630   2.626 -1.6817 -0.4559  0.7365
 3932TIP3    H233356   6.445   3.540   2.508  0.7174  1.1431  0.0832
 3933TIP3   OH233357   0.848   6.702   0.712 -0.3183  0.1821  0.2968
 3933TIP3    H133358   0.789   6.718   0.639  1.5269 -0.7880 -1.4877
 3933TIP3    H233359   0.887   6.617   0.694  1.3900  0.6373  1.5458
 3934TIP3   OH233360   3.785   1.552   8.748  0.4782 -0.0801  0.3485
 3934TIP3    H133361   3.807   1.493   8.676 -1.5148 -0.6277  0.1059
 3934TIP3    H233362   3.850   1.534   8.815  2.4976  0.5638 -1.3305
 3935TIP3   OH233363   6.117   6.539   0.162  0.5181  0.0658  0.5163
 3935TIP3    H133364   6.074   6.470   0.211  1.9589 -1.5476 -0.4009
 3935TIP3    H233365   6.111   6.511   0.070 -0.3184  1.9974 -0.0828
 3936TIP3   OH233366   1.479   0.134   2.912  0.1564 -0.6007 -0.0740
 3936TIP3    H133367   1.480   0.126   3.007  0.0807 -0.3093 -0.0472
 3936TIP3    H233368   1.514   0.222   2.895  0.8810 -0.9337 -0.3477
 3937TIP3   OH233369   3.427   1.246   8.265 -0.1662  0.1155 -0.5065
 3937TIP3    H133370   3.377   1.170   8.296 -2.4931  2.0160  0.7471
 3937TIP3    H233371   3.471   1.279   8.343 -0.6660  1.0996 -0.6249
 3938TIP3   OH233372   6.712   4.282   1.922 -0.2367 -0.0169  0.3879
 3938TIP3    H133373   6.644   4.244   1.866  0.3729  0.0692 -0.4216
 3938TIP3    H233374   6.692   4.248   2.010 -0.8847 -0.5896  0.0322
 3939TIP3   OH233375   4.699   5.480   8.086 -0.0750  0.3063  0.2774
 3939TIP3    H133376   4.631   5.548   8.090 -1.9130 -1.4347  0.3325
 3939TIP3    H233377   4.685   5.428   8.165 -1.5241 -2.5677 -1.6742
 3940TIP3   OH233378   2.640   2.088   2.011  0.1951  0.0104  0.3086
 3940TIP3    H133379   2.698   2.058   1.941 -0.2850 -0.1529 -0.0313
 3940TIP3    H233380   2.697   2.101   2.087  0.8148  0.7568 -0.2712
 3941TIP3   OH233381   5.390   2.737   8.194  0.1275 -0.1060 -0.1944
 3941TIP3    H133382   5.383   2.832   8.182 -0.4559 -0.2989 -1.5290
 3941TIP3    H233383   5.483   2.723   8.213  0.6320  0.5619 -1.9609
 3942TIP3   OH233384   2.188   5.129   2.827  0.4805 -0.8289 -0.6058
 3942TIP3    H133385   2.131   5.053   2.836  0.3203 -0.6058  0.3972
 3942TIP3    H233386   2.152   5.178   2.754 -0.8053 -0.5313  0.2016
 3943TIP3   OH233387   5.437   3.532   0.977 -0.5031  0.7506 -0.0907
 3943TIP3    H133388   5.412   3.562   1.065  0.1118  1.4663 -0.1482
 3943TIP3    H233389   5.372   3.572   0.919  0.4557  2.2501 -0.1937
 3944TIP3   OH233390   4.235   3.273   7.857  0.2485  1.0051  0.2469
 3944TIP3    H133391   4.213   3.186   7.890  2.6363  0.4638  0.5441
 3944TIP3    H233392   4.181   3.332   7.909 -3.5117 -0.2890 -1.7524
 3945TIP3   OH233393   2.858   4.165   2.785 -0.5558  0.0681  0.6593
 3945TIP3    H133394   2.928   4.165   2.720 -0.5529 -1.0263  0.6367
 3945TIP3    H233395   2.889   4.225   2.854 -0.0633  0.3756  0.1786
 3946TIP3   OH233396   0.824   1.466   2.412  0.1695  0.1750  0.6012
 3946TIP3    H133397   0.873   1.451   2.331  0.9701 -0.9724  1.2601
 3946TIP3    H233398   0.822   1.561   2.422  0.0380  0.3313 -0.7760
 3947TIP3   OH233399   5.720   1.612   8.237 -0.0936 -0.2020  0.1923
 3947TIP3    H133400   5.660   1.684   8.251  0.2137  0.0188  0.3811
 3947TIP3    H233401   5.673   1.534   8.266 -0.6080 -0.1447 -0.4648
 3948TIP3   OH233402   2.901   3.961   7.529 -0.3421 -0.0104  0.3137
 3948TIP3    H133403   2.913   3.900   7.602  0.9733 -0.0772  0.0622
 3948TIP3    H233404   2.979   4.017   7.531  1.0851 -1.6657 -2.5641
 3949TIP3   OH233405   2.928   4.111   1.545 -0.6333  0.7897 -0.0188
 3949TIP3    H133406   2.920   4.196   1.503  0.5486  1.2369  0.6180
 3949TIP3    H233407   3.019   4.106   1.573 -0.6040 -0.8194 -0.3042
 3950TIP3   OH233408   4.138   1.768   1.863 -0.3666 -0.3139  0.2860
 3950TIP3    H133409   4.053   1.806   1.885 -0.7095 -0.1235 -1.2579
 3950TIP3    H233410   4.200   1.815   1.919 -1.1335  0.4371  0.5332
 3951TIP3   OH233411   2.993   3.944   0.571 -0.6519  0.0699 -0.1125
 3951TIP3    H133412   2.946   4.026   0.556 -0.5731  0.0904 -0.2530
 3951TIP3    H233413   2.976   3.922   0.662  1.8642  1.8894  0.9333
 3952TIP3   OH233414   0.884   2.438   8.623  0.2310  1.0407  0.3353
 3952TIP3    H133415   0.834   2.486   8.689  1.3105  0.8264  1.3262
 3952TIP3    H233416   0.847   2.468   8.540 -3.1410 -0.7995  0.9945
 3953TIP3   OH233417   5.725   0.686   1.032 -0.1372 -0.2195  0.1234
 3953TIP3    H133418   5.742   0.711   1.123 -0.7163 -0.3626  0.2759
 3953TIP3    H233419   5.641   0.727   1.011  0.0020 -0.1705 -0.3560
 3954TIP3   OH233420   1.877   4.270   8.700  0.2974 -0.4392 -0.5338
 3954TIP3    H133421   1.914   4.243   8.617 -1.0762 -0.4090 -1.1767
 3954TIP3    H233422   1.792   4.228   8.704  1.2626 -2.4023  1.9690
 3955TIP3   OH233423   0.132   0.520   7.893 -0.0294 -0.0045  0.1637
 3955TIP3    H133424   0.084   0.505   7.812  0.8082 -0.4623 -0.2535
 3955TIP3    H233425   0.224   0.510   7.869  0.1843 -1.2158  1.3993
 3956TIP3   OH233426   5.714   6.227   8.755  0.4338 -0.1730  0.5691
 3956TIP3    H133427   5.657   6.169   8.705  2.5777 -1.7358 -0.1815
 3956TIP3    H233428   5.692   6.209   8.847 -0.7785 -0.1835  0.2887
 3957TIP3   OH233429   2.411   3.881   8.740 -0.4253 -0.7134  0.4025
 3957TIP3    H133430   2.334   3.852   8.790  0.2692 -0.9905  1.3527
 3957TIP3    H233431   2.461   3.934   8.802  1.4751 -2.7042  0.7218
 3958TIP3   OH233432   4.154   6.291   7.799  0.0121  0.3402 -0.5144
 3958TIP3    H133433   4.222   6.238   7.839 -0.6621  1.1660  1.9131
 3958TIP3    H233434   4.087   6.228   7.771 -0.1242 -0.2203  0.9927
 3959TIP3   OH233435   4.420   2.487   8.809  0.3206 -0.2081  0.3064
 3959TIP3    H133436   4.430   2.582   8.813  1.5512 -0.3391  3.1379
 3959TIP3    H233437   4.508   2.454   8.793  0.0444 -0.8724  0.1399
 3960TIP3   OH233438   5.744   5.058   0.374  0.9253  0.1545  0.5107
 3960TIP3    H133439   5.749   5.090   0.465  1.6266  0.4584  0.3694
 3960TIP3    H233440   5.713   5.133   0.324  0.0104 -0.1692  0.5687
 3961TIP3   OH233441   6.535   2.864   2.123 -0.3074  0.1815  0.0776
 3961TIP3    H133442   6.530   2.905   2.209  0.6248  0.3858  0.0495
 3961TIP3    H233443   6.559   2.773   2.142 -0.5762  0.1075  0.0586
 3962TIP3   OH233444   6.527   5.421   0.500 -0.0717 -0.3181  0.6729
 3962TIP3    H133445   6.551   5.345   0.446 -0.7001  0.2716 -0.4870
 3962TIP3    H233446   6.596   5.426   0.566  0.1653 -1.6877  0.5584
 3963TIP3   OH233447   6.795   1.580   1.399 -0.2352 -0.5946 -0.2156
 3963TIP3    H133448   6.889   1.565   1.396 -0.1019  0.3712 -1.5299
 3963TIP3    H233449   6.758   1.508   1.347 -0.0573  0.1669 -1.4143
 3964TIP3   OH233450   5.869   3.291   0.856 -0.2969  0.0981  0.2724
 3964TIP3    H133451   5.803   3.237   0.811 -0.0134 -0.6722  0.7662
 3964TIP3    H233452   5.837   3.297   0.946 -0.7266  1.4221  0.0579
 3965TIP3   OH233453   2.822   3.564   1.318  0.2107  0.2557  0.2995
 3965TIP3    H133454   2.786   3.540   1.403  0.7733 -1.1256  0.1744
 3965TIP3    H233455   2.916   3.576   1.334  0.2277  0.5595 -0.0115
 3966TIP3   OH233456   2.921   4.103   2.132 -0.8133 -0.1232 -0.1046
 3966TIP3    H133457   2.873   4.173   2.176  1.2456  0.6372  1.0313
 3966TIP3    H233458   2.917   4.126   2.039 -2.7698 -0.2002 -0.0788
 3967TIP3   OH233459   6.519   2.166   2.383  0.1498 -0.8607  0.7387
 3967TIP3    H133460   6.511   2.194   2.474  1.5719 -2.7677  1.5147
 3967TIP3    H233461   6.433   2.185   2.345 -0.5635 -0.2502  2.5272
 3968TIP3   OH233462   2.600   6.086   8.455  0.1492  0.3018  0.4859
 3968TIP3    H133463   2.680   6.037   8.473  1.0522  0.5992 -2.2649
 3968TIP3    H233464   2.559   6.039   8.383 -1.3613  1.0585  0.8059
 3969TIP3   OH233465   4.120   4.290   1.287  0.2733  0.1276  0.5873
 3969TIP3    H133466   4.130   4.227   1.359 -1.5540 -0.3053  0.5028
 3969TIP3    H233467   4.203   4.284   1.239  0.4475 -1.6623  1.0268
 3970TIP3   OH233468   2.926   0.193   0.886 -0.0063  0.2534 -0.2161
 3970TIP3    H133469   2.840   0.159   0.909 -0.6208  1.5851 -0.4586
 3970TIP3    H233470   2.916   0.226   0.797  0.9101 -0.0664 -0.4519
 3971TIP3   OH233471   6.789   0.045   0.872  0.2361  0.0390  0.2658
 3971TIP3    H133472   6.798   0.035   0.777 -0.7745 -0.5150  0.2112
 3971TIP3    H233473   6.698   0.023   0.890  0.4268  0.0774  1.3813
 3972TIP3   OH233474   0.270   5.704   7.953  0.0708  0.2454 -0.2794
 3972TIP3    H133475   0.185   5.746   7.945 -0.5159 -1.0539 -1.3060
 3972TIP3    H233476   0.334   5.774   7.940 -0.8649  0.8727 -1.6231
 3973TIP3   OH233477   5.014   1.264   7.824 -0.1040  0.0776 -0.0340
 3973TIP3    H133478   4.939   1.220   7.784 -0.7482 -0.1161  1.3284
 3973TIP3    H233479   4.975   1.334   7.876  0.4317 -1.2632  2.3273
 3974TIP3   OH233480   3.326   2.169   8.701  0.2973 -0.1181 -1.0404
 3974TIP3    H133481   3.318   2.252   8.747  0.7079 -0.1293 -0.9444
 3974TIP3    H233482   3.253   2.169   8.639 -1.2822 -0.8190  0.7140
 3975TIP3   OH233483   5.072   2.581   0.664 -0.0126  0.0270  0.1959
 3975TIP3    H133484   5.065   2.565   0.759  3.6302 -1.2796  0.4086
 3975TIP3    H233485   5.133   2.654   0.657 -0.4845  0.3073 -1.1511
 3976TIP3   OH233486   6.353   5.056   2.318 -0.0438  0.1158 -0.5518
 3976TIP3    H133487   6.437   5.075   2.276  0.4369  0.7021  0.6143
 3976TIP3    H233488   6.374   4.988   2.382 -0.6751 -0.4725 -0.9569
 3977TIP3   OH233489   2.914   0.057   8.127  0.2109  0.2453 -0.2525
 3977TIP3    H133490   2.930   0.061   8.032  1.5231  1.7009 -0.0193
 3977TIP3    H233491   2.863   0.136   8.146 -3.3812 -1.8812 -0.2178
 3978TIP3   OH233492   3.749   4.363   2.081 -0.0580  0.4993  0.1170
 3978TIP3    H133493   3.800   4.439   2.051  1.2137 -0.1249  0.6279
 3978TIP3    H233494   3.794   4.334   2.160 -0.3437 -0.9820 -0.2377
 3979TIP3   OH233495   4.619   4.095   0.922  0.1774  0.5969 -0.2382
 3979TIP3    H133496   4.698   4.124   0.877 -0.1756  0.6176 -0.8542
 3979TIP3    H233497   4.650   4.063   1.007  0.7648  1.2226 -0.2089
 3980TIP3   OH233498   1.501   4.087   1.245 -0.4002  0.2876 -0.0874
 3980TIP3    H133499   1.496   4.030   1.169  0.8117  0.6930 -0.5035
 3980TIP3    H233500   1.494   4.028   1.320 -1.4180 -0.1348 -0.4982
 3981TIP3   OH233501   5.280   0.108   0.837  0.5206 -0.2828  0.2653
 3981TIP3    H133502   5.221   0.124   0.763  2.7911  0.4262 -1.5405
 3981TIP3    H233503   5.366   0.135   0.804  1.3500  2.3161  3.9757
 3982TIP3   OH233504   3.666   4.954   0.210 -0.8096 -0.4412 -0.1054
 3982TIP3    H133505   3.637   5.013   0.140  0.0030  0.5648  0.3760
 3982TIP3    H233506   3.715   4.885   0.165  2.9859  2.1526 -0.3800
 3983TIP3   OH233507   5.040   3.324   7.524 -0.2560 -0.1203  0.3322
 3983TIP3    H133508   4.984   3.246   7.514 -1.6920  0.8158  0.7622
 3983TIP3    H233509   4.997   3.376   7.591  0.9052  0.8713  0.3433
 3984TIP3   OH233510   5.793   5.049   2.609 -0.1154  0.0851 -0.4764
 3984TIP3    H133511   5.735   5.125   2.601  0.1847  0.3924  0.1663
 3984TIP3    H233512   5.878   5.080   2.580  0.0557  0.0513 -0.0104
 3985TIP3   OH233513   3.932   4.024   8.809 -0.3025  0.3044  0.3341
 3985TIP3    H133514   3.938   3.932   8.836 -2.9547 -0.3003 -0.8496
 3985TIP3    H233515   3.861   4.060   8.862 -0.8051  1.0173 -0.7837
 3986TIP3   OH233516   6.471   5.648   0.717  0.2777  0.2875  0.0199
 3986TIP3    H133517   6.507   5.671   0.631  2.3352  0.0793  0.7580
 3986TIP3    H233518   6.421   5.725   0.744  1.6450  1.3651 -0.3592
 3987TIP3   OH233519   3.798   1.005   0.495  0.7960 -0.0036  0.2264
 3987TIP3    H133520   3.741   1.020   0.571  0.8147  0.2743  0.1878
 3987TIP3    H233521   3.746   0.951   0.436  0.9293 -0.5596  0.6111
 3988TIP3   OH233522   1.915   5.583   1.060 -0.4726  0.1249 -0.2718
 3988TIP3    H133523   1.929   5.566   1.153 -0.4399  1.9945  0.1007
 3988TIP3    H233524   1.832   5.541   1.040 -1.6178  1.5602  1.1863
 3989TIP3   OH233525   4.886   2.466   1.496 -0.0149 -0.5687  0.0774
 3989TIP3    H133526   4.920   2.508   1.575  0.7184 -2.3845  0.7881
 3989TIP3    H233527   4.942   2.389   1.484 -1.6389 -1.6665 -0.8085
 3990TIP3   OH233528   5.484   5.894   8.793  0.3499 -0.4516 -0.0565
 3990TIP3    H133529   5.549   5.831   8.825  0.2241 -0.9942 -0.8389
 3990TIP3    H233530   5.536   5.960   8.747  0.4571 -0.1269  0.5189
 3991TIP3   OH233531   3.876   3.059   8.088  0.1971 -0.6093  0.3736
 3991TIP3    H133532   3.871   3.128   8.021  1.1976  1.6243  2.4181
 3991TIP3    H233533   3.785   3.043   8.112 -0.1353 -0.9809 -1.0021
 3992TIP3   OH233534   6.741   2.537   2.610 -0.1776  0.1040 -0.9356
 3992TIP3    H133535   6.749   2.511   2.702  0.8707 -0.9528 -1.2925
 3992TIP3    H233536   6.663   2.592   2.607  0.8707  1.8456  0.9381
 3993TIP3   OH233537   3.153   3.624   7.905  0.1846  0.2140 -0.3131
 3993TIP3    H133538   3.245   3.628   7.879  0.4517 -2.3162 -0.0153
 3993TIP3    H233539   3.110   3.577   7.833 -0.6365  0.3131  0.0963
 3994TIP3   OH233540   1.758   4.725   1.478 -0.0421  0.0068 -0.0556
 3994TIP3    H133541   1.717   4.648   1.518 -0.1863  0.3596  0.4916
 3994TIP3    H233542   1.753   4.709   1.384  0.1308 -0.7544  0.0567
 3995TIP3   OH233543   2.689   1.946   7.780  0.0665  0.2506  0.2377
 3995TIP3    H133544   2.752   1.930   7.710 -2.6471 -1.9747 -1.9272
 3995TIP3    H233545   2.611   1.980   7.735 -1.4336 -0.2798  2.2938
 3996TIP3   OH233546   5.966   2.360   8.177 -0.2112  0.1161  0.1791
 3996TIP3    H133547   5.940   2.452   8.178  1.0229  0.4920  1.7029
 3996TIP3    H233548   5.984   2.342   8.085  1.6152  2.0722  0.0516
 3997TIP3   OH233549   5.913   5.849   6.817 -0.1627  0.3351 -0.0151
 3997TIP3    H133550   5.822   5.831   6.839  0.4601 -0.7259  2.0360
 3997TIP3    H233551   5.922   5.944   6.826 -0.8657  0.3452  0.6815
 3998TIP3   OH233552   3.399   2.599   1.251  0.1495 -0.5236 -0.5087
 3998TIP3    H133553   3.388   2.665   1.319  1.2396 -0.5734 -0.2566
 3998TIP3    H233554   3.337   2.530   1.275 -0.1460 -0.1285 -0.1025
 3999TIP3   OH233555   6.187   2.275   8.347 -0.3650 -0.1439 -0.3174
 3999TIP3    H133556   6.164   2.304   8.435 -0.8579  0.2119 -0.5581
 3999TIP3    H233557   6.107   2.289   8.295  0.1867  0.4768 -1.0210
 4000TIP3   OH233558   4.758   1.332   8.199  0.0751 -0.4315 -0.0610
 4000TIP3    H133559   4.789   1.243   8.181 -0.3036 -0.5841  0.0381
 4000TIP3    H233560   4.696   1.350   8.128  0.4660 -0.0840 -0.3234
 4001TIP3   OH233561   3.865   3.290   2.929 -0.2621 -0.0950 -1.0318
 4001TIP3    H133562   3.954   3.257   2.918 -0.6551 -1.0307 -1.5387
 4001TIP3    H233563   3.874   3.366   2.987  0.6833 -1.0403  0.1007
 4002TIP3   OH233564   3.199   5.181   1.563  0.3952 -0.6448 -0.0980
 4002TIP3    H133565   3.257   5.218   1.629 -2.8143  1.4850  1.8191
 4002TIP3    H233566   3.150   5.114   1.609 -0.4829 -0.5745 -0.8953
 4003TIP3   OH233567   5.600   2.253   1.016 -0.0456  0.3758 -0.0158
 4003TIP3    H133568   5.665   2.287   0.956 -0.6332  0.9812 -0.3174
 4003TIP3    H233569   5.550   2.330   1.044  0.9198  0.3073  2.1447
 4004TIP3   OH233570   1.221   3.096   0.910  0.4184  0.3312  0.4020
 4004TIP3    H133571   1.282   3.145   0.856  0.1494 -1.1460 -1.3264
 4004TIP3    H233572   1.143   3.152   0.916  0.4346  0.4913 -0.7888
 4005TIP3   OH233573   1.596   1.765   8.297  0.2591  0.1427 -0.3419
 4005TIP3    H133574   1.514   1.732   8.262  0.3710  0.9607 -1.4107
 4005TIP3    H233575   1.662   1.737   8.233  0.7214  0.0970  0.1456
 4006TIP3   OH233576   2.125   6.481   1.191  0.6292  0.3022  0.0721
 4006TIP3    H133577   2.065   6.544   1.150  0.9561  0.7415  0.2588
 4006TIP3    H233578   2.208   6.528   1.197  1.3636 -0.7521 -1.3904
 4007TIP3   OH233579   0.026   4.631   0.040  0.3125 -0.1914  0.0261
 4007TIP3    H133580   0.064   4.704  -0.009  0.3704  0.7045  1.3483
 4007TIP3    H233581   0.024   4.662   0.131 -0.9903 -1.3014  0.4013
 4008TIP3   OH233582   1.065   3.846   1.900 -0.6402  0.4096  0.0956
 4008TIP3    H133583   1.052   3.914   1.834  0.2253 -0.5596 -1.1355
 4008TIP3    H233584   0.986   3.793   1.896 -1.8176  1.9284  1.8564
 4009TIP3   OH233585   2.720   4.425   0.811 -0.1208 -0.1501  0.2563
 4009TIP3    H133586   2.765   4.399   0.891 -0.4417 -0.1277  0.4463
 4009TIP3    H233587   2.790   4.443   0.748  0.1211 -0.4906  0.4297
 4010TIP3   OH233588   1.573   3.265   7.690  0.2718  0.1525  0.2696
 4010TIP3    H133589   1.550   3.238   7.602  0.3462 -1.6134  0.7588
 4010TIP3    H233590   1.661   3.301   7.682  0.5803 -0.6963 -0.2648
 4011TIP3   OH233591   6.151   2.139   1.432 -0.0334 -0.3926 -0.2120
 4011TIP3    H133592   6.198   2.221   1.448  2.6844 -1.8531 -0.1111
 4011TIP3    H233593   6.190   2.104   1.352  0.7049 -2.7575  1.0951
 4012TIP3   OH233594   6.576   5.056   0.578 -0.3350  0.1182 -0.1459
 4012TIP3    H133595   6.496   5.034   0.530 -0.6955  0.2292  0.3995
 4012TIP3    H233596   6.547   5.109   0.652  0.3700  1.1457 -0.5816
 4013TIP3   OH233597   0.996   4.476   8.401  0.0366  0.2045  0.1869
 4013TIP3    H133598   0.905   4.450   8.387  0.8349 -1.7456 -2.2582
 4013TIP3    H233599   1.000   4.567   8.371 -0.7957 -0.2456 -1.3992
 4014TIP3   OH233600   4.830   3.891   8.467  0.0260 -0.0449 -0.2896
 4014TIP3    H133601   4.786   3.809   8.444  1.0700 -0.3355 -1.3227
 4014TIP3    H233602   4.822   3.897   8.562  0.1552 -1.4646 -0.1759
 4015TIP3   OH233603   0.056   1.812   2.989  0.3337 -0.4578  0.0917
 4015TIP3    H133604   0.141   1.776   3.013  1.7586  1.7962 -1.2327
 4015TIP3    H233605   0.035   1.770   2.905  0.1504 -0.9538  0.3794
 4016TIP3   OH233606   5.576   3.809   0.741  0.0892  1.0961  0.5658
 4016TIP3    H133607   5.639   3.777   0.805  1.3917 -1.8692 -1.9300
 4016TIP3    H233608   5.491   3.801   0.785  0.9775 -0.1652  2.1691
 4017TIP3   OH233609   3.220   4.339   8.004  0.2836  0.4731 -0.3359
 4017TIP3    H133610   3.182   4.275   7.943 -0.8620  0.4392  0.3939
 4017TIP3    H233611   3.155   4.408   8.010  0.6882  0.7994  0.3431
 4018TIP3   OH233612   1.203   2.269   7.503 -0.1020 -0.0334 -0.7847
 4018TIP3    H133613   1.213   2.211   7.578  1.3512 -0.3500 -1.1902
 4018TIP3    H233614   1.160   2.215   7.437  0.6738 -0.4729 -0.9427
 4019TIP3   OH233615   6.740   6.707   0.341  0.2771 -0.0252 -0.2630
 4019TIP3    H133616   6.652   6.677   0.318 -0.5161  1.6584  0.4017
 4019TIP3    H233617   6.794   6.684   0.265 -1.1580  0.6577 -1.5379
 4020TIP3   OH233618   0.474   2.009   7.667  0.4171  0.5163  0.0435
 4020TIP3    H133619   0.537   2.048   7.607 -0.1326  3.2064  1.0630
 4020TIP3    H233620   0.528   1.962   7.731  1.3226  1.5299  0.0555
 4021TIP3   OH233621   6.446   1.499   8.487 -0.6552 -0.2815  0.1669
 4021TIP3    H133622   6.455   1.406   8.468 -0.8569  0.0007 -1.5349
 4021TIP3    H233623   6.393   1.502   8.567  0.9877 -1.6242  1.3690
 4022TIP3   OH233624   0.841   2.735   1.808  0.1958  0.2079 -0.5935
 4022TIP3    H133625   0.934   2.724   1.827  0.0495 -0.9783 -0.5016
 4022TIP3    H233626   0.805   2.773   1.889  0.2117 -1.4738  0.2440
 4023TIP3   OH233627   2.188   5.211   8.612  0.1847 -0.3436 -0.2628
 4023TIP3    H133628   2.223   5.301   8.609  1.9193 -0.9602  0.1380
 4023TIP3    H233629   2.178   5.192   8.705  1.4739 -1.1219 -0.2524
 4024TIP3   OH233630   1.063   2.481   1.650  0.7598 -0.3596  0.3522
 4024TIP3    H133631   1.133   2.546   1.641  1.2629 -0.5329  2.3769
 4024TIP3    H233632   0.989   2.518   1.602  0.8735  2.0079  1.8454
 4025TIP3   OH233633   1.490   4.604   7.796  0.2603  0.5686 -0.5190
 4025TIP3    H133634   1.483   4.516   7.761 -1.7242  0.2479  0.5292
 4025TIP3    H233635   1.462   4.661   7.724 -0.7302  0.1542 -0.4784
 4026TIP3   OH233636   4.818   1.425   7.708  0.3862  0.1955 -0.0378
 4026TIP3    H133637   4.772   1.509   7.705 -0.6105 -0.2355  1.7379
 4026TIP3    H233638   4.868   1.422   7.626  0.7927  2.6903  0.0364
 4027TIP3   OH233639   6.594   0.485   7.036 -0.2660  0.0663 -0.1453
 4027TIP3    H133640   6.647   0.561   7.014  0.2173 -0.5961 -1.3497
 4027TIP3    H233641   6.511   0.498   6.990 -0.3690  0.0949  0.0452
 4028TIP3   OH233642   3.728   1.224   8.256 -0.3793  0.0926  0.4720
 4028TIP3    H133643   3.683   1.289   8.310 -1.6710 -1.2335  1.0521
 4028TIP3    H233644   3.693   1.140   8.285  1.5010 -0.9181 -0.0102
 4029TIP3   OH233645   0.174   6.688   0.144 -0.0384  0.0479  0.6086
 4029TIP3    H133646   0.249   6.699   0.202  1.4773 -1.0019 -1.0526
 4029TIP3    H233647   0.200   6.729   0.062 -1.8237  0.7988  0.3668
 4030TIP3   OH233648   3.490   2.133   2.622  0.0498  0.3538 -0.5962
 4030TIP3    H133649   3.399   2.125   2.595 -0.7361 -0.5445  1.9891
 4030TIP3    H233650   3.514   2.224   2.603 -1.8169  0.9669 -0.1760
 4031TIP3   OH233651   0.379   5.284   2.117 -0.1928  0.0502  0.3637
 4031TIP3    H133652   0.440   5.257   2.186 -0.4198  1.5311  1.1828
 4031TIP3    H233653   0.417   5.364   2.081 -1.7409  1.1572  1.0726
 4032TIP3   OH233654   4.288   6.091   1.634 -0.2202 -0.0759 -0.4735
 4032TIP3    H133655   4.364   6.132   1.674  0.1842 -0.1338 -1.1580
 4032TIP3    H233656   4.215   6.151   1.654 -0.0227 -0.0907  0.2927
 4033TIP3   OH233657   0.357   6.520   7.661  0.1694 -0.3159  0.4123
 4033TIP3    H133658   0.320   6.432   7.648 -1.0851  0.2156  0.2173
 4033TIP3    H233659   0.351   6.534   7.756 -0.6762 -0.0140  0.3203
 4034TIP3   OH233660   6.561   1.845   8.529 -0.1603  0.1702  0.2720
 4034TIP3    H133661   6.555   1.752   8.552 -2.7236  0.4833  1.1755
 4034TIP3    H233662   6.591   1.887   8.610  0.9044  0.1946 -0.1105
 4035TIP3   OH233663   5.033   5.035   1.459  0.2731 -0.0276  0.0572
 4035TIP3    H133664   4.976   5.094   1.508  0.7111  0.5975 -0.1749
 4035TIP3    H233665   5.122   5.067   1.477  0.5033 -0.5105 -0.2048
 4036TIP3   OH233666   2.660   3.950   2.046 -0.2517  0.9447 -0.6296
 4036TIP3    H133667   2.594   4.012   2.015 -1.0674  1.7427  2.3238
 4036TIP3    H233668   2.725   4.004   2.090  0.0453 -0.1385  0.3170
 4037TIP3   OH233669   1.459   0.708   7.825 -0.0963  0.7543  1.0288
 4037TIP3    H133670   1.400   0.657   7.880  0.8908  1.2192  2.5846
 4037TIP3    H233671   1.470   0.655   7.746 -0.0123 -0.9243  2.0992
 4038TIP3   OH233672   4.923   3.150   0.977 -0.2796 -0.1185  0.2830
 4038TIP3    H133673   4.860   3.090   0.937  0.8791 -1.5614  0.5000
 4038TIP3    H233674   4.877   3.186   1.053 -0.9893 -0.8202  0.2034
 4039TIP3   OH233675   2.440   1.861   1.562  0.2659 -1.0267 -0.0116
 4039TIP3    H133676   2.461   1.781   1.609 -2.7407 -0.7788  2.0742
 4039TIP3    H233677   2.434   1.835   1.470 -0.3823 -3.1356  0.5820
 4040TIP3   OH233678   1.385   1.250   2.083  0.3705 -0.5817  0.4723
 4040TIP3    H133679   1.352   1.161   2.069  1.6521 -0.8339 -1.3912
 4040TIP3    H233680   1.432   1.245   2.166  2.0082 -2.1885 -0.4829
 4041TIP3   OH233681   2.542   5.046   0.534 -0.1990 -0.0689 -0.5333
 4041TIP3    H133682   2.611   5.046   0.468 -0.7031  2.3364 -1.1478
 4041TIP3    H233683   2.462   5.024   0.486 -0.2482 -0.5348 -0.2554
 4042TIP3   OH233684   3.268   3.076   1.632  0.2143  0.0796 -0.0541
 4042TIP3    H133685   3.348   3.128   1.631  0.0078  0.4178  0.5660
 4042TIP3    H233686   3.229   3.091   1.546  0.5985  0.2548 -0.2007
 4043TIP3   OH233687   5.978   2.883   0.420  0.6985  0.1387 -0.7539
 4043TIP3    H133688   5.919   2.888   0.345  1.1105 -1.6857 -1.2398
 4043TIP3    H233689   5.977   2.972   0.457  0.1433  0.9624 -2.6355
 4044TIP3   OH233690   4.515   0.026   6.705  0.8306 -0.1808 -0.2168
 4044TIP3    H133691   4.448   0.093   6.692 -0.1398 -1.3094 -1.2384
 4044TIP3    H233692   4.537   0.032   6.798 -1.2333 -0.2628  0.3189
 4045TIP3   OH233693   5.943   1.228   0.103  0.1485 -0.5982  0.2061
 4045TIP3    H133694   5.926   1.219   0.197  2.3375 -0.7032  0.6499
 4045TIP3    H233695   5.875   1.175   0.061 -1.2184 -0.0791  1.6766
 4046TIP3   OH233696   6.246   3.952   0.286  0.3075 -0.7195 -0.3467
 4046TIP3    H133697   6.327   3.964   0.236 -0.6055  0.5143 -1.5934
 4046TIP3    H233698   6.182   3.920   0.223 -1.0566  1.5047 -0.2264
 4047TIP3   OH233699   2.730   3.726   7.407 -0.1319 -0.5910  0.1119
 4047TIP3    H133700   2.654   3.780   7.433  1.7720  1.5312  1.7221
 4047TIP3    H233701   2.787   3.787   7.359  1.1463 -1.7644  0.0810
 4048TIP3   OH233702   5.817   5.688   0.915  0.8522 -0.2962  0.4890
 4048TIP3    H133703   5.749   5.621   0.929  0.1689  0.5115  1.1725
 4048TIP3    H233704   5.899   5.641   0.928  0.3760 -0.8684  1.7129
 4049TIP3   OH233705   5.907   0.938   7.317  0.0883 -0.4039  0.1935
 4049TIP3    H133706   5.930   0.958   7.407 -0.7598  0.4453  0.2374
 4049TIP3    H233707   5.985   0.959   7.266 -0.1410  1.2593  0.4737
 4050TIP3   OH233708   4.658   6.671   1.322 -0.3708 -0.4425 -0.4097
 4050TIP3    H133709   4.674   6.649   1.230 -0.3797  3.0210 -1.3861
 4050TIP3    H233710   4.644   6.766   1.322 -0.5705 -0.3272  3.1767
 4051TIP3   OH233711   4.270   5.120   1.292 -0.3778  0.1648 -0.4082
 4051TIP3    H133712   4.289   5.187   1.358 -1.8733 -0.2729  0.5048
 4051TIP3    H233713   4.284   5.037   1.338 -0.9492 -0.1477 -0.7975
 4052TIP3   OH233714   1.620   4.224   7.504 -0.5203  0.2196  0.0507
 4052TIP3    H133715   1.556   4.153   7.491  1.2341 -1.2709 -1.0955
 4052TIP3    H233716   1.617   4.274   7.422 -1.2820  1.1004  0.6007
 4053TIP3   OH233717   1.927   6.312   1.511  0.9132 -0.2080  0.3226
 4053TIP3    H133718   1.834   6.324   1.531  1.0003  0.9116  0.0918
 4053TIP3    H233719   1.967   6.294   1.597  0.7778  1.2888  0.7188
 4054TIP3   OH233720   2.144   1.815   1.108  0.3649 -0.2119  0.1057
 4054TIP3    H133721   2.158   1.893   1.162 -0.0085 -0.3576  0.4176
 4054TIP3    H233722   2.221   1.812   1.051  0.0382  0.7976 -0.4299
 4055TIP3   OH233723   0.248   5.297   8.732 -0.2178 -0.3181  0.0283
 4055TIP3    H133724   0.219   5.208   8.712 -0.2560 -0.1437 -0.7405
 4055TIP3    H233725   0.319   5.285   8.795 -0.9360 -0.8295  0.7634
 4056TIP3   OH233726   1.637   3.260   8.170 -0.1484 -0.4513  0.3447
 4056TIP3    H133727   1.691   3.205   8.113  1.5172  1.4000  0.0168
 4056TIP3    H233728   1.554   3.269   8.123  0.4819 -0.5831 -0.8452
 4057TIP3   OH233729   1.738   6.154   0.617 -0.4899  0.1593  0.0599
 4057TIP3    H133730   1.715   6.090   0.550  0.3583 -0.5400  0.4141
 4057TIP3    H233731   1.741   6.103   0.698  2.0837  0.2184  0.0680
 4058TIP3   OH233732   6.193   0.734   1.796 -0.0307  0.0529  0.0196
 4058TIP3    H133733   6.191   0.821   1.755 -0.3679 -0.2416 -0.5985
 4058TIP3    H233734   6.276   0.732   1.843 -0.8079  1.3897  1.5594
 4059TIP3   OH233735   5.566   0.497   0.867  0.2443 -0.1870 -0.5723
 4059TIP3    H133736   5.594   0.445   0.791  2.8552  0.0880  0.0935
 4059TIP3    H233737   5.646   0.541   0.897 -0.3226 -1.2929  3.1140
 4060TIP3   OH233738   0.295   3.449   1.607  0.3597 -0.2599 -0.0604
 4060TIP3    H133739   0.365   3.439   1.671 -1.2040 -1.7614  1.5437
 4060TIP3    H233740   0.289   3.364   1.564  0.5048  0.3279 -1.2915
 4061TIP3   OH233741   0.521   3.902   8.362  0.0905 -0.0034 -0.0764
 4061TIP3    H133742   0.571   3.882   8.442  0.5541  0.0846 -0.3421
 4061TIP3    H233743   0.583   3.889   8.291 -0.5942 -1.0326 -0.5027
 4062TIP3   OH233744   6.320   6.235   7.862  0.0679 -0.1316 -0.2715
 4062TIP3    H133745   6.368   6.210   7.783 -1.1421  1.2866 -1.5196
 4062TIP3    H233746   6.231   6.251   7.832 -0.4370  0.3891  1.3931
 4063TIP3   OH233747   6.090   4.729   2.438  0.1191 -0.2215  0.3140
 4063TIP3    H133748   6.121   4.791   2.504 -0.5070 -0.8252  1.1950
 4063TIP3    H233749   6.047   4.660   2.488 -2.6589  0.5647 -0.7796
 4064TIP3   OH233750   1.534   5.954   2.359 -0.1129  0.2358 -0.2777
 4064TIP3    H133751   1.590   6.006   2.417  0.4958 -2.9021  2.2996
 4064TIP3    H233752   1.447   5.960   2.399 -0.0258 -0.6616  0.0781
 4065TIP3   OH233753   2.464   2.181   8.330  1.0260  0.3864  0.4517
 4065TIP3    H133754   2.427   2.098   8.359  0.3679  0.1791 -0.9298
 4065TIP3    H233755   2.527   2.204   8.399  0.3014 -0.6100  1.4801
 4066TIP3   OH233756   0.749   1.641   1.918 -0.2990  0.1683 -0.0456
 4066TIP3    H133757   0.701   1.706   1.865 -1.6180 -2.1021 -1.8353
 4066TIP3    H233758   0.697   1.632   1.998 -0.1920  1.1751  0.1482
 4067TIP3   OH233759   4.500   3.697   1.322 -0.9884  0.6783  0.0639
 4067TIP3    H133760   4.543   3.653   1.396 -0.9208 -0.6589 -0.7240
 4067TIP3    H233761   4.451   3.769   1.361 -1.4703 -0.3782  1.4901
 4068TIP3   OH233762   2.457   4.540   7.705 -0.4323 -0.9342 -0.0658
 4068TIP3    H133763   2.524   4.527   7.638  0.3811  0.6984  0.3946
 4068TIP3    H233764   2.383   4.577   7.657 -0.3122 -0.9563 -0.2713
 4069TIP3   OH233765   2.337   1.198   7.446  0.2787  0.0222  0.1822
 4069TIP3    H133766   2.306   1.249   7.371  0.8418 -0.8163 -0.6401
 4069TIP3    H233767   2.305   1.109   7.428  1.5014 -0.4462  0.2907
 4070TIP3   OH233768   6.716   0.139   0.245  0.2675 -0.7719  0.4794
 4070TIP3    H133769   6.724   0.050   0.281  1.6122 -0.8982 -0.1011
 4070TIP3    H233770   6.716   0.196   0.322 -2.4427 -1.3146  1.0074
 4071TIP3   OH233771   6.169   0.836   1.335  0.2040  0.0662 -0.3739
 4071TIP3    H133772   6.108   0.884   1.279 -0.6015 -0.1169  0.3300
 4071TIP3    H233773   6.185   0.755   1.288 -2.1979 -1.0763  0.6141
 4072TIP3   OH233774   6.233   4.759   1.793 -0.0119  0.5195  0.5421
 4072TIP3    H133775   6.250   4.846   1.757 -1.8939  0.7051  0.0234
 4072TIP3    H233776   6.138   4.756   1.806  0.2084 -0.8289  2.2160
 4073TIP3   OH233777   1.961   5.717   0.746  0.3948  0.2186 -0.0646
 4073TIP3    H133778   2.034   5.677   0.795  0.7281 -1.2139 -1.6515
 4073TIP3    H233779   1.883   5.692   0.796  0.7260 -1.2251 -0.2286
 4074TIP3   OH233780   2.105   5.717   0.508  0.4129 -0.4813 -0.2846
 4074TIP3    H133781   2.191   5.700   0.546  0.7436  1.5571 -0.0082
 4074TIP3    H233782   2.045   5.713   0.583  0.5271 -0.1031 -0.1737
 4075TIP3   OH233783   3.566   3.457   3.152  0.2757 -0.0298  0.0691
 4075TIP3    H133784   3.624   3.386   3.179  1.3643  1.5836  2.2011
 4075TIP3    H233785   3.625   3.531   3.136 -0.7885  0.3714 -2.5250
 4076TIP3   OH233786   2.027   4.323   0.967  0.4758  0.2190 -0.4364
 4076TIP3    H133787   2.077   4.252   1.006 -1.9093 -0.4351  1.7097
 4076TIP3    H233788   1.974   4.282   0.900 -2.7575 -0.7173  2.4497
 4077TIP3   OH233789   3.173   3.620   1.927  0.1015  0.1347  0.4113
 4077TIP3    H133790   3.198   3.530   1.909 -0.5970  0.0493 -0.2081
 4077TIP3    H233791   3.098   3.613   1.986 -1.0371  0.2135 -0.9414
 4078TIP3   OH233792   1.851   0.092   8.771 -0.2988  0.3158 -0.4034
 4078TIP3    H133793   1.942   0.072   8.792 -0.7506 -1.1730  0.2733
 4078TIP3    H233794   1.821   0.147   8.844 -0.3873 -0.5519  0.2307
 4079TIP3   OH233795   3.263   5.830   0.155  0.5516 -0.4167 -0.1596
 4079TIP3    H133796   3.231   5.741   0.140 -0.9341  0.3099 -1.7012
 4079TIP3    H233797   3.189   5.875   0.196  1.7659 -0.2147  1.9013
 4080TIP3   OH233798   3.987   4.953   2.694  0.2059 -0.4558 -0.2679
 4080TIP3    H133799   3.996   4.896   2.618  0.2553 -1.4878  0.4804
 4080TIP3    H233800   3.946   4.898   2.761  1.3697  0.0057  0.8830
 4081TIP3   OH233801   4.450   3.294   8.631 -0.1606  0.4030  0.1572
 4081TIP3    H133802   4.359   3.300   8.601 -0.4530  3.2551  1.3351
 4081TIP3    H233803   4.448   3.227   8.700 -1.0071 -0.6937 -0.8940
 4082TIP3   OH233804   6.552   2.987   2.867  0.3894  0.0841 -0.0647
 4082TIP3    H133805   6.647   2.984   2.882  0.4905  1.5811 -0.3249
 4082TIP3    H233806   6.522   2.899   2.891  2.0874 -1.0281 -1.7034
 4083TIP3   OH233807   0.365   4.101   1.851  0.3533  0.0698 -0.5516
 4083TIP3    H133808   0.317   4.180   1.875  2.8228  1.6856 -0.4981
 4083TIP3    H233809   0.386   4.060   1.934 -1.4749 -1.0646 -0.6013
 4084TIP3   OH233810   3.186   1.214   1.351  0.8493  0.0871 -0.6733
 4084TIP3    H133811   3.192   1.199   1.256 -0.0077  0.1658 -0.7452
 4084TIP3    H233812   3.277   1.223   1.379  1.0694  1.7215 -1.7561
 4085TIP3   OH233813   2.367   2.559   8.301 -0.0890  0.8459 -0.1494
 4085TIP3    H133814   2.374   2.652   8.323  2.2179  0.4455  1.0723
 4085TIP3    H233815   2.451   2.537   8.262 -1.0348 -0.5098 -1.5326
 4086TIP3   OH233816   5.238   6.582   1.796  0.4553  0.2830  0.2907
 4086TIP3    H133817   5.231   6.590   1.891 -2.0173  1.4198  0.1001
 4086TIP3    H233818   5.323   6.619   1.775  1.0287  0.0647  2.0438
 4087TIP3   OH233819   4.687   1.946   0.838  0.6309  0.1110 -0.3376
 4087TIP3    H133820   4.723   1.858   0.847 -0.5078 -0.3208  0.1412
 4087TIP3    H233821   4.607   1.945   0.890  0.2635  1.2358 -0.8504
 4088TIP3   OH233822   6.104   0.525   7.572  0.6190 -0.4267  0.1283
 4088TIP3    H133823   6.109   0.584   7.497  0.9659  0.4372  0.8118
 4088TIP3    H233824   6.177   0.465   7.559 -1.2129 -2.3986 -1.9123
 4089TIP3   OH233825   5.510   5.639   0.698  0.5435 -0.3391 -0.0610
 4089TIP3    H133826   5.591   5.648   0.649 -0.3819 -1.5949 -1.9227
 4089TIP3    H233827   5.536   5.604   0.783  1.9094 -1.0465 -0.7541
 4090TIP3   OH233828   5.486   0.350   2.903  0.6125 -0.2480  0.4281
 4090TIP3    H133829   5.417   0.303   2.856 -0.0598  1.9793 -0.9929
 4090TIP3    H233830   5.479   0.319   2.994  0.0488 -2.5696 -0.3390
 4091TIP3   OH233831   4.286   6.033   8.309  0.0007 -0.4923  0.0036
 4091TIP3    H133832   4.260   6.124   8.324  0.5731 -0.2496 -0.4258
 4091TIP3    H233833   4.258   6.015   8.219 -0.3861 -0.8413  0.1925
 4092TIP3   OH233834   2.545   5.884   2.681 -0.2232 -0.5840 -0.1870
 4092TIP3    H133835   2.587   5.799   2.667 -0.2275 -0.4844 -0.8282
 4092TIP3    H233836   2.591   5.944   2.622 -1.5877 -0.5794 -1.2987
 4093TIP3   OH233837   2.307   4.364   1.152 -0.3065  0.0098 -0.4741
 4093TIP3    H133838   2.292   4.281   1.107 -0.4388  1.0118 -2.4193
 4093TIP3    H233839   2.331   4.340   1.241 -2.7109 -2.0363 -0.2788
 4094TIP3   OH233840   3.177   5.271   6.883 -0.1987  0.3709 -0.5659
 4094TIP3    H133841   3.240   5.341   6.897 -0.3163  0.5012 -0.6842
 4094TIP3    H233842   3.227   5.204   6.835 -0.0384  0.2950 -0.2964
 4095TIP3   OH233843   5.646   1.884   1.693 -0.2622  0.0778  0.4861
 4095TIP3    H133844   5.693   1.934   1.760 -1.5704  0.3334  1.2608
 4095TIP3    H233845   5.557   1.919   1.696 -0.4475 -0.1896 -1.1259
 4096TIP3   OH233846   3.583   2.177   8.581  0.1863  0.1695  0.2522
 4096TIP3    H133847   3.492   2.195   8.603 -0.4138 -1.6599 -0.4733
 4096TIP3    H233848   3.599   2.089   8.615  0.7021 -0.7899 -2.2283
 4097TIP3   OH233849   3.336   5.889   0.617  0.7634  0.4255  0.2809
 4097TIP3    H133850   3.316   5.943   0.694 -2.4429  1.8799 -1.3842
 4097TIP3    H233851   3.376   5.950   0.555  1.8600 -0.3778  0.1707
 4098TIP3   OH233852   3.701   2.658   3.265 -0.0183  0.5134  0.2664
 4098TIP3    H133853   3.611   2.638   3.290  0.0332  0.6160  0.5365
 4098TIP3    H233854   3.694   2.738   3.212 -0.4442 -1.2409 -2.4922
 4099TIP3   OH233855   3.512   5.642   0.603 -0.0850  0.1762  0.7074
 4099TIP3    H133856   3.476   5.730   0.613 -0.7438 -0.0841  0.6564
 4099TIP3    H233857   3.446   5.594   0.554  0.7358 -0.0591 -0.2035
 4100TIP3   OH233858   1.527   3.401   7.221  0.0509  0.3362 -0.1752
 4100TIP3    H133859   1.577   3.431   7.145  0.5328  2.3157  0.8569
 4100TIP3    H233860   1.576   3.434   7.297  0.2491 -2.5903  1.1066
 4101TIP3   OH233861   2.799   3.139   1.787  0.7934  0.3309  0.4110
 4101TIP3    H133862   2.894   3.139   1.795  0.9962 -0.5914 -1.4642
 4101TIP3    H233863   2.772   3.050   1.812  0.5259  0.3136  0.0768
 4102TIP3   OH233864   4.625   5.848   1.011  0.0034  0.5977  0.0027
 4102TIP3    H133865   4.631   5.918   0.946 -2.1668  1.5325  0.7280
 4102TIP3    H233866   4.638   5.892   1.095 -5.9447  1.3270  0.9735
 4103TIP3   OH233867   1.469   1.418   2.296 -0.3973 -0.5649 -0.0143
 4103TIP3    H133868   1.475   1.435   2.202  0.4214 -0.6417  0.0145
 4103TIP3    H233869   1.376   1.426   2.317 -0.4832  0.2468 -0.6820
 4104TIP3   OH233870   0.955   4.928   3.035  0.5418 -0.0565 -0.0711
 4104TIP3    H133871   0.887   4.863   3.055 -0.1417  0.6152 -0.1618
 4104TIP3    H233872   0.918   5.011   3.064  2.4386  0.0315  2.4383
 4105TIP3   OH233873   4.415   3.710   0.475  0.3253 -0.2938 -0.3702
 4105TIP3    H133874   4.457   3.719   0.561  0.0317  1.2772 -0.3715
 4105TIP3    H233875   4.488   3.692   0.415  0.5532 -1.2332  0.1552
 4106TIP3   OH233876   1.234   2.165   8.038  0.1514  0.5723  0.9205
 4106TIP3    H133877   1.304   2.103   8.019  0.0218  0.9585 -1.0342
 4106TIP3    H233878   1.169   2.115   8.087  0.9017 -0.3036  1.0375
 4107TIP3   OH233879   6.564   2.308   0.095  0.5199 -0.1684 -0.4056
 4107TIP3    H133880   6.516   2.225   0.093  0.4660 -0.1458 -0.0596
 4107TIP3    H233881   6.653   2.286   0.070  0.6750 -0.4462  0.3647
 4108TIP3   OH233882   5.299   0.200   7.624  0.1075  0.6289 -0.6100
 4108TIP3    H133883   5.393   0.213   7.633  0.0102  0.4634  0.8528
 4108TIP3    H233884   5.261   0.287   7.641 -0.0702  0.4112  0.1220
 4109TIP3   OH233885   3.325   3.043   7.582 -0.0224  0.4366  0.3975
 4109TIP3    H133886   3.299   3.071   7.494 -0.8583  0.4725  0.6458
 4109TIP3    H233887   3.388   3.109   7.610  2.3837 -1.0390 -1.2120
 4110TIP3   OH233888   3.765   4.261   7.233  0.1875 -0.0219 -0.6622
 4110TIP3    H133889   3.770   4.344   7.185  0.6250 -0.1812 -0.8967
 4110TIP3    H233890   3.846   4.215   7.210 -1.4291 -1.8860 -2.9722
 4111TIP3   OH233891   2.601   0.422   7.918 -0.0879 -0.1472 -0.0325
 4111TIP3    H133892   2.549   0.502   7.930 -0.3290 -0.6385  2.8870
 4111TIP3    H233893   2.678   0.434   7.974  0.1492 -1.7385  0.0394
 4112TIP3   OH233894   1.529   3.744   2.619 -0.2081 -0.0367 -0.9770
 4112TIP3    H133895   1.462   3.717   2.680 -0.1517 -0.6993 -1.1973
 4112TIP3    H233896   1.484   3.750   2.534  0.1191 -1.0420 -1.2333
 4113TIP3   OH233897   4.026   4.838   1.555  0.0179 -0.2657  0.4244
 4113TIP3    H133898   3.991   4.926   1.568 -0.1954 -0.2161 -0.4304
 4113TIP3    H233899   3.999   4.789   1.633 -0.9007  0.1026  0.3480
 4114TIP3   OH233900   1.722   6.152   7.896  0.6792  0.3094 -0.4938
 4114TIP3    H133901   1.649   6.151   7.835  0.6495  2.2641 -0.5456
 4114TIP3    H233902   1.685   6.121   7.979 -0.3464  1.7324 -0.3966
 4115TIP3   OH233903   6.464   2.816   7.629 -0.4742 -0.4414 -0.1655
 4115TIP3    H133904   6.432   2.903   7.607 -0.9047 -0.4076  0.5582
 4115TIP3    H233905   6.386   2.767   7.654 -0.2026 -0.9551 -0.3082
 4116TIP3   OH233906   2.309   5.756   0.710  0.2390 -0.1887  0.0130
 4116TIP3    H133907   2.397   5.778   0.742 -0.6787  1.6466  1.5377
 4116TIP3    H233908   2.258   5.835   0.727 -1.0574 -0.0670 -3.6429
 4117TIP3   OH233909   2.817   4.765   7.459  0.4051  0.5351 -0.1464
 4117TIP3    H133910   2.794   4.699   7.394 -0.0146  0.2577  0.2817
 4117TIP3    H233911   2.875   4.825   7.412  0.1945  0.2780 -0.7459
 4118TIP3   OH233912   0.990   0.797   0.846  0.7393 -0.5121  0.5057
 4118TIP3    H133913   0.991   0.702   0.842  1.0533 -0.5752  1.6785
 4118TIP3    H233914   0.954   0.825   0.762 -0.8487 -1.7110  0.7354
 4119TIP3   OH233915   0.954   3.119   8.682 -0.3893 -0.2333 -0.3310
 4119TIP3    H133916   1.018   3.189   8.686  1.1886 -1.5611 -1.0393
 4119TIP3    H233917   0.963   3.083   8.593 -1.3370 -1.1518 -0.0844
 4120TIP3   OH233918   0.404   6.607   8.623  0.5718  0.1004 -0.4650
 4120TIP3    H133919   0.309   6.605   8.618  0.4161 -2.4414  1.2057
 4120TIP3    H233920   0.433   6.575   8.537 -0.2289 -1.5616 -0.1634
 4121TIP3   OH233921   4.223   2.445   2.073 -0.3159  0.1974  0.3810
 4121TIP3    H133922   4.173   2.399   2.140  0.5868  0.0400  0.9548
 4121TIP3    H233923   4.158   2.468   2.006 -0.8762 -1.4240  0.3351
 4122TIP3   OH233924   2.254   0.066   1.520  0.2940  0.1373 -0.6076
 4122TIP3    H133925   2.287  -0.017   1.554 -1.6346 -0.0374  1.0118
 4122TIP3    H233926   2.293   0.132   1.577 -0.5688  0.0689  0.0924
 4123TIP3   OH233927   5.498   0.465   0.578  0.1045  0.3864  0.3122
 4123TIP3    H133928   5.448   0.479   0.497 -0.3149 -0.3381  0.4397
 4123TIP3    H233929   5.587   0.448   0.548  0.1022  0.8269  0.0399
 4124TIP3   OH233930   3.943   1.256   0.043 -0.2319 -0.4985 -0.0130
 4124TIP3    H133931   4.028   1.212   0.033 -0.5383 -1.7695  2.1722
 4124TIP3    H233932   3.965   1.338   0.088  0.0898  0.5102 -1.9405
 4125TIP3   OH233933   3.323   0.167   0.337  0.2903 -0.9902  0.2366
 4125TIP3    H133934   3.398   0.222   0.360  2.1036 -1.8531 -2.9575
 4125TIP3    H233935   3.266   0.225   0.287  0.3888 -1.0817  0.0150
 4126TIP3   OH233936   1.661   0.218   0.199  0.3222 -0.6233  0.1081
 4126TIP3    H133937   1.744   0.185   0.234  1.6153  0.0556 -2.1069
 4126TIP3    H233938   1.680   0.308   0.173 -1.6494  0.1513  1.1493
 4127TIP3   OH233939   4.935   5.013   2.138  0.2173 -0.3600  0.5829
 4127TIP3    H133940   4.872   4.996   2.068 -0.2228  1.0688  0.6014
 4127TIP3    H233941   4.901   5.090   2.183  1.1878 -0.4724  1.5611
 4128TIP3   OH233942   4.950   6.480   2.060  0.4143  0.1634 -0.4220
 4128TIP3    H133943   4.976   6.391   2.080 -0.7559 -0.0866  0.0775
 4128TIP3    H233944   4.920   6.516   2.144 -0.4104  0.5574 -0.8672
 4129TIP3   OH233945   5.459   1.404   7.882 -0.2047 -0.1457  0.5589
 4129TIP3    H133946   5.458   1.372   7.972 -0.5323  0.5875  0.8238
 4129TIP3    H233947   5.543   1.450   7.874 -0.2836  0.0036  0.5745
 4130TIP3   OH233948   2.594   3.304   7.263 -0.4786 -0.1632 -0.4246
 4130TIP3    H133949   2.509   3.333   7.231 -0.0693  1.2484 -0.2998
 4130TIP3    H233950   2.630   3.380   7.309  0.3719 -1.0897  0.5015
 4131TIP3   OH233951   6.236   6.528   6.907 -0.6007 -0.2087  0.0122
 4131TIP3    H133952   6.278   6.605   6.945  1.1175 -0.9144 -0.3498
 4131TIP3    H233953   6.151   6.560   6.875  0.4919  1.8154 -1.0911
 4132TIP3   OH233954   0.321   5.625   0.032  0.3817 -0.2811  0.1329
 4132TIP3    H133955   0.384   5.671   0.087 -0.5964 -0.5456  1.5302
 4132TIP3    H233956   0.250   5.688   0.020  1.2161  0.3416 -2.1593
 4133TIP3   OH233957   6.706   1.452   2.813  0.0428 -0.1362  0.0695
 4133TIP3    H133958   6.728   1.396   2.888  2.6878 -0.9426 -1.1663
 4133TIP3    H233959   6.665   1.392   2.750 -2.6394  0.6406  0.9804
 4134TIP3   OH233960   5.190   1.230   2.625  0.0014  0.1768 -0.4348
 4134TIP3    H133961   5.129   1.239   2.552 -0.5687  0.0842  0.0194
 4134TIP3    H233962   5.273   1.264   2.592 -0.0788 -0.4928 -1.3383
 4135TIP3   OH233963   6.093   5.996   1.001 -0.2552  0.7152  0.2944
 4135TIP3    H133964   6.161   6.024   0.939  2.8460  0.6675  3.4013
 4135TIP3    H233965   6.086   5.902   0.987  1.0759  0.5538  0.5233
 4136TIP3   OH233966   5.818   1.830   0.048 -0.1508 -0.0449  0.0863
 4136TIP3    H133967   5.833   1.775  -0.029 -2.5779 -1.6071  0.6195
 4136TIP3    H233968   5.795   1.768   0.117  0.7712  1.4145  1.7904
 4137TIP3   OH233969   6.643   4.563   8.006 -0.3364 -0.4193 -0.0032
 4137TIP3    H133970   6.656   4.487   7.950  0.4166  0.1844 -0.6652
 4137TIP3    H233971   6.593   4.529   8.081 -0.5179 -1.4313 -0.5678
 4138TIP3   OH233972   3.343   0.398   7.825  0.4573  0.4656  0.1512
 4138TIP3    H133973   3.436   0.413   7.808  0.5532  1.9852  1.6720
 4138TIP3    H233974   3.311   0.483   7.856 -0.5891 -0.8154  2.9769
 4139TIP3   OH233975   0.340   3.026   8.787 -0.5950  0.4631 -0.2849
 4139TIP3    H133976   0.426   3.061   8.811 -0.0921 -0.2601 -0.9456
 4139TIP3    H233977   0.303   2.996   8.870  0.9103 -1.5679 -0.2553
 4140TIP3   OH233978   3.208   0.156   8.599 -0.1467  0.4212 -0.0641
 4140TIP3    H133979   3.283   0.098   8.613 -0.3244  0.5350  1.5769
 4140TIP3    H233980   3.186   0.145   8.507  0.6110 -1.1601 -0.0880
 4141TIP3   OH233981   0.465   3.858   2.496  0.4879 -0.4222  0.1303
 4141TIP3    H133982   0.375   3.878   2.472  0.7200  0.7483  0.1910
 4141TIP3    H233983   0.469   3.762   2.497 -0.0374 -0.5694 -2.6924
 4142TIP3   OH233984   0.142   2.532   8.209 -0.9695 -0.1288  0.2854
 4142TIP3    H133985   0.187   2.482   8.277  0.9542  1.5613  0.3485
 4142TIP3    H233986   0.186   2.506   8.128  0.6546  1.9525  0.4121
 4143TIP3   OH233987   6.813   4.632   0.812  0.0133  0.6628  0.2840
 4143TIP3    H133988   6.791   4.606   0.722  0.1811  0.1730  0.3829
 4143TIP3    H233989   6.889   4.578   0.834  0.2813  1.1376  0.5442
 4144TIP3   OH233990   2.019   0.644   2.373  0.0344 -0.2544  0.4769
 4144TIP3    H133991   2.083   0.691   2.318  1.3001 -1.6668  0.6834
 4144TIP3    H233992   2.060   0.639   2.459 -0.1706 -1.4914  0.5269
 4145TIP3   OH233993   0.822   4.955   7.584  0.2752 -0.2658 -0.1213
 4145TIP3    H133994   0.851   4.908   7.662  0.7387 -0.6147 -0.4993
 4145TIP3    H233995   0.780   4.888   7.529 -0.0829 -0.0160 -0.1527
 4146TIP3   OH233996   4.175   0.628   8.299 -0.4716  0.3241  0.0377
 4146TIP3    H133997   4.244   0.684   8.333  2.6517 -2.9151 -0.3343
 4146TIP3    H233998   4.186   0.545   8.345 -0.6371 -1.9795 -3.6445
 4147TIP3   OH233999   6.824   0.105   1.554 -0.1841 -0.2120  0.0991
 4147TIP3    H134000   6.882   0.175   1.525 -1.9561  2.0158  1.6167
 4147TIP3    H234001   6.752   0.105   1.491  0.3390 -1.5162 -0.5491
 4148TIP3   OH234002   6.089   6.074   8.393  0.2261 -0.6419  0.0273
 4148TIP3    H134003   6.051   6.156   8.360  2.3411  0.4430  0.0965
 4148TIP3    H234004   6.110   6.093   8.484  0.0931 -1.5132  0.2406
 4149TIP3   OH234005   0.858   0.382   7.510  0.4096  0.0636  0.0389
 4149TIP3    H134006   0.870   0.459   7.455  0.2590  0.2922  0.3214
 4149TIP3    H234007   0.936   0.380   7.565 -1.4120  2.5319  3.0730
 4150TIP3   OH234008   4.969   4.341   0.375  0.0079  0.5903 -0.0577
 4150TIP3    H134009   5.017   4.258   0.369  0.6216  1.0131 -1.2616
 4150TIP3    H234010   4.963   4.372   0.285 -1.5863  1.1014  0.1949
 4151TIP3   OH234011   1.025   5.932   2.531 -0.2703 -0.2672  0.1647
 4151TIP3    H134012   1.004   6.024   2.548  1.5370  0.2591 -0.1904
 4151TIP3    H234013   1.036   5.893   2.617 -0.0760  0.1052  0.3115
 4152TIP3   OH234014   3.521   3.049   2.124  0.0732 -0.0909 -0.5109
 4152TIP3    H134015   3.455   3.031   2.191 -0.3327  2.6171 -0.0623
 4152TIP3    H234016   3.602   3.011   2.160 -0.5298 -0.3772  0.6032
 4153TIP3   OH234017   6.345   0.516   1.158  0.2815 -0.0892  0.0999
 4153TIP3    H134018   6.348   0.453   1.086  0.3836  0.5480 -0.4586
 4153TIP3    H234019   6.332   0.462   1.236 -2.2746 -0.6635 -0.6270
 4154TIP3   OH234020   4.379   2.960   8.093 -0.1479  0.4065 -0.1945
 4154TIP3    H134021   4.388   2.961   7.997  0.0350 -1.2819 -0.2365
 4154TIP3    H234022   4.287   2.939   8.108  0.1543 -0.9172 -0.0528
 4155TIP3   OH234023   5.781   4.188   2.440 -0.8799 -0.1496  0.7156
 4155TIP3    H134024   5.773   4.110   2.496 -1.9686  0.2848  1.1924
 4155TIP3    H234025   5.874   4.193   2.420 -0.9077 -2.2660 -0.3243
 4156TIP3   OH234026   3.914   0.826   8.667 -0.4088  0.4861  0.2313
 4156TIP3    H134027   3.979   0.775   8.620 -0.7997 -0.3478  0.5695
 4156TIP3    H234028   3.835   0.821   8.613 -1.4218 -1.9999  1.7216
 4157TIP3   OH234029   3.217   4.277   0.207  0.3940 -0.9852 -0.1626
 4157TIP3    H134030   3.300   4.322   0.193  0.0105 -0.6336 -1.3814
 4157TIP3    H234031   3.152   4.331   0.163 -0.3292 -1.7940 -0.1166
 4158TIP3   OH234032   4.774   3.611   1.024  0.0796 -0.7806  0.3808
 4158TIP3    H134033   4.702   3.669   1.049  0.8900  0.2672  0.3131
 4158TIP3    H234034   4.812   3.582   1.107 -0.3257 -1.2500  0.4140
 4159TIP3   OH234035   5.673   0.559   2.307  0.2618  0.0993  0.9641
 4159TIP3    H134036   5.699   0.539   2.397  0.5981 -0.5489  0.7320
 4159TIP3    H234037   5.716   0.642   2.287 -0.9913  1.0034  1.8820
 4160TIP3   OH234038   5.194   1.337   8.324 -0.0599 -0.4129  0.4593
 4160TIP3    H134039   5.213   1.353   8.232 -0.8284  2.0309  0.6342
 4160TIP3    H234040   5.222   1.247   8.340  0.0212 -0.9170 -2.1529
 4161TIP3   OH234041   5.797   2.357   0.037  0.1985  0.2087 -0.4447
 4161TIP3    H134042   5.824   2.339  -0.053  1.3031 -0.1329 -0.0547
 4161TIP3    H234043   5.768   2.271   0.070 -0.1438  0.3209 -0.4480
 4162TIP3   OH234044   4.785   0.854   0.003 -0.1041 -0.0211  0.0794
 4162TIP3    H134045   4.837   0.926  -0.032 -0.1481  1.1491  2.1983
 4162TIP3    H234046   4.703   0.896   0.030 -0.6868 -1.1384  0.0746
 4163TIP3   OH234047   1.258   5.152   2.204  0.6022 -0.3606  0.1051
 4163TIP3    H134048   1.219   5.236   2.226 -2.4979 -1.7904  0.6080
 4163TIP3    H234049   1.244   5.098   2.282  1.6140 -1.6474 -0.5632
 4164TIP3   OH234050   6.001   4.218   2.125 -0.3475 -0.3447  0.4130
 4164TIP3    H134051   6.022   4.218   2.218  0.1763  1.6638  0.3557
 4164TIP3    H234052   6.058   4.152   2.087 -0.5719 -1.1983  1.4917
 4165TIP3   OH234053   5.923   1.970   1.470  0.8734  0.1884 -0.0914
 4165TIP3    H134054   5.864   1.991   1.543 -0.7333  1.5129 -1.6773
 4165TIP3    H234055   5.988   2.041   1.471  1.6597 -0.5177  0.8139
 4166TIP3   OH234056   0.101   5.642   7.633 -0.8753 -0.6458  0.0291
 4166TIP3    H134057   0.130   5.670   7.546 -0.5226  1.2641  0.6959
 4166TIP3    H234058   0.169   5.582   7.663  0.5551  0.9066  0.0814
 4167TIP3   OH234059   5.265   2.795   8.578  0.2104 -0.2461  0.0939
 4167TIP3    H134060   5.205   2.723   8.557  0.8589 -1.0083  0.8022
 4167TIP3    H234061   5.352   2.758   8.567  0.5801  0.9490 -1.2392
 4168TIP3   OH234062   0.280   1.956   8.649 -0.1795  0.0993  0.2857
 4168TIP3    H134063   0.344   1.895   8.687  0.0318  1.6398  2.6350
 4168TIP3    H234064   0.207   1.901   8.623  0.2670 -1.2541  1.7176
 4169TIP3   OH234065   5.405   1.172   2.448 -0.1520  0.0132  0.2922
 4169TIP3    H134066   5.415   1.103   2.382  2.3032  0.2377  0.3381
 4169TIP3    H234067   5.347   1.235   2.407  0.8664 -0.1208 -1.4927
 4170TIP3   OH234068   6.756   2.331   0.663  0.1209  0.1272  0.1964
 4170TIP3    H134069   6.704   2.307   0.587  0.3345  1.2636 -0.3213
 4170TIP3    H234070   6.831   2.379   0.628 -0.0635  1.1603  1.1380
 4171TIP3   OH234071   5.753   5.240   8.374  0.2907 -0.3171  0.0385
 4171TIP3    H134072   5.729   5.149   8.358 -0.7112  0.0040 -0.3313
 4171TIP3    H234073   5.838   5.250   8.331 -1.3911 -0.0220 -3.5371
 4172TIP3   OH234074   3.123   5.176   0.606 -0.5008 -0.0331 -0.3716
 4172TIP3    H134075   3.038   5.188   0.648 -0.8558  0.2383 -1.1320
 4172TIP3    H234076   3.187   5.181   0.677 -1.1974 -1.6349  0.4268
 4173TIP3   OH234077   5.911   6.743   8.572  0.3475  0.2570 -0.5441
 4173TIP3    H134078   5.926   6.814   8.509 -1.0955  0.4182 -0.7531
 4173TIP3    H234079   5.843   6.689   8.531 -2.7958  1.9205  1.9888
 4174TIP3   OH234080   4.783   0.658   2.105 -0.3898  0.3221 -0.3243
 4174TIP3    H134081   4.806   0.650   2.198 -0.1137  0.1209 -0.4111
 4174TIP3    H234082   4.688   0.665   2.105 -0.3822  0.4615 -0.0147
 4175TIP3   OH234083   6.102   5.322   7.965 -0.5140 -0.1615  0.8080
 4175TIP3    H134084   6.113   5.330   7.870 -1.6648 -0.3964  0.6319
 4175TIP3    H234085   6.143   5.239   7.988 -0.6450 -0.3307  0.4332
 4176TIP3   OH234086   5.670   6.683   1.170 -0.0287 -0.0244  0.1451
 4176TIP3    H134087   5.603   6.712   1.232 -0.1316 -2.5533  1.3040
 4176TIP3    H234088   5.621   6.658   1.092 -0.4107 -1.2412  0.7540
 4177TIP3   OH234089   3.488   2.597   0.047  0.2855  0.4723 -0.3465
 4177TIP3    H134090   3.544   2.605   0.124 -0.4378 -0.3512  0.2771
 4177TIP3    H234091   3.548   2.609  -0.027  1.6190 -1.8654  0.2473
 4178TIP3   OH234092   0.001   5.712   2.140  0.8670  0.2879 -0.2767
 4178TIP3    H134093  -0.001   5.617   2.154 -1.0383  0.3618  0.3527
 4178TIP3    H234094  -0.082   5.731   2.097  0.8644  1.7598  0.3156
 4179TIP3   OH234095   5.744   2.339   7.799  0.1309 -0.1844 -0.0051
 4179TIP3    H134096   5.776   2.249   7.789  1.2697  0.1678  0.3016
 4179TIP3    H234097   5.683   2.351   7.727  0.1349 -1.1291 -0.1807
 4180TIP3   OH234098   6.286   1.925   1.735 -0.0677 -0.6297 -0.5941
 4180TIP3    H134099   6.338   1.847   1.716  0.5488 -0.3274 -0.1746
 4180TIP3    H234100   6.351   1.992   1.756 -0.6498 -0.5916  1.2463
 4181TIP3   OH234101   6.151   2.514   7.477 -0.3081  0.3614  0.3910
 4181TIP3    H134102   6.162   2.576   7.549  1.8093 -1.2843  1.6469
 4181TIP3    H234103   6.113   2.436   7.519 -1.4873  0.2677 -0.8190
 4182TIP3   OH234104   3.794   6.621   8.488 -0.6100 -0.2742  0.1405
 4182TIP3    H134105   3.725   6.595   8.428  0.3892  0.9114 -1.6220
 4182TIP3    H234106   3.836   6.695   8.445  0.7078  0.0794  1.9303
 4183TIP3   OH234107   5.665   5.015   8.656 -0.2874  0.2242  0.4424
 4183TIP3    H134108   5.671   4.945   8.591 -1.5199  0.9392 -0.4857
 4183TIP3    H234109   5.705   5.091   8.614 -0.5457  0.5403  0.7611
 4184TIP3   OH234110   3.682   2.023   2.164  0.5029  0.8258 -0.0427
 4184TIP3    H134111   3.721   1.938   2.148  1.3685  1.3790 -1.0460
 4184TIP3    H234112   3.741   2.066   2.226 -0.8726  0.0704  1.8691
 4185TIP3   OH234113   2.359   2.173   0.685  0.1059  0.4621  0.4275
 4185TIP3    H134114   2.339   2.245   0.744 -0.1437 -1.3847  2.7355
 4185TIP3    H234115   2.303   2.101   0.714  1.3788 -1.1257 -0.8198
 4186TIP3   OH234116   2.548   5.147   8.639 -0.0670 -0.0772  0.2928
 4186TIP3    H134117   2.527   5.146   8.733  1.4531 -2.2815  0.6823
 4186TIP3    H234118   2.619   5.210   8.631  1.4734 -1.6247  1.1131
 4187TIP3   OH234119   6.313   0.384   7.500  0.1530  0.5305  0.5546
 4187TIP3    H134120   6.387   0.397   7.440 -0.8200  0.7279 -0.6490
 4187TIP3    H234121   6.308   0.289   7.512 -0.6902  0.3219 -1.1074
 4188TIP3   OH234122   0.401   6.278   0.128  0.2552  0.4594  0.1648
 4188TIP3    H134123   0.451   6.356   0.150  0.6195  0.7818 -1.6546
 4188TIP3    H234124   0.408   6.271   0.033  0.2175 -1.7724  0.2756
 4189TIP3   OH234125   3.173   5.039   0.381 -0.3726  0.4405  0.9792
 4189TIP3    H134126   3.150   5.098   0.453 -1.5212  0.2406  0.7797
 4189TIP3    H234127   3.124   4.959   0.398 -0.0299  0.0952  0.4000
 4190TIP3   OH234128   2.653   3.198   8.734 -0.1536  0.2806  0.0111
 4190TIP3    H134129   2.636   3.271   8.675 -0.4719 -0.5536 -0.9605
 4190TIP3    H234130   2.616   3.226   8.818 -0.7754  1.0024 -0.4914
 4191TIP3   OH234131   6.727   6.659   7.490  0.1824 -0.1559  0.1048
 4191TIP3    H134132   6.747   6.658   7.584  1.4029  0.2348 -0.1353
 4191TIP3    H234133   6.632   6.668   7.486  0.3247  4.7447  1.3389
 4192TIP3   OH234134   0.334   2.907   2.092 -0.2133  0.1234 -0.0193
 4192TIP3    H134135   0.294   2.990   2.118  1.2503  1.2733 -1.1915
 4192TIP3    H234136   0.412   2.900   2.147  0.2037  0.0561 -0.6042
 4193TIP3   OH234137   0.916   4.284   2.476  0.0106  0.2984 -0.5490
 4193TIP3    H134138   0.994   4.255   2.523 -0.7950  1.0749  1.3622
 4193TIP3    H234139   0.867   4.336   2.540 -1.7166  0.4593 -1.9198
 4194TIP3   OH234140   1.032   6.771   8.036  0.5649  0.0960 -0.2198
 4194TIP3    H134141   1.068   6.832   7.972 -1.8823  1.6741 -0.2198
 4194TIP3    H234142   0.939   6.768   8.017  0.3752 -2.7151  0.6294
 4195TIP3   OH234143   0.966   2.206   0.691  0.2874 -0.3124 -0.4913
 4195TIP3    H134144   0.901   2.179   0.755  0.5645 -1.7749 -0.7936
 4195TIP3    H234145   0.978   2.300   0.707 -0.4713 -0.4174  0.8302
 4196TIP3   OH234146   4.005   5.202   8.543 -0.3159  0.1108  0.2311
 4196TIP3    H134147   4.075   5.145   8.510 -0.8326 -0.2527 -0.2500
 4196TIP3    H234148   4.048   5.287   8.554  0.3522 -0.2556  0.5339
 4197TIP3   OH234149   4.205   0.762   8.615 -0.5364 -0.3896  0.5237
 4197TIP3    H134150   4.270   0.735   8.680 -1.1884 -2.2397  0.4603
 4197TIP3    H234151   4.198   0.857   8.627  0.4642 -0.4694  2.1128
 4198TIP3   OH234152   3.047   3.453   1.067 -0.0675 -0.7552 -0.6563
 4198TIP3    H134153   2.984   3.463   1.139  0.4880 -0.1974 -0.2328
 4198TIP3    H234154   2.996   3.417   0.995 -0.5016 -1.9442  0.2125
 4199TIP3   OH234155   0.603   6.672   1.327  0.0062 -0.6316 -0.5371
 4199TIP3    H134156   0.519   6.626   1.340 -0.4904  0.0886 -1.0910
 4199TIP3    H234157   0.624   6.655   1.235 -0.7427  1.1327 -1.0641
 4200TIP3   OH234158   3.819   0.217   3.201 -0.2283 -0.2127  0.6803
 4200TIP3    H134159   3.726   0.231   3.217 -0.5487 -1.7518  0.3175
 4200TIP3    H234160   3.825   0.195   3.108  0.3049 -1.5583  1.0133
 4201TIP3   OH234161   6.624   5.233   1.473 -0.1855 -0.1440  0.7329
 4201TIP3    H134162   6.689   5.269   1.412 -2.5815 -0.0570 -2.0186
 4201TIP3    H234163   6.629   5.138   1.460 -1.0104 -0.1035 -0.0802
 4202TIP3   OH234164   6.502   1.808   2.273 -0.3463 -0.3874 -0.0038
 4202TIP3    H134165   6.443   1.882   2.288  0.5977  0.6869 -1.2667
 4202TIP3    H234166   6.471   1.768   2.192 -1.1565 -1.7294  0.9336
 4203TIP3   OH234167   1.970   0.678   0.294 -0.2919  0.0750  0.3181
 4203TIP3    H134168   1.949   0.750   0.352 -1.6803 -0.0789  0.0374
 4203TIP3    H234169   1.919   0.695   0.215  1.7227  0.4055 -0.9907
 4204TIP3   OH234170   4.476   6.610   8.138 -0.6012  0.1710 -0.3276
 4204TIP3    H134171   4.466   6.705   8.140 -0.8718  0.1364  0.2571
 4204TIP3    H234172   4.401   6.579   8.088 -0.9613  0.2184  0.1707
 4205TIP3   OH234173   0.042   3.965   1.149 -0.7796  0.0934 -0.6954
 4205TIP3    H134174   0.137   3.966   1.141 -0.6427 -0.1642  0.6024
 4205TIP3    H234175   0.018   3.874   1.133 -0.8040  0.1640 -1.0495
 4206TIP3   OH234176   4.663   6.295   8.476  0.5324  0.2210 -0.0784
 4206TIP3    H134177   4.682   6.337   8.393  1.9785 -0.4342 -0.1042
 4206TIP3    H234178   4.607   6.221   8.453  0.4722  0.3613 -0.3893
 4207TIP3   OH234179   1.374   1.311   1.809  0.0774  0.1839  0.2289
 4207TIP3    H134180   1.292   1.350   1.779 -0.8328 -1.8532 -0.0877
 4207TIP3    H234181   1.362   1.299   1.903 -0.7263 -1.6021 -0.0458
 4208TIP3   OH234182   5.881   1.154   1.769 -0.3808 -0.3251 -0.6085
 4208TIP3    H134183   5.859   1.241   1.804 -1.8540 -1.4260  1.4493
 4208TIP3    H234184   5.960   1.129   1.816 -0.5100 -0.4655 -0.4611
 4209TIP3   OH234185   0.498   6.307   8.685 -0.3864  0.6958 -0.2529
 4209TIP3    H134186   0.582   6.270   8.656 -0.7405 -0.0891 -0.3031
 4209TIP3    H234187   0.507   6.401   8.671 -0.0691  0.4687 -1.6941
 4210TIP3   OH234188   6.476   3.474   1.634  0.0974  0.5702 -0.7785
 4210TIP3    H134189   6.469   3.518   1.549 -2.2415  1.2385 -0.3127
 4210TIP3    H234190   6.444   3.385   1.618 -1.4521  1.0316 -0.4142
 4211TIP3   OH234191   3.652   6.516   0.593 -0.5387 -0.3323 -0.0988
 4211TIP3    H134192   3.725   6.464   0.559  1.1053  2.8139 -1.9536
 4211TIP3    H234193   3.583   6.505   0.529  0.4629  1.0303 -1.5000
 4212TIP3   OH234194   5.177   5.077   1.225  0.5603  0.1036 -0.5115
 4212TIP3    H134195   5.120   5.054   1.298  0.2991  0.9092 -0.4481
 4212TIP3    H234196   5.265   5.055   1.255  0.4136  0.0749 -0.1004
 4213TIP3   OH234197   4.827   3.870   7.780  0.1210 -0.1837  0.5155
 4213TIP3    H134198   4.805   3.879   7.688  0.9477 -0.0044  0.3312
 4213TIP3    H234199   4.785   3.789   7.807 -2.1123  0.9047  0.5891
 4214TIP3   OH234200   1.479   0.904   2.502 -0.2539 -0.4466 -0.5672
 4214TIP3    H134201   1.443   0.882   2.588  1.3438  1.5617  0.7024
 4214TIP3    H234202   1.469   0.824   2.450  0.1231 -2.2245  1.9521
 4215TIP3   OH234203   3.567   4.554   1.811  0.5157 -0.1838  0.9250
 4215TIP3    H134204   3.661   4.566   1.823  0.8238 -1.5575  0.0596
 4215TIP3    H234205   3.540   4.631   1.761  1.3476 -0.1940  0.4326
 4216TIP3   OH234206   1.092   0.992   8.072  0.1332  0.7092 -0.4809
 4216TIP3    H134207   1.065   0.936   7.999 -1.0539  1.3080 -0.5224
 4216TIP3    H234208   1.184   1.010   8.055  0.0731  0.2059 -1.4233
 4217TIP3   OH234209   2.341   3.600   8.019  0.0149 -0.1716 -0.2356
 4217TIP3    H134210   2.296   3.656   7.955  0.9271 -0.1856 -0.9015
 4217TIP3    H234211   2.369   3.524   7.969 -2.4923 -2.0215  0.9462
 4218TIP3   OH234212   4.451   1.371   1.370 -0.6636  0.2914 -0.0569
 4218TIP3    H134213   4.540   1.341   1.353 -1.4194 -1.2866 -1.6079
 4218TIP3    H234214   4.461   1.461   1.401  1.5196 -0.2880  1.1351
 4219TIP3   OH234215   3.873   6.139   0.956  0.9091  0.1801  0.3477
 4219TIP3    H134216   3.938   6.126   1.025  0.7116 -0.2797  0.4486
 4219TIP3    H234217   3.877   6.233   0.936  3.5864 -0.2398 -1.5799
 4220TIP3   OH234218   3.113   0.104   8.343  0.0629 -0.6318  0.1750
 4220TIP3    H134219   3.113   0.098   8.248  1.4343  0.1914  0.0961
 4220TIP3    H234220   3.054   0.035   8.372  0.1197 -1.2997 -1.2498
 4221TIP3   OH234221   3.283   5.317   0.784  0.6738  0.0131 -0.2040
 4221TIP3    H134222   3.326   5.329   0.699 -0.0189 -0.4067 -0.6279
 4221TIP3    H234223   3.354   5.300   0.845  1.1601  0.0105 -0.7605
 4222TIP3   OH234224   3.369   3.164   0.605 -0.3031 -0.3097 -0.2085
 4222TIP3    H134225   3.396   3.115   0.527  0.9171 -0.3643  0.2314
 4222TIP3    H234226   3.372   3.101   0.676 -1.1559 -0.1910 -0.0504
 4223TIP3   OH234227   0.026   5.548   2.654 -0.3956  0.1462 -0.0345
 4223TIP3    H134228   0.000   5.520   2.742 -0.2299  1.2666  0.4007
 4223TIP3    H234229   0.096   5.488   2.629 -1.4028 -1.0805 -0.0092
 4224TIP3   OH234230   0.614   1.145   8.470 -0.7782 -0.6547 -0.1578
 4224TIP3    H134231   0.665   1.068   8.444 -1.4656 -0.9814 -0.5620
 4224TIP3    H234232   0.524   1.122   8.448 -1.1184 -0.1341  0.6557
 4225TIP3   OH234233   0.166   5.137   1.642  0.0110  0.1417 -0.5671
 4225TIP3    H134234   0.142   5.080   1.569  1.6883  0.3567 -1.3227
 4225TIP3    H234235   0.163   5.079   1.719  1.7388 -1.0470 -1.3239
 4226TIP3   OH234236   2.413   1.325   8.383  0.4915 -0.1965 -0.0697
 4226TIP3    H134237   2.415   1.294   8.473  2.5888  0.8877  0.3107
 4226TIP3    H234238   2.504   1.321   8.354 -0.1991 -0.9697 -2.3221
 4227TIP3   OH234239   6.603   0.273   1.145 -0.7512  0.4395  1.0411
 4227TIP3    H134240   6.535   0.296   1.082 -0.1481  0.3339  0.3351
 4227TIP3    H234241   6.672   0.337   1.130  1.0726 -1.8184 -1.1407
 4228TIP3   OH234242   6.130   6.058   0.707 -0.5255 -0.0204  0.3657
 4228TIP3    H134243   6.205   6.003   0.683  0.2661  1.0306  0.4156
 4228TIP3    H234244   6.055   6.011   0.671  0.4103  0.4168 -2.4196
 4229TIP3   OH234245   4.483   2.712   8.434 -0.3618  0.6065  0.1991
 4229TIP3    H134246   4.467   2.776   8.504 -1.3458  0.1756  0.3969
 4229TIP3    H234247   4.440   2.632   8.465 -1.4635  0.6090 -1.2225
 4230TIP3   OH234248   3.545   0.244   0.791 -0.4569 -0.4569  0.4237
 4230TIP3    H134249   3.476   0.207   0.735 -1.6896  0.1410  1.5047
 4230TIP3    H234250   3.626   0.217   0.748 -1.3398 -1.3277 -0.8027
 4231TIP3   OH234251   1.530   3.220   1.953 -0.0451  0.3322 -0.3619
 4231TIP3    H134252   1.602   3.260   1.905  0.9126 -1.1804 -0.2559
 4231TIP3    H234253   1.572   3.162   2.016 -1.3465 -0.6083 -0.3013
 4232TIP3   OH234254   1.183   1.051   3.043 -0.0384  0.2079  0.6208
 4232TIP3    H134255   1.249   1.116   3.020 -0.5306 -0.0265 -1.6303
 4232TIP3    H234256   1.215   0.969   3.006  0.1056 -0.7039  2.6014
 4233TIP3   OH234257   2.910   6.692   0.177 -0.5282 -0.2466  0.0389
 4233TIP3    H134258   2.897   6.785   0.158  0.9958  0.0162  0.2249
 4233TIP3    H234259   2.954   6.690   0.262  0.7138 -1.0846 -0.5969
 4234TIP3   OH234260   6.519   1.328   0.821  0.4256  0.0960  0.1758
 4234TIP3    H134261   6.546   1.240   0.797 -1.5629  0.1404 -2.6707
 4234TIP3    H234262   6.571   1.385   0.765 -1.3572  0.4446 -1.1998
 4235TIP3   OH234263   6.616   0.127   1.778 -0.0152 -0.9769 -0.1889
 4235TIP3    H134264   6.568   0.045   1.764 -0.7713 -0.2698 -2.0068
 4235TIP3    H234265   6.672   0.135   1.702  0.8387 -0.2973  0.4957
 4236TIP3   OH234266   3.704   2.836   1.192 -0.7699 -0.0466  0.6881
 4236TIP3    H134267   3.697   2.745   1.161 -0.1890 -0.9887  3.0908
 4236TIP3    H234268   3.615   2.870   1.187 -1.2244 -1.1588  0.8846
 4237TIP3   OH234269   0.905   2.153   8.692 -0.1158 -0.3036  0.4881
 4237TIP3    H134270   0.885   2.245   8.675  0.3847 -0.2214  0.3435
 4237TIP3    H234271   0.945   2.152   8.779 -0.4360 -0.4287  0.6356
 4238TIP3   OH234272   4.910   6.608   1.384  0.1191 -0.3260  0.1304
 4238TIP3    H134273   4.816   6.623   1.383  0.3820  1.6148 -1.2726
 4238TIP3    H234274   4.924   6.537   1.321 -0.4232 -0.8797  0.6234
 4239TIP3   OH234275   4.401   3.045   0.191  0.1824 -0.1899  0.1097
 4239TIP3    H134276   4.355   3.065   0.110  1.0449 -1.1106 -0.6279
 4239TIP3    H234277   4.493   3.041   0.166  0.3626 -1.6546  0.8786
 4240TIP3   OH234278   6.583   5.742   1.381 -0.3568  0.0408 -0.2749
 4240TIP3    H134279   6.569   5.837   1.383 -0.8760 -0.0389  0.0214
 4240TIP3    H234280   6.649   5.729   1.313  2.8582  1.0068  2.3459
 4241TIP3   OH234281   6.420   4.302   8.626  0.1636 -0.5051 -0.3222
 4241TIP3    H134282   6.357   4.318   8.696 -0.4048 -1.1728 -0.6720
 4241TIP3    H234283   6.372   4.322   8.545  1.1640  1.4092 -0.4969
 4242TIP3   OH234284   5.052   5.087   0.339  0.4886 -0.2798  0.1357
 4242TIP3    H134285   5.087   5.010   0.384 -1.1250 -0.6015  0.9154
 4242TIP3    H234286   5.094   5.161   0.383 -1.5070 -0.5490  2.7475
 4243TIP3   OH234287   5.802   2.243   1.280  0.3763  0.6235 -0.3538
 4243TIP3    H134288   5.712   2.217   1.260  0.3973  0.0012  0.3292
 4243TIP3    H234289   5.856   2.174   1.242  0.6515  1.5406 -1.7246
 4244TIP3   OH234290   3.452   2.940   8.176 -0.0845  0.1924  0.2380
 4244TIP3    H134291   3.450   2.931   8.272  0.4481 -1.9161  0.1066
 4244TIP3    H234292   3.489   2.857   8.145 -1.9989  0.0137 -1.8940
 4245TIP3   OH234293   3.738   3.337   7.634  0.4871  0.3757  0.1877
 4245TIP3    H134294   3.709   3.283   7.561  0.8693  2.9495 -2.0535
 4245TIP3    H234295   3.806   3.286   7.677 -0.1289 -1.4547 -0.9131
 4246TIP3   OH234296   2.164   1.331   0.271  0.0818 -0.3970  0.0064
 4246TIP3    H134297   2.118   1.358   0.191  0.7239  1.2460  0.1615
 4246TIP3    H234298   2.111   1.259   0.305 -2.3966  1.3566  0.1369
 4247TIP3   OH234299   1.385   2.518   1.866  0.0045 -0.9418 -0.0176
 4247TIP3    H134300   1.472   2.477   1.874  0.2796 -0.8225 -1.9491
 4247TIP3    H234301   1.403   2.608   1.839 -0.7221 -0.8888 -0.3364
 4248TIP3   OH234302   0.941   6.749   8.300  0.0115  0.1626 -0.2429
 4248TIP3    H134303   0.996   6.799   8.360  0.6767 -1.1146  0.2701
 4248TIP3    H234304   0.961   6.784   8.214 -0.5746  1.6801  0.2040
 4249TIP3   OH234305   4.064   5.201   2.382 -0.2930 -0.6716  0.4301
 4249TIP3    H134306   4.007   5.188   2.458 -0.3701  0.8237  0.6701
 4249TIP3    H234307   4.151   5.179   2.414 -0.2109  0.6547  1.2071
 4250TIP3   OH234308   5.314   0.568   0.381  0.3657 -0.9222 -0.5454
 4250TIP3    H134309   5.231   0.549   0.337  0.1170 -1.4428  0.1303
 4250TIP3    H234310   5.380   0.558   0.313 -0.2196  0.6628 -1.3796
 4251TIP3   OH234311   0.930   0.836   7.439  0.3049 -0.0755  0.4557
 4251TIP3    H134312   0.997   0.880   7.387 -0.1671  1.1304  0.8166
 4251TIP3    H234313   0.974   0.814   7.521  0.3320  0.5192  0.6067
 4252TIP3   OH234314   6.291   1.966   1.205  0.6171 -0.5045 -0.1972
 4252TIP3    H134315   6.350   1.893   1.185  1.6137  0.2052  0.0681
 4252TIP3    H234316   6.254   1.991   1.121  0.1535 -1.4003 -0.2709
 4253TIP3   OH234317   2.667   5.385   3.133 -0.9410 -0.0605 -0.1934
 4253TIP3    H134318   2.607   5.423   3.198  0.8546  0.9247  0.9841
 4253TIP3    H234319   2.710   5.313   3.180 -1.9175 -1.4531 -1.3643
 4254TIP3   OH234320   6.495   0.865   8.590 -0.6670 -0.7255  0.0528
 4254TIP3    H134321   6.582   0.889   8.622 -0.4583 -0.3941 -0.7271
 4254TIP3    H234322   6.437   0.931   8.627 -0.3780 -0.1421 -0.5051
 4255TIP3   OH234323   2.603   2.079   1.218  0.1685  0.3465  0.3252
 4255TIP3    H134324   2.635   2.045   1.134 -0.6535  3.2604 -1.3039
 4255TIP3    H234325   2.683   2.103   1.266  0.6072  0.0799 -0.2605
 4256TIP3   OH234326   3.323   4.569   8.303  0.0056  0.0291 -0.1022
 4256TIP3    H134327   3.382   4.630   8.349 -1.7630  0.2566  2.0855
 4256TIP3    H234328   3.244   4.620   8.289 -0.2028 -0.6882 -1.7094
 4257TIP3   OH234329   4.563   4.370   0.692  0.4069 -0.4448 -0.1464
 4257TIP3    H134330   4.521   4.359   0.777 -1.6477  2.9496 -0.5273
 4257TIP3    H234331   4.656   4.383   0.713  0.1008 -0.7063  1.4586
 4258TIP3   OH234332   0.895   3.562   1.322 -0.5185  0.0550 -0.8009
 4258TIP3    H134333   0.973   3.610   1.350 -0.9265 -1.1049  2.9733
 4258TIP3    H234334   0.928   3.498   1.258  1.4348  0.3613 -0.1664
 4259TIP3   OH234335   6.009   3.037   8.333 -0.8940 -0.0103 -0.5301
 4259TIP3    H134336   6.092   3.039   8.284  0.8739  0.1998  2.2468
 4259TIP3    H234337   5.946   3.000   8.272  0.7636  1.5840 -3.4342
 4260TIP3   OH234338   1.717   1.068   7.748 -0.0126  0.6860  0.1533
 4260TIP3    H134339   1.676   1.029   7.825  0.7050  0.7459  0.5802
 4260TIP3    H234340   1.645   1.087   7.688 -0.5750  0.6162  0.8064
 4261TIP3   OH234341   1.003   2.416   2.147  0.5241  0.2392  0.2756
 4261TIP3    H134342   1.057   2.385   2.074  1.4534 -1.9306  1.7666
 4261TIP3    H234343   0.920   2.368   2.137  0.0410  1.1527 -0.2176
 4262TIP3   OH234344   5.165   5.507   1.589  0.2689  0.2606 -0.8005
 4262TIP3    H134345   5.254   5.541   1.596  0.2070  0.1043  3.7839
 4262TIP3    H234346   5.133   5.539   1.505  4.3783  0.8142 -2.3680
 4263TIP3   OH234347   1.700   5.488   8.133  0.0468 -0.6455  0.4298
 4263TIP3    H134348   1.776   5.509   8.187 -0.7669 -0.3211  1.4817
 4263TIP3    H234349   1.651   5.423   8.185 -1.0764  0.1459  0.3872
 4264TIP3   OH234350   3.152   4.069   0.833  0.5634 -0.1403 -0.2532
 4264TIP3    H134351   3.118   4.147   0.790  0.5365 -0.7625 -1.4228
 4264TIP3    H234352   3.078   4.034   0.881  0.3701  0.1426 -0.3435
 4265TIP3   OH234353   4.384   2.366   2.405 -0.7392 -0.0942  0.0395
 4265TIP3    H134354   4.465   2.394   2.447 -1.0970 -2.0412  2.2723
 4265TIP3    H234355   4.321   2.435   2.426 -0.3845 -0.0384  0.9712
 4266TIP3   OH234356   3.784   6.253   0.079 -0.5308 -0.7216 -0.5497
 4266TIP3    H134357   3.828   6.334   0.051 -0.5497 -0.5568 -0.1121
 4266TIP3    H234358   3.840   6.219   0.149  0.0136 -1.6236 -1.3992
 4267TIP3   OH234359   0.630   0.200   8.687 -0.0313 -0.0146 -0.1264
 4267TIP3    H134360   0.634   0.277   8.631  0.1392  0.5775  0.6733
 4267TIP3    H234361   0.717   0.161   8.680  0.3771  0.7270  0.6246
 4268TIP3   OH234362   2.346   3.222   0.769  0.3494 -0.2688  0.0846
 4268TIP3    H134363   2.310   3.186   0.688  1.5067  0.5521 -0.8413
 4268TIP3    H234364   2.425   3.169   0.784  0.5582  0.0832  0.2309
 4269TIP3   OH234365   3.873   3.537   0.688 -0.3490  0.0884 -0.3249
 4269TIP3    H134366   3.952   3.545   0.634 -0.1677  2.6228  0.2072
 4269TIP3    H234367   3.804   3.512   0.626  0.5312 -0.5097 -1.0919
 4270TIP3   OH234368   0.401   3.510   1.156  0.5403 -0.9780  0.3414
 4270TIP3    H134369   0.420   3.417   1.169 -2.4891 -1.7480  0.0754
 4270TIP3    H234370   0.397   3.521   1.061  3.9189  0.2551  0.2047
 4271TIP3   OH234371   0.021   4.798   1.207 -0.1136 -0.4381  0.0216
 4271TIP3    H134372  -0.055   4.758   1.248 -0.1823 -1.1137 -0.7480
 4271TIP3    H234373  -0.011   4.830   1.123  0.2740 -0.0171  0.0279
 4272TIP3   OH234374   1.686   3.586   2.861  0.1756 -0.0670  0.0497
 4272TIP3    H134375   1.659   3.677   2.873 -0.3157 -0.2280  0.1756
 4272TIP3    H234376   1.762   3.576   2.918 -1.4633 -0.5133  2.3325
 4273TIP3   OH234377   5.244   1.099   7.972 -0.0812  0.3638 -0.2443
 4273TIP3    H134378   5.205   1.056   8.048  2.5361 -0.5888  0.6742
 4273TIP3    H234379   5.214   1.190   7.977 -1.4273 -0.1093  0.8492
 4274TIP3   OH234380   4.465   0.677   2.347  0.0199  0.5515 -0.3349
 4274TIP3    H134381   4.528   0.650   2.414 -0.3548  0.1586 -0.1387
 4274TIP3    H234382   4.440   0.766   2.372 -0.9204  0.0313  0.6628
 4275TIP3   OH234383   0.164   2.146   0.647  0.1962 -0.5585  0.0197
 4275TIP3    H134384   0.231   2.211   0.670 -0.1857 -0.2029  0.1650
 4275TIP3    H234385   0.083   2.182   0.685  0.1510 -1.6157  0.9902
 4276TIP3   OH234386   3.673   4.883   8.032 -0.6761 -0.0439  0.2236
 4276TIP3    H134387   3.754   4.891   7.980 -0.9766  0.6353 -0.1567
 4276TIP3    H234388   3.631   4.968   8.023 -1.0748 -0.1469  1.0368
 4277TIP3   OH234389   0.133   4.059   7.953  0.0555 -0.4448 -0.6824
 4277TIP3    H134390   0.152   3.984   7.896  2.0875 -2.5151  2.4324
 4277TIP3    H234391   0.084   4.022   8.026 -0.7705  1.7260 -0.0670
 4278TIP3   OH234392   1.375   0.786   2.712  0.1754  0.0253  0.6874
 4278TIP3    H134393   1.295   0.804   2.762  1.5558 -1.0448  3.5006
 4278TIP3    H234394   1.377   0.690   2.704  0.9423  0.0793  0.1567
 4279TIP3   OH234395   6.752   1.533   8.145 -0.0037  0.5617  0.0938
 4279TIP3    H134396   6.713   1.621   8.150  0.4921  0.7195  1.5254
 4279TIP3    H234397   6.677   1.474   8.137 -0.3765  1.0690 -0.1972
 4280TIP3   OH234398   4.648   5.829   7.484 -0.0354  0.1830 -0.3135
 4280TIP3    H134399   4.556   5.808   7.498 -0.5423  1.9227 -0.8030
 4280TIP3    H234400   4.692   5.744   7.479 -1.6749 -0.6786 -0.5555
 4281TIP3   OH234401   5.759   3.100   0.650 -0.2170 -0.2065  0.5710
 4281TIP3    H134402   5.693   3.079   0.584  0.2111 -1.3425  0.4749
 4281TIP3    H234403   5.771   3.018   0.699 -1.6341  0.9655  3.0796
 4282TIP3   OH234404   3.064   5.266   2.435 -0.2552 -0.1611 -0.0325
 4282TIP3    H134405   3.092   5.291   2.523  1.0463  0.9662 -0.7152
 4282TIP3    H234406   2.974   5.237   2.445 -0.5553  1.1685  1.4701
 4283TIP3   OH234407   4.596   5.322   6.993 -0.3053 -0.3294  0.0242
 4283TIP3    H134408   4.505   5.311   7.021 -1.2303 -3.3787 -3.3895
 4283TIP3    H234409   4.592   5.389   6.924  0.1883  0.0164  0.3222
 4284TIP3   OH234410   5.458   3.681   0.470  0.3801  0.5542  0.3280
 4284TIP3    H134411   5.468   3.586   0.462 -0.0332  0.5088  0.3217
 4284TIP3    H234412   5.533   3.709   0.524  0.4339  0.2084  0.4347
 4285TIP3   OH234413   2.578   2.625   1.038 -0.0643 -0.2559  0.4182
 4285TIP3    H134414   2.610   2.715   1.047 -0.4812  0.0019 -0.6082
 4285TIP3    H234415   2.483   2.633   1.040 -0.1624 -0.4287 -1.5529
 4286TIP3   OH234416   1.629   4.552   2.047 -0.4003  0.1946  0.2190
 4286TIP3    H134417   1.549   4.528   1.999 -0.2267 -0.7752  0.3950
 4286TIP3    H234418   1.700   4.536   1.984 -0.1736 -1.0627  0.7648
 4287TIP3   OH234419   4.557   2.246   1.006 -1.0107 -0.1930  0.5024
 4287TIP3    H134420   4.495   2.277   1.072  0.7479  0.6955  1.8071
 4287TIP3    H234421   4.553   2.150   1.012 -1.0306 -0.1203  1.7412
 4288TIP3   OH234422   1.674   6.139   7.614 -0.5055 -0.0629 -0.2734
 4288TIP3    H134423   1.713   6.079   7.549 -2.9464 -0.3075 -1.6178
 4288TIP3    H234424   1.726   6.219   7.606  1.6014 -1.3108  0.1882
 4289TIP3   OH234425   5.142   3.638   0.212  0.3473 -0.6890 -0.1156
 4289TIP3    H134426   5.164   3.668   0.124 -0.1855  0.8865  0.2567
 4289TIP3    H234427   5.095   3.555   0.198 -1.5894  0.5547 -1.4958
 4290TIP3   OH234428   2.115   5.172   0.443 -0.2364  0.4538 -0.1871
 4290TIP3    H134429   2.024   5.199   0.456  0.1183  1.4412  0.3004
 4290TIP3    H234430   2.121   5.086   0.486 -0.5690  1.0496  1.0925
 4291TIP3   OH234431   2.220   1.393   7.292  0.4119  0.0619 -0.1076
 4291TIP3    H134432   2.147   1.423   7.347 -0.2634 -0.3996 -0.7384
 4291TIP3    H234433   2.247   1.472   7.245 -0.8346 -0.1103 -1.1657
 4292TIP3   OH234434   4.684   2.373   0.492 -0.5986 -0.0515 -0.9721
 4292TIP3    H134435   4.598   2.329   0.495  0.0307 -1.3091 -0.6360
 4292TIP3    H234436   4.737   2.324   0.555  0.0184  1.4968 -0.2558
 4293TIP3   OH234437   3.913   6.675   2.215  0.4505  0.4447  0.9046
 4293TIP3    H134438   3.861   6.617   2.270 -0.5315 -0.0147 -0.4727
 4293TIP3    H234439   4.001   6.636   2.216  0.5840  0.7234  2.5089
 4294TIP3   OH234440   1.830   0.979   2.007  0.7788  0.3300  0.3351
 4294TIP3    H134441   1.863   0.989   2.096  1.5580  0.8671 -0.0032
 4294TIP3    H234442   1.898   0.929   1.962  1.3241  1.7114 -0.4517
 4295TIP3   OH234443   0.024   3.741   8.599 -0.2488  0.0106 -0.4397
 4295TIP3    H134444   0.009   3.731   8.505 -1.6914 -1.1450 -0.1228
 4295TIP3    H234445   0.024   3.835   8.614 -1.3399  0.1804 -1.4175
 4296TIP3   OH234446   4.738   1.266   8.502  0.4470  0.6441  0.4036
 4296TIP3    H134447   4.730   1.311   8.418 -1.3023 -2.6286 -1.3697
 4296TIP3    H234448   4.812   1.207   8.490 -0.3182 -0.4265  0.8465
 4297TIP3   OH234449   4.359   5.887   0.825  0.0928 -0.2791  0.3244
 4297TIP3    H134450   4.270   5.921   0.822  0.3665  0.8072  2.5840
 4297TIP3    H234451   4.414   5.961   0.798  0.4353 -0.1468  1.3392
 4298TIP3   OH234452   5.407   4.805   7.786 -0.2215 -0.4118  0.0480
 4298TIP3    H134453   5.498   4.794   7.812 -0.0423  0.4083 -0.2147
 4298TIP3    H234454   5.397   4.749   7.709  0.1570 -0.2529 -0.1213
 4299TIP3   OH234455   1.278   4.269   8.298 -0.1751  0.0353  0.1111
 4299TIP3    H134456   1.212   4.338   8.295 -0.9921 -0.6484  1.3386
 4299TIP3    H234457   1.349   4.301   8.242 -0.3517  2.0498  0.9404
 4300TIP3   OH234458   2.365   4.818   0.209  0.4631  0.6789  0.3211
 4300TIP3    H134459   2.367   4.902   0.254  1.2258  0.5474  0.5365
 4300TIP3    H234460   2.323   4.758   0.271  1.3924  0.5275  0.8200
 4301TIP3   OH234461   5.156   0.536   1.351 -0.1794 -0.0290  0.2771
 4301TIP3    H134462   5.129   0.615   1.398  0.4848  1.0038 -1.0200
 4301TIP3    H234463   5.073   0.494   1.327 -0.5332 -0.1022  1.5484
 4302TIP3   OH234464   1.960   1.118   7.574 -0.6831  0.2896 -0.0235
 4302TIP3    H134465   1.953   1.212   7.559  0.4503  0.2936 -0.6923
 4302TIP3    H234466   1.887   1.097   7.631 -1.4458  1.4283 -0.5417
 4303TIP3   OH234467   2.083   5.445   7.839  0.1435  0.2322  0.1680
 4303TIP3    H134468   2.026   5.515   7.870 -0.6895 -0.1868 -0.3881
 4303TIP3    H234469   2.100   5.391   7.916  0.0542  0.5434  0.4050
 4304TIP3   OH234470   1.035   4.431   0.713 -0.3696 -0.1880  0.0715
 4304TIP3    H134471   1.126   4.459   0.721 -0.3962  0.3321 -1.2392
 4304TIP3    H234472   1.040   4.346   0.670 -0.4930 -0.2895  0.2557
 4305TIP3   OH234473   2.807   4.453   1.677 -0.2406 -0.0690 -0.1802
 4305TIP3    H134474   2.743   4.386   1.700  0.5284 -0.9843 -0.6315
 4305TIP3    H234475   2.784   4.528   1.732 -0.8743 -0.8301  0.6188
 4306TIP3   OH234476   0.298   0.429   1.145 -0.1007  0.4170 -0.0191
 4306TIP3    H134477   0.274   0.507   1.194 -0.3500 -0.6157  1.5770
 4306TIP3    H234478   0.217   0.399   1.104 -1.2728 -1.8010  3.5312
 4307TIP3   OH234479   2.118   1.457   0.722 -0.0449 -0.3376  0.5562
 4307TIP3    H134480   2.034   1.481   0.682  0.3591  0.1317 -0.0296
 4307TIP3    H234481   2.095   1.434   0.812 -0.7234  0.3965  0.5874
 4308TIP3   OH234482   4.516   3.538   2.157  0.1906 -0.3152 -0.7546
 4308TIP3    H134483   4.492   3.625   2.126 -1.4497 -0.6277 -0.4279
 4308TIP3    H234484   4.449   3.480   2.121  0.6185 -1.2791 -0.0500
 4309TIP3   OH234485   4.401   5.698   0.638  0.1681  0.2658  0.3524
 4309TIP3    H134486   4.413   5.775   0.694 -2.6672  1.1495 -0.1032
 4309TIP3    H234487   4.427   5.727   0.551  2.4522 -0.4488  0.7132
 4310TIP3   OH234488   3.542   1.603   0.829 -0.2984 -0.1853  0.1537
 4310TIP3    H134489   3.568   1.545   0.900  1.7717 -0.3918 -0.6980
 4310TIP3    H234490   3.494   1.673   0.872 -3.1032 -2.5495  1.1910
 4311TIP3   OH234491   3.578   6.126   0.259  0.5467  0.1370  0.0480
 4311TIP3    H134492   3.646   6.183   0.224  0.5378 -0.3163 -0.7380
 4311TIP3    H234493   3.526   6.101   0.183 -1.1438  1.2830  0.7635
 4312TIP3   OH234494   4.935   6.397   1.196 -0.3013 -0.3314  0.0157
 4312TIP3    H134495   5.009   6.447   1.160 -1.4697 -0.0043 -2.1049
 4312TIP3    H234496   4.971   6.309   1.211  1.1991  0.5147  1.6927
 4313TIP3   OH234497   6.102   3.154   1.126  0.3527 -0.0224  0.1353
 4313TIP3    H134498   6.079   3.108   1.207 -0.3339  1.4811  0.8389
 4313TIP3    H234499   6.111   3.245   1.153 -0.0210  0.5246 -1.5160
 4314TIP3   OH234500   3.631   5.810   0.126 -0.1939  0.0565  0.8502
 4314TIP3    H134501   3.589   5.879   0.076 -0.8944 -1.3412 -0.6045
 4314TIP3    H234502   3.573   5.795   0.200 -0.9800 -0.1413  0.2147
 4315TIP3   OH234503   2.109   5.101   0.858 -0.4455  0.7225  0.3689
 4315TIP3    H134504   2.031   5.157   0.862 -1.0860 -0.1847  0.7227
 4315TIP3    H234505   2.096   5.049   0.779  1.6009  3.1246 -1.7489
 4316TIP3   OH234506   1.162   0.147   7.840 -0.2568  0.0025  0.0971
 4316TIP3    H134507   1.097   0.100   7.788  0.0094 -1.8059  1.3044
 4316TIP3    H234508   1.242   0.144   7.787 -0.9154  1.5126 -1.0274
 4317TIP3   OH234509   3.071   3.360   1.569  0.2854 -0.5158  0.5037
 4317TIP3    H134510   3.120   3.307   1.632 -0.3196 -1.5666  0.1279
 4317TIP3    H234511   3.138   3.398   1.512  0.6887 -2.2344 -0.2376
 4318TIP3   OH234512   5.467   6.076   7.331  0.0392  0.6454 -0.1721
 4318TIP3    H134513   5.423   6.066   7.246 -0.0975  2.6839 -0.3960
 4318TIP3    H234514   5.397   6.065   7.395 -0.1285  0.4949 -0.3758
 4319TIP3   OH234515   5.326   3.877   7.042 -0.1918  0.2629  0.1435
 4319TIP3    H134516   5.343   3.863   6.949 -1.0477 -0.4499  0.0875
 4319TIP3    H234517   5.408   3.913   7.076  1.1087 -2.0762 -0.3310
 4320TIP3   OH234518   3.557   1.189   8.656  0.1702 -0.6731 -0.9714
 4320TIP3    H134519   3.472   1.157   8.683 -0.3336 -0.9356 -2.7280
 4320TIP3    H234520   3.615   1.171   8.730 -1.6012  1.0638  0.9436
 4321TIP3   OH234521   4.446   4.287   1.657 -0.6465 -0.5021  0.3109
 4321TIP3    H134522   4.473   4.285   1.565 -1.2569  0.1223  0.1074
 4321TIP3    H234523   4.464   4.377   1.685 -1.4478 -0.3959  0.4945
 4322TIP3   OH234524   3.851   3.367   1.739  0.2973 -0.2015 -0.1485
 4322TIP3    H134525   3.823   3.425   1.810  0.3475 -1.1169  0.6341
 4322TIP3    H234526   3.905   3.301   1.782 -0.1763 -1.1271 -0.9463
 4323TIP3   OH234527   5.172   4.448   0.799 -0.0738 -0.1233 -0.1259
 4323TIP3    H134528   5.144   4.360   0.774  2.1835 -0.9039 -0.1365
 4323TIP3    H234529   5.128   4.506   0.737 -3.0848 -1.0091  1.0454
 4324TIP3   OH234530   6.491   3.073   2.606  0.1657  0.1981  0.2846
 4324TIP3    H134531   6.498   3.040   2.696  2.2808 -0.1642  0.0355
 4324TIP3    H234532   6.581   3.089   2.579 -0.4838  1.2205 -1.4649
 4325TIP3   OH234533   2.728   0.235   3.282 -0.1300 -0.1377 -0.6168
 4325TIP3    H134534   2.672   0.285   3.223 -0.9140 -0.6863 -0.3452
 4325TIP3    H234535   2.816   0.271   3.267 -0.6768  1.3895 -0.3530
 4326TIP3   OH234536   0.101   6.345   2.183  0.0288  0.3168 -0.4273
 4326TIP3    H134537   0.028   6.402   2.159 -0.0025 -0.0045 -1.0937
 4326TIP3    H234538   0.161   6.403   2.230 -1.3581  0.2635  1.5545
 4327TIP3   OH234539   5.646   5.274   1.776  0.1453  0.3411  0.3840
 4327TIP3    H134540   5.618   5.314   1.859  0.1729 -2.1135  1.6800
 4327TIP3    H234541   5.733   5.238   1.795  0.5186  0.4456 -1.0008
 4328TIP3   OH234542   0.058   0.906   1.664  0.2041  0.8303  0.3353
 4328TIP3    H134543   0.064   0.815   1.690 -0.2796  0.8956  0.7003
 4328TIP3    H234544   0.091   0.955   1.739  2.1229  0.9105 -0.5147
 4329TIP3   OH234545   0.379   1.045   7.919 -0.3979 -0.3492  0.1704
 4329TIP3    H134546   0.298   1.087   7.947  0.1840  2.1278 -1.4752
 4329TIP3    H234547   0.443   1.068   7.986 -0.5674 -0.4884  0.3815
 4330TIP3   OH234548   6.318   2.741   1.993  0.1952 -0.3369 -0.0217
 4330TIP3    H134549   6.298   2.749   1.899 -0.8387  4.9401  0.3236
 4330TIP3    H234550   6.410   2.768   2.000  1.0230 -3.0415  0.3872
 4331TIP3   OH234551   4.700   0.244   1.755  0.4446  0.6670  0.2317
 4331TIP3    H134552   4.780   0.194   1.735  0.3470 -0.3256  2.0984
 4331TIP3    H234553   4.684   0.227   1.848 -1.6652  1.2757  0.0188
 4332TIP3   OH234554   0.337   1.846   0.238 -0.5688 -0.4248 -0.0097
 4332TIP3    H134555   0.374   1.875   0.155 -0.5767  0.3373  0.2370
 4332TIP3    H234556   0.366   1.913   0.301 -1.0934 -0.6424  0.4703
 4333TIP3   OH234557   2.372   4.304   1.391  0.0342  0.5962  0.2707
 4333TIP3    H134558   2.452   4.340   1.430 -0.1411 -0.0299  1.2653
 4333TIP3    H234559   2.385   4.209   1.394 -0.1423  0.5230 -0.9116
 4334TIP3   OH234560   6.602   1.019   1.633  0.3250 -0.2969  0.2922
 4334TIP3    H134561   6.509   1.024   1.614  0.6644  2.0810 -1.1210
 4334TIP3    H234562   6.609   1.040   1.727 -0.4480  2.0843 -0.1164
 4335TIP3   OH234563   6.179   4.689   0.113 -0.1571  0.2836 -0.3869
 4335TIP3    H134564   6.225   4.773   0.117 -0.6877  0.8087 -3.2785
 4335TIP3    H234565   6.197   4.648   0.198  1.3772  2.6325  0.5333
 4336TIP3   OH234566   4.523   3.772   3.095 -0.2405 -0.5908 -0.0363
 4336TIP3    H134567   4.442   3.781   3.144 -0.8086  1.0428 -1.1943
 4336TIP3    H234568   4.511   3.827   3.017  1.6713 -0.9247 -0.6361
 4337TIP3   OH234569   1.353   0.478   0.006 -0.1956  0.3449  0.1562
 4337TIP3    H134570   1.395   0.562   0.025  0.1145  0.1086  0.5291
 4337TIP3    H234571   1.342   0.436   0.091  1.4475 -0.8346 -0.1563
 4338TIP3   OH234572   5.771   3.170   7.929 -0.6099 -0.3208 -0.1891
 4338TIP3    H134573   5.682   3.206   7.923 -1.0665 -0.9768  1.7381
 4338TIP3    H234574   5.806   3.207   8.010  0.6414 -0.5758 -0.6031
 4339TIP3   OH234575   3.721   4.381   7.986 -0.8409 -0.0161  0.1205
 4339TIP3    H134576   3.703   4.304   8.041  1.7122  0.0843  1.2050
 4339TIP3    H234577   3.640   4.432   7.990 -1.7993 -1.5310  1.2464
 4340TIP3   OH234578   4.149   3.494   1.027 -0.2929 -0.3063  0.1403
 4340TIP3    H134579   4.098   3.427   0.982 -0.1559 -0.4358  0.1764
 4340TIP3    H234580   4.239   3.479   0.998 -0.4534  0.7540 -0.9519
 4341TIP3   OH234581   5.101   3.657   6.945  0.2276 -0.0860 -0.1314
 4341TIP3    H134582   5.071   3.748   6.947 -1.0859 -0.5076  0.5428
 4341TIP3    H234583   5.056   3.619   6.870  1.3040 -0.0209 -0.8219
 4342TIP3   OH234584   5.862   2.727   1.702  0.0224  0.2405 -0.2290
 4342TIP3    H134585   5.813   2.681   1.770 -0.5937  1.0914 -0.0846
 4342TIP3    H234586   5.814   2.711   1.621  0.2120  0.0397 -0.3045
 4343TIP3   OH234587   2.827   5.112   2.699 -0.5944 -0.9535 -0.2719
 4343TIP3    H134588   2.874   5.169   2.759 -0.4348  0.5727 -1.7531
 4343TIP3    H234589   2.748   5.087   2.746  0.5581 -1.6473  1.3796
 4344TIP3   OH234590   1.323   0.912   7.741  0.0923 -0.5285 -0.1768
 4344TIP3    H134591   1.386   0.957   7.684 -0.9283  0.4357 -0.5724
 4344TIP3    H234592   1.368   0.831   7.768  1.3251 -0.0633 -0.7874
 4345TIP3   OH234593   5.706   6.142   1.941  0.1049  0.1933  0.5043
 4345TIP3    H134594   5.717   6.077   1.872 -1.1429 -0.2357  0.6755
 4345TIP3    H234595   5.662   6.215   1.898 -1.1214 -0.2712  0.9141
 4346TIP3   OH234596   1.312   5.852   1.351 -0.1487 -0.0865  0.2597
 4346TIP3    H134597   1.227   5.896   1.351 -0.3736 -0.5024 -0.4930
 4346TIP3    H234598   1.375   5.921   1.373 -0.2795  1.1064 -2.6599
 4347TIP3   OH234599   1.662   6.095   1.693 -0.0534 -0.4916 -0.8022
 4347TIP3    H134600   1.634   6.185   1.708  1.5981 -0.2160  1.0014
 4347TIP3    H234601   1.583   6.043   1.703 -0.5146  0.5113  1.0838
 4348TIP3   OH234602   0.504   2.374   8.555  0.4815  0.5341  0.4601
 4348TIP3    H134603   0.535   2.405   8.639 -0.3310 -0.4091  1.1291
 4348TIP3    H234604   0.512   2.279   8.559 -2.5635  0.1875  0.7683
 4349TIP3   OH234605   2.107   6.030   3.025 -0.3480 -0.6028 -0.2078
 4349TIP3    H134606   2.163   5.963   2.985  1.2788 -0.3298  1.4855
 4349TIP3    H234607   2.027   5.983   3.048  0.3569 -1.7324  0.0384
 4350TIP3   OH234608   3.805   4.725   7.642 -0.3226 -0.0585  0.1789
 4350TIP3    H134609   3.896   4.742   7.618 -0.8091  0.1141 -1.7227
 4350TIP3    H234610   3.764   4.812   7.642 -0.8852 -0.3081 -0.8787
 4351TIP3   OH234611   0.074   5.755   0.042  0.5660  0.1184  0.4867
 4351TIP3    H134612   0.114   5.837   0.071  0.9142 -0.1219  0.6932
 4351TIP3    H234613   0.030   5.777  -0.040  2.2865  0.1032 -0.5021
 4352TIP3   OH234614   2.217   0.874   0.941  0.0062 -0.3921 -0.5905
 4352TIP3    H134615   2.162   0.849   0.867 -2.4948 -2.2727  1.7214
 4352TIP3    H234616   2.301   0.830   0.926 -0.1224  0.0020 -2.6843
 4353TIP3   OH234617   3.059   1.678   2.417 -0.2918 -0.1889  0.2081
 4353TIP3    H134618   3.114   1.714   2.487 -2.6928  3.4714  0.4872
 4353TIP3    H234619   2.971   1.674   2.455 -1.5157  1.1535 -2.2340
 4354TIP3   OH234620   3.589   2.794   0.195 -0.3323 -0.3705  0.0782
 4354TIP3    H134621   3.607   2.882   0.228  1.3560 -1.2127  1.5391
 4354TIP3    H234622   3.549   2.809   0.109  1.0588  1.8059 -0.2723
 4355TIP3   OH234623   2.880   2.838   1.819 -0.0486 -0.1495  0.9196
 4355TIP3    H134624   2.974   2.836   1.806 -0.1913  0.8852 -0.4631
 4355TIP3    H234625   2.857   2.749   1.846  1.3286 -0.3540  1.5101
 4356TIP3   OH234626   1.007   2.617   2.609 -0.5693  0.4896  0.4724
 4356TIP3    H134627   0.945   2.562   2.561 -1.7974  0.9038  1.5070
 4356TIP3    H234628   1.049   2.559   2.671  0.3152  0.1490 -0.4208
 4357TIP3   OH234629   1.735   5.783   1.482  0.1478 -0.0542 -0.0823
 4357TIP3    H134630   1.737   5.876   1.459  1.7939 -0.1472 -0.4365
 4357TIP3    H234631   1.684   5.780   1.563 -0.2326  1.1120 -0.2540
 4358TIP3   OH234632   4.996   5.924   2.857 -0.2873 -0.3508  0.0571
 4358TIP3    H134633   4.933   5.911   2.786 -0.1170 -1.9665  0.1578
 4358TIP3    H234634   5.013   5.836   2.890  0.7407  0.2300  1.1506
 4359TIP3   OH234635   2.432   0.999   2.164 -0.4871  0.6090 -0.3613
 4359TIP3    H134636   2.357   1.036   2.119 -0.9589 -1.2447 -1.1835
 4359TIP3    H234637   2.404   0.991   2.255 -1.1700  0.2130 -0.6060
 4360TIP3   OH234638   5.113   2.446   7.084  0.5320 -0.3097 -0.1020
 4360TIP3    H134639   5.055   2.396   7.141  0.8937 -0.3838  0.2114
 4360TIP3    H234640   5.164   2.379   7.038  0.9271 -0.2399  0.2236
 4361TIP3   OH234641   5.567   4.928   1.035  0.1720  0.8068 -0.4329
 4361TIP3    H134642   5.579   4.955   1.126  1.2876 -0.7208 -0.0945
 4361TIP3    H234643   5.482   4.885   1.033 -0.1402  1.3956 -0.2777
 4362TIP3   OH234644   6.310   4.604   8.417 -0.0322  0.3444  0.0710
 4362TIP3    H134645   6.274   4.650   8.341 -3.2996  1.9678  2.3617
 4362TIP3    H234646   6.275   4.515   8.410 -1.4213  0.8464  0.2562
 4363TIP3   OH234647   3.741   4.642   3.089  0.4164  0.1852  0.2798
 4363TIP3    H134648   3.722   4.694   3.168 -0.4744 -0.0917  0.2577
 4363TIP3    H234649   3.691   4.562   3.101 -0.4006  0.4948 -0.9586
 4364TIP3   OH234650   4.926   4.469   1.633  0.1225 -0.3900  0.5096
 4364TIP3    H134651   4.857   4.525   1.597 -0.8085 -1.6132  0.3333
 4364TIP3    H234652   4.985   4.530   1.678 -0.5265  0.7900 -0.1756
 4365TIP3   OH234653   2.987   6.424   2.367 -0.1635 -0.0659  0.2766
 4365TIP3    H134654   2.968   6.331   2.380 -0.2059 -0.0048  0.6661
 4365TIP3    H234655   3.005   6.431   2.273 -0.5604 -0.3959  0.1666
 4366TIP3   OH234656   6.278   5.604   8.533 -0.1174  0.4560  0.9066
 4366TIP3    H134657   6.265   5.566   8.446  1.6157 -0.5696  1.0551
 4366TIP3    H234658   6.288   5.528   8.590  0.4436  1.1328  1.7204
 4367TIP3   OH234659   1.585   4.679   8.291  0.4501 -0.6421 -0.0845
 4367TIP3    H134660   1.491   4.685   8.271  0.5397 -0.3989 -0.4353
 4367TIP3    H234661   1.618   4.767   8.275  0.9152 -0.9537 -0.8739
 4368TIP3   OH234662   3.751   1.987   1.722  0.3898 -0.5789  0.4002
 4368TIP3    H134663   3.680   1.927   1.745 -0.3948  0.0838 -0.2132
 4368TIP3    H234664   3.789   1.950   1.642 -0.7718  0.2679 -0.5694
 4369TIP3   OH234665   3.599   0.463   7.753 -0.1724  0.3108 -0.7651
 4369TIP3    H134666   3.680   0.436   7.710 -0.7173  1.2886 -2.5114
 4369TIP3    H234667   3.597   0.558   7.744 -0.5347  0.5285  1.1092
 4370TIP3   OH234668   2.766   3.933   1.683 -0.0171  0.2148 -0.3225
 4370TIP3    H134669   2.820   3.993   1.632 -1.7757  0.2220 -2.3438
 4370TIP3    H234670   2.826   3.894   1.746  1.9121  1.5486 -1.2361
 4371TIP3   OH234671   3.661   1.688   2.285 -0.3936 -0.3869  0.2547
 4371TIP3    H134672   3.732   1.739   2.246 -1.2597 -0.9521 -2.1968
 4371TIP3    H234673   3.699   1.601   2.297 -0.4619 -0.5203 -0.4565
 4372TIP3   OH234674   0.062   2.188   3.001  0.3469 -0.2368 -0.3298
 4372TIP3    H134675   0.039   2.259   3.061 -3.6456  0.2394 -2.0489
 4372TIP3    H234676   0.010   2.114   3.031  0.5066 -0.8426 -1.4813
 4373TIP3   OH234677   2.354   4.936   8.101  0.9480 -0.3244  0.1996
 4373TIP3    H134678   2.339   4.897   8.015  0.5609 -0.0439  0.1378
 4373TIP3    H234679   2.448   4.954   8.103  1.1507 -1.3349  0.2634
 4374TIP3   OH234680   0.602   3.076   8.557  0.1175 -0.1935  0.1763
 4374TIP3    H134681   0.680   3.021   8.555 -1.1061 -2.0115 -0.4444
 4374TIP3    H234682   0.585   3.088   8.650  0.7139 -0.4280  0.3242
 4375TIP3   OH234683   4.920   4.018   1.862  0.6501  0.8040 -0.7085
 4375TIP3    H134684   4.981   3.998   1.932  0.3525  0.1033 -0.6413
 4375TIP3    H234685   4.970   4.005   1.781  1.3748  2.8507 -0.6407
 4376TIP3   OH234686   1.117   4.755   2.315  0.0921  0.0685 -0.1112
 4376TIP3    H134687   1.093   4.663   2.316  0.2447  0.0043  1.8381
 4376TIP3    H234688   1.175   4.765   2.239  1.2104 -1.7438  0.4711
 4377TIP3   OH234689   0.351   6.401   2.314  0.4151  1.0189  0.2767
 4377TIP3    H134690   0.412   6.366   2.250  0.8430 -0.8028  1.5987
 4377TIP3    H234691   0.381   6.366   2.398 -1.8719  0.8580  1.1004
 4378TIP3   OH234692   4.541   5.453   2.737  0.1070 -0.5678 -0.5849
 4378TIP3    H134693   4.537   5.468   2.643  4.4565  0.8221 -0.7877
 4378TIP3    H234694   4.629   5.480   2.762 -1.2663  0.6117  4.1833
 4379TIP3   OH234695   4.971   4.972   7.506 -0.3993 -0.7450 -0.5486
 4379TIP3    H134696   4.893   4.917   7.508 -0.8999 -0.1348  3.1529
 4379TIP3    H234697   5.038   4.922   7.552 -0.0933  0.6657  0.5952
 4380TIP3   OH234698   0.672   3.642   0.051 -0.1556 -0.3165 -0.2978
 4380TIP3    H134699   0.720   3.644  -0.032 -2.1165  1.7275 -1.4879
 4380TIP3    H234700   0.670   3.733   0.080 -0.3759 -0.8640  1.5045
 4381TIP3   OH234701   0.477   1.661   1.097 -0.4224 -0.9386  0.3516
 4381TIP3    H134702   0.413   1.723   1.131 -1.3370 -2.6499  1.9806
 4381TIP3    H234703   0.540   1.715   1.050 -2.6334  0.9152 -0.7190
 4382TIP3   OH234704   2.397   3.028   0.984  0.2913 -0.0931  0.4347
 4382TIP3    H134705   2.466   2.985   0.933  1.5302  1.3324  0.8448
 4382TIP3    H234706   2.377   2.966   1.054  1.5832 -0.2879  0.6508
 4383TIP3   OH234707   4.825   3.106   7.567  0.0484 -0.0006  0.7710
 4383TIP3    H134708   4.783   3.171   7.624 -1.1750 -0.8684  0.8978
 4383TIP3    H234709   4.773   3.108   7.486 -0.0545 -0.8860  0.8118
 4384TIP3   OH234710   1.750   5.382   1.000  0.0871  0.4002 -0.2185
 4384TIP3    H134711   1.664   5.339   0.994 -0.6712  1.6677  0.9922
 4384TIP3    H234712   1.806   5.316   1.040 -0.8183  0.1652  0.7309
 4385TIP3   OH234713   5.452   1.254   1.648  0.5424  0.1480  0.9441
 4385TIP3    H134714   5.460   1.240   1.743 -1.5286 -0.5721  1.0680
 4385TIP3    H234715   5.440   1.349   1.639  2.2708  0.4282  1.2264
 4386TIP3   OH234716   6.308   1.708   2.911 -0.4344  0.1949  0.0770
 4386TIP3    H134717   6.393   1.733   2.945 -0.5261  0.5216  0.0739
 4386TIP3    H234718   6.265   1.663   2.983 -0.6060  0.8306  0.3847
 4387TIP3   OH234719   5.166   6.623   0.956 -0.0345  0.3391 -0.3335
 4387TIP3    H134720   5.185   6.531   0.942 -1.1511 -0.1668  1.2388
 4387TIP3    H234721   5.239   6.669   0.915  0.5856 -1.2277 -1.0625
 4388TIP3   OH234722   2.631   4.505   0.403  0.2162 -0.2862 -0.1964
 4388TIP3    H134723   2.600   4.579   0.350 -0.0342 -0.4158 -0.2350
 4388TIP3    H234724   2.725   4.501   0.386 -0.0011 -0.9086 -1.3894
 4389TIP3   OH234725   5.239   1.511   8.797 -0.2602 -0.3644 -0.0270
 4389TIP3    H134726   5.171   1.540   8.736 -2.3806  1.2107  2.8298
 4389TIP3    H234727   5.301   1.583   8.800  0.7569 -1.1416 -1.4673
 4390TIP3   OH234728   5.975   1.752   7.644  0.3926 -0.5584  0.4129
 4390TIP3    H134729   6.058   1.772   7.600  0.5793 -1.1521  0.4765
 4390TIP3    H234730   6.001   1.712   7.727  0.1128 -3.0331 -0.5939
 4391TIP3   OH234731   3.575   1.089   8.060  0.9286  0.0699 -0.2491
 4391TIP3    H134732   3.594   1.172   8.103  1.7507 -0.3524  0.2333
 4391TIP3    H234733   3.512   1.111   7.991  2.7260  1.4601 -1.5362
 4392TIP3   OH234734   5.454   1.425   8.429 -0.4800 -0.5367 -0.1837
 4392TIP3    H134735   5.454   1.439   8.524 -2.3789  1.2695 -0.3719
 4392TIP3    H234736   5.374   1.374   8.413 -1.5122  1.2727 -1.0110
 4393TIP3   OH234737   1.001   5.520   0.654  0.1456  0.4216 -0.0188
 4393TIP3    H134738   1.059   5.457   0.612 -0.9897 -1.1119  0.6134
 4393TIP3    H234739   0.950   5.557   0.582 -0.4434 -0.7488 -0.2248
 4394TIP3   OH234740   2.546   0.015   7.215  0.5794  0.2415  0.5744
 4394TIP3    H134741   2.626   0.060   7.187  1.4166 -0.7930  1.2271
 4394TIP3    H234742   2.558  -0.076   7.187  0.3603 -0.2792  2.0654
 4395TIP3   OH234743   2.247   0.994   7.836 -0.1523 -0.0966  0.0755
 4395TIP3    H134744   2.188   1.032   7.902  0.1254  0.1822  0.1675
 4395TIP3    H234745   2.313   1.062   7.821  0.1497 -0.4067 -0.0236
 4396TIP3   OH234746   5.302   5.777   2.711 -0.5088  0.1741  0.4394
 4396TIP3    H134747   5.347   5.766   2.627 -0.9099  2.2892 -0.1068
 4396TIP3    H234748   5.271   5.689   2.734 -0.4523 -0.4361 -1.6595
 4397TIP3   OH234749   3.667   6.602   1.855 -0.1021 -0.1606  0.8334
 4397TIP3    H134750   3.701   6.520   1.889 -2.5583 -1.6706 -0.0389
 4397TIP3    H234751   3.628   6.645   1.932  1.0525  0.1453  1.2635
 4398TIP3   OH234752   5.718   4.348   8.356  0.8585 -0.0865  0.3124
 4398TIP3    H134753   5.804   4.307   8.345 -0.5176 -3.2538  0.3914
 4398TIP3    H234754   5.723   4.389   8.442  2.5180  0.5456 -0.0325
 4399TIP3   OH234755   0.913   5.981   8.227 -0.0718 -0.2683  0.0870
 4399TIP3    H134756   0.851   5.909   8.233  0.2685 -0.6550 -0.8703
 4399TIP3    H234757   0.859   6.060   8.231 -0.6405 -0.5996 -0.7672
 4400TIP3   OH234758   1.136   4.822   8.454  0.2683 -0.4380 -0.2067
 4400TIP3    H134759   1.070   4.789   8.393 -2.6476  0.0443  2.4585
 4400TIP3    H234760   1.099   4.904   8.488  2.3598 -0.0132  1.2751
 4401TIP3   OH234761   4.165   3.382   0.397 -0.0454 -0.0193  0.1366
 4401TIP3    H134762   4.247   3.413   0.360 -1.3985  2.0577 -1.3973
 4401TIP3    H234763   4.116   3.462   0.417 -1.5933 -1.1807  1.2607
 4402TIP3   OH234764   3.668   6.549   2.762  0.5884  0.0004  0.3105
 4402TIP3    H134765   3.646   6.624   2.817 -0.9041  0.0260 -0.2662
 4402TIP3    H234766   3.622   6.565   2.680 -0.4880 -1.9362  0.4682
 4403TIP3   OH234767   6.599   4.311   7.855  0.4064  0.6003 -0.5432
 4403TIP3    H134768   6.659   4.294   7.926 -2.5998 -0.8275  1.8975
 4403TIP3    H234769   6.565   4.225   7.830 -2.9928  1.4725  0.5680
 4404TIP3   OH234770   1.883   3.461   0.850 -0.1578  0.1823 -0.2156
 4404TIP3    H134771   1.860   3.450   0.757  0.3109  0.7997 -0.4097
 4404TIP3    H234772   1.888   3.372   0.884 -3.9409 -0.0691  0.1480
 4405TIP3   OH234773   0.203   3.598   1.945  0.0330  0.3901 -0.0149
 4405TIP3    H134774   0.293   3.602   1.913 -0.3286  1.3479 -0.9663
 4405TIP3    H234775   0.158   3.669   1.899 -1.1947 -0.0327  0.4951
 4406TIP3   OH234776   3.577   5.358   0.339 -0.1590 -0.4267  0.3390
 4406TIP3    H134777   3.654   5.303   0.323 -0.3980 -0.5149 -0.5887
 4406TIP3    H234778   3.554   5.392   0.252 -1.0634 -0.2657  0.6339
 4407TIP3   OH234779   4.925   6.817   1.854  0.3617 -0.0484 -0.4827
 4407TIP3    H134780   4.844   6.845   1.897  0.0456 -1.9504  0.2271
 4407TIP3    H234781   4.905   6.822   1.761 -0.5325 -0.3598 -0.3162
 4408TIP3   OH234782   5.076   3.742   1.877 -0.5774 -0.1795 -0.1658
 4408TIP3    H134783   5.153   3.779   1.835 -0.9358 -0.8387 -1.4456
 4408TIP3    H234784   5.073   3.784   1.963  2.1095 -1.2971  0.5950
 4409TIP3   OH234785   0.442   1.016   6.622  0.2741  0.4421  0.3764
 4409TIP3    H134786   0.353   1.023   6.658  0.4926  0.0623  0.9944
 4409TIP3    H234787   0.469   0.926   6.641  0.4899  0.3142 -0.5205
 4410TIP3   OH234788   4.029   0.489   2.460 -0.7309  0.1736  0.2659
 4410TIP3    H134789   4.025   0.438   2.380 -0.5040  1.3167 -0.4912
 4410TIP3    H234790   4.076   0.569   2.436 -0.2672  0.3370  1.6418
 4411TIP3   OH234791   2.513   3.626   1.273  0.2067 -0.3148  0.7652
 4411TIP3    H134792   2.474   3.569   1.340 -2.4652  2.6056  1.9786
 4411TIP3    H234793   2.596   3.653   1.311  0.6467 -1.8990  1.0005
 4412TIP3   OH234794   4.933   0.427   1.251  0.0304 -0.4116  0.8435
 4412TIP3    H134795   4.865   0.413   1.317  1.0586  1.6435  2.4643
 4412TIP3    H234796   4.894   0.492   1.192  0.1671 -0.0752  1.1210
 4413TIP3   OH234797   3.380   0.846   8.112  0.4599  0.1718 -0.5224
 4413TIP3    H134798   3.424   0.927   8.086  1.6078 -0.0424  0.6711
 4413TIP3    H234799   3.302   0.876   8.160  1.8115  0.6409  1.4917
 4414TIP3   OH234800   2.458   5.988   7.540  0.3037 -0.9179 -0.1258
 4414TIP3    H134801   2.505   6.043   7.604  1.0379  0.3566 -1.6891
 4414TIP3    H234802   2.483   5.899   7.563  4.9984 -0.3162 -1.8368
 4415TIP3   OH234803   5.480   5.445   7.360  0.3545  0.3245  0.4257
 4415TIP3    H134804   5.420   5.382   7.399  0.3646  0.8532  1.3248
 4415TIP3    H234805   5.454   5.450   7.268 -3.0045  2.7407  1.3078
 4416TIP3   OH234806   4.920   0.417   8.631  0.8590 -0.4506  0.1313
 4416TIP3    H134807   4.864   0.381   8.562  0.7040 -1.3980  0.7266
 4416TIP3    H234808   4.865   0.415   8.710  0.9747  0.7674  0.2594
 4417TIP3   OH234809   5.155   5.365   2.338  0.0901  0.2965 -0.0512
 4417TIP3    H134810   5.059   5.366   2.339  0.0312 -0.6168  2.1671
 4417TIP3    H234811   5.178   5.275   2.359  1.4206  0.6913  0.2371
 4418TIP3   OH234812   6.232   1.422   2.179  0.3139 -0.0806 -0.1930
 4418TIP3    H134813   6.243   1.329   2.163 -1.4729 -0.0888 -1.7095
 4418TIP3    H234814   6.314   1.462   2.151  1.3775 -1.2337  1.1649
 4419TIP3   OH234815   5.608   0.135   1.009 -0.2653  0.4352 -0.5004
 4419TIP3    H134816   5.691   0.110   0.970 -0.1847 -0.3648  0.1567
 4419TIP3    H234817   5.553   0.162   0.935 -0.0508 -0.8549 -1.1469
 4420TIP3   OH234818   0.127   5.034   0.952  0.0051 -0.3955 -0.6916
 4420TIP3    H134819   0.149   5.063   1.040 -0.2425 -0.3672 -0.6385
 4420TIP3    H234820   0.150   5.107   0.895 -0.5341 -0.1253 -0.5686
 4421TIP3   OH234821   6.649   3.042   1.652  0.3247  0.2969  0.0935
 4421TIP3    H134822   6.706   3.113   1.623  0.3686 -0.5323 -2.0459
 4421TIP3    H234823   6.698   2.999   1.722  1.3439  0.9276 -0.2153
 4422TIP3   OH234824   4.379   4.142   0.835  0.3208 -0.5095  0.5930
 4422TIP3    H134825   4.344   4.056   0.811  0.5750  0.0323 -2.0400
 4422TIP3    H234826   4.471   4.126   0.858  0.3411 -0.9504  0.2029
 4423TIP3   OH234827   3.280   4.461   0.872  0.1116  0.1391  0.2136
 4423TIP3    H134828   3.323   4.432   0.953  0.7058 -0.0769 -0.1661
 4423TIP3    H234829   3.352   4.491   0.817 -0.3700  1.0423  0.0693
 4424TIP3   OH234830   0.984   6.235   2.540  0.6509 -0.0807 -0.3584
 4424TIP3    H134831   1.021   6.277   2.618  0.0699  1.4546 -0.8593
 4424TIP3    H234832   0.895   6.268   2.535  0.1765 -1.3643 -0.8417
 4425TIP3   OH234833   0.288   5.240   7.675 -0.6145 -0.2241 -0.2731
 4425TIP3    H134834   0.200   5.215   7.647 -0.2805 -1.0776 -0.6017
 4425TIP3    H234835   0.273   5.301   7.748 -1.4811 -1.0532  0.2772
 4426TIP3   OH234836   2.590   3.057   7.450  0.1509  0.5824 -0.1587
 4426TIP3    H134837   2.532   2.989   7.416 -2.1048  2.1787  0.2161
 4426TIP3    H234838   2.604   3.117   7.376  1.9676 -0.1253 -0.4388
 4427TIP3   OH234839   3.514   3.244   1.648  0.5411 -0.1292 -0.5630
 4427TIP3    H134840   3.578   3.206   1.709 -0.6681 -1.4692 -0.0767
 4427TIP3    H234841   3.567   3.276   1.575  1.6684 -2.8322 -1.0359
 4428TIP3   OH234842   3.258   0.540   7.262  0.2073 -0.2104  0.2290
 4428TIP3    H134843   3.268   0.545   7.357  1.9552  1.2256  0.0190
 4428TIP3    H234844   3.269   0.448   7.241  0.0358 -0.5075  1.3833
 4429TIP3   OH234845   4.662   6.172   2.787 -0.5254 -0.6053 -0.3134
 4429TIP3    H134846   4.669   6.136   2.875 -0.5821  1.1382  0.4577
 4429TIP3    H234847   4.572   6.206   2.782 -0.7555 -1.3180 -1.3110
 4430TIP3   OH234848   5.556   2.303   1.655  0.4700  0.2720 -0.5267
 4430TIP3    H134849   5.536   2.271   1.567 -1.7697  0.7483 -0.2441
 4430TIP3    H234850   5.527   2.394   1.654  0.9708  0.4496  0.5479
 4431TIP3   OH234851   3.857   5.602   8.184  0.2709 -0.0082 -0.2345
 4431TIP3    H134852   3.850   5.622   8.278  3.3259 -1.4035  0.4053
 4431TIP3    H234853   3.843   5.687   8.142 -5.5923  0.0798  0.9275
 4432TIP3   OH234854   1.998   0.450   8.720 -0.2287 -0.4658  0.3721
 4432TIP3    H134855   1.961   0.440   8.807 -1.7365 -1.6738 -0.3593
 4432TIP3    H234856   2.074   0.508   8.732  0.2856 -1.5116  2.6365
 4433TIP3   OH234857   1.761   1.114   0.517 -0.2978 -0.4042 -0.3368
 4433TIP3    H134858   1.684   1.114   0.574 -1.2915 -0.5704 -1.6304
 4433TIP3    H234859   1.748   1.189   0.459  0.7121 -0.2119 -0.3419
 4434TIP3   OH234860   2.262   4.120   0.197 -0.4918 -0.3488 -0.0503
 4434TIP3    H134861   2.258   4.164   0.282 -0.3529  0.6955 -0.5696
 4434TIP3    H234862   2.210   4.175   0.139  2.3518  1.0211 -1.5129
 4435TIP3   OH234863   1.895   0.366   7.843 -0.2137 -0.1674  0.2421
 4435TIP3    H134864   1.881   0.433   7.775  0.4637 -3.1270 -3.1380
 4435TIP3    H234865   1.989   0.370   7.861  0.3976 -1.7577 -2.0264
 4436TIP3   OH234866   5.216   6.347   7.914 -0.2818  0.6274  0.2415
 4436TIP3    H134867   5.182   6.436   7.921 -0.2749  0.5142  2.1089
 4436TIP3    H234868   5.139   6.291   7.919 -0.1995  0.4894  0.0080
 4437TIP3   OH234869   3.667   4.323   0.898  0.1445 -0.4505  0.0275
 4437TIP3    H134870   3.710   4.238   0.886 -0.7668 -1.0297  0.7888
 4437TIP3    H234871   3.592   4.305   0.954 -1.9434  0.2708 -2.3617
 4438TIP3   OH234872   6.059   5.461   1.737  0.1132  1.0390 -0.2727
 4438TIP3    H134873   6.140   5.437   1.781  0.5390 -0.5070 -1.7924
 4438TIP3    H234874   5.990   5.439   1.799  0.7851  1.2305  0.5559
 4439TIP3   OH234875   0.989   0.087   1.763 -0.0595 -0.5117 -0.1769
 4439TIP3    H134876   1.083   0.085   1.745  0.5870  0.5263  2.5816
 4439TIP3    H234877   0.954   0.153   1.702  0.9241 -0.9898 -1.3032
 4440TIP3   OH234878   1.870   3.258   7.090 -0.1745  0.3532 -0.6771
 4440TIP3    H134879   1.858   3.351   7.111 -0.5093  0.1557  0.0580
 4440TIP3    H234880   1.806   3.213   7.145 -1.3131 -0.1947 -2.3946
 4441TIP3   OH234881   5.557   2.281   7.601  0.3716  0.5715  0.1519
 4441TIP3    H134882   5.495   2.354   7.590  0.0042  0.2332 -0.0633
 4441TIP3    H234883   5.542   2.226   7.524  1.0642  0.5702  0.0106
 4442TIP3   OH234884   2.188   4.566   0.025  0.4223 -0.2104  0.2197
 4442TIP3    H134885   2.159   4.477   0.008 -0.5888  0.2995 -0.9677
 4442TIP3    H234886   2.231   4.593  -0.056  1.2413  0.1914  0.7768
 4443TIP3   OH234887   3.021   2.861   7.225 -0.1713  0.0993 -0.0128
 4443TIP3    H134888   3.074   2.919   7.279  0.3847 -0.0190 -0.4234
 4443TIP3    H234889   3.084   2.812   7.173 -0.6786 -0.1000 -0.4553
 4444TIP3   OH234890   3.126   2.314   2.069 -0.0196 -0.5321 -0.4268
 4444TIP3    H134891   3.104   2.319   2.162 -0.8437 -0.7604 -0.6075
 4444TIP3    H234892   3.195   2.379   2.058 -0.3565 -0.0556  0.2192
 4445TIP3   OH234893   4.183   5.220   1.712  0.1241  0.4743  0.2139
 4445TIP3    H134894   4.196   5.254   1.800 -1.3530 -0.3203  0.7762
 4445TIP3    H234895   4.089   5.205   1.706  0.5146 -2.0909 -0.5042
 4446TIP3   OH234896   4.403   3.834   7.362 -0.3819 -0.4892  0.2503
 4446TIP3    H134897   4.397   3.834   7.267  1.9353  1.9292 -0.0196
 4446TIP3    H234898   4.468   3.766   7.382 -1.3720 -1.4753  0.2073
 4447TIP3   OH234899   2.271   2.506   2.435  0.6535  0.1635  0.1077
 4447TIP3    H134900   2.270   2.560   2.356  0.0896  2.8532  1.8142
 4447TIP3    H234901   2.359   2.469   2.438  1.2737  1.4566 -0.9050
 4448TIP3   OH234902   4.792   2.175   0.635 -0.2241  0.3720  0.2000
 4448TIP3    H134903   4.854   2.153   0.565  3.8814  1.2207  3.2223
 4448TIP3    H234904   4.761   2.091   0.667  1.6030 -0.2895  0.3657
 4449TIP3   OH234905   1.393   1.046   0.919  0.5857  0.1039  0.1009
 4449TIP3    H134906   1.329   0.977   0.938  0.0154  0.2892 -1.0331
 4449TIP3    H234907   1.441   1.058   1.001  1.1515 -2.0994  0.1742
 4450TIP3   OH234908   0.646   3.304   1.369 -0.2260  0.4505  0.5925
 4450TIP3    H134909   0.622   3.229   1.423 -2.6546 -0.3317 -1.4225
 4450TIP3    H234910   0.680   3.368   1.432 -0.4522 -1.3632  2.6788
 4451TIP3   OH234911   5.343   3.425   2.265 -0.3962 -0.6856  0.2952
 4451TIP3    H134912   5.369   3.497   2.321 -1.1604 -0.1684 -0.0011
 4451TIP3    H234913   5.327   3.465   2.180  0.7030 -1.4499 -0.3072
 4452TIP3   OH234914   3.483   5.648   1.011 -0.1833  0.4967 -0.0417
 4452TIP3    H134915   3.518   5.617   0.927  1.1079  1.2571  0.1879
 4452TIP3    H234916   3.523   5.590   1.076  1.1884  1.7626  0.2768
 4453TIP3   OH234917   0.227   4.693   7.665  0.1466 -0.2755  0.7920
 4453TIP3    H134918   0.188   4.606   7.667 -0.9955  0.2133  0.5837
 4453TIP3    H234919   0.172   4.746   7.723 -0.0384  0.6334 -0.1641
 4454TIP3   OH234920   1.138   1.659   0.863  0.0338  0.3465 -0.4366
 4454TIP3    H134921   1.090   1.667   0.945  0.6432 -2.2547  0.2703
 4454TIP3    H234922   1.166   1.568   0.861  2.4757  1.0339 -2.1865
 4455TIP3   OH234923   3.703   6.235   1.219  0.3966  0.1676 -0.3479
 4455TIP3    H134924   3.771   6.168   1.210  0.0466 -0.1113 -0.9405
 4455TIP3    H234925   3.750   6.314   1.245  1.0260  0.1175 -1.2821
 4456TIP3   OH234926   2.354   4.118   2.289 -0.1144  0.2205 -0.4104
 4456TIP3    H134927   2.301   4.190   2.254 -1.1745 -0.9706 -1.3528
 4456TIP3    H234928   2.357   4.054   2.217  1.6954 -0.2282  0.0265
 4457TIP3   OH234929   1.658   2.288   8.569 -0.2680 -0.0933  0.0262
 4457TIP3    H134930   1.564   2.274   8.576 -0.3722  0.1449 -0.7962
 4457TIP3    H234931   1.671   2.381   8.588 -0.7652  1.0185 -4.1583
 4458TIP3   OH234932   5.460   0.873   7.358  0.1527  0.2345 -0.6201
 4458TIP3    H134933   5.380   0.919   7.331 -0.5039  0.2014  1.1304
 4458TIP3    H234934   5.531   0.933   7.337 -0.4815  1.0042 -0.6172
 4459TIP3   OH234935   3.860   5.359   1.117 -0.1638  0.3888  0.2430
 4459TIP3    H134936   3.922   5.301   1.162 -1.1989 -0.9520  0.0059
 4459TIP3    H234937   3.901   5.375   1.032  0.1172 -0.0615  0.2868
 4460TIP3   OH234938   5.128   6.051   1.481 -0.3156  0.2680  0.2350
 4460TIP3    H134939   5.144   6.144   1.462  0.1432  0.2166  0.3516
 4460TIP3    H234940   5.210   6.007   1.457 -0.3473 -0.0348  0.6613
 4461TIP3   OH234941   5.077   5.193   0.696  0.4023 -0.4748 -0.4430
 4461TIP3    H134942   5.076   5.102   0.666 -0.8112 -0.1221 -1.5784
 4461TIP3    H234943   5.139   5.193   0.768  1.4563 -1.9298 -1.2723
 4462TIP3   OH234944   5.094   2.190   7.672  0.0752 -0.2910  0.0786
 4462TIP3    H134945   5.017   2.209   7.725 -0.4281 -1.6915 -0.1083
 4462TIP3    H234946   5.161   2.249   7.705 -0.7197  0.0779  1.0900
 4463TIP3   OH234947   6.572   3.785   8.408  0.4531  0.0198 -0.4212
 4463TIP3    H134948   6.638   3.838   8.454  0.5011 -0.1124 -0.3364
 4463TIP3    H234949   6.615   3.701   8.393  0.2615 -0.1101 -0.2520
 4464TIP3   OH234950   6.531   2.331   1.193 -0.0967  0.6320 -0.4265
 4464TIP3    H134951   6.625   2.348   1.195  0.2114 -1.0138  0.0953
 4464TIP3    H234952   6.509   2.301   1.281 -1.0732  0.7822 -0.6005
 4465TIP3   OH234953   1.547   0.682   8.270  0.0060 -0.7548  0.0027
 4465TIP3    H134954   1.561   0.718   8.358 -0.5722  0.3874 -0.3525
 4465TIP3    H234955   1.598   0.739   8.212 -0.3470 -0.9452 -0.5021
 4466TIP3   OH234956   4.147   3.865   3.008  0.0972 -0.4374  0.2993
 4466TIP3    H134957   4.203   3.808   3.062 -0.0200 -0.4091  0.4525
 4466TIP3    H234958   4.079   3.807   2.974  0.2062 -0.4671  0.1321
 4467TIP3   OH234959   2.127   0.462   1.656 -0.2636  0.5379  0.4473
 4467TIP3    H134960   2.183   0.540   1.663  1.9571 -0.9386  0.0258
 4467TIP3    H234961   2.124   0.444   1.562 -1.9187  0.8822  0.4168
 4468TIP3   OH234962   5.588   2.614   2.796  0.6847  0.4313  0.5465
 4468TIP3    H134963   5.638   2.666   2.732 -1.9863  0.3343 -1.8069
 4468TIP3    H234964   5.504   2.658   2.802 -1.3816 -2.9481 -0.8464
 4469TIP3   OH234965   0.525   1.447   0.460 -0.3738  1.2105 -0.3508
 4469TIP3    H134966   0.619   1.467   0.465  0.0572 -0.2864 -1.4586
 4469TIP3    H234967   0.509   1.389   0.534 -0.0154  0.1572 -1.0660
 4470TIP3   OH234968   2.353   3.277   1.721  0.0211 -0.4167 -0.0504
 4470TIP3    H134969   2.291   3.285   1.793  1.0404 -0.2675  0.8371
 4470TIP3    H234970   2.432   3.241   1.761  0.5855 -0.3926 -1.1100
 4471TIP3   OH234971   1.613   3.631   8.146 -0.6073  0.0695  0.6947
 4471TIP3    H134972   1.646   3.720   8.132 -0.9253  0.1777  0.6219
 4471TIP3    H234973   1.671   3.594   8.212  0.4887 -0.2054 -0.3948
 4472TIP3   OH234974   0.133   4.834   0.715  0.3799 -0.9447 -0.3231
 4472TIP3    H134975   0.084   4.763   0.756  0.9975 -0.4192  1.4581
 4472TIP3    H234976   0.131   4.815   0.622 -0.6279 -2.5401 -0.0114
 4473TIP3   OH234977   0.229   0.826   8.273  0.4484 -0.3844  0.1804
 4473TIP3    H134978   0.195   0.896   8.328  0.8680 -0.2589  0.2851
 4473TIP3    H234979   0.165   0.755   8.283 -0.6380  0.4031 -0.8899
 4474TIP3   OH234980   0.413   0.877   0.966  0.7856  0.2215 -0.1962
 4474TIP3    H134981   0.499   0.898   1.002  0.7703  2.5349 -1.2906
 4474TIP3    H234982   0.418   0.905   0.875 -0.6340 -1.1359 -0.7323
 4475TIP3   OH234983   1.311   0.393   8.442 -0.0653 -0.5627  0.2886
 4475TIP3    H134984   1.268   0.434   8.517  0.6507 -0.4643  0.6536
 4475TIP3    H234985   1.301   0.456   8.371 -0.0109 -0.2843  0.5281
 4476TIP3   OH234986   0.110   6.279   7.307 -0.3675 -0.0683 -0.1178
 4476TIP3    H134987   0.097   6.185   7.312 -3.3803  0.1693 -1.3012
 4476TIP3    H234988   0.026   6.316   7.334  0.0467  2.1958 -1.6226
 4477TIP3   OH234989   1.606   5.601   8.723 -0.1329  0.5498 -0.2869
 4477TIP3    H134990   1.694   5.628   8.751  0.5026 -1.1212 -0.5223
 4477TIP3    H234991   1.617   5.576   8.631 -0.4063 -1.4095  0.1704
 4478TIP3   OH234992   2.896   5.450   1.009 -0.0790 -0.0550  0.0744
 4478TIP3    H134993   2.875   5.441   1.102  0.3359 -0.3281  0.1418
 4478TIP3    H234994   2.854   5.532   0.983 -0.9473 -0.4144  0.2897
 4479TIP3   OH234995   5.682   4.706   7.250 -0.9410 -0.4758 -0.2295
 4479TIP3    H134996   5.694   4.800   7.243 -0.0193 -0.6432 -1.3725
 4479TIP3    H234997   5.589   4.691   7.234 -1.1865  0.2635  0.4634
 4480TIP3   OH234998   0.847   6.494   0.022  0.4416  0.0860 -0.1357
 4480TIP3    H134999   0.827   6.427   0.087  1.1251  0.4829  0.4985
 4480TIP3    H235000   0.910   6.552   0.065 -0.4782  1.4108 -0.5039
 4481TIP3   OH235001   3.304   3.950   2.241  0.3577 -0.5596 -0.3246
 4481TIP3    H135002   3.212   3.929   2.229 -0.3100  0.9493  1.6977
 4481TIP3    H235003   3.343   3.936   2.154 -2.2542  1.2384 -1.9189
 4482TIP3   OH235004   1.615   5.195   2.024 -0.9356  0.2341  0.0882
 4482TIP3    H135005   1.688   5.248   1.993 -1.7614  0.9343 -0.7312
 4482TIP3    H235006   1.577   5.157   1.945 -2.0295  0.6561  0.3945
 4483TIP3   OH235007   0.736   3.383   2.013 -0.9488  0.3560 -0.1278
 4483TIP3    H135008   0.820   3.425   2.032 -2.3641  2.7399  1.3987
 4483TIP3    H235009   0.708   3.420   1.930 -1.4747  1.3577  0.4665
 4484TIP3   OH235010   1.137   0.050   0.312 -0.2345  0.0370 -0.6698
 4484TIP3    H135011   1.197   0.038   0.239 -0.5806  1.5377 -1.2396
 4484TIP3    H235012   1.078   0.120   0.283  0.7032  1.9456  1.6854
 4485TIP3   OH235013   4.562   4.743   2.156  0.0236 -0.1533 -0.1749
 4485TIP3    H135014   4.640   4.765   2.207  0.8959  1.1562 -1.9660
 4485TIP3    H235015   4.509   4.823   2.158 -1.3812 -1.0664  1.1149
 4486TIP3   OH235016   3.000   0.994   0.239  0.0306 -0.0620  0.3012
 4486TIP3    H135017   3.023   0.901   0.227  1.7530  0.2212  1.1256
 4486TIP3    H235018   2.934   0.993   0.309 -0.5856 -0.7152 -0.2714
 4487TIP3   OH235019   1.366   3.587   7.324  0.2821 -0.5900 -0.0517
 4487TIP3    H135020   1.417   3.519   7.280  0.1802 -1.2528  0.8201
 4487TIP3    H235021   1.426   3.624   7.390 -0.2516 -1.1935  0.7999
 4488TIP3   OH235022   5.515   2.683   8.590  0.1092 -0.3195 -0.3166
 4488TIP3    H135023   5.544   2.747   8.656  0.7943  0.5150 -1.3831
 4488TIP3    H235024   5.520   2.599   8.634 -2.3399  0.4601  1.6554
 4489TIP3   OH235025   6.071   0.733   8.474  0.1947 -0.3807 -0.0695
 4489TIP3    H135026   6.135   0.798   8.505  1.2385 -1.3954 -0.0164
 4489TIP3    H235027   6.094   0.653   8.522 -0.9520 -0.8412 -0.2651
 4490TIP3   OH235028   4.916   5.277   2.130  0.5894 -0.0172 -0.3739
 4490TIP3    H135029   4.982   5.345   2.118  1.3550 -0.8388 -0.8760
 4490TIP3    H235030   4.834   5.318   2.101  1.1302  0.5266 -1.1604
 4491TIP3   OH235031   3.519   1.790   1.760  0.1926  0.2659  0.0066
 4491TIP3    H135032   3.484   1.826   1.842  1.6747  1.4080  0.1869
 4491TIP3    H235033   3.562   1.709   1.786  1.2356  0.9557  0.5101
 4492TIP3   OH235034   4.747   1.982   7.591  0.3844 -0.1635  0.0634
 4492TIP3    H135035   4.656   2.012   7.585  0.9945  1.7493 -0.2286
 4492TIP3    H235036   4.767   1.948   7.504 -0.1450 -0.9252  0.2295
 4493TIP3   OH235037   0.637   5.792   7.964 -0.3295 -0.0274 -0.4174
 4493TIP3    H135038   0.613   5.777   7.872  1.8093  0.5057 -1.1179
 4493TIP3    H235039   0.689   5.871   7.962 -0.2183 -0.0378  1.2823
 4494TIP3   OH235040   4.406   3.209   7.386 -0.2008 -0.2854 -0.1099
 4494TIP3    H135041   4.482   3.250   7.345 -1.3015  1.1929 -0.7592
 4494TIP3    H235042   4.405   3.242   7.475 -1.3150  1.5541 -0.7441
 4495TIP3   OH235043   3.622   5.835   1.366  0.6149 -0.2215 -0.4057
 4495TIP3    H135044   3.672   5.873   1.293  0.5482  1.0339  0.1681
 4495TIP3    H235045   3.685   5.830   1.437  1.4596 -3.9918 -1.2111
 4496TIP3   OH235046   3.112   6.460   0.227 -0.0336  0.5423 -0.1738
 4496TIP3    H135047   3.074   6.547   0.234 -1.4477 -0.0853  0.3729
 4496TIP3    H235048   3.037   6.401   0.222  0.8872 -0.6541 -0.5012
 4497TIP3   OH235049   2.943   5.227   8.661 -0.9330  0.2825  0.2201
 4497TIP3    H135050   2.870   5.278   8.625 -0.6162 -0.8401 -2.2459
 4497TIP3    H235051   2.964   5.163   8.592  0.8977 -0.9236  1.7882
 4498TIP3   OH235052   4.539   0.076   7.747 -0.6031  0.3043 -0.1867
 4498TIP3    H135053   4.454   0.063   7.789 -1.0967  0.2601 -1.1544
 4498TIP3    H235054   4.577  -0.012   7.744 -1.3086  0.0095 -1.3204
 4499TIP3   OH235055   6.070   5.972   8.691 -0.2752  0.8344 -0.6003
 4499TIP3    H135056   5.994   5.914   8.692  0.6090 -0.4318 -1.6131
 4499TIP3    H235057   6.144   5.913   8.675  0.6246  2.2811 -2.0984
 4500TIP3   OH235058   3.131   6.526   1.802  0.0353  0.0274  0.3219
 4500TIP3    H135059   3.224   6.500   1.799  0.5158  1.5177  1.4494
 4500TIP3    H235060   3.121   6.568   1.887 -1.8763 -0.7243  0.5076
 4501TIP3   OH235061   3.948   3.060   2.324 -0.4386  0.4407  0.3730
 4501TIP3    H135062   4.018   3.119   2.295  0.5374 -0.6183  0.4800
 4501TIP3    H235063   3.875   3.118   2.345  0.0860  1.5110 -0.6289
 4502TIP3   OH235064   4.038   4.060   1.766 -0.1140 -0.5140  0.3222
 4502TIP3    H135065   3.964   4.000   1.765 -0.7394  0.2491 -0.2636
 4502TIP3    H235066   4.000   4.146   1.781  0.5683 -0.0131 -0.6498
 4503TIP3   OH235067   0.812   2.252   8.254  0.1198 -0.0051  0.0151
 4503TIP3    H135068   0.840   2.304   8.179 -1.7058  0.1547 -0.6117
 4503TIP3    H235069   0.891   2.206   8.283  0.8144 -0.2947 -2.1835
 4504TIP3   OH235070   6.752   5.925   0.654 -0.2258 -0.3247  0.1809
 4504TIP3    H135071   6.809   5.900   0.582 -0.4023 -0.8222  0.2118
 4504TIP3    H235072   6.739   6.019   0.643  1.9730  0.1554  1.1332
 4505TIP3   OH235073   3.986   0.337   8.229  0.0127  0.0197 -0.0463
 4505TIP3    H135074   3.957   0.428   8.234 -0.0747 -0.0462  0.8873
 4505TIP3    H235075   3.914   0.287   8.269 -1.6402 -0.8872 -3.7628
 4506TIP3   OH235076   1.884   3.310   2.561 -0.3352 -0.0202 -0.5322
 4506TIP3    H135077   1.851   3.270   2.641  0.8909  1.3517  0.7220
 4506TIP3    H235078   1.977   3.327   2.579  0.5980 -1.7175 -3.0853
 4507TIP3   OH235079   2.380   6.301   0.652 -0.2952  0.9945  1.0088
 4507TIP3    H135080   2.453   6.349   0.612  0.5186 -1.1362 -0.2733
 4507TIP3    H235081   2.311   6.366   0.662  0.5321  2.3191 -1.1505
 4508TIP3   OH235082   6.694   3.385   1.825  0.3436 -0.6645 -0.6113
 4508TIP3    H135083   6.640   3.310   1.800 -1.0399 -0.2586  0.9540
 4508TIP3    H235084   6.667   3.454   1.765 -0.1125 -0.7645 -0.5261
 4509TIP3   OH235085   2.514   3.022   7.029 -0.2267 -0.1841 -0.3350
 4509TIP3    H135086   2.603   3.026   6.992 -0.2992  0.2970 -0.4633
 4509TIP3    H235087   2.471   3.101   6.997 -1.2512 -1.2280 -1.6860
 4510TIP3   OH235088   1.021   1.524   8.553 -0.3833  0.4229 -0.7181
 4510TIP3    H135089   0.951   1.524   8.488 -0.4558 -1.1790 -0.6710
 4510TIP3    H235090   0.977   1.505   8.636 -0.0096  0.3082 -0.5424
 4511TIP3   OH235091   3.156   5.785   7.368 -0.0233  0.1319 -0.6645
 4511TIP3    H135092   3.112   5.707   7.335  2.1526 -0.8542 -1.3847
 4511TIP3    H235093   3.248   5.772   7.347  0.5425  2.4876  0.0325
 4512TIP3   OH235094   2.327   0.026   8.219  0.5712  0.0878 -0.7801
 4512TIP3    H135095   2.371   0.070   8.293 -0.3986  0.9377 -0.6961
 4512TIP3    H235096   2.328   0.091   8.149 -0.2790  0.0104 -0.8701
 4513TIP3   OH235097   6.222   2.036   7.632  0.7695  0.2862  0.0800
 4513TIP3    H135098   6.181   2.040   7.719  0.3669 -0.5110 -0.0553
 4513TIP3    H235099   6.273   2.116   7.625 -1.9569  2.1022 -0.3270
 4514TIP3   OH235100   6.257   1.559   8.673  0.1629 -0.1861 -0.3259
 4514TIP3    H135101   6.194   1.496   8.707 -0.0867  0.0138 -0.4153
 4514TIP3    H235102   6.236   1.641   8.717  0.3923 -0.1282 -0.3212
 4515TIP3   OH235103   4.723   2.917   1.345 -0.3743 -0.1930  0.4634
 4515TIP3    H135104   4.803   2.969   1.333 -0.1906 -0.3876  0.7962
 4515TIP3    H235105   4.754   2.827   1.350 -0.4725 -0.1794  1.7798
 4516TIP3   OH235106   5.111   2.730   0.040  0.2516 -0.0730  0.2359
 4516TIP3    H135107   5.094   2.635   0.037  1.9168 -0.3872 -1.4267
 4516TIP3    H235108   5.140   2.751  -0.049 -0.9162  2.1944  0.3402
 4517TIP3   OH235109   3.211   1.875   8.622 -0.1741 -0.6114 -0.2714
 4517TIP3    H135110   3.252   1.789   8.614  1.1316  0.1025 -1.7359
 4517TIP3    H235111   3.271   1.925   8.677 -0.6576 -0.4636  0.1281
 4518TIP3   OH235112   6.462   3.146   1.068 -0.6393  0.0735  0.3125
 4518TIP3    H135113   6.551   3.111   1.070 -0.4842  0.1611 -1.8292
 4518TIP3    H235114   6.410   3.075   1.029 -1.2297  0.5060  0.2919
 4519TIP3   OH235115   0.294   6.082   1.762 -0.0507  0.0997 -0.4637
 4519TIP3    H135116   0.291   6.149   1.694 -1.4872 -0.2189 -0.7527
 4519TIP3    H235117   0.279   6.129   1.844  0.6442  0.3423 -0.4684
 4520TIP3   OH235118   5.046   6.309   7.466 -0.5847  0.0307  0.7703
 4520TIP3    H135119   5.007   6.321   7.553  0.7976 -2.7019  1.9043
 4520TIP3    H235120   5.133   6.347   7.473 -0.7499  0.4912  0.3285
 4521TIP3   OH235121   2.100   5.268   6.960  0.1329  0.0500  0.4423
 4521TIP3    H135122   2.017   5.290   6.919  1.5382  1.6032 -1.8313
 4521TIP3    H235123   2.112   5.334   7.028  0.7364  1.6584 -1.1438
 4522TIP3   OH235124   0.977   1.238   8.789 -0.3676  0.5008 -0.4303
 4522TIP3    H135125   1.045   1.283   8.840  0.3947  0.5228 -1.4193
 4522TIP3    H235126   1.014   1.232   8.701  0.4051 -3.6592 -0.0439
 4523TIP3   OH235127   3.276   4.541   6.774  0.3864  0.2228  0.5721
 4523TIP3    H135128   3.190   4.521   6.812  0.0859  1.8049  0.7836
 4523TIP3    H235129   3.330   4.465   6.795 -1.1044 -1.0632 -0.0399
 4524TIP3   OH235130   1.347   3.528   0.218 -0.4929 -0.3075 -0.0763
 4524TIP3    H135131   1.367   3.621   0.232  3.5604 -1.0528  0.2966
 4524TIP3    H235132   1.362   3.514   0.125  1.2935 -0.9901  0.2844
 4525TIP3   OH235133   4.229   6.524   8.046 -0.3824 -0.0857  0.5141
 4525TIP3    H135134   4.187   6.467   7.982  1.0618 -1.7269  0.9185
 4525TIP3    H235135   4.184   6.505   8.128 -0.2596 -0.2687  0.5421
 4526TIP3   OH235136   0.068   0.839   0.846  0.7606  0.3577 -0.5139
 4526TIP3    H135137   0.101   0.836   0.757  1.0129 -0.0907 -0.4069
 4526TIP3    H235138  -0.023   0.810   0.838 -0.0878  2.9256 -1.0092
 4527TIP3   OH235139   3.284   2.437   8.345 -0.5672 -0.0107 -0.0166
 4527TIP3    H135140   3.324   2.468   8.427 -0.0521  0.7603 -0.5440
 4527TIP3    H235141   3.358   2.407   8.292 -0.8972 -0.4737 -0.2189
 4528TIP3   OH235142   5.514   1.694   3.182 -0.4695 -0.7986 -0.0834
 4528TIP3    H135143   5.530   1.772   3.129 -1.4275 -1.2230 -1.0277
 4528TIP3    H235144   5.602   1.663   3.206  0.0021 -0.6808 -1.5504
 4529TIP3   OH235145   5.557   2.495   1.281  0.4511 -0.4532  0.1949
 4529TIP3    H135146   5.639   2.460   1.248  0.4882 -0.1114 -0.0873
 4529TIP3    H235147   5.568   2.497   1.376  0.9684  0.0594  0.1306
 4530TIP3   OH235148   2.621   1.930   0.027  0.3325  0.4493  0.2910
 4530TIP3    H135149   2.633   1.955  -0.064  1.0332  0.0905  0.2762
 4530TIP3    H235150   2.565   1.999   0.064 -2.7518 -1.0717 -1.1733
 4531TIP3   OH235151   3.177   2.402   2.599  0.8047 -0.3383  0.0291
 4531TIP3    H135152   3.106   2.358   2.552 -0.0770  1.1445 -0.0890
 4531TIP3    H235153   3.155   2.495   2.594  2.2570  0.0772  0.8406
 4532TIP3   OH235154   1.828   0.214   0.603 -0.2349  0.3929  0.0252
 4532TIP3    H135155   1.750   0.256   0.638  0.7344  0.6306  2.1064
 4532TIP3    H235156   1.856   0.270   0.530 -1.8895  0.3711 -0.6514
 4533TIP3   OH235157   1.546   0.211   1.889 -0.0178 -0.3347 -0.2041
 4533TIP3    H135158   1.490   0.270   1.839 -2.0858 -1.1867  0.9839
 4533TIP3    H235159   1.561   0.136   1.832  0.5661  0.2166 -0.7949
 4534TIP3   OH235160   2.928   0.463   2.493  0.1305  0.2543  0.1888
 4534TIP3    H135161   2.908   0.370   2.492  0.1693  0.2434 -1.0122
 4534TIP3    H235162   2.855   0.503   2.542 -1.6159 -0.0723 -1.9923
 4535TIP3   OH235163   0.141   3.052   8.335  0.1983 -0.2738  0.2465
 4535TIP3    H135164   0.161   3.083   8.423  0.4859  0.6098 -0.1194
 4535TIP3    H235165   0.221   3.068   8.285  0.1894 -1.1792 -0.0758
 4536TIP3   OH235166   5.089   3.922   0.688 -0.1972  0.0883  0.4380
 4536TIP3    H135167   5.153   3.900   0.620  0.4187  0.7886  0.7799
 4536TIP3    H235168   5.019   3.857   0.677  0.0116  0.0365 -0.7029
 4537TIP3   OH235169   0.163   5.401   7.864  0.0389 -0.5389  0.1294
 4537TIP3    H135170   0.080   5.362   7.890 -0.2538  0.2618  0.4405
 4537TIP3    H235171   0.182   5.466   7.932  0.9078 -0.6828  0.0459
 4538TIP3   OH235172   6.524   1.754   1.769 -0.0685 -0.5641  0.1771
 4538TIP3    H135173   6.534   1.734   1.676  0.0977  2.2435 -0.4895
 4538TIP3    H235174   6.595   1.707   1.812 -0.4698 -2.3293 -1.0068
 4539TIP3   OH235175   1.590   5.549   7.389  0.3569 -0.5320  0.2495
 4539TIP3    H135176   1.665   5.593   7.350 -0.2374  0.5808  0.3101
 4539TIP3    H235177   1.628   5.490   7.455  1.3609 -2.2559 -1.7390
 4540TIP3   OH235178   6.662   2.659   8.094 -0.0565 -0.0107 -0.3404
 4540TIP3    H135179   6.702   2.584   8.140 -0.5170  0.1507  0.3409
 4540TIP3    H235180   6.701   2.736   8.136  0.2540  0.1368 -0.8936
 4541TIP3   OH235181   0.626   3.370   8.690 -0.2841 -0.0191  1.3085
 4541TIP3    H135182   0.714   3.399   8.716  0.0273 -0.5055  0.8424
 4541TIP3    H235183   0.609   3.294   8.746  0.0726 -0.6103  0.6329
 4542TIP3   OH235184   6.185   5.188   8.405  0.0562 -0.0770 -0.0379
 4542TIP3    H135185   6.123   5.137   8.457  0.7956 -0.7228  0.2326
 4542TIP3    H235186   6.182   5.148   8.318  2.3535 -2.2159  0.7393
 4543TIP3   OH235187   2.253   3.134   0.481 -0.1876  0.4154 -0.0481
 4543TIP3    H135188   2.184   3.200   0.474 -0.9263 -0.3433 -0.0755
 4543TIP3    H235189   2.284   3.122   0.392  0.1375  0.9081 -0.0084
 4544TIP3   OH235190   1.745   6.487   8.597  0.8099  0.1192  0.0599
 4544TIP3    H135191   1.743   6.560   8.660  1.7203  0.2210 -0.0202
 4544TIP3    H235192   1.796   6.419   8.642 -0.4068 -0.6610  0.3194
 4545TIP3   OH235193   5.014   2.538   1.744  0.2097 -0.3722 -0.1274
 4545TIP3    H135194   5.093   2.492   1.775  0.3555  1.3335  2.3164
 4545TIP3    H235195   4.959   2.545   1.822 -0.5209  2.0804 -0.7897
 4546TIP3   OH235196   1.426   4.899   1.683  0.6101 -0.1588  0.0338
 4546TIP3    H135197   1.512   4.868   1.711  0.2840 -1.3985 -0.2737
 4546TIP3    H235198   1.363   4.845   1.731 -0.0188  0.9286  0.4764
 4547TIP3   OH235199   3.284   3.325   0.960 -0.4329 -0.2161  0.3692
 4547TIP3    H135200   3.310   3.376   0.883 -1.4342 -1.2731 -0.7292
 4547TIP3    H235201   3.225   3.382   1.009  0.6230  0.6583  0.6427
 4548TIP3   OH235202   0.455   2.664   8.111 -0.0240  0.1218  0.1826
 4548TIP3    H135203   0.457   2.707   8.197 -0.9360 -0.0457  0.2927
 4548TIP3    H235204   0.467   2.571   8.131 -1.6345 -0.0881  0.2659
 4549TIP3   OH235205   0.478   6.424   8.410 -0.4676  0.6025  0.2511
 4549TIP3    H135206   0.431   6.365   8.352  2.0407 -4.0375  2.3694
 4549TIP3    H235207   0.548   6.460   8.356  1.6630 -3.3843 -0.0542
 4550TIP3   OH235208   6.410   3.225   2.180 -0.7699  0.1232  0.2107
 4550TIP3    H135209   6.464   3.199   2.105 -1.4641  1.8353 -0.9486
 4550TIP3    H235210   6.346   3.286   2.143 -0.8997  1.3118  2.2480
 4551TIP3   OH235211   4.987   5.187   2.688 -0.0332 -0.2097 -0.2883
 4551TIP3    H135212   5.073   5.222   2.665  0.3750 -0.7361  0.3923
 4551TIP3    H235213   5.004   5.132   2.764 -0.6639 -1.8110 -1.2675
 4552TIP3   OH235214   4.467   5.111   7.827 -0.7073  0.3542  0.1701
 4552TIP3    H135215   4.474   5.207   7.821  0.3453  0.2068 -3.2294
 4552TIP3    H235216   4.488   5.080   7.739  0.6713 -3.1374  1.5455
 4553TIP3   OH235217   1.534   4.654   8.681  0.2192 -0.4006 -0.1114
 4553TIP3    H135218   1.614   4.601   8.686  1.2190  0.9808 -0.7487
 4553TIP3    H235219   1.554   4.731   8.735  0.4394  1.2996 -2.4501
 4554TIP3   OH235220   5.441   0.738   0.987  0.0254 -0.4446  0.3193
 4554TIP3    H135221   5.404   0.814   0.941 -1.7213 -0.9916  0.7170
 4554TIP3    H235222   5.466   0.678   0.917 -2.3101 -1.1318 -0.0312
 4555TIP3   OH235223   0.089   1.827   8.529 -0.5754  0.0192  0.0461
 4555TIP3    H135224   0.050   1.810   8.443 -1.1883  1.0088  0.1190
 4555TIP3    H235225   0.019   1.866   8.580  0.3767  1.4389  0.3249
 4556TIP3   OH235226   5.216   1.371   0.394  0.0098 -0.0752 -0.5431
 4556TIP3    H135227   5.304   1.334   0.384 -0.2974 -1.3067  0.9382
 4556TIP3    H235228   5.229   1.451   0.445  0.1486 -1.0307  0.9673
 4557TIP3   OH235229   5.079   4.934   0.590 -0.2106 -0.0287  0.5527
 4557TIP3    H135230   5.154   4.910   0.644  2.1070  1.2614 -1.8265
 4557TIP3    H235231   5.084   4.875   0.515 -1.2033  0.4951  0.0580
 4558TIP3   OH235232   5.296   1.222   0.742 -0.1228 -0.1208  0.2367
 4558TIP3    H135233   5.238   1.297   0.729 -1.2882 -0.8461  1.0438
 4558TIP3    H235234   5.263   1.156   0.681 -1.1001 -1.0325  1.6738
 4559TIP3   OH235235   0.931   5.524   8.247  0.5902 -0.2700  0.3681
 4559TIP3    H135236   0.911   5.616   8.232  0.8663 -0.2150  0.3286
 4559TIP3    H235237   1.010   5.507   8.195  0.1774 -0.6940 -0.1360
 4560TIP3   OH235238   0.613   4.148   0.239  0.0342 -0.2414  0.3028
 4560TIP3    H135239   0.601   4.226   0.293  0.0210 -0.6532  0.9097
 4560TIP3    H235240   0.553   4.159   0.165 -0.9490 -0.2959  1.0752
 4561TIP3   OH235241   0.545   0.570   2.297  0.0994 -0.4118  0.3790
 4561TIP3    H135242   0.466   0.619   2.318 -0.1370 -1.4364  2.0487
 4561TIP3    H235243   0.614   0.612   2.349  0.2504 -0.7418  0.4491
 4562TIP3   OH235244   0.354   2.205   7.809  0.4101 -0.0014  0.2743
 4562TIP3    H135245   0.392   2.287   7.777  1.4559 -0.1831  1.0155
 4562TIP3    H235246   0.381   2.140   7.745  0.3315  0.0729  0.1641
 4563TIP3   OH235247   0.088   4.415   1.784 -0.4121 -0.7583 -0.1467
 4563TIP3    H135248   0.012   4.372   1.823 -2.2294  2.3740  0.1570
 4563TIP3    H235249   0.064   4.427   1.692 -0.2357  0.1293 -0.0825
 4564TIP3   OH235250   2.233   3.273   1.996 -0.0288 -0.8678  0.1768
 4564TIP3    H135251   2.239   3.314   2.083  0.5980 -1.4960  0.4370
 4564TIP3    H235252   2.254   3.181   2.012  0.8939 -0.8315 -0.7782
 4565TIP3   OH235253   2.865   4.197   7.097  0.5954 -0.7483 -0.0601
 4565TIP3    H135254   2.959   4.210   7.106  0.8503 -2.2163 -0.3059
 4565TIP3    H235255   2.856   4.142   7.019 -0.2933 -2.2766  1.0604
 4566TIP3   OH235256   2.012   3.214   0.958 -0.1118  0.1865 -0.6281
 4566TIP3    H135257   2.107   3.204   0.954  0.0080  0.1840  1.3862
 4566TIP3    H235258   1.978   3.125   0.960  0.0025  0.1542  0.9011
 4567TIP3   OH235259   5.270   0.441   7.888 -0.2829  0.3324 -0.0785
 4567TIP3    H135260   5.174   0.435   7.890 -0.2762  0.5256  1.1858
 4567TIP3    H235261   5.299   0.351   7.900 -0.2981  0.2531 -0.6065
 4568TIP3   OH235262   6.437   3.232   0.587 -0.1945  0.2495  0.3927
 4568TIP3    H135263   6.444   3.209   0.679  0.7659  0.1052  0.3009
 4568TIP3    H235264   6.527   3.254   0.561 -0.4856  0.5071 -0.4486
 4569TIP3   OH235265   4.079   4.045   2.365  0.0249  0.0372  0.1783
 4569TIP3    H135266   4.050   4.107   2.298 -4.6524 -2.7051 -0.7577
 4569TIP3    H235267   4.022   4.064   2.440  0.5907 -1.2157  0.9454
 4570TIP3   OH235268   0.597   2.042   0.023  0.4725  0.2147  0.0234
 4570TIP3    H135269   0.599   2.084  -0.062 -0.0401  0.1495 -0.0216
 4570TIP3    H235270   0.541   2.098   0.077  2.5322  1.4927  0.9928
 4571TIP3   OH235271   5.540   6.526   0.952  0.4335 -0.4508 -0.4332
 4571TIP3    H135272   5.553   6.542   0.858  0.2488  1.0306 -0.2342
 4571TIP3    H235273   5.519   6.433   0.958  1.1012 -0.7105 -1.7915
 4572TIP3   OH235274   3.600   6.306   2.464  0.0854  0.7212  0.1209
 4572TIP3    H135275   3.604   6.218   2.427  1.5710  0.1642  1.4999
 4572TIP3    H235276   3.506   6.323   2.476 -0.2007 -0.8275  0.1952
 4573TIP3   OH235277   5.680   4.887   0.170 -0.3843  0.1896  0.5142
 4573TIP3    H135278   5.661   4.800   0.205 -0.5648  0.0172  0.0026
 4573TIP3    H235279   5.669   4.946   0.245 -1.2911 -0.1097  0.6315
 4574TIP3   OH235280   6.422   0.799   1.929  0.5961  0.1741 -0.5132
 4574TIP3    H135281   6.483   0.873   1.930 -0.9134  1.4704  0.7391
 4574TIP3    H235282   6.408   0.778   2.021  0.9165 -1.6695 -0.8351
 4575TIP3   OH235283   3.334   0.373   2.211  0.3337 -0.3576  0.0774
 4575TIP3    H135284   3.251   0.385   2.258  0.5498  0.5373  0.2330
 4575TIP3    H235285   3.317   0.299   2.153 -0.7309  0.1102 -0.2277
 4576TIP3   OH235286   1.995   3.154   8.768  0.6884  0.1653 -0.1462
 4576TIP3    H135287   2.067   3.097   8.794  1.4177  0.6969 -0.9385
 4576TIP3    H235288   2.011   3.236   8.814  0.3407  0.1439  0.0168
 4577TIP3   OH235289   3.010   5.883   1.288  0.4610  0.0774 -0.1071
 4577TIP3    H135290   2.936   5.926   1.247 -0.2993 -1.6364 -0.6275
 4577TIP3    H235291   3.084   5.943   1.275 -0.6807  1.5225 -0.1215
 4578TIP3   OH235292   1.169   5.611   0.920  0.2179  0.7725 -0.1320
 4578TIP3    H135293   1.173   5.541   0.855 -1.2598  0.0698  0.5027
 4578TIP3    H235294   1.234   5.674   0.890 -1.2919  1.1163 -3.0323
 4579TIP3   OH235295   4.124   3.082   7.496 -0.5549  0.3973  0.0515
 4579TIP3    H135296   4.174   3.001   7.489  2.1978  1.9349  0.5028
 4579TIP3    H235297   4.059   3.076   7.426  0.1142 -1.8028 -0.4670
 4580TIP3   OH235298   1.794   5.081   2.333  0.2951 -0.3205 -0.4532
 4580TIP3    H135299   1.729   5.150   2.334 -0.7195 -1.2163  1.7237
 4580TIP3    H235300   1.874   5.121   2.369 -0.8872 -0.6730  2.9451
 4581TIP3   OH235301   1.007   1.960   1.680 -0.2650  0.0177  0.5217
 4581TIP3    H135302   0.953   2.018   1.733  1.3399 -0.2017  2.5308
 4581TIP3    H235303   1.094   1.967   1.718  0.5442 -1.6838 -0.8764
 4582TIP3   OH235304   1.279   1.256   0.734  0.0934 -0.0388  0.0788
 4582TIP3    H135305   1.315   1.189   0.793 -0.4792 -0.1362  0.3236
 4582TIP3    H235306   1.211   1.300   0.786  1.7542  2.0710  0.6376
 4583TIP3   OH235307   6.735   6.526   1.934  0.1961  0.2694 -0.1234
 4583TIP3    H135308   6.725   6.538   2.029  1.0688 -1.7761  0.3034
 4583TIP3    H235309   6.696   6.440   1.917  1.9963 -0.3850 -1.2125
 4584TIP3   OH235310   0.265   3.145   2.193  0.0024  0.5598  0.1783
 4584TIP3    H135311   0.293   3.172   2.280 -1.5391  0.7193  0.6542
 4584TIP3    H235312   0.225   3.223   2.154 -1.0334 -0.0015  0.0789
 4585TIP3   OH235313   4.347   1.925   2.000  0.2070  0.1024 -0.7113
 4585TIP3    H135314   4.365   2.019   2.006  1.3518 -0.1833  1.0291
 4585TIP3    H235315   4.383   1.888   2.081 -3.5806 -1.3470  0.5654
 4586TIP3   OH235316   3.784   5.675   0.782  0.2248  0.4351 -0.1357
 4586TIP3    H135317   3.705   5.625   0.763  0.3773  0.5254 -1.1069
 4586TIP3    H235318   3.754   5.754   0.827 -0.1755  0.1913  0.0229
 4587TIP3   OH235319   1.952   6.294   8.220 -0.1714 -0.2147 -0.3803
 4587TIP3    H135320   1.884   6.243   8.265 -0.1893  0.4055  0.3171
 4587TIP3    H235321   2.033   6.271   8.265  0.0914 -0.9168 -1.1806
 4588TIP3   OH235322   5.974   4.809   1.898  0.2750  0.1249 -0.8999
 4588TIP3    H135323   5.965   4.817   1.993  2.1558  0.6549 -0.7293
 4588TIP3    H235324   5.949   4.718   1.879 -0.9284  0.2516 -0.0330
 4589TIP3   OH235325   3.662   0.075   1.869 -0.0246  0.1107 -0.1651
 4589TIP3    H135326   3.607   0.060   1.792  0.2214 -1.6302 -0.0624
 4589TIP3    H235327   3.719  -0.002   1.872  1.1877  1.0106  0.7593
 4590TIP3   OH235328   4.269   2.468   8.237 -0.1055  0.4515  0.2202
 4590TIP3    H135329   4.248   2.379   8.210 -0.4307  1.1212 -1.8643
 4590TIP3    H235330   4.333   2.457   8.308 -0.8850 -1.4347  0.6866
 4591TIP3   OH235331   0.220   2.579   1.647  0.0246 -0.4019  0.1368
 4591TIP3    H135332   0.177   2.535   1.721 -2.0952  1.1802 -0.0341
 4591TIP3    H235333   0.244   2.665   1.683 -1.0910  0.4080 -0.9751
 4592TIP3   OH235334   4.476   2.054   6.982 -0.1317  0.1600  0.5415
 4592TIP3    H135335   4.524   2.123   6.938 -1.1661  1.0721  0.8057
 4592TIP3    H235336   4.455   2.090   7.068 -2.7183  0.4807 -0.1387
 4593TIP3   OH235337   2.094   2.961   1.402  0.6084 -0.5964  0.6995
 4593TIP3    H135338   2.030   2.901   1.361 -0.0149 -0.2059  1.0814
 4593TIP3    H235339   2.158   2.978   1.333 -0.5367  0.2049 -0.2038
 4594TIP3   OH235340   4.613   5.565   1.451  0.1723  0.3765  0.4257
 4594TIP3    H135341   4.589   5.514   1.529  1.3106 -1.7788 -0.5373
 4594TIP3    H235342   4.551   5.638   1.450 -0.5394 -0.1107  2.7665
 4595TIP3   OH235343   0.474   4.537   1.712  0.4920 -0.2749  0.0549
 4595TIP3    H135344   0.432   4.623   1.716  0.5985 -0.0382 -2.5745
 4595TIP3    H235345   0.562   4.555   1.679  0.7504 -1.3322  0.1335
 4596TIP3   OH235346   1.376   1.766   2.258 -0.2006 -0.1405 -0.5969
 4596TIP3    H135347   1.347   1.855   2.240 -0.8254  0.0474  1.1508
 4596TIP3    H235348   1.421   1.771   2.342  0.1239 -1.4149 -0.6624
 4597TIP3   OH235349   0.114   4.759   0.441 -0.4858  0.7859 -0.0478
 4597TIP3    H135350   0.031   4.762   0.393 -2.1855 -1.9240  2.3645
 4597TIP3    H235351   0.163   4.689   0.400 -1.0794 -0.1714  0.8268
 4598TIP3   OH235352   6.545   3.329   2.938  0.1540 -0.0923 -0.6271
 4598TIP3    H135353   6.537   3.238   2.909 -1.4216 -0.1250 -0.1982
 4598TIP3    H235354   6.475   3.375   2.892  0.3140  0.7045 -0.0947
 4599TIP3   OH235355   5.205   5.148   8.768 -0.8637 -0.1784  0.0567
 4599TIP3    H135356   5.162   5.170   8.685 -3.2840 -0.8273  1.0343
 4599TIP3    H235357   5.223   5.233   8.809  0.8513  0.1668 -1.3030
 4600TIP3   OH235358   1.157   2.720   0.374 -0.5572 -0.4707 -0.0033
 4600TIP3    H135359   1.203   2.661   0.315  1.0154 -0.7251  1.3834
 4600TIP3    H235360   1.122   2.663   0.443 -1.4141 -0.0656 -0.0895
 4601TIP3   OH235361   2.180   5.034   1.586 -0.4626 -0.1341  0.3297
 4601TIP3    H135362   2.121   5.107   1.571  1.0858  1.2168  0.5210
 4601TIP3    H235363   2.153   4.997   1.670  0.6865  2.3076  1.9068
 4602TIP3   OH235364   2.444   3.383   2.837 -0.0405  0.2771  0.4923
 4602TIP3    H135365   2.440   3.442   2.912 -1.1358  0.8613  0.0060
 4602TIP3    H235366   2.458   3.441   2.762  1.3944 -0.3248  0.2598
 4603TIP3   OH235367   0.570   2.686   8.555  0.0416  0.0339 -0.7028
 4603TIP3    H135368   0.647   2.730   8.519 -0.5899  1.8253  0.0423
 4603TIP3    H235369   0.496   2.722   8.507 -0.3383 -2.3537 -2.0757
 4604TIP3   OH235370   3.415   5.785   7.243 -0.3064  0.5683 -0.0762
 4604TIP3    H135371   3.407   5.874   7.208  0.8894  0.3001 -1.0835
 4604TIP3    H235372   3.477   5.741   7.185 -2.0282 -1.4146 -0.5529
 4605TIP3   OH235373   5.738   1.291   7.534 -0.1477 -0.3920 -0.2381
 4605TIP3    H135374   5.833   1.302   7.522 -0.4695  2.4952 -0.7730
 4605TIP3    H235375   5.730   1.242   7.616  1.7816 -1.3234 -0.5336
 4606TIP3   OH235376   6.818   5.997   7.516  0.9717 -0.2565 -0.4620
 4606TIP3    H135377   6.745   5.934   7.518  1.3909 -0.7546 -0.5605
 4606TIP3    H235378   6.835   6.011   7.422  0.8024  0.0964 -0.4405
 4607TIP3   OH235379   3.116   2.829   0.575  0.2825 -0.2469  0.3410
 4607TIP3    H135380   3.206   2.809   0.599  0.5404 -0.8674 -1.0032
 4607TIP3    H235381   3.122   2.856   0.483 -0.8558  0.0191  0.3333
 4608TIP3   OH235382   0.271   1.988   7.476  0.3752 -0.3720 -0.1397
 4608TIP3    H135383   0.330   2.002   7.402 -1.4218  1.2519 -1.3699
 4608TIP3    H235384   0.321   2.016   7.552  1.3790  0.4742 -1.0824
 4609TIP3   OH235385   4.859   5.258   0.860  0.2192  0.1839  0.6664
 4609TIP3    H135386   4.788   5.198   0.838 -0.1572  0.0675  2.1179
 4609TIP3    H235387   4.926   5.242   0.793  0.3060 -2.1555  1.2408
 4610TIP3   OH235388   1.605   3.154   2.608 -0.0438  0.8060 -0.0179
 4610TIP3    H135389   1.579   3.246   2.621  0.7952  0.9304  0.8833
 4610TIP3    H235390   1.676   3.140   2.671  0.0957 -0.3582 -0.4136
 4611TIP3   OH235391   3.478   0.072   8.612  0.2421 -0.1096  0.4990
 4611TIP3    H135392   3.513  -0.014   8.634 -2.7199 -1.9813 -1.3498
 4611TIP3    H235393   3.454   0.065   8.520 -2.5006  1.7442  0.9577
 4612TIP3   OH235394   6.645   1.710   0.313  0.5260  0.1445 -0.2417
 4612TIP3    H135395   6.708   1.779   0.291  2.3155 -0.9660  1.1909
 4612TIP3    H235396   6.684   1.630   0.277  0.0980 -0.6017  0.9099
 4613TIP3   OH235397   0.608   2.237   1.552  0.0398  0.3614  0.3497
 4613TIP3    H135398   0.691   2.268   1.587 -0.2985 -0.5399  2.0307
 4613TIP3    H235399   0.598   2.148   1.586 -0.6832 -0.2945 -1.4595
 4614TIP3   OH235400   0.103   4.570   2.030 -0.4954 -0.5326 -0.2650
 4614TIP3    H135401   0.099   4.507   1.958 -2.2662 -2.2155  1.2152
 4614TIP3    H235402   0.191   4.608   2.024 -0.9144  0.2005 -3.9101
 4615TIP3   OH235403   1.512   1.450   0.114 -1.1289 -0.1889  0.2001
 4615TIP3    H135404   1.430   1.419   0.152 -0.9679 -1.1630 -0.2168
 4615TIP3    H235405   1.545   1.376   0.063 -1.1626  0.9604 -1.5569
 4616TIP3   OH235406   6.335   1.766   0.942 -0.7059 -0.5348 -0.1146
 4616TIP3    H135407   6.327   1.675   0.914  0.3311 -0.5551 -0.4006
 4616TIP3    H235408   6.301   1.817   0.868  0.9833 -0.6280 -1.0163
 4617TIP3   OH235409   3.941   5.084   7.637 -0.1655 -0.2493 -0.5427
 4617TIP3    H135410   3.926   5.100   7.544  0.3657 -0.6397 -0.7063
 4617TIP3    H235411   4.026   5.124   7.655 -0.3034 -0.1014 -0.2021
 4618TIP3   OH235412   3.190   3.417   0.095 -0.5055 -0.0918  0.4280
 4618TIP3    H135413   3.272   3.429   0.046 -0.0659 -1.4601  0.7974
 4618TIP3    H235414   3.198   3.331   0.136 -2.1338 -0.2422  0.4955
 4619TIP3   OH235415   1.164   1.828   0.566 -0.1170 -0.3960  0.4702
 4619TIP3    H135416   1.099   1.789   0.508 -0.0365  1.3506 -0.8817
 4619TIP3    H235417   1.206   1.753   0.609 -1.4260 -1.6555 -0.3570
 4620TIP3   OH235418   5.482   1.356   7.475  0.7170  0.2246 -0.0489
 4620TIP3    H135419   5.435   1.338   7.556  0.2243  1.0219 -0.1540
 4620TIP3    H235420   5.573   1.334   7.495  0.3169 -1.3270  0.1509
 4621TIP3   OH235421   6.133   3.888   8.652  0.0169  0.1705  0.3204
 4621TIP3    H135422   6.044   3.904   8.620  0.0003 -0.4258  0.0555
 4621TIP3    H235423   6.189   3.904   8.576  0.0873  0.0139  0.3385
 4622TIP3   OH235424   6.813   4.675   8.184 -0.7254  0.2437  0.5866
 4622TIP3    H135425   6.769   4.695   8.101  0.0546  1.0665  0.3460
 4622TIP3    H235426   6.754   4.709   8.251 -1.3456 -0.3929  0.3769
 4623TIP3   OH235427   5.482   0.198   3.141  0.1237 -0.6408  0.4527
 4623TIP3    H135428   5.388   0.189   3.129  0.4801 -2.5707 -1.5753
 4623TIP3    H235429   5.511   0.110   3.168  1.6555 -0.9608 -1.9296
 4624TIP3   OH235430   3.156   5.409   2.181 -0.2434  0.1442 -0.0284
 4624TIP3    H135431   3.070   5.439   2.150 -0.1459 -0.5035 -0.9716
 4624TIP3    H235432   3.147   5.314   2.188  0.5664  0.0169 -0.6750
 4625TIP3   OH235433   3.867   3.600   8.434 -0.6674  0.0081  0.3688
 4625TIP3    H135434   3.962   3.593   8.419 -0.7504 -3.2245  0.6533
 4625TIP3    H235435   3.850   3.694   8.437  2.7307  0.7208  1.5430
 4626TIP3   OH235436   1.018   1.030   0.691  0.3781  0.2082 -0.4858
 4626TIP3    H135437   1.103   1.028   0.735  0.0117 -0.6864  0.1963
 4626TIP3    H235438   0.965   1.091   0.742  0.3575  0.1642 -0.4552
 4627TIP3   OH235439   6.692   0.912   8.764 -0.0514 -0.2582 -0.0922
 4627TIP3    H135440   6.716   0.845   8.828  0.9667 -0.6225 -0.8241
 4627TIP3    H235441   6.774   0.957   8.745 -0.4797  0.3268 -0.5951
 4628TIP3   OH235442   2.421   5.798   1.663 -0.0304  0.4628  0.5135
 4628TIP3    H135443   2.416   5.891   1.682 -0.1696  0.7653 -0.8612
 4628TIP3    H235444   2.350   5.759   1.713 -0.8613  1.2971  0.0045
 4629TIP3   OH235445   6.793   1.309   1.815 -0.1202  0.0454 -0.2246
 4629TIP3    H135446   6.832   1.225   1.838 -1.7798 -0.6665  0.1880
 4629TIP3    H235447   6.866   1.370   1.812  1.0054 -1.2264  0.3643
 4630TIP3   OH235448   0.623   2.147   7.499  0.0955 -0.1454 -0.1176
 4630TIP3    H135449   0.684   2.116   7.433 -0.7508  1.7332 -1.8655
 4630TIP3    H235450   0.550   2.185   7.450 -0.1286  2.2196  1.8426
 4631TIP3   OH235451   4.656   0.135   1.179 -0.4030 -0.2793 -0.3844
 4631TIP3    H135452   4.673   0.209   1.121  1.6591  0.1318  0.6649
 4631TIP3    H235453   4.650   0.060   1.120 -1.9985  0.5982 -1.4110
 4632TIP3   OH235454   3.649   3.393   0.028  0.0905  0.5970 -0.1518
 4632TIP3    H135455   3.657   3.298   0.037 -1.0210  0.4209 -0.7888
 4632TIP3    H235456   3.660   3.409  -0.066  2.2581  1.3419  0.1710
 4633TIP3   OH235457   3.881   5.122   1.989 -0.6719  0.5548  0.2877
 4633TIP3    H135458   3.858   5.141   1.898  2.2806 -0.9869 -0.9310
 4633TIP3    H235459   3.860   5.030   2.000 -0.6332  0.6343  1.0619
 4634TIP3   OH235460   2.131   1.046   0.353 -0.0561 -0.2404 -0.3579
 4634TIP3    H135461   2.096   0.973   0.404  1.1850 -0.6265 -0.0139
 4634TIP3    H235462   2.169   1.105   0.418  0.5456 -0.1844 -0.7516
 4635TIP3   OH235463   3.149   1.382   1.936 -0.4934  0.5412 -0.1256
 4635TIP3    H135464   3.238   1.408   1.959 -0.8161  0.9272  0.7532
 4635TIP3    H235465   3.093   1.443   1.985 -1.2913  2.9830 -3.7113
 4636TIP3   OH235466   3.128   3.966   0.189 -0.1852 -0.1359  0.6561
 4636TIP3    H135467   3.185   4.025   0.141 -1.0160  0.8084  0.8071
 4636TIP3    H235468   3.039   3.989   0.162 -0.5227 -1.5593  0.4413
 4637TIP3   OH235469   4.800   0.608   1.067  0.5115  0.1027  0.6270
 4637TIP3    H135470   4.849   0.646   0.994 -1.2562  0.1797 -0.6124
 4637TIP3    H235471   4.763   0.683   1.113  0.3899  0.0061  0.6881
 4638TIP3   OH235472   2.533   4.383   2.313  0.1610 -0.4104 -0.0181
 4638TIP3    H135473   2.599   4.320   2.341  0.1653  0.4143  2.0278
 4638TIP3    H235474   2.578   4.467   2.317 -1.0829  0.2234  1.8921
 4639TIP3   OH235475   0.315   4.954   2.714  0.1177 -0.4327 -0.4486
 4639TIP3    H135476   0.244   4.896   2.742 -0.5054  0.4363 -0.1903
 4639TIP3    H235477   0.358   4.907   2.643 -0.0100 -1.4664  0.1313
 4640TIP3   OH235478   6.023   5.488   0.004  0.4684  0.1052 -0.0572
 4640TIP3    H135479   5.955   5.425   0.029 -0.0448 -0.6532 -2.9928
 4640TIP3    H235480   6.095   5.433  -0.027  1.4763  0.9647  0.6789
 4641TIP3   OH235481   2.152   5.553   0.280 -0.0620  0.0450 -0.2982
 4641TIP3    H135482   2.116   5.596   0.358 -0.5664  2.5329 -1.7923
 4641TIP3    H235483   2.223   5.498   0.313 -0.1334  1.1583  1.8917
 4642TIP3   OH235484   2.305   4.721   7.556  0.2548 -0.7322  0.2368
 4642TIP3    H135485   2.261   4.684   7.479 -0.7222  0.7139  0.0706
 4642TIP3    H235486   2.237   4.771   7.601  1.2555 -0.1063  1.0876
 4643TIP3   OH235487   6.288   3.170   1.854  0.2565 -0.1496 -0.4285
 4643TIP3    H135488   6.368   3.130   1.887  0.8818 -0.3545 -2.0905
 4643TIP3    H235489   6.283   3.255   1.897  1.7914  0.1845 -0.8628
 4644TIP3   OH235490   5.178   5.111   7.079 -0.2181 -0.0587 -0.4391
 4644TIP3    H135491   5.119   5.122   7.154  0.0583  0.5354 -0.3036
 4644TIP3    H235492   5.123   5.127   7.003 -0.3699 -0.1046 -0.3408
 4645TIP3   OH235493   5.585   2.998   1.010  0.2521  0.0593 -0.1799
 4645TIP3    H135494   5.617   3.075   0.963 -1.6599  0.2425 -1.2954
 4645TIP3    H235495   5.664   2.955   1.042  1.6325  0.5164 -2.6789
 4646TIP3   OH235496   4.953   0.649   0.564  0.0537 -0.3395  0.2996
 4646TIP3    H135497   4.887   0.670   0.631  0.5760  0.5632  0.5607
 4646TIP3    H235498   4.903   0.618   0.489 -0.7020  0.6115  0.3882
 4647TIP3   OH235499   4.064   5.658   1.856  0.5690  0.5340  0.0666
 4647TIP3    H135500   4.092   5.712   1.783 -1.1715  0.6639 -0.5611
 4647TIP3    H235501   4.039   5.721   1.924 -1.2103  0.5768 -0.5700
 4648TIP3   OH235502   5.917   3.610   3.048 -0.1992 -0.3756 -0.0764
 4648TIP3    H135503   5.951   3.679   2.990  0.1616 -2.0719 -2.0238
 4648TIP3    H235504   5.822   3.623   3.047 -0.0654  0.7470  0.4938
 4649TIP3   OH235505   2.418   2.043   2.223 -0.0345  0.5030 -0.0408
 4649TIP3    H135506   2.468   1.985   2.165 -1.6413 -3.1989  1.9484
 4649TIP3    H235507   2.340   2.065   2.173 -0.4743 -1.0151 -0.0726
 4650TIP3   OH235508   4.228   0.262   7.647  0.8428  0.2412 -0.2281
 4650TIP3    H135509   4.177   0.182   7.663  1.3900  0.1507  1.2929
 4650TIP3    H235510   4.164   0.326   7.615  0.1593 -0.4404 -0.2510
 4651TIP3   OH235511   6.203   1.781   8.821 -0.8431  0.3197  0.2917
 4651TIP3    H135512   6.189   1.840   8.748 -1.3682  0.5310  0.5574
 4651TIP3    H235513   6.126   1.792   8.877  0.2857  1.4098  1.7292
 4652TIP3   OH235514   3.049   0.208   7.068  0.0194 -0.2028  0.6170
 4652TIP3    H135515   3.114   0.249   7.125  0.4125 -1.1206  0.8573
 4652TIP3    H235516   3.064   0.114   7.079  0.2638 -0.4148 -1.1923
 4653TIP3   OH235517   5.137   0.794   2.885 -0.0658 -0.6342  0.1136
 4653TIP3    H135518   5.046   0.772   2.905 -0.0155 -0.1785  0.8827
 4653TIP3    H235519   5.135   0.888   2.866  0.0869 -0.8221 -0.8720
 4654TIP3   OH235520   6.209   2.689   1.491 -0.2974  0.4437 -0.0221
 4654TIP3    H135521   6.302   2.684   1.468 -0.5050 -0.6578 -0.7092
 4654TIP3    H235522   6.163   2.665   1.411 -1.2824  3.1003 -0.3466
 4655TIP3   OH235523   6.709   2.395   7.896  1.0773 -0.1610  0.4085
 4655TIP3    H135524   6.731   2.320   7.952  0.7822 -0.7832 -0.2971
 4655TIP3    H235525   6.617   2.413   7.916  1.2240  0.1940  0.7775
 4656TIP3   OH235526   6.233   4.091   8.226 -0.0267  0.2010  0.4779
 4656TIP3    H135527   6.183   4.019   8.188 -0.0311  0.6543 -0.4048
 4656TIP3    H235528   6.261   4.059   8.312  0.9228 -1.2584 -0.3482
 4657TIP3   OH235529   2.255   5.315   0.962 -0.2814  0.0053 -0.5054
 4657TIP3    H135530   2.189   5.261   0.917 -0.8649  0.2885 -0.0127
 4657TIP3    H235531   2.289   5.259   1.032 -0.8992  0.2665  0.0168
 4658TIP3   OH235532   3.737   4.591   2.215 -0.0809  0.0355 -0.1198
 4658TIP3    H135533   3.753   4.536   2.292 -0.6709  1.2110  0.8838
 4658TIP3    H235534   3.680   4.661   2.247  0.9266  1.4421 -1.2567
 4659TIP3   OH235535   5.750   4.299   6.771 -0.3449  0.7129  0.0076
 4659TIP3    H135536   5.676   4.240   6.754 -1.3377  2.0775 -0.6610
 4659TIP3    H235537   5.710   4.372   6.818  0.8937  0.7728  0.9909
 4660TIP3   OH235538   6.679   5.484   7.359 -0.4755 -0.1941  0.3144
 4660TIP3    H135539   6.681   5.578   7.340  0.1715 -0.2189  0.2556
 4660TIP3    H235540   6.769   5.455   7.348 -1.1760 -1.5389 -3.2339
 4661TIP3   OH235541   2.355   0.791   8.576 -0.2504  0.0414 -1.0619
 4661TIP3    H135542   2.330   0.842   8.499  0.7873  0.2618 -1.2578
 4661TIP3    H235543   2.450   0.796   8.579 -0.2617 -0.1485  0.1134
 4662TIP3   OH235544   2.890   0.194   2.510  0.0646 -0.0333  0.3360
 4662TIP3    H135545   2.931   0.170   2.426 -1.3309 -0.5598 -0.2294
 4662TIP3    H235546   2.949   0.159   2.576  0.5729 -0.6974 -0.4491
 4663TIP3   OH235547   4.816   6.104   0.968 -0.2477 -0.3254 -0.2358
 4663TIP3    H135548   4.786   6.083   1.057  0.3496 -2.0598 -0.4164
 4663TIP3    H235549   4.903   6.140   0.980 -0.6478  0.6081 -0.0441
 4664TIP3   OH235550   4.076   1.197   6.869  0.7052 -0.4801  0.0222
 4664TIP3    H135551   4.126   1.215   6.949 -1.3733 -0.1101  1.3103
 4664TIP3    H235552   4.095   1.271   6.812  1.8227 -0.4867  0.3607
 4665TIP3   OH235553   2.334   5.437   1.823  0.3476 -0.1921 -0.1086
 4665TIP3    H135554   2.382   5.356   1.808  2.5164  1.0910 -0.4904
 4665TIP3    H235555   2.307   5.465   1.736 -2.2228 -1.4664  0.1836
 4666TIP3   OH235556   4.289   0.933   0.621  0.2571  1.2407 -0.1403
 4666TIP3    H135557   4.250   0.950   0.707 -0.2522  1.1066 -0.3448
 4666TIP3    H235558   4.336   0.850   0.633  1.3649  1.9177  0.3944
 4667TIP3   OH235559   4.961   4.206   7.873 -0.6563  0.1294  0.2146
 4667TIP3    H135560   4.953   4.246   7.960 -0.6654 -1.6871  1.0966
 4667TIP3    H235561   4.872   4.179   7.850 -0.2993 -1.7373  0.8570
 4668TIP3   OH235562   4.676   1.248   1.719 -0.2910 -0.2823 -0.3640
 4668TIP3    H135563   4.653   1.339   1.737 -0.8958 -0.7457  1.3988
 4668TIP3    H235564   4.600   1.213   1.672 -0.0316  0.1193 -1.0965
 4669TIP3   OH235565   3.979   0.530   8.725 -0.8001  0.2187  0.5444
 4669TIP3    H135566   3.998   0.593   8.794  0.8948 -0.2678  0.5770
 4669TIP3    H235567   4.039   0.457   8.741 -0.2534  0.1409 -1.4761
 4670TIP3   OH235568   4.290   1.675   0.449 -0.2866  0.1579 -0.7325
 4670TIP3    H135569   4.203   1.700   0.479  0.4660  0.2042  1.5618
 4670TIP3    H235570   4.345   1.679   0.527  1.9858  0.9502 -2.2740
 4671TIP3   OH235571   2.679   4.171   8.034  0.2341 -0.0640 -0.2886
 4671TIP3    H135572   2.626   4.177   8.114  0.2878  0.3237 -0.2775
 4671TIP3    H235573   2.769   4.181   8.065  0.2935 -0.4124 -0.3434
 4672TIP3   OH235574   4.577   0.024   8.537 -0.3149  0.1242 -0.6980
 4672TIP3    H135575   4.645   0.049   8.475 -0.7012 -1.3590 -1.7708
 4672TIP3    H235576   4.621   0.022   8.622  0.6939  0.3166 -1.2015
 4673TIP3   OH235577   3.920   2.904   1.017 -0.3717 -0.0166  0.6021
 4673TIP3    H135578   3.844   2.897   1.075 -1.5985 -0.2308 -0.9765
 4673TIP3    H235579   3.933   2.815   0.985  1.1617 -0.1738  1.5668
 4674TIP3   OH235580   1.724   4.263   8.206  0.4363  0.0424 -0.0486
 4674TIP3    H135581   1.758   4.338   8.254  0.3652 -0.6184  1.0527
 4674TIP3    H235582   1.797   4.235   8.150  0.6362  0.5894 -0.0677
 4675TIP3   OH235583   3.140   5.027   8.251 -0.5039  0.7037 -0.4312
 4675TIP3    H135584   3.173   5.038   8.162 -1.7637  0.4466 -0.9494
 4675TIP3    H235585   3.219   5.012   8.304  0.1930  0.0393 -1.6119
 4676TIP3   OH235586   2.547   3.381   3.132  0.3320  0.2020 -0.0619
 4676TIP3    H135587   2.503   3.374   3.217 -1.1898 -1.6617 -0.9420
 4676TIP3    H235588   2.533   3.472   3.106 -0.3107  0.4556  1.0830
 4677TIP3   OH235589   4.351   5.537   7.780  0.1633 -0.2454 -0.2309
 4677TIP3    H135590   4.412   5.464   7.795  0.4356 -0.1599 -0.9150
 4677TIP3    H235591   4.326   5.529   7.688 -1.8036 -0.9956  0.3137
 4678TIP3   OH235592   5.067   5.667   2.923 -0.1012  0.1719 -0.3250
 4678TIP3    H135593   5.004   5.595   2.928  0.1256  0.0405  0.9034
 4678TIP3    H235594   5.132   5.637   2.859 -0.2044 -0.5490 -0.0979
 4679TIP3   OH235595   0.424   5.971   7.762 -0.3036 -0.3546 -0.1058
 4679TIP3    H135596   0.387   5.890   7.726 -0.4511 -1.3847  2.2008
 4679TIP3    H235597   0.507   5.982   7.715  0.2453 -2.4727  0.2724
 4680TIP3   OH235598   0.876   4.595   7.123 -0.4570  0.1203  0.0765
 4680TIP3    H135599   0.962   4.566   7.095 -0.5316  0.0142 -0.0421
 4680TIP3    H235600   0.815   4.552   7.063 -0.6409 -0.3756  0.6008
 4681TIP3   OH235601   4.693   6.630   2.208  0.1400  0.2677  0.2482
 4681TIP3    H135602   4.766   6.594   2.258  0.8954 -0.0143 -1.0163
 4681TIP3    H235603   4.712   6.723   2.200  0.7622  0.0819 -0.6767
 4682TIP3   OH235604   2.396   5.527   7.877  0.7613  0.1606 -0.2119
 4682TIP3    H135605   2.301   5.512   7.881  0.7745  0.2748  0.7145
 4682TIP3    H235606   2.430   5.452   7.829 -0.0430  1.3084 -2.7508
 4683TIP3   OH235607   6.503   5.223   8.306 -0.2346 -0.1256  0.6234
 4683TIP3    H135608   6.567   5.158   8.275  1.4064  2.1900 -1.2004
 4683TIP3    H235609   6.421   5.197   8.263  0.6146 -0.4619 -0.8598
 4684TIP3   OH235610   3.425   4.861   0.278  0.3376 -0.1475 -0.4548
 4684TIP3    H135611   3.402   4.904   0.360  0.0363 -0.5942 -0.3004
 4684TIP3    H235612   3.506   4.903   0.251 -0.4523  1.1957 -0.8132
 4685TIP3   OH235613   1.583   5.059   1.249  0.2335  0.0425  0.9749
 4685TIP3    H135614   1.516   4.994   1.269 -0.2515  0.2128 -0.0431
 4685TIP3    H235615   1.647   5.013   1.195 -0.8527  0.7402 -0.9852
 4686TIP3   OH235616   0.681   1.656   6.442 -0.2648  0.0228 -0.0855
 4686TIP3    H135617   0.761   1.613   6.412  0.4026  0.0005  1.6387
 4686TIP3    H235618   0.636   1.590   6.495 -1.3692  0.0875 -0.8988
 4687TIP3   OH235619   5.525   4.128   1.768  0.3289 -0.1813 -0.9276
 4687TIP3    H135620   5.549   4.215   1.801  1.9528 -1.2421  0.8634
 4687TIP3    H235621   5.577   4.117   1.689 -0.9921  1.0084 -2.0257
 4688TIP3   OH235622   6.598   5.442   1.717  0.2877  0.1857  0.5938
 4688TIP3    H135623   6.551   5.467   1.637 -2.4343 -1.0656  1.6810
 4688TIP3    H235624   6.689   5.436   1.690 -0.5350 -0.3735 -2.4770
 4689TIP3   OH235625   6.075   4.093   1.490 -0.5061 -0.4746 -0.3929
 4689TIP3    H135626   5.992   4.139   1.502 -0.3405  0.1322 -1.4114
 4689TIP3    H235627   6.137   4.162   1.466  0.1300 -1.0120 -0.3147
 4690TIP3   OH235628   0.622   1.858   1.766 -0.4240 -0.2413 -0.0596
 4690TIP3    H135629   0.647   1.946   1.797 -2.9937  0.4245  0.3493
 4690TIP3    H235630   0.608   1.869   1.672  1.8321 -0.9158 -0.5360
 4691TIP3   OH235631   2.774   4.934   7.679 -0.1521  0.1207  0.4166
 4691TIP3    H135632   2.684   4.908   7.701 -0.5299 -0.3295 -1.4596
 4691TIP3    H235633   2.801   4.871   7.611  1.3608  0.6249  0.5167
 4692TIP3   OH235634   2.488   0.975   7.594 -0.5071 -0.0906  0.1626
 4692TIP3    H135635   2.399   1.006   7.579 -0.6114 -0.1196  0.7044
 4692TIP3    H235636   2.531   1.047   7.641 -0.4165 -0.3047  0.4100
 4693TIP3   OH235637   0.607   2.679   3.179 -0.1184  0.0994 -0.3155
 4693TIP3    H135638   0.634   2.762   3.219 -1.5832 -0.2795  1.6395
 4693TIP3    H235639   0.513   2.672   3.199 -0.0756 -1.9295 -0.6039
 4694TIP3   OH235640   2.720   3.096   0.479  0.8131  0.0746  0.0763
 4694TIP3    H135641   2.732   3.015   0.430 -0.6374 -1.4347  2.0718
 4694TIP3    H235642   2.763   3.163   0.425  1.0873 -1.7909 -2.1890
 4695TIP3   OH235643   0.225   1.155   1.473 -0.0466  0.2601 -0.0280
 4695TIP3    H135644   0.268   1.126   1.554 -0.7229 -3.0893 -0.7364
 4695TIP3    H235645   0.284   1.127   1.403 -0.0717  2.0002 -0.7833
 4696TIP3   OH235646   0.736   0.169   2.857  0.0097  0.3743 -0.3078
 4696TIP3    H135647   0.715   0.078   2.877 -2.3200  1.2412  1.7228
 4696TIP3    H235648   0.816   0.186   2.907 -0.7626 -0.0186  1.1428
 4697TIP3   OH235649   3.935   2.778   8.317  0.4215 -0.1596 -0.4436
 4697TIP3    H135650   3.912   2.712   8.383 -0.6698 -0.8866 -1.5116
 4697TIP3    H235651   3.884   2.855   8.341 -0.2317 -0.5311 -0.6273
 4698TIP3   OH235652   3.190   5.027   2.339  0.2385  0.1975  0.4437
 4698TIP3    H135653   3.136   5.100   2.367  0.1850  0.0600  0.7031
 4698TIP3    H235654   3.252   5.065   2.277 -0.0979  0.3715  0.2093
 4699TIP3   OH235655   0.009   6.727   1.795  0.2097  0.3310 -0.1073
 4699TIP3    H135656   0.032   6.722   1.702  1.4283 -1.0070  0.2225
 4699TIP3    H235657  -0.064   6.666   1.806 -0.0917  0.6663 -0.2105
 4700TIP3   OH235658   6.637   0.956   1.931 -0.3281  0.4294 -0.3113
 4700TIP3    H135659   6.712   0.897   1.940 -1.2957 -0.5677  1.8736
 4700TIP3    H235660   6.638   1.009   2.010 -2.3190 -0.1275  0.1336
 4701TIP3   OH235661   0.672   6.017   0.475  0.6905 -0.3092  0.1661
 4701TIP3    H135662   0.616   6.028   0.399 -0.1764  0.0865  0.8420
 4701TIP3    H235663   0.637   6.077   0.540  1.8118 -0.1637  0.6701
 4702TIP3   OH235664   5.434   1.694   1.955  0.2307 -0.6688  0.0231
 4702TIP3    H135665   5.425   1.784   1.988  1.6794 -0.9004  1.1630
 4702TIP3    H235666   5.365   1.645   2.001  0.2227 -0.3742  0.3315
 4703TIP3   OH235667   5.985   5.401   0.340  0.2843 -0.4263 -0.1221
 4703TIP3    H135668   5.943   5.350   0.271  1.3636 -1.4714 -0.0458
 4703TIP3    H235669   5.914   5.426   0.398 -0.9806  2.1654 -2.5441
 4704TIP3   OH235670   6.674   2.936   7.772  0.7208 -0.0577  0.2482
 4704TIP3    H135671   6.622   2.878   7.716  0.5945 -0.8996  1.1900
 4704TIP3    H235672   6.717   2.996   7.712  2.8648 -2.6763 -1.0604
 4705TIP3   OH235673   2.911   3.340   0.851 -0.1642 -0.1963  0.0300
 4705TIP3    H135674   2.975   3.335   0.779  0.4501 -2.8554  0.6476
 4705TIP3    H235675   2.848   3.407   0.823  1.0609  0.1452 -2.1229
 4706TIP3   OH235676   5.634   0.782   8.200 -0.3801  0.1753 -0.0389
 4706TIP3    H135677   5.605   0.714   8.261  1.7931 -0.3621  0.4665
 4706TIP3    H235678   5.712   0.820   8.240  0.3428  0.7361 -1.8455
 4707TIP3   OH235679   1.151   3.716   2.143 -0.2207 -0.2008  0.5136
 4707TIP3    H135680   1.117   3.763   2.067 -0.5880 -0.7759  0.3181
 4707TIP3    H235681   1.135   3.775   2.217 -1.7477 -0.4988  0.4459
 4708TIP3   OH235682   6.276   3.698   2.017 -0.1603 -0.7456  0.2660
 4708TIP3    H135683   6.198   3.726   2.065 -1.0210 -1.6877 -0.5369
 4708TIP3    H235684   6.348   3.710   2.079 -1.2872 -2.3240  1.9783
 4709TIP3   OH235685   5.075   4.628   7.402 -0.5614  0.5807 -0.6937
 4709TIP3    H135686   5.111   4.711   7.371  0.6692  0.4834  0.3762
 4709TIP3    H235687   4.980   4.637   7.391 -0.3285  1.3789 -2.3396
 4710TIP3   OH235688   1.219   5.080   2.462 -0.2938  0.0933  0.6270
 4710TIP3    H135689   1.288   5.083   2.529 -0.3322  1.6022  0.6185
 4710TIP3    H235690   1.161   5.153   2.484 -0.5231  0.3736 -0.8199
 4711TIP3   OH235691   1.796   0.859   8.169  0.5010  0.3934  0.2002
 4711TIP3    H135692   1.891   0.871   8.162  0.5250  0.1126 -0.0300
 4711TIP3    H235693   1.782   0.769   8.137  0.3271 -0.1289  1.6740
 4712TIP3   OH235694   0.430   1.440   8.320 -0.0419 -0.2070 -0.1255
 4712TIP3    H135695   0.443   1.398   8.235  0.6650  1.2319 -0.7701
 4712TIP3    H235696   0.337   1.460   8.324 -0.2214 -1.0174 -0.1970
 4713TIP3   OH235697   1.303   2.564   1.325 -0.3284 -0.5140 -0.1960
 4713TIP3    H135698   1.350   2.644   1.302 -0.7713  0.2440  1.4404
 4713TIP3    H235699   1.257   2.540   1.244  0.3684  0.4676 -0.9162
 4714TIP3   OH235700   6.339   5.376   0.138  0.4230 -0.3583 -0.2830
 4714TIP3    H135701   6.305   5.465   0.147  0.1359 -0.3622 -1.2350
 4714TIP3    H235702   6.429   5.388   0.108  0.6072 -0.3867  0.2423
 4715TIP3   OH235703   5.664   4.177   7.457  0.0434 -0.1502  0.8419
 4715TIP3    H135704   5.729   4.247   7.463 -0.1207  0.2418 -1.2315
 4715TIP3    H235705   5.697   4.119   7.389 -0.7975 -1.0256  1.1648
 4716TIP3   OH235706   5.357   3.140   0.640  0.0639 -0.4919  0.4134
 4716TIP3    H135707   5.291   3.209   0.651 -0.5019 -0.5950 -1.8671
 4716TIP3    H235708   5.313   3.061   0.670 -0.3062 -0.3044  0.3712
 4717TIP3   OH235709   5.929   1.396   8.391 -0.0342 -0.3685  0.2976
 4717TIP3    H135710   5.966   1.309   8.401 -2.9532 -1.5380  2.1800
 4717TIP3    H235711   5.995   1.445   8.341  1.2392 -3.9153 -1.8567
 4718TIP3   OH235712   5.998   6.528   1.196 -0.0190  0.1985 -0.5487
 4718TIP3    H135713   5.907   6.508   1.218  0.7479 -1.9009  1.0188
 4718TIP3    H235714   6.018   6.471   1.122  0.8362 -1.6426  1.0216
 4719TIP3   OH235715   3.702   2.068   8.293 -0.2317  0.1177  0.3381
 4719TIP3    H135716   3.713   2.131   8.222 -0.5698 -0.9178 -0.6486
 4719TIP3    H235717   3.627   2.102   8.343 -0.8182  0.1579 -0.5554
 4720TIP3   OH235718   0.521   4.336   6.912 -0.0382 -0.0986 -0.1606
 4720TIP3    H135719   0.472   4.369   6.987  0.2560 -0.4031  0.1650
 4720TIP3    H235720   0.475   4.256   6.887  1.0631 -1.1097  0.9725
 4721TIP3   OH235721   5.151   3.251   2.256 -0.3338  0.6122  0.5905
 4721TIP3    H135722   5.077   3.276   2.311  0.4877 -1.9343  3.0583
 4721TIP3    H235723   5.224   3.303   2.289 -0.0867 -0.0911  1.1661
 4722TIP3   OH235724   3.913   5.861   7.130 -0.2352 -0.1101  0.6311
 4722TIP3    H135725   3.979   5.926   7.106  0.2217 -0.2648  1.4137
 4722TIP3    H235726   3.964   5.782   7.151 -0.7027 -0.3832  0.7504
 4723TIP3   OH235727   5.781   2.380   0.338  0.4960  0.1043 -0.0410
 4723TIP3    H135728   5.835   2.358   0.414 -0.3179 -0.5162  0.3746
 4723TIP3    H235729   5.843   2.419   0.275  1.0209  1.4909  1.2793
 4724TIP3   OH235730   5.111   6.320   1.418  0.5349 -0.6968  0.3117
 4724TIP3    H135731   5.087   6.383   1.486 -1.3072  0.3793 -1.2221
 4724TIP3    H235732   5.137   6.374   1.343 -0.2274 -1.7475 -0.7557
 4725TIP3   OH235733   0.476   6.369   0.982 -0.2767 -0.1524 -0.1457
 4725TIP3    H135734   0.428   6.355   1.064  0.5885 -2.9762 -0.0298
 4725TIP3    H235735   0.408   6.384   0.917 -1.0634  0.2821  0.7465
 4726TIP3   OH235736   3.214   1.526   0.033 -0.3011  0.4754 -0.0489
 4726TIP3    H135737   3.253   1.574  -0.040 -0.7830 -0.4794 -0.9558
 4726TIP3    H235738   3.206   1.436   0.001  0.8135 -0.2971  1.6892
 4727TIP3   OH235739   0.536   4.524   8.814 -0.2138  0.2814  0.4000
 4727TIP3    H135740   0.455   4.576   8.815  0.3819  1.2611 -0.4726
 4727TIP3    H235741   0.601   4.580   8.855  0.4765  0.2970 -0.6923
 4728TIP3   OH235742   4.853   4.289   3.027  0.1675 -0.0471 -0.0568
 4728TIP3    H135743   4.938   4.256   2.998  0.9453  1.5179  0.3472
 4728TIP3    H235744   4.864   4.384   3.031 -0.8878  0.0543  2.1676
 4729TIP3   OH235745   1.975   4.388   2.254  0.0277 -0.2333 -0.1577
 4729TIP3    H135746   2.055   4.357   2.211 -1.3844 -0.5985 -2.7028
 4729TIP3    H235747   2.002   4.467   2.300  1.6743  0.2168 -1.7690
 4730TIP3   OH235748   5.599   1.793   1.430 -0.3106  0.2641  0.0456
 4730TIP3    H135749   5.617   1.862   1.494  0.2171  1.5010 -1.3767
 4730TIP3    H235750   5.604   1.712   1.480  0.6259  1.1543  1.4547
 4731TIP3   OH235751   0.757   3.480   1.765 -0.1601  0.4930 -0.6141
 4731TIP3    H135752   0.726   3.478   1.674  0.0484 -0.0017 -0.6773
 4731TIP3    H235753   0.846   3.515   1.759 -1.3070  3.8996 -0.2362
 4732TIP3   OH235754   1.501   6.718   7.995 -0.4283 -0.0141  0.0390
 4732TIP3    H135755   1.427   6.665   8.025 -0.9726  0.9317  0.3877
 4732TIP3    H235756   1.556   6.728   8.072  0.7144 -1.7366 -0.5048
 4733TIP3   OH235757   0.829   4.545   2.090 -0.2121  0.5489  0.2964
 4733TIP3    H135758   0.801   4.517   2.178 -0.2774 -0.5453 -0.0536
 4733TIP3    H235759   0.901   4.485   2.068 -0.3554  0.6587 -0.4923
 4734TIP3   OH235760   5.302   0.325   0.181 -0.2447 -0.5981  0.4260
 4734TIP3    H135761   5.251   0.348   0.103  0.4345 -0.3536  0.0514
 4734TIP3    H235762   5.375   0.386   0.181 -0.2798 -0.5483  1.3038
 4735TIP3   OH235763   0.657   0.067   1.557 -0.0398 -0.1154  0.3498
 4735TIP3    H135764   0.732   0.126   1.563 -0.4662  0.3709  1.0908
 4735TIP3    H235765   0.686  -0.003   1.498  0.5198  0.7624 -0.4392
 4736TIP3   OH235766   0.447   0.297   2.712  0.3508 -0.0180  1.0281
 4736TIP3    H135767   0.430   0.330   2.624  0.2721 -1.3426  0.5203
 4736TIP3    H235768   0.464   0.375   2.764 -0.4353  0.8534  0.0269
 4737TIP3   OH235769   2.561   3.628   0.033  0.0961  0.6154 -0.2754
 4737TIP3    H135770   2.515   3.701  -0.008 -1.7513  0.0465  0.6833
 4737TIP3    H235771   2.543   3.638   0.127  0.8267 -0.4135 -0.0087
 4738TIP3   OH235772   4.707   0.597   2.502 -0.0236 -0.5339 -0.5054
 4738TIP3    H135773   4.705   0.544   2.581  1.4840 -1.4411 -1.0281
 4738TIP3    H235774   4.795   0.633   2.499 -1.7768  4.9681  1.6129
 4739TIP3   OH235775   0.066   1.183   8.583  0.0139  0.2601 -0.4402
 4739TIP3    H135776   0.065   1.251   8.651 -1.5630  0.0363 -0.2163
 4739TIP3    H235777   0.076   1.232   8.501 -2.3546  0.9235 -0.3965
 4740TIP3   OH235778   2.257   0.981   2.377  0.4532  0.0123 -0.2694
 4740TIP3    H135779   2.218   0.932   2.450 -1.5828 -1.1305 -2.0151
 4740TIP3    H235780   2.232   1.072   2.393  0.9707 -0.0430  0.9850
 4741TIP3   OH235781   2.224   4.873   7.868  0.5102 -0.7725  0.3229
 4741TIP3    H135782   2.157   4.922   7.916  1.0070 -0.6128  0.8620
 4741TIP3    H235783   2.178   4.837   7.792 -0.2766 -1.0037  0.9019
 4742TIP3   OH235784   0.608   4.117   0.680  0.1368  0.1118  0.2211
 4742TIP3    H135785   0.686   4.157   0.642 -0.9304  1.4137 -0.7114
 4742TIP3    H235786   0.542   4.124   0.611 -0.3201 -2.7394  0.2452
 4743TIP3   OH235787   5.786   3.724   6.939 -0.2297 -0.0586 -0.0274
 4743TIP3    H135788   5.863   3.733   6.882 -0.5836 -0.7961 -0.6463
 4743TIP3    H235789   5.810   3.657   7.002 -0.3055 -0.1831 -0.1293
 4744TIP3   OH235790   3.321   1.137   7.126  0.4414  0.0197  0.2768
 4744TIP3    H135791   3.284   1.199   7.188 -0.4206 -1.2690  1.0920
 4744TIP3    H235792   3.281   1.159   7.042  2.1758  2.2508 -0.0591
 4745TIP3   OH235793   4.618   2.413   7.826  0.4268 -0.8840 -0.5600
 4745TIP3    H135794   4.591   2.422   7.918  0.4509 -0.6861 -0.5723
 4745TIP3    H235795   4.597   2.497   7.786  1.8449 -0.3980 -0.3664
 4746TIP3   OH235796   0.258   6.417   1.818  0.1295  0.2634 -0.2935
 4746TIP3    H135797   0.227   6.338   1.863 -1.5854  0.2981 -1.3339
 4746TIP3    H235798   0.198   6.486   1.848  0.2203  0.6964 -1.0999
 4747TIP3   OH235799   1.704   2.463   0.433  0.2515 -0.5462  0.1302
 4747TIP3    H135800   1.671   2.405   0.365 -0.5832 -1.6580  1.4216
 4747TIP3    H235801   1.675   2.550   0.407  0.4734 -0.8456 -1.2162
 4748TIP3   OH235802   2.333   5.818   8.698  0.0530  0.1380  0.4042
 4748TIP3    H135803   2.301   5.787   8.783 -0.3270 -0.9051 -0.1043
 4748TIP3    H235804   2.420   5.779   8.690 -1.0385 -2.2906 -0.9431
 4749TIP3   OH235805   3.602   2.217   0.476 -0.5783  0.1109 -0.0697
 4749TIP3    H135806   3.542   2.247   0.408 -1.8982 -0.5193  0.7856
 4749TIP3    H235807   3.562   2.247   0.558  0.6414  0.2775  0.4817
 4750TIP3   OH235808   5.792   2.594   1.924  0.1631 -0.0842  0.1565
 4750TIP3    H135809   5.807   2.635   2.009 -0.8210  1.5586 -0.4158
 4750TIP3    H235810   5.741   2.516   1.943 -0.1407  0.3316  1.0722
 4751TIP3   OH235811   4.677   6.252   7.303 -0.8647 -0.2158 -0.3680
 4751TIP3    H135812   4.750   6.263   7.242  1.2060  0.9316  2.1062
 4751TIP3    H235813   4.631   6.336   7.301 -0.1952  0.1785  0.3260
 4752TIP3   OH235814   2.359   5.629   8.373  0.5755  0.1288 -0.0107
 4752TIP3    H135815   2.383   5.547   8.416  0.0582 -0.2065 -0.3490
 4752TIP3    H235816   2.289   5.605   8.313 -1.5504  1.2802  1.8509
 4753TIP3   OH235817   0.139   4.821   8.621  0.2721 -0.5196 -0.7158
 4753TIP3    H135818   0.157   4.859   8.535 -2.0594  0.6340 -0.7615
 4753TIP3    H235819   0.083   4.746   8.603  0.5132 -0.8192 -0.2441
 4754TIP3   OH235820   2.985   2.070   1.008  0.1519  0.5975  0.0661
 4754TIP3    H135821   3.020   2.138   1.066  2.0538  1.5548 -2.0618
 4754TIP3    H235822   3.048   1.999   1.014 -0.3200  0.1835  0.1342
 4755TIP3   OH235823   3.953   3.824   7.637 -0.1455 -0.4215 -0.2470
 4755TIP3    H135824   3.972   3.781   7.720  0.9347  1.7059  0.6950
 4755TIP3    H235825   3.878   3.776   7.601 -0.3882 -1.6398  1.7573
 4756TIP3   OH235826   0.785   0.980   0.509  0.4587 -0.1911  0.0251
 4756TIP3    H135827   0.777   0.888   0.535  0.8760 -0.3665 -0.4420
 4756TIP3    H235828   0.877   0.990   0.486 -0.0118 -0.2466 -2.0693
 4757TIP3   OH235829   0.793   0.645   1.183 -0.2227  0.3407 -0.0422
 4757TIP3    H135830   0.700   0.643   1.160 -0.5139 -0.4080  1.0868
 4757TIP3    H235831   0.825   0.727   1.147 -1.1705  0.3093 -1.0045
 4758TIP3   OH235832   2.784   5.607   8.624 -0.2166  0.0098 -0.1638
 4758TIP3    H135833   2.723   5.631   8.693  0.5435  1.4046  0.0509
 4758TIP3    H235834   2.765   5.668   8.552  1.0389  0.6122 -0.0112
 4759TIP3   OH235835   4.131   0.821   0.837  0.8192 -0.1244 -0.3491
 4759TIP3    H135836   4.084   0.792   0.759  2.4724 -2.3468 -0.6076
 4759TIP3    H235837   4.127   0.746   0.897 -0.1829  1.4287  1.6713
 4760TIP3   OH235838   5.675   1.949   3.251 -0.2074 -0.3760 -0.6528
 4760TIP3    H135839   5.598   1.931   3.304  0.0914  1.2700  0.4290
 4760TIP3    H235840   5.641   1.985   3.170 -0.5973  0.6553 -0.0480
 4761TIP3   OH235841   5.745   6.351   7.214  0.1220 -0.1885  1.1094
 4761TIP3    H135842   5.716   6.297   7.141 -1.3723  0.5484  1.1091
 4761TIP3    H235843   5.683   6.424   7.216  1.6911  1.2000  1.4986
 4762TIP3   OH235844   1.041   2.550   0.552 -0.1175  0.2289  0.0582
 4762TIP3    H135845   1.043   2.564   0.647 -0.6656 -1.2206  0.3049
 4762TIP3    H235846   0.950   2.528   0.532 -0.1716  1.2712 -0.9421
 4763TIP3   OH235847   3.593   2.256   7.322  0.3017  0.1883 -0.3999
 4763TIP3    H135848   3.577   2.295   7.408 -0.4317 -1.3914  0.2096
 4763TIP3    H235849   3.537   2.306   7.262  0.8063  1.2852  0.0106
 4764TIP3   OH235850   5.456   3.419   0.426 -0.0540  0.8774  0.6004
 4764TIP3    H135851   5.480   3.386   0.339  2.0242 -0.8203  1.7536
 4764TIP3    H235852   5.384   3.362   0.454  0.7598 -0.0283  0.8824
 4765TIP3   OH235853   4.065   4.224   2.124  0.4425 -0.2365 -0.0116
 4765TIP3    H135854   4.135   4.215   2.060  0.9263  0.9679  0.3244
 4765TIP3    H235855   3.991   4.178   2.085  0.8297  0.1694 -1.2656
 4766TIP3   OH235856   2.729   6.682   8.757  0.3044 -0.3355  0.1896
 4766TIP3    H135857   2.729   6.647   8.668 -1.6227  0.3945 -0.1671
 4766TIP3    H235858   2.755   6.774   8.746  0.4618 -0.3540  0.4198
 4767TIP3   OH235859   2.636   3.777   1.489 -0.8227 -0.0936  0.4971
 4767TIP3    H135860   2.693   3.819   1.553 -0.4786  0.5381 -0.2077
 4767TIP3    H235861   2.547   3.794   1.521 -0.7732  2.4238 -0.4657
 4768TIP3   OH235862   4.091   1.332   2.301  0.1943  0.1837 -0.6726
 4768TIP3    H135863   4.123   1.282   2.376 -1.5558  0.2802  0.1911
 4768TIP3    H235864   4.005   1.294   2.281  0.4804  0.3800 -2.4351
 4769TIP3   OH235865   1.448   3.777   2.057 -0.2473 -0.2326 -0.2132
 4769TIP3    H135866   1.428   3.778   1.963 -0.1984 -1.1176 -0.2433
 4769TIP3    H235867   1.364   3.759   2.099 -0.2531  0.0777 -0.0960
 4770TIP3   OH235868   1.231   0.767   7.364 -0.6591 -0.0542 -0.0247
 4770TIP3    H135869   1.239   0.862   7.377  1.2192 -0.3232  1.2856
 4770TIP3    H235870   1.256   0.753   7.273 -1.6049  0.7602 -0.4251
 4771TIP3   OH235871   4.552   1.585   8.127 -0.3931 -0.6913 -0.0244
 4771TIP3    H135872   4.464   1.548   8.114  0.1972 -2.3413  0.4203
 4771TIP3    H235873   4.572   1.567   8.218 -0.6375  2.1599  0.6818
 4772TIP3   OH235874   5.406   5.983   7.772 -0.2238 -0.4879 -0.2782
 4772TIP3    H135875   5.439   5.893   7.777 -0.7463 -0.6756 -0.2088
 4772TIP3    H235876   5.433   6.023   7.855  1.4973 -0.0606 -1.0013
 4773TIP3   OH235877   4.425   4.060   8.601  0.5036 -0.1829 -0.4417
 4773TIP3    H135878   4.428   4.020   8.514  2.0880 -0.7020 -0.1832
 4773TIP3    H235879   4.367   4.135   8.592  0.0944 -0.6369 -1.7645
 4774TIP3   OH235880   0.450   0.411   8.092 -0.3298  0.5745  0.3870
 4774TIP3    H135881   0.404   0.462   8.025 -1.0621 -0.9547 -0.3427
 4774TIP3    H235882   0.541   0.408   8.062 -0.7043 -0.3681 -0.7853
 4775TIP3   OH235883   6.093   0.610   0.364  0.3860 -0.3011 -0.5085
 4775TIP3    H135884   6.056   0.695   0.338 -1.4055 -1.3566 -1.6287
 4775TIP3    H235885   6.181   0.631   0.394  0.7551  1.7228 -2.6756
 4776TIP3   OH235886   3.694   5.599   7.760  0.1437  0.3061  0.3503
 4776TIP3    H135887   3.676   5.540   7.833 -0.2766  2.0442  1.7094
 4776TIP3    H235888   3.699   5.686   7.799 -1.1669  1.4648 -1.8358
 4777TIP3   OH235889   6.176   1.890   8.587  0.5045  0.1070 -0.2276
 4777TIP3    H135890   6.096   1.905   8.538 -0.5668  0.0380  1.4238
 4777TIP3    H235891   6.246   1.900   8.522 -0.6896  2.3560 -1.2872
 4778TIP3   OH235892   4.382   6.741   3.042 -0.0326 -0.1774 -0.5169
 4778TIP3    H135893   4.355   6.806   3.107  0.9145 -0.4332  0.1522
 4778TIP3    H235894   4.364   6.656   3.084  0.4100 -0.3449 -0.6549
 4779TIP3   OH235895   4.075   5.109   0.339 -0.0775  0.6639 -0.3626
 4779TIP3    H135896   4.037   5.067   0.416 -0.5956  2.8678  0.6615
 4779TIP3    H235897   4.098   5.036   0.281 -2.3909 -0.9332  0.5822
 4780TIP3   OH235898   4.591   2.748   8.102  0.3163 -0.8431  0.1720
 4780TIP3    H135899   4.528   2.786   8.163  0.7288  0.7607 -0.3717
 4780TIP3    H235900   4.669   2.801   8.112  2.4785 -4.0720  2.4194
 4781TIP3   OH235901   2.263   4.057   8.085  0.1573  0.4963  0.0093
 4781TIP3    H135902   2.204   4.010   8.144  0.7257 -1.0520 -0.6128
 4781TIP3    H235903   2.317   4.112   8.143 -1.0662  1.0337  0.6770
 4782TIP3   OH235904   5.311   5.995   7.135 -0.4157 -0.7337  0.1301
 4782TIP3    H135905   5.333   5.975   7.044  0.3188 -1.6231  0.4852
 4782TIP3    H235906   5.305   5.909   7.178 -0.4685 -0.3146  0.9887
 4783TIP3   OH235907   4.211   0.632   7.752  0.4400 -0.3679 -0.7276
 4783TIP3    H135908   4.207   0.713   7.804 -0.0227  0.4715 -2.0063
 4783TIP3    H235909   4.120   0.616   7.727  0.7102 -0.4239 -1.7317
 4784TIP3   OH235910   6.800   0.942   2.304 -0.3377  0.1329 -0.4603
 4784TIP3    H135911   6.714   0.906   2.281 -1.2799  1.7722  0.2948
 4784TIP3    H235912   6.780   1.013   2.366  1.6417 -0.1512  0.5861
 4785TIP3   OH235913   5.938   0.800   0.790 -0.2086 -0.3994  0.0961
 4785TIP3    H135914   5.953   0.832   0.701 -1.2310 -0.9133 -0.2841
 4785TIP3    H235915   5.926   0.879   0.842  1.4917 -0.0512  0.0177
 4786TIP3   OH235916   4.062   2.896   8.822  0.5337  0.4378  0.2095
 4786TIP3    H135917   4.057   2.991   8.810 -1.1835  0.4482  0.6820
 4786TIP3    H235918   4.057   2.883   8.917 -0.5280 -0.1468  0.0942
 4787TIP3   OH235919   5.769   3.998   2.764 -0.1135 -0.4514  0.1856
 4787TIP3    H135920   5.836   3.953   2.817  0.8478  2.3637  1.5535
 4787TIP3    H235921   5.756   4.082   2.808 -0.5413  1.3887 -3.1217
 4788TIP3   OH235922   1.694   4.228   1.125  0.6734  0.0401 -0.5650
 4788TIP3    H135923   1.650   4.185   1.198  1.0599  0.7950  0.1205
 4788TIP3    H235924   1.638   4.303   1.105 -0.5528 -1.2779 -2.4242
 4789TIP3   OH235925   4.666   4.151   8.190  0.7035  0.7220 -0.4074
 4789TIP3    H135926   4.753   4.187   8.171  1.2885  0.3769  1.4240
 4789TIP3    H235927   4.621   4.221   8.237  0.9112  0.0548  0.8377
 4790TIP3   OH235928   5.928   2.415   1.468  0.0508 -0.4352  0.0788
 4790TIP3    H135929   5.888   2.340   1.425 -1.1388 -0.0870  0.5526
 4790TIP3    H235930   5.965   2.379   1.549  1.9160 -1.0078 -0.9650
 4791TIP3   OH235931   6.725   3.607   1.989 -0.5158  0.8267 -0.0936
 4791TIP3    H135932   6.763   3.521   1.969 -1.6969  0.0046  0.9983
 4791TIP3    H235933   6.642   3.608   1.942 -1.7453  0.2259  1.9156
 4792TIP3   OH235934   5.180   2.211   2.090  0.3849 -0.0346  0.3513
 4792TIP3    H135935   5.250   2.170   2.140  0.9603  1.0778  0.4911
 4792TIP3    H235936   5.101   2.162   2.115  0.6675  0.3828  2.2539
 4793TIP3   OH235937   1.530   3.762   0.262  0.4032 -0.5295 -0.5641
 4793TIP3    H135938   1.493   3.789   0.177 -1.1559 -0.4526  0.1101
 4793TIP3    H235939   1.625   3.766   0.248  0.2143  1.0658 -1.8248
 4794TIP3   OH235940   3.171   0.651   1.001 -0.3131 -0.0417  0.3433
 4794TIP3    H135941   3.144   0.577   1.055  1.1092 -0.6626  0.2564
 4794TIP3    H235942   3.156   0.728   1.057  2.5768 -0.7635  2.3715
 4795TIP3   OH235943   3.412   5.335   0.548  0.6012 -0.1113 -0.0557
 4795TIP3    H135944   3.337   5.359   0.493  0.3462 -2.2626 -0.7314
 4795TIP3    H235945   3.486   5.337   0.487  0.3775 -2.1348 -0.4490
 4796TIP3   OH235946   0.521   5.418   1.299  0.4104 -0.5633  0.1774
 4796TIP3    H135947   0.567   5.386   1.221 -1.7174  0.6271 -1.6924
 4796TIP3    H235948   0.521   5.344   1.359  0.3926 -2.2660 -1.7991
 4797TIP3   OH235949   5.469   0.713   0.674  0.0874 -0.0747  0.1172
 4797TIP3    H135950   5.553   0.747   0.704 -0.6078  2.0815 -0.2107
 4797TIP3    H235951   5.482   0.618   0.668  1.7920 -0.0599  2.2418
 4798TIP3   OH235952   3.040   2.639   7.472 -0.6524 -0.1184 -0.1476
 4798TIP3    H135953   3.098   2.571   7.506 -1.0059 -0.7804 -0.8606
 4798TIP3    H235954   3.065   2.718   7.520  1.0631 -0.3200 -0.6405
 4799TIP3   OH235955   6.425   2.903   1.730  0.0188 -0.1363  0.3542
 4799TIP3    H135956   6.476   2.965   1.679  2.2561 -1.9913  0.1703
 4799TIP3    H235957   6.482   2.827   1.740 -2.2968 -1.9021  1.1870
 4800TIP3   OH235958   4.873   1.805   7.396  0.4315 -0.0040 -0.2940
 4800TIP3    H135959   4.800   1.797   7.335  0.6535 -1.9375 -0.3663
 4800TIP3    H235960   4.913   1.890   7.374 -1.0741  0.5657 -1.0112
 4801TIP3   OH235961   1.369   5.435   3.219 -0.3211  0.5419 -0.7020
 4801TIP3    H135962   1.374   5.359   3.160  0.9960 -0.1943  0.3135
 4801TIP3    H235963   1.275   5.452   3.227 -0.6183 -0.6832 -1.3349
 4802TIP3   OH235964   1.861   5.921   7.740  0.3713  0.2776  0.2514
 4802TIP3    H135965   1.812   5.894   7.817  1.4817  0.8723  1.2062
 4802TIP3    H235966   1.824   6.006   7.716  1.9347  1.5291  1.9785
 4803TIP3   OH235967   3.259   2.725   8.702 -0.2588  0.0538 -0.2145
 4803TIP3    H135968   3.208   2.711   8.782 -0.0705 -1.1040 -0.2807
 4803TIP3    H235969   3.193   2.739   8.634 -0.4431  0.1222 -0.0232
 4804TIP3   OH235970   1.734   6.801   0.493 -0.5684 -0.4144 -0.2712
 4804TIP3    H135971   1.786   6.875   0.525  1.8917 -1.8132 -0.7512
 4804TIP3    H235972   1.724   6.743   0.568 -0.1433 -0.8323 -0.5303
 4805TIP3   OH235973   0.913   1.191   7.504  0.7775 -0.1797 -0.3354
 4805TIP3    H135974   0.827   1.150   7.512  0.7645 -0.0782  0.0991
 4805TIP3    H235975   0.901   1.261   7.441  0.4514  0.0643 -0.0050
 4806TIP3   OH235976   3.896   4.959   7.907 -0.4199 -0.0359 -0.0132
 4806TIP3    H135977   3.904   4.931   7.816  1.0073 -0.0007  0.0760
 4806TIP3    H235978   3.941   5.043   7.911 -0.8856  0.1941  0.6389
 4807TIP3   OH235979   3.317   6.648   1.501  0.0001  0.1113  0.2314
 4807TIP3    H135980   3.289   6.740   1.505 -0.6144 -0.0346 -0.4902
 4807TIP3    H235981   3.369   6.635   1.581  0.0499  1.0678  0.3669
 4808TIP3   OH235982   5.980   0.536   0.846  0.3503 -0.1000  0.6662
 4808TIP3    H135983   5.986   0.631   0.857 -0.9753  0.1573 -0.5226
 4808TIP3    H235984   5.886   0.519   0.840  0.6086 -1.0840 -2.1552
 4809TIP3   OH235985   4.728   5.992   2.990  0.7089 -0.6383 -0.1666
 4809TIP3    H135986   4.795   5.953   3.046 -0.6089 -2.2104  0.3908
 4809TIP3    H235987   4.713   5.927   2.922 -0.8471 -0.6953  0.2067
 4810TIP3   OH235988   4.247   2.699   1.756 -0.1942  0.0336 -0.1961
 4810TIP3    H135989   4.281   2.763   1.693  0.0614  0.4190  0.3300
 4810TIP3    H235990   4.274   2.614   1.721 -1.3602  0.1248 -1.4152
 4811TIP3   OH235991   3.281   3.810   0.627 -0.2767  0.0284 -0.5195
 4811TIP3    H135992   3.213   3.850   0.682  0.1860  1.3897 -0.9071
 4811TIP3    H235993   3.360   3.813   0.681 -0.3515 -0.8759 -0.3489
 4812TIP3   OH235994   4.841   6.296   0.088  0.1597  0.1158  0.5606
 4812TIP3    H135995   4.761   6.334   0.052  0.8405  1.0822  0.0253
 4812TIP3    H235996   4.814   6.258   0.172 -0.8108  0.6472  0.4999
 4813TIP3   OH235997   5.873   2.016   2.356  0.0214 -0.2493 -0.0685
 4813TIP3    H135998   5.793   2.035   2.405  0.3227  0.7643  0.0507
 4813TIP3    H235999   5.944   2.035   2.417  0.3898  0.6016 -0.7471
 4814TIP3   OH236000   5.829   3.976   1.007 -0.3436  0.3388 -0.4944
 4814TIP3    H136001   5.839   3.990   0.912 -0.1743 -0.1681 -0.5516
 4814TIP3    H236002   5.914   3.943   1.035 -0.0659  1.4517  0.0195
 4815TIP3   OH236003   6.448   5.556   1.531  0.3155 -0.4740 -0.2638
 4815TIP3    H136004   6.404   5.503   1.464  2.5022 -1.3539 -1.1177
 4815TIP3    H236005   6.501   5.619   1.480 -1.4992  2.0037  0.7226
 4816TIP3   OH236006   1.668   6.808   2.377 -0.6132  0.1749  0.1439
 4816TIP3    H136007   1.656   6.722   2.418 -0.7322 -0.4686 -1.1704
 4816TIP3    H236008   1.600   6.811   2.309  0.3967  0.6093 -0.8925
 4817TIP3   OH236009   5.169   0.516   1.017  0.0231  0.0774  0.3538
 4817TIP3    H136010   5.162   0.527   0.922 -0.9147  0.9651  0.5131
 4817TIP3    H236011   5.111   0.442   1.037  1.7442 -1.4518  0.0267
 4818TIP3   OH236012   2.467   5.290   7.407 -0.0385  0.1923  0.2592
 4818TIP3    H136013   2.404   5.310   7.338 -1.1443  1.3341  1.5460
 4818TIP3    H236014   2.497   5.375   7.438  1.4774 -0.3289  0.3007
 4819TIP3   OH236015   1.862   3.555   8.771 -0.5524 -0.2844  0.4418
 4819TIP3    H136016   1.787   3.559   8.711 -1.4471  0.1284  1.5430
 4819TIP3    H236017   1.878   3.646   8.795 -0.2503 -0.4548  0.8819
 4820TIP3   OH236018   4.439   4.355   2.380 -0.2532 -0.6249  0.5611
 4820TIP3    H136019   4.470   4.396   2.460 -0.7063 -0.3952  0.6257
 4820TIP3    H236020   4.344   4.352   2.390 -0.5454  1.5172 -0.9184
 4821TIP3   OH236021   0.427   2.079   0.846  0.0918  0.0171  0.2997
 4821TIP3    H136022   0.373   2.006   0.878 -0.6889 -0.3001 -1.5986
 4821TIP3    H236023   0.480   2.040   0.776  2.3147  0.4990  1.6234
 4822TIP3   OH236024   1.037   3.020   2.137  0.2671 -0.1269 -0.3523
 4822TIP3    H136025   1.113   3.071   2.109  1.1868 -0.7586  0.9171
 4822TIP3    H236026   1.041   3.022   2.233 -0.8678 -0.8385 -0.2724
 4823TIP3   OH236027   4.422   0.819   0.966 -0.0659  0.2222  0.7027
 4823TIP3    H136028   4.349   0.815   1.027  0.1901 -0.5476  0.9701
 4823TIP3    H236029   4.443   0.728   0.948  0.6322  0.4384  0.3948
 4824TIP3   OH236030   4.609   6.423   2.002 -0.0711  0.2736  0.2120
 4824TIP3    H136031   4.636   6.470   2.081  0.3976  1.0520 -0.4017
 4824TIP3    H236032   4.626   6.331   2.022 -0.0190  0.4555  1.0413
 4825TIP3   OH236033   3.860   3.527   8.083 -0.0548 -0.3411  0.5428
 4825TIP3    H136034   3.917   3.541   8.159 -0.7958 -2.8561  1.6535
 4825TIP3    H236035   3.776   3.564   8.110  0.4384  1.5720 -0.3356
 4826TIP3   OH236036   1.027   1.478   2.200  0.2472 -0.4289 -0.8596
 4826TIP3    H136037   1.106   1.509   2.155 -0.0376  0.2654 -0.8906
 4826TIP3    H236038   0.969   1.449   2.130 -0.2617  0.8033 -0.9779
 4827TIP3   OH236039   0.664   2.571   1.662  1.0832  0.0290 -0.3972
 4827TIP3    H136040   0.736   2.622   1.701  0.8970  0.3597 -0.4823
 4827TIP3    H236041   0.677   2.582   1.568  0.1307  1.2260 -0.4174
 4828TIP3   OH236042   5.660   0.407   1.674  0.3912 -0.2719 -0.2455
 4828TIP3    H136043   5.726   0.414   1.605  1.9889 -0.5009  1.2016
 4828TIP3    H236044   5.709   0.418   1.755 -1.5088  0.4485  0.8547
 4829TIP3   OH236045   1.639   5.384   0.574  0.2079 -0.5099  0.1480
 4829TIP3    H136046   1.579   5.415   0.506 -2.1430 -1.8217  1.4938
 4829TIP3    H236047   1.669   5.463   0.618 -0.4776  0.1855 -0.6077
 4830TIP3   OH236048   5.631   4.245   0.904 -0.0790  0.1425  0.6634
 4830TIP3    H136049   5.725   4.241   0.890  0.0450 -0.3333  1.5431
 4830TIP3    H236050   5.611   4.339   0.912  0.0696  0.3474 -0.9671
 4831TIP3   OH236051   5.529   1.304   0.101 -0.3048  0.1751  0.4280
 4831TIP3    H136052   5.501   1.249   0.173 -0.7716 -0.5121 -0.2662
 4831TIP3    H236053   5.453   1.309   0.043 -0.3379  1.7072  0.5645
 4832TIP3   OH236054   4.016   1.622   2.241  0.2348  0.1557 -0.0449
 4832TIP3    H136055   4.093   1.569   2.219 -0.0033 -1.1233  1.9402
 4832TIP3    H236056   3.955   1.560   2.280 -1.6883  1.2251 -1.1930
 4833TIP3   OH236057   1.531   1.467   0.669 -0.1748 -0.6494 -0.0181
 4833TIP3    H136058   1.524   1.467   0.764 -0.5243 -1.3420 -0.0387
 4833TIP3    H236059   1.537   1.374   0.646  0.7216 -0.4562 -0.6130
 4834TIP3   OH236060   5.285   4.514   1.035  0.7096 -0.1555 -0.3286
 4834TIP3    H136061   5.246   4.474   0.957  0.5032 -1.2508  0.3111
 4834TIP3    H236062   5.378   4.491   1.030  1.1342  1.6810 -1.3852
 4835TIP3   OH236063   4.342   2.647   7.769  0.0434 -0.2117 -0.1377
 4835TIP3    H136064   4.330   2.742   7.765  1.3120 -0.0299 -0.0635
 4835TIP3    H236065   4.336   2.626   7.863  1.0340 -0.0070 -0.0184
 4836TIP3   OH236066   1.095   4.059   1.279 -0.2222 -0.0141  0.3596
 4836TIP3    H136067   1.008   4.095   1.259  0.1360  1.1545  0.8201
 4836TIP3    H236068   1.149   4.086   1.205  0.5277  2.2182  1.6231
 4837TIP3   OH236069   5.304   1.853   1.562  0.1765  0.6844 -0.0252
 4837TIP3    H136070   5.344   1.786   1.506  0.6279 -0.1230  1.2155
 4837TIP3    H236071   5.238   1.805   1.612 -0.5190  1.4791 -0.1601
 4838TIP3   OH236072   4.877   0.770   0.265 -0.0620  0.2319  0.5591
 4838TIP3    H136073   4.805   0.798   0.322 -0.7397  1.1777 -0.6798
 4838TIP3    H236074   4.844   0.786   0.176  1.0234 -0.9975 -0.1022
 4839TIP3   OH236075   3.544   4.163   1.975 -0.2176  0.2052 -0.1834
 4839TIP3    H136076   3.622   4.215   1.996  0.1447  0.1499 -1.3326
 4839TIP3    H236077   3.473   4.227   1.972 -0.4579  0.0971  2.0031
 4840TIP3   OH236078   4.604   4.968   0.168  0.3190 -0.0240  0.2252
 4840TIP3    H136079   4.656   5.018   0.231  1.1327 -1.0947  0.4274
 4840TIP3    H236080   4.543   4.918   0.222  0.2658 -0.0965  0.0988
 4841TIP3   OH236081   3.126   0.887   8.246 -0.7172 -0.1547  0.4214
 4841TIP3    H136082   3.086   0.937   8.317 -0.4360  2.5096 -1.1750
 4841TIP3    H236083   3.055   0.870   8.185 -0.1781  1.4764 -0.7226
 4842TIP3   OH236084   5.644   6.202   7.961  0.0077 -0.5865  0.5514
 4842TIP3    H136085   5.558   6.206   8.002  0.6244  1.2378  1.8285
 4842TIP3    H236086   5.677   6.114   7.980 -0.9941 -0.8128  1.2861
 4843TIP3   OH236087   3.484   5.019   8.198 -0.0249 -0.6119  0.2269
 4843TIP3    H136088   3.513   5.110   8.210  0.8197 -1.1764  3.4821
 4843TIP3    H236089   3.518   4.973   8.274 -3.6143 -2.8683  0.7075
 4844TIP3   OH236090   5.417   4.659   7.181  0.0710 -1.2648  0.0134
 4844TIP3    H136091   5.410   4.663   7.277 -2.7838  0.8444 -0.1463
 4844TIP3    H236092   5.347   4.599   7.155 -0.9781  0.2522 -0.7981
 4845TIP3   OH236093   5.237   5.965   2.239  0.2127  0.1587 -0.1921
 4845TIP3    H136094   5.285   6.016   2.173  0.2728 -0.2859 -0.4987
 4845TIP3    H236095   5.196   5.894   2.189 -1.4146  0.9579 -0.0508
 4846TIP3   OH236096   4.642   2.758   2.105  0.0766 -0.0379 -0.7782
 4846TIP3    H136097   4.605   2.831   2.056 -0.4353  0.0785 -0.2267
 4846TIP3    H236098   4.566   2.705   2.131  0.4966 -1.2143 -1.8725
 4847TIP3   OH236099   5.371   0.427   1.466 -0.8840  0.2900 -0.6512
 4847TIP3    H136100   5.363   0.516   1.433 -0.4457  1.3065  1.7382
 4847TIP3    H236101   5.451   0.427   1.518 -1.5743 -1.0844  0.5294
 4848TIP3   OH236102   5.737   1.005   1.585  0.1601  0.4327 -0.1767
 4848TIP3    H136103   5.786   0.928   1.557  0.5794 -0.5648  2.9749
 4848TIP3    H236104   5.789   1.043   1.655 -1.2926  2.1490  0.0578
 4849TIP3   OH236105   1.768   3.098   8.002  0.0517  0.2683 -0.2000
 4849TIP3    H136106   1.837   3.055   8.054  1.5875  1.9045 -0.7869
 4849TIP3    H236107   1.779   3.061   7.914  0.0600  0.3875 -0.2495
 4850TIP3   OH236108   3.832   1.798   8.325 -0.0271  0.2684 -0.4728
 4850TIP3    H136109   3.916   1.802   8.279 -0.7249  1.5570 -1.7417
 4850TIP3    H236110   3.775   1.857   8.275 -1.9946 -1.3567 -0.2767
 4851TIP3   OH236111   0.457   2.045   7.242  0.6221  0.8030 -0.6986
 4851TIP3    H136112   0.478   2.061   7.150 -1.3475  1.3063 -1.0990
 4851TIP3    H236113   0.432   2.131   7.277 -2.2733  0.0725 -0.7396
 4852TIP3   OH236114   4.520   3.866   8.784 -0.2275  0.7400 -0.1354
 4852TIP3    H136115   4.503   3.922   8.709  1.4293  1.4134 -0.0362
 4852TIP3    H236116   4.434   3.852   8.824 -0.8766  1.8532 -1.1088
 4853TIP3   OH236117   0.597   6.111   1.208 -0.6004  0.6593  0.1146
 4853TIP3    H136118   0.502   6.118   1.208 -0.6545  0.6848 -2.5414
 4853TIP3    H236119   0.614   6.017   1.208 -0.6254  0.6546  0.1182
 4854TIP3   OH236120   2.713   3.858   0.623 -0.0311  0.1024 -0.2859
 4854TIP3    H136121   2.637   3.838   0.679 -0.4547  2.4972  0.0983
 4854TIP3    H236122   2.713   3.787   0.558 -2.3070 -0.2482 -0.0089
 4855TIP3   OH236123   6.765   5.825   8.606 -0.9292  0.0360  0.2346
 4855TIP3    H136124   6.753   5.734   8.577 -1.3651 -0.5774  2.1838
 4855TIP3    H236125   6.678   5.853   8.633 -0.8034  1.0743 -0.3784
 4856TIP3   OH236126   1.073   5.140   8.784 -0.5988  0.3124  0.4331
 4856TIP3    H136127   1.142   5.086   8.823 -0.6941  0.6527  1.0868
 4856TIP3    H236128   1.091   5.228   8.816 -0.7237  0.5883 -0.2429
 4857TIP3   OH236129   5.841   5.252   0.138 -0.2797  0.1995 -0.0485
 4857TIP3    H136130   5.749   5.238   0.115 -0.9097  1.7176  1.3195
 4857TIP3    H236131   5.887   5.176   0.103 -2.5047 -2.2770  2.0225
 4858TIP3   OH236132   5.569   4.498   0.944  0.3773 -0.0070  0.1517
 4858TIP3    H136133   5.591   4.550   0.867  0.3420  1.0015  0.8074
 4858TIP3    H236134   5.620   4.538   1.015 -0.1758 -0.4432  0.8038
 4859TIP3   OH236135   1.213   2.598   8.431 -0.6769  0.0727  0.0638
 4859TIP3    H136136   1.216   2.581   8.525 -0.3410 -4.5167 -0.5511
 4859TIP3    H236137   1.304   2.598   8.403 -0.8119  0.3878 -0.3869
 4860TIP3   OH236138   3.613   4.168   1.262 -0.5968 -0.0240 -0.3996
 4860TIP3    H136139   3.688   4.163   1.322 -1.0833  0.1852  0.2432
 4860TIP3    H236140   3.598   4.262   1.251 -0.9390 -0.0677 -0.3048
 4861TIP3   OH236141   0.425   0.022   7.902 -0.0569  0.0939 -0.0985
 4861TIP3    H136142   0.398  -0.068   7.887  0.4569  0.0666 -0.9142
 4861TIP3    H236143   0.449   0.024   7.995  0.2878 -0.7114 -0.1581
 4862TIP3   OH236144   5.554   5.788   7.559 -0.1357 -0.3021  0.3328
 4862TIP3    H136145   5.474   5.832   7.530 -0.0630  1.1914  2.1786
 4862TIP3    H236146   5.588   5.747   7.480 -0.3175  2.8394 -1.5736
 4863TIP3   OH236147   2.420   6.053   0.846  0.6672 -0.2548 -0.2824
 4863TIP3    H136148   2.415   6.123   0.781  0.2496 -1.5335 -1.6873
 4863TIP3    H236149   2.514   6.040   0.861  0.7443  1.2484  0.7691
 4864TIP3   OH236150   1.057   6.677   1.477  0.3670 -0.2912 -0.0998
 4864TIP3    H136151   1.063   6.762   1.431  3.1424 -0.6161 -0.5154
 4864TIP3    H236152   1.027   6.616   1.410 -2.5398  0.4425  0.4275
 4865TIP3   OH236153   2.759   0.443   8.476 -0.0091  0.2640  1.3185
 4865TIP3    H136154   2.749   0.368   8.534  0.5299  0.4089  1.5980
 4865TIP3    H236155   2.841   0.427   8.429 -0.9595 -0.3913 -0.2075
 4866TIP3   OH236156   6.502   1.569   2.068 -0.2477  0.5287  0.2421
 4866TIP3    H136157   6.494   1.513   1.991 -1.4977  0.6413  0.2564
 4866TIP3    H236158   6.586   1.612   2.058 -0.0691 -0.0046 -0.6922
 4867TIP3   OH236159   4.231   5.192   0.681  0.0280  0.0345 -0.2058
 4867TIP3    H136160   4.204   5.269   0.631  0.4749  0.4002  0.1070
 4867TIP3    H236161   4.149   5.158   0.718 -0.1408  0.5324 -0.1045
 4868TIP3   OH236162   6.404   0.774   1.020 -0.0543  0.1467 -0.6654
 4868TIP3    H136163   6.337   0.752   0.955 -0.4634 -1.2536  0.1879
 4868TIP3    H236164   6.409   0.696   1.076  1.0743  0.8988  0.3127
 4869TIP3   OH236165   0.543   0.111   8.143 -0.1804  0.2284 -0.3665
 4869TIP3    H136166   0.593   0.184   8.107  1.7481 -0.8260  0.0526
 4869TIP3    H236167   0.563   0.112   8.237  1.6663 -2.0841 -0.6395
 4870TIP3   OH236168   5.356   6.594   8.232 -0.0964  0.4672  0.1354
 4870TIP3    H136169   5.348   6.675   8.283  0.6568  0.1685  0.7401
 4870TIP3    H236170   5.269   6.555   8.238 -0.3562  1.0277  0.1770
 4871TIP3   OH236171   4.344   1.067   7.778 -0.4689  0.4183 -0.1949
 4871TIP3    H136172   4.298   1.087   7.696 -1.4736  0.6154  0.3946
 4871TIP3    H236173   4.274   1.061   7.844  0.4531  4.7275  1.5832
 4872TIP3   OH236174   3.717   6.018   0.617  0.0366  0.2445  0.6693
 4872TIP3    H136175   3.651   6.037   0.550 -0.0996 -0.0599  0.7171
 4872TIP3    H236176   3.671   5.966   0.683  0.9119 -2.2494 -0.5477
 4873TIP3   OH236177   4.131   1.347   8.206  0.3256  0.3000  0.3883
 4873TIP3    H136178   4.067   1.309   8.145  0.7349  0.3878 -0.1020
 4873TIP3    H236179   4.095   1.433   8.229  0.8689  0.8880 -0.8754
 4874TIP3   OH236180   0.320   1.599   0.376  0.1574 -0.2942  0.0782
 4874TIP3    H136181   0.406   1.570   0.407  0.9559  0.2408 -1.5273
 4874TIP3    H236182   0.331   1.693   0.360 -1.1897  0.1040  1.2898
 4875TIP3   OH236183   3.980   6.378   8.030  0.0573  0.4600  0.7210
 4875TIP3    H136184   3.977   6.320   7.954  1.7355  1.1003  0.1340
 4875TIP3    H236185   3.968   6.319   8.105 -2.0870 -0.1162 -0.0065
 4876TIP3   OH236186   4.583   2.881   0.718  0.4067  0.4460  0.1025
 4876TIP3    H136187   4.511   2.822   0.695  0.0881  0.8877 -0.0358
 4876TIP3    H236188   4.661   2.837   0.683  0.5516 -1.2115  2.2596
 4877TIP3   OH236189   3.694   2.699   7.851 -0.2476  0.1726 -0.3729
 4877TIP3    H136190   3.783   2.692   7.884 -1.3353 -0.2099  2.8781
 4877TIP3    H236191   3.681   2.620   7.799  0.7746 -0.6544  0.5754
 4878TIP3   OH236192   2.611   0.082   0.345  0.0781 -0.4388 -0.5621
 4878TIP3    H136193   2.570   0.021   0.284 -0.9000 -0.0064 -0.3632
 4878TIP3    H236194   2.679   0.125   0.294  0.7281 -1.6259 -0.7225
 4879TIP3   OH236195   0.810   2.393   2.743  0.2084  0.2763  0.4058
 4879TIP3    H136196   0.715   2.410   2.740  0.5521  2.4152 -1.4930
 4879TIP3    H236197   0.835   2.385   2.651  1.9257  0.0392  0.8737
 4880TIP3   OH236198   3.507   1.245   2.469 -0.2723 -0.3045 -0.3621
 4880TIP3    H136199   3.545   1.253   2.381 -2.7198 -0.8934 -1.5701
 4880TIP3    H236200   3.436   1.309   2.470 -2.0267 -2.1688  0.1352
 4881TIP3   OH236201   1.743   4.282   2.113  0.8286 -0.4619  0.3531
 4881TIP3    H136202   1.651   4.256   2.104  0.3126  1.5674 -0.7001
 4881TIP3    H236203   1.763   4.330   2.033  3.0241 -1.3764  0.2920
 4882TIP3   OH236204   2.680   4.595   2.140 -0.1867  0.1139  0.0724
 4882TIP3    H136205   2.607   4.549   2.101 -1.1605  0.4316  1.4485
 4882TIP3    H236206   2.747   4.528   2.152 -0.9132 -0.5653  0.4095
 4883TIP3   OH236207   2.035   4.105   6.989 -0.4526  0.2914  0.0965
 4883TIP3    H136208   2.091   4.049   7.042 -0.7106 -0.1242 -0.0668
 4883TIP3    H236209   2.095   4.148   6.928 -0.0256  1.4617  1.2974
 4884TIP3   OH236210   6.525   0.248   0.630 -0.1426 -0.2080  0.2391
 4884TIP3    H136211   6.616   0.237   0.603 -0.0994 -0.8254  0.6218
 4884TIP3    H236212   6.485   0.162   0.617 -1.1746  0.5207 -1.7349
 4885TIP3   OH236213   1.569   4.516   7.106 -0.1048 -0.2658 -0.1651
 4885TIP3    H136214   1.586   4.423   7.115  2.8467  0.0983 -0.8719
 4885TIP3    H236215   1.530   4.541   7.190  1.9920 -1.6372  1.3382
 4886TIP3   OH236216   3.599   4.059   8.350 -0.2931  0.0284 -0.2614
 4886TIP3    H136217   3.643   4.049   8.435 -0.6976  0.9492  0.0741
 4886TIP3    H236218   3.652   4.123   8.303 -1.0036  0.8286 -0.0154
 4887TIP3   OH236219   4.755   5.873   8.588 -0.5177  0.1916  0.4993
 4887TIP3    H136220   4.732   5.788   8.551 -1.3346  0.4299  0.4470
 4887TIP3    H236221   4.700   5.935   8.541 -0.2115  0.7067  0.8171
 4888TIP3   OH236222   2.956   6.418   2.084 -0.6918 -0.6133 -0.0185
 4888TIP3    H136223   2.870   6.432   2.045  0.2244  1.2477 -1.4791
 4888TIP3    H236224   2.985   6.333   2.050 -0.7827  0.0420 -1.8186
 4889TIP3   OH236225   0.661   5.692   1.548 -0.6728 -0.3186 -0.1737
 4889TIP3    H136226   0.701   5.644   1.620 -0.5058  1.1002  0.7005
 4889TIP3    H236227   0.735   5.721   1.494 -0.8114 -1.6932 -1.1706
 4890TIP3   OH236228   4.619   2.245   8.372 -0.6234 -0.1373  0.0023
 4890TIP3    H136229   4.626   2.187   8.447  1.0784  0.4257  0.3240
 4890TIP3    H236230   4.706   2.242   8.331 -0.9519  1.0213 -0.8346
 4891TIP3   OH236231   0.294   2.260   1.291 -0.2541 -0.5248 -0.3263
 4891TIP3    H136232   0.302   2.339   1.238 -2.2931 -0.6412 -0.8921
 4891TIP3    H236233   0.285   2.292   1.381 -1.6589 -0.0476 -0.6126
 4892TIP3   OH236234   3.884   0.141   2.136 -0.1875 -0.7568  0.4900
 4892TIP3    H136235   3.919   0.057   2.168  3.5060  0.5417  0.3111
 4892TIP3    H236236   3.907   0.143   2.043 -1.4345 -0.0592  0.1731
 4893TIP3   OH236237   2.222   2.664   1.240 -0.6267 -0.1880  0.1810
 4893TIP3    H136238   2.267   2.592   1.284  0.6253  0.2331 -0.3731
 4893TIP3    H236239   2.142   2.624   1.206  0.7196 -1.7138 -1.3874
 4894TIP3   OH236240   0.588   0.215   7.813 -0.5553 -0.0765 -0.2389
 4894TIP3    H136241   0.554   0.232   7.725  0.2167 -0.2152 -0.5671
 4894TIP3    H236242   0.527   0.151   7.849 -1.6548  0.9817 -0.1615
 4895TIP3   OH236243   3.111   4.120   2.658  0.5535 -0.2899  0.1630
 4895TIP3    H136244   3.057   4.098   2.582  1.7970 -0.0777 -0.8160
 4895TIP3    H236245   3.201   4.110   2.627  1.0933 -1.0884  1.8904
 4896TIP3   OH236246   0.830   2.340   2.461 -0.2954 -0.2237 -0.1972
 4896TIP3    H136247   0.856   2.250   2.443  1.5636  0.0973  0.6093
 4896TIP3    H236248   0.805   2.376   2.375 -0.0037 -1.1898 -0.6973
 4897TIP3   OH236249   3.761   5.989   7.621 -0.2280 -0.1404  0.3044
 4897TIP3    H136250   3.752   5.938   7.541  0.7109 -0.5808  0.4593
 4897TIP3    H236251   3.834   6.048   7.604  0.2847 -0.5555  0.9766
 4898TIP3   OH236252   3.042   0.877   2.414  0.7313  0.2123  0.4278
 4898TIP3    H136253   3.004   0.814   2.353  1.5932 -1.3628  1.4462
 4898TIP3    H236254   3.103   0.928   2.360 -1.1149  1.2882 -0.7392
 4899TIP3   OH236255   6.258   1.339   1.831  0.6875  0.5941 -0.0760
 4899TIP3    H136256   6.266   1.433   1.815 -1.8770  1.1626  1.4587
 4899TIP3    H236257   6.347   1.305   1.817  1.6636  3.1967 -0.7746
 4900TIP3   OH236258   4.866   5.182   7.693 -0.4818  0.4447 -0.2281
 4900TIP3    H136259   4.903   5.172   7.605 -0.5918  1.5269 -0.4170
 4900TIP3    H236260   4.930   5.140   7.751 -0.4341 -0.3237 -0.8226
 4901TIP3   OH236261   1.486   5.485   0.929 -0.2603  0.2540  0.8102
 4901TIP3    H136262   1.477   5.391   0.946 -2.2366  0.2069 -0.2858
 4901TIP3    H236263   1.467   5.527   1.014  1.2657 -0.3170  1.4679
 4902TIP3   OH236264   4.099   3.043   8.430  0.7592  0.5503 -0.1444
 4902TIP3    H136265   4.117   2.951   8.447  0.4850  0.3571 -0.8802
 4902TIP3    H236266   4.175   3.074   8.381  1.0921  0.8561  0.5427
 4903TIP3   OH236267   5.051   6.468   1.650 -0.1799 -0.6099  0.8711
 4903TIP3    H136268   5.133   6.495   1.692 -0.2941 -1.0395  1.3810
 4903TIP3    H236269   4.984   6.488   1.714 -0.5587  0.3692  0.1869
 4904TIP3   OH236270   3.629   2.890   2.749  0.5871 -0.1145 -0.4728
 4904TIP3    H136271   3.710   2.862   2.792  0.3052 -0.2238 -0.0093
 4904TIP3    H236272   3.604   2.971   2.794  1.0486  0.5482 -1.3786
 4905TIP3   OH236273   0.168   2.455   0.584 -0.4563 -0.0407 -0.5889
 4905TIP3    H136274   0.224   2.442   0.661 -0.1334  1.2648 -0.5944
 4905TIP3    H236275   0.202   2.533   0.541 -1.3980 -0.0442 -1.3856
 4906TIP3   OH236276   2.171   4.557   1.002  0.0610  0.0951 -0.6955
 4906TIP3    H136277   2.224   4.511   1.067  1.3949  1.0774 -1.0336
 4906TIP3    H236278   2.105   4.493   0.975 -0.1556 -0.5224  1.1645
 4907TIP3   OH236279   4.069   0.411   7.491 -0.6378 -0.7185 -0.2148
 4907TIP3    H136280   4.004   0.472   7.455 -1.2417 -1.1130  0.1743
 4907TIP3    H236281   4.150   0.431   7.444 -0.9283  0.0915 -0.3927
 4908TIP3   OH236282   6.488   4.036   7.886 -0.4464  0.3813  0.1882
 4908TIP3    H136283   6.541   4.092   7.942 -0.7216  0.0021  0.8434
 4908TIP3    H236284   6.545   3.961   7.866  0.3708  1.4349 -1.7140
 4909TIP3   OH236285   6.510   1.436   8.122 -0.4789  0.2321  0.0370
 4909TIP3    H136286   6.442   1.368   8.126 -0.0484 -0.1660  0.8655
 4909TIP3    H236287   6.488   1.494   8.195 -0.1821  0.3401  0.0382
 4910TIP3   OH236288   1.938   0.464   8.359 -0.2299  0.4728 -0.6291
 4910TIP3    H136289   1.976   0.552   8.364  0.4348  0.1897 -0.7254
 4910TIP3    H236290   1.866   0.474   8.296 -0.4923  1.0639 -0.2536
 4911TIP3   OH236291   5.895   4.784   8.641  0.0091  0.1608 -1.0393
 4911TIP3    H136292   5.947   4.737   8.576  0.0694 -0.5110 -0.5156
 4911TIP3    H236293   5.895   4.727   8.718 -0.1387  0.8944 -0.4785
 4912TIP3   OH236294   3.990   2.238   1.927 -0.0443  0.4034  0.5237
 4912TIP3    H136295   3.980   2.331   1.907  0.6078  0.4325  0.3177
 4912TIP3    H236296   3.999   2.235   2.022  3.2659  0.9113  0.3483
 4913TIP3   OH236297   5.367   5.912   0.967 -0.5104  0.8329 -0.1402
 4913TIP3    H136298   5.357   5.991   1.020 -0.8714  0.1436  0.8420
 4913TIP3    H236299   5.461   5.900   0.959 -0.4474  0.6997  0.7287
 4914TIP3   OH236300   4.221   2.532   8.646  0.5517 -0.4197 -0.0065
 4914TIP3    H136301   4.304   2.502   8.682  1.0812 -0.7949 -1.4561
 4914TIP3    H236302   4.200   2.469   8.577 -0.3210  0.3454 -0.4722
 4915TIP3   OH236303   1.597   0.309   2.400 -0.5681 -0.0529 -0.4442
 4915TIP3    H136304   1.538   0.297   2.325  0.1857 -0.8029 -0.9383
 4915TIP3    H236305   1.642   0.225   2.408 -1.9809 -0.6454  2.0555
 4916TIP3   OH236306   5.756   1.110   8.172 -0.0175  0.2631  0.3936
 4916TIP3    H136307   5.766   1.094   8.266 -2.3199  1.0396  0.8283
 4916TIP3    H236308   5.730   1.201   8.165  0.2050  0.2446 -1.0226
 4917TIP3   OH236309   2.612   4.256   8.603  0.5831  0.5563  0.8558
 4917TIP3    H136310   2.635   4.181   8.549  0.8611 -0.5170  2.4076
 4917TIP3    H236311   2.542   4.300   8.554 -0.1925 -1.1952  0.3233
 4918TIP3   OH236312   1.736   4.164   0.132 -0.5924 -0.5965 -0.1046
 4918TIP3    H136313   1.795   4.156   0.057  0.8114 -1.7594  1.0709
 4918TIP3    H236314   1.693   4.248   0.119 -0.8437 -1.0026 -2.5086
 4919TIP3   OH236315   0.542   5.723   0.554  0.1571  0.1556  0.2617
 4919TIP3    H136316   0.520   5.782   0.627  0.4994 -0.4520  0.8720
 4919TIP3    H236317   0.625   5.757   0.520 -1.4315  2.2614 -1.8386
 4920TIP3   OH236318   5.474   5.537   7.698  0.6427  0.1322 -0.2508
 4920TIP3    H136319   5.493   5.575   7.612 -1.8460 -0.2063 -1.0156
 4920TIP3    H236320   5.499   5.606   7.761  3.1917  0.1068 -1.1327
 4921TIP3   OH236321   5.861   5.021   2.108  0.1570  0.4009  0.5294
 4921TIP3    H136322   5.861   5.077   2.031  0.3410 -1.0133 -0.5293
 4921TIP3    H236323   5.953   4.998   2.121 -0.2181 -3.0689 -1.6899
 4922TIP3   OH236324   0.898   2.258   1.644 -0.9961 -0.0004 -0.5539
 4922TIP3    H136325   0.882   2.199   1.718  0.2314  0.0068 -0.2610
 4922TIP3    H236326   0.975   2.309   1.670  0.0567 -0.6570 -2.2168
 4923TIP3   OH236327   4.344   5.550   1.237  0.2768  0.2915 -0.0772
 4923TIP3    H136328   4.268   5.533   1.293 -0.0487  0.2687 -0.5162
 4923TIP3    H236329   4.403   5.476   1.253  0.2269  0.3339  0.3006
 4924TIP3   OH236330   5.508   3.368   7.530 -0.1570 -0.1419  0.2638
 4924TIP3    H136331   5.552   3.452   7.542 -0.4931 -0.0231  0.6939
 4924TIP3    H236332   5.445   3.384   7.460  1.5335 -0.7292 -1.4789
 4925TIP3   OH236333   4.688   5.327   8.585  0.4237 -0.1963 -0.3197
 4925TIP3    H136334   4.773   5.292   8.611  0.7517  0.6002 -0.3186
 4925TIP3    H236335   4.626   5.257   8.609  0.8419  0.0164  1.5676
 4926TIP3   OH236336   1.368   1.711   2.581  0.0777 -0.2133  0.0099
 4926TIP3    H136337   1.275   1.718   2.603  0.6764  0.5641  2.5919
 4926TIP3    H236338   1.409   1.679   2.661  2.1956  0.5650 -0.7173
 4927TIP3   OH236339   2.999   4.796   1.556  0.4118 -0.5840  0.0918
 4927TIP3    H136340   3.009   4.876   1.504 -1.4144 -1.0105 -1.0307
 4927TIP3    H236341   2.969   4.827   1.641 -0.0326 -0.0336 -0.2525
 4928TIP3   OH236342   4.298   0.013   0.991 -0.5031  0.2556  0.3331
 4928TIP3    H136343   4.217  -0.031   1.017 -0.0425 -1.4348 -0.9049
 4928TIP3    H236344   4.353  -0.057   0.955  0.7424  1.6651 -0.6549
 4929TIP3   OH236345   4.002   3.634   1.997  0.3077  0.0420  0.5166
 4929TIP3    H136346   4.026   3.652   1.907  0.9333 -0.2093  0.6288
 4929TIP3    H236347   4.008   3.719   2.041  1.6245 -0.1140  0.6786
 4930TIP3   OH236348   5.867   0.017   1.265  0.0008  0.4164 -0.6847
 4930TIP3    H136349   5.846   0.009   1.358 -0.0503 -0.7932 -0.7864
 4930TIP3    H236350   5.799  -0.034   1.221 -1.9021  3.4962 -1.6698
 4931TIP3   OH236351   5.787   2.955   0.231 -0.4146 -0.0715 -0.3176
 4931TIP3    H136352   5.815   2.917   0.148  1.2267  0.7418 -0.1948
 4931TIP3    H236353   5.740   3.035   0.207  0.9219  0.6975 -0.4896
 4932TIP3   OH236354   6.365   5.427   0.796 -0.2087 -0.1818 -0.1986
 4932TIP3    H136355   6.436   5.362   0.794  1.3809  1.3919  1.4751
 4932TIP3    H236356   6.400   5.502   0.749 -0.1821  1.1117  1.7737
 4933TIP3   OH236357   2.613   2.195   8.089 -0.5671 -0.5034 -0.2989
 4933TIP3    H136358   2.589   2.199   8.181  1.7295  0.1669  0.3234
 4933TIP3    H236359   2.561   2.265   8.048  0.4976  1.1618  1.0607
 4934TIP3   OH236360   6.801   4.091   0.141 -0.8634  0.6947 -0.5165
 4934TIP3    H136361   6.893   4.091   0.116 -0.5674  1.0654  0.5229
 4934TIP3    H236362   6.778   4.183   0.151 -1.6550  0.6556 -1.8139
 4935TIP3   OH236363   3.853   3.094   3.153 -0.0185  0.0312 -0.1021
 4935TIP3    H136364   3.932   3.066   3.198  1.1380  0.3159 -1.8481
 4935TIP3    H236365   3.831   3.179   3.193 -0.8146 -1.0731  1.9450
 4936TIP3   OH236366   5.246   0.261   1.305  0.1111  0.1459 -0.7225
 4936TIP3    H136367   5.259   0.346   1.347 -1.2344  0.4666 -0.8810
 4936TIP3    H236368   5.229   0.282   1.213 -0.0670 -0.3003 -0.7953
 4937TIP3   OH236369   3.157   3.364   8.152 -0.0825 -0.2051 -0.0902
 4937TIP3    H136370   3.065   3.375   8.178 -0.2837 -1.9281  0.0479
 4937TIP3    H236371   3.155   3.299   8.082  0.8305  1.6031 -1.9036
 4938TIP3   OH236372   2.831   1.383   0.412  0.0588  0.0040 -0.1367
 4938TIP3    H136373   2.840   1.298   0.455 -0.4714  1.1234  2.3194
 4938TIP3    H236374   2.737   1.400   0.411  0.2192  0.9397  0.1613
 4939TIP3   OH236375   3.132   2.225   8.521  0.0338 -0.3700 -0.1939
 4939TIP3    H136376   3.190   2.258   8.452 -0.7896  1.4878 -0.0745
 4939TIP3    H236377   3.058   2.187   8.473  0.1884 -0.4776 -0.3461
 4940TIP3   OH236378   0.173   1.427   2.890 -0.1587  0.1263  0.3503
 4940TIP3    H136379   0.231   1.410   2.964 -0.1616  3.2726  1.2011
 4940TIP3    H236380   0.088   1.393   2.918  0.7168 -2.7832 -0.1478
 4941TIP3   OH236381   0.770   1.127   0.118 -0.4451  0.2737 -0.2340
 4941TIP3    H136382   0.705   1.073   0.073 -1.3700  0.1144  1.2174
 4941TIP3    H236383   0.828   1.158   0.048 -1.4930 -0.3830 -1.4459
 4942TIP3   OH236384   3.098   4.214   0.483  0.5155 -0.3862 -0.2948
 4942TIP3    H136385   3.149   4.142   0.521  1.3089  0.1246 -0.3684
 4942TIP3    H236386   3.152   4.246   0.411  0.2582  0.4229 -0.1327
 4943TIP3   OH236387   5.881   0.061   0.954  0.0969 -0.9755  0.0151
 4943TIP3    H136388   5.865   0.035   1.045  1.1132 -0.8837  0.2329
 4943TIP3    H236389   5.961   0.113   0.958 -1.5700  1.8317 -0.4665
 4944TIP3   OH236390   3.001   4.854   2.438  0.0335 -0.4270 -0.9977
 4944TIP3    H136391   3.057   4.918   2.393  0.9357  0.0229  0.6630
 4944TIP3    H236392   3.040   4.847   2.525 -0.6844 -2.4663 -0.7986
 4945TIP3   OH236393   6.091   4.353   7.902  0.1526 -0.2711  0.2121
 4945TIP3    H136394   6.146   4.358   7.980  1.7729 -2.4156 -0.7058
 4945TIP3    H236395   6.065   4.444   7.886  1.4775  0.5000  2.0313
 4946TIP3   OH236396   4.414   1.785   8.518  0.1012  0.1809 -0.0403
 4946TIP3    H136397   4.447   1.703   8.480  0.6275  0.9074 -1.2221
 4946TIP3    H236398   4.326   1.763   8.548 -0.2561 -0.5169 -1.4947
 4947TIP3   OH236399   4.115   1.442   3.170  0.2573  0.5941 -0.0595
 4947TIP3    H136400   4.202   1.427   3.135 -0.1154  2.5317 -2.0690
 4947TIP3    H236401   4.127   1.511   3.236  0.3047  0.4768  0.0551
 4948TIP3   OH236402   1.748   3.129   0.369 -0.3031 -0.0724  0.6183
 4948TIP3    H136403   1.755   3.111   0.275  0.4716  0.4633  0.5586
 4948TIP3    H236404   1.713   3.218   0.374  0.6495  0.3081  0.8046
 4949TIP3   OH236405   0.011   0.790   8.014 -0.3425  0.4839  0.0351
 4949TIP3    H136406   0.020   0.749   8.100  0.5810  1.0410  0.2165
 4949TIP3    H236407   0.015   0.717   7.952 -2.5762 -0.1118  0.4919
 4950TIP3   OH236408   5.752   3.381   0.441  0.1893 -0.5900  0.5314
 4950TIP3    H136409   5.661   3.408   0.431  0.5802 -0.0302 -2.7231
 4950TIP3    H236410   5.773   3.401   0.532 -2.5316  0.5233  1.0138
 4951TIP3   OH236411   3.986   5.583   8.811 -0.2246  0.3860 -0.3331
 4951TIP3    H136412   3.903   5.626   8.789 -0.6434 -0.9861 -1.5396
 4951TIP3    H236413   4.014   5.541   8.730  1.3879  0.3563  0.2015
 4952TIP3   OH236414   4.058   6.682   2.782 -0.5878  0.1505 -0.7948
 4952TIP3    H136415   4.024   6.623   2.715 -0.7091 -0.7257  0.0138
 4952TIP3    H236416   3.987   6.743   2.799 -0.4915  0.4930 -1.5835
 4953TIP3   OH236417   1.353   2.054   0.454  0.0514 -0.8037  0.4210
 4953TIP3    H136418   1.301   1.993   0.506 -1.8440 -0.4432 -0.9522
 4953TIP3    H236419   1.372   2.127   0.512 -0.5876 -1.1578  1.0791
 4954TIP3   OH236420   2.903   3.353   8.207  0.4969 -0.6525  0.0602
 4954TIP3    H136421   2.857   3.380   8.127  1.9584 -1.7758 -1.1968
 4954TIP3    H236422   2.856   3.275   8.237 -1.1787  0.7775  1.3918
 4955TIP3   OH236423   5.446   0.969   1.650 -0.5857  0.4450 -0.2603
 4955TIP3    H136424   5.502   0.902   1.611  0.1239  0.4414  0.7052
 4955TIP3    H236425   5.507   1.035   1.683 -1.1853  0.7665  0.2390
 4956TIP3   OH236426   1.795   4.186   0.403 -0.1319 -0.1709  0.2418
 4956TIP3    H136427   1.797   4.165   0.309 -0.4883  0.8529 -0.0060
 4956TIP3    H236428   1.882   4.160   0.434  0.9860  1.8851 -0.9384
 4957TIP3   OH236429   0.550   3.329   0.255  0.2198 -0.0194 -0.2560
 4957TIP3    H136430   0.524   3.327   0.347  0.9667  1.5798  0.0306
 4957TIP3    H236431   0.495   3.396   0.216 -0.8142 -1.4085 -1.2412
 4958TIP3   OH236432   5.757   3.534   0.696 -0.1966  0.1637  0.2599
 4958TIP3    H136433   5.842   3.517   0.738 -0.2280 -1.5092 -0.3221
 4958TIP3    H236434   5.704   3.571   0.767  0.0542 -1.7074  1.5077
 4959TIP3   OH236435   0.237   4.550   8.130 -0.1200 -0.6244  0.2748
 4959TIP3    H136436   0.278   4.494   8.064 -0.6213  0.3316 -0.8879
 4959TIP3    H236437   0.152   4.574   8.092 -0.8940 -0.8949  1.7407
 4960TIP3   OH236438   4.200   5.459   2.175  0.2409 -0.8421  0.1150
 4960TIP3    H136439   4.116   5.421   2.201  0.6369 -1.1621  0.9876
 4960TIP3    H236440   4.266   5.396   2.207  0.7854 -1.3277 -1.8217
 4961TIP3   OH236441   4.878   3.989   2.538  0.4655 -0.3384 -0.6769
 4961TIP3    H136442   4.824   4.029   2.470  3.0152 -0.0995 -2.7404
 4961TIP3    H236443   4.828   3.999   2.619 -0.9314  3.1466 -1.7958
 4962TIP3   OH236444   6.793   5.277   1.942  0.2861  0.1633  0.2977
 4962TIP3    H136445   6.882   5.267   1.975  0.8836  0.3673 -1.1658
 4962TIP3    H236446   6.738   5.234   2.008  1.5984 -1.4034  0.4344
 4963TIP3   OH236447   4.207   1.572   7.984 -0.8495 -0.0910  0.2477
 4963TIP3    H136448   4.152   1.595   7.909  0.7712  2.5455 -0.2603
 4963TIP3    H236449   4.155   1.597   8.061 -1.1143  0.5387 -0.1340
 4964TIP3   OH236450   5.584   6.338   1.446 -0.1107  0.0609 -0.4309
 4964TIP3    H136451   5.591   6.410   1.509  0.1612 -0.4915  0.1821
 4964TIP3    H236452   5.543   6.267   1.495 -0.5833 -0.1310 -1.0942
 4965TIP3   OH236453   1.916   6.587   0.620 -0.4430  0.4219 -0.1816
 4965TIP3    H136454   1.848   6.615   0.682 -0.4208  0.9092 -0.3757
 4965TIP3    H236455   1.971   6.664   0.608 -0.3811  0.2967 -0.7241
 4966TIP3   OH236456   3.800   3.528   1.102 -0.5961 -0.3985  0.0730
 4966TIP3    H136457   3.827   3.516   1.193  1.4252  1.0087 -0.2680
 4966TIP3    H236458   3.832   3.450   1.057 -0.7174 -0.6348  0.3949
 4967TIP3   OH236459   4.094   5.179   7.926 -0.4886  0.0566 -0.0689
 4967TIP3    H136460   4.161   5.233   7.967  0.7096 -0.0170 -1.8283
 4967TIP3    H236461   4.124   5.167   7.836 -2.9830  0.2023 -0.9983
 4968TIP3   OH236462   3.995   3.693   7.864 -0.3994  0.2396 -0.3955
 4968TIP3    H136463   4.033   3.768   7.911 -1.9885  2.0891 -1.8385
 4968TIP3    H236464   3.978   3.628   7.932  0.5228  1.4110  1.0270
 4969TIP3   OH236465   3.387   2.813   1.431 -0.1470  0.1672 -0.3084
 4969TIP3    H136466   3.436   2.818   1.513  1.0305  0.2943 -0.9897
 4969TIP3    H236467   3.322   2.883   1.437 -1.8156 -1.4134  1.5593
 4970TIP3   OH236468   1.287   5.834   7.852 -0.6369 -0.5937 -0.2008
 4970TIP3    H136469   1.194   5.857   7.847 -0.7893 -1.0365  0.4193
 4970TIP3    H236470   1.332   5.916   7.873 -0.7560 -0.1463 -1.6271
 4971TIP3   OH236471   6.496   0.453   8.015  0.0476 -0.1786 -0.4598
 4971TIP3    H136472   6.427   0.430   7.953 -2.5961  0.6400  1.9745
 4971TIP3    H236473   6.479   0.399   8.092  1.3226  0.9983  0.7230
 4972TIP3   OH236474   3.505   2.326   8.199 -0.1369  0.4668 -0.3711
 4972TIP3    H136475   3.485   2.313   8.107  0.0909 -0.9154 -0.2593
 4972TIP3    H236476   3.597   2.354   8.200  0.2632 -0.7714 -0.5277
 4973TIP3   OH236477   2.450   4.457   0.038  0.6270 -0.7792  0.8016
 4973TIP3    H136478   2.493   4.533  -0.002  0.3772  0.7629  3.2207
 4973TIP3    H236479   2.369   4.493   0.075  0.5450 -2.2051  2.0798
 4974TIP3   OH236480   2.555   0.564   8.351  0.1335 -0.4457 -0.3625
 4974TIP3    H136481   2.553   0.656   8.379  1.1159 -0.1567 -1.1981
 4974TIP3    H236482   2.638   0.531   8.387 -0.3221 -1.0808  0.1244
 4975TIP3   OH236483   5.652   1.069   1.122 -0.3433 -0.0620 -0.5293
 4975TIP3    H136484   5.712   1.138   1.095 -0.7400  0.4958 -0.0031
 4975TIP3    H236485   5.577   1.078   1.063 -0.9657  0.8008  0.3686
 4976TIP3   OH236486   4.373   5.278   1.491  0.3383 -0.3127  0.1705
 4976TIP3    H136487   4.298   5.277   1.551 -0.1367  2.2271 -0.2898
 4976TIP3    H236488   4.436   5.338   1.532  1.3713 -1.0054 -0.3517
 4977TIP3   OH236489   6.502   0.231   0.087 -0.1204 -0.1731  0.5922
 4977TIP3    H136490   6.568   0.180   0.133  0.1584 -1.5592 -1.2273
 4977TIP3    H236491   6.430   0.171   0.073 -0.8152  0.6505  0.5297
 4978TIP3   OH236492   1.472   1.983   1.278 -0.0590  0.2317 -0.1425
 4978TIP3    H136493   1.377   1.983   1.281 -0.0564 -1.4694  1.0197
 4978TIP3    H236494   1.497   1.891   1.284  1.6424  0.4401 -2.4621
 4979TIP3   OH236495   4.150   5.146   3.013 -0.1424 -0.4756 -0.4283
 4979TIP3    H136496   4.063   5.178   2.988  0.1584 -0.0172 -0.9261
 4979TIP3    H236497   4.135   5.058   3.046 -0.9457 -0.0002  0.5457
 4980TIP3   OH236498   4.457   1.461   2.031  0.1673  0.6478 -0.0834
 4980TIP3    H136499   4.497   1.375   2.047 -0.9791 -0.4170 -2.4980
 4980TIP3    H236500   4.531   1.516   2.004  0.7998  0.2297  0.7294
 4981TIP3   OH236501   2.737   1.828   8.409 -0.5270  0.2177 -0.1711
 4981TIP3    H136502   2.670   1.800   8.347 -0.6654 -1.8216  0.8298
 4981TIP3    H236503   2.813   1.774   8.389 -0.0557  0.6318  0.4454
 4982TIP3   OH236504   4.577   5.187   8.823 -0.7873  0.3805 -0.2461
 4982TIP3    H136505   4.670   5.208   8.806 -0.6450 -0.5053 -0.6140
 4982TIP3    H236506   4.580   5.106   8.873 -1.3298  1.2856  1.3121
 4983TIP3   OH236507   5.508   1.822   8.265  0.2156  0.1876 -0.1686
 4983TIP3    H136508   5.454   1.834   8.344  1.5212 -0.5963  0.8919
 4983TIP3    H236509   5.519   1.910   8.230 -2.0317  0.3448 -0.6541
 4984TIP3   OH236510   4.370   6.247   7.228 -0.5772 -0.1757 -0.3783
 4984TIP3    H136511   4.409   6.228   7.142 -0.4317  1.6562 -0.7588
 4984TIP3    H236512   4.442   6.237   7.290  0.0856  1.3400 -0.8530
 4985TIP3   OH236513   3.270   4.807   7.667  0.1651  1.0673 -0.3359
 4985TIP3    H136514   3.218   4.762   7.734  0.9594  1.1241  0.3355
 4985TIP3    H236515   3.205   4.837   7.603 -0.4775 -0.1083 -0.2670
 4986TIP3   OH236516   6.795   5.608   8.372 -0.0986  0.0320  0.0376
 4986TIP3    H136517   6.815   5.572   8.458  0.5564 -0.6289 -0.3733
 4986TIP3    H236518   6.703   5.587   8.358 -0.7894  1.9287  1.4042
 4987TIP3   OH236519   3.421   3.572   0.023 -0.1213 -0.3074 -0.3402
 4987TIP3    H136520   3.468   3.492  -0.003 -0.5300 -0.5464 -0.3486
 4987TIP3    H236521   3.440   3.634  -0.047  1.6337  0.1810  0.5149
 4988TIP3   OH236522   1.952   5.108   7.302 -0.2925  0.2521 -0.3632
 4988TIP3    H136523   1.992   5.179   7.251 -0.3395  0.8275  0.3931
 4988TIP3    H236524   1.886   5.071   7.242 -0.8578  1.3889 -0.4898
 4989TIP3   OH236525   1.917   0.983   1.539  0.4660 -0.1505 -0.2005
 4989TIP3    H136526   1.887   1.011   1.626  2.6693  0.2675  0.5156
 4989TIP3    H236527   1.989   0.923   1.558  1.3981  0.4291 -1.7238
 4990TIP3   OH236528   2.019   1.351   8.606  0.4147 -0.0951  0.1613
 4990TIP3    H136529   1.998   1.259   8.588  0.2280  0.1001 -0.7029
 4990TIP3    H236530   2.084   1.374   8.540  2.3235 -0.2684  1.9014
 4991TIP3   OH236531   3.477   2.484   1.802  0.4691  0.2227 -0.3742
 4991TIP3    H136532   3.533   2.530   1.739  0.5599 -1.9328 -1.9817
 4991TIP3    H236533   3.395   2.468   1.754  0.3926 -1.1237  0.1528
 4992TIP3   OH236534   2.363   4.810   0.729  0.1916  0.3443  0.0367
 4992TIP3    H136535   2.429   4.762   0.778 -0.4261  0.4697  1.0092
 4992TIP3    H236536   2.364   4.769   0.642  1.5129  0.3339  0.0315
 4993TIP3   OH236537   0.315   0.949   0.156  0.4390  0.3169 -0.4742
 4993TIP3    H136538   0.349   0.980   0.072  0.0733 -0.1024 -0.7788
 4993TIP3    H236539   0.391   0.907   0.198  1.0572  1.9238  0.1271
 4994TIP3   OH236540   2.048   2.250   7.746 -0.1401  0.2622  0.1168
 4994TIP3    H136541   1.994   2.296   7.682  0.0962  0.2671 -0.0797
 4994TIP3    H236542   2.137   2.260   7.714 -0.1946 -1.6107 -0.7601
 4995TIP3   OH236543   2.445   2.705   2.953 -0.1159  0.3540  0.0157
 4995TIP3    H136544   2.515   2.640   2.963  0.3409  1.0108  1.3631
 4995TIP3    H236545   2.372   2.669   3.003 -0.7252 -0.2677 -1.2820
 4996TIP3   OH236546   5.437   6.344   7.307  0.4033  0.5029 -0.5346
 4996TIP3    H136547   5.466   6.255   7.326 -1.1244  0.2608  0.9659
 4996TIP3    H236548   5.389   6.337   7.225 -0.2414 -0.2122 -0.1142
 4997TIP3   OH236549   3.034   5.011   1.415  0.6432 -0.3563 -0.3705
 4997TIP3    H136550   3.002   5.023   1.326 -0.4287  0.5751  0.1201
 4997TIP3    H236551   3.080   5.092   1.435  0.8109 -0.5312 -0.0341
 4998TIP3   OH236552   4.595   4.535   1.727  0.1099 -0.2749  0.5704
 4998TIP3    H136553   4.667   4.536   1.790  0.4308  0.5654  0.2045
 4998TIP3    H236554   4.638   4.528   1.641 -0.2569 -0.0775  0.3677
 4999TIP3   OH236555   4.123   5.552   1.411 -0.3031 -0.9168 -0.0316
 4999TIP3    H136556   4.052   5.614   1.426 -1.0354 -2.0292  1.3835
 4999TIP3    H236557   4.096   5.473   1.458  1.8182 -1.4143  0.4597
 5000TIP3   OH236558   3.722   3.025   0.570  0.3794  0.2738  0.1939
 5000TIP3    H136559   3.767   2.943   0.550  1.4533  1.3833 -2.3994
 5000TIP3    H236560   3.751   3.047   0.658  0.8179 -1.6309  0.5718
 5001TIP3   OH236561   0.354   0.498   8.657 -0.0356  0.1324 -0.7567
 5001TIP3    H136562   0.410   0.493   8.735  1.3177  0.3728 -1.6861
 5001TIP3    H236563   0.378   0.581   8.616  0.0998 -0.5115 -2.0243
 5002TIP3   OH236564   5.768   1.397   1.892  0.1099 -0.5860 -0.0494
 5002TIP3    H136565   5.829   1.436   1.955  0.7125  0.5579 -1.2790
 5002TIP3    H236566   5.733   1.472   1.843  0.2640 -1.4659 -1.5831
 5003TIP3   OH236567   2.435   3.593   2.650  0.0911  0.2782 -0.2148
 5003TIP3    H136568   2.352   3.601   2.605 -0.4862 -0.2472  0.7111
 5003TIP3    H236569   2.434   3.662   2.716  0.0480 -0.2016  0.2970
 5004TIP3   OH236570   1.852   4.275   3.157  0.3473  0.2855 -0.0778
 5004TIP3    H136571   1.845   4.354   3.103  1.4559  0.4213 -0.0642
 5004TIP3    H236572   1.940   4.242   3.138 -0.9822 -2.4269 -2.0520
 5005TIP3   OH236573   6.266   1.773   1.981 -0.2762 -0.7723 -0.0238
 5005TIP3    H136574   6.222   1.790   1.898 -1.7797 -1.9116  0.4934
 5005TIP3    H236575   6.319   1.695   1.964  1.0218  0.1628 -0.4360
 5006TIP3   OH236576   2.826   2.405   7.947 -0.2012 -0.0505  0.0563
 5006TIP3    H136577   2.748   2.388   7.894 -0.0533 -0.5470 -0.0037
 5006TIP3    H236578   2.798   2.473   8.009 -0.0939  1.2820 -1.2938
 5007TIP3   OH236579   1.114   1.582   7.473  0.0190 -0.1226  0.7853
 5007TIP3    H136580   1.155   1.503   7.436 -0.9900  0.1319 -0.9710
 5007TIP3    H236581   1.021   1.560   7.478 -0.1269  0.5889  1.3542
 5008TIP3   OH236582   3.033   4.613   1.365 -0.0759  0.3945  0.7111
 5008TIP3    H136583   3.014   4.690   1.419 -2.6682  1.0317 -0.9583
 5008TIP3    H236584   3.109   4.638   1.313  0.5152  0.9191  1.7781
 5009TIP3   OH236585   3.580   5.274   8.215 -0.1970 -0.4140  0.1281
 5009TIP3    H136586   3.564   5.368   8.224  0.2526 -0.3674  0.5007
 5009TIP3    H236587   3.635   5.252   8.290 -0.6863 -1.0738  0.2946
 5010TIP3   OH236588   6.355   0.196   1.678  0.5227  0.3547 -0.0707
 5010TIP3    H136589   6.314   0.282   1.685 -0.9504 -0.2963 -0.2498
 5010TIP3    H236590   6.442   0.207   1.718  0.2815  1.8565  0.0864
 5011TIP3   OH236591   2.326   2.324   3.110  0.6897  0.2845  0.4292
 5011TIP3    H136592   2.306   2.231   3.120 -1.5477  0.6165 -0.3149
 5011TIP3    H236593   2.337   2.336   3.016 -0.7590  1.0284  0.3219
 5012TIP3   OH236594   5.382   2.779   1.541 -0.1483  0.3113 -0.7611
 5012TIP3    H136595   5.288   2.794   1.553 -0.2155 -0.5851 -0.0442
 5012TIP3    H236596   5.395   2.784   1.447 -0.6095  2.1088 -0.7660
 5013TIP3   OH236597   3.705   2.394   8.480  0.9695 -0.1233 -0.4475
 5013TIP3    H136598   3.685   2.322   8.540  3.1573  0.1571  0.7453
 5013TIP3    H236599   3.681   2.361   8.394  1.4312 -2.1145  0.1318
 5014TIP3   OH236600   1.291   0.829   8.301 -0.2940  0.2036  0.2605
 5014TIP3    H136601   1.302   0.835   8.395 -0.5629  1.5643  0.2356
 5014TIP3    H236602   1.345   0.900   8.266 -0.5240 -0.0211 -0.5767
 5015TIP3   OH236603   4.804   0.063   7.144  0.8283 -0.7242  0.1469
 5015TIP3    H136604   4.846   0.147   7.128 -0.0153  0.4474  3.3392
 5015TIP3    H236605   4.858   0.021   7.210 -1.2623 -0.5223  2.0824
 5016TIP3   OH236606   1.910   0.874   1.084  0.2432  0.3219 -0.0955
 5016TIP3    H136607   1.973   0.813   1.121 -2.0620 -2.4585 -0.4320
 5016TIP3    H236608   1.872   0.919   1.159  0.9721  0.3802  0.2495
 5017TIP3   OH236609   6.544   1.061   0.787 -0.1229  0.0973  0.0999
 5017TIP3    H136610   6.576   0.971   0.790 -0.2575  0.0661  0.8910
 5017TIP3    H236611   6.584   1.098   0.708  0.0764 -0.5991 -0.1359
 5018TIP3   OH236612   4.311   5.938   0.043 -0.0558  0.2802  0.4591
 5018TIP3    H136613   4.222   5.906   0.060 -0.4455  0.4912 -1.0536
 5018TIP3    H236614   4.302   5.996  -0.033  0.9867  2.2885  1.7632
 5019TIP3   OH236615   2.540   1.166   0.333 -0.2917 -0.2735  0.3483
 5019TIP3    H136616   2.573   1.160   0.422 -0.3841 -0.4800  0.3673
 5019TIP3    H236617   2.565   1.083   0.292  0.8644  0.3143 -0.1902
 5020TIP3   OH236618   6.082   6.358   8.416  0.1411 -0.5328 -0.4924
 5020TIP3    H136619   6.167   6.386   8.383  0.2030 -0.2947 -0.1352
 5020TIP3    H236620   6.069   6.410   8.496 -1.1274  0.7492 -1.4829
 5021TIP3   OH236621   1.281   0.974   7.072  0.4138  0.0556  0.6669
 5021TIP3    H136622   1.270   0.879   7.070 -0.9800  0.1903  0.6471
 5021TIP3    H236623   1.324   0.992   7.156  1.2389 -0.6274  0.4001
 5022TIP3   OH236624   2.608   0.110   2.418 -0.0813 -0.2010  0.2247
 5022TIP3    H136625   2.527   0.153   2.388  0.6606  0.3411 -1.0656
 5022TIP3    H236626   2.677   0.173   2.397  0.8488 -1.3457 -0.2060
 5023TIP3   OH236627   5.085   2.448   8.146  0.1724 -0.5198  0.4912
 5023TIP3    H136628   5.131   2.383   8.092  0.4461 -0.3905  0.5633
 5023TIP3    H236629   5.152   2.479   8.207  0.0487 -0.1451  0.4364
 5024TIP3   OH236630   0.098   0.215   1.084  0.5027 -0.3090  0.1181
 5024TIP3    H136631   0.183   0.174   1.067  0.1087 -0.4244 -1.7182
 5024TIP3    H236632   0.036   0.167   1.029 -0.3637  1.2686 -0.3235
 5025TIP3   OH236633   5.560   2.586   0.094 -0.0052 -0.5465  0.1736
 5025TIP3    H136634   5.637   2.530   0.095 -0.0595 -0.6458 -0.7435
 5025TIP3    H236635   5.595   2.674   0.079 -0.0243 -0.5090  0.3462
 5026TIP3   OH236636   4.236   2.276   7.034 -0.0359 -0.3513  0.0140
 5026TIP3    H136637   4.312   2.322   7.069 -0.0621 -0.6992  0.5376
 5026TIP3    H236638   4.163   2.338   7.047  0.2060  0.1210 -0.8029
 5027TIP3   OH236639   4.021   3.280   8.708 -0.2571  0.4808 -0.6040
 5027TIP3    H136640   4.013   3.262   8.615  0.1353  0.6972 -0.6821
 5027TIP3    H236641   4.098   3.338   8.715  0.3114 -0.3182 -0.0510
 5028TIP3   OH236642   4.702   0.187   7.507 -0.3874 -0.4169  0.3410
 5028TIP3    H136643   4.792   0.216   7.520 -0.2094 -0.7617 -0.0764
 5028TIP3    H236644   4.650   0.241   7.567  0.1345 -0.4523  0.8381
 5029TIP3   OH236645   3.360   1.768   1.542 -0.4072  0.0794 -0.2500
 5029TIP3    H136646   3.390   1.814   1.620 -2.8408  0.2645  0.6880
 5029TIP3    H236647   3.308   1.695   1.577 -3.3234  1.3495 -1.5709
 5030TIP3   OH236648   6.431   2.849   7.945 -0.8073  0.2554 -0.0174
 5030TIP3    H136649   6.507   2.893   7.907  0.0123 -0.6600  0.5080
 5030TIP3    H236650   6.369   2.840   7.872  0.2092 -0.3205 -0.8404
 5031TIP3   OH236651   1.551   0.383   8.654  0.3744 -0.4032  0.4462
 5031TIP3    H136652   1.619   0.449   8.645 -0.5840  0.4439 -0.8029
 5031TIP3    H236653   1.484   0.425   8.709  0.1714 -0.6817  0.4129
 5032TIP3   OH236654   3.105   5.383   0.003  0.2268  0.2505 -0.4891
 5032TIP3    H136655   3.164   5.328   0.056  1.8412  0.0097 -2.4251
 5032TIP3    H236656   3.055   5.321  -0.050  0.6812  0.5529 -1.2927
 5033TIP3   OH236657   0.765   5.582   1.104 -0.2659  0.9991  0.1884
 5033TIP3    H136658   0.766   5.487   1.097 -2.2373  0.9726 -0.1521
 5033TIP3    H236659   0.794   5.613   1.018  0.8684  0.7466  0.4555
 5034TIP3   OH236660   4.189   5.445   0.570  0.0913 -0.6464 -0.1791
 5034TIP3    H136661   4.233   5.416   0.489 -0.5545 -0.1389 -0.7282
 5034TIP3    H236662   4.128   5.513   0.540 -1.0259 -1.2974  0.5795
 5035TIP3   OH236663   3.931   0.812   8.354 -0.1661 -0.9120  0.2534
 5035TIP3    H136664   3.871   0.775   8.289  0.5091  0.7942 -1.4152
 5035TIP3    H236665   3.999   0.745   8.365  0.2264 -0.8367 -1.5444
 5036TIP3   OH236666   3.696   5.395   8.602  0.3606  0.5888 -0.6524
 5036TIP3    H136667   3.628   5.462   8.614 -0.6222 -0.3626 -0.7122
 5036TIP3    H236668   3.764   5.438   8.549  0.1044  1.7571 -0.0512
 5037TIP3   OH236669   3.843   6.329   0.535 -0.3378 -0.2080  0.5687
 5037TIP3    H136670   3.820   6.247   0.578 -0.2953 -0.0866  0.8263
 5037TIP3    H236671   3.937   6.338   0.550 -0.4119  0.0767  0.8711
 5038TIP3   OH236672   2.183   0.795   2.161  0.4071  0.6676  0.1322
 5038TIP3    H136673   2.157   0.815   2.071 -0.3409 -0.8174 -0.0213
 5038TIP3    H236674   2.168   0.876   2.209  0.9216  1.5170 -1.0922
 5039TIP3   OH236675   6.287   0.258   1.300  0.4439  0.7977  0.4988
 5039TIP3    H136676   6.279   0.242   1.394 -0.4755  2.2485  0.6917
 5039TIP3    H236677   6.357   0.199   1.272  0.6734  0.2737  2.0675
 5040TIP3   OH236678   1.910   2.963   0.952  0.9263  0.1861 -0.6901
 5040TIP3    H136679   1.852   2.905   0.902  1.4105  1.3935 -2.7940
 5040TIP3    H236680   1.986   2.909   0.972  0.3073 -0.6017 -0.3930
 5041TIP3   OH236681   0.884   3.480   8.329 -0.5814  0.1734 -0.5330
 5041TIP3    H136682   0.912   3.429   8.253  0.7735 -0.9478  0.6581
 5041TIP3    H236683   0.965   3.495   8.379 -1.3845  1.1714  0.5169
 5042TIP3   OH236684   6.141   4.984   2.125  0.6706  0.5829  0.2040
 5042TIP3    H136685   6.208   5.013   2.187  0.2020 -0.8535  1.4361
 5042TIP3    H236686   6.164   4.892   2.107 -0.7002  0.2138  0.2735
 5043TIP3   OH236687   0.432   0.855   2.190 -0.2495  0.1394  0.4732
 5043TIP3    H136688   0.509   0.876   2.243  1.1415 -1.6301 -0.6957
 5043TIP3    H236689   0.460   0.780   2.136 -2.5885 -0.1344 -0.4877
 5044TIP3   OH236690   5.543   5.172   0.064  0.4720  0.8181 -0.3750
 5044TIP3    H136691   5.547   5.211  -0.023  0.1824  1.2595 -0.1924
 5044TIP3    H236692   5.471   5.217   0.108 -0.5560 -0.6135 -0.5087
 5045TIP3   OH236693   0.487   5.222   7.869 -0.2657 -0.6680  0.0057
 5045TIP3    H136694   0.505   5.314   7.885  2.0036 -1.0238 -0.1583
 5045TIP3    H236695   0.422   5.222   7.799  0.6743  0.8337 -0.9318
 5046TIP3   OH236696   6.112   2.954   0.934 -0.9263  0.5818 -0.1772
 5046TIP3    H136697   6.117   3.048   0.917 -0.0087  0.5406 -0.1946
 5046TIP3    H236698   6.115   2.946   1.029  1.6579  0.4873 -0.1847
 5047TIP3   OH236699   0.704   4.852   8.073 -0.3488  0.0336  0.5574
 5047TIP3    H136700   0.675   4.941   8.094  0.1093  0.0924  0.9628
 5047TIP3    H236701   0.623   4.803   8.059 -0.5968  0.6173 -0.1259
 5048TIP3   OH236702   6.733   1.763   1.104 -0.2689  0.0733 -0.1971
 5048TIP3    H136703   6.721   1.676   1.067 -0.5052  0.7435 -1.8210
 5048TIP3    H236704   6.644   1.792   1.125 -0.4127  0.6475 -1.4997
 5049TIP3   OH236705   2.287   3.585   2.409  0.2170 -0.3458 -0.2876
 5049TIP3    H136706   2.332   3.633   2.339  1.0256 -0.3891  0.1880
 5049TIP3    H236707   2.255   3.505   2.367 -0.5716  0.2953 -0.9347
 5050TIP3   OH236708   5.456   0.139   8.748 -0.1657 -0.2415  0.0194
 5050TIP3    H136709   5.509   0.088   8.687  1.0261  0.9158  0.0391
 5050TIP3    H236710   5.519   0.188   8.801 -1.2022 -0.2756  1.3658
 5051TIP3   OH236711   6.267   2.287   2.399 -0.4276  0.3158  0.0032
 5051TIP3    H136712   6.181   2.329   2.389 -0.6877 -0.4105 -1.1035
 5051TIP3    H236713   6.328   2.359   2.408 -1.2633  0.8340  2.0017
 5052TIP3   OH236714   2.207   4.461   0.695 -0.5098  0.2743 -0.0694
 5052TIP3    H136715   2.282   4.402   0.688 -1.3227 -0.8697  0.4929
 5052TIP3    H236716   2.228   4.520   0.768 -0.4958 -0.5764  0.6293
 5053TIP3   OH236717   2.968   4.112   8.763 -0.1998  0.3627  0.0561
 5053TIP3    H136718   2.967   4.021   8.735  1.6728 -0.2809  1.7821
 5053TIP3    H236719   3.037   4.152   8.710 -0.6406  0.6513 -0.3083
 5054TIP3   OH236720   2.687   2.876   1.080  0.0242  0.1111  0.0155
 5054TIP3    H136721   2.773   2.838   1.100 -0.2509 -0.0063  1.0360
 5054TIP3    H236722   2.707   2.956   1.031  0.7046 -0.1183 -0.0904
 5055TIP3   OH236723   1.614   6.644   1.316 -0.8013  0.0085 -0.1986
 5055TIP3    H136724   1.607   6.548   1.315  0.6829 -0.1366 -2.1871
 5055TIP3    H236725   1.535   6.674   1.270  0.0117 -0.4472 -1.9884
 5056TIP3   OH236726   2.935   4.205   1.867 -0.6130 -0.5746  0.2211
 5056TIP3    H136727   2.852   4.246   1.842  0.6445  3.4583  1.8340
 5056TIP3    H236728   2.985   4.203   1.785 -1.3566 -0.5228 -0.2485
 5057TIP3   OH236729   0.676   4.454   2.342  0.1441  0.4854 -0.0517
 5057TIP3    H136730   0.694   4.507   2.419 -2.0097 -0.6948  1.3379
 5057TIP3    H236731   0.590   4.483   2.312 -0.0795 -0.6964 -0.6032
 5058TIP3   OH236732   0.327   4.134   0.796 -0.4275  0.4097  0.1378
 5058TIP3    H136733   0.399   4.091   0.841  0.3534 -0.0685 -1.4944
 5058TIP3    H236734   0.251   4.078   0.813 -0.0452 -0.0221  0.4403
 5059TIP3   OH236735   0.195   2.997   0.194  0.2395 -0.6292  0.1503
 5059TIP3    H136736   0.122   3.048   0.230  0.0053  0.0947 -1.2520
 5059TIP3    H236737   0.259   2.992   0.265 -0.5377  0.0112  0.9190
 5060TIP3   OH236738   1.336   5.026   8.078  0.2462  0.3878 -0.0456
 5060TIP3    H136739   1.276   4.955   8.102  0.3460  0.0043 -0.8991
 5060TIP3    H236740   1.409   4.983   8.035 -0.2073  1.0762 -1.5737
 5061TIP3   OH236741   1.163   6.470   2.459 -0.3199  0.7391 -0.0190
 5061TIP3    H136742   1.122   6.465   2.545 -1.4419  1.6110 -0.4829
 5061TIP3    H236743   1.250   6.432   2.472 -0.8736 -0.1764  1.2326
 5062TIP3   OH236744   1.526   2.658   8.820 -0.1017 -0.8142  0.1391
 5062TIP3    H136745   1.594   2.611   8.770  0.7963 -1.0537  1.5043
 5062TIP3    H236746   1.574   2.726   8.868 -0.8748 -0.7534  0.8602
 5063TIP3   OH236747   1.058   3.591   0.283 -0.1774 -0.3138 -0.6033
 5063TIP3    H136748   1.104   3.508   0.291  2.5483  1.2708  2.7060
 5063TIP3    H236749   1.006   3.597   0.364 -1.4896  0.6265 -1.4682
 5064TIP3   OH236750   6.557   1.850   7.582 -0.4907  0.7597  0.1089
 5064TIP3    H136751   6.518   1.910   7.518 -0.9829 -1.9325 -2.3076
 5064TIP3    H236752   6.530   1.763   7.553  0.9322 -0.7583  2.9143
 5065TIP3   OH236753   6.015   4.604   7.848  0.3007 -0.0570  0.3126
 5065TIP3    H136754   5.929   4.593   7.806  0.8641 -1.5061 -0.5116
 5065TIP3    H236755   5.997   4.659   7.924 -1.2810  0.0586 -0.1083
 5066TIP3   OH236756   3.999   2.139   1.586  0.1419 -0.3201  0.3609
 5066TIP3    H136757   3.971   2.132   1.678  1.0728  2.4465  0.9584
 5066TIP3    H236758   3.917   2.152   1.537 -0.1843  1.9106  1.3489
 5067TIP3   OH236759   1.456   6.060   1.464  0.3263 -0.0014  0.6118
 5067TIP3    H136760   1.452   6.017   1.550  0.0643 -0.8955  0.1683
 5067TIP3    H236761   1.435   6.151   1.482  3.2754  0.5404  1.9493
 5068TIP3   OH236762   5.816   5.067   0.681 -0.4849  0.2366  0.4417
 5068TIP3    H136763   5.814   5.018   0.763  0.1596  1.6766  1.3673
 5068TIP3    H236764   5.736   5.120   0.683 -1.5931 -1.2994 -0.9284
 5069TIP3   OH236765   2.808   3.485   2.970  0.0307  0.4479 -0.1651
 5069TIP3    H136766   2.756   3.560   2.997  1.1513  0.7996  1.1386
 5069TIP3    H236767   2.750   3.410   2.982 -0.1724  0.8189  1.3341
 5070TIP3   OH236768   4.225   4.516   0.547  0.4742 -0.1240 -0.6563
 5070TIP3    H136769   4.218   4.435   0.598  0.2920  1.3816  1.8777
 5070TIP3    H236770   4.319   4.536   0.547  0.6040 -0.6551 -1.8852
 5071TIP3   OH236771   0.914   0.122   8.646  0.0631 -0.3967  0.1070
 5071TIP3    H136772   0.915   0.152   8.556 -1.2061 -0.5382  0.0332
 5071TIP3    H236773   0.983   0.173   8.689 -0.5014  0.9354 -0.5385
 5072TIP3   OH236774   4.761   4.675   0.508  0.1591  0.1472 -0.3236
 5072TIP3    H136775   4.837   4.631   0.544  0.3043  0.6435 -0.0215
 5072TIP3    H236776   4.775   4.768   0.527 -0.8776  0.1718  0.4202
 5073TIP3   OH236777   4.051   5.467   7.678 -0.0635  0.0202 -0.2874
 5073TIP3    H136778   3.962   5.482   7.645  0.5964  0.6048 -1.9117
 5073TIP3    H236779   4.048   5.497   7.769 -1.6842 -0.6175 -0.0936
 5074TIP3   OH236780   6.549   2.622   1.113  0.3815  0.0989  0.8766
 5074TIP3    H136781   6.526   2.535   1.145  1.8510  0.0546  1.9424
 5074TIP3    H236782   6.598   2.606   1.032  0.4864 -0.0683  0.9720
 5075TIP3   OH236783   5.365   4.328   7.544  0.3351  0.1522 -0.2301
 5075TIP3    H136784   5.359   4.278   7.463 -1.3119  0.1862 -0.1589
 5075TIP3    H236785   5.401   4.266   7.608 -0.0712 -0.4256 -0.5557
 5076TIP3   OH236786   1.617   5.266   8.284  0.2674  0.5862  0.1643
 5076TIP3    H136787   1.603   5.177   8.317  0.5120  0.3637 -0.3262
 5076TIP3    H236788   1.712   5.277   8.287  0.2734  0.6458 -0.2558
 5077TIP3   OH236789   4.832   1.854   2.395 -0.7676  0.1668  0.1146
 5077TIP3    H136790   4.927   1.844   2.402 -0.3596  0.5439 -3.1312
 5077TIP3    H236791   4.819   1.948   2.384 -1.6681  0.2332  1.5257
 5078TIP3   OH236792   0.484   5.167   1.414 -0.1416  0.5579 -0.3726
 5078TIP3    H136793   0.541   5.093   1.395 -1.2288  0.3839 -3.4210
 5078TIP3    H236794   0.467   5.160   1.508  1.0625 -2.0829 -0.2511
 5079TIP3   OH236795   1.717   6.559   2.476 -0.6560  0.0897  0.1358
 5079TIP3    H136796   1.677   6.487   2.525  1.9513 -1.1496  0.6217
 5079TIP3    H236797   1.780   6.598   2.537 -0.1014  1.0352 -0.9935
 5080TIP3   OH236798   4.773   2.848   7.839  0.1894  0.3131  0.0015
 5080TIP3    H136799   4.756   2.770   7.786 -0.7821  0.0351  0.6996
 5080TIP3    H236800   4.758   2.820   7.929 -2.2558  1.7907  0.1500
 5081TIP3   OH236801   4.143   5.462   8.301 -0.3276 -0.1155 -0.0405
 5081TIP3    H136802   4.187   5.501   8.226 -0.3498  0.2972  0.1576
 5081TIP3    H236803   4.086   5.395   8.264 -1.4828  1.0985 -0.5365
 5082TIP3   OH236804   0.782   4.479   0.621 -0.1909 -0.2633 -0.5364
 5082TIP3    H136805   0.742   4.563   0.640  1.0724  0.1677  0.3499
 5082TIP3    H236806   0.857   4.473   0.681 -1.0192 -2.6052  0.3979
 5083TIP3   OH236807   4.439   0.002   1.960  0.2188  0.5885  0.2462
 5083TIP3    H136808   4.434  -0.081   1.912 -0.8063  1.4059 -1.1331
 5083TIP3    H236809   4.365  -0.001   2.020  0.8113  0.0701  0.9721
 5084TIP3   OH236810   0.234   2.417   8.445  0.3816 -0.2551  0.1221
 5084TIP3    H136811   0.170   2.480   8.480 -0.6352 -0.8721 -0.5905
 5084TIP3    H236812   0.308   2.422   8.506 -0.2110  0.6944  0.7936
 5085TIP3   OH236813   3.063   4.910   7.855  0.4566  0.2815 -0.4746
 5085TIP3    H136814   3.077   4.993   7.900  0.9768 -0.4788  0.8323
 5085TIP3    H236815   3.054   4.934   7.763  1.3476  1.7109 -0.2238
 5086TIP3   OH236816   6.416   2.051   0.127 -0.1442 -0.7149 -0.1331
 5086TIP3    H136817   6.437   1.976   0.071 -0.0835 -0.7809 -0.0234
 5086TIP3    H236818   6.360   2.014   0.196 -0.1764 -0.6445 -0.1212
 5087TIP3   OH236819   4.425   6.431   0.593 -0.1205  0.1818  0.7917
 5087TIP3    H136820   4.387   6.357   0.546 -0.2665  0.0939  1.0484
 5087TIP3    H236821   4.448   6.397   0.679 -0.6661  0.5591  1.0956
 5088TIP3   OH236822   4.139   0.224   2.735 -0.1685  0.3251  0.0000
 5088TIP3    H136823   4.151   0.299   2.793  0.2817  1.2367 -1.2428
 5088TIP3    H236824   4.061   0.180   2.769 -0.6554  1.5480  0.5310
 5089TIP3   OH236825   1.494   3.464   1.765 -0.5191  0.1812  0.0509
 5089TIP3    H136826   1.444   3.384   1.751 -0.1694 -0.1119  0.4024
 5089TIP3    H236827   1.429   3.532   1.781 -0.8172 -0.0531 -0.1748
 5090TIP3   OH236828   2.163   0.252   0.835 -0.3190  0.0079 -0.0940
 5090TIP3    H136829   2.227   0.204   0.886 -0.1100  0.3664 -0.0175
 5090TIP3    H236830   2.109   0.184   0.795 -0.4662 -0.2735  0.5724
 5091TIP3   OH236831   6.288   0.280   6.690  0.0644 -0.2766  0.2228
 5091TIP3    H136832   6.313   0.194   6.724 -1.7097 -0.8990  0.0692
 5091TIP3    H236833   6.312   0.341   6.760  0.0222 -1.0805  0.9596
 5092TIP3   OH236834   4.574   2.579   1.834 -0.3152  0.0907  0.0551
 5092TIP3    H136835   4.663   2.600   1.864 -1.0230  0.8477  1.7165
 5092TIP3    H236836   4.536   2.663   1.810 -1.1905  0.0066  1.1128
 5093TIP3   OH236837   1.790   1.157   0.053 -0.3287  0.1591  0.2857
 5093TIP3    H136838   1.862   1.188   0.107  1.1908 -1.3589 -0.7755
 5093TIP3    H236839   1.768   1.231  -0.003  1.0176  0.3872  0.0315
 5094TIP3   OH236840   5.627   4.062   1.149  0.0454 -0.1313 -0.2203
 5094TIP3    H136841   5.689   4.012   1.095 -0.6488  0.7771 -1.9649
 5094TIP3    H236842   5.621   4.146   1.105 -1.7707  0.1009  0.4037
 5095TIP3   OH236843   0.112   5.594   0.729  0.5485  0.3334  0.6654
 5095TIP3    H136844   0.135   5.574   0.819 -1.5855  1.3256  1.5071
 5095TIP3    H236845   0.017   5.582   0.726  0.7363 -1.4531 -1.9486
 5096TIP3   OH236846   0.719   3.820   1.306  0.1133  0.6850 -0.0815
 5096TIP3    H136847   0.765   3.866   1.236 -2.0951 -0.7729 -2.6776
 5096TIP3    H236848   0.771   3.742   1.323  0.1096  0.5020 -0.9084
 5097TIP3   OH236849   1.589   6.415   2.698 -0.0877  0.2365 -0.1753
 5097TIP3    H136850   1.580   6.484   2.763  0.1290  0.6471 -0.5767
 5097TIP3    H236851   1.574   6.334   2.747 -2.4463  0.6429 -0.0874
 5098TIP3   OH236852   4.545   0.465   8.575 -0.0643 -0.0110  0.4651
 5098TIP3    H136853   4.450   0.462   8.584 -0.0303  0.3266  0.9322
 5098TIP3    H236854   4.565   0.395   8.513 -0.6945  0.4400 -0.2767
 5099TIP3   OH236855   6.666   1.681   7.280  0.4426  0.1215 -0.1087
 5099TIP3    H136856   6.581   1.726   7.277  1.0525  1.3253  0.2520
 5099TIP3    H236857   6.679   1.650   7.190 -0.4019 -0.1333 -0.1539
 5100TIP3   OH236858   5.319   0.044   8.351  0.0943 -0.3639  0.4480
 5100TIP3    H136859   5.380   0.065   8.280 -1.8981 -0.5563 -1.4322
 5100TIP3    H236860   5.319   0.122   8.407  1.3015  0.0283 -0.0765
 5101TIP3   OH236861   2.986   6.558   7.896  0.0169  0.5154  0.4234
 5101TIP3    H136862   2.908   6.606   7.868  0.4219  0.0866 -1.5943
 5101TIP3    H236863   3.059   6.618   7.877  0.3263  0.1297  0.3837
 5102TIP3   OH236864   4.107   2.596   1.257 -0.5006 -0.2314  0.2938
 5102TIP3    H136865   4.195   2.563   1.241  0.5236  1.3107  2.2798
 5102TIP3    H236866   4.098   2.671   1.199 -0.3268 -0.1337  0.3920
 5103TIP3   OH236867   1.114   3.786   1.303 -0.1970  0.0773  0.0630
 5103TIP3    H136868   1.185   3.775   1.366  0.7683 -0.9248 -1.1382
 5103TIP3    H236869   1.102   3.881   1.297 -1.0587  0.1892  2.4958
 5104TIP3   OH236870   3.295   5.318   2.637  0.1419  0.3042  0.2095
 5104TIP3    H136871   3.244   5.245   2.674 -2.9678  2.5106  0.6696
 5104TIP3    H236872   3.356   5.342   2.708 -0.6260 -0.1962  1.0673
 5105TIP3   OH236873   2.867   2.345   2.503 -0.0933  0.0298  0.4884
 5105TIP3    H136874   2.825   2.297   2.574 -1.4248  0.1925 -0.1471
 5105TIP3    H236875   2.846   2.437   2.521  0.7784  0.2045  0.6471
 5106TIP3   OH236876   3.172   4.783   2.686 -0.6667  0.0153 -0.2045
 5106TIP3    H136877   3.229   4.812   2.615 -1.2883 -0.3162 -0.8483
 5106TIP3    H236878   3.192   4.691   2.698  0.3911  0.3771  0.9723
 5107TIP3   OH236879   1.231   3.705   0.542  0.2868 -0.3809  0.1652
 5107TIP3    H136880   1.186   3.773   0.493 -0.4801  0.6001  2.1016
 5107TIP3    H236881   1.322   3.736   0.548  0.3181 -0.3693 -0.3913
 5108TIP3   OH236882   1.412   2.909   8.303  0.3834  0.0742 -0.7080
 5108TIP3    H136883   1.412   2.921   8.398  1.7731  2.7212 -0.9593
 5108TIP3    H236884   1.492   2.859   8.286 -0.0178 -0.6577 -0.4756
 5109TIP3   OH236885   0.582   0.721   7.578 -0.4550  0.9990 -0.1149
 5109TIP3    H136886   0.618   0.726   7.490  0.6689  0.9878  0.3337
 5109TIP3    H236887   0.596   0.630   7.605  2.1870  1.7261  1.2720
 5110TIP3   OH236888   5.661   6.537   1.628  0.0024  0.3168 -0.2541
 5110TIP3    H136889   5.580   6.578   1.656  0.3874  1.7730 -1.1671
 5110TIP3    H236890   5.721   6.610   1.611  0.6458 -0.5866 -2.1884
 5111TIP3   OH236891   3.608   4.648   8.712 -0.4689  0.1539 -0.4373
 5111TIP3    H136892   3.525   4.630   8.757 -1.7607  0.0890 -2.6854
 5111TIP3    H236893   3.633   4.564   8.674  1.3199 -0.1094  1.1893
 5112TIP3   OH236894   6.199   4.015   2.051 -0.4767  1.2216  0.0423
 5112TIP3    H136895   6.210   3.987   1.960  2.4493 -0.7279  0.8388
 5112TIP3    H236896   6.148   3.945   2.091  0.5419  0.6841  0.4369
 5113TIP3   OH236897   5.343   4.916   8.304 -0.4151  0.6773  0.0940
 5113TIP3    H136898   5.249   4.902   8.309 -0.4232  0.4073 -0.7013
 5113TIP3    H236899   5.357   4.953   8.217  0.3309 -0.3065 -0.2247
 5114TIP3   OH236900   4.788   3.848   8.730  0.8277 -0.4141  0.6328
 5114TIP3    H136901   4.702   3.855   8.772  0.1183 -0.9086 -0.6779
 5114TIP3    H236902   4.846   3.903   8.783 -0.5013  0.6771  0.9871
 5115TIP3   OH236903   5.385   1.315   2.054 -0.3166 -0.0555 -0.4218
 5115TIP3    H136904   5.462   1.310   1.997 -0.7691 -0.6479 -0.9957
 5115TIP3    H236905   5.364   1.223   2.072 -0.8113  0.1099 -0.1614
 5116TIP3   OH236906   2.383   3.924   2.666  0.4384  0.0325  0.5886
 5116TIP3    H136907   2.411   3.860   2.731  1.6227 -2.2926 -1.9866
 5116TIP3    H236908   2.290   3.905   2.652  0.1533  0.6100  1.6093
 5117TIP3   OH236909   1.517   6.133   1.211  0.1091 -0.3921 -0.2962
 5117TIP3    H136910   1.538   6.062   1.150  0.9189 -1.3995  1.0984
 5117TIP3    H236911   1.508   6.089   1.296 -2.3618  0.7679  0.1246
 5118TIP3   OH236912   3.381   0.140   1.022  0.0389  0.1104  0.1005
 5118TIP3    H136913   3.379   0.180   0.935 -1.0038 -0.0232  0.0559
 5118TIP3    H236914   3.347   0.052   1.008  0.9699 -0.3231  0.4519
 5119TIP3   OH236915   1.675   4.861   1.802 -0.1355  0.0623 -0.5791
 5119TIP3    H136916   1.696   4.768   1.809 -1.7554 -0.3773 -1.0995
 5119TIP3    H236917   1.634   4.883   1.886 -1.3521 -0.1734 -1.0804
 5120TIP3   OH236918   0.499   5.256   0.368 -0.2687  0.2118  0.0030
 5120TIP3    H136919   0.567   5.234   0.304 -0.1505  0.8954 -0.1138
 5120TIP3    H236920   0.427   5.292   0.315 -0.9759 -1.0681  0.0627
 5121TIP3   OH236921   3.265   6.439   8.371 -0.2865  0.3182  0.2512
 5121TIP3    H136922   3.236   6.402   8.287  1.5125 -0.1063 -0.2190
 5121TIP3    H236923   3.208   6.397   8.436 -0.1707 -1.1559 -0.5405
 5122TIP3   OH236924   6.210   6.236   2.459 -0.0240 -0.0180 -0.0770
 5122TIP3    H136925   6.203   6.288   2.539 -1.0882 -1.4303  0.8130
 5122TIP3    H236926   6.254   6.293   2.396  2.1467  0.6689  1.9219
 5123TIP3   OH236927   1.342   4.309   1.317 -0.5308  0.6537 -0.2248
 5123TIP3    H136928   1.249   4.287   1.318 -0.2839 -0.4985 -0.9662
 5123TIP3    H236929   1.386   4.225   1.305  0.8354  0.5921  3.8031
 5124TIP3   OH236930   3.178   3.775   8.758 -0.0154  0.0521 -0.5361
 5124TIP3    H136931   3.083   3.774   8.749 -0.2415 -0.1180  1.4464
 5124TIP3    H236932   3.203   3.866   8.743 -0.6129  0.3077  0.0139
 5125TIP3   OH236933   6.248   6.164   0.369  0.1958  0.0537  0.1165
 5125TIP3    H136934   6.338   6.139   0.350  0.3974  0.0479  1.0613
 5125TIP3    H236935   6.197   6.126   0.297  0.8317 -0.6931  0.0525
 5126TIP3   OH236936   6.218   0.593   8.124 -0.1350  0.3858  0.3074
 5126TIP3    H136937   6.232   0.582   8.218  0.3093  0.3277  0.2372
 5126TIP3    H236938   6.275   0.665   8.099 -1.9798  1.9902  0.4904
 5127TIP3   OH236939   0.985   5.834   0.269 -0.0495  0.3046 -0.6456
 5127TIP3    H136940   0.973   5.915   0.319  0.4272  0.3550 -0.6035
 5127TIP3    H236941   1.080   5.820   0.269 -0.0940 -0.0063 -1.0506
 5128TIP3   OH236942   3.580   2.153   1.211  0.1047 -0.0627 -0.6500
 5128TIP3    H136943   3.594   2.211   1.286  2.7482  0.4234 -1.4101
 5128TIP3    H236944   3.648   2.086   1.220 -0.1496 -0.5432 -2.0879
 5129TIP3   OH236945   4.509   3.970   8.345  0.3608 -0.0680  0.0242
 5129TIP3    H136946   4.568   4.039   8.313  1.1346 -1.1470 -0.9439
 5129TIP3    H236947   4.559   3.889   8.335 -0.7451 -0.8482  0.6039
 5130TIP3   OH236948   5.318   0.867   8.262 -0.2333  0.2538  0.3543
 5130TIP3    H136949   5.401   0.869   8.215 -0.9841 -2.2817 -1.2397
 5130TIP3    H236950   5.326   0.793   8.322 -1.6142 -0.6113 -0.4679
 5131TIP3   OH236951   1.812   0.001   2.800  0.2018 -0.0006  0.6434
 5131TIP3    H136952   1.848  -0.041   2.723  0.3810  0.0566  0.6964
 5131TIP3    H236953   1.744  -0.060   2.831  0.5382 -0.3100  0.7891
 5132TIP3   OH236954   0.741   5.192   1.687 -0.0412 -0.0565 -0.1657
 5132TIP3    H136955   0.779   5.119   1.638  0.2947  0.7204 -1.0888
 5132TIP3    H236956   0.680   5.150   1.749 -0.4899 -1.0568 -1.2423
 5133TIP3   OH236957   5.800   6.517   0.399  0.1783  0.1948 -0.3496
 5133TIP3    H136958   5.754   6.435   0.415  0.5342  0.3872  2.0755
 5133TIP3    H236959   5.821   6.515   0.306  1.1605 -3.0106 -0.1844
 5134TIP3   OH236960   0.123   6.424   7.785  0.4679 -0.6262 -0.5441
 5134TIP3    H136961   0.099   6.466   7.703 -1.2498 -0.5330 -0.0232
 5134TIP3    H236962   0.117   6.330   7.768  0.5990 -0.6131 -0.6606
 5135TIP3   OH236963   1.813   3.676   2.636 -0.5778 -0.1617 -0.2191
 5135TIP3    H136964   1.769   3.657   2.720 -0.4221  0.6780  0.0678
 5135TIP3    H236965   1.754   3.641   2.570 -1.5370  0.6336  0.1816
 5136TIP3   OH236966   1.415   0.746   1.884 -0.2503  0.1961 -0.0704
 5136TIP3    H136967   1.449   0.793   1.960  1.1239 -0.7828 -0.0421
 5136TIP3    H236968   1.483   0.754   1.818 -0.7130 -0.3622 -0.6270
 5137TIP3   OH236969   2.201   2.596   7.819 -0.2293  0.8432 -0.4212
 5137TIP3    H136970   2.282   2.559   7.785 -1.5928 -1.1880 -1.6358
 5137TIP3    H236971   2.167   2.529   7.878 -0.9750  1.7233  0.1719
 5138TIP3   OH236972   4.567   1.527   0.973  0.6227  0.5198 -0.3026
 5138TIP3    H136973   4.658   1.517   1.001 -0.5072 -1.3613  3.4412
 5138TIP3    H236974   4.565   1.489   0.885  3.5106  1.4012 -0.8813
 5139TIP3   OH236975   4.972   3.312   8.249 -0.4780  0.2146 -0.1541
 5139TIP3    H136976   4.901   3.363   8.288 -0.2640  1.1337 -0.8988
 5139TIP3    H236977   4.950   3.309   8.156 -0.8425 -1.6882 -0.0358
 5140TIP3   OH236978   5.304   2.865   1.947  0.4670 -0.9449  0.2464
 5140TIP3    H136979   5.339   2.946   1.911  0.6134 -1.4473 -0.7722
 5140TIP3    H236980   5.210   2.868   1.927  0.5525 -1.2336 -0.2213
 5141TIP3   OH236981   5.582   3.255   1.375  0.2201  0.5607  0.2724
 5141TIP3    H136982   5.494   3.231   1.347  0.6205  0.0188 -0.5635
 5141TIP3    H236983   5.631   3.173   1.376  0.7753  0.8874  0.4914
 5142TIP3   OH236984   4.448   0.364   0.639  0.0732 -0.5719  0.4732
 5142TIP3    H136985   4.496   0.291   0.600  1.4715 -0.8671  2.6030
 5142TIP3    H236986   4.484   0.373   0.727 -2.5849  0.3549  1.5851
 5143TIP3   OH236987   4.573   4.606   7.799 -0.4782 -0.4912 -0.3569
 5143TIP3    H136988   4.502   4.594   7.735 -1.1792  0.8748  0.1299
 5143TIP3    H236989   4.643   4.646   7.748  0.4848 -2.9738 -1.1337
 5144TIP3   OH236990   0.272   5.724   2.639  0.1587 -0.1733 -0.0924
 5144TIP3    H136991   0.198   5.678   2.678 -0.5496  1.3458  0.4310
 5144TIP3    H236992   0.344   5.661   2.642  0.1604 -0.2015  3.6834
 5145TIP3   OH236993   3.428   2.558   8.553  0.0432 -0.6102 -0.5308
 5145TIP3    H136994   3.475   2.615   8.492  1.9805 -0.8043  0.7248
 5145TIP3    H236995   3.384   2.618   8.613  1.4774 -0.3966  0.3377
 5146TIP3   OH236996   2.160   0.377   2.192  0.3148  0.1837 -0.0876
 5146TIP3    H136997   2.093   0.308   2.197 -0.0468  0.5633  0.4638
 5146TIP3    H236998   2.142   0.433   2.267  0.1684  1.2748 -0.9130
 5147TIP3   OH236999   1.575   2.629   1.092 -0.3110 -0.1034 -0.0917
 5147TIP3    H137000   1.609   2.551   1.135  1.5129  0.4305 -0.4739
 5147TIP3    H237001   1.569   2.694   1.162  0.7448  0.1860 -0.2647
 5148TIP3   OH237002   2.096   4.466   8.545 -0.0999 -0.2932  0.1565
 5148TIP3    H137003   2.045   4.473   8.464  0.5255 -3.3039 -0.6013
 5148TIP3    H237004   2.142   4.550   8.551 -2.6793  1.3057 -0.7800
 5149TIP3   OH237005   3.848   6.714   8.803 -0.3262 -0.4634 -0.0260
 5149TIP3    H137006   3.870   6.627   8.836 -1.0135 -0.5016  0.3479
 5149TIP3    H237007   3.932   6.761   8.802  0.1544 -1.3141 -0.8338
 5150TIP3   OH237008   0.346   3.482   8.364  0.1364  0.0143 -0.1069
 5150TIP3    H137009   0.418   3.446   8.417  0.3039 -2.7588 -2.0395
 5150TIP3    H237010   0.390   3.523   8.289 -0.1835 -2.0059 -1.4841
 5151TIP3   OH237011   0.990   2.134   2.332  0.1648  0.0667 -0.4208
 5151TIP3    H137012   1.055   2.064   2.329  0.0800  0.0161 -2.2039
 5151TIP3    H237013   0.934   2.118   2.256 -2.8130 -0.6904  1.7176
 5152TIP3   OH237014   0.353   0.812   8.580  0.1153  0.0697 -0.2836
 5152TIP3    H137015   0.308   0.848   8.503  0.5239  0.3536 -0.3947
 5152TIP3    H237016   0.302   0.843   8.655  0.5363  0.9835 -0.3713
 5153TIP3   OH237017   1.827   1.817   1.382 -0.3476  0.3085 -0.0634
 5153TIP3    H137018   1.906   1.763   1.388 -0.2947  0.4484  0.5500
 5153TIP3    H237019   1.843   1.874   1.307 -0.8495 -1.2158 -1.3833
 5154TIP3   OH237020   2.855   2.116   0.429 -0.2510  0.5191  0.1667
 5154TIP3    H137021   2.945   2.109   0.396 -0.9344 -2.8079 -1.4243
 5154TIP3    H237022   2.864   2.111   0.524  1.2268 -1.2349 -0.0036
 5155TIP3   OH237023   3.330   1.144   7.411  0.6230  0.7546 -0.9971
 5155TIP3    H137024   3.272   1.217   7.385 -1.3274 -0.4596 -0.2524
 5155TIP3    H237025   3.298   1.119   7.497  2.0535 -0.2269 -0.7412
 5156TIP3   OH237026   4.671   1.531   1.775  0.4993  0.6547  0.0281
 5156TIP3    H137027   4.663   1.575   1.690 -0.6956 -1.1154 -0.8488
 5156TIP3    H237028   4.621   1.586   1.835  1.0229  1.7246 -0.4883
 5157TIP3   OH237029   0.667   0.338   0.975  0.0158  0.6134  0.6954
 5157TIP3    H137030   0.657   0.247   0.951 -1.3938  1.5141 -2.6432
 5157TIP3    H237031   0.628   0.345   1.062 -0.3546 -1.8316  0.7685
 5158TIP3   OH237032   3.338   6.402   7.955  0.4421  0.0425 -0.3638
 5158TIP3    H137033   3.425   6.391   7.915  0.1812 -1.7355 -0.5033
 5158TIP3    H237034   3.327   6.326   8.012 -0.8326  0.5025  0.0461
 5159TIP3   OH237035   6.788   2.546   1.342 -0.9570  0.4014  0.6138
 5159TIP3    H137036   6.727   2.495   1.395 -1.8483  0.6469 -0.1512
 5159TIP3    H237037   6.812   2.488   1.270 -1.3068  0.7627  0.2060
 5160TIP3   OH237038   3.526   4.907   7.053 -0.2383  0.1558 -0.0872
 5160TIP3    H137039   3.573   4.829   7.080  0.3671  0.6437  0.2980
 5160TIP3    H237040   3.474   4.879   6.977 -0.9209 -0.8934  0.7340
 5161TIP3   OH237041   5.389   1.509   1.715 -0.0728  0.4345 -0.6842
 5161TIP3    H137042   5.297   1.493   1.736  0.5247 -0.1185  1.9610
 5161TIP3    H237043   5.417   1.576   1.777  1.6243 -0.3912 -0.4778
 5162TIP3   OH237044   5.442   6.626   2.205  0.2130  0.0320  0.0311
 5162TIP3    H137045   5.518   6.683   2.205 -0.4995  1.0046 -0.2526
 5162TIP3    H237046   5.388   6.658   2.278  0.5706 -1.3432  0.9373
 5163TIP3   OH237047   6.420   2.775   8.811  0.1599 -0.0446 -0.2433
 5163TIP3    H137048   6.447   2.846   8.753 -0.9567  1.1023  0.5812
 5163TIP3    H237049   6.403   2.817   8.895  0.1229 -1.4016  0.4703
 5164TIP3   OH237050   3.043   2.639   0.102 -0.7216  0.2391 -0.0481
 5164TIP3    H137051   3.035   2.564   0.162  1.1833 -0.5229 -0.6901
 5164TIP3    H237052   3.013   2.605   0.018  1.1195 -0.1832 -0.5840
 5165TIP3   OH237053   2.202   4.113   8.363 -0.2002 -0.2174 -0.4898
 5165TIP3    H137054   2.177   4.201   8.334 -0.5991  0.2035  1.0386
 5165TIP3    H237055   2.118   4.069   8.377 -0.0998  0.1395  1.5438
 5166TIP3   OH237056   4.339   1.756   2.447  0.1393 -0.0201  0.2290
 5166TIP3    H137057   4.430   1.766   2.477  0.3731  0.5858 -0.6659
 5166TIP3    H237058   4.338   1.671   2.403  0.9601  1.0736 -2.0643
 5167TIP3   OH237059   3.117   6.311   8.563  0.1576  0.4870 -0.6953
 5167TIP3    H137060   3.063   6.389   8.579  1.7349  1.6297 -0.7061
 5167TIP3    H237061   3.054   6.239   8.562 -1.6848  1.9619 -2.7382
 5168TIP3   OH237062   3.749   1.274   7.245 -0.2847 -0.2172 -0.2996
 5168TIP3    H137063   3.706   1.230   7.172 -1.7686 -0.2792  0.5606
 5168TIP3    H237064   3.824   1.218   7.267 -0.8241 -1.0994 -0.6729
 5169TIP3   OH237065   1.042   0.958   0.408  0.5387  0.0498  0.7368
 5169TIP3    H137066   1.076   0.999   0.488  0.0770  2.2730 -0.1221
 5169TIP3    H237067   1.085   1.004   0.337  1.4641 -2.3628 -0.3658
 5170TIP3   OH237068   2.561   5.022   2.433 -0.5557 -0.4035  0.3363
 5170TIP3    H137069   2.573   4.927   2.435 -0.5648 -0.4105  2.4278
 5170TIP3    H237070   2.532   5.041   2.344 -0.9266 -2.3972 -0.0129
 5171TIP3   OH237071   3.410   6.441   0.797 -0.3570  0.5413  0.3359
 5171TIP3    H137072   3.359   6.407   0.724 -0.6020  0.4303  0.5569
 5171TIP3    H237073   3.425   6.366   0.854  0.3735  0.4930  0.0923
 5172TIP3   OH237074   2.243   2.617   3.124 -0.4000  0.0383  0.1694
 5172TIP3    H137075   2.257   2.524   3.145 -0.1033  0.2525  0.9422
 5172TIP3    H237076   2.164   2.641   3.173 -1.4332 -0.2086 -1.3008
 5173TIP3   OH237077   3.358   3.276   8.746 -0.4474  0.3058  0.2613
 5173TIP3    H137078   3.283   3.223   8.718 -0.2532  0.6646 -0.9900
 5173TIP3    H237079   3.421   3.212   8.779 -0.9949 -0.0591  0.6335
 5174TIP3   OH237080   1.983   2.327   0.453  0.1130 -0.3829 -0.3622
 5174TIP3    H137081   1.890   2.347   0.450 -0.0760 -1.3133 -2.1885
 5174TIP3    H237082   1.988   2.232   0.441  1.2905 -0.3994  0.0846
 5175TIP3   OH237083   5.187   5.545   8.242 -0.4762 -0.4857  0.0873
 5175TIP3    H137084   5.209   5.620   8.298 -0.3982  1.2474 -2.0974
 5175TIP3    H237085   5.093   5.533   8.254 -0.2573 -0.9571  1.4762
 5176TIP3   OH237086   0.124   5.383   7.383  0.4467 -0.7592  0.3123
 5176TIP3    H137087   0.163   5.449   7.327  2.2656 -1.1720  1.0215
 5176TIP3    H237088   0.185   5.374   7.456 -1.0687 -1.3495  1.5821
 5177TIP3   OH237089   0.613   3.417   8.408 -0.1976 -0.0333 -0.2831
 5177TIP3    H137090   0.628   3.397   8.501  0.3750  2.4314  0.2545
 5177TIP3    H237091   0.700   3.412   8.369 -0.1627  0.5230 -0.2921
 5178TIP3   OH237092   4.265   3.834   8.299  0.0175  0.3149  0.0131
 5178TIP3    H137093   4.354   3.865   8.317 -0.3058  1.7463 -0.7044
 5178TIP3    H237094   4.211   3.914   8.301 -0.8564 -0.1560 -1.9292
 5179TIP3   OH237095   0.751   3.975   7.786  0.0577 -0.7549 -0.3893
 5179TIP3    H137096   0.696   3.958   7.710 -0.5497 -0.9866  0.0955
 5179TIP3    H237097   0.786   4.063   7.771  1.0955 -1.3590 -1.6251
 5180TIP3   OH237098   3.113   3.431   2.678  0.2930  0.5749 -0.7472
 5180TIP3    H137099   3.173   3.498   2.644 -0.3602  0.7387 -1.6082
 5180TIP3    H237100   3.072   3.394   2.600  0.2704 -0.4940 -0.2528
 5181TIP3   OH237101   5.159   0.912   2.202  0.5538  0.4418 -0.2157
 5181TIP3    H137102   5.114   0.994   2.222  0.1566 -0.0090  0.8657
 5181TIP3    H237103   5.201   0.887   2.285  0.8102 -0.3495 -0.5739
 5182TIP3   OH237104   1.976   3.239   1.810  0.4063 -0.1499  0.0728
 5182TIP3    H137105   1.894   3.282   1.835 -0.2834 -0.2948 -1.7781
 5182TIP3    H237106   1.952   3.182   1.736  2.0165 -0.8529  0.0484
 5183TIP3   OH237107   1.786   4.539   8.723  0.0018 -0.4513 -0.3379
 5183TIP3    H137108   1.846   4.465   8.714 -0.0383 -0.7907  1.6671
 5183TIP3    H237109   1.837   4.606   8.769 -0.7518 -0.2575  0.2317
 5184TIP3   OH237110   4.483   1.972   7.907  0.9363 -0.1945 -0.3347
 5184TIP3    H137111   4.439   2.009   7.984 -0.5150  0.7629 -1.5693
 5184TIP3    H237112   4.547   2.039   7.883 -0.0189  0.4579 -1.1344
 5185TIP3   OH237113   4.914   0.180   7.840  0.1030  0.2272 -0.0427
 5185TIP3    H137114   4.936   0.226   7.758  0.8607 -2.4243 -1.4603
 5185TIP3    H237115   4.830   0.216   7.866  0.4012  2.0012 -1.3278
 5186TIP3   OH237116   3.595   5.354   1.791  0.4750 -0.3018  0.7586
 5186TIP3    H137117   3.608   5.316   1.704 -0.1858 -0.7309  0.8430
 5186TIP3    H237118   3.587   5.448   1.775  1.9426 -0.1806  0.5342
 5187TIP3   OH237119   6.556   0.225   8.547  0.3583 -0.6103  0.3062
 5187TIP3    H137120   6.578   0.204   8.457 -1.1231  0.4062 -0.3270
 5187TIP3    H237121   6.473   0.180   8.563 -1.8063  2.7722 -0.4057
 5188TIP3   OH237122   1.470   5.979   7.511 -0.5802 -0.4843 -0.3473
 5188TIP3    H137123   1.541   5.916   7.520  0.6122  0.5598 -1.8867
 5188TIP3    H237124   1.502   6.058   7.553 -1.9721 -0.7747  1.3650
 5189TIP3   OH237125   3.260   5.518   8.394  0.4688 -0.0209  0.4542
 5189TIP3    H137126   3.296   5.431   8.407  2.2998  0.4410 -0.9938
 5189TIP3    H237127   3.234   5.547   8.481  4.2549 -0.2297  1.8514
 5190TIP3   OH237128   4.892   0.689   7.812  0.2800 -0.4341  0.1159
 5190TIP3    H137129   4.962   0.668   7.874  0.5927  1.5678  0.5186
 5190TIP3    H237130   4.910   0.779   7.785 -2.1014  0.1286  0.1879
 5191TIP3   OH237131   0.091   6.646   8.641  0.5725 -0.0029 -0.1489
 5191TIP3    H137132   0.046   6.709   8.697 -0.2319 -1.1922  0.6088
 5191TIP3    H237133   0.027   6.626   8.572  2.3765  3.2890 -3.1384
 5192TIP3   OH237134   0.513   0.512   0.045 -0.0650  0.4634  0.1565
 5192TIP3    H137135   0.514   0.577   0.115 -1.9976  0.5488  0.1379
 5192TIP3    H237136   0.589   0.457   0.063  1.7593  2.8012  0.0541
 5193TIP3   OH237137   6.371   1.472   0.527 -0.4760 -0.9367  0.0144
 5193TIP3    H137138   6.307   1.539   0.552 -0.1150 -0.6369  0.1545
 5193TIP3    H237139   6.455   1.508   0.555 -0.2984 -1.5384  0.2575
 5194TIP3   OH237140   2.749   4.912   3.044 -0.4480  0.2303 -0.0147
 5194TIP3    H137141   2.739   4.997   3.087  1.3358  1.5232 -1.9540
 5194TIP3    H237142   2.697   4.920   2.964  1.3356  0.2986 -1.2063
 5195TIP3   OH237143   0.212   1.870   2.356 -0.0469 -0.3966  0.4127
 5195TIP3    H137144   0.136   1.829   2.313  0.1902 -0.5940  0.1759
 5195TIP3    H237145   0.281   1.804   2.349  0.3316  0.0320  0.0547
 5196TIP3   OH237146   6.094   3.642   1.246 -0.1131 -0.3587 -0.2844
 5196TIP3    H137147   6.104   3.591   1.326 -2.2109 -1.1423 -0.4595
 5196TIP3    H237148   6.129   3.587   1.176  0.5843 -0.1864 -0.0764
 5197TIP3   OH237149   1.093   0.508   1.261  0.2616  0.0037  0.4295
 5197TIP3    H137150   1.004   0.542   1.253  0.4289  0.2312 -0.5154
 5197TIP3    H237151   1.094   0.428   1.208  0.6410  0.0370  0.3823
 5198TIP3   OH237152   3.285   3.032   6.940  0.2693  0.1557  0.0679
 5198TIP3    H137153   3.213   2.969   6.930  0.3784 -0.1547  1.1215
 5198TIP3    H237154   3.241   3.117   6.942  0.0193  0.0376 -0.3089
 5199TIP3   OH237155   4.634   1.318   0.480 -0.6121 -0.4269  0.1356
 5199TIP3    H137156   4.619   1.230   0.513  0.7472 -0.8478 -0.3197
 5199TIP3    H237157   4.711   1.310   0.423 -0.6172  0.9998 -0.1062
 5200TIP3   OH237158   2.524   5.224   0.126 -0.2106 -0.2831  0.4400
 5200TIP3    H137159   2.569   5.287   0.182  0.5271 -0.4116  0.0023
 5200TIP3    H237160   2.486   5.277   0.056 -0.5471 -0.2003  0.6853
 5201TIP3   OH237161   5.168   0.876   1.876  0.1432 -0.0672  0.2797
 5201TIP3    H137162   5.254   0.904   1.906 -0.2084  2.2296 -0.5982
 5201TIP3    H237163   5.164   0.905   1.785 -1.4723 -0.3203  0.2363
 5202TIP3   OH237164   3.225   6.794   8.105 -0.1800 -0.3351  0.0983
 5202TIP3    H137165   3.206   6.747   8.024 -2.5999  1.3412 -0.4203
 5202TIP3    H237166   3.270   6.874   8.077 -1.4876  0.5050  0.2553
 5203TIP3   OH237167   0.125   1.537   1.752  0.1980  0.4490  0.1886
 5203TIP3    H137168   0.182   1.553   1.677 -0.7941 -2.0639 -1.2420
 5203TIP3    H237169   0.162   1.590   1.822  2.0732  1.7372 -1.6535
 5204TIP3   OH237170   1.209   6.446   7.306  0.1534  0.2594  0.2288
 5204TIP3    H137171   1.299   6.424   7.332  0.3859 -0.5158 -1.1459
 5204TIP3    H237172   1.217   6.482   7.218 -0.8743  0.3537  0.1606
 5205TIP3   OH237173   2.774   2.249   2.746 -0.6282  0.6061 -0.1636
 5205TIP3    H137174   2.709   2.316   2.721 -0.6640  2.1582  3.4934
 5205TIP3    H237175   2.741   2.213   2.828  1.2651 -1.3948 -0.1961
 5206TIP3   OH237176   3.065   3.122   1.815  0.2290 -0.2791 -0.3259
 5206TIP3    H137177   3.098   3.097   1.901 -1.2443  0.0379  0.3660
 5206TIP3    H237178   3.143   3.129   1.760  1.0889 -1.6541  0.6702
 5207TIP3   OH237179   3.434   3.948   2.484 -0.1070 -0.5166 -0.1532
 5207TIP3    H137180   3.357   3.959   2.428 -1.2020  2.0265  1.6654
 5207TIP3    H237181   3.504   3.996   2.439 -0.3111 -0.5036 -0.4589
 5208TIP3   OH237182   0.671   0.425   8.514  1.0718  0.1380 -0.0465
 5208TIP3    H137183   0.731   0.497   8.533  0.5534  1.0355 -1.5613
 5208TIP3    H237184   0.609   0.462   8.450 -1.0873 -0.7307  1.4049
 5209TIP3   OH237185   4.642   5.243   2.499 -0.7418 -0.0264  0.0156
 5209TIP3    H137186   4.713   5.184   2.475  0.5163  0.7744  1.5718
 5209TIP3    H237187   4.604   5.204   2.577  0.5114  1.4650  1.4321
 5210TIP3   OH237188   6.386   5.611   0.344 -0.5649  0.6023 -0.3623
 5210TIP3    H137189   6.451   5.680   0.326 -0.5586  1.0916  1.3527
 5210TIP3    H237190   6.433   5.548   0.399 -0.8066 -0.4117 -1.2727
 5211TIP3   OH237191   0.722   2.701   0.716  0.3341  0.3087 -0.4959
 5211TIP3    H137192   0.796   2.754   0.687  0.8149 -0.0571  0.0044
 5211TIP3    H237193   0.656   2.764   0.745  1.0884  0.6498  0.5634
 5212TIP3   OH237194   5.539   5.137   0.845  0.4686 -0.7274  0.0176
 5212TIP3    H137195   5.504   5.203   0.905  1.2588  0.3567 -0.6841
 5212TIP3    H237196   5.599   5.085   0.899  0.0954 -0.6710  0.4966
 5213TIP3   OH237197   0.946   5.092   8.043  0.1399  0.1784 -0.3043
 5213TIP3    H137198   1.012   5.105   7.975  1.8985  1.6067  1.5307
 5213TIP3    H237199   0.863   5.099   7.998  1.0879 -3.2174 -3.0343
 5214TIP3   OH237200   2.909   5.660   1.427  0.1475 -0.4516 -0.1465
 5214TIP3    H137201   2.919   5.723   1.356 -0.5314 -1.3575 -1.0805
 5214TIP3    H237202   2.861   5.707   1.495  1.2353  0.5781 -0.0692
 5215TIP3   OH237203   4.298   1.169   0.492  0.0013  0.3699  0.3289
 5215TIP3    H137204   4.206   1.176   0.467 -0.2771  0.8922  1.4367
 5215TIP3    H237205   4.309   1.078   0.518  0.4159 -0.3200 -2.0292
 5216TIP3   OH237206   0.173   2.252   0.354 -0.0303  0.0660 -0.0036
 5216TIP3    H137207   0.160   2.292   0.440 -1.6372 -0.1129 -0.1461
 5216TIP3    H237208   0.159   2.324   0.292  0.3549  0.0157 -0.1544
 5217TIP3   OH237209   0.108   5.347   8.311 -0.1660 -0.1307  0.4076
 5217TIP3    H137210   0.038   5.342   8.377 -0.0790  1.9246  0.7232
 5217TIP3    H237211   0.179   5.394   8.355 -0.1835  1.4860 -1.1880
 5218TIP3   OH237212   1.933   6.204   1.095 -0.0155 -0.2136 -0.0715
 5218TIP3    H137213   1.979   6.191   1.012 -0.7788 -1.3732 -0.3353
 5218TIP3    H237214   2.003   6.212   1.160  0.5741 -0.4782 -0.6592
 5219TIP3   OH237215   4.259   0.435   2.062  0.0514 -0.4302 -0.3420
 5219TIP3    H137216   4.293   0.410   1.976  1.3593  0.5328 -0.1361
 5219TIP3    H237217   4.316   0.390   2.125 -0.4365 -0.5448  0.0287
 5220TIP3   OH237218   6.803   2.475   2.870 -0.5318  0.3012  0.0714
 5220TIP3    H137219   6.808   2.438   2.958 -1.6039 -3.2279 -1.1843
 5220TIP3    H237220   6.892   2.507   2.853 -0.2874  1.0597  2.3421
 5221TIP3   OH237221   1.288   3.088   1.912  0.6850  0.1036  0.1941
 5221TIP3    H137222   1.281   3.053   1.823 -1.3420 -0.1311  0.3949
 5221TIP3    H237223   1.374   3.129   1.915  0.6896  0.3641 -1.9730
 5222TIP3   OH237224   3.483   3.592   2.629  0.5556  0.0559  0.4133
 5222TIP3    H137225   3.557   3.595   2.568  1.7043 -0.3281  1.7434
 5222TIP3    H237226   3.407   3.617   2.576  1.2989 -1.4816 -1.4886
 5223TIP3   OH237227   5.547   4.015   1.417 -0.3177  0.3739 -0.0505
 5223TIP3    H137228   5.595   3.943   1.458 -0.9542 -1.0750 -1.7101
 5223TIP3    H237229   5.573   4.012   1.325 -0.6184  2.0879 -0.2288
 5224TIP3   OH237230   0.125   1.402   8.727  0.1603  0.1394 -0.0734
 5224TIP3    H137231   0.069   1.438   8.658  3.0346  1.4733 -1.8934
 5224TIP3    H237232   0.181   1.475   8.752  2.3084 -1.5596  0.3180
 5225TIP3   OH237233   3.265   0.842   7.304 -0.2782 -0.5821 -0.1224
 5225TIP3    H137234   3.251   0.751   7.279  0.6663 -0.7344 -0.1227
 5225TIP3    H237235   3.196   0.860   7.368  0.1411 -1.6136  0.6487
 5226TIP3   OH237236   6.224   0.232   0.337  0.3446  0.6696 -0.6296
 5226TIP3    H137237   6.159   0.227   0.267  1.2343 -0.5585 -1.4094
 5226TIP3    H237238   6.251   0.141   0.352  1.1780  1.0521  0.3514
 5227TIP3   OH237239   3.228   3.838   8.237 -0.2021  0.7353  0.5586
 5227TIP3    H137240   3.209   3.865   8.147  0.9927 -0.1365  0.0077
 5227TIP3    H237241   3.250   3.920   8.282 -4.2140  1.7200  1.0798
 5228TIP3   OH237242   5.631   4.080   8.437 -0.1887  0.2435  0.1508
 5228TIP3    H137243   5.608   4.005   8.382 -0.7905 -0.4912  1.3427
 5228TIP3    H237244   5.709   4.117   8.397 -0.1601 -0.7368 -0.7345
 5229TIP3   OH237245   4.394   4.707   0.751 -0.3684 -0.2269  0.5534
 5229TIP3    H137246   4.349   4.778   0.705  1.7487  1.7225  1.2776
 5229TIP3    H237247   4.440   4.660   0.681  0.4875  0.9179  0.3054
 5230TIP3   OH237248   6.676   5.168   7.340  0.0900  0.5802 -0.2468
 5230TIP3    H137249   6.665   5.262   7.354 -1.7630  0.2601  0.8397
 5230TIP3    H237250   6.634   5.151   7.256 -1.3426  0.4779  0.4568
 5231TIP3   OH237251   1.974   4.179   8.093  0.2305 -0.3912 -0.1054
 5231TIP3    H137252   1.968   4.181   7.998  0.5658 -2.5449 -0.2090
 5231TIP3    H237253   2.061   4.214   8.113  0.3785 -0.4759 -0.6091
 5232TIP3   OH237254   5.150   4.535   8.703 -0.6319  0.7120  0.3421
 5232TIP3    H137255   5.185   4.582   8.627  1.1418  0.4885  0.9653
 5232TIP3    H237256   5.218   4.470   8.724 -1.8102 -0.3091  1.1535
 5233TIP3   OH237257   4.347   2.213   8.596 -0.0545 -0.0423 -0.8003
 5233TIP3    H137258   4.302   2.171   8.670  0.5135  0.8880  0.1006
 5233TIP3    H237259   4.399   2.143   8.557  0.0801 -0.4252  0.0381
 5234TIP3   OH237260   4.026   2.888   0.265 -0.4781  0.6965 -0.1602
 5234TIP3    H137261   4.088   2.839   0.320  0.3699  0.1471 -1.5673
 5234TIP3    H237262   4.027   2.977   0.301  0.0964  0.3651  0.6773
 5235TIP3   OH237263   4.057   2.538   7.712  1.1209 -0.0406 -0.4254
 5235TIP3    H137264   4.034   2.601   7.780  0.1680 -0.2710 -0.5203
 5235TIP3    H237265   4.058   2.454   7.756 -1.7072 -0.5228 -1.0527
 5236TIP3   OH237266   3.697   1.111   3.006  0.0359  0.2974 -0.1254
 5236TIP3    H137267   3.759   1.166   3.053  1.0856 -1.2654  0.4034
 5236TIP3    H237268   3.671   1.163   2.930  1.3158  1.3243  0.1059
 5237TIP3   OH237269   1.422   1.005   1.419 -0.2275 -0.0950  0.2453
 5237TIP3    H137270   1.485   1.064   1.460 -0.7587  0.0318  0.8938
 5237TIP3    H237271   1.437   0.921   1.461  0.1883 -0.3177 -0.3255
 5238TIP3   OH237272   5.609   0.366   8.268 -0.3748  0.1399  0.5549
 5238TIP3    H137273   5.573   0.454   8.284  0.0578  0.2614  0.8860
 5238TIP3    H237274   5.607   0.324   8.353  2.2813  0.9160  1.0777
 5239TIP3   OH237275   1.083   2.253   1.140  0.1265 -0.1305 -0.1383
 5239TIP3    H137276   1.174   2.269   1.165 -0.3060  0.2880  1.2533
 5239TIP3    H237277   1.032   2.309   1.199 -0.9736  0.9959 -2.0847
 5240TIP3   OH237278   4.176   0.694   2.372 -0.0630  0.0883  0.3356
 5240TIP3    H137279   4.268   0.673   2.355 -0.2172  0.2843 -0.8372
 5240TIP3    H237280   4.170   0.788   2.354 -0.9128 -0.3090 -1.6784
 5241TIP3   OH237281   4.751   6.020   2.572  0.7181 -0.1527  0.1757
 5241TIP3    H137282   4.761   5.933   2.612 -0.1855 -0.7548 -0.8430
 5241TIP3    H237283   4.734   6.078   2.646 -1.1040 -1.2654  0.6918
 5242TIP3   OH237284   3.601   6.741   1.447 -0.2346 -0.0957  0.3840
 5242TIP3    H137285   3.530   6.678   1.453  0.7018 -1.0570  2.9766
 5242TIP3    H237286   3.611   6.758   1.353 -2.3923 -1.5994 -0.1831
 5243TIP3   OH237287   6.799   1.558   0.105  0.1144 -0.5348  0.7513
 5243TIP3    H137288   6.889   1.588   0.093  0.9905 -2.9100  0.7798
 5243TIP3    H237289   6.752   1.588   0.027  1.0490  0.3259  0.5114
 5244TIP3   OH237290   5.617   3.701   7.841  0.1806 -0.0206 -0.1634
 5244TIP3    H137291   5.523   3.717   7.850  0.0120 -1.3007  0.7690
 5244TIP3    H237292   5.650   3.776   7.792 -0.9467  1.5952  1.4124
 5245TIP3   OH237293   0.611   5.178   7.396 -0.2990  0.0294 -0.1847
 5245TIP3    H137294   0.565   5.238   7.337 -0.7349 -2.4038 -2.5243
 5245TIP3    H237295   0.543   5.120   7.429  0.5619 -1.7236 -1.2939
 5246TIP3   OH237296   3.041   2.545   2.301 -0.0928 -0.7276  0.0955
 5246TIP3    H137297   3.085   2.576   2.380 -2.7971 -1.4807  2.0502
 5246TIP3    H237298   3.024   2.453   2.318  0.6241 -1.3515 -2.1261
 5247TIP3   OH237299   6.104   5.977   7.692  0.0180 -0.5234 -1.3640
 5247TIP3    H137300   6.129   6.050   7.636  1.3946  0.4929  0.4319
 5247TIP3    H237301   6.187   5.932   7.710 -0.4515 -1.0864 -0.5428
 5248TIP3   OH237302   2.032   4.217   2.780 -0.3272  0.3566  0.3641
 5248TIP3    H137303   2.044   4.243   2.871  0.3355  0.3713  0.2770
 5248TIP3    H237304   1.972   4.142   2.784  0.3664 -0.1874  0.8869
 5249TIP3   OH237305   4.780   2.645   7.589  0.1949 -0.1794 -0.4360
 5249TIP3    H137306   4.827   2.564   7.571 -1.6906 -1.1180 -1.4906
 5249TIP3    H237307   4.733   2.663   7.507 -1.0050  0.8665  0.4556
 5250TIP3   OH237308   0.618   5.678   7.724  0.1984  0.4189  0.4429
 5250TIP3    H137309   0.688   5.738   7.696  0.0248  0.8344  0.8825
 5250TIP3    H237310   0.555   5.680   7.652  1.2608 -1.0224 -0.6005
 5251TIP3   OH237311   2.104   0.259   1.869  0.1981 -0.0054 -0.2622
 5251TIP3    H137312   2.172   0.327   1.867 -2.9062  3.4356 -0.1593
 5251TIP3    H237313   2.050   0.277   1.792 -2.6307 -0.1361  1.5514
 5252TIP3   OH237314   1.729   2.837   2.938 -0.1144 -0.0687 -0.0492
 5252TIP3    H137315   1.800   2.774   2.953  0.0517 -0.0798 -0.8102
 5252TIP3    H237316   1.774   2.919   2.920 -0.3145  0.1115  0.2783
 5253TIP3   OH237317   0.440   1.788   6.564 -0.1429  0.2224  0.3852
 5253TIP3    H137318   0.414   1.705   6.605  3.2719  0.7784  4.3466
 5253TIP3    H237319   0.517   1.766   6.512 -0.8304  0.5474 -0.8019
 5254TIP3   OH237320   2.631   3.019   7.715  0.2908 -0.5715 -0.2473
 5254TIP3    H137321   2.663   3.052   7.631 -1.5754  2.1725 -0.0079
 5254TIP3    H237322   2.537   3.009   7.702  0.3306 -2.7283  0.7771
 5255TIP3   OH237323   3.568   0.039   0.158 -0.9500 -0.4115 -0.1981
 5255TIP3    H137324   3.592  -0.045   0.119  2.4286  0.6319 -0.7278
 5255TIP3    H237325   3.517   0.016   0.236  0.5288 -3.0457  0.1122
 5256TIP3   OH237326   0.799   2.281   7.680  0.0394  0.5679  0.3489
 5256TIP3    H137327   0.799   2.377   7.681 -2.8858  0.6602  0.0564
 5256TIP3    H237328   0.713   2.257   7.648  0.7150 -2.2114  0.3069
 5257TIP3   OH237329   1.389   0.514   2.104  0.0908  0.5939  0.0105
 5257TIP3    H137330   1.331   0.552   2.038 -2.2793 -4.7781 -1.6169
 5257TIP3    H237331   1.477   0.519   2.065 -0.3753  2.4339 -0.9024
 5258TIP3   OH237332   4.966   6.705   0.775  0.4862  0.5118  0.2159
 5258TIP3    H137333   5.027   6.666   0.838  0.3454 -1.2014 -0.6603
 5258TIP3    H237334   4.945   6.791   0.813  3.1619  1.0464  0.7211
 5259TIP3   OH237335   0.795   3.262   1.150 -0.0278  0.2492  0.7319
 5259TIP3    H137336   0.770   3.316   1.225 -3.1830  0.3090 -0.2314
 5259TIP3    H237337   0.777   3.172   1.177  2.8389 -0.2218  1.4272
 5260TIP3   OH237338   4.703   0.102   1.980 -0.7936 -0.3293 -0.2386
 5260TIP3    H137339   4.722   0.124   2.071  0.7228 -3.0260  0.1836
 5260TIP3    H237340   4.615   0.064   1.982 -0.9374  0.0125  0.0119
 5261TIP3   OH237341   5.694   3.792   1.482  0.3510  0.1412  0.1883
 5261TIP3    H137342   5.788   3.807   1.494  0.3638 -0.4411  0.9182
 5261TIP3    H237343   5.681   3.701   1.510 -0.3522  0.0573 -0.3863
 5262TIP3   OH237344   2.284   3.294   1.029 -0.6282 -0.3003 -0.0949
 5262TIP3    H137345   2.327   3.377   1.009 -0.0095 -0.8439 -1.0773
 5262TIP3    H237346   2.295   3.241   0.950 -2.7201 -0.6331 -0.2394
 5263TIP3   OH237347   2.720   2.015   0.982  0.6019 -0.4410 -0.3683
 5263TIP3    H137348   2.681   2.072   0.915  1.1212  1.3538  0.7850
 5263TIP3    H237349   2.807   2.052   0.998  0.9292 -1.5255  0.4858
 5264TIP3   OH237350   0.446   2.666   1.457 -0.1975 -0.7733  0.2570
 5264TIP3    H137351   0.460   2.604   1.385 -0.4095 -0.4925 -0.0277
 5264TIP3    H237352   0.385   2.621   1.516 -3.1920  0.4701 -1.6632
 5265TIP3   OH237353   3.450   6.441   8.583 -0.0838 -0.3087  0.1358
 5265TIP3    H137354   3.397   6.461   8.506 -0.5398  0.4599  0.6298
 5265TIP3    H237355   3.483   6.526   8.612  0.8537 -0.6960  0.2528
 5266TIP3   OH237356   0.551   1.367   7.356 -0.1930 -0.0735 -0.0896
 5266TIP3    H137357   0.484   1.435   7.357 -0.1143  0.0029  0.7113
 5266TIP3    H237358   0.508   1.291   7.315 -0.7974 -0.0548  0.4951
 5267TIP3   OH237359   0.109   3.196   8.050  0.2364  0.1487  0.4714
 5267TIP3    H137360   0.141   3.140   7.979  0.0444 -0.6076  0.9705
 5267TIP3    H237361   0.019   3.168   8.063  0.7474 -0.9211  2.1349
 5268TIP3   OH237362   5.583   3.431   1.805 -0.2457  0.4408  0.5962
 5268TIP3    H137363   5.609   3.416   1.714  2.1973  0.2553  1.2469
 5268TIP3    H237364   5.611   3.521   1.823 -0.5238  0.4044  1.2252
 5269TIP3   OH237365   3.331   5.002   7.223  0.2563 -0.3718  0.3679
 5269TIP3    H137366   3.402   4.981   7.162  0.8423  0.6197  0.6792
 5269TIP3    H237367   3.257   5.026   7.168  1.5842  3.3182 -0.1185
 5270TIP3   OH237368   3.029   3.466   7.670 -0.3424  0.0067 -0.7481
 5270TIP3    H137369   3.056   3.437   7.583 -0.0220  1.6825 -1.2448
 5270TIP3    H237370   2.943   3.425   7.683 -0.0247 -0.9248 -1.4988
 5271TIP3   OH237371   2.439   6.742   8.546  0.4523  0.1123 -0.4941
 5271TIP3    H137372   2.404   6.653   8.551 -0.3023  0.2360 -2.4552
 5271TIP3    H237373   2.516   6.734   8.490  0.5485  0.6423 -0.4386
 5272TIP3   OH237374   0.976   4.042   1.706 -0.6717  0.3347  0.9116
 5272TIP3    H137375   0.909   4.026   1.640 -0.3814  4.3542 -0.6629
 5272TIP3    H237376   0.930   4.087   1.777 -0.1152  0.7112  1.0419
 5273TIP3   OH237377   6.482   6.642   0.266  0.4598  0.4457 -0.1499
 5273TIP3    H137378   6.432   6.576   0.313  0.2301  1.1415  0.6046
 5273TIP3    H237379   6.416   6.705   0.236  0.9276  1.9953  1.8543
 5274TIP3   OH237380   2.093   6.592   2.207  0.3906  0.0734 -0.0945
 5274TIP3    H137381   2.180   6.588   2.168  0.8579 -0.9457  0.9880
 5274TIP3    H237382   2.108   6.623   2.296 -0.4336  0.4733 -0.0806
 5275TIP3   OH237383   0.027   1.493   2.331  0.3126  0.7658 -0.2911
 5275TIP3    H137384   0.119   1.472   2.315  0.2135  0.3633 -0.3398
 5275TIP3    H237385   0.003   1.442   2.408  0.5278  1.9837  0.6167
 5276TIP3   OH237386   6.060   1.952   1.888 -0.4087 -0.3356 -0.1797
 5276TIP3    H137387   6.070   1.995   1.973 -1.2379  0.5787 -0.5212
 5276TIP3    H237388   6.141   1.972   1.841  0.2725 -1.2832  0.5732
 5277TIP3   OH237389   2.926   5.077   8.448 -0.3620  0.5024  0.3077
 5277TIP3    H137390   2.978   5.038   8.378 -0.5608  0.1360  0.3616
 5277TIP3    H237391   2.868   5.139   8.404 -2.8112 -2.0118 -0.3406
 5278TIP3   OH237392   3.462   4.111   8.079  0.1540 -0.2172 -0.1959
 5278TIP3    H137393   3.516   4.044   8.120  1.5761 -0.1344 -1.8013
 5278TIP3    H237394   3.401   4.138   8.147 -0.0841 -2.7047  0.6849
 5279TIP3   OH237395   1.674   2.739   1.535  0.1587  0.3522 -0.6170
 5279TIP3    H137396   1.634   2.819   1.570 -2.6209 -0.4373 -1.7329
 5279TIP3    H237397   1.712   2.696   1.611 -1.7714  0.8561  0.7043
 5280TIP3   OH237398   4.683   5.636   2.205  0.7324 -0.1262  0.4852
 5280TIP3    H137399   4.762   5.689   2.211 -0.3085  1.4360  0.7881
 5280TIP3    H237400   4.620   5.690   2.157 -0.5808 -0.7708  1.3946
 5281TIP3   OH237401   1.451   5.911   1.707  0.0867 -0.3361  0.0753
 5281TIP3    H137402   1.470   5.819   1.727  3.9676 -0.0528 -1.3919
 5281TIP3    H237403   1.396   5.941   1.780 -1.8965 -3.8835  0.2760
 5282TIP3   OH237404   3.273   3.944   7.951  0.3151  0.0584 -0.0486
 5282TIP3    H137405   3.357   3.989   7.961  0.7098 -0.8264  0.7842
 5282TIP3    H237406   3.297   3.851   7.940 -0.5945 -0.5012  2.2153
 5283TIP3   OH237407   2.730   2.951   2.934  0.3167  0.0678  0.0696
 5283TIP3    H137408   2.696   2.877   2.884 -0.4833  1.3825 -1.4196
 5283TIP3    H237409   2.656   2.980   2.987 -0.0944  1.1299 -1.0173
 5284TIP3   OH237410   0.453   0.557   2.750  0.8330  0.0730  0.1382
 5284TIP3    H137411   0.387   0.577   2.683  1.6302 -0.4866 -0.8460
 5284TIP3    H237412   0.479   0.643   2.784 -1.3205  0.2531  1.4931
 5285TIP3   OH237413   5.285   4.384   6.728  0.3144 -0.1150 -0.2489
 5285TIP3    H137414   5.329   4.463   6.697 -1.0192  0.8760  0.2463
 5285TIP3    H237415   5.346   4.346   6.791  0.2264  1.5976  0.9582
 5286TIP3   OH237416   1.265   2.656   1.605  0.3646 -0.2213  0.1848
 5286TIP3    H137417   1.269   2.750   1.589 -0.3411 -0.4179 -1.3547
 5286TIP3    H237418   1.340   2.620   1.557  0.9728 -0.4079  1.2436
 5287TIP3   OH237419   4.819   4.671   7.707 -0.1866  0.3029  0.3081
 5287TIP3    H137420   4.786   4.744   7.654  0.1752  1.1077  1.1677
 5287TIP3    H237421   4.913   4.668   7.688 -0.5073 -1.3079 -1.3225
 5288TIP3   OH237422   5.862   1.951   0.811  0.2031  0.4424  0.1641
 5288TIP3    H137423   5.827   1.901   0.885 -0.9183  1.0873  0.0911
 5288TIP3    H237424   5.790   2.008   0.784  1.0800  1.2848 -0.4785
 5289TIP3   OH237425   2.599   1.461   2.271  0.4877 -0.0107 -0.4624
 5289TIP3    H137426   2.625   1.474   2.362  1.6963 -0.0132 -0.7840
 5289TIP3    H237427   2.503   1.461   2.273  0.4750 -1.6665  1.0294
 5290TIP3   OH237428   5.525   5.377   8.398 -0.3098  0.4537  0.3222
 5290TIP3    H137429   5.616   5.372   8.369 -0.6624  3.6035 -1.6874
 5290TIP3    H237430   5.473   5.378   8.318 -2.1809 -1.0484  1.4162
 5291TIP3   OH237431   3.652   3.533   7.824  0.1709 -0.1202  0.3257
 5291TIP3    H137432   3.695   3.473   7.763  0.5443 -0.0478  0.5139
 5291TIP3    H237433   3.651   3.486   7.907  0.6788  0.2294  0.5296
 5292TIP3   OH237434   5.844   5.437   0.582  0.3932 -0.0677 -0.1424
 5292TIP3    H137435   5.778   5.379   0.622  1.0695 -1.7628 -1.3316
 5292TIP3    H237436   5.911   5.448   0.649 -1.0530  1.6778  1.0850
 5293TIP3   OH237437   4.995   2.220   1.646 -0.1565 -0.1584 -0.3097
 5293TIP3    H137438   5.055   2.289   1.675 -0.1381 -0.3925  0.2181
 5293TIP3    H237439   5.042   2.139   1.663  0.5878 -0.2703 -2.6665
 5294TIP3   OH237440   4.453   2.421   8.482 -0.7781  0.5869  0.1745
 5294TIP3    H137441   4.518   2.372   8.431  0.3261  2.5000 -0.3471
 5294TIP3    H237442   4.430   2.362   8.554 -0.0843 -0.9776 -0.8258
 5295TIP3   OH237443   6.645   3.985   8.582 -0.3739  0.4126 -0.2000
 5295TIP3    H137444   6.690   4.052   8.634 -0.2238  0.6908 -0.6842
 5295TIP3    H237445   6.626   3.916   8.645 -0.2453  0.7697  0.2411
 5296TIP3   OH237446   0.337   6.018   8.018 -0.5382 -0.0076  0.1532
 5296TIP3    H137447   0.285   6.098   8.021 -0.1738  0.2617 -0.5404
 5296TIP3    H237448   0.355   6.004   7.925 -1.5882 -1.5389  0.1544
 5297TIP3   OH237449   1.374   5.697   7.437 -0.2404 -0.1671 -0.0447
 5297TIP3    H137450   1.323   5.632   7.485  0.3809 -1.3391 -0.8951
 5297TIP3    H237451   1.449   5.648   7.403 -0.7873  0.4913 -2.4391
 5298TIP3   OH237452   1.681   6.295   1.068 -0.0933 -0.3661 -0.3790
 5298TIP3    H137453   1.763   6.250   1.086  0.0014  0.0157  0.1966
 5298TIP3    H237454   1.613   6.233   1.095  0.0307 -0.2706  0.1692
 5299TIP3   OH237455   6.256   5.784   7.552  0.7293 -0.5055  0.3617
 5299TIP3    H137456   6.203   5.720   7.599 -0.2597 -0.7278 -1.0040
 5299TIP3    H237457   6.320   5.732   7.505  0.0746 -0.5009 -0.5607
 5300TIP3   OH237458   5.157   3.717   8.426  0.0938 -0.2374  0.1170
 5300TIP3    H137459   5.147   3.779   8.497 -3.1088 -1.1161  0.5824
 5300TIP3    H237460   5.073   3.718   8.381  0.6612 -2.6421 -1.1723
 5301TIP3   OH237461   4.345   2.925   7.412  0.0040 -0.5887 -0.5186
 5301TIP3    H137462   4.432   2.894   7.437 -0.1556  0.6656  1.9875
 5301TIP3    H237463   4.356   3.019   7.400 -0.4573 -0.8071 -3.2355
 5302TIP3   OH237464   4.171   2.311   1.415 -0.6288 -0.3922  0.0257
 5302TIP3    H137465   4.124   2.238   1.456  0.5145 -1.5746 -0.7162
 5302TIP3    H237466   4.167   2.381   1.481 -0.7973 -1.4711  1.2131
 5303TIP3   OH237467   0.566   1.514   1.516  0.1143 -0.2266  0.3395
 5303TIP3    H137468   0.614   1.579   1.464  0.0665  0.1881  0.8105
 5303TIP3    H237469   0.474   1.528   1.495  0.1120 -0.2166  0.3559
 5304TIP3   OH237470   5.048   1.591   7.204  0.6242 -0.2410 -0.1074
 5304TIP3    H137471   4.957   1.567   7.221  0.5169  0.8923  1.0835
 5304TIP3    H237472   5.046   1.685   7.188  1.4803 -0.3589 -1.0130
 5305TIP3   OH237473   2.171   2.124   2.081 -0.0618 -0.2108  0.2629
 5305TIP3    H137474   2.106   2.194   2.084  0.7692  0.5725  0.4036
 5305TIP3    H237475   2.152   2.076   2.001 -1.2214 -0.3946  0.6394
 5306TIP3   OH237476   5.077   4.364   6.906  0.2633  0.0626 -0.2430
 5306TIP3    H137477   5.045   4.453   6.889  0.5820  0.7005  2.2085
 5306TIP3    H237478   5.149   4.353   6.843 -1.1026  0.6943 -2.0192
 5307TIP3   OH237479   4.737   4.038   2.764 -0.4629  0.5845  0.2068
 5307TIP3    H137480   4.690   4.109   2.808  1.7773  1.4815  1.2592
 5307TIP3    H237481   4.764   3.979   2.835 -0.3795 -0.1704 -0.4311
 5308TIP3   OH237482   2.882   4.594   0.643 -0.1912 -0.4373 -0.5073
 5308TIP3    H137483   2.808   4.653   0.629  0.6315  0.6798 -0.3228
 5308TIP3    H237484   2.905   4.564   0.556 -0.2202  0.0208 -0.6764
 5309TIP3   OH237485   0.643   0.409   2.958 -0.2023 -0.3557 -0.0117
 5309TIP3    H137486   0.663   0.320   2.931 -2.1480 -1.0549  0.6809
 5309TIP3    H237487   0.669   0.463   2.884  1.9384 -1.3340 -0.0660
 5310TIP3   OH237488   1.485   5.112   8.734  0.2372  0.0821 -0.2079
 5310TIP3    H137489   1.423   5.058   8.783  0.1596  0.3390 -0.0154
 5310TIP3    H237490   1.518   5.055   8.665 -0.0756 -0.1151 -0.1979
 5311TIP3   OH237491   2.775   5.098   2.064 -0.0444 -0.8202 -0.3384
 5311TIP3    H137492   2.728   5.178   2.089 -1.5205 -1.4455 -1.0146
 5311TIP3    H237493   2.799   5.058   2.148 -2.3017 -1.3585  0.1306
 5312TIP3   OH237494   4.856   6.542   7.476 -0.0093  0.0776  0.5579
 5312TIP3    H137495   4.915   6.477   7.513 -0.0639 -0.1345  0.2770
 5312TIP3    H237496   4.898   6.571   7.395 -1.6854 -2.3760 -1.3574
 5313TIP3   OH237497   5.952   4.222   8.200 -0.5834  0.1165  0.5283
 5313TIP3    H137498   5.957   4.220   8.105  1.5223 -0.8527  0.5987
 5313TIP3    H237499   5.952   4.130   8.226  1.6413  0.3137  1.4984
 5314TIP3   OH237500   5.761   4.935   8.377  0.4809  0.0374  0.2156
 5314TIP3    H137501   5.846   4.920   8.334 -0.5899  1.3734 -2.6039
 5314TIP3    H237502   5.700   4.879   8.329 -0.7005  1.1949  0.3320
 5315TIP3   OH237503   4.055   2.227   0.483 -0.2030 -0.4813 -0.3507
 5315TIP3    H137504   4.099   2.277   0.413 -0.9943 -0.7896 -1.0811
 5315TIP3    H237505   4.104   2.249   0.562 -1.4306  2.7319 -0.3326
 5316TIP3   OH237506   5.861   6.798   3.042  0.6047 -0.2244  0.1112
 5316TIP3    H137507   5.847   6.721   2.987 -0.7545  1.0852 -1.5330
 5316TIP3    H237508   5.779   6.807   3.090  1.3970 -0.7458  1.6077
 5317TIP3   OH237509   5.478   0.887   0.259 -0.6932 -0.5626 -0.0761
 5317TIP3    H137510   5.567   0.910   0.286 -1.0555 -0.7009  1.3237
 5317TIP3    H237511   5.475   0.791   0.267 -0.6006 -0.6766 -1.3210
 5318TIP3   OH237512   2.217   2.847   8.162 -0.3729  0.5190  0.3536
 5318TIP3    H137513   2.183   2.760   8.144  1.6842  0.1541 -2.4513
 5318TIP3    H237514   2.285   2.833   8.228  0.6233 -0.2085 -0.7930
 5319TIP3   OH237515   4.198   6.118   8.636  0.4971 -0.0679 -0.3442
 5319TIP3    H137516   4.241   6.151   8.556  0.0069 -0.1870 -0.6613
 5319TIP3    H237517   4.137   6.187   8.661  0.5009 -0.1218 -0.1854
 5320TIP3   OH237518   2.703   0.895   0.427  0.3530  0.1028 -0.0119
 5320TIP3    H137519   2.705   0.904   0.332 -0.1766 -1.7160 -0.2372
 5320TIP3    H237520   2.613   0.869   0.447 -0.1285  2.5261  1.2480
 5321TIP3   OH237521   4.366   2.207   2.001 -0.6349  0.1815  0.4482
 5321TIP3    H137522   4.452   2.243   1.981 -1.2019  1.2234 -0.2355
 5321TIP3    H237523   4.319   2.279   2.044 -1.4101 -0.1040  0.1133
 5322TIP3   OH237524   3.650   3.860   0.463  0.3842  0.4382 -0.0526
 5322TIP3    H137525   3.619   3.773   0.487  0.4381  0.7852  1.3643
 5322TIP3    H237526   3.645   3.911   0.544  0.3527  1.7600 -0.8526
 5323TIP3   OH237527   4.949   0.700   8.629  0.4830  0.1234 -0.3059
 5323TIP3    H137528   4.929   0.729   8.718  1.9469  2.7450 -0.7167
 5323TIP3    H237529   4.987   0.613   8.640 -3.1295 -1.4678  1.1660
 5324TIP3   OH237530   0.240   5.403   2.586  0.0766  0.0032  0.3382
 5324TIP3    H137531   0.302   5.340   2.622 -0.2398 -0.7821 -0.4554
 5324TIP3    H237532   0.294   5.463   2.535  0.2501 -0.3113  0.1498
 5325TIP3   OH237533   4.756   3.053   8.097 -0.2291  0.3932  0.1855
 5325TIP3    H137534   4.784   3.144   8.111  0.8183  0.2438 -0.7654
 5325TIP3    H237535   4.821   3.017   8.037 -1.7187 -0.4177 -1.0083
 5326TIP3   OH237536   3.326   3.980   0.430  0.2160 -0.0376  0.2286
 5326TIP3    H137537   3.302   3.904   0.484  1.4514 -0.5975  0.0288
 5326TIP3    H237538   3.266   3.976   0.355 -0.2021 -0.3981  0.5741
 5327TIP3   OH237539   6.761   0.583   7.265  0.1608 -0.0004  0.3107
 5327TIP3    H137540   6.752   0.618   7.176 -0.6284 -0.8218  0.0533
 5327TIP3    H237541   6.819   0.507   7.254  2.2193  1.3964  0.9295
 5328TIP3   OH237542   0.411   3.221   1.212  0.1689  0.2977  0.4897
 5328TIP3    H137543   0.396   3.126   1.209  1.2764 -0.0024  2.3339
 5328TIP3    H237544   0.504   3.230   1.233 -0.0680  1.7614  1.0829
 5329TIP3   OH237545   4.612   1.065   0.559  0.3382  0.1941 -0.3308
 5329TIP3    H137546   4.639   0.999   0.495  0.7255  0.1103 -0.0827
 5329TIP3    H237547   4.598   1.015   0.639  1.9681  0.5806  0.2364
 5330TIP3   OH237548   6.617   4.117   1.021  0.9091  0.1353 -0.3049
 5330TIP3    H137549   6.681   4.140   0.953  1.5601  0.6074  0.4460
 5330TIP3    H237550   6.667   4.118   1.102 -0.0717  0.5760  0.3150
 5331TIP3   OH237551   2.875   2.107   8.077  0.5669 -0.2974  0.3074
 5331TIP3    H137552   2.785   2.139   8.077 -0.3013 -2.3096 -2.7072
 5331TIP3    H237553   2.929   2.186   8.081 -1.3763  1.2311 -1.6439
 5332TIP3   OH237554   1.687   5.274   1.404 -0.5368  0.1477  0.1502
 5332TIP3    H137555   1.676   5.198   1.346  2.2774 -0.4230  0.2117
 5332TIP3    H237556   1.682   5.349   1.345 -1.0674 -0.2109 -0.2807
 5333TIP3   OH237557   3.987   2.330   1.191 -0.5364 -0.5211  0.3402
 5333TIP3    H137558   3.923   2.400   1.197  0.1786  0.2062 -0.3632
 5333TIP3    H237559   4.058   2.356   1.250 -0.2665 -0.6455  0.0766
 5334TIP3   OH237560   3.621   1.555   2.586  0.2128  0.7145 -0.0275
 5334TIP3    H137561   3.658   1.597   2.664  0.1526 -0.6803  0.7688
 5334TIP3    H237562   3.544   1.608   2.565  0.4179  1.2973  0.6423
 5335TIP3   OH237563   3.536   5.563   8.003 -0.4172  0.0278 -0.3901
 5335TIP3    H137564   3.562   5.598   8.088  0.1427  0.1391 -0.6048
 5335TIP3    H237565   3.554   5.469   8.010  0.8722  0.2225 -0.8264
 5336TIP3   OH237566   3.874   6.410   0.929 -0.0610  0.0908 -0.4753
 5336TIP3    H137567   3.811   6.423   1.001 -0.0193  1.0309 -0.5920
 5336TIP3    H237568   3.848   6.474   0.863  0.2916 -0.3365 -1.0378
 5337TIP3   OH237569   5.250   5.707   1.166 -0.1671 -0.5919  0.5255
 5337TIP3    H137570   5.255   5.774   1.097  1.1976 -1.3316 -0.1351
 5337TIP3    H237571   5.338   5.669   1.169 -0.2712 -0.7623  2.5201
 5338TIP3   OH237572   5.710   0.659   8.531  0.3043 -0.0217  0.0688
 5338TIP3    H137573   5.739   0.681   8.443 -0.1609  1.0568  0.1733
 5338TIP3    H237574   5.768   0.588   8.558  1.3941  0.5885 -0.5746
 5339TIP3   OH237575   5.075   1.749   8.018 -0.2012 -0.2071 -0.3491
 5339TIP3    H137576   5.033   1.664   8.005  0.0630 -0.4415  0.2780
 5339TIP3    H237577   5.081   1.786   7.930  0.0981 -1.0400 -0.6964
 5340TIP3   OH237578   1.841   0.813   8.591  0.9147  0.2641  0.1377
 5340TIP3    H137579   1.904   0.771   8.532  2.3527  2.7147 -0.2009
 5340TIP3    H237580   1.768   0.837   8.535  1.0888  0.2458 -0.0992
 5341TIP3   OH237581   4.409   6.682   0.014 -0.2518  0.3497  0.3292
 5341TIP3    H137582   4.499   6.707   0.036 -0.1470 -0.8096  1.3096
 5341TIP3    H237583   4.418   6.621  -0.059 -0.3715  1.4972 -0.6717
 5342TIP3   OH237584   5.932   1.906   3.078  0.1084  0.3191  0.3163
 5342TIP3    H137585   5.921   1.955   3.160 -0.4548 -0.3231  0.6388
 5342TIP3    H237586   5.883   1.956   3.014 -0.4060  0.2353  0.6306
 5343TIP3   OH237587   6.552   4.830   0.068  0.4482  0.0989  0.3906
 5343TIP3    H137588   6.525   4.774  -0.005 -0.8486  0.4214  0.5972
 5343TIP3    H237589   6.471   4.851   0.113  0.8480  2.4076  0.1386
 5344TIP3   OH237590   5.571   4.760   8.323  0.7010 -0.3114  0.1029
 5344TIP3    H137591   5.489   4.809   8.320  1.0376  0.2752  0.3356
 5344TIP3    H237592   5.576   4.716   8.238 -0.3301 -1.1516  0.4502
 5345TIP3   OH237593   2.687   5.466   1.775 -0.3220 -0.2110 -0.3653
 5345TIP3    H137594   2.656   5.508   1.695  0.0976 -1.7557 -1.3702
 5345TIP3    H237595   2.716   5.539   1.830  0.3566  0.8358 -2.0259
 5346TIP3   OH237596   1.361   6.075   2.805 -0.2299 -0.0029  0.3502
 5346TIP3    H137597   1.274   6.110   2.826 -0.3889 -1.4954  2.4570
 5346TIP3    H237598   1.422   6.136   2.846 -0.3454 -0.0045  0.5239
 5347TIP3   OH237599   0.939   6.426   6.987  0.1801 -0.1198 -0.1096
 5347TIP3    H137600   0.864   6.370   7.005 -0.4476  1.1979  1.5642
 5347TIP3    H237601   0.929   6.451   6.895 -1.1696 -0.3560 -0.0398
 5348TIP3   OH237602   5.936   5.560   7.580 -0.3963  0.7814 -0.3016
 5348TIP3    H137603   5.868   5.507   7.540  0.3272  0.5668 -1.2568
 5348TIP3    H237604   5.926   5.647   7.540  0.7259  0.4058 -1.4629
 5349TIP3   OH237605   4.459   0.355   7.526 -0.2527 -0.4379  0.2258
 5349TIP3    H137606   4.407   0.296   7.582  1.2731  0.7269  3.0467
 5349TIP3    H237607   4.402   0.431   7.512 -0.4362 -0.4768  0.7306
 5350TIP3   OH237608   6.439   4.384   0.100  0.1472 -1.0444  0.7866
 5350TIP3    H137609   6.358   4.413   0.142 -0.6469 -1.2536 -0.5322
 5350TIP3    H237610   6.440   4.289   0.113 -0.8236 -1.3187 -0.7616
 5351TIP3   OH237611   6.259   5.005   1.649  0.4187 -0.0092  0.1897
 5351TIP3    H137612   6.302   5.064   1.711  0.9245  1.1790 -1.2175
 5351TIP3    H237613   6.198   5.061   1.602  0.1788 -0.8350 -0.5072
 5352TIP3   OH237614   5.396   5.844   2.424  0.0527 -0.7105  0.0304
 5352TIP3    H137615   5.357   5.759   2.401  0.7619 -1.0834  0.1602
 5352TIP3    H237616   5.338   5.909   2.384 -0.4669 -1.2584 -0.1216
 5353TIP3   OH237617   2.206   2.518   1.669  0.4745  0.1711 -0.1827
 5353TIP3    H137618   2.228   2.504   1.577 -1.3034  1.7775 -0.9150
 5353TIP3    H237619   2.205   2.613   1.679 -0.2803  0.0427  1.2667
 5354TIP3   OH237620   1.713   4.030   8.388  0.6037 -0.5322  0.5446
 5354TIP3    H137621   1.704   4.120   8.360 -0.8725 -1.3770 -2.0207
 5354TIP3    H237622   1.645   4.018   8.454 -3.0715 -1.0291 -2.9706
 5355TIP3   OH237623   2.809   2.471   1.164 -0.0635 -0.4411 -0.0881
 5355TIP3    H137624   2.716   2.494   1.161  0.0474  0.0174 -0.1158
 5355TIP3    H237625   2.849   2.521   1.093  0.3066 -0.1420  0.3245
 5356TIP3   OH237626   5.615   6.261   0.983  0.1399  0.0739  0.4998
 5356TIP3    H137627   5.641   6.172   0.957  0.9507  0.7799 -1.2547
 5356TIP3    H237628   5.696   6.304   1.006  0.1830  1.1967 -1.4894
 5357TIP3   OH237629   1.631   2.572   0.688  0.1470  0.9827  0.0920
 5357TIP3    H137630   1.619   2.509   0.759  1.4233  0.8466  0.2268
 5357TIP3    H237631   1.669   2.520   0.616 -0.0598  1.3338 -0.2748
 5358TIP3   OH237632   4.365   5.451   8.650 -0.4600 -0.3393  0.1102
 5358TIP3    H137633   4.417   5.384   8.606 -1.2471 -0.0449 -1.3180
 5358TIP3    H237634   4.427   5.493   8.710  0.5913 -0.9056 -0.5356
 5359TIP3   OH237635   3.266   2.933   7.329 -0.1282 -0.4071 -0.3598
 5359TIP3    H137636   3.321   2.886   7.392 -0.4692  0.0075  0.2587
 5359TIP3    H237637   3.323   2.947   7.253  0.8076  0.4715  0.4722
 5360TIP3   OH237638   2.672   1.189   7.603 -0.0679 -0.1253  0.2337
 5360TIP3    H137639   2.736   1.169   7.671 -0.5726 -1.2647  0.3918
 5360TIP3    H237640   2.702   1.140   7.527 -1.5083 -1.8857  0.7259
 5361TIP3   OH237641   5.243   2.400   8.600  0.5175  0.0012 -0.3078
 5361TIP3    H137642   5.222   2.319   8.646 -1.5569  0.0260 -1.0848
 5361TIP3    H237643   5.336   2.413   8.615  0.6187 -1.8087  0.9511
 5362TIP3   OH237644   6.209   2.964   0.617  0.0600  0.4631  0.1394
 5362TIP3    H137645   6.159   2.885   0.597  0.3353 -0.2894  2.2307
 5362TIP3    H237646   6.299   2.933   0.628  0.9009  1.6368 -2.5182
 5363TIP3   OH237647   0.151   0.469   1.826  0.4099 -0.1260  0.1528
 5363TIP3    H137648   0.064   0.460   1.865  0.2115 -0.7581 -0.4244
 5363TIP3    H237649   0.139   0.529   1.753  0.3529 -0.5941 -0.2285
 5364TIP3   OH237650   0.744   0.227   0.580  0.1541  0.3169  0.0757
 5364TIP3    H137651   0.703   0.286   0.516 -0.3708 -0.6399 -0.5031
 5364TIP3    H237652   0.831   0.264   0.594  0.9792 -0.3673 -2.5601
 5365TIP3   OH237653   2.174   1.536   0.470 -0.2288  0.1870  0.4763
 5365TIP3    H137654   2.151   1.471   0.403 -1.4086  0.2965  0.7517
 5365TIP3    H237655   2.141   1.499   0.552  1.6387 -0.1784  1.1224
 5366TIP3   OH237656   2.720   2.898   0.038 -0.3545 -0.4322 -0.1255
 5366TIP3    H137657   2.747   2.844  -0.036 -0.5292 -1.5551  0.5927
 5366TIP3    H237658   2.624   2.894   0.037 -0.3542 -1.1980  0.6428
 5367TIP3   OH237659   0.784   0.661   8.225 -0.7813 -0.0596 -0.2956
 5367TIP3    H137660   0.706   0.644   8.278 -0.4510 -0.1311  0.1621
 5367TIP3    H237661   0.819   0.575   8.205 -1.1227 -0.0519 -0.9624
 5368TIP3   OH237662   4.645   0.971   1.082  0.1015 -0.4759 -0.1536
 5368TIP3    H137663   4.566   0.922   1.102 -1.0619  0.9179 -1.1233
 5368TIP3    H237664   4.627   1.060   1.114  1.1196 -0.0415 -0.7355
 5369TIP3   OH237665   5.828   1.567   7.168  0.0833 -0.1734  0.5901
 5369TIP3    H137666   5.830   1.655   7.205 -0.2454 -0.5396  1.4986
 5369TIP3    H237667   5.821   1.581   7.074 -0.7276  0.7676  0.7828
 5370TIP3   OH237668   5.554   6.440   6.829 -0.8352 -0.0324 -0.3276
 5370TIP3    H137669   5.507   6.445   6.746 -1.0082 -2.7739 -0.4840
 5370TIP3    H237670   5.605   6.359   6.823 -0.6908 -0.2020  2.1436
 5371TIP3   OH237671   3.637   5.433   0.747 -0.4356 -0.5900  0.0973
 5371TIP3    H137672   3.649   5.339   0.729  0.1529 -0.2339 -1.5104
 5371TIP3    H237673   3.602   5.468   0.665 -0.4493  0.6509  0.6215
 5372TIP3   OH237674   3.269   4.898   0.045 -0.7035  0.1269 -0.0615
 5372TIP3    H137675   3.299   4.881   0.135 -1.4361 -0.7220  0.0410
 5372TIP3    H237676   3.347   4.886  -0.009 -0.5447 -0.6869  0.3353
 5373TIP3   OH237677   0.404   1.613   7.047 -0.2696  0.3033 -0.1752
 5373TIP3    H137678   0.417   1.520   7.027 -0.1236  0.3859 -0.4689
 5373TIP3    H237679   0.375   1.614   7.138 -0.2612 -0.0306 -0.1682
 5374TIP3   OH237680   5.437   5.051   1.634 -0.4434  0.6199 -0.5174
 5374TIP3    H137681   5.441   5.086   1.723 -1.4272  1.2349 -0.7050
 5374TIP3    H237682   5.396   5.120   1.582 -0.6710 -0.0671 -1.2757
 5375TIP3   OH237683   1.180   1.621   2.903  0.0095  0.7324 -0.4378
 5375TIP3    H137684   1.173   1.665   2.987  0.3118  0.9892 -0.5446
 5375TIP3    H237685   1.137   1.536   2.916 -0.0903  0.8403 -0.0755
 5376TIP3   OH237686   1.864   6.307   8.776 -0.0515  0.4672 -0.0741
 5376TIP3    H137687   1.842   6.355   8.855 -0.6889 -0.2364  0.1868
 5376TIP3    H237688   1.887   6.219   8.806 -0.0331  0.2681 -0.6446
 5377TIP3   OH237689   4.299   4.098   8.194  0.0375 -0.1591  0.1131
 5377TIP3    H137690   4.375   4.041   8.195  0.3985  0.2988  1.5453
 5377TIP3    H237691   4.323   4.170   8.135 -0.2306 -1.1892 -1.3035
 5378TIP3   OH237692   2.380   0.084   0.945  0.0696 -0.8274 -0.1909
 5378TIP3    H137693   2.344   0.074   1.034 -0.3149  1.2154 -0.0586
 5378TIP3    H237694   2.351   0.006   0.899 -2.4115 -0.5151  0.6457
 5379TIP3   OH237695   1.729   3.412   0.154  0.4646  0.1582  0.1519
 5379TIP3    H137696   1.818   3.380   0.138  0.6529  1.0538 -0.6200
 5379TIP3    H237697   1.697   3.439   0.068 -0.4859  0.0440  0.4577
 5380TIP3   OH237698   6.001   6.465   6.521  0.1311 -0.2307  0.7725
 5380TIP3    H137699   5.949   6.535   6.482  0.8348 -0.3150 -0.3602
 5380TIP3    H237700   5.983   6.471   6.615 -0.2385  1.1150  0.6312
 5381TIP3   OH237701   5.310   3.607   8.738 -0.1480 -0.0886  0.1760
 5381TIP3    H137702   5.351   3.693   8.729 -0.6436  0.3656  1.9454
 5381TIP3    H237703   5.351   3.569   8.816 -1.3121 -0.6395  0.5346
 5382TIP3   OH237704   3.778   6.283   7.543  0.4528 -0.1576  0.0993
 5382TIP3    H137705   3.841   6.262   7.611 -1.3919  1.1580  2.3407
 5382TIP3    H237706   3.779   6.379   7.537  0.5859 -0.2248 -1.8052
 5383TIP3   OH237707   3.590   0.779   2.637 -0.1069 -0.5394  0.2593
 5383TIP3    H137708   3.516   0.834   2.613 -0.3068 -1.2014 -0.6694
 5383TIP3    H237709   3.667   0.835   2.625 -0.4785  0.3839  1.9345
 5384TIP3   OH237710   5.470   2.936   8.425 -0.5547 -0.5134  0.5087
 5384TIP3    H137711   5.527   2.899   8.494  0.0444 -0.3146  0.1275
 5384TIP3    H237712   5.531   2.970   8.360 -1.0650  1.6740  1.0997
 5385TIP3   OH237713   2.917   5.882   8.411  0.0992 -0.1773  0.0094
 5385TIP3    H137714   2.952   5.880   8.322  0.5364  3.4217 -0.0363
 5385TIP3    H237715   2.835   5.833   8.404  1.2098 -1.9621 -1.7619
 5386TIP3   OH237716   1.644   3.530   2.043 -0.1363  0.0731  0.1223
 5386TIP3    H137717   1.611   3.483   2.120 -0.5025  2.2593  1.3683
 5386TIP3    H237718   1.599   3.614   2.046  1.9116  1.2554 -0.9376
 5387TIP3   OH237719   1.673   2.127   1.489  0.5859 -0.1817 -0.2328
 5387TIP3    H137720   1.643   2.132   1.398 -0.1081 -0.1785 -0.0105
 5387TIP3    H237721   1.689   2.218   1.514  1.9099 -0.2734 -0.7146
 5388TIP3   OH237722   6.119   3.463   2.925  0.2064  0.4299 -0.2447
 5388TIP3    H137723   6.064   3.462   2.847  0.3398  1.9124 -0.3917
 5388TIP3    H237724   6.058   3.467   2.998  0.0930  0.0146 -0.3168
 5389TIP3   OH237725   5.737   1.438   1.275 -0.1996  0.2360  0.4741
 5389TIP3    H137726   5.709   1.375   1.342  0.5234 -1.0022 -0.3599
 5389TIP3    H237727   5.812   1.483   1.314 -1.1399  1.0897  1.3429
 5390TIP3   OH237728   5.975   4.142   7.760 -0.2128  0.1972 -0.4087
 5390TIP3    H137729   6.037   4.198   7.807 -1.0210  0.1791  0.7223
 5390TIP3    H237730   6.030   4.077   7.716  0.5467 -0.5410  1.5303
 5391TIP3   OH237731   1.050   4.450   1.703  0.0068 -0.0989  0.6988
 5391TIP3    H137732   0.959   4.440   1.732 -1.0317  0.2711 -2.0708
 5391TIP3    H237733   1.064   4.378   1.642  0.9884  0.8154 -0.1993
 5392TIP3   OH237734   4.149   1.507   0.629 -0.3088 -0.0531 -0.3854
 5392TIP3    H137735   4.102   1.433   0.589 -0.6309  0.3025 -0.6706
 5392TIP3    H237736   4.208   1.466   0.692  0.4895 -0.6487 -1.4965
 5393TIP3   OH237737   6.090   1.803   2.197  0.5708 -0.7927 -0.0656
 5393TIP3    H137738   6.163   1.789   2.138 -0.4702  1.9062 -2.1944
 5393TIP3    H237739   6.114   1.882   2.246 -0.2721 -0.7342  0.2639
 5394TIP3   OH237740   1.033   1.652   0.064 -0.6875 -0.3556  0.7126
 5394TIP3    H137741   1.013   1.720  -0.000  0.1326 -0.2051  0.6011
 5394TIP3    H237742   0.966   1.585   0.049 -0.7172 -0.1680 -0.0668
 5395TIP3   OH237743   4.239   0.026   0.638  0.1453 -0.5735  0.5211
 5395TIP3    H137744   4.295   0.074   0.577 -1.7848 -0.0715 -0.9630
 5395TIP3    H237745   4.258   0.064   0.724  1.2870  0.3009 -0.0948
 5396TIP3   OH237746   0.220   3.153   8.567 -0.1419  0.3756 -0.8538
 5396TIP3    H137747   0.230   3.107   8.650 -1.1593 -0.0885 -0.9736
 5396TIP3    H237748   0.309   3.179   8.543  0.0235  2.2939  1.3668
 5397TIP3   OH237749   6.692   1.980   1.838 -0.2156  0.6437 -0.2084
 5397TIP3    H137750   6.672   1.914   1.772  1.0782  0.3701 -0.3487
 5397TIP3    H237751   6.622   1.973   1.902 -2.1431  1.6703 -2.0772
 5398TIP3   OH237752   5.979   2.502   7.793  0.0362  0.4538 -0.3879
 5398TIP3    H137753   5.966   2.597   7.794 -1.7864  0.2855 -1.9916
 5398TIP3    H237754   5.892   2.467   7.811  0.6328 -0.9274 -0.1009
 5399TIP3   OH237755   0.547   5.493   0.789 -0.1915 -0.5310  0.2374
 5399TIP3    H137756   0.525   5.571   0.739 -0.7162 -0.0040  1.2391
 5399TIP3    H237757   0.619   5.520   0.845 -1.4932 -0.1928  1.8408
 5400TIP3   OH237758   3.519   4.684   2.746  0.0696  0.0949  0.8199
 5400TIP3    H137759   3.438   4.636   2.730  0.1299  0.3216 -0.2196
 5400TIP3    H237760   3.588   4.621   2.725  0.1693  1.0715 -2.2430
 5401TIP3   OH237761   5.676   3.239   8.544  0.3825  0.0975 -0.2996
 5401TIP3    H137762   5.639   3.327   8.548  0.1817  0.1063 -1.7677
 5401TIP3    H237763   5.615   3.190   8.488  0.0463 -1.2105  1.1601
 5402TIP3   OH237764   2.997   0.747   1.265 -0.0432 -0.0816  0.5401
 5402TIP3    H137765   2.956   0.780   1.345  1.8802  0.9627  1.1683
 5402TIP3    H237766   3.078   0.706   1.295 -0.6049 -2.1991 -0.6341
 5403TIP3   OH237767   4.734   1.456   2.246 -0.4898  0.0114 -0.1453
 5403TIP3    H137768   4.792   1.454   2.322 -0.3225  0.6709 -0.2453
 5403TIP3    H237769   4.655   1.409   2.274 -0.1533 -0.3568  0.1961
 5404TIP3   OH237770   5.339   1.173   7.318 -0.2238 -0.1132  0.2900
 5404TIP3    H137771   5.376   1.229   7.387  1.0443  0.5027 -0.8378
 5404TIP3    H237772   5.387   1.198   7.239 -2.0749 -0.3390 -0.9776
 5405TIP3   OH237773   1.180   6.740   0.581  0.4076 -0.4210 -0.3380
 5405TIP3    H137774   1.149   6.797   0.511 -1.0064 -2.0897 -1.1436
 5405TIP3    H237775   1.218   6.800   0.646 -1.2223  1.4506 -1.0146
 5406TIP3   OH237776   6.731   4.358   0.101  0.0585  0.9202 -0.2342
 5406TIP3    H137777   6.645   4.338   0.137  0.2586  1.5507  0.6266
 5406TIP3    H237778   6.749   4.448   0.129  0.7314  1.0170 -0.9313
 5407TIP3   OH237779   4.657   1.466   0.709 -0.7031 -0.2765  0.4495
 5407TIP3    H137780   4.750   1.481   0.693 -0.9487  1.4307  0.4742
 5407TIP3    H237781   4.629   1.410   0.636  0.0584  0.3230 -0.3183
 5408TIP3   OH237782   3.924   4.112   3.044 -1.4135 -0.0718 -0.6118
 5408TIP3    H137783   3.846   4.124   3.097 -0.5158  1.6345  0.3955
 5408TIP3    H237784   3.936   4.195   2.999 -0.6880 -0.6191 -1.4548
 5409TIP3   OH237785   2.073   1.210   7.916  0.2323 -0.0680  0.6280
 5409TIP3    H137786   2.059   1.231   7.824 -1.0066 -0.7588  0.6526
 5409TIP3    H237787   1.986   1.198   7.952  0.7553 -1.2862  1.5533
 5410TIP3   OH237788   6.782   6.610   1.390 -0.4171 -0.2118  0.4087
 5410TIP3    H137789   6.747   6.679   1.333  0.7967  1.3276  1.4073
 5410TIP3    H237790   6.713   6.594   1.454 -0.9355 -0.3467 -0.1756
 5411TIP3   OH237791   5.236   2.628   7.983  0.4890  0.1737  0.5626
 5411TIP3    H137792   5.161   2.609   8.040  1.4453 -0.9872  1.4660
 5411TIP3    H237793   5.305   2.656   8.043  0.8331  1.1274 -0.2540
 5412TIP3   OH237794   0.722   0.857   7.959 -0.2856  0.0807  0.3691
 5412TIP3    H137795   0.646   0.801   7.974 -0.4989  0.4581  0.7233
 5412TIP3    H237796   0.795   0.797   7.948 -0.7259 -0.3143 -0.5597
 5413TIP3   OH237797   2.285   2.745   8.634 -0.3175 -0.1154 -0.1082
 5413TIP3    H137798   2.311   2.780   8.719 -0.5324 -1.3869  0.4993
 5413TIP3    H237799   2.305   2.652   8.639 -0.3825 -0.2226 -1.4363
 5414TIP3   OH237800   3.658   5.834   7.043  0.2753  0.4208  0.3251
 5414TIP3    H137801   3.747   5.847   7.075  0.2714 -0.9457  0.9221
 5414TIP3    H237802   3.620   5.769   7.101 -0.1438 -1.2255 -1.6782
 5415TIP3   OH237803   2.808   4.414   7.618  0.4140 -0.3577  0.1618
 5415TIP3    H137804   2.751   4.416   7.541 -0.7883  0.3831  1.0246
 5415TIP3    H237805   2.890   4.452   7.588  0.5024 -1.4583 -1.1220
 5416TIP3   OH237806   5.177   0.449   7.586 -0.0092  0.0877  0.0801
 5416TIP3    H137807   5.184   0.523   7.646 -0.9453 -0.5537  1.0161
 5416TIP3    H237808   5.230   0.474   7.510  0.3593  1.3506  0.7332
 5417TIP3   OH237809   6.793   4.995   1.405 -0.1570  0.5717 -0.4692
 5417TIP3    H137810   6.754   4.921   1.452  0.1098  1.3680  1.0877
 5417TIP3    H237811   6.825   4.958   1.323 -0.8847 -0.8281 -0.1514
 5418TIP3   OH237812   0.699   0.474   1.899 -0.0901  1.2488  0.1716
 5418TIP3    H137813   0.633   0.468   1.829  2.9775  0.0583 -2.9314
 5418TIP3    H237814   0.682   0.399   1.955 -0.4092 -0.0527 -1.5825
 5419TIP3   OH237815   1.557   0.120   8.771 -0.1796 -0.6218  0.1811
 5419TIP3    H137816   1.553   0.158   8.858 -0.4781  0.1621 -0.1663
 5419TIP3    H237817   1.587   0.191   8.715 -1.4053 -0.6977 -0.5934
 5420TIP3   OH237818   1.273   4.042   2.055  0.1368  0.3377 -0.2344
 5420TIP3    H137819   1.210   4.029   2.127  2.2406  1.1807  1.9157
 5420TIP3    H237820   1.226   4.014   1.977 -3.0377  1.2831  1.1550
 5421TIP3   OH237821   2.950   0.196   0.605 -0.8475 -0.2167 -0.5938
 5421TIP3    H137822   2.971   0.278   0.562  1.7737 -1.3182 -1.5839
 5421TIP3    H237823   2.953   0.130   0.535 -1.2689 -1.3980  0.4546
 5422TIP3   OH237824   6.705   6.252   7.931  0.0852  0.2520 -0.0236
 5422TIP3    H137825   6.717   6.159   7.949  4.0634  0.9287  1.8349
 5422TIP3    H237826   6.742   6.264   7.843 -1.0735  0.0496 -0.5639
 5423TIP3   OH237827   4.488   3.960   7.953 -0.7278 -0.0469  0.3317
 5423TIP3    H137828   4.426   3.894   7.922  1.6820 -2.1990 -0.2516
 5423TIP3    H237829   4.546   3.912   8.012  0.9654  1.5921  0.0855
 5424TIP3   OH237830   4.322   5.006   7.169  0.5934  0.1281  0.4005
 5424TIP3    H137831   4.404   4.982   7.126  1.0032  0.6904  0.8497
 5424TIP3    H237832   4.313   5.100   7.153 -0.5075 -0.1145 -0.5303
 5425TIP3   OH237833   4.625   0.649   3.232  0.0036 -0.2366 -0.2624
 5425TIP3    H137834   4.666   0.575   3.275  0.1619 -1.0600 -1.7484
 5425TIP3    H237835   4.640   0.634   3.138 -0.7217  1.2183 -0.6511
 5426TIP3   OH237836   0.271   4.102   0.118  0.0575  0.2582  0.1159
 5426TIP3    H137837   0.332   4.169   0.088 -0.0314 -0.0088 -0.6933
 5426TIP3    H237838   0.244   4.131   0.205  1.2616  0.4319  0.4517
 5427TIP3   OH237839   6.784   5.328   0.574  0.5724  0.3176  0.2349
 5427TIP3    H137840   6.826   5.329   0.487 -0.0840  1.0853 -0.0840
 5427TIP3    H237841   6.814   5.246   0.613 -0.1505 -0.7132 -1.2387
 5428TIP3   OH237842   2.058   0.962   0.096  0.3236 -0.3620  0.3893
 5428TIP3    H137843   2.084   0.993   0.183 -0.4454  1.3870  0.0290
 5428TIP3    H237844   2.042   0.869   0.108 -0.0506 -0.1001  2.1974
 5429TIP3   OH237845   6.303   3.114   8.442 -0.1761  0.6831 -0.0444
 5429TIP3    H137846   6.302   3.209   8.452  4.3998  0.8710  0.4058
 5429TIP3    H237847   6.333   3.100   8.352 -0.6492 -0.3532 -0.0549
 5430TIP3   OH237848   3.295   5.294   1.800  0.3134  0.0235 -0.0299
 5430TIP3    H137849   3.223   5.282   1.862 -0.2811  0.8657 -0.5214
 5430TIP3    H237850   3.304   5.390   1.793 -0.5476 -0.0074 -2.2435
 5431TIP3   OH237851   5.512   3.819   6.809 -0.2770 -0.5346 -0.4747
 5431TIP3    H137852   5.512   3.744   6.750  0.3666 -1.0963  0.2256
 5431TIP3    H237853   5.598   3.819   6.850  0.9373  2.3941 -2.6670
 5432TIP3   OH237854   2.113   0.001   8.625 -0.7154 -0.0477 -0.2160
 5432TIP3    H137855   2.141  -0.033   8.540 -0.0951  0.6556 -0.3049
 5432TIP3    H237856   2.075   0.087   8.605 -0.3922  0.2038  0.2395
 5433TIP3   OH237857   5.554   3.658   1.246  0.0534  0.2135  0.1187
 5433TIP3    H137858   5.644   3.630   1.257 -0.5771 -1.5977  1.1767
 5433TIP3    H237859   5.519   3.664   1.335 -1.7856 -2.5398 -0.3057
 5434TIP3   OH237860   0.305   5.821   1.235 -0.0741 -0.0282 -0.4007
 5434TIP3    H137861   0.221   5.796   1.275 -0.3774  1.0523 -0.3292
 5434TIP3    H237862   0.364   5.833   1.310 -0.3418  0.9136 -0.3273
 5435TIP3   OH237863   3.722   4.053   2.436  0.8961 -0.0511  0.5816
 5435TIP3    H137864   3.752   4.131   2.483  3.0748  0.4241 -1.4365
 5435TIP3    H237865   3.778   3.983   2.469  0.0200 -0.4608  1.2285
 5436TIP3   OH237866   2.162   3.893   0.784  0.5354  0.3002 -0.2871
 5436TIP3    H137867   2.214   3.968   0.755  0.2486  0.1772 -1.1611
 5436TIP3    H237868   2.073   3.914   0.755  0.4677 -0.4074 -0.6111
 5437TIP3   OH237869   0.021   4.305   7.970  0.1042 -0.2164  0.2740
 5437TIP3    H137870   0.024   4.336   8.061  3.5827  0.7723 -0.0263
 5437TIP3    H237871   0.052   4.215   7.974  1.1928  0.1203  0.0652
 5438TIP3   OH237872   1.878   2.889   2.643  0.4801  0.1957  0.2879
 5438TIP3    H137873   1.884   2.802   2.681 -0.3794 -0.1904 -0.4200
 5438TIP3    H237874   1.886   2.949   2.717  0.4218 -0.4981  0.8580
 5439TIP3   OH237875   5.654   5.936   0.861  0.1237 -0.2386  0.9691
 5439TIP3    H137876   5.685   5.845   0.867 -0.8602 -0.7229 -0.5919
 5439TIP3    H237877   5.655   5.955   0.767 -1.3466  0.7515  1.1224
 5440TIP3   OH237878   0.703   6.720   1.936 -0.3125 -0.1115  0.5728
 5440TIP3    H137879   0.776   6.776   1.909  0.1951  0.5491  3.1158
 5440TIP3    H237880   0.625   6.775   1.922 -0.1747 -0.1519 -0.4221
 5441TIP3   OH237881   1.827   4.449   0.439  0.5092 -0.3761 -0.1664
 5441TIP3    H137882   1.842   4.451   0.533  0.8839  0.5454 -0.2355
 5441TIP3    H237883   1.780   4.367   0.424  0.4801 -0.5512  0.8143
 5442TIP3   OH237884   3.405   3.929   7.699  0.2883  0.0554 -0.2651
 5442TIP3    H137885   3.400   3.951   7.606  0.0635  0.7848 -0.0864
 5442TIP3    H237886   3.481   3.978   7.731  0.1244  0.1291  0.0144
 5443TIP3   OH237887   3.999   4.685   8.116  0.8857  0.0536  0.7705
 5443TIP3    H137888   3.927   4.711   8.059  2.1306  0.7895 -0.5310
 5443TIP3    H237889   3.957   4.638   8.188 -0.7825 -0.4570 -0.4805
 5444TIP3   OH237890   2.071   4.576   0.451 -0.3748 -0.2937 -0.1281
 5444TIP3    H137891   2.044   4.591   0.542  0.0096  0.5523 -0.1458
 5444TIP3    H237892   2.004   4.517   0.415  0.2566 -1.8705  1.1329
 5445TIP3   OH237893   5.684   5.908   7.067 -0.0288  0.4639  0.6370
 5445TIP3    H137894   5.705   6.000   7.054 -0.6969  0.5652  0.2509
 5445TIP3    H237895   5.644   5.881   6.984 -0.1290 -0.0896  0.8634
 5446TIP3   OH237896   2.837   4.365   7.314  0.1676 -0.0351 -0.3123
 5446TIP3    H137897   2.852   4.299   7.246 -2.7034 -0.7756 -0.3446
 5446TIP3    H237898   2.811   4.444   7.267  0.6779  0.2277 -0.1582
 5447TIP3   OH237899   3.075   5.924   1.651 -0.3329  0.0961 -0.4639
 5447TIP3    H137900   3.072   5.852   1.715 -0.8905 -0.4818 -1.1226
 5447TIP3    H237901   3.164   5.921   1.616 -0.3286 -0.2275 -0.4301
 5448TIP3   OH237902   3.694   5.902   0.895 -0.1511 -0.3792  0.2294
 5448TIP3    H137903   3.759   5.972   0.894 -0.2513 -0.2538 -1.4620
 5448TIP3    H237904   3.648   5.912   0.978 -0.2495  1.6585 -0.0327
 5449TIP3   OH237905   4.489   3.207   0.436  0.0701  0.4191  0.1004
 5449TIP3    H137906   4.426   3.208   0.509  0.5264  0.3510  0.4977
 5449TIP3    H237907   4.447   3.152   0.370 -0.0623 -0.0598  0.5703
 5450TIP3   OH237908   0.711   1.026   7.380 -0.5124 -0.2644  0.4336
 5450TIP3    H137909   0.719   1.061   7.291 -0.0430 -1.0407  0.1628
 5450TIP3    H237910   0.754   0.940   7.376  0.7639  0.2839  1.7551
 5451TIP3   OH237911   0.363   4.315   1.378  0.1914  0.2773 -0.1402
 5451TIP3    H137912   0.367   4.330   1.472  0.7294  0.9881 -0.2674
 5451TIP3    H237913   0.306   4.238   1.368  1.9623 -1.2481  0.9010
 5452TIP3   OH237914   1.082   4.408   1.021 -0.1606 -0.8714 -0.3572
 5452TIP3    H137915   1.138   4.484   1.039  0.0019 -1.2791  0.9755
 5452TIP3    H237916   1.096   4.389   0.928  2.5247 -1.4039  0.0655
 5453TIP3   OH237917   0.318   6.362   0.449 -0.1179 -0.3106  0.4288
 5453TIP3    H137918   0.364   6.289   0.490 -0.7377 -1.0230 -0.1135
 5453TIP3    H237919   0.384   6.431   0.440  0.6423 -1.0413  0.3433
 5454TIP3   OH237920   0.690   4.337   7.346  0.0863  0.3556 -0.2010
 5454TIP3    H137921   0.775   4.296   7.359  0.5481  0.6605 -1.9362
 5454TIP3    H237922   0.709   4.431   7.340 -0.4698  0.4946  0.1505
 5455TIP3   OH237923   2.596   2.940   1.362  0.0707  0.0386  0.2771
 5455TIP3    H137924   2.620   2.943   1.269  1.4926  0.3289  0.6303
 5455TIP3    H237925   2.671   2.979   1.407 -0.5885 -0.1311  1.5595
 5456TIP3   OH237926   4.515   5.032   2.669  0.0526  0.1009  0.1690
 5456TIP3    H137927   4.562   5.011   2.750 -0.1104 -0.2455  0.1749
 5456TIP3    H237928   4.424   5.047   2.697 -0.0758 -0.3572  0.0068
 5457TIP3   OH237929   4.144   1.020   8.568 -0.1330 -0.4466 -0.3725
 5457TIP3    H137930   4.174   1.054   8.652  0.1144 -0.8740 -0.2864
 5457TIP3    H237931   4.058   1.060   8.556  1.0447  1.9414 -1.3126
 5458TIP3   OH237932   3.133   0.992   7.896 -0.2545  0.9272  0.4791
 5458TIP3    H137933   3.040   0.970   7.893 -0.0766  0.2144  0.0128
 5458TIP3    H237934   3.142   1.064   7.834 -0.5219  1.1050  0.6432
 5459TIP3   OH237935   4.401   2.291   0.534 -0.2859  0.7009  0.8078
 5459TIP3    H137936   4.372   2.368   0.485 -1.1485 -0.0668  0.0955
 5459TIP3    H237937   4.383   2.217   0.477 -1.2895 -0.2266  2.2619
 5460TIP3   OH237938   1.926   3.212   2.294  0.3888 -0.1024  0.7916
 5460TIP3    H137939   1.942   3.282   2.231 -1.1198 -1.3083 -1.0775
 5460TIP3    H237940   1.905   3.257   2.376  2.4917  1.5296  0.5393
 5461TIP3   OH237941   3.811   1.000   0.915 -0.2591 -0.1054 -0.0824
 5461TIP3    H137942   3.773   1.086   0.934  0.2937 -0.1317  1.1919
 5461TIP3    H237943   3.898   1.020   0.880  0.5678 -0.1675  1.8624
 5462TIP3   OH237944   3.058   0.509   7.001  0.8481  0.4790  0.0083
 5462TIP3    H137945   3.093   0.547   7.082 -2.6954  1.3125  1.3321
 5462TIP3    H237946   3.019   0.426   7.029 -1.1214  1.1432 -0.5758
 5463TIP3   OH237947   3.710   4.938   0.518  0.5156  0.2601  0.5043
 5463TIP3    H137948   3.736   4.966   0.430 -0.5357  0.5895  0.2831
 5463TIP3    H237949   3.619   4.968   0.526 -0.3428 -2.1830  0.6594
 5464TIP3   OH237950   5.285   0.753   0.038  0.1183 -0.0058 -0.5153
 5464TIP3    H137951   5.342   0.813  -0.011 -0.0181  0.7839  0.2602
 5464TIP3    H237952   5.345   0.696   0.085  0.2899  0.7766  0.2413
 5465TIP3   OH237953   1.495   3.669   2.337  0.3535  0.4539 -0.0891
 5465TIP3    H137954   1.494   3.668   2.242 -0.5213 -0.7669 -0.0991
 5465TIP3    H237955   1.569   3.613   2.361 -1.2087 -1.7181 -0.1046
 5466TIP3   OH237956   5.292   5.442   0.595 -0.1600  0.3458 -0.3290
 5466TIP3    H137957   5.222   5.494   0.636 -0.4005  0.3528 -0.7440
 5466TIP3    H237958   5.364   5.504   0.585 -0.1252  0.3635  0.0169
 5467TIP3   OH237959   3.294   2.204   1.835 -0.0461 -0.3563  0.2883
 5467TIP3    H137960   3.272   2.290   1.799  1.2242 -0.0491  0.1832
 5467TIP3    H237961   3.319   2.222   1.925 -3.7747 -1.1937  1.6727
 5468TIP3   OH237962   2.297   6.745   2.109 -0.4798  0.2705 -0.5797
 5468TIP3    H137963   2.384   6.706   2.111 -0.7097 -0.2435 -0.2559
 5468TIP3    H237964   2.291   6.787   2.024  0.0017  0.1182 -0.6923
 5469TIP3   OH237965   5.413   3.680   2.493 -0.1498  0.3705  0.1433
 5469TIP3    H137966   5.409   3.775   2.479 -1.7398  0.1302 -1.3733
 5469TIP3    H237967   5.322   3.652   2.493  0.3276 -1.3580 -1.1026
 5470TIP3   OH237968   1.159   5.935   8.751 -0.5943 -0.4609 -0.3317
 5470TIP3    H137969   1.246   5.912   8.718 -0.5073  0.0246 -0.4499
 5470TIP3    H237970   1.176   5.971   8.838 -0.4204  1.6846 -1.1841
 5471TIP3   OH237971   5.231   6.363   0.852 -0.3942 -0.4288 -0.0479
 5471TIP3    H137972   5.171   6.345   0.779 -0.2021 -2.8337  0.3163
 5471TIP3    H237973   5.317   6.368   0.811 -0.5337  0.4250 -0.2470
 5472TIP3   OH237974   1.132   3.906   8.642  0.5339 -0.3601 -0.1224
 5472TIP3    H137975   1.169   3.979   8.692 -0.8809  0.9047 -0.8196
 5472TIP3    H237976   1.038   3.925   8.639  0.2339 -1.8525 -0.9309
 5473TIP3   OH237977   3.188   3.051   0.158  0.2974  0.5924 -0.2605
 5473TIP3    H137978   3.124   2.997   0.205  0.7788  1.0067  0.9052
 5473TIP3    H237979   3.219   3.113   0.224  2.0947  0.2354 -0.7364
 5474TIP3   OH237980   5.502   0.983   2.255  0.0411  0.6606 -0.2112
 5474TIP3    H137981   5.535   0.982   2.165  0.4241 -0.1719 -0.0642
 5474TIP3    H237982   5.578   0.962   2.309  0.1267  2.4154  0.4235
 5475TIP3   OH237983   4.038   0.103   1.249  0.0342  0.8955 -0.6809
 5475TIP3    H137984   3.950   0.136   1.268  0.0046  0.5914 -0.2740
 5475TIP3    H237985   4.082   0.104   1.334  0.8196  2.1802 -1.0828
 5476TIP3   OH237986   2.433   3.715   2.195  1.0236 -0.3453 -0.8279
 5476TIP3    H137987   2.479   3.648   2.144  0.8979  0.1814 -1.6503
 5476TIP3    H237988   2.381   3.762   2.131  0.9505  0.4168 -0.2211
 5477TIP3   OH237989   4.816   0.185   0.170  0.1023 -0.1834 -0.6785
 5477TIP3    H137990   4.814   0.172   0.264 -2.2786  0.1583 -0.6305
 5477TIP3    H237991   4.853   0.273   0.159 -1.2733  0.5076  0.0661
 5478TIP3   OH237992   3.046   3.838   2.161 -0.1726 -0.1850 -0.5196
 5478TIP3    H137993   2.985   3.772   2.193  1.3884 -1.0966  0.7573
 5478TIP3    H237994   2.994   3.918   2.153 -1.6641 -1.0899 -0.2018
 5479TIP3   OH237995   5.648   1.873   7.415 -0.4206  0.2426 -0.0472
 5479TIP3    H137996   5.562   1.905   7.387 -0.9302 -1.2633 -0.2786
 5479TIP3    H237997   5.694   1.853   7.333  0.2159  1.1569  0.0713
 5480TIP3   OH237998   2.896   0.010   2.286  0.2739  0.1280  0.0941
 5480TIP3    H137999   2.802  -0.008   2.289  0.4861 -1.2044 -0.2384
 5480TIP3    H238000   2.935  -0.062   2.335  1.2643 -0.9816 -2.1459
 5481TIP3   OH238001   6.511   5.198   7.943 -0.2438  0.6335  0.3445
 5481TIP3    H138002   6.452   5.159   8.007 -0.6747  0.0200 -0.4082
 5481TIP3    H238003   6.481   5.165   7.858  0.7304  0.8858 -0.1227
 5482TIP3   OH238004   0.811   0.494   2.768 -0.1610  0.2133  0.2540
 5482TIP3    H138005   0.845   0.405   2.775 -0.9849 -0.0873  0.5614
 5482TIP3    H238006   0.884   0.550   2.795  0.2583 -0.3843  0.3752
 5483TIP3   OH238007   5.527   1.367   7.209  0.3895 -0.0610 -0.6739
 5483TIP3    H138008   5.608   1.315   7.207 -0.9193 -2.2795 -0.3007
 5483TIP3    H238009   5.503   1.369   7.301 -0.3894 -0.1505 -0.8682
 5484TIP3   OH238010   2.134   5.871   1.058 -0.6660 -0.4381  0.3215
 5484TIP3    H138011   2.225   5.888   1.082 -0.4505  0.3512 -1.0120
 5484TIP3    H238012   2.087   5.874   1.142  0.2243  1.1866  0.8060
 5485TIP3   OH238013   4.186   3.217   1.629  0.2620 -0.2605  0.0950
 5485TIP3    H138014   4.121   3.175   1.574  0.0742 -0.4921  0.4870
 5485TIP3    H238015   4.228   3.282   1.572  1.0914 -1.4858 -0.7399
 5486TIP3   OH238016   5.377   2.466   7.762 -1.2849  0.5423 -0.4075
 5486TIP3    H138017   5.343   2.523   7.832  1.1426  2.8008 -0.8858
 5486TIP3    H238018   5.393   2.526   7.689 -0.6117 -1.1984 -1.7440
 5487TIP3   OH238019   6.364   3.933   1.282 -0.2267 -0.0418  0.2239
 5487TIP3    H138020   6.392   3.869   1.348  0.7227  0.2283  0.0867
 5487TIP3    H238021   6.374   4.017   1.326 -0.6189  0.0761  0.0914
 5488TIP3   OH238022   1.786   0.200   1.208 -0.4110 -0.3777  0.3966
 5488TIP3    H138023   1.718   0.146   1.167  1.1034 -1.1553 -1.2122
 5488TIP3    H238024   1.855   0.138   1.231  0.5216  0.6168  0.3406
 5489TIP3   OH238025   0.789   2.941   2.430 -0.4375 -0.3424  0.2600
 5489TIP3    H138026   0.841   2.884   2.487 -0.2513 -1.6982 -1.1854
 5489TIP3    H238027   0.854   2.991   2.381 -0.5410 -0.4102  0.0517
 5490TIP3   OH238028   6.381   1.568   0.263  0.0661 -0.7250  0.7543
 5490TIP3    H138029   6.290   1.585   0.237  0.2755  1.1239  1.0905
 5490TIP3    H238030   6.375   1.548   0.357  0.0791  0.1154  0.9348
 5491TIP3   OH238031   4.255   0.461   1.332  0.3721 -0.9251 -1.0214
 5491TIP3    H138032   4.175   0.466   1.384  2.0003  0.4477  1.5774
 5491TIP3    H238033   4.245   0.383   1.278 -3.2462 -0.0469 -1.8470
 5492TIP3   OH238034   0.419   5.772   8.523  0.0880  0.1020 -0.3919
 5492TIP3    H138035   0.349   5.822   8.565 -0.0837 -0.4558 -0.0127
 5492TIP3    H238036   0.394   5.768   8.431 -1.3803 -1.7327  0.0354
 5493TIP3   OH238037   6.027   1.226   6.946 -0.0890  0.1155 -0.6369
 5493TIP3    H138038   6.066   1.308   6.917  0.9575  0.5768  1.8468
 5493TIP3    H238039   6.097   1.161   6.936  0.4612  0.3802  1.1692
 5494TIP3   OH238040   0.714   2.703   0.262 -0.2473  0.1270 -0.1782
 5494TIP3    H138041   0.716   2.721   0.168 -0.4933  1.5656  0.0660
 5494TIP3    H238042   0.763   2.776   0.301  0.2947 -0.7252  0.7855
 5495TIP3   OH238043   1.385   6.334   2.561 -0.1324 -0.0418 -0.0304
 5495TIP3    H138044   1.402   6.242   2.544 -0.4971  0.0249 -0.7764
 5495TIP3    H238045   1.465   6.366   2.602  1.0069 -0.0744 -2.1275
 5496TIP3   OH238046   1.709   2.637   2.067 -0.8398  0.1203  0.1423
 5496TIP3    H138047   1.712   2.596   2.153 -2.1138  0.2799  0.2845
 5496TIP3    H238048   1.745   2.725   2.081 -1.0959  0.1666  0.5306
 5497TIP3   OH238049   1.386   2.222   1.185 -0.2204 -0.4186  0.2346
 5497TIP3    H138050   1.450   2.167   1.230 -0.6727  0.7725  2.4431
 5497TIP3    H238051   1.348   2.164   1.119  2.5238 -1.3946 -0.6417
 5498TIP3   OH238052   2.644   6.766   8.322  0.0274  0.1781 -0.4788
 5498TIP3    H138053   2.603   6.709   8.256 -0.6715 -0.6722  0.6592
 5498TIP3    H238054   2.669   6.844   8.273 -0.6452 -0.3555 -1.7289
 5499TIP3   OH238055   1.159   6.224   7.052  0.2701  0.4745  0.6555
 5499TIP3    H138056   1.243   6.198   7.014 -0.0131 -1.3789  1.2099
 5499TIP3    H238057   1.116   6.274   6.983  0.9570 -0.3585 -0.4095
 5500TIP3   OH238058   6.599   5.488   0.077  0.3309 -0.0033 -0.4294
 5500TIP3    H138059   6.593   5.566   0.132 -1.0062 -0.6446  0.3760
 5500TIP3    H238060   6.692   5.476   0.062  0.8278 -0.2854  2.3904
 5501TIP3   OH238061   4.481   4.268   1.358 -0.1566 -0.4892 -0.1959
 5501TIP3    H138062   4.567   4.227   1.361  0.5303  0.9453  1.2527
 5501TIP3    H238063   4.495   4.349   1.310 -1.0575 -0.9509 -1.2811
 5502TIP3   OH238064   3.542   0.328   0.093 -0.2163  0.8648  0.0278
 5502TIP3    H138065   3.615   0.363   0.146 -0.3896 -0.0865  0.9366
 5502TIP3    H238066   3.547   0.233   0.107 -1.2477  0.7409 -0.4115
 5503TIP3   OH238067   6.121   4.395   7.266  0.1976  0.8919  0.5952
 5503TIP3    H138068   6.044   4.430   7.219  0.3287  1.9243  1.1115
 5503TIP3    H238069   6.185   4.466   7.262  1.3629 -0.1514 -0.3022
 5504TIP3   OH238070   4.264   2.649   8.038 -0.2290  0.2575 -0.4585
 5504TIP3    H138071   4.244   2.729   8.085 -2.9584 -0.2049 -0.6872
 5504TIP3    H238072   4.275   2.582   8.106 -0.8283  0.2514 -0.3695
 5505TIP3   OH238073   3.424   4.032   7.437  1.0198 -0.6905  0.2176
 5505TIP3    H138074   3.504   4.084   7.429  0.7365 -0.2940 -0.0980
 5505TIP3    H238075   3.375   4.051   7.357  1.3876 -2.2977 -0.4187
 5506TIP3   OH238076   0.172   3.248   1.823 -0.5397 -0.0917  0.1454
 5506TIP3    H138077   0.119   3.272   1.747 -0.9165  0.3190  0.5343
 5506TIP3    H238078   0.201   3.159   1.804  0.1794  0.3487 -0.9259
 5507TIP3   OH238079   0.867   3.981   8.661 -0.7157  0.2776  0.0171
 5507TIP3    H138080   0.791   3.932   8.693 -1.0655  1.1416  0.5558
 5507TIP3    H238081   0.834   4.070   8.649  0.4006  0.8634  1.0530
 5508TIP3   OH238082   3.155   2.863   1.749  0.5431  0.1930 -0.1232
 5508TIP3    H138083   3.168   2.945   1.701 -1.1198  0.9679  0.6508
 5508TIP3    H238084   3.226   2.861   1.813  0.6535  0.9996 -0.2088
 5509TIP3   OH238085   1.352   6.170   2.165  0.0179  0.0967 -0.0378
 5509TIP3    H138086   1.378   6.223   2.089  0.6318  0.7052  0.5813
 5509TIP3    H238087   1.426   6.111   2.179 -0.2479 -0.2608 -0.1266
 5510TIP3   OH238088   4.378   4.577   1.980 -0.2293  0.3869 -0.4092
 5510TIP3    H138089   4.312   4.599   1.915 -0.8837  1.9030  0.7010
 5510TIP3    H238090   4.460   4.607   1.942 -0.5623  1.0115 -0.6424
 5511TIP3   OH238091   4.468   3.443   1.754 -0.2287  0.0383  0.0651
 5511TIP3    H138092   4.511   3.528   1.752 -1.5217  0.8454  2.2343
 5511TIP3    H238093   4.464   3.414   1.663  3.1339  0.7409 -0.3963
 5512TIP3   OH238094   0.027   5.978   2.514 -0.0647  0.1745  0.4406
 5512TIP3    H138095   0.103   6.036   2.510 -1.2090  1.7456  0.4359
 5512TIP3    H238096   0.052   5.910   2.577  1.7510 -0.0191 -0.4204
 5513TIP3   OH238097   2.480   3.441   7.596 -1.0968 -0.1307  0.0428
 5513TIP3    H138098   2.447   3.486   7.518  0.2805 -2.7579 -2.2459
 5513TIP3    H238099   2.566   3.408   7.570 -0.3149 -0.6659  2.9260
 5514TIP3   OH238100   1.866   1.972   1.159  0.5285 -0.3843  0.3399
 5514TIP3    H138101   1.834   1.966   1.069  0.0459  3.8939  0.0069
 5514TIP3    H238102   1.935   2.038   1.156  2.4874 -2.1470  2.7456
 5515TIP3   OH238103   6.812   1.679   2.757  0.0183 -0.2124 -0.7088
 5515TIP3    H138104   6.905   1.660   2.766  0.0907  0.7458  0.9195
 5515TIP3    H238105   6.768   1.598   2.786  0.3665  0.5352  2.3048
 5516TIP3   OH238106   6.099   1.456   7.200 -0.5907 -0.2230  0.4905
 5516TIP3    H138107   6.008   1.439   7.173 -0.1589 -1.0009 -0.5446
 5516TIP3    H238108   6.140   1.370   7.200  0.0871  0.0875  1.2350
 5517TIP3   OH238109   0.264   5.479   8.509  0.5308 -0.1733  0.1448
 5517TIP3    H138110   0.329   5.538   8.548 -0.4635  0.9944  0.0974
 5517TIP3    H238111   0.257   5.406   8.571  0.0673  0.9313  1.4339
 5518TIP3   OH238112   1.871   5.172   8.381 -0.3469 -0.0843 -0.1196
 5518TIP3    H138113   1.893   5.095   8.329 -0.1212  0.2010 -0.4573
 5518TIP3    H238114   1.927   5.167   8.458 -0.1417 -0.1218 -0.2708
 5519TIP3   OH238115   1.924   2.877   8.165  0.6620  0.2488  0.3553
 5519TIP3    H138116   2.006   2.850   8.124  0.9082  0.5675  0.6290
 5519TIP3    H238117   1.951   2.915   8.249  0.2143  0.1384  0.5501
 5520TIP3   OH238118   6.456   3.906   1.039  0.4552  0.1153  0.3867
 5520TIP3    H138119   6.494   3.991   1.017 -0.6829  0.4562 -0.3420
 5520TIP3    H238120   6.421   3.917   1.127 -0.6961  0.7710 -0.1379
 5521TIP3   OH238121   5.358   3.017   8.095  0.2932 -0.6789 -0.0999
 5521TIP3    H138122   5.274   2.973   8.081 -0.3820  1.0566 -2.1456
 5521TIP3    H238123   5.384   3.047   8.008  0.6934  2.8259  1.0654
 5522TIP3   OH238124   4.139   0.871   0.161  0.4532  0.1862 -0.6127
 5522TIP3    H138125   4.087   0.797   0.130 -1.3066  1.4556 -0.8882
 5522TIP3    H238126   4.128   0.870   0.256  2.5463 -1.3484 -0.3223
 5523TIP3   OH238127   3.351   4.926   1.146  0.5480  0.0909 -0.1188
 5523TIP3    H138128   3.292   4.895   1.077  1.3637 -3.2757  0.4709
 5523TIP3    H238129   3.317   4.885   1.226  0.4469  2.7574  1.3165
 5524TIP3   OH238130   4.820   1.971   0.426 -0.6118 -0.4043 -0.3262
 5524TIP3    H138131   4.835   1.877   0.416  1.0130 -0.3303  1.0618
 5524TIP3    H238132   4.855   2.010   0.346  0.8447 -0.8257  0.0717
 5525TIP3   OH238133   0.333   5.786   0.356 -0.1397  0.8240  0.4324
 5525TIP3    H138134   0.407   5.761   0.411 -0.0220 -0.1091 -0.1354
 5525TIP3    H238135   0.370   5.801   0.269 -0.7914 -1.1881 -0.2512
 5526TIP3   OH238136   0.592   5.387   8.720  0.3064  0.0138 -0.4114
 5526TIP3    H138137   0.602   5.465   8.666  1.3508  0.0505 -0.1773
 5526TIP3    H238138   0.677   5.344   8.717  0.2855 -0.1734  0.9026
 5527TIP3   OH238139   3.023   0.459   0.485  0.0909  0.3063 -0.4334
 5527TIP3    H138140   3.108   0.489   0.452  0.7801  0.7083  1.5691
 5527TIP3    H238141   2.982   0.538   0.520  0.0749 -0.3241  1.0334
 5528TIP3   OH238142   5.830   5.116   8.039  0.1455 -0.7258 -0.1406
 5528TIP3    H138143   5.854   5.127   7.947  0.8223 -1.3638 -0.0563
 5528TIP3    H238144   5.885   5.179   8.086 -0.5053 -0.1009 -0.2026
 5529TIP3   OH238145   2.017   6.191   1.737  0.7442  0.1934 -0.2451
 5529TIP3    H138146   1.989   6.150   1.819  2.1347  1.3316  0.8423
 5529TIP3    H238147   2.047   6.117   1.683  0.9355 -0.4640  0.7326
 5530TIP3   OH238148   6.685   2.573   0.868 -0.4097  0.3240 -0.0010
 5530TIP3    H138149   6.714   2.643   0.810  0.4498 -0.0011  0.0173
 5530TIP3    H238150   6.750   2.504   0.857 -0.1188  0.3255  1.4690
 5531TIP3   OH238151   1.362   3.947   8.304  0.1296 -0.4006 -0.6603
 5531TIP3    H138152   1.409   3.961   8.222 -0.1143  1.5678 -0.5144
 5531TIP3    H238153   1.301   3.876   8.285  0.8475 -0.7257 -1.8454
 5532TIP3   OH238154   2.957   2.125   0.697  0.4904 -0.5019 -0.2260
 5532TIP3    H138155   3.001   2.064   0.756 -0.7329 -2.5021 -1.3159
 5532TIP3    H238156   2.940   2.202   0.752  3.8442 -0.2399  0.6525
 5533TIP3   OH238157   0.987   5.200   2.550  0.1014  0.8252  0.2035
 5533TIP3    H138158   0.950   5.259   2.484  0.1625  0.8862  0.2236
 5533TIP3    H238159   0.994   5.254   2.629 -1.4279  0.3336  0.7090
 5534TIP3   OH238160   3.349   0.662   7.904  0.7879 -0.0584  0.1592
 5534TIP3    H138161   3.345   0.722   7.978  1.7664 -1.8089  1.7486
 5534TIP3    H238162   3.433   0.681   7.862  1.8607 -1.2456  1.6176
 5535TIP3   OH238163   1.008   3.077   0.506 -0.4200  0.0949  0.2244
 5535TIP3    H138164   1.022   3.137   0.433  0.3424 -0.7661 -0.3576
 5535TIP3    H238165   0.989   3.134   0.581 -1.1202  0.9875 -0.6125
 5536TIP3   OH238166   5.773   1.265   7.115  0.2702 -0.1593  0.5025
 5536TIP3    H138167   5.766   1.359   7.095 -0.1070 -0.8225 -3.2041
 5536TIP3    H238168   5.863   1.242   7.094  0.0369 -0.8444  0.2118
 5537TIP3   OH238169   5.739   0.697   0.338  0.1788 -0.0867 -0.1688
 5537TIP3    H138170   5.683   0.655   0.272 -0.4018  1.6428 -0.8236
 5537TIP3    H238171   5.827   0.690   0.302 -0.2565  1.8979 -1.7971
 5538TIP3   OH238172   1.526   3.645   7.607 -0.0793 -0.1034  0.1008
 5538TIP3    H138173   1.574   3.606   7.534 -1.1268 -0.0065 -0.6564
 5538TIP3    H238174   1.580   3.718   7.636  0.7153 -0.6157 -0.0698
 5539TIP3   OH238175   5.251   6.069   1.164  0.3720 -0.2108  0.1019
 5539TIP3    H138176   5.316   6.138   1.172  0.4295 -0.3509  0.8738
 5539TIP3    H238177   5.284   5.998   1.219  0.2728 -0.8269 -0.6169
 5540TIP3   OH238178   2.569   4.655   0.823 -0.4515  0.3021  0.2967
 5540TIP3    H138179   2.627   4.714   0.775  1.7509 -0.9201  1.3356
 5540TIP3    H238180   2.613   4.570   0.820 -1.5622 -0.4054  2.1917
 5541TIP3   OH238181   5.137   0.288   8.402 -0.1947 -0.3146  0.1726
 5541TIP3    H138182   5.094   0.267   8.319 -0.3715 -0.2610  0.2512
 5541TIP3    H238183   5.115   0.214   8.460  0.9091 -0.9446 -0.1868
 5542TIP3   OH238184   4.532   4.477   1.159  0.1096  0.3980  0.3629
 5542TIP3    H138185   4.505   4.471   1.067  0.5718 -1.6379  0.3162
 5542TIP3    H238186   4.602   4.541   1.160 -0.2417  0.8130 -0.6146
 5543TIP3   OH238187   4.938   3.085   8.425  0.7746 -0.0000  0.0607
 5543TIP3    H138188   4.962   3.163   8.373  0.2418 -1.2551 -2.2290
 5543TIP3    H238189   5.011   3.025   8.413  0.2835 -0.6175  0.1067
 5544TIP3   OH238190   0.625   1.269   2.438  0.2438  0.2245 -0.3899
 5544TIP3    H138191   0.690   1.338   2.450  0.1885  0.2305 -0.1063
 5544TIP3    H238192   0.625   1.222   2.521  0.5461 -0.3523 -0.7104
 5545TIP3   OH238193   5.483   3.031   0.172 -0.0150 -0.2026 -0.3596
 5545TIP3    H138194   5.438   3.033   0.088 -0.4433 -1.3477 -0.1735
 5545TIP3    H238195   5.452   2.951   0.214  0.1215  0.3934  0.9298
 5546TIP3   OH238196   3.960   6.086   7.888 -0.5616  0.8281  0.0516
 5546TIP3    H138197   3.927   6.014   7.833  0.4657  0.4065 -0.0393
 5546TIP3    H238198   4.035   6.048   7.934 -0.8819  1.4400  1.0969
 5547TIP3   OH238199   6.204   6.596   0.876  0.4463 -0.4860 -0.5224
 5547TIP3    H138200   6.244   6.521   0.833 -0.3563 -1.0891 -0.2613
 5547TIP3    H238201   6.118   6.604   0.835 -0.1114 -0.7221  0.5507
 5548TIP3   OH238202   3.115   2.739   1.003  0.4058  0.3956 -0.8267
 5548TIP3    H138203   3.104   2.706   1.092  1.5248  0.4182 -0.6620
 5548TIP3    H238204   3.053   2.689   0.950 -3.1054  2.9670  0.5088
 5549TIP3   OH238205   3.897   3.936   8.225 -0.0315 -0.1899  0.0939
 5549TIP3    H138206   3.877   3.903   8.313  1.3533 -1.7956 -0.1294
 5549TIP3    H238207   3.887   4.031   8.232 -0.6547 -0.3386  1.7824
 5550TIP3   OH238208   3.260   5.157   8.764 -0.3766  0.2431  0.0484
 5550TIP3    H138209   3.254   5.062   8.755 -2.6287  0.4612 -1.8360
 5550TIP3    H238210   3.284   5.171   8.856  0.2498 -2.1073  0.3188
 5551TIP3   OH238211   4.212   0.960   1.547 -0.4853  0.3378  0.0945
 5551TIP3    H138212   4.155   0.905   1.601 -0.8730  2.5693  2.1322
 5551TIP3    H238213   4.299   0.923   1.559 -0.7594  0.0181  1.2543
 5552TIP3   OH238214   3.155   4.306   2.430 -0.2710  0.5076 -0.0914
 5552TIP3    H138215   3.217   4.375   2.454 -0.2314  0.1432  0.9399
 5552TIP3    H238216   3.187   4.273   2.346  0.4631  0.8786  0.0289
 5553TIP3   OH238217   5.034   6.705   7.992  0.3296 -0.0131 -0.7664
 5553TIP3    H138218   5.017   6.640   8.060  0.4295  1.1290  0.3750
 5553TIP3    H238219   4.986   6.783   8.020  2.5253  1.3553 -0.5524
 5554TIP3   OH238220   0.054   5.447   2.216  0.4861  0.8572  0.4640
 5554TIP3    H138221  -0.017   5.409   2.267  1.3021 -0.3821  0.7217
 5554TIP3    H238222   0.109   5.372   2.191  1.3931  1.7110 -0.2145
 5555TIP3   OH238223   2.102   2.423   0.045 -0.0161 -0.3032 -0.6654
 5555TIP3    H138224   2.011   2.399   0.029 -0.2835  1.0182 -1.2719
 5555TIP3    H238225   2.104   2.449   0.138 -0.1943 -0.5880 -0.5829
 5556TIP3   OH238226   2.852   4.756   1.109 -0.0036 -0.1783  0.4502
 5556TIP3    H138227   2.917   4.730   1.044  0.7096  0.0963  1.0415
 5556TIP3    H238228   2.869   4.699   1.184 -0.6081 -0.2747  0.5191
 5557TIP3   OH238229   1.346   4.338   1.715 -0.0409 -0.3391 -0.0858
 5557TIP3    H138230   1.323   4.368   1.627  0.9907 -0.8603 -0.5484
 5557TIP3    H238231   1.403   4.262   1.701  0.6557 -0.0505  1.0200
 5558TIP3   OH238232   1.097   1.402   1.762 -0.2504  0.1818 -0.3482
 5558TIP3    H138233   1.053   1.488   1.762 -1.0996 -0.2380  0.0882
 5558TIP3    H238234   1.107   1.381   1.855  1.5899  0.6016 -0.4201
 5559TIP3   OH238235   1.317   5.917   8.352 -0.0876  0.0535  0.0790
 5559TIP3    H138236   1.280   5.937   8.266 -1.9875 -1.4970  0.4485
 5559TIP3    H238237   1.277   5.981   8.410 -0.2729 -0.0576  0.0783
 5560TIP3   OH238238   0.956   4.896   0.052  0.5679 -0.1992 -0.0312
 5560TIP3    H138239   0.925   4.806   0.044 -0.9232  0.2374  0.3427
 5560TIP3    H238240   0.972   4.925  -0.038 -1.4709 -0.0548 -0.4162
 5561TIP3   OH238241   6.222   5.699   0.141  0.6274 -0.2643 -0.0476
 5561TIP3    H138242   6.136   5.724   0.176  0.8175  1.2593 -0.5825
 5561TIP3    H238243   6.276   5.686   0.219  0.0812 -0.6377  0.2839
 5562TIP3   OH238244   2.453   0.695   2.233 -0.2194 -0.4562  0.3885
 5562TIP3    H138245   2.394   0.758   2.190 -0.8134 -2.0276 -1.2306
 5562TIP3    H238246   2.525   0.749   2.266 -1.0143  1.1481 -0.3628
 5563TIP3   OH238247   3.636   5.710   2.000 -0.7810 -0.1382 -0.0115
 5563TIP3    H138248   3.696   5.635   2.002 -2.0798 -1.2222  1.9694
 5563TIP3    H238249   3.570   5.685   1.936 -1.3674 -0.8613  0.8511
 5564TIP3   OH238250   1.815   1.978   0.876 -0.0205 -0.1066  0.1216
 5564TIP3    H138251   1.834   1.941   0.790  1.0207  1.8788 -0.5823
 5564TIP3    H238252   1.720   1.995   0.875 -0.6032 -2.9164  0.6199
 5565TIP3   OH238253   6.236   4.324   8.433 -0.5500  0.0144  0.1497
 5565TIP3    H138254   6.149   4.345   8.467  0.1693 -0.4873  2.4644
 5565TIP3    H238255   6.219   4.264   8.360 -2.2311  2.3486 -1.5201
 5566TIP3   OH238256   1.859   2.140   8.781 -0.2435  0.2089  0.8871
 5566TIP3    H138257   1.900   2.226   8.790 -0.2531  0.1141  1.9921
 5566TIP3    H238258   1.884   2.093   8.861  0.6684 -1.2111 -0.1804
 5567TIP3   OH238259   5.549   3.014   0.499  0.7579 -0.1195  0.4041
 5567TIP3    H138260   5.500   2.945   0.454  1.4253  1.0538 -2.3338
 5567TIP3    H238261   5.482   3.074   0.531  0.2592 -0.8450  0.7320
 5568TIP3   OH238262   3.736   4.892   2.037 -0.0466 -0.3719 -0.1593
 5568TIP3    H138263   3.664   4.950   2.062 -0.8760 -1.0734 -0.8574
 5568TIP3    H238264   3.753   4.839   2.116  2.8990  2.8551  1.6483
 5569TIP3   OH238265   5.104   3.424   8.585  0.6658 -0.0282  0.3756
 5569TIP3    H138266   5.079   3.476   8.508  0.2041 -0.3356  0.3143
 5569TIP3    H238267   5.118   3.489   8.654 -0.1152  0.1687  0.3568
 5570TIP3   OH238268   6.304   4.313   0.312  0.3852 -0.0863 -0.6011
 5570TIP3    H138269   6.210   4.329   0.301  0.7286  0.5321 -3.2899
 5570TIP3    H238270   6.308   4.222   0.342 -1.1333  1.1452  4.3243
 5571TIP3   OH238271   0.984   3.475   2.009  0.1098 -0.4729 -0.0229
 5571TIP3    H138272   1.066   3.428   2.024  0.2485  0.2464  1.7068
 5571TIP3    H238273   0.991   3.553   2.063 -0.0899  1.6342 -2.8013
 5572TIP3   OH238274   3.739   6.816   0.442  0.3281 -0.7145  0.2343
 5572TIP3    H138275   3.702   6.850   0.361  2.6152  0.7078 -0.3158
 5572TIP3    H238276   3.794   6.742   0.415  0.3801 -0.8123  0.5992
 5573TIP3   OH238277   3.811   2.331   7.914 -0.0716 -0.3688 -0.0773
 5573TIP3    H138278   3.778   2.355   7.827  3.4722  0.6395 -1.3311
 5573TIP3    H238279   3.897   2.293   7.897  0.9682  0.2892  3.0192
 5574TIP3   OH238280   6.010   3.776   0.356  0.2785  0.1850  1.0873
 5574TIP3    H138281   5.996   3.862   0.316  1.9090  0.7636  1.6709
 5574TIP3    H238282   6.088   3.742   0.312 -0.5959 -1.2270  0.5538
 5575TIP3   OH238283   5.608   1.585   0.439 -0.1228  0.2686  0.0734
 5575TIP3    H138284   5.531   1.639   0.454  0.4999  1.0180  0.7063
 5575TIP3    H238285   5.666   1.605   0.512  0.9912  0.3230 -0.7909
 5576TIP3   OH238286   4.324   4.101   7.589  0.0183  0.1314 -0.6616
 5576TIP3    H138287   4.369   4.150   7.520 -0.1095  0.6254 -0.3999
 5576TIP3    H238288   4.260   4.047   7.542  0.2596  0.1034 -0.9647
 5577TIP3   OH238289   0.676   1.816   7.000 -0.4145  0.2494 -0.8266
 5577TIP3    H138290   0.725   1.775   6.929  1.4795 -1.9130  1.5448
 5577TIP3    H238291   0.592   1.770   7.000  0.3795 -1.2720 -0.4072
 5578TIP3   OH238292   2.027   0.377   7.036 -0.1550 -0.1628 -0.3354
 5578TIP3    H138293   2.057   0.428   7.112 -0.3799 -1.5083  0.6986
 5578TIP3    H238294   1.958   0.321   7.072  0.0403 -1.1411 -1.4593
 5579TIP3   OH238295   1.537   1.691   7.555 -0.3209  0.5595 -0.4177
 5579TIP3    H138296   1.502   1.766   7.507  0.1674  1.3553  0.4245
 5579TIP3    H238297   1.490   1.694   7.639  0.1159  0.2740 -0.1607
 5580TIP3   OH238298   5.133   1.764   0.708  0.5624 -0.0647  0.1971
 5580TIP3    H138299   5.138   1.840   0.650  0.3971 -0.5872 -0.5115
 5580TIP3    H238300   5.131   1.802   0.796 -0.6034  0.8041 -0.1717
 5581TIP3   OH238301   2.760   5.899   7.495 -0.1773  0.5696 -0.3411
 5581TIP3    H138302   2.680   5.859   7.528 -0.6679  0.6909 -1.3561
 5581TIP3    H238303   2.733   5.984   7.461  0.5216  0.9355 -0.0036
 5582TIP3   OH238304   4.211   3.354   8.483 -0.5540  0.4840 -0.4412
 5582TIP3    H138305   4.210   3.305   8.401 -0.8698 -2.3621  1.1532
 5582TIP3    H238306   4.259   3.434   8.462 -0.4991 -0.1884 -3.3426
 5583TIP3   OH238307   5.962   3.178   8.562  0.4772  0.5758 -0.4963
 5583TIP3    H138308   5.984   3.132   8.481  0.2146  0.3106 -0.4201
 5583TIP3    H238309   5.874   3.213   8.547 -0.1543 -0.6433  0.1593
 5584TIP3   OH238310   1.677   5.758   2.208 -0.2640  0.7990 -0.0240
 5584TIP3    H138311   1.631   5.830   2.251 -2.7463 -1.5318  1.6073
 5584TIP3    H238312   1.623   5.681   2.226  2.3108 -1.5556 -1.4616
 5585TIP3   OH238313   2.907   2.275   1.878 -0.4139 -0.3497 -0.1684
 5585TIP3    H138314   2.991   2.264   1.923 -0.1916  0.7822 -0.2786
 5585TIP3    H238315   2.890   2.189   1.838  0.0373 -0.9754  0.9453
 5586TIP3   OH238316   3.508   3.549   1.437 -0.3110 -0.0308 -0.6172
 5586TIP3    H138317   3.512   3.633   1.392 -1.9645  0.3629 -0.0823
 5586TIP3    H238318   3.429   3.554   1.490  1.7575 -0.2592  2.7629
 5587TIP3   OH238319   4.541   0.420   2.195 -0.2482 -0.2421 -0.1335
 5587TIP3    H138320   4.611   0.355   2.194 -0.4493 -0.4793  0.6724
 5587TIP3    H238321   4.550   0.465   2.279 -0.0905  0.8039 -0.6911
 5588TIP3   OH238322   3.100   5.664   8.010 -0.0236 -0.8799 -0.3902
 5588TIP3    H138323   3.068   5.732   7.950 -2.1433 -1.4699 -0.0000
 5588TIP3    H238324   3.169   5.708   8.061  1.5625 -0.2374 -2.8875
 5589TIP3   OH238325   1.070   4.634   1.273  0.0811  0.0297  0.5669
 5589TIP3    H138326   1.124   4.635   1.351 -0.1149 -1.1110  0.7283
 5589TIP3    H238327   1.031   4.547   1.271 -1.2345  0.5997  0.1060
 5590TIP3   OH238328   5.041   4.277   2.048 -0.1285  0.1461 -0.2826
 5590TIP3    H138329   5.094   4.353   2.069  1.2638 -0.7029 -0.6056
 5590TIP3    H238330   5.053   4.264   1.954 -0.6658 -0.2456 -0.3026
 5591TIP3   OH238331   2.657   0.857   8.467 -0.0647 -0.7471 -0.1955
 5591TIP3    H138332   2.630   0.928   8.525 -2.5238 -1.7237 -0.0638
 5591TIP3    H238333   2.641   0.891   8.379  0.0612 -0.6508 -0.1821
 5592TIP3   OH238334   3.075   0.721   0.165 -0.1097  0.0067  0.1987
 5592TIP3    H138335   3.130   0.644   0.180  0.1951  0.1146 -0.3247
 5592TIP3    H238336   3.135   0.787   0.130 -0.5878  0.0920 -0.4753
 5593TIP3   OH238337   1.548   4.477   2.794 -0.8283  0.2975  0.1928
 5593TIP3    H138338   1.566   4.406   2.855 -4.2479 -0.2389  0.7936
 5593TIP3    H238339   1.489   4.439   2.729  0.5282  1.5863 -1.9125
 5594TIP3   OH238340   1.523   3.544   1.161  0.0569 -0.0061  0.3450
 5594TIP3    H138341   1.522   3.583   1.074 -0.8931  1.1187  0.8327
 5594TIP3    H238342   1.485   3.456   1.149  3.1383 -1.2937 -0.9381
 5595TIP3   OH238343   3.104   3.581   1.370 -0.4673  0.2914 -0.3031
 5595TIP3    H138344   3.187   3.546   1.336 -0.6676 -0.0071 -0.4924
 5595TIP3    H238345   3.128   3.626   1.451 -0.1677 -0.0855 -0.1801
 5596TIP3   OH238346   2.186   3.782   7.860 -0.0097  0.0380  0.2457
 5596TIP3    H138347   2.136   3.861   7.840 -0.1314 -0.3107 -0.8619
 5596TIP3    H238348   2.136   3.711   7.821  1.1806 -0.3518 -0.6485
 5597TIP3   OH238349   5.385   6.271   2.180 -0.1493  1.2249 -0.6783
 5597TIP3    H138350   5.462   6.219   2.157  1.2333  3.5982 -1.8532
 5597TIP3    H238351   5.414   6.323   2.255 -1.8104 -0.2375  1.1003
 5598TIP3   OH238352   0.539   2.493   2.996 -0.2086 -0.0259  0.5762
 5598TIP3    H138353   0.559   2.531   3.081  0.8966  2.1382 -0.5693
 5598TIP3    H238354   0.534   2.568   2.936 -2.1614 -1.3432 -1.0723
 5599TIP3   OH238355   4.459   4.729   1.563  0.3116  0.1866 -0.3068
 5599TIP3    H138356   4.519   4.704   1.633  0.9988  0.7943 -0.6654
 5599TIP3    H238357   4.511   4.724   1.483 -0.1908  0.4500 -0.6597
 5600TIP3   OH238358   1.563   2.042   0.071  0.5047 -0.2277  0.9908
 5600TIP3    H138359   1.612   2.103   0.127 -0.1730  0.8209  0.4576
 5600TIP3    H238360   1.526   1.978   0.133  1.2863 -0.1597  1.5448
 5601TIP3   OH238361   1.599   4.794   0.092  0.6099 -0.0845  0.8401
 5601TIP3    H138362   1.662   4.736   0.135  0.8609 -0.0358  0.5419
 5601TIP3    H238363   1.535   4.815   0.160  1.7755  1.1515  1.6163
 5602TIP3   OH238364   5.616   3.783   8.594 -0.5686 -0.5612 -0.0406
 5602TIP3    H138365   5.574   3.856   8.639 -3.3625 -2.0728  0.0369
 5602TIP3    H238366   5.609   3.805   8.501 -2.1897 -1.0400 -0.0638
 5603TIP3   OH238367   0.499   2.109   8.586 -0.4497 -0.1228  0.2352
 5603TIP3    H138368   0.507   2.105   8.491  0.7278 -0.6047  0.3352
 5603TIP3    H238369   0.420   2.058   8.606  0.1705 -1.3444 -0.3783
 5604TIP3   OH238370   4.070   3.877   7.195  0.3749  0.1277 -0.3961
 5604TIP3    H138371   4.020   3.800   7.167  0.2112  1.2975 -3.6886
 5604TIP3    H238372   4.161   3.852   7.181  0.5710 -0.5322  1.6766
 5605TIP3   OH238373   4.550   5.566   8.808  0.1002  0.2052  0.1223
 5605TIP3    H138374   4.639   5.569   8.770  0.4130  0.5670  0.8664
 5605TIP3    H238375   4.560   5.603   8.896 -0.4067 -1.6234  0.9911
 5606TIP3   OH238376   3.851   3.719   0.892  0.0140 -0.4838 -0.7018
 5606TIP3    H138377   3.840   3.674   0.808  1.1636 -0.9761 -0.6029
 5606TIP3    H238378   3.850   3.649   0.957 -0.1438 -0.1715 -0.3665
 5607TIP3   OH238379   3.717   0.525   8.810 -0.4748  0.1273 -0.2223
 5607TIP3    H138380   3.715   0.430   8.793  0.2500  0.0327  0.1939
 5607TIP3    H238381   3.805   0.552   8.785 -0.8544  0.8068 -0.8699
 5608TIP3   OH238382   5.275   2.062   0.985 -0.5481  0.2757  0.0091
 5608TIP3    H138383   5.262   2.111   1.065  0.2003  2.1618 -0.9522
 5608TIP3    H238384   5.329   1.987   1.011 -2.8460 -0.8758  1.7526
 5609TIP3   OH238385   4.657   3.431   0.802 -0.2269 -0.5755 -0.0639
 5609TIP3    H138386   4.701   3.351   0.771 -0.2428 -1.1076  1.2194
 5609TIP3    H238387   4.709   3.459   0.878  0.1157  0.9916 -0.8325
 5610TIP3   OH238388   4.749   0.353   8.148  0.1447  0.1082  0.0953
 5610TIP3    H138389   4.711   0.297   8.081 -1.5348  1.1337  0.1314
 5610TIP3    H238390   4.810   0.410   8.101  0.4466 -0.4749 -0.2267
 5611TIP3   OH238391   2.216   2.295   8.178  0.0773  0.3250 -0.2555
 5611TIP3    H138392   2.269   2.294   8.098 -1.3823 -1.3112 -1.2804
 5611TIP3    H238393   2.280   2.287   8.249  1.4769  2.6119 -1.1484
 5612TIP3   OH238394   0.525   5.578   1.824 -0.2358 -0.4346  0.7679
 5612TIP3    H138395   0.601   5.636   1.819  0.0158 -0.8659 -0.9070
 5612TIP3    H238396   0.460   5.629   1.873 -0.3014  1.6334 -1.2810
 5613TIP3   OH238397   3.281   1.829   1.290  0.7119 -0.0172  0.1109
 5613TIP3    H138398   3.337   1.797   1.361  1.9666  1.0946 -0.3358
 5613TIP3    H238399   3.201   1.859   1.335 -0.5949 -3.6570  0.5379
 5614TIP3   OH238400   4.681   1.597   8.401 -0.1514 -0.2341  0.1097
 5614TIP3    H138401   4.678   1.536   8.474  1.7025 -0.9549 -0.3543
 5614TIP3    H238402   4.772   1.595   8.371  0.0562  2.8634  0.1309
 5615TIP3   OH238403   2.782   5.763   1.657  0.2950  0.0930  0.2964
 5615TIP3    H138404   2.717   5.737   1.723  0.7092  0.4212  0.8483
 5615TIP3    H238405   2.792   5.858   1.670  0.9455  0.0316  0.2888
 5616TIP3   OH238406   1.922   4.453   0.687 -0.1203 -0.0943 -0.2051
 5616TIP3    H138407   1.893   4.371   0.725 -0.3333 -1.1531 -2.4812
 5616TIP3    H238408   2.017   4.455   0.702 -0.3262  0.0836  1.2669
 5617TIP3   OH238409   0.264   0.251   7.848  0.5140 -0.0709  0.1793
 5617TIP3    H138410   0.332   0.184   7.857  0.8610  0.2634  0.0507
 5617TIP3    H238411   0.301   0.315   7.788  1.5767  2.0221  2.8918
 5618TIP3   OH238412   0.715   0.365   7.986  0.1278  0.0238 -0.2749
 5618TIP3    H138413   0.689   0.322   7.904 -0.2397 -1.5076  0.5971
 5618TIP3    H238414   0.810   0.375   7.979  0.3013 -1.4140 -0.3190
 5619TIP3   OH238415   0.135   5.578   1.799 -0.0336  0.0758  0.6555
 5619TIP3    H138416   0.088   5.519   1.858  1.8839 -1.9995  0.2483
 5619TIP3    H238417   0.200   5.620   1.855 -1.6865  2.2972  1.0427
 5620TIP3   OH238418   5.991   5.980   7.940  0.9930  0.0460  0.0028
 5620TIP3    H138419   5.997   6.074   7.955 -0.6852  0.3282 -0.7921
 5620TIP3    H238420   6.026   5.968   7.851  1.8713 -0.2039  0.3707
 5621TIP3   OH238421   2.380   3.066   2.065 -0.0764 -0.4976 -0.1228
 5621TIP3    H138422   2.363   3.037   2.155 -0.6440  0.0153 -0.0522
 5621TIP3    H238423   2.419   2.990   2.022  0.9844 -0.4957  0.7758
 5622TIP3   OH238424   5.955   2.518   0.691 -0.2385 -0.3530 -0.0230
 5622TIP3    H138425   6.005   2.532   0.610  0.5875  0.5115  0.6133
 5622TIP3    H238426   5.980   2.591   0.747 -1.1256 -0.7154  0.8667
 5623TIP3   OH238427   3.215   5.618   1.004  0.1520  0.1659 -0.0621
 5623TIP3    H138428   3.305   5.647   1.019  1.0050 -1.3256 -1.8496
 5623TIP3    H238429   3.169   5.697   0.975  0.8159  0.9797  1.0323
 5624TIP3   OH238430   0.178   6.009   0.077 -0.2532 -0.4842  0.5701
 5624TIP3    H138431   0.202   6.049  -0.007 -1.0385 -1.8052 -0.3202
 5624TIP3    H238432   0.236   6.052   0.141  1.0908 -0.1690 -0.7848
 5625TIP3   OH238433   2.832   2.201   7.539  0.1245  0.4093 -0.2187
 5625TIP3    H138434   2.739   2.221   7.529  0.5390  1.0623 -4.8285
 5625TIP3    H238435   2.835   2.105   7.544 -0.7484  0.2559 -2.0624
 5626TIP3   OH238436   1.585   0.881   8.457 -0.0028 -0.3159 -0.2257
 5626TIP3    H138437   1.570   0.971   8.427 -0.1089 -0.7974 -1.7194
 5626TIP3    H238438   1.518   0.866   8.523 -0.1109  0.6289 -0.1053
 5627TIP3   OH238439   4.279   1.494   0.242  0.3132  0.1087 -0.4505
 5627TIP3    H138440   4.358   1.530   0.203  1.2465 -0.7702  0.5528
 5627TIP3    H238441   4.279   1.529   0.332 -0.2085 -0.2319 -0.3120
 5628TIP3   OH238442   5.683   1.257   1.477  0.0802  0.2760  0.1765
 5628TIP3    H138443   5.589   1.255   1.496  0.2916  1.1932  1.4405
 5628TIP3    H238444   5.714   1.170   1.504 -0.4200 -0.0888 -0.3957
 5629TIP3   OH238445   0.370   6.040   2.093 -0.0471 -0.2264 -0.3444
 5629TIP3    H138446   0.460   6.007   2.090 -0.1138 -0.6992  1.6453
 5629TIP3    H238447   0.376   6.129   2.060  1.1460 -0.2951 -0.3432
 5630TIP3   OH238448   1.312   5.186   8.522 -0.4430 -0.2927  0.2528
 5630TIP3    H138449   1.345   5.127   8.455  0.3187  1.1667 -0.6942
 5630TIP3    H238450   1.378   5.183   8.591 -0.6741 -0.9332  0.4577
 5631TIP3   OH238451   6.667   1.319   0.243  0.2324  0.1217  0.3086
 5631TIP3    H138452   6.588   1.316   0.189  0.1897  0.9183  0.3090
 5631TIP3    H238453   6.730   1.370   0.191  0.1565  0.9811  1.0388
 5632TIP3   OH238454   2.671   0.380   0.572  0.5061 -0.1526 -0.2878
 5632TIP3    H138455   2.602   0.326   0.610  0.8614 -1.0127 -0.8329
 5632TIP3    H238456   2.722   0.410   0.647 -0.7578  0.9505  0.1706
 5633TIP3   OH238457   1.730   4.990   7.845 -0.4608  0.2570 -0.0972
 5633TIP3    H138458   1.764   5.079   7.841  3.1365 -0.9940 -1.9941
 5633TIP3    H238459   1.694   4.973   7.758  0.0907 -0.5294 -0.1859
 5634TIP3   OH238460   1.872   4.267   7.809  0.2076  0.3549  0.1142
 5634TIP3    H138461   1.953   4.319   7.803  1.2354 -1.0687  0.9458
 5634TIP3    H238462   1.810   4.325   7.854  1.4359  0.7800  1.3642
 5635TIP3   OH238463   5.492   1.412   3.334 -0.0400 -0.5636 -0.6031
 5635TIP3    H138464   5.540   1.494   3.325 -0.4399  0.0533  2.1850
 5635TIP3    H238465   5.411   1.427   3.286 -1.2353  1.7154  1.8854
 5636TIP3   OH238466   6.697   4.723   1.663 -0.0931 -1.0685 -0.3842
 5636TIP3    H138467   6.718   4.710   1.571  1.4288 -0.4033 -0.1706
 5636TIP3    H238468   6.647   4.646   1.688  1.6985 -2.5487 -1.1277
 5637TIP3   OH238469   3.118   5.929   0.963 -0.6362  0.3228 -0.0602
 5637TIP3    H138470   3.093   6.020   0.944 -0.5341  1.5439  4.3246
 5637TIP3    H238471   3.199   5.937   1.014  0.0638 -2.3756 -0.6083
 5638TIP3   OH238472   3.273   0.920   1.081  0.1578 -0.2485  0.0817
 5638TIP3    H138473   3.248   1.012   1.069 -0.5209 -0.4685 -0.1802
 5638TIP3    H238474   3.360   0.925   1.122  1.2133  0.5429 -2.0572
 5639TIP3   OH238475   2.631   6.305   0.488  0.0970 -0.1502  0.2086
 5639TIP3    H138476   2.593   6.331   0.403  1.9360 -0.2389 -0.6896
 5639TIP3    H238477   2.618   6.382   0.544 -0.3828  0.2384 -0.4118
 5640TIP3   OH238478   0.326   2.606   8.772 -0.3546  0.0937 -0.2532
 5640TIP3    H138479   0.347   2.547   8.844 -1.1184 -0.4562 -0.4710
 5640TIP3    H238480   0.411   2.624   8.730  0.1947  0.9077  1.1236
 5641TIP3   OH238481   6.197   4.282   1.279 -0.2853 -1.0003  0.5743
 5641TIP3    H138482   6.253   4.315   1.208  0.1047 -1.7857  0.5057
 5641TIP3    H238483   6.116   4.257   1.235 -0.9748  0.7636  0.7686
 5642TIP3   OH238484   4.890   0.703   2.912 -0.3288 -0.0110 -0.3736
 5642TIP3    H138485   4.807   0.670   2.947  0.2987 -1.9620 -0.5861
 5642TIP3    H238486   4.942   0.624   2.894  1.9629  1.1391  0.6596
 5643TIP3   OH238487   1.616   2.383   8.241 -0.9238 -0.1597  0.3777
 5643TIP3    H138488   1.684   2.424   8.188 -0.0950 -1.6570  0.2395
 5643TIP3    H238489   1.662   2.320   8.296 -2.3029 -2.3624 -0.8284
 5644TIP3   OH238490   2.669   5.626   1.004 -0.4065 -0.3877  0.4020
 5644TIP3    H138491   2.579   5.649   1.029  0.2503  0.0876  2.5856
 5644TIP3    H238492   2.704   5.706   0.964 -1.1317 -0.7915 -1.1097
 5645TIP3   OH238493   5.541   4.106   6.826  0.2067  0.1265  0.3788
 5645TIP3    H138494   5.528   4.012   6.821  1.3900  0.0014 -0.8126
 5645TIP3    H238495   5.466   4.138   6.878 -0.8669 -1.3119 -0.2217
 5646TIP3   OH238496   0.378   0.698   0.676  0.1446 -0.0837 -0.1455
 5646TIP3    H138497   0.288   0.672   0.692  0.3844 -0.4347  0.6756
 5646TIP3    H238498   0.429   0.655   0.745  0.8214  0.8267 -0.0516
 5647TIP3   OH238499   1.603   6.387   0.573 -0.4537  0.2164  0.2458
 5647TIP3    H138500   1.660   6.312   0.590  0.1431  0.5701 -0.1300
 5647TIP3    H238501   1.556   6.401   0.655 -0.5071 -0.5077  0.3469
 5648TIP3   OH238502   0.138   2.109   1.657 -0.2058 -0.0846  0.5552
 5648TIP3    H138503   0.154   2.044   1.589 -1.4573  1.5245 -1.4429
 5648TIP3    H238504   0.196   2.182   1.635 -2.5112  1.5600 -0.5486
 5649TIP3   OH238505   6.352   4.533   7.252 -0.8121  0.2942  0.0397
 5649TIP3    H138506   6.359   4.551   7.159  0.9229 -0.7952 -0.0909
 5649TIP3    H238507   6.416   4.591   7.293  0.6718 -1.3513  0.1861
 5650TIP3   OH238508   0.205   5.908   8.605  0.5427  0.1597  0.6161
 5650TIP3    H138509   0.204   5.999   8.634  1.1111  0.1665  0.6165
 5650TIP3    H238510   0.113   5.881   8.608  0.2466  1.0252 -0.3088
 5651TIP3   OH238511   1.781   6.189   2.264  0.3266 -0.0185  0.5076
 5651TIP3    H138512   1.765   6.257   2.198  1.4432  0.9787  1.2314
 5651TIP3    H238513   1.713   6.203   2.330 -1.3197 -1.5361 -0.7408
 5652TIP3   OH238514   3.475   2.967   1.194  0.1129  0.0726  0.1326
 5652TIP3    H138515   3.451   2.946   1.285  0.1699  0.2234  0.1823
 5652TIP3    H238516   3.391   2.987   1.152  0.1745  0.8645  0.3751
 5653TIP3   OH238517   3.506   3.900   0.213  0.5028 -0.5975 -0.4282
 5653TIP3    H138518   3.503   3.902   0.308  0.3441 -0.3728 -0.4384
 5653TIP3    H238519   3.431   3.846   0.187  0.6163 -0.7577 -0.4206
 5654TIP3   OH238520   3.413   4.366   7.765 -0.4990 -0.0566 -0.2645
 5654TIP3    H138521   3.451   4.433   7.709 -0.0590 -0.9365 -1.0513
 5654TIP3    H238522   3.386   4.412   7.844  1.3993  0.7561 -0.0385
 5655TIP3   OH238523   0.621   4.952   0.154 -0.0807 -0.1627 -0.2204
 5655TIP3    H138524   0.648   5.039   0.125 -0.5034 -0.6925 -2.3337
 5655TIP3    H238525   0.527   4.959   0.167  0.3221  0.6048  3.2398
 5656TIP3   OH238526   0.786   0.421   8.816  0.1823  0.8926 -0.5165
 5656TIP3    H138527   0.806   0.493   8.756 -0.6168  0.0188 -1.8782
 5656TIP3    H238528   0.872   0.382   8.835  0.4352  1.0733 -1.2403
 5657TIP3   OH238529   4.105   1.801   7.157 -0.3229 -0.4461  0.3938
 5657TIP3    H138530   4.025   1.848   7.134 -0.9277 -1.3912  0.5366
 5657TIP3    H238531   4.175   1.852   7.115 -0.7278  1.7032  2.1310
 5658TIP3   OH238532   6.163   0.150   0.771  0.2422 -0.6414  0.1164
 5658TIP3    H138533   6.182   0.115   0.858  0.8558 -0.0730  0.2254
 5658TIP3    H238534   6.208   0.090   0.711  0.0869 -0.8532  0.2120
 5659TIP3   OH238535   5.958   2.274   0.563  0.4767  0.5511 -0.6042
 5659TIP3    H138536   6.004   2.203   0.609 -1.9548 -0.2625  0.7170
 5659TIP3    H238537   5.952   2.345   0.627 -0.0856  0.6459 -0.7578
 5660TIP3   OH238538   1.989   2.347   2.058 -0.4654 -0.2062 -0.0812
 5660TIP3    H138539   1.913   2.361   2.114 -1.8062 -1.8616 -1.4065
 5660TIP3    H238540   2.000   2.430   2.011 -1.2281  0.1732  0.3930
 5661TIP3   OH238541   3.116   2.422   7.837  0.1140 -0.1444  0.2736
 5661TIP3    H138542   3.147   2.459   7.755  0.6846 -0.6683  0.2535
 5661TIP3    H238543   3.020   2.431   7.833  0.2303  1.3788  0.2954
 5662TIP3   OH238544   4.218   4.143   7.846  0.4221 -0.2740 -0.1725
 5662TIP3    H138545   4.260   4.120   7.763  0.9161  0.6879 -0.2157
 5662TIP3    H238546   4.130   4.107   7.840  0.6562 -0.7543 -0.8592
 5663TIP3   OH238547   4.573   0.519   1.737  0.5752  0.0313 -0.2032
 5663TIP3    H138548   4.597   0.478   1.820  1.8740  0.2788 -0.4473
 5663TIP3    H238549   4.553   0.610   1.760  2.2670  0.4648 -0.3345
 5664TIP3   OH238550   6.036   4.828   7.046  0.3952 -0.5999  0.4200
 5664TIP3    H138551   5.944   4.841   7.068  0.2719 -3.0691  1.6978
 5664TIP3    H238552   6.052   4.889   6.974 -2.8254 -1.5308 -1.3325
 5665TIP3   OH238553   2.322   4.563   2.105  0.2028  0.4052 -0.8747
 5665TIP3    H138554   2.293   4.578   2.015 -0.4137 -0.7305 -0.8885
 5665TIP3    H238555   2.300   4.644   2.152 -0.4079  0.6183 -1.5177
 5666TIP3   OH238556   0.363   4.423   1.119  0.0537 -0.2242 -0.0492
 5666TIP3    H138557   0.450   4.403   1.084 -0.0343 -0.8499  0.0668
 5666TIP3    H238558   0.367   4.394   1.211  0.3533  1.5993  0.5391
 5667TIP3   OH238559   4.750   0.686   0.762 -0.0485  0.3739 -0.2284
 5667TIP3    H138560   4.664   0.648   0.777  0.6552 -1.3276 -0.3250
 5667TIP3    H238561   4.733   0.779   0.748 -1.8171  0.1380  0.1458
 5668TIP3   OH238562   4.952   2.437   7.529 -0.8367 -0.3046  0.2341
 5668TIP3    H138563   5.038   2.411   7.497 -1.2510 -1.3654 -0.0714
 5668TIP3    H238564   4.905   2.354   7.541 -1.7074  0.2403  0.7049
 5669TIP3   OH238565   1.305   0.193   8.651  0.0321  0.4850  0.1482
 5669TIP3    H138566   1.379   0.168   8.706 -1.0682  0.8862  1.8838
 5669TIP3    H238567   1.345   0.240   8.578  1.7910 -2.5553 -1.0491
 5670TIP3   OH238568   0.360   2.053   0.412 -0.1167  0.1419 -0.3209
 5670TIP3    H138569   0.273   2.089   0.393 -0.0234  0.0503 -0.9725
 5670TIP3    H238570   0.383   2.087   0.498  0.6839  3.0522 -1.5687
 5671TIP3   OH238571   2.533   1.730   2.688 -0.9662 -0.4900  0.6621
 5671TIP3    H138572   2.547   1.651   2.740  1.5221  0.8977  2.2833
 5671TIP3    H238573   2.571   1.801   2.740 -2.1014  1.6478 -1.2211
 5672TIP3   OH238574   2.641   4.382   1.414  0.0581 -0.4128 -0.0529
 5672TIP3    H138575   2.630   4.356   1.322  0.4134  1.6033 -0.7083
 5672TIP3    H238576   2.733   4.366   1.432  0.2348  0.2134 -0.3932
 5673TIP3   OH238577   2.877   0.042   7.402  0.4613 -0.2207 -0.3223
 5673TIP3    H138578   2.863   0.061   7.309  2.2478 -3.7883 -1.5105
 5673TIP3    H238579   2.789   0.042   7.440 -0.4642 -0.0593 -2.3305
 5674TIP3   OH238580   6.500   0.733   8.092 -0.4828 -1.2960  0.6872
 5674TIP3    H138581   6.483   0.659   8.034  0.8302 -1.3287  0.3182
 5674TIP3    H238582   6.563   0.788   8.045 -1.4929  0.1217  0.9150
 5675TIP3   OH238583   3.005   4.675   0.873 -0.4041 -0.5204 -0.3057
 5675TIP3    H138584   3.059   4.603   0.905  0.6903  0.2850 -0.3213
 5675TIP3    H238585   2.971   4.644   0.789 -0.1474 -1.1131 -0.1949
 5676TIP3   OH238586   4.571   0.065   6.979  0.2243 -0.1208 -0.4557
 5676TIP3    H138587   4.652   0.077   7.027 -0.6726  0.3503  1.0057
 5676TIP3    H238588   4.520   0.004   7.032 -1.3789  1.5106  0.0148
 5677TIP3   OH238589   2.082   3.892   1.773  0.6081 -0.6025  0.2842
 5677TIP3    H138590   1.998   3.862   1.807 -0.3218  0.5125 -0.9005
 5677TIP3    H238591   2.081   3.868   1.680  1.4053 -0.1944  0.1578
 5678TIP3   OH238592   0.029   3.211   1.573 -0.0500 -0.3043 -0.4196
 5678TIP3    H138593  -0.006   3.280   1.517  0.7218  1.3243  1.0339
 5678TIP3    H238594   0.119   3.199   1.542  0.4025  0.6519  0.4689
 5679TIP3   OH238595   1.671   0.446   8.225 -0.3802 -0.3586 -0.8920
 5679TIP3    H138596   1.630   0.411   8.146 -1.8581 -1.4932  0.3358
 5679TIP3    H238597   1.619   0.523   8.247 -0.0136 -0.0847 -0.9721
 5680TIP3   OH238598   0.810   3.097   7.560  0.5698 -0.5007 -0.1206
 5680TIP3    H138599   0.780   3.037   7.492 -0.6686 -0.5934  0.4698
 5680TIP3    H238600   0.867   3.044   7.615  1.4528 -0.4664 -0.9848
 5681TIP3   OH238601   4.261   3.742   8.652 -0.1102 -0.2581  0.1285
 5681TIP3    H138602   4.219   3.657   8.666  0.2473 -0.6271 -0.9239
 5681TIP3    H238603   4.271   3.779   8.740 -2.6085 -0.1419  0.4421
 5682TIP3   OH238604   5.316   3.102   0.984 -0.6370  0.1050 -0.1733
 5682TIP3    H138605   5.405   3.068   0.980 -0.6755 -0.0723  0.3616
 5682TIP3    H238606   5.315   3.176   0.924 -0.2012 -0.0527 -0.3765
 5683TIP3   OH238607   3.996   1.508   0.138 -0.6911  0.2587 -0.0968
 5683TIP3    H138608   4.091   1.513   0.151 -0.6968  2.1851 -0.4532
 5683TIP3    H238609   3.959   1.556   0.212 -1.3273  0.4716 -0.5418
 5684TIP3   OH238610   3.770   4.994   8.652 -0.2061 -0.3436 -0.7965
 5684TIP3    H138611   3.774   5.053   8.727  0.6424 -0.5233 -0.6908
 5684TIP3    H238612   3.762   4.906   8.689  1.5531 -0.5607 -0.8505
 5685TIP3   OH238613   2.109   4.410   7.826 -0.2417  0.0867  0.5230
 5685TIP3    H138614   2.098   4.505   7.828  0.6318  0.2008  2.2090
 5685TIP3    H238615   2.167   4.395   7.752 -0.0449  0.9261  0.4915
 5686TIP3   OH238616   5.291   1.678   1.348 -0.1236 -0.6790  0.4538
 5686TIP3    H138617   5.219   1.627   1.384 -0.0452 -0.1798  1.3595
 5686TIP3    H238618   5.345   1.615   1.301 -0.2215 -1.3710  1.2515
 5687TIP3   OH238619   3.673   2.985   8.355  1.0586 -0.3881  0.3450
 5687TIP3    H138620   3.591   3.010   8.399  0.2104 -0.9965 -0.8090
 5687TIP3    H238621   3.731   3.060   8.368 -0.2444  0.7709 -0.1574
 5688TIP3   OH238622   5.522   0.178   0.732  0.1171 -0.0436 -0.3281
 5688TIP3    H138623   5.601   0.140   0.694  1.5095  1.0948  1.3134
 5688TIP3    H238624   5.494   0.244   0.669  1.1397  0.3312 -0.3999
 5689TIP3   OH238625   5.810   6.138   1.375  0.1882  0.1103 -0.3084
 5689TIP3    H138626   5.831   6.183   1.294 -1.0777  1.2387 -0.0495
 5689TIP3    H238627   5.810   6.207   1.442 -0.8699 -0.4055  0.2631
 5690TIP3   OH238628   3.794   5.987   1.871 -0.2596 -0.0854  0.1668
 5690TIP3    H138629   3.840   5.945   1.943 -0.6332 -0.5879  0.1147
 5690TIP3    H238630   3.828   6.077   1.869  0.4677 -0.3580  0.3381
 5691TIP3   OH238631   3.609   2.127   7.922  0.3737 -0.1364  0.1636
 5691TIP3    H138632   3.576   2.133   7.832 -1.4516  0.2954  0.8129
 5691TIP3    H238633   3.659   2.207   7.934 -0.0266  0.1764 -0.2208
 5692TIP3   OH238634   4.353   4.841   2.953 -0.7064  0.2145  0.3559
 5692TIP3    H138635   4.312   4.884   2.878 -1.0891 -0.3399  0.2417
 5692TIP3    H238636   4.437   4.887   2.964 -0.0931 -0.4974 -1.1757
 5693TIP3   OH238637   5.167   5.761   2.095  0.3187 -0.5098  0.3345
 5693TIP3    H138638   5.232   5.691   2.096  0.7011 -0.1646  0.1672
 5693TIP3    H238639   5.099   5.730   2.036 -0.6418 -1.7230  1.9817
 5694TIP3   OH238640   5.594   1.844   7.806  0.3563  0.2072  0.4163
 5694TIP3    H138641   5.532   1.797   7.861  0.7711 -0.2334  0.5126
 5694TIP3    H238642   5.602   1.790   7.727 -1.0681  1.3666 -0.5842
 5695TIP3   OH238643   0.726   2.311   2.141  0.2243 -0.9670  0.5589
 5695TIP3    H138644   0.703   2.268   2.059  1.7730 -1.5748  0.3974
 5695TIP3    H238645   0.660   2.282   2.203 -1.3594 -0.0026 -0.5729
 5696TIP3   OH238646   0.183   1.447   8.175 -0.1236 -0.2575  0.5180
 5696TIP3    H138647   0.093   1.471   8.155 -0.2938  0.2597  1.7771
 5696TIP3    H238648   0.182   1.351   8.180 -0.3878 -0.3058 -0.3983
 5697TIP3   OH238649   5.482   5.645   1.820  0.3089 -0.0732  0.1620
 5697TIP3    H138650   5.424   5.655   1.895 -0.5984 -0.0819 -0.5215
 5697TIP3    H238651   5.460   5.559   1.784 -0.4921  0.6343 -1.1123
 5698TIP3   OH238652   4.456   6.186   7.597  0.4791  0.3041 -0.8539
 5698TIP3    H138653   4.431   6.126   7.526  0.7491 -0.5794 -0.2163
 5698TIP3    H238654   4.551   6.176   7.604  0.6561  1.4694 -1.3173
 5699TIP3   OH238655   2.940   1.206   1.450  0.3450 -0.3202  0.5015
 5699TIP3    H138656   2.943   1.150   1.527  1.0123 -2.6155 -1.1048
 5699TIP3    H238657   3.030   1.206   1.416  0.1803  1.0676 -0.0075
 5700TIP3   OH238658   3.549   1.602   0.034 -0.0495 -0.0949  0.0272
 5700TIP3    H138659   3.619   1.557  -0.014 -1.2818 -0.8503 -1.1467
 5700TIP3    H238660   3.584   1.613   0.122  2.2496  1.1927 -0.9564
 5701TIP3   OH238661   6.559   0.177   1.416 -0.2170 -0.2063 -0.7155
 5701TIP3    H138662   6.563   0.259   1.465  0.3098 -0.3628 -0.4919
 5701TIP3    H238663   6.565   0.204   1.324 -0.3149  0.0240 -0.6549
 5702TIP3   OH238664   2.146   5.293   8.059 -0.6351  0.2000 -0.2795
 5702TIP3    H138665   2.217   5.276   8.120  1.4692  1.0084 -2.3124
 5702TIP3    H238666   2.126   5.208   8.021 -0.6252 -0.0081  0.1765
 5703TIP3   OH238667   5.450   4.228   0.655 -0.0298  0.4095 -0.6749
 5703TIP3    H138668   5.498   4.234   0.737 -0.6888 -2.0239 -0.0232
 5703TIP3    H238669   5.491   4.156   0.607 -2.6855 -1.6088 -0.1968
 5704TIP3   OH238670   0.472   3.367   0.554  0.1884 -0.1983 -0.4054
 5704TIP3    H138671   0.419   3.445   0.572  1.0206  0.4552 -0.7036
 5704TIP3    H238672   0.410   3.295   0.555 -0.4622  0.3511  0.7876
 5705TIP3   OH238673   0.484   5.085   1.924 -0.3830 -0.5913  0.2238
 5705TIP3    H138674   0.497   4.991   1.932 -0.0897 -0.5386  0.3914
 5705TIP3    H238675   0.531   5.122   1.999 -1.3036 -0.3733  0.7097
 5706TIP3   OH238676   0.844   1.792   0.773  0.0515  0.2048  0.7304
 5706TIP3    H138677   0.857   1.850   0.698 -0.2349 -1.5319 -0.7262
 5706TIP3    H238678   0.932   1.773   0.804  0.2364  0.0628  0.1270
 5707TIP3   OH238679   6.703   2.869   0.765 -0.4820  0.5017 -0.0575
 5707TIP3    H138680   6.721   2.826   0.682 -1.5383 -0.3557  0.1356
 5707TIP3    H238681   6.651   2.946   0.742 -0.3351  0.5489 -0.2302
 5708TIP3   OH238682   0.335   1.496   7.936  0.0565 -0.0574  0.1882
 5708TIP3    H138683   0.279   1.453   8.001  1.1876  0.8037  1.7849
 5708TIP3    H238684   0.286   1.574   7.911 -0.7749 -0.8322 -0.6885
 5709TIP3   OH238685   1.656   0.382   7.943 -0.4924 -0.0261  0.5147
 5709TIP3    H138686   1.746   0.369   7.915 -0.4390  2.5026 -0.7153
 5709TIP3    H238687   1.614   0.297   7.926  1.2262 -0.7038 -0.6300
 5710TIP3   OH238688   1.414   5.504   1.336 -0.9600  0.4993 -0.4879
 5710TIP3    H138689   1.340   5.516   1.277 -0.5267  1.3000 -0.8853
 5710TIP3    H238690   1.489   5.488   1.278 -0.7483  0.1220 -0.1120
 5711TIP3   OH238691   2.410   5.978   1.112  0.2075  0.0374 -0.3225
 5711TIP3    H138692   2.403   5.998   1.018 -0.4145  0.8201 -0.1202
 5711TIP3    H238693   2.423   6.063   1.154  2.7930 -0.5124  0.1344
 5712TIP3   OH238694   2.749   5.694   1.981 -0.5801 -0.0967 -0.6189
 5712TIP3    H138695   2.807   5.632   2.026 -3.1483 -2.7976 -0.6986
 5712TIP3    H238696   2.669   5.694   2.035 -1.3850  1.6395 -1.7434
 5713TIP3   OH238697   1.183   2.306   0.459 -0.2808  0.3203 -0.3975
 5713TIP3    H138698   1.246   2.312   0.530  0.5024 -2.5688 -0.7125
 5713TIP3    H238699   1.126   2.382   0.471  0.4102  0.4906  2.7156
 5714TIP3   OH238700   6.754   3.407   1.389 -0.0905  0.3062 -0.3146
 5714TIP3    H138701   6.702   3.383   1.312 -1.6321  0.2834  0.6904
 5714TIP3    H238702   6.821   3.468   1.355 -1.5437  1.3308 -1.4700
 5715TIP3   OH238703   4.213   1.123   7.540  0.0932  0.1298 -0.4040
 5715TIP3    H138704   4.263   1.140   7.460  2.4111 -0.1383  0.8920
 5715TIP3    H238705   4.131   1.171   7.529  0.2337 -0.1323 -3.0288
 5716TIP3   OH238706   5.712   2.469   0.799  0.4162 -0.1832  0.0960
 5716TIP3    H138707   5.637   2.500   0.748  1.4020  0.3494 -1.0894
 5716TIP3    H238708   5.788   2.492   0.745  1.4875  0.1455  1.6872
 5717TIP3   OH238709   5.582   1.222   1.919  0.4229 -0.4368  0.1455
 5717TIP3    H138710   5.599   1.128   1.915  1.7110 -0.2726  1.2304
 5717TIP3    H238711   5.663   1.263   1.890 -0.5201  0.3615 -1.4647
 5718TIP3   OH238712   5.781   5.491   8.495  0.5069 -0.1041 -0.2435
 5718TIP3    H138713   5.792   5.396   8.486  1.1353  0.1676 -3.0271
 5718TIP3    H238714   5.695   5.500   8.537  0.1872 -1.8943 -0.4081
 5719TIP3   OH238715   5.425   2.153   7.870  0.3995 -0.1866  0.2372
 5719TIP3    H138716   5.491   2.084   7.857 -0.3569 -0.8323 -0.2744
 5719TIP3    H238717   5.456   2.226   7.818 -0.2368 -1.1465 -1.5672
 5720TIP3   OH238718   4.821   1.967   7.871 -0.6857  0.2724 -0.4859
 5720TIP3    H138719   4.774   1.889   7.901  1.9493 -1.9788 -1.8127
 5720TIP3    H238720   4.807   1.969   7.777 -0.2088  1.0752 -0.5466
 5721TIP3   OH238721   5.503   4.004   2.252 -0.0526 -0.7895 -0.2746
 5721TIP3    H138722   5.571   3.936   2.248  1.9041  0.9600  1.1781
 5721TIP3    H238723   5.470   3.999   2.342 -0.2755 -0.1944 -0.3221
 5722TIP3   OH238724   4.817   5.024   8.491 -0.2443  0.0890  0.1249
 5722TIP3    H138725   4.758   5.022   8.415 -0.3197  0.1877  0.1816
 5722TIP3    H238726   4.773   4.970   8.557  0.2499 -0.7490 -0.2152
 5723TIP3   OH238727   0.337   5.362   0.180 -0.4320  0.1042 -0.1933
 5723TIP3    H138728   0.346   5.440   0.126 -1.2693  2.3243  2.6618
 5723TIP3    H238729   0.244   5.360   0.203 -0.1232 -0.8524  1.0374
 5724TIP3   OH238730   2.768   1.453   7.025 -0.0796  0.4899  0.0962
 5724TIP3    H138731   2.830   1.381   7.033 -0.6615 -0.0516 -0.2063
 5724TIP3    H238732   2.683   1.411   7.018 -0.5236  1.2413  0.8794
 5725TIP3   OH238733   5.142   4.844   7.231  0.3323  0.1017 -0.3998
 5725TIP3    H138734   5.226   4.884   7.251  1.7320 -1.9306 -1.7800
 5725TIP3    H238735   5.119   4.878   7.144  0.1797 -0.0178 -0.4067
 5726TIP3   OH238736   1.041   5.864   2.823 -1.3905 -0.2758  0.1343
 5726TIP3    H138737   1.066   5.785   2.871  0.5117  0.3786  0.3096
 5726TIP3    H238738   1.026   5.929   2.892 -0.0356  0.2913 -0.0917
 5727TIP3   OH238739   1.116   6.284   2.258  0.2976 -0.1960 -0.1576
 5727TIP3    H138740   1.196   6.233   2.270  0.5367 -0.1908 -1.5152
 5727TIP3    H238741   1.100   6.324   2.343  1.6849 -0.2860  0.1793
 5728TIP3   OH238742   4.231   0.671   1.920 -0.0740 -0.1404 -0.1220
 5728TIP3    H138743   4.184   0.716   1.989  0.6360 -0.6936  0.7419
 5728TIP3    H238744   4.274   0.598   1.963  0.4276 -0.4700 -1.1362
 5729TIP3   OH238745   5.460   0.110   2.072 -0.2580 -0.2167  0.5126
 5729TIP3    H138746   5.512   0.050   2.018 -2.5894 -1.1633 -0.8495
 5729TIP3    H238747   5.508   0.192   2.071  0.6955 -0.7525 -1.5131
 5730TIP3   OH238748   4.975   3.627   8.801  0.4456 -0.1864 -0.4501
 5730TIP3    H138749   4.885   3.660   8.798  0.7346  0.6288 -0.3680
 5730TIP3    H238750   5.027   3.694   8.758  0.9293 -1.0063 -1.1907
 5731TIP3   OH238751   0.875   0.896   1.085 -0.1745 -0.8976 -0.1729
 5731TIP3    H138752   0.947   0.889   1.148 -0.4053  1.1558  0.3950
 5731TIP3    H238753   0.918   0.889   1.000  0.6145 -0.4243  0.1660
 5732TIP3   OH238754   5.446   1.522   0.997 -0.5363  0.2289  0.0813
 5732TIP3    H138755   5.457   1.491   1.087  0.1909 -0.9326 -0.3875
 5732TIP3    H238756   5.518   1.584   0.984  0.7044 -1.2563 -0.3783
 5733TIP3   OH238757   3.546   6.686   7.725 -0.0105  0.0225 -0.1338
 5733TIP3    H138758   3.473   6.705   7.666  0.3770 -0.1565 -0.6809
 5733TIP3    H238759   3.571   6.772   7.760  0.6059  0.3293 -1.2553
 5734TIP3   OH238760   4.701   5.750   0.135 -0.5747 -0.0058  0.0018
 5734TIP3    H138761   4.659   5.821   0.088 -0.1312  0.5746  0.4653
 5734TIP3    H238762   4.751   5.793   0.204  0.6687 -0.6852 -0.4425
 5735TIP3   OH238763   5.225   0.527   8.390 -0.5885  0.3775  0.5722
 5735TIP3    H138764   5.140   0.567   8.370 -0.5165  0.2629  0.0226
 5735TIP3    H238765   5.204   0.437   8.413 -0.6020  0.2995  0.2606
 5736TIP3   OH238766   0.211   0.630   0.340  0.1306  0.3452  0.2100
 5736TIP3    H138767   0.243   0.714   0.372  1.3690  0.7175 -1.8397
 5736TIP3    H238768   0.153   0.651   0.268  1.1617 -0.5359 -0.9249
 5737TIP3   OH238769   4.783   4.594   1.915 -0.1304  0.5781  0.2626
 5737TIP3    H138770   4.874   4.623   1.922  0.1436 -0.5021  1.5781
 5737TIP3    H238771   4.768   4.545   1.995 -1.0632 -1.5057 -1.1229
 5738TIP3   OH238772   3.202   3.468   8.606 -0.0919  0.2365  0.1753
 5738TIP3    H138773   3.190   3.492   8.514  2.0670  3.1056  0.4961
 5738TIP3    H238774   3.293   3.437   8.611 -0.2624 -0.1236  1.3089
 5739TIP3   OH238775   4.217   6.199   1.374  0.6601 -0.3425 -0.1631
 5739TIP3    H138776   4.278   6.272   1.384 -0.6593  0.5503  2.0221
 5739TIP3    H238777   4.243   6.137   1.443 -1.4844  0.5573  1.5592
 5740TIP3   OH238778   0.395   4.231   0.534  0.4861  0.2269  0.5228
 5740TIP3    H138779   0.415   4.324   0.520 -4.0300  1.2598 -0.7550
 5740TIP3    H238780   0.357   4.229   0.622 -0.6254 -0.1123  0.0481
 5741TIP3   OH238781   1.003   3.236   0.272  0.2100 -0.4537 -0.3660
 5741TIP3    H138782   1.063   3.211   0.202 -0.4504 -0.5608 -0.9013
 5741TIP3    H238783   0.954   3.309   0.236 -0.5920 -0.9325 -0.2558
 5742TIP3   OH238784   1.045   1.792   2.066 -0.1787  0.1903  0.1549
 5742TIP3    H138785   1.079   1.770   2.153  1.1051  1.4656  0.0292
 5742TIP3    H238786   1.109   1.756   2.005 -0.4838  0.2587 -0.2086
 5743TIP3   OH238787   6.808   2.328   1.165  0.2103 -0.3853  0.1275
 5743TIP3    H138788   6.825   2.255   1.105  0.7489  1.7585 -2.5441
 5743TIP3    H238789   6.895   2.367   1.180 -0.1207 -0.0195  1.1607
 5744TIP3   OH238790   1.369   4.836   0.259  0.0418 -0.3285 -0.0393
 5744TIP3    H138791   1.373   4.743   0.239  1.6091 -0.0277 -1.3410
 5744TIP3    H238792   1.345   4.840   0.352 -0.9535 -1.9798 -0.1857
 5745TIP3   OH238793   3.862   1.941   1.228 -0.0104 -0.1636  0.4058
 5745TIP3    H138794   3.865   1.882   1.304  0.4817 -0.3852  0.2161
 5745TIP3    H238795   3.899   1.890   1.157  2.4902  1.1013  0.7194
 5746TIP3   OH238796   2.791   3.077   7.953 -0.2182  0.3260 -0.0655
 5746TIP3    H138797   2.880   3.041   7.952 -0.7925 -1.2244  0.4732
 5746TIP3    H238798   2.760   3.066   7.863  0.0949  0.7655 -0.2279
 5747TIP3   OH238799   1.994   1.303   2.018  0.4879 -0.2423 -0.5457
 5747TIP3    H138800   1.905   1.303   1.982 -0.4005 -0.9102  1.4663
 5747TIP3    H238801   1.992   1.368   2.088  1.7467  0.0985 -0.7988
 5748TIP3   OH238802   3.003   6.014   0.281  0.2232  0.2710  0.7305
 5748TIP3    H138803   2.993   6.081   0.348  1.1241  1.7136 -0.5079
 5748TIP3    H238804   3.012   5.932   0.329  0.4284  1.2057  2.3367
 5749TIP3   OH238805   1.823   1.146   7.995 -0.4240  0.4669 -0.2688
 5749TIP3    H138806   1.820   1.118   7.904  0.0357  2.4060 -0.9381
 5749TIP3    H238807   1.740   1.116   8.033  0.8185 -3.4997 -0.2366
 5750TIP3   OH238808   1.100   1.009   2.412 -0.1573  0.0814 -0.2514
 5750TIP3    H138809   1.057   1.080   2.366 -1.2517  0.1969  0.8679
 5750TIP3    H238810   1.038   0.936   2.406  0.6648 -0.5722 -0.8418
 5751TIP3   OH238811   5.200   6.594   7.204  0.3167 -0.1367 -0.5980
 5751TIP3    H138812   5.268   6.640   7.253 -0.5361  1.4339 -0.7945
 5751TIP3    H238813   5.244   6.519   7.166  1.4974 -0.1909  0.7876
 5752TIP3   OH238814   6.237   6.301   2.081  0.2796  0.0539 -0.3364
 5752TIP3    H138815   6.198   6.283   1.996 -0.5903 -0.8914  0.2460
 5752TIP3    H238816   6.166   6.339   2.132 -0.1186 -2.1749  0.9033
 5753TIP3   OH238817   6.728   1.090   1.286  0.3677 -0.5444 -0.3260
 5753TIP3    H138818   6.766   1.125   1.205  1.2383 -1.1119 -0.1753
 5753TIP3    H238819   6.661   1.029   1.256  1.7262 -1.9224 -0.6719
 5754TIP3   OH238820   4.493   0.670   2.063 -0.3208  0.0269 -0.4795
 5754TIP3    H138821   4.525   0.581   2.081  2.2899  0.7306 -1.1821
 5754TIP3    H238822   4.453   0.698   2.145 -1.0824 -1.7475 -0.2039
 5755TIP3   OH238823   4.183   6.266   8.398  0.2051 -0.2223 -0.1204
 5755TIP3    H138824   4.201   6.360   8.392 -1.4437  0.0562 -1.4731
 5755TIP3    H238825   4.104   6.253   8.345  1.8116 -2.7769 -2.1362
 5756TIP3   OH238826   3.779   0.177   0.627 -0.0133 -0.4966  0.3754
 5756TIP3    H138827   3.743   0.128   0.553 -0.2686  0.8907 -0.4551
 5756TIP3    H238828   3.856   0.127   0.654  0.3819 -0.7452 -1.1653
 5757TIP3   OH238829   0.101   4.427   7.738 -0.0963  0.4812 -0.0140
 5757TIP3    H138830   0.053   4.360   7.786  1.7582 -1.1850 -0.3352
 5757TIP3    H238831   0.089   4.404   7.646 -2.2300  2.6639 -0.3886
 5758TIP3   OH238832   2.505   3.808   1.062  0.1467 -0.2947 -0.0220
 5758TIP3    H138833   2.495   3.735   1.123 -1.2821 -1.1036 -1.1406
 5758TIP3    H238834   2.486   3.886   1.114 -1.8955 -1.0339  0.4384
 5759TIP3   OH238835   5.017   5.926   8.103  0.1061  0.3363  0.5650
 5759TIP3    H138836   5.075   5.885   8.039 -0.6620 -0.5680  0.4171
 5759TIP3    H238837   4.930   5.889   8.083 -0.1492  0.0070  2.1471
 5760TIP3   OH238838   6.545   4.918   6.548 -0.4750 -0.5151 -0.8455
 5760TIP3    H138839   6.533   5.000   6.501  1.0724  0.1800 -0.0775
 5760TIP3    H238840   6.640   4.903   6.547 -0.7082 -2.2186 -0.8429
 5761TIP3   OH238841   5.589   3.304   0.926 -0.0055  0.1882 -0.4021
 5761TIP3    H138842   5.572   3.283   0.834 -4.2623 -2.0112  0.5937
 5761TIP3    H238843   5.545   3.388   0.940 -2.1245 -0.9540  0.1677
 5762TIP3   OH238844   4.477   1.184   1.132 -0.0875  0.3875  0.0096
 5762TIP3    H138845   4.551   1.226   1.176  1.8615 -1.4777 -1.2913
 5762TIP3    H238846   4.425   1.147   1.203  0.9371  0.6075  0.9075
 5763TIP3   OH238847   5.728   6.598   8.418  0.4848  0.2095  0.4477
 5763TIP3    H138848   5.735   6.535   8.489  1.3348 -1.1607 -0.7840
 5763TIP3    H238849   5.685   6.551   8.347  1.3052  0.9323 -0.5750
 5764TIP3   OH238850   2.689   4.622   3.465 -0.2033 -0.1816 -0.1009
 5764TIP3    H138851   2.672   4.664   3.381  0.6519 -0.6728 -0.5355
 5764TIP3    H238852   2.663   4.530   3.452 -1.9861  0.1480  0.8131
 5765TIP3   OH238853   0.920   4.199   1.972 -0.2848 -0.2380 -0.6404
 5765TIP3    H138854   0.995   4.259   1.964 -1.4622  1.5939  1.0720
 5765TIP3    H238855   0.880   4.222   2.056 -2.5702 -1.3889 -1.3393
 5766TIP3   OH238856   0.342   1.118   8.525 -0.7997  0.1507 -0.1421
 5766TIP3    H138857   0.251   1.112   8.554 -0.6636 -0.6094  0.1390
 5766TIP3    H238858   0.389   1.154   8.601 -0.7317 -0.2233 -0.0053
 5767TIP3   OH238859   3.444   6.483   1.752 -0.0013 -0.3124  0.2122
 5767TIP3    H138860   3.519   6.542   1.754  0.1586 -0.4932 -0.4150
 5767TIP3    H238861   3.464   6.416   1.817 -1.1748  1.4926  2.5887
 5768TIP3   OH238862   0.009   0.159   8.815 -0.2885  0.6645 -0.0978
 5768TIP3    H138863  -0.017   0.153   8.907 -0.1539 -0.1181 -0.1013
 5768TIP3    H238864   0.104   0.145   8.816 -0.0922  1.8684 -0.2453
 5769TIP3   OH238865   1.078   1.342   0.921 -0.0916 -0.4479 -0.0235
 5769TIP3    H138866   1.122   1.368   1.002 -1.3969  0.0717  0.5523
 5769TIP3    H238867   0.999   1.296   0.950 -1.2612  0.8729 -0.9453
 5770TIP3   OH238868   2.574   4.274   7.596  0.2731 -0.4656  0.2897
 5770TIP3    H138869   2.654   4.306   7.637 -0.8428  0.2554  2.0245
 5770TIP3    H238870   2.560   4.333   7.521  1.8551 -1.2351 -0.6627
 5771TIP3   OH238871   2.825   3.556   0.047 -0.2840 -0.0064 -0.2153
 5771TIP3    H138872   2.736   3.582   0.023 -1.4780 -1.7295  2.0161
 5771TIP3    H238873   2.844   3.606   0.126  0.6075  0.0853 -0.4821
 5772TIP3   OH238874   3.054   2.395   8.710  0.3490 -0.7502 -0.1636
 5772TIP3    H138875   2.992   2.337   8.755 -1.1883 -0.4842 -1.8482
 5772TIP3    H238876   3.084   2.343   8.635  0.2359  0.0200 -0.7506
 5773TIP3   OH238877   5.756   3.023   1.380 -0.1599 -0.1247 -1.1748
 5773TIP3    H138878   5.773   2.947   1.323  0.6311 -2.2707  1.6954
 5773TIP3    H238879   5.842   3.062   1.395  0.2099 -1.5425  0.9398
 5774TIP3   OH238880   1.867   0.380   0.991 -0.5412  0.0881 -0.5377
 5774TIP3    H138881   1.892   0.337   1.073 -0.3617 -0.7435 -1.0196
 5774TIP3    H238882   1.786   0.336   0.964 -0.8717  0.6908 -0.5696
 5775TIP3   OH238883   4.618   2.812   7.431 -0.4572 -0.3107 -0.0192
 5775TIP3    H138884   4.666   2.751   7.376  0.2310 -2.3409  2.6308
 5775TIP3    H238885   4.657   2.898   7.412  1.7502 -1.3779 -0.5507
 5776TIP3   OH238886   4.347   0.363   7.875 -0.8220 -0.0893 -0.0922
 5776TIP3    H138887   4.305   0.434   7.827  1.6506  2.4102  1.1462
 5776TIP3    H238888   4.335   0.286   7.819 -1.6372  1.7760 -2.6833
 5777TIP3   OH238889   4.228   0.233   8.136 -0.5984 -0.4322 -0.2030
 5777TIP3    H138890   4.254   0.313   8.090  0.0622 -0.4488  0.1284
 5777TIP3    H238891   4.144   0.255   8.176  0.9596  1.1745  2.4795
 5778TIP3   OH238892   1.042   3.381   8.612  0.0149 -0.1802  0.3632
 5778TIP3    H138893   1.059   3.474   8.597 -0.3304 -0.3423 -1.1892
 5778TIP3    H238894   1.084   3.337   8.539 -0.6506 -1.1721  0.5625
 5779TIP3   OH238895   3.297   6.057   2.066 -0.0811 -0.5725  0.2346
 5779TIP3    H138896   3.295   6.064   2.161 -0.4691 -1.1497  0.2735
 5779TIP3    H238897   3.357   5.985   2.048 -0.1280 -0.5671  0.0504
 5780TIP3   OH238898   4.933   1.525   7.965 -0.0669  0.0606 -0.6015
 5780TIP3    H138899   4.866   1.573   8.015 -0.7016  0.3145 -1.6673
 5780TIP3    H238900   4.892   1.509   7.880  0.1207 -2.3560 -0.3154
 5781TIP3   OH238901   2.753   6.003   1.269  0.0087  0.2099 -0.8010
 5781TIP3    H138902   2.741   6.083   1.320  1.6532 -0.2480  0.3892
 5781TIP3    H238903   2.682   5.946   1.298  0.1837  0.4143  0.0732
 5782TIP3   OH238904   5.787   2.132   8.297  0.3343 -0.4533 -0.4025
 5782TIP3    H138905   5.786   2.080   8.217  0.7160 -0.3299 -0.4868
 5782TIP3    H238906   5.833   2.212   8.273  1.0934 -0.7243  0.1347
 5783TIP3   OH238907   5.257   0.136   1.565 -0.0643  0.6103  0.1541
 5783TIP3    H138908   5.262   0.184   1.483 -1.0290  1.3512  0.5124
 5783TIP3    H238909   5.204   0.059   1.545  1.2230 -0.1689 -0.3452
 5784TIP3   OH238910   4.556   4.803   1.850  0.4916 -0.9231  0.2785
 5784TIP3    H138911   4.599   4.868   1.794 -1.0719  1.6125  1.7959
 5784TIP3    H238912   4.628   4.757   1.893  1.6881 -0.2955 -0.9647
 5785TIP3   OH238913   6.715   4.819   7.641 -0.2806 -0.5450  0.1549
 5785TIP3    H138914   6.796   4.816   7.693 -1.0113 -0.2321  1.3532
 5785TIP3    H238915   6.734   4.880   7.571  0.7223 -0.9346  0.0670
 5786TIP3   OH238916   1.470   2.448   2.784  0.7800  0.0564 -0.5782
 5786TIP3    H138917   1.492   2.361   2.817  1.6706 -1.1760 -3.9779
 5786TIP3    H238918   1.553   2.495   2.781  0.3077  1.0905  1.2147
 5787TIP3   OH238919   6.430   3.210   7.289 -0.2483 -0.5576 -0.2609
 5787TIP3    H138920   6.414   3.293   7.243  0.2717  0.0141  0.5740
 5787TIP3    H238921   6.345   3.184   7.322 -0.4045 -0.3229 -0.4716
 5788TIP3   OH238922   3.674   0.789   1.081  0.1627  0.1790  0.4294
 5788TIP3    H138923   3.719   0.840   1.014  0.2366  0.9566  1.0466
 5788TIP3    H238924   3.651   0.854   1.148 -0.4943 -0.4691  0.8398
 5789TIP3   OH238925   3.885   5.076   1.469 -0.0970  0.1077  0.1200
 5789TIP3    H138926   3.947   5.112   1.406  1.2370 -2.2766 -0.0758
 5789TIP3    H238927   3.799   5.091   1.430  0.5328  1.0200 -0.9795
 5790TIP3   OH238928   5.515   0.780   7.968  0.1449  0.0294  0.5608
 5790TIP3    H138929   5.523   0.685   7.960  2.4502  0.1919  0.3270
 5790TIP3    H238930   5.552   0.801   8.053 -0.5034  0.7272  0.6854
 5791TIP3   OH238931   1.991   2.588   0.959  0.4617 -0.5884  0.3566
 5791TIP3    H138932   2.049   2.603   0.885  1.8976 -2.7247  0.9444
 5791TIP3    H238933   1.911   2.635   0.937  0.4522 -1.9169 -2.9959
 5792TIP3   OH238934   6.083   3.831   7.104  0.1782  0.0487 -0.3097
 5792TIP3    H138935   6.061   3.812   7.012  0.7716 -0.9197 -0.2684
 5792TIP3    H238936   6.122   3.918   7.102 -0.1435  0.1879 -0.9213
 5793TIP3   OH238937   1.971   1.459   2.531 -0.0128  0.2155 -0.3825
 5793TIP3    H138938   1.928   1.532   2.576  0.3170  1.0772 -1.4335
 5793TIP3    H238939   2.054   1.448   2.578 -1.1543 -1.2343  1.4392
 5794TIP3   OH238940   4.419   1.200   8.474  0.6139  0.0395 -0.0462
 5794TIP3    H138941   4.387   1.179   8.386  1.8973  0.3746 -0.6242
 5794TIP3    H238942   4.474   1.126   8.497  1.9109  0.8619 -0.3988
 5795TIP3   OH238943   4.946   2.873   8.672 -0.3654  0.9197 -0.0658
 5795TIP3    H138944   5.005   2.902   8.602  1.1492  1.3679  1.3464
 5795TIP3    H238945   4.864   2.854   8.627  1.5691 -2.5259 -2.6666
 5796TIP3   OH238946   3.725   3.757   7.492  0.3029 -0.4575  0.2078
 5796TIP3    H138947   3.706   3.775   7.399 -2.6770  1.3228  1.0068
 5796TIP3    H238948   3.649   3.706   7.521  2.0455 -2.5559  1.3472
 5797TIP3   OH238949   0.640   4.839   2.177 -0.0726  0.5225 -1.0813
 5797TIP3    H138950   0.643   4.932   2.155  1.7045  0.7953  0.0594
 5797TIP3    H238951   0.656   4.794   2.094  0.1224  1.2747 -1.4616
 5798TIP3   OH238952   2.179   0.082   0.354 -0.5940  0.2714 -0.0741
 5798TIP3    H138953   2.241   0.137   0.307 -2.4560  1.4769 -1.2628
 5798TIP3    H238954   2.234   0.023   0.406  1.5863 -0.1919 -2.6590
 5799TIP3   OH238955   4.867   5.027   2.505  0.0912  0.0395  0.1780
 5799TIP3    H138956   4.936   4.978   2.460 -0.8289 -2.2321  1.0823
 5799TIP3    H238957   4.914   5.087   2.562  1.3019 -0.5041 -0.2141
 5800TIP3   OH238958   6.267   1.588   1.753 -0.1854  0.0242 -0.2509
 5800TIP3    H138959   6.318   1.611   1.675  0.6501  0.6497  0.4533
 5800TIP3    H238960   6.176   1.604   1.728  0.2055  2.1779 -0.4798
 5801TIP3   OH238961   3.767   6.065   2.219  0.3066 -0.1403 -0.0721
 5801TIP3    H138962   3.817   6.141   2.249 -2.4408  1.4729  0.8180
 5801TIP3    H238963   3.776   6.001   2.290  1.9325 -0.3642 -0.4358
 5802TIP3   OH238964   5.727   2.581   1.520  0.8760  0.3808  0.1706
 5802TIP3    H138965   5.675   2.545   1.592  0.5639 -1.5370 -0.9351
 5802TIP3    H238966   5.797   2.517   1.508  1.4795  1.1670 -0.6243
 5803TIP3   OH238967   1.453   3.300   0.620  0.7359  0.1511 -0.3006
 5803TIP3    H138968   1.401   3.300   0.540  0.9419  1.1325 -0.4425
 5803TIP3    H238969   1.392   3.330   0.688  0.2696 -1.6282  0.1374
 5804TIP3   OH238970   5.152   1.890   8.729 -0.1921  0.1628 -0.3082
 5804TIP3    H138971   5.225   1.916   8.784 -0.1574  0.7362 -0.6232
 5804TIP3    H238972   5.186   1.819   8.675 -0.0350  0.0474 -0.0574
 5805TIP3   OH238973   1.454   3.824   8.539  0.1938  0.6988  0.0239
 5805TIP3    H138974   1.422   3.889   8.477 -1.9974  0.4572  0.8128
 5805TIP3    H238975   1.429   3.740   8.501  0.0179  0.4855  0.5998
 5806TIP3   OH238976   4.792   6.779   0.573  0.2543 -0.0489 -0.4500
 5806TIP3    H138977   4.749   6.702   0.536  1.8603 -1.2454  0.0768
 5806TIP3    H238978   4.838   6.746   0.651  1.2976  1.3615 -0.4289
 5807TIP3   OH238979   5.210   3.013   8.339  0.1031  0.2989 -0.2686
 5807TIP3    H138980   5.276   2.953   8.376 -1.2083 -1.8697 -1.2404
 5807TIP3    H238981   5.260   3.089   8.311  1.3579  1.7458  4.8806
 5808TIP3   OH238982   6.067   0.067   8.380 -0.1078  0.5582 -0.3183
 5808TIP3    H138983   6.123   0.086   8.455 -2.4147  0.8443  1.4271
 5808TIP3    H238984   6.080   0.142   8.321 -0.5096  1.8838  1.2168
 5809TIP3   OH238985   4.812   3.963   7.243  0.3717 -0.3996 -0.0617
 5809TIP3    H138986   4.877   3.955   7.173  0.4504 -0.0274 -0.0309
 5809TIP3    H238987   4.732   3.992   7.198  1.0446  2.2535  0.2922
 5810TIP3   OH238988   3.258   3.699   7.484  0.4425  0.0160  0.4483
 5810TIP3    H138989   3.247   3.615   7.440  1.0723 -0.8392  1.8562
 5810TIP3    H238990   3.347   3.697   7.520 -0.0891  0.5734  1.8905
 5811TIP3   OH238991   3.544   2.708   2.114 -0.2664  0.1995  0.4315
 5811TIP3    H138992   3.597   2.784   2.141  0.0596  0.0281  0.2847
 5811TIP3    H238993   3.482   2.696   2.185  0.4792 -0.1496  1.0375
 5812TIP3   OH238994   6.001   4.382   0.610 -0.2630  0.1795  0.5666
 5812TIP3    H138995   6.073   4.444   0.621  0.7894 -1.0542  0.7468
 5812TIP3    H238996   5.995   4.369   0.515 -0.5736  0.6258  0.5175
 5813TIP3   OH238997   4.361   4.014   2.382 -0.1593  0.0226  0.3800
 5813TIP3    H138998   4.267   4.001   2.394  0.0937 -0.9855  1.5385
 5813TIP3    H238999   4.392   4.044   2.468  0.5895  0.2227  0.0465
 5814TIP3   OH239000   6.396   4.417   2.047  0.1480 -0.0043  0.1041
 5814TIP3    H139001   6.413   4.328   2.077 -0.6757 -0.1565  0.1504
 5814TIP3    H239002   6.300   4.421   2.037  0.1233  1.0231  0.6040
 5815TIP3   OH239003   4.620   2.650   1.119  0.0184 -0.3324 -0.2907
 5815TIP3    H139004   4.675   2.644   1.041  1.3315 -0.5699  0.6293
 5815TIP3    H239005   4.663   2.716   1.174 -0.7514 -0.3477  0.3535
 5816TIP3   OH239006   2.414   0.691   1.007 -0.4094  0.5250  0.0583
 5816TIP3    H139007   2.441   0.629   0.939 -1.0252 -1.5345  1.6075
 5816TIP3    H239008   2.490   0.749   1.018  0.4643 -0.3990 -0.9325
 5817TIP3   OH239009   3.942   1.343   0.533 -0.2942 -0.2627  0.1141
 5817TIP3    H139010   3.850   1.356   0.510 -0.5520  0.1413  1.2875
 5817TIP3    H239011   3.975   1.281   0.468 -1.4836 -0.6852 -0.1084
 5818TIP3   OH239012   4.565   5.052   2.143  0.3949  0.2619 -0.1453
 5818TIP3    H139013   4.637   5.008   2.098  0.0496 -0.2412 -0.2113
 5818TIP3    H239014   4.562   5.010   2.229  0.5979  0.7358  0.0977
 5819TIP3   OH239015   2.961   5.832   0.487 -0.5551  0.1187  0.0195
 5819TIP3    H139016   2.901   5.757   0.493  1.1241 -1.2297  1.1795
 5819TIP3    H239017   2.948   5.879   0.569 -0.2107 -0.0708  0.1893
 5820TIP3   OH239018   5.008   3.237   1.709  0.4141  0.4565  0.0232
 5820TIP3    H139019   5.006   3.169   1.777  0.8467 -0.1826 -0.5845
 5820TIP3    H239020   5.052   3.311   1.749  3.4697 -0.9481 -0.4522
 5821TIP3   OH239021   2.048   1.292   1.496 -0.6106  0.1878 -0.1951
 5821TIP3    H139022   2.086   1.302   1.584  0.4369  0.0474 -0.6203
 5821TIP3    H239023   1.999   1.210   1.500  0.0207 -0.1820  0.0579
 5822TIP3   OH239024   3.442   2.148   2.093 -0.1917  0.1989  0.2616
 5822TIP3    H139025   3.505   2.088   2.131 -2.8139 -1.9994  1.4925
 5822TIP3    H239026   3.406   2.195   2.168 -1.4830 -0.1310 -0.1301
 5823TIP3   OH239027   2.083   1.560   2.197 -0.3911 -0.1904 -0.1119
 5823TIP3    H139028   2.009   1.598   2.150 -1.4207  0.6352  2.0618
 5823TIP3    H239029   2.102   1.622   2.267  1.5780 -0.9891  0.1203
 5824TIP3   OH239030   3.704   3.946   2.186 -0.0881 -0.4791 -0.5314
 5824TIP3    H139031   3.664   4.024   2.147 -0.3010 -0.0518  0.5169
 5824TIP3    H239032   3.694   3.959   2.280 -0.3511 -1.8975 -0.3494
 5825TIP3   OH239033   5.773   4.012   0.169  0.1319 -0.3062  0.2189
 5825TIP3    H139034   5.845   3.991   0.229 -1.3034  0.0811  2.2139
 5825TIP3    H239035   5.751   3.930   0.126  0.4551 -0.8859  1.1394
 5826TIP3   OH239036   0.087   5.662   0.435 -0.2539 -0.7677 -0.6548
 5826TIP3    H139037   0.104   5.630   0.523  0.5697 -1.7724 -1.1578
 5826TIP3    H239038   0.173   5.674   0.396 -0.5296  1.7458 -0.6486
 5827TIP3   OH239039   3.850   1.858   0.019 -0.3195 -0.3229 -0.7106
 5827TIP3    H139040   3.911   1.870  -0.055 -1.6310  0.6673 -1.6743
 5827TIP3    H239041   3.854   1.764   0.038  2.6782 -0.0869  0.3215
 5828TIP3   OH239042   6.448   1.622   7.466  0.3378 -0.8432  0.1128
 5828TIP3    H139043   6.364   1.669   7.471  1.1477  0.6162  0.5294
 5828TIP3    H239044   6.432   1.552   7.403 -0.7907  0.2784 -0.9100
 5829TIP3   OH239045   5.103   0.557   0.020 -0.1840  0.0695 -0.5892
 5829TIP3    H139046   5.159   0.501  -0.034  1.1214  0.3125  0.4418
 5829TIP3    H239047   5.140   0.645   0.009  0.8812 -0.0478  1.5564
 5830TIP3   OH239048   2.442   1.743   1.291  0.0129  0.2992  0.6311
 5830TIP3    H139049   2.498   1.742   1.214 -2.4055 -0.0121 -1.2512
 5830TIP3    H239050   2.459   1.660   1.335  0.2988 -0.2168 -0.4353
 5831TIP3   OH239051   0.725   5.614   0.093  0.4531  0.0109  0.2823
 5831TIP3    H139052   0.692   5.525   0.096  0.3563  0.0671  1.1416
 5831TIP3    H239053   0.664   5.665   0.147  0.9535  0.4384  0.4622
 5832TIP3   OH239054   5.077   6.494   8.250  0.0214  0.7560  0.0492
 5832TIP3    H139055   5.093   6.547   8.328  2.2720  1.0373 -0.5316
 5832TIP3    H239056   5.101   6.405   8.276 -1.6880  0.3529  0.3824
 5833TIP3   OH239057   0.701   5.111   2.666  0.1062 -0.1877  0.0280
 5833TIP3    H139058   0.708   5.016   2.658  0.0428 -0.2879  1.0551
 5833TIP3    H239059   0.738   5.144   2.584  1.8982 -1.0358  0.4411
 5834TIP3   OH239060   1.737   4.492   7.912 -0.0533 -0.1612 -0.0398
 5834TIP3    H139061   1.656   4.515   7.865 -0.7513  2.5009  2.2441
 5834TIP3    H239062   1.783   4.575   7.922  3.0881 -1.6067 -1.2638
 5835TIP3   OH239063   3.364   5.257   7.894  0.4396 -0.3227  0.2620
 5835TIP3    H139064   3.389   5.175   7.935  1.1888 -0.5968 -0.7116
 5835TIP3    H239065   3.301   5.296   7.955 -0.5921 -2.0082  0.3464
 5836TIP3   OH239066   3.430   2.618   2.547  0.0493  0.6999 -0.1709
 5836TIP3    H139067   3.463   2.704   2.572 -0.0105  0.5090  0.5955
 5836TIP3    H239068   3.364   2.598   2.614 -0.0253  0.1111 -0.4177
 5837TIP3   OH239069   0.567   5.102   8.125 -0.8016  0.6813 -0.6685
 5837TIP3    H139070   0.555   5.131   8.035  2.0569  1.0755 -1.0154
 5837TIP3    H239071   0.590   5.182   8.173  0.9486  0.0035 -0.3099
 5838TIP3   OH239072   1.113   2.722   1.873  0.2856 -0.0278  0.4424
 5838TIP3    H139073   1.189   2.726   1.815 -0.4766 -0.2351 -0.6087
 5838TIP3    H239074   1.149   2.709   1.960  1.4642  0.2288  0.0094
 5839TIP3   OH239075   2.309   2.940   0.007  0.0682  0.5660  0.6678
 5839TIP3    H139076   2.317   3.022   0.057  2.4513 -0.8473  2.8544
 5839TIP3    H239077   2.384   2.941  -0.051 -0.6475  0.5032 -0.2748
 5840TIP3   OH239078   5.079   4.551   8.306 -0.2380 -0.8405  0.3385
 5840TIP3    H139079   5.117   4.579   8.389  2.7995  0.4444 -1.3196
 5840TIP3    H239080   5.016   4.620   8.284 -0.8250 -1.0241  1.3820
 5841TIP3   OH239081   2.591   3.238   1.940  0.1943  0.0183 -0.3225
 5841TIP3    H139082   2.676   3.217   1.901  1.4773  0.7110  1.9301
 5841TIP3    H239083   2.553   3.153   1.963  0.6955 -0.2636 -0.5212
 5842TIP3   OH239084   3.217   6.359   0.614 -0.0810 -0.3760  0.4139
 5842TIP3    H139085   3.121   6.353   0.607 -0.4119  3.8929 -2.6342
 5842TIP3    H239086   3.249   6.325   0.530  1.1740 -1.7150  1.3797
 5843TIP3   OH239087   1.603   3.184   8.432 -0.1134 -0.4782 -0.6647
 5843TIP3    H139088   1.620   3.091   8.447 -0.0123 -0.2444  0.8151
 5843TIP3    H239089   1.639   3.201   8.345  1.0099 -1.5566 -0.4449
 5844TIP3   OH239090   5.367   2.116   0.526  0.0944 -0.0559 -0.0137
 5844TIP3    H139091   5.369   2.139   0.619  1.0365 -0.7625  0.1571
 5844TIP3    H239092   5.368   2.200   0.480 -0.9202  0.3123  0.6037
 5845TIP3   OH239093   0.163   6.409   8.305 -0.2804 -0.2103 -0.0736
 5845TIP3    H139094   0.245   6.457   8.290 -0.1928 -0.9526 -2.5160
 5845TIP3    H239095   0.158   6.348   8.231 -1.3987 -2.5559  1.8112
 5846TIP3   OH239096   5.869   3.856   7.519  0.5604 -0.4302  0.0214
 5846TIP3    H139097   5.881   3.854   7.424 -1.0774 -0.5055 -0.2074
 5846TIP3    H239098   5.945   3.903   7.552  1.2759 -0.6185 -1.3020
 5847TIP3   OH239099   3.250   1.421   8.216  0.1207 -0.0835  0.3404
 5847TIP3    H139100   3.316   1.355   8.240 -0.3008 -1.2253 -1.4455
 5847TIP3    H239101   3.201   1.437   8.297 -0.4093 -2.7499  0.6250
 5848TIP3   OH239102   4.403   1.160   2.324 -0.5149 -0.1990 -0.5269
 5848TIP3    H139103   4.309   1.178   2.324 -0.8180 -1.3944 -2.9285
 5848TIP3    H239104   4.444   1.244   2.344 -2.0758  0.3271  0.6136
 5849TIP3   OH239105   2.507   0.926   6.970  0.3517  0.0985  0.9428
 5849TIP3    H139106   2.455   0.857   7.012 -0.4562 -0.5246 -0.9711
 5849TIP3    H239107   2.584   0.880   6.935  0.1156  0.2602  0.1965
 5850TIP3   OH239108   6.708   3.474   8.703 -0.4727 -0.0412 -0.3079
 5850TIP3    H139109   6.759   3.487   8.783 -0.0872 -0.5092 -0.4682
 5850TIP3    H239110   6.769   3.497   8.632 -0.2489 -1.2420 -0.5264
 5851TIP3   OH239111   6.341   0.351   7.812 -0.2806  0.5727  0.1004
 5851TIP3    H139112   6.407   0.296   7.770  0.1196  1.0535  0.0798
 5851TIP3    H239113   6.258   0.309   7.792 -0.0557  0.4945 -0.7271
 5852TIP3   OH239114   0.751   0.487   1.421 -0.4893 -0.2531  0.7823
 5852TIP3    H139115   0.763   0.546   1.346  0.5451 -3.2982 -1.6533
 5852TIP3    H239116   0.819   0.514   1.483  1.0299  0.1768 -0.9607
 5853TIP3   OH239117   0.639   1.925   2.097 -0.7225  0.0130 -0.3225
 5853TIP3    H139118   0.544   1.928   2.086 -0.4993  0.0549 -2.7726
 5853TIP3    H239119   0.663   1.835   2.076 -0.3198 -0.4714  1.9296
 5854TIP3   OH239120   4.195   3.467   8.061  0.0481  0.0535  0.3402
 5854TIP3    H139121   4.280   3.425   8.073 -0.2554 -0.8127 -0.4761
 5854TIP3    H239122   4.214   3.546   8.010  0.2811 -0.4908 -0.4292
 5855TIP3   OH239123   6.158   3.757   0.929  0.1395  0.0149 -0.0782
 5855TIP3    H139124   6.127   3.801   1.008  0.6255  0.3510 -0.0659
 5855TIP3    H239125   6.245   3.724   0.953 -0.9309 -2.6445  0.5306
 5856TIP3   OH239126   2.442   6.197   2.647 -0.6228 -0.2256 -0.2772
 5856TIP3    H139127   2.522   6.164   2.607 -0.3591 -1.9025  1.4835
 5856TIP3    H239128   2.433   6.147   2.728 -2.3179  1.4316  0.6420
 5857TIP3   OH239129   5.812   1.709   8.005 -0.0920 -0.0181  0.3651
 5857TIP3    H139130   5.737   1.694   7.947  0.2792 -2.3837  0.3907
 5857TIP3    H239131   5.781   1.683   8.092 -0.1010  1.8375  0.9645
 5858TIP3   OH239132   5.827   6.080   1.042 -0.0270  0.8086  0.2780
 5858TIP3    H139133   5.923   6.077   1.039  0.0164 -1.1232  1.5676
 5858TIP3    H239134   5.799   6.011   0.983 -0.6298  1.2491  0.0417
 5859TIP3   OH239135   3.628   5.192   0.068  0.5610  0.5664  0.1784
 5859TIP3    H139136   3.701   5.246   0.097  0.9088  0.9855 -1.3965
 5859TIP3    H239137   3.551   5.249   0.076  0.0066 -0.4580  3.6476
 5860TIP3   OH239138   5.976   1.273   1.129 -0.8462  0.0443  0.3955
 5860TIP3    H139139   5.974   1.278   1.034  0.5680 -1.1483  0.2790
 5860TIP3    H239140   5.952   1.361   1.158  0.6500  1.0077 -1.1090
 5861TIP3   OH239141   3.513   0.612   8.251 -0.2548 -0.4597 -0.0511
 5861TIP3    H139142   3.557   0.693   8.223 -1.9834  0.1684 -1.0945
 5861TIP3    H239143   3.546   0.545   8.192 -0.5027 -0.0433 -0.6666
 5862TIP3   OH239144   6.439   5.920   0.215  0.0210 -0.8066  0.5770
 5862TIP3    H139145   6.370   5.940   0.151  0.6158 -0.8787 -0.1003
 5862TIP3    H239146   6.516   5.902   0.161  0.5446 -0.8101  1.3256
 5863TIP3   OH239147   6.436   2.271   1.861  0.2018 -0.1926  0.0284
 5863TIP3    H139148   6.474   2.183   1.867  0.1415 -0.1793  0.8050
 5863TIP3    H239149   6.360   2.268   1.920  0.8936  0.7175  1.0084
 5864TIP3   OH239150   4.786   5.614   1.765 -0.0502 -0.1668  0.4635
 5864TIP3    H139151   4.828   5.686   1.717 -0.6727 -0.4099 -0.4677
 5864TIP3    H239152   4.837   5.537   1.743  0.6343 -0.0253  1.4867
 5865TIP3   OH239153   6.377   4.281   1.071 -0.3721 -0.0202  0.7584
 5865TIP3    H139154   6.353   4.289   0.978 -1.4831  1.4440  1.1444
 5865TIP3    H239155   6.467   4.249   1.069 -0.1900  0.4743 -0.8304
 5866TIP3   OH239156   1.541   6.550   0.334  0.1625  1.0833  0.5132
 5866TIP3    H139157   1.613   6.608   0.357  2.3013 -0.8970 -0.7430
 5866TIP3    H239158   1.532   6.492   0.411 -0.1089  1.3188  0.6625
 5867TIP3   OH239159   1.521   4.435   1.110 -0.5335  0.1822 -0.1997
 5867TIP3    H139160   1.570   4.487   1.173 -0.1373  1.0921 -1.2133
 5867TIP3    H239161   1.448   4.398   1.160  2.0831 -2.7993  1.8639
 5868TIP3   OH239162   2.875   3.017   8.592  0.2948  0.2229  0.4766
 5868TIP3    H139163   2.785   3.031   8.622  0.6511  0.3907  1.4922
 5868TIP3    H239164   2.884   3.075   8.516 -0.9647 -1.0249 -0.6881
 5869TIP3   OH239165   6.102   6.436   1.457  0.6794 -0.4752  0.4101
 5869TIP3    H139166   6.119   6.500   1.525 -1.6487 -0.3128  0.9243
 5869TIP3    H239167   6.062   6.486   1.386 -1.7535 -1.3182  1.0637
 5870TIP3   OH239168   1.298   0.564   8.223 -0.3523  0.1786 -0.2934
 5870TIP3    H139169   1.292   0.650   8.264 -1.1425 -0.1342  0.2788
 5870TIP3    H239170   1.390   0.555   8.199 -0.0972  0.8360  0.4104
 5871TIP3   OH239171   0.841   1.051   1.417  0.5697 -0.0244  0.1668
 5871TIP3    H139172   0.816   0.972   1.465 -0.1220  0.3354  0.4113
 5871TIP3    H239173   0.759   1.100   1.408  0.4766 -0.5198 -2.2145
 5872TIP3   OH239174   4.507   3.758   1.046 -0.2036  0.3816 -0.0883
 5872TIP3    H139175   4.491   3.727   1.135  0.4616  0.5975  0.1078
 5872TIP3    H239176   4.482   3.850   1.048 -2.2589 -0.1018 -0.6925
 5873TIP3   OH239177   1.754   5.625   0.494 -0.6214  0.4021 -0.3274
 5873TIP3    H139178   1.747   5.625   0.590  1.7008 -0.5209 -0.1031
 5873TIP3    H239179   1.773   5.716   0.472 -0.5677  0.5124  0.1456
 5874TIP3   OH239180   1.848   3.831   8.012  0.3214 -0.2813 -0.0185
 5874TIP3    H139181   1.870   3.880   7.933 -1.1180 -0.2694 -0.4311
 5874TIP3    H239182   1.814   3.747   7.981 -1.1811  0.0952  0.5216
 5875TIP3   OH239183   6.008   0.898   0.312  0.1546 -0.0341  0.5077
 5875TIP3    H139184   5.968   0.970   0.265  0.4904 -0.6211 -0.7259
 5875TIP3    H239185   6.022   0.931   0.401 -0.2120  1.2073  0.1144
 5876TIP3   OH239186   1.661   2.625   2.792  0.3904  0.8859  0.1981
 5876TIP3    H139187   1.713   2.566   2.847  2.0511  0.4708 -1.6688
 5876TIP3    H239188   1.693   2.713   2.814 -0.3633  0.9029  1.2661
 5877TIP3   OH239189   1.935   2.708   7.811 -0.1120 -0.0350 -0.2470
 5877TIP3    H139190   1.886   2.626   7.800 -1.2093  0.3824  1.2902
 5877TIP3    H239191   2.024   2.680   7.830 -0.7951 -0.9699  1.8545
 5878TIP3   OH239192   6.332   2.912   1.291 -0.0861  0.6018  0.3727
 5878TIP3    H139193   6.381   2.928   1.211  1.0926  0.9480  1.1372
 5878TIP3    H239194   6.381   2.842   1.335 -0.0316  1.2349  1.3431
 5879TIP3   OH239195   4.906   4.804   1.432 -0.1770 -0.1753  0.1672
 5879TIP3    H139196   4.822   4.829   1.393  0.2841  0.5091 -0.4149
 5879TIP3    H239197   4.953   4.886   1.443  0.8914 -0.6558 -0.6353
 5880TIP3   OH239198   5.827   3.281   8.193 -0.4951 -0.2222  0.0874
 5880TIP3    H139199   5.847   3.375   8.197  0.2796 -0.4399  1.5625
 5880TIP3    H239200   5.905   3.238   8.225 -0.6135 -1.4391 -1.1554
 5881TIP3   OH239201   2.986   5.580   1.716  0.3581  0.4653 -0.3638
 5881TIP3    H139202   3.002   5.601   1.625 -0.8548  2.8906 -0.0972
 5881TIP3    H239203   2.910   5.633   1.740 -0.8280 -1.8339  1.4429
 5882TIP3   OH239204   3.071   1.654   0.682  0.0494  0.2151 -0.3922
 5882TIP3    H139205   3.111   1.597   0.748 -0.3071  0.5672  0.1312
 5882TIP3    H239206   2.978   1.629   0.682  0.4343 -1.5165 -2.5195
 5883TIP3   OH239207   2.540   1.113   2.436 -0.0212 -0.2013  0.0087
 5883TIP3    H139208   2.507   1.140   2.351  0.7326 -1.1364 -0.5953
 5883TIP3    H239209   2.566   1.195   2.478 -1.3421  0.3660 -0.2264
 5884TIP3   OH239210   1.526   5.796   0.620 -0.5949 -0.5650  0.0682
 5884TIP3    H139211   1.521   5.700   0.620  0.6543 -0.7109 -2.5331
 5884TIP3    H239212   1.465   5.823   0.552  0.6309  0.3433 -0.6872
 5885TIP3   OH239213   3.917   1.265   0.811 -0.1938  0.0823  0.6179
 5885TIP3    H139214   3.953   1.292   0.726 -0.4513 -0.3578  0.3649
 5885TIP3    H239215   3.825   1.292   0.807  0.0117  0.8852  1.1218
 5886TIP3   OH239216   6.312   6.505   8.358  0.4793  0.1638 -0.1893
 5886TIP3    H139217   6.388   6.479   8.411 -0.4398  0.0415  1.1144
 5886TIP3    H239218   6.297   6.597   8.379 -1.1611 -0.4147  1.4525
 5887TIP3   OH239219   5.329   0.585   7.364  0.3449 -0.0399  0.2194
 5887TIP3    H139220   5.320   0.643   7.288  1.0305 -0.1899  0.0144
 5887TIP3    H239221   5.422   0.563   7.366 -0.0471 -1.8917 -0.2549
 5888TIP3   OH239222   6.507   3.650   1.146  0.5789 -0.1126  0.2602
 5888TIP3    H139223   6.600   3.673   1.153  0.3447  1.1127 -0.3830
 5888TIP3    H239224   6.471   3.714   1.085 -0.7946 -0.2548  0.8757
 5889TIP3   OH239225   0.857   0.642   8.655  0.1621  0.4027  0.0704
 5889TIP3    H139226   0.774   0.685   8.633 -1.3996 -1.5747  1.7554
 5889TIP3    H239227   0.901   0.705   8.712 -0.5800  1.1077 -0.1093
 5890TIP3   OH239228   1.497   3.380   2.202  0.4498 -0.2476  0.4869
 5890TIP3    H139229   1.415   3.375   2.250  0.8319  0.3288  1.2269
 5890TIP3    H239230   1.481   3.332   2.121 -0.8857  0.6394  0.2088
 5891TIP3   OH239231   6.430   3.702   8.059 -0.8131  0.7241  0.2124
 5891TIP3    H139232   6.440   3.651   8.139  2.4988 -1.2289 -1.2548
 5891TIP3    H239233   6.482   3.781   8.075 -0.3456  0.4438  0.1028
 5892TIP3   OH239234   5.077   5.200   1.873 -0.6860  0.1933  0.5402
 5892TIP3    H139235   5.052   5.123   1.925 -0.2728  0.1946  0.7412
 5892TIP3    H239236   4.996   5.225   1.828 -0.7258 -0.6366  0.1072
 5893TIP3   OH239237   0.468   3.956   2.046  0.6415 -0.0232 -0.4978
 5893TIP3    H139238   0.402   3.887   2.047  0.4417  0.1694  0.0672
 5893TIP3    H239239   0.515   3.946   2.129  0.6040  0.5182 -0.4047
 5894TIP3   OH239240   0.735   3.655   8.174 -0.2151  0.1937 -0.2283
 5894TIP3    H139241   0.787   3.592   8.224 -1.3762  0.5430  1.5485
 5894TIP3    H239242   0.645   3.626   8.186 -0.5746  0.5746 -1.7878
 5895TIP3   OH239243   3.329   0.468   0.647  0.1982  0.0063  0.6556
 5895TIP3    H139244   3.371   0.466   0.561 -0.9833  1.0574  0.0206
 5895TIP3    H239245   3.401   0.483   0.708  1.3679 -2.7920  0.1277
 5896TIP3   OH239246   3.021   5.496   0.750 -0.6660 -0.5365  0.2517
 5896TIP3    H139247   2.937   5.480   0.706 -1.0973 -1.2961  1.3106
 5896TIP3    H239248   3.064   5.562   0.696 -1.9677 -0.0954 -0.2883
 5897TIP3   OH239249   4.108   2.288   7.421  0.0479  0.0474  0.1393
 5897TIP3    H139250   4.016   2.270   7.436 -0.1434 -0.1895 -1.2405
 5897TIP3    H239251   4.154   2.223   7.475 -0.6152 -1.6797 -1.2882
 5898TIP3   OH239252   0.684   0.755   0.680  0.1905  0.1069 -0.6266
 5898TIP3    H139253   0.674   0.732   0.773  0.3928  0.0421 -0.6216
 5898TIP3    H239254   0.628   0.832   0.669 -0.7265 -0.5523 -0.7090
 5899TIP3   OH239255   0.566   1.832   0.514  0.1947 -0.1531  0.5334
 5899TIP3    H139256   0.511   1.795   0.582 -2.1669  1.6967 -0.2265
 5899TIP3    H239257   0.573   1.924   0.536 -0.9114  0.5791 -1.7842
 5900TIP3   OH239258   2.117   0.480   0.994  0.2265  0.0070  0.5039
 5900TIP3    H139259   2.164   0.462   0.913 -0.3042 -0.0020  0.1992
 5900TIP3    H239260   2.025   0.465   0.973  0.1225 -0.4015  1.2161
 5901TIP3   OH239261   1.541   0.132   3.204  0.6765  0.1672  0.4944
 5901TIP3    H139262   1.482   0.205   3.186 -0.6904 -0.9833  0.0792
 5901TIP3    H239263   1.483   0.057   3.218  1.9356 -0.4859  2.8165
 5902TIP3   OH239264   4.376   0.269   1.866 -0.5005 -0.0475  0.0685
 5902TIP3    H139265   4.403   0.252   1.776  0.6225  0.5775  0.2711
 5902TIP3    H239266   4.401   0.189   1.914 -1.3418 -0.4882 -0.2107
 5903TIP3   OH239267   4.423   3.842   7.649  0.0478  0.3730  0.2035
 5903TIP3    H139268   4.380   3.924   7.624  0.2122  0.5602  0.5341
 5903TIP3    H239269   4.460   3.809   7.567  0.9858  1.2244  0.2591
 5904TIP3   OH239270   0.169   1.019   6.666 -0.6941 -0.5078 -0.2962
 5904TIP3    H139271   0.092   1.042   6.614 -1.4344  0.9228  1.3200
 5904TIP3    H239272   0.139   0.947   6.722 -0.6110 -0.4737 -0.2072
 5905TIP3   OH239273   1.716   2.991   7.518  0.2402  0.4085 -0.3276
 5905TIP3    H139274   1.707   2.906   7.475  2.1649 -0.0906  0.1685
 5905TIP3    H239275   1.711   3.054   7.446  1.7172 -0.3213 -1.1295
 5906TIP3   OH239276   3.812   0.845   1.497 -0.3957  0.3852 -0.4863
 5906TIP3    H139277   3.858   0.890   1.426  2.0433  0.3424  0.9626
 5906TIP3    H239278   3.856   0.760   1.504 -0.4903  0.4373  1.1304
 5907TIP3   OH239279   3.815   0.532   8.476 -0.7176 -0.5097  0.0211
 5907TIP3    H139280   3.724   0.533   8.504 -0.5795  1.1762  0.5426
 5907TIP3    H239281   3.864   0.512   8.555 -0.6191 -1.3087 -0.2362
 5908TIP3   OH239282   5.135   0.185   1.045 -0.4812 -0.1388 -0.0509
 5908TIP3    H139283   5.071   0.120   1.017 -1.7854  1.7742 -1.7052
 5908TIP3    H239284   5.207   0.176   0.982  0.5410 -1.6192  1.2327
 5909TIP3   OH239285   6.212   1.411   1.344  0.3166  0.1628 -0.6062
 5909TIP3    H139286   6.167   1.331   1.371 -0.7652  1.3392  1.2275
 5909TIP3    H239287   6.229   1.397   1.250  1.0232 -2.5721 -0.1819
 5910TIP3   OH239288   3.737   1.732   8.050  0.0734  0.0082 -0.0786
 5910TIP3    H139289   3.750   1.638   8.062 -0.7592 -0.1220 -0.1341
 5910TIP3    H239290   3.646   1.740   8.022  0.1584  0.8292 -0.1436
 5911TIP3   OH239291   5.078   4.965   8.257 -0.6746  0.3854 -0.0178
 5911TIP3    H139292   5.019   4.892   8.277 -0.0632 -0.2440 -0.4364
 5911TIP3    H239293   5.025   5.043   8.269 -1.3296 -0.1242  0.5163
 5912TIP3   OH239294   3.256   3.567   2.443  0.5318 -0.5502  0.4543
 5912TIP3    H139295   3.276   3.477   2.469  0.6666 -1.2483 -1.8209
 5912TIP3    H239296   3.296   3.576   2.357  0.8754  1.8565  0.8059
 5913TIP3   OH239297   4.928   4.893   1.166  0.4235  0.0429  0.2668
 5913TIP3    H139298   4.920   4.988   1.159 -0.7087 -0.1142 -0.8968
 5913TIP3    H239299   4.991   4.880   1.236  1.7709  1.6766 -0.5560
 5914TIP3   OH239300   5.160   3.350   1.256 -0.3654  0.4217  0.4150
 5914TIP3    H139301   5.122   3.300   1.329 -1.0804 -2.4393 -1.7111
 5914TIP3    H239302   5.224   3.290   1.217 -1.7020  0.8007 -2.6616
 5915TIP3   OH239303   0.179   4.485   0.352 -0.2313  0.3168 -0.1918
 5915TIP3    H139304   0.237   4.524   0.286 -1.4647  1.7116 -0.5077
 5915TIP3    H239305   0.200   4.392   0.349  0.2499  0.4312 -2.0649
 5916TIP3   OH239306   0.475   4.469   0.421 -0.2433  0.3528 -0.3683
 5916TIP3    H139307   0.477   4.562   0.398  2.0555  0.9044  1.6645
 5916TIP3    H239308   0.566   4.440   0.410 -0.8533 -1.6031 -0.6571
 5917TIP3   OH239309   6.476   2.206   0.949  0.6961  0.6550  0.2657
 5917TIP3    H139310   6.490   2.281   0.891  3.0012  0.1158  0.0397
 5917TIP3    H239311   6.508   2.236   1.034 -1.4880  1.0006  1.0393
 5918TIP3   OH239312   4.445   4.487   8.081  0.1012 -0.2431  0.3509
 5918TIP3    H139313   4.360   4.519   8.111  0.4785 -0.1958  1.4299
 5918TIP3    H239314   4.428   4.396   8.055 -0.3285 -0.1567  0.3114
 5919TIP3   OH239315   2.225   6.070   2.502 -0.5552  0.3061 -0.1854
 5919TIP3    H139316   2.257   6.031   2.421  0.9143 -0.5552  0.7611
 5919TIP3    H239317   2.298   6.125   2.532 -0.4744 -0.5304  1.2726
 5920TIP3   OH239318   2.461   4.302   7.878 -0.3808 -0.2870  0.3788
 5920TIP3    H139319   2.486   4.360   7.807  0.8868 -2.1372 -0.7846
 5920TIP3    H239320   2.543   4.263   7.908 -1.2687 -2.9058 -0.2413
 5921TIP3   OH239321   3.620   2.436   2.271 -0.4948  0.2891  0.2763
 5921TIP3    H139322   3.606   2.514   2.218  1.0244 -0.1140 -0.7729
 5921TIP3    H239323   3.610   2.363   2.210  3.5406 -0.1266 -0.1194
 5922TIP3   OH239324   3.549   6.170   7.832  0.3059 -0.1441 -0.1884
 5922TIP3    H139325   3.498   6.110   7.776  1.5407 -1.4237  0.0022
 5922TIP3    H239326   3.547   6.253   7.785 -0.9110 -0.4856 -0.7990
 5923TIP3   OH239327   5.634   6.050   0.145 -0.2282  0.6458  0.5987
 5923TIP3    H139328   5.665   5.961   0.131 -0.4982  0.5784  0.4246
 5923TIP3    H239329   5.552   6.039   0.194 -0.9980  0.7255 -0.6237
 5924TIP3   OH239330   0.918   2.685   8.210 -0.6560 -0.6014 -0.5272
 5924TIP3    H139331   0.904   2.634   8.289 -1.8587  0.4263 -0.0412
 5924TIP3    H239332   1.011   2.708   8.212 -0.4877 -1.2949  0.1322
 5925TIP3   OH239333   6.255   1.834   0.673 -0.2950 -0.1607  0.0866
 5925TIP3    H139334   6.321   1.846   0.605 -0.5981  1.6252  0.0422
 5925TIP3    H239335   6.204   1.758   0.646 -0.6062  0.6944 -1.8777
 5926TIP3   OH239336   2.436   2.943   8.022  0.4299  0.2979 -0.2064
 5926TIP3    H139337   2.365   2.895   8.064  0.6722  0.7752  0.7711
 5926TIP3    H239338   2.475   2.881   7.961  0.0633 -0.4027  0.2678
 5927TIP3   OH239339   6.759   2.118   0.831  0.4730  0.3901  0.0871
 5927TIP3    H139340   6.739   2.201   0.788  1.7447  0.0289 -1.2856
 5927TIP3    H239341   6.679   2.066   0.820 -0.2215  1.2994  0.6839
 5928TIP3   OH239342   2.465   4.949   7.677 -0.1421 -0.3344 -0.0139
 5928TIP3    H139343   2.424   4.869   7.645 -0.2896 -0.2173 -0.1205
 5928TIP3    H239344   2.403   5.019   7.653 -1.2077 -0.4380  2.2286
 5929TIP3   OH239345   6.539   5.751   2.796 -0.2416 -0.2180  0.8028
 5929TIP3    H139346   6.521   5.665   2.834 -2.0733 -0.9691 -1.4908
 5929TIP3    H239347   6.516   5.741   2.703  1.5776  2.1633  0.0021
 5930TIP3   OH239348   6.754   6.704   7.793  0.9368  0.8300 -0.3587
 5930TIP3    H139349   6.738   6.799   7.796  1.4027  0.9316 -0.9000
 5930TIP3    H239350   6.785   6.682   7.881 -0.3807  0.9478  0.1620
 5931TIP3   OH239351   5.889   0.649   1.694  0.3024  1.0305 -0.0230
 5931TIP3    H139352   5.850   0.577   1.743 -0.0156  2.2653  1.6222
 5931TIP3    H239353   5.955   0.608   1.638  1.4346 -0.3774  2.2034
 5932TIP3   OH239354   5.047   1.239   2.351 -0.3721  0.0166 -0.3775
 5932TIP3    H139355   5.029   1.333   2.343  1.7230  0.3774 -1.3997
 5932TIP3    H239356   5.001   1.200   2.277 -0.0941  0.4167 -0.7653
 5933TIP3   OH239357   2.112   4.561   2.724 -0.1156 -0.4429  0.6686
 5933TIP3    H139358   2.127   4.628   2.657 -0.9201  0.8174  1.7055
 5933TIP3    H239359   2.070   4.607   2.796  0.5123 -1.8145  1.9725
 5934TIP3   OH239360   5.625   1.114   0.720 -0.1551 -0.1099 -0.1819
 5934TIP3    H139361   5.595   1.050   0.655  2.0171  0.5735 -2.0088
 5934TIP3    H239362   5.566   1.188   0.710  0.6824  0.3679 -2.1710
 5935TIP3   OH239363   0.578   4.843   1.901 -0.4695  0.9919 -0.4786
 5935TIP3    H139364   0.506   4.849   1.838  2.4012  1.5734 -4.0582
 5935TIP3    H239365   0.645   4.791   1.856  2.0230  1.9158  1.8874
 5936TIP3   OH239366   3.962   4.593   1.660 -0.1166 -0.2956  0.0954
 5936TIP3    H139367   3.951   4.630   1.573  1.7806  0.7564  0.2445
 5936TIP3    H239368   4.045   4.544   1.655  1.6484  2.2332  2.0061
 5937TIP3   OH239369   4.958   0.130   1.355  0.2208  0.5145 -0.2566
 5937TIP3    H139370   4.955   0.071   1.280  0.5514  0.6983 -0.4172
 5937TIP3    H239371   5.017   0.201   1.327 -0.5484  1.1694 -0.2485
 5938TIP3   OH239372   0.986   2.035   1.033 -0.7431 -0.0295  0.0720
 5938TIP3    H139373   1.005   2.128   1.041 -1.1999  0.1078 -0.3863
 5938TIP3    H239374   1.031   2.009   0.952 -0.3526 -0.2789  0.3662
 5939TIP3   OH239375   4.560   0.191   0.041  1.0598 -0.5546 -0.2535
 5939TIP3    H139376   4.569   0.273   0.089 -0.1925  0.4569 -1.6587
 5939TIP3    H239377   4.647   0.175   0.004  1.3282  0.0949  0.0734
 5940TIP3   OH239378   2.953   3.338   2.466  0.4809  0.8741 -0.0724
 5940TIP3    H139379   3.019   3.344   2.397  0.2168  0.9925 -0.3180
 5940TIP3    H239380   2.877   3.384   2.431  0.5324  1.4285  0.5316
 5941TIP3   OH239381   2.258   2.670   2.216 -0.4768 -0.3513 -0.7468
 5941TIP3    H139382   2.228   2.761   2.224 -1.2679 -0.5583 -1.2728
 5941TIP3    H239383   2.286   2.663   2.125 -0.3466 -0.6181 -0.6863
 5942TIP3   OH239384   2.014   6.217   0.809 -0.0559 -0.5534  0.1376
 5942TIP3    H139385   1.927   6.179   0.800 -0.3692 -0.4527  2.2093
 5942TIP3    H239386   2.074   6.146   0.785 -0.6849 -1.0622  0.0354
 5943TIP3   OH239387   6.232   3.049   1.525  0.0981  0.6750 -0.5193
 5943TIP3    H139388   6.273   2.988   1.464 -1.3844 -0.4569 -0.4357
 5943TIP3    H239389   6.153   3.079   1.480 -1.4686 -0.8066  1.0818
 5944TIP3   OH239390   1.927   4.332   7.090 -0.1279 -0.2829  0.3067
 5944TIP3    H139391   1.942   4.256   7.033 -0.5569  0.2319 -0.5016
 5944TIP3    H239392   2.015   4.362   7.112  0.0709 -1.5382  1.3722
 5945TIP3   OH239393   4.067   0.978   1.095  0.2777  0.4514  0.2422
 5945TIP3    H139394   4.114   0.913   1.147  1.2777  1.6709  0.8969
 5945TIP3    H239395   4.070   0.943   1.005 -0.3687 -1.0389  0.7617
 5946TIP3   OH239396   2.127   5.637   8.210  0.4706 -0.2884 -0.4909
 5946TIP3    H139397   2.119   5.660   8.118 -2.5650  1.7911  0.1249
 5946TIP3    H239398   2.059   5.571   8.225 -0.2734  0.6615  0.5419
 5947TIP3   OH239399   1.174   4.651   1.514  0.4580  0.5433  0.2887
 5947TIP3    H139400   1.133   4.577   1.558  1.4749  0.7293  1.6155
 5947TIP3    H239401   1.130   4.728   1.549  0.9517  0.6702  0.6360
 5948TIP3   OH239402   6.426   0.425   0.413  0.0123  0.0883 -1.0499
 5948TIP3    H139403   6.456   0.363   0.480 -1.6781  0.9508  0.5707
 5948TIP3    H239404   6.363   0.375   0.361 -1.1659  0.3321  0.1027
 5949TIP3   OH239405   4.921   1.359   1.695  1.3112 -0.2002  0.6271
 5949TIP3    H139406   4.902   1.275   1.736  0.5534 -1.1913 -1.5970
 5949TIP3    H239407   4.844   1.413   1.715  0.2783 -1.1453 -0.5738
 5950TIP3   OH239408   4.873   1.072   8.312  0.5651  0.3350 -0.8982
 5950TIP3    H139409   4.910   1.076   8.224 -0.6076 -1.2975 -1.5116
 5950TIP3    H239410   4.792   1.021   8.302  0.3061  0.2818  1.0932
 5951TIP3   OH239411   0.752   2.570   7.713  0.3300 -0.2285 -0.2692
 5951TIP3    H139412   0.840   2.606   7.725  0.1852 -0.0748  0.4181
 5951TIP3    H239413   0.704   2.600   7.790 -0.4881  0.1672 -0.9189
 5952TIP3   OH239414   6.675   2.025   1.491 -0.0173 -0.4519  0.1718
 5952TIP3    H139415   6.660   1.934   1.465 -0.7731 -0.3834  0.3300
 5952TIP3    H239416   6.730   2.019   1.569 -0.4212 -0.8034  0.4414
 5953TIP3   OH239417   3.700   5.165   1.266  0.2727 -0.1027 -0.1610
 5953TIP3    H139418   3.686   5.102   1.196  1.2396 -0.3030 -0.1980
 5953TIP3    H239419   3.763   5.227   1.229  0.7162 -0.1545  0.4931
 5954TIP3   OH239420   3.589   0.475   2.241  0.1544  0.4947 -0.3072
 5954TIP3    H139421   3.604   0.426   2.160  0.6370 -1.2672  0.8037
 5954TIP3    H239422   3.495   0.467   2.257  0.2724 -0.3477  0.0137
 5955TIP3   OH239423   0.842   5.458   7.776 -0.2893  0.1651  0.2522
 5955TIP3    H139424   0.765   5.514   7.766  1.2823  2.1028 -3.1085
 5955TIP3    H239425   0.821   5.380   7.725 -0.3158  0.3827 -0.0782
 5956TIP3   OH239426   1.826   5.851   1.053  0.1883  0.0294  0.3208
 5956TIP3    H139427   1.838   5.913   1.125  0.2564 -0.5819  0.8383
 5956TIP3    H239428   1.875   5.773   1.079 -1.1053 -0.7901  0.3518
 5957TIP3   OH239429   1.786   2.957   7.766 -0.3364 -0.4394 -0.1166
 5957TIP3    H139430   1.751   2.987   7.682 -1.2626  1.1871  0.7945
 5957TIP3    H239431   1.839   2.880   7.744 -1.4914 -0.7508 -2.0230
 5958TIP3   OH239432   2.684   0.480   1.791 -0.5864 -0.4071 -0.1052
 5958TIP3    H139433   2.659   0.508   1.879 -0.2647  0.3773 -0.2536
 5958TIP3    H239434   2.628   0.532   1.732  1.5681  1.7283 -0.4594
 5959TIP3   OH239435   4.950   3.550   6.717  0.1266 -0.2757  0.0671
 5959TIP3    H139436   4.925   3.590   6.634  0.6546  0.4967  0.2770
 5959TIP3    H239437   4.873   3.499   6.743 -0.1576 -0.2646 -0.7316
 5960TIP3   OH239438   4.116   6.502   1.817 -0.1616  0.2925  0.3337
 5960TIP3    H139439   4.043   6.517   1.757  0.5528 -1.5082 -1.0638
 5960TIP3    H239440   4.194   6.514   1.763  0.5000 -1.3611  0.8667
 5961TIP3   OH239441   6.112   6.532   8.713  0.2406  0.4200  0.1969
 5961TIP3    H139442   6.204   6.557   8.724  0.4667  0.6259 -1.8693
 5961TIP3    H239443   6.072   6.605   8.667 -0.9513  0.2462  0.8902
 5962TIP3   OH239444   2.995   6.672   2.487  0.2938  0.2604  0.0194
 5962TIP3    H139445   3.062   6.623   2.438 -0.5322 -1.5231  0.5714
 5962TIP3    H239446   3.044   6.740   2.533  1.1185  2.0109 -3.1743
 5963TIP3   OH239447   0.301   6.282   1.578 -0.1803 -1.0245  0.2229
 5963TIP3    H139448   0.389   6.285   1.541 -0.4260  1.6341 -0.3992
 5963TIP3    H239449   0.306   6.336   1.658 -1.0893 -1.3947  0.5503
 5964TIP3   OH239450   3.985   5.575   7.921 -0.6864 -0.2117  0.0081
 5964TIP3    H139451   3.943   5.489   7.931 -0.0649 -0.4088  1.1037
 5964TIP3    H239452   3.970   5.619   8.005 -2.6825  1.5542 -1.1954
 5965TIP3   OH239453   2.397   3.475   7.193 -0.2327  1.0223 -0.1589
 5965TIP3    H139454   2.368   3.535   7.261  0.9396  0.0379  1.2986
 5965TIP3    H239455   2.466   3.522   7.147  0.5651  0.8841  0.8614
 5966TIP3   OH239456   2.835   3.280   0.333 -0.2987 -0.1368  0.9504
 5966TIP3    H139457   2.829   3.260   0.240 -1.8003  0.7029  0.8399
 5966TIP3    H239458   2.905   3.344   0.339 -0.7676  0.4526  0.2721
 5967TIP3   OH239459   5.127   5.788   8.420 -0.3981 -0.3662  1.0490
 5967TIP3    H139460   5.082   5.863   8.381  0.0348 -1.4290 -1.7236
 5967TIP3    H239461   5.204   5.826   8.464  0.0612  0.8098 -0.6775
 5968TIP3   OH239462   6.189   1.251   0.406  0.2927  0.3276  0.0587
 5968TIP3    H139463   6.097   1.242   0.430  0.0681 -0.4915 -1.0092
 5968TIP3    H239464   6.218   1.331   0.449 -1.9939  2.8259 -2.6474
 5969TIP3   OH239465   4.713   1.089   0.155  0.2627 -0.5907  0.4464
 5969TIP3    H139466   4.728   1.127   0.242  0.6794 -0.3859  0.2900
 5969TIP3    H239467   4.789   1.117   0.103  0.7820 -1.9790  0.4315
 5970TIP3   OH239468   4.360   1.211   0.236 -0.3928 -0.4464  0.0399
 5970TIP3    H139469   4.388   1.298   0.267  0.9475 -0.4230 -1.1811
 5970TIP3    H239470   4.336   1.164   0.317  1.0183  0.3067  0.9350
 5971TIP3   OH239471   5.318   5.571   2.411 -0.2670 -0.2041 -0.5469
 5971TIP3    H139472   5.395   5.551   2.464 -1.0244  1.0677  1.1196
 5971TIP3    H239473   5.271   5.487   2.404  0.0785 -0.4885  0.4391
 5972TIP3   OH239474   0.660   5.112   2.140 -0.4903 -0.7434 -0.0876
 5972TIP3    H139475   0.749   5.146   2.129 -0.3543 -1.6328 -2.0292
 5972TIP3    H239476   0.614   5.182   2.188  1.4438 -0.6529  1.8047
 5973TIP3   OH239477   0.509   3.663   2.202 -0.4986 -0.5507 -0.0000
 5973TIP3    H139478   0.497   3.628   2.113 -1.9623 -0.0939 -0.0163
 5973TIP3    H239479   0.432   3.631   2.250 -0.6157  0.6254  0.6249
 5974TIP3   OH239480   6.314   0.074   8.529 -0.3490 -0.6630  0.3003
 5974TIP3    H139481   6.371   0.016   8.479 -1.3063 -1.5426  0.1938
 5974TIP3    H239482   6.301   0.030   8.613 -1.1767 -0.6753  0.1755
 5975TIP3   OH239483   6.429   5.637   7.372  0.5107 -0.0423  0.6420
 5975TIP3    H139484   6.493   5.568   7.355 -0.8060 -1.2913  0.4994
 5975TIP3    H239485   6.392   5.657   7.286  1.7547  1.7884  0.4868
 5976TIP3   OH239486   5.738   2.623   2.382 -0.0157 -0.5283  0.2686
 5976TIP3    H139487   5.795   2.566   2.434 -0.7900 -1.3761  0.2226
 5976TIP3    H239488   5.780   2.629   2.297  0.8159  0.1556  0.7184
 5977TIP3   OH239489   1.272   6.677   8.139 -0.0138 -0.3017 -0.0877
 5977TIP3    H139490   1.186   6.709   8.112 -0.2800 -0.5998  0.3938
 5977TIP3    H239491   1.316   6.755   8.175 -0.0872 -0.1524 -0.3220
 5978TIP3   OH239492   3.478   6.025   8.591  0.7205  0.7958  0.0054
 5978TIP3    H139493   3.469   6.014   8.686  1.7385 -0.6213 -0.0277
 5978TIP3    H239494   3.572   6.031   8.576  0.6562 -0.3734 -1.0248
 5979TIP3   OH239495   3.495   0.410   0.415  0.1833  0.1558 -0.1987
 5979TIP3    H139496   3.581   0.372   0.396  0.8109  0.5761  1.6048
 5979TIP3    H239497   3.502   0.501   0.387 -0.0875 -0.0903 -1.1125
 5980TIP3   OH239498   5.134   1.469   1.826 -0.6541 -0.0619 -0.7923
 5980TIP3    H139499   5.072   1.414   1.778  0.1593 -0.0395 -1.9175
 5980TIP3    H239500   5.083   1.508   1.897 -0.9527 -3.5093  1.1307
 5981TIP3   OH239501   2.247   3.853   1.995 -0.5796 -0.0422  0.3127
 5981TIP3    H139502   2.186   3.833   1.924  0.3873  0.4452 -0.6824
 5981TIP3    H239503   2.311   3.912   1.955  0.0262  0.1744  1.5748
 5982TIP3   OH239504   4.809   3.915   1.386  0.0515  0.0166  0.3957
 5982TIP3    H139505   4.829   3.917   1.480  0.5288 -1.0720  0.3323
 5982TIP3    H239506   4.721   3.952   1.380 -0.2831 -0.5918  1.3615
 5983TIP3   OH239507   5.445   5.764   2.093 -0.3454 -0.1847  0.5501
 5983TIP3    H139508   5.435   5.799   2.182  0.8247 -0.7443  0.9124
 5983TIP3    H239509   5.460   5.842   2.039 -0.6105  0.1208  0.9095
 5984TIP3   OH239510   4.592   1.550   8.668  0.7070  0.2261 -0.7203
 5984TIP3    H139511   4.550   1.533   8.753  1.6383 -1.0164 -0.4952
 5984TIP3    H239512   4.522   1.537   8.604 -0.0401  1.2900 -0.1593
 5985TIP3   OH239513   2.411   5.044   0.977 -0.1648 -0.2913 -0.5757
 5985TIP3    H139514   2.480   4.977   0.976  2.0058  1.8223 -0.3830
 5985TIP3    H239515   2.438   5.107   0.911 -2.6121  0.0316 -1.3546
 5986TIP3   OH239516   3.769   2.405   0.942 -0.2145 -0.1380 -0.4071
 5986TIP3    H139517   3.791   2.317   0.971  0.3879  0.0719 -0.2118
 5986TIP3    H239518   3.724   2.444   1.018  0.2579 -0.0020 -0.1959
 5987TIP3   OH239519   4.836   3.861   7.484  0.2118 -0.3770  0.0652
 5987TIP3    H139520   4.775   3.788   7.480 -1.0103  0.5165  1.5452
 5987TIP3    H239521   4.816   3.913   7.406 -1.5993  0.3762  0.9686
 5988TIP3   OH239522   0.771   5.704   1.839  0.5425 -0.6073 -0.2546
 5988TIP3    H139523   0.808   5.648   1.770  1.3118 -1.1193  0.5543
 5988TIP3    H239524   0.846   5.751   1.874  0.0755  0.0423 -0.1056
 5989TIP3   OH239525   4.047   2.825   3.110  0.4984 -0.0736  0.0234
 5989TIP3    H139526   4.114   2.802   3.046 -0.0514  0.5751 -0.8164
 5989TIP3    H239527   4.092   2.881   3.174  0.8216  0.1480 -0.3922
 5990TIP3   OH239528   2.787   3.950   0.162  0.2567 -0.1622  0.2892
 5990TIP3    H139529   2.773   3.861   0.196 -1.3485  0.5693  1.7101
 5990TIP3    H239530   2.700   3.978   0.134  0.8350  0.7923 -0.5848
 5991TIP3   OH239531   1.525   5.222   2.290 -0.0594  0.3580 -0.1251
 5991TIP3    H139532   1.580   5.209   2.213  1.2794  0.0289  0.8282
 5991TIP3    H239533   1.439   5.189   2.265  0.5364 -0.4239 -1.2379
 5992TIP3   OH239534   0.982   4.852   1.151  0.4918  0.0693  0.0636
 5992TIP3    H139535   1.005   4.921   1.213 -1.3166  0.1800  0.6791
 5992TIP3    H239536   1.018   4.772   1.189  2.2959  0.5825 -0.4736
 5993TIP3   OH239537   5.468   2.552   7.509 -0.2687  0.4327  0.2666
 5993TIP3    H139538   5.464   2.561   7.414 -1.4797 -1.9067  0.0109
 5993TIP3    H239539   5.556   2.581   7.533  0.5220 -0.1876 -1.7531
 5994TIP3   OH239540   6.750   5.007   0.037 -0.1449  0.1383  0.6145
 5994TIP3    H139541   6.738   5.063  -0.040  1.2089  0.4895  0.6247
 5994TIP3    H239542   6.671   4.953   0.040 -0.7049  0.8595 -0.3953
 5995TIP3   OH239543   2.241   5.098   1.182 -0.0950 -0.5826 -0.4880
 5995TIP3    H139544   2.169   5.041   1.208 -1.2575  1.0674  0.0920
 5995TIP3    H239545   2.271   5.062   1.099 -1.2645 -1.6155 -0.4903
 5996TIP3   OH239546   4.753   2.678   0.612 -0.0560 -0.4517 -0.3270
 5996TIP3    H139547   4.819   2.619   0.574 -0.0218 -1.9093  1.7995
 5996TIP3    H239548   4.732   2.638   0.697  0.3366  2.8712  1.5046
 5997TIP3   OH239549   2.701   1.599   7.993  0.1189 -0.9292  0.5653
 5997TIP3    H139550   2.733   1.682   8.028 -0.2230  0.1657 -1.5464
 5997TIP3    H239551   2.623   1.579   8.045  0.6806 -0.3893  1.6467
 5998TIP3   OH239552   1.652   6.378   2.120 -0.1005  0.1656 -0.0694
 5998TIP3    H139553   1.678   6.470   2.124  0.3499  0.1097 -1.3143
 5998TIP3    H239554   1.567   6.380   2.077  1.0511 -0.1513 -2.5084
 5999TIP3   OH239555   2.068   3.565   2.906  0.4170  0.0931  0.6448
 5999TIP3    H139556   1.999   3.566   2.973  1.8776 -0.6627  2.2317
 5999TIP3    H239557   2.040   3.631   2.842 -1.0445  0.8559  1.9920
 6000TIP3   OH239558   1.068   4.278   7.816 -0.0138  0.2651 -0.5210
 6000TIP3    H139559   1.163   4.289   7.813  0.0367 -0.0094 -0.1565
 6000TIP3    H239560   1.056   4.194   7.862 -0.3817 -0.6933 -2.2597
 6001TIP3   OH239561   5.769   1.882   2.692  0.0258  0.2776 -0.2184
 6001TIP3    H139562   5.675   1.883   2.673 -0.1261 -1.0558  0.3208
 6001TIP3    H239563   5.778   1.930   2.774 -0.4731 -1.2765  0.7738
 6002TIP3   OH239564   3.475   2.972   7.120  0.3504  0.1921  0.1745
 6002TIP3    H139565   3.565   2.958   7.090  0.0142 -1.6716 -0.0922
 6002TIP3    H239566   3.425   2.988   7.040  0.2867  0.2779  0.2315
 6003TIP3   OH239567   1.303   0.146   0.758 -0.2213 -0.2584  0.0758
 6003TIP3    H139568   1.246   0.190   0.694 -0.8203 -1.0163  0.0778
 6003TIP3    H239569   1.245   0.128   0.832  0.5418  0.9156  0.9979
 6004TIP3   OH239570   0.961   1.215   2.300 -0.0052 -0.4973  0.4328
 6004TIP3    H139571   0.894   1.198   2.234 -0.5021  0.8663  0.5567
 6004TIP3    H239572   1.003   1.296   2.272  1.4103 -1.1720  0.5199
 6005TIP3   OH239573   6.592   1.751   1.497 -0.3615  0.1359 -0.1000
 6005TIP3    H139574   6.536   1.743   1.420 -0.3998 -0.6525 -0.0054
 6005TIP3    H239575   6.665   1.691   1.479 -1.7252 -2.2360  1.6196
 6006TIP3   OH239576   2.272   4.849   2.260  0.1882  0.4807 -0.0395
 6006TIP3    H139577   2.269   4.891   2.346 -2.0525  2.4693 -0.9503
 6006TIP3    H239578   2.316   4.912   2.204  1.3591 -0.6672 -0.4580
 6007TIP3   OH239579   0.407   1.036   1.987  0.6181  0.2472  0.3600
 6007TIP3    H139580   0.425   0.978   2.061 -0.6815  1.0797  1.3781
 6007TIP3    H239581   0.404   1.123   2.025  0.7473  0.7959 -0.8368
 6008TIP3   OH239582   4.015   0.360   6.871  0.3608 -0.1714  0.2473
 6008TIP3    H139583   4.024   0.294   6.802 -1.7579  0.9793 -1.2714
 6008TIP3    H239584   3.921   0.366   6.886  0.5851  1.5512  1.2895
 6009TIP3   OH239585   1.529   3.269   3.173 -0.8275 -0.3586  0.5469
 6009TIP3    H139586   1.532   3.253   3.078 -0.9541  0.5026  0.3829
 6009TIP3    H239587   1.576   3.351   3.184  0.1485 -1.0208  1.3830
 6010TIP3   OH239588   3.089   4.352   0.735 -0.3394  0.6970  0.5574
 6010TIP3    H139589   3.156   4.404   0.779  1.1756 -0.4651 -0.2953
 6010TIP3    H239590   3.113   4.354   0.642 -1.7858  0.6718  0.1467
 6011TIP3   OH239591   5.420   6.792   1.130  0.1402 -0.1512 -0.3039
 6011TIP3    H139592   5.332   6.826   1.116  0.7073  1.2650 -0.6135
 6011TIP3    H239593   5.478   6.863   1.103  1.3711 -0.3834  1.5173
 6012TIP3   OH239594   2.687   6.312   8.275 -0.5257  0.1934 -0.3823
 6012TIP3    H139595   2.652   6.276   8.194 -1.5344 -1.4216  0.7062
 6012TIP3    H239596   2.756   6.250   8.301 -2.0513 -0.8979  1.3436
 6013TIP3   OH239597   4.556   0.474   0.895  0.3021  0.0109 -0.0354
 6013TIP3    H139598   4.484   0.519   0.940  0.8515 -0.3324  1.2361
 6013TIP3    H239599   4.575   0.398   0.950  1.6193  0.0766 -0.3733
 6014TIP3   OH239600   6.710   1.268   1.547 -0.6226 -0.0526 -0.0828
 6014TIP3    H139601   6.614   1.272   1.553 -0.6894  0.0173 -1.0792
 6014TIP3    H239602   6.740   1.333   1.610 -1.2232 -0.2748  0.4501
 6015TIP3   OH239603   0.822   0.144   2.599  0.5221 -0.0308 -0.4960
 6015TIP3    H139604   0.914   0.165   2.617  0.6991 -0.3831 -0.9617
 6015TIP3    H239605   0.778   0.154   2.683  0.6478  1.8726 -0.6069
 6016TIP3   OH239606   5.420   0.563   2.379 -0.5365  0.4533 -0.0097
 6016TIP3    H139607   5.370   0.592   2.302 -0.1189  1.9518  0.2437
 6016TIP3    H239608   5.509   0.596   2.362 -0.2332  0.0000  0.6953
 6017TIP3   OH239609   1.793   6.550   0.985 -0.5008 -0.6068 -0.1973
 6017TIP3    H139610   1.829   6.468   0.952  2.1873 -0.6859  2.5067
 6017TIP3    H239611   1.741   6.524   1.061  0.5398  0.1752  0.8049
 6018TIP3   OH239612   6.820   2.748   1.580 -0.2270  0.3530 -0.2244
 6018TIP3    H139613   6.863   2.663   1.571  0.4080  0.6882 -0.4452
 6018TIP3    H239614   6.760   2.737   1.653  0.1404 -0.1730  0.0073
 6019TIP3   OH239615   6.022   5.748   1.318 -0.0843  0.1968 -0.7551
 6019TIP3    H139616   6.015   5.729   1.411 -1.0634 -1.9785 -1.2120
 6019TIP3    H239617   6.113   5.774   1.305  0.1401  0.2360  0.7435
 6020TIP3   OH239618   4.781   2.959   0.405 -0.6437  0.0018 -0.2207
 6020TIP3    H139619   4.725   2.882   0.417  0.9085 -0.8016  2.8374
 6020TIP3    H239620   4.866   2.922   0.380  0.4847  0.5047  2.5869
 6021TIP3   OH239621   3.180   3.109   2.093 -0.3258 -0.7292 -0.1156
 6021TIP3    H139622   3.224   3.071   2.170 -0.3746  1.3705  1.0100
 6021TIP3    H239623   3.250   3.151   2.044 -0.7474  1.1936  0.8211
 6022TIP3   OH239624   3.051   3.726   0.433  0.3776  0.7676  0.1313
 6022TIP3    H139625   3.033   3.791   0.501  0.3880  0.9512 -0.0409
 6022TIP3    H239626   3.078   3.777   0.357 -0.4407  0.6242 -0.2776
 6023TIP3   OH239627   2.217   2.798   1.623  0.1162 -0.3007 -0.0730
 6023TIP3    H139628   2.312   2.805   1.623  0.2416 -1.7601  0.0066
 6023TIP3    H239629   2.190   2.836   1.540  0.7133  0.5616  0.1120
 6024TIP3   OH239630   3.922   1.034   1.325 -0.8088 -0.5037  0.1484
 6024TIP3    H139631   3.956   1.115   1.363 -3.7790  1.1217 -0.3285
 6024TIP3    H239632   3.937   1.044   1.231  0.0527 -1.2012  0.1952
 6025TIP3   OH239633   3.053   5.086   1.781  0.1595 -0.1644 -0.1553
 6025TIP3    H139634   2.997   5.162   1.801 -0.2464 -1.3833  4.4221
 6025TIP3    H239635   2.996   5.010   1.795  1.4254 -1.4159 -1.4263
 6026TIP3   OH239636   0.174   5.004   1.882 -0.5624 -0.4194  0.4891
 6026TIP3    H139637   0.116   4.932   1.905 -0.2629 -0.6054  0.6808
 6026TIP3    H239638   0.169   5.064   1.956  0.9812 -1.3826  1.4315
 6027TIP3   OH239639   4.932   3.383   7.961  0.5919 -0.5560 -0.0441
 6027TIP3    H139640   4.884   3.410   7.883  0.2372 -1.2174 -0.0582
 6027TIP3    H239641   5.023   3.379   7.932  0.0863 -5.1626 -1.7780
 6028TIP3   OH239642   5.122   6.363   0.598 -0.6080  0.3945  0.3334
 6028TIP3    H139643   5.039   6.354   0.551 -0.0605  0.9935 -0.7896
 6028TIP3    H239644   5.177   6.293   0.564 -0.5843  0.0936  0.9664
 6029TIP3   OH239645   1.619   4.127   8.660  0.0102  0.5028 -0.6744
 6029TIP3    H139646   1.546   4.143   8.600 -1.4976 -1.3313  0.5228
 6029TIP3    H239647   1.604   4.038   8.692  1.6174  0.8479  1.2381
 6030TIP3   OH239648   3.119   2.032   2.113  0.2557  0.1086  0.2768
 6030TIP3    H139649   3.135   2.124   2.089 -2.2199  0.9328  1.5079
 6030TIP3    H239650   3.156   2.024   2.201 -1.4259  0.5912  1.0607
 6031TIP3   OH239651   3.944   5.442   0.849 -0.5705 -0.4151  0.1905
 6031TIP3    H139652   3.862   5.487   0.830 -0.1112  0.3136 -0.1050
 6031TIP3    H239653   4.012   5.508   0.835  0.1153 -1.1820 -0.1862
 6032TIP3   OH239654   4.037   5.813   7.773 -0.3737  0.0380 -0.7089
 6032TIP3    H139655   3.982   5.741   7.804  1.7350 -1.9161 -1.2099
 6032TIP3    H239656   4.007   5.828   7.684 -1.0763  0.0478 -0.4805
 6033TIP3   OH239657   5.928   1.695   1.957 -0.5156  0.1843  0.9652
 6033TIP3    H139658   5.842   1.712   1.918 -0.5911  0.3383  1.1953
 6033TIP3    H239659   5.965   1.782   1.972  0.1787  0.1117 -0.2088
 6034TIP3   OH239660   1.180   1.644   7.928  0.1847 -0.0183 -0.0112
 6034TIP3    H139661   1.134   1.598   7.998  1.9830  1.5560  2.3542
 6034TIP3    H239662   1.119   1.712   7.900  0.0610  0.3834  1.2103
 6035TIP3   OH239663   6.574   5.887   2.270 -0.2379 -0.2262  0.5647
 6035TIP3    H139664   6.503   5.936   2.310 -0.6223  0.3098 -0.7054
 6035TIP3    H239665   6.531   5.811   2.230 -0.1736  0.2495 -0.4579
 6036TIP3   OH239666   1.203   0.860   0.985 -0.2112 -0.5708 -0.4382
 6036TIP3    H139667   1.166   0.828   1.068  0.5951 -2.1219 -0.6336
 6036TIP3    H239668   1.133   0.846   0.921 -1.2368  1.6115  0.0935
 6037TIP3   OH239669   3.972   4.986   0.568 -0.0671 -0.7023 -0.1886
 6037TIP3    H139670   3.897   4.934   0.538  0.8846 -1.1717 -1.8489
 6037TIP3    H239671   3.943   5.022   0.652 -2.0780 -1.0388 -0.6732
 6038TIP3   OH239672   0.799   3.670   0.384 -0.2869  0.9829 -0.2058
 6038TIP3    H139673   0.747   3.748   0.404 -2.2787 -0.0019 -1.3384
 6038TIP3    H239674   0.842   3.691   0.300 -1.3029  0.6533 -0.8195
 6039TIP3   OH239675   4.683   6.073   8.110 -0.3257 -0.3401 -0.2995
 6039TIP3    H139676   4.636   6.058   8.028 -0.8885  0.3002 -0.1069
 6039TIP3    H239677   4.724   6.159   8.100 -1.0416  0.0982  0.3661
 6040TIP3   OH239678   0.152   1.208   7.939  0.1083 -0.0818 -0.0647
 6040TIP3    H139679   0.077   1.154   7.962  0.6988 -0.5967  0.6928
 6040TIP3    H239680   0.136   1.233   7.848 -0.6240 -0.7806 -0.1400
 6041TIP3   OH239681   3.528   5.404   7.024 -0.0324  0.2499 -0.2262
 6041TIP3    H139682   3.560   5.488   7.054  0.6930  1.0397 -2.9593
 6041TIP3    H239683   3.464   5.425   6.956 -0.3493 -1.4014 -0.4992
 6042TIP3   OH239684   0.328   3.365   7.981  0.3124 -0.4995 -0.3182
 6042TIP3    H139685   0.341   3.315   7.900  0.6731 -0.5155 -0.2507
 6042TIP3    H239686   0.265   3.312   8.031  0.2979 -0.6283 -0.4702
 6043TIP3   OH239687   5.094   2.942   0.958 -0.1410  0.2444 -0.0050
 6043TIP3    H139688   5.187   2.961   0.969  0.7180 -1.7841 -2.6345
 6043TIP3    H239689   5.050   3.024   0.979  2.1618  1.1256  1.8049
 6044TIP3   OH239690   6.585   2.151   8.048 -0.4641  0.2549  0.3472
 6044TIP3    H139691   6.497   2.135   8.084 -0.6529  1.3802  0.4114
 6044TIP3    H239692   6.616   2.064   8.024 -1.1831 -0.2882  1.2783
 6045TIP3   OH239693   4.685   3.143   2.021 -0.0229 -0.0874  0.1088
 6045TIP3    H139694   4.693   3.071   1.958 -0.7099  1.1096 -1.4143
 6045TIP3    H239695   4.596   3.176   2.009  0.4743  1.3964  0.3315
 6046TIP3   OH239696   1.000   5.682   1.457  0.4881 -0.7742  0.2342
 6046TIP3    H139697   0.946   5.603   1.447 -0.1934 -0.3452  0.4633
 6046TIP3    H239698   1.089   5.649   1.468 -0.0583 -1.6231  2.6127
 6047TIP3   OH239699   2.587   5.373   2.878  0.4619  0.2047 -0.0384
 6047TIP3    H139700   2.527   5.299   2.882  0.3258  0.3585  0.7254
 6047TIP3    H239701   2.627   5.377   2.965  0.0834  1.3516  0.0938
 6048TIP3   OH239702   3.970   6.246   2.197  0.2484 -0.3630  0.3859
 6048TIP3    H139703   4.019   6.169   2.168  0.5759 -0.6836  1.6946
 6048TIP3    H239704   4.011   6.270   2.281 -0.2194  0.8962  0.2784
 6049TIP3   OH239705   1.132   5.070   2.874  0.2658  0.2314  0.4644
 6049TIP3    H139706   1.107   5.161   2.855 -0.9901  0.0336  1.0551
 6049TIP3    H239707   1.053   5.032   2.914  0.0216 -1.7409 -1.7087
 6050TIP3   OH239708   6.426   0.099   7.490  0.3279 -0.2196  0.3127
 6050TIP3    H139709   6.445   0.006   7.485 -2.8159 -1.1766  2.8997
 6050TIP3    H239710   6.491   0.134   7.551  0.0391 -1.2550  1.2374
 6051TIP3   OH239711   3.027   4.541   8.052  0.8148  0.0346  0.3525
 6051TIP3    H139712   2.977   4.538   7.971  1.4405 -0.4924 -0.0207
 6051TIP3    H239713   2.968   4.584   8.114 -1.4525 -3.4096  0.8632
 6052TIP3   OH239714   6.736   3.913   7.684 -0.9394  0.6500  0.0239
 6052TIP3    H139715   6.717   3.880   7.772 -1.0338  1.4958  0.3327
 6052TIP3    H239716   6.696   3.850   7.625 -2.3700  0.9721  0.6260
 6053TIP3   OH239717   1.079   3.444   7.836  0.3517 -0.5751 -0.0657
 6053TIP3    H139718   1.011   3.418   7.774 -0.5908 -0.9087  1.0789
 6053TIP3    H239719   1.043   3.521   7.881  0.2820 -1.3438  1.2420
 6054TIP3   OH239720   1.499   2.754   1.339  0.4760 -0.1929  0.1933
 6054TIP3    H139721   1.486   2.843   1.372  0.3199 -0.7812  1.8610
 6054TIP3    H239722   1.563   2.716   1.400  0.3211 -1.3002 -0.3233
 6055TIP3   OH239723   3.886   1.499   0.954  0.7291  0.0041  0.4211
 6055TIP3    H139724   3.864   1.519   1.045 -0.6240  0.8562 -0.0663
 6055TIP3    H239725   3.900   1.405   0.953  2.0657  0.1480  1.7540
 6056TIP3   OH239726   6.095   6.071   1.305 -0.0342 -0.2931  0.2743
 6056TIP3    H139727   6.001   6.089   1.317 -0.0678 -0.8396  0.8626
 6056TIP3    H239728   6.098   5.982   1.269  0.2387 -0.0264 -0.3879
 6057TIP3   OH239729   3.083   3.118   1.414  0.4624  0.4811 -0.0041
 6057TIP3    H139730   3.044   3.200   1.447 -0.0663  0.5165 -0.7008
 6057TIP3    H239731   3.058   3.115   1.322  0.9864 -0.1757 -0.1302
 6058TIP3   OH239732   3.425   0.171   8.361 -0.6465 -0.0127  0.1088
 6058TIP3    H139733   3.388   0.085   8.340 -1.0961 -0.2103  1.5570
 6058TIP3    H239734   3.428   0.218   8.277  1.1403 -1.9832 -1.0253
 6059TIP3   OH239735   5.008   4.538   0.590  0.6414  0.1746 -0.2111
 6059TIP3    H139736   5.021   4.462   0.533 -0.2230  0.4787 -0.8234
 6059TIP3    H239737   4.931   4.517   0.643  0.8551  0.3085  0.1631
 6060TIP3   OH239738   1.261   0.970   1.797 -0.2566 -0.2425 -0.1724
 6060TIP3    H139739   1.274   0.974   1.892 -0.0533 -0.8365 -0.1673
 6060TIP3    H239740   1.300   0.886   1.772  0.7502  0.4344 -0.9480
 6061TIP3   OH239741   4.689   2.066   2.297  0.0182 -0.4802 -0.9078
 6061TIP3    H139742   4.695   2.070   2.392  1.0235 -3.5283 -0.7462
 6061TIP3    H239743   4.599   2.040   2.279 -0.8271  2.1771 -1.0083
 6062TIP3   OH239744   5.969   2.208   8.662  0.5726  0.3567 -0.0547
 6062TIP3    H139745   6.060   2.234   8.672  0.7066  0.0569 -0.4652
 6062TIP3    H239746   5.973   2.125   8.615  0.0387  0.9866 -1.2643
 6063TIP3   OH239747   3.046   3.733   7.650  0.2302  0.2451  0.4574
 6063TIP3    H139748   3.126   3.734   7.597  0.2039 -0.5393  0.3921
 6063TIP3    H239749   3.018   3.641   7.649 -1.3756  0.7121 -0.5687
 6064TIP3   OH239750   1.009   3.295   0.896 -0.6085 -0.1618  0.1589
 6064TIP3    H139751   0.925   3.281   0.941 -0.1427  0.7774  1.3901
 6064TIP3    H239752   0.985   3.307   0.804 -1.6786 -1.2988  0.2555
 6065TIP3   OH239753   6.386   0.525   1.439 -0.2667 -0.1079 -0.0055
 6065TIP3    H139754   6.412   0.607   1.396  1.6725 -0.3328  0.6666
 6065TIP3    H239755   6.463   0.498   1.488 -1.5929 -1.2034  1.5709
 6066TIP3   OH239756   0.597   2.206   1.916 -0.3689  0.3144  0.2468
 6066TIP3    H139757   0.524   2.156   1.952 -0.7267  0.9583  0.4325
 6066TIP3    H239758   0.563   2.295   1.907  0.3130  0.5669  0.0968
 6067TIP3   OH239759   0.588   2.282   0.454  0.5189 -0.0041 -0.8953
 6067TIP3    H139760   0.540   2.364   0.444 -0.0514 -0.5276 -2.8972
 6067TIP3    H239761   0.637   2.272   0.372  2.7907 -0.3139  0.4334
 6068TIP3   OH239762   4.665   4.867   8.645 -0.3499  0.2950 -0.2827
 6068TIP3    H139763   4.684   4.856   8.738 -2.1452 -1.9434 -0.0816
 6068TIP3    H239764   4.570   4.869   8.640 -0.3014  0.2035 -2.0774
 6069TIP3   OH239765   2.754   1.869   0.727 -0.1990 -0.1335  0.3963
 6069TIP3    H139766   2.710   1.954   0.734  0.1148 -0.0169  0.9773
 6069TIP3    H239767   2.783   1.850   0.816 -0.7789 -1.1294  0.3786
 6070TIP3   OH239768   2.666   3.517   1.068 -0.1847  0.0280 -0.0860
 6070TIP3    H139769   2.732   3.563   1.120 -0.7256  0.5951  0.1011
 6070TIP3    H239770   2.582   3.550   1.099 -0.5372 -0.0978 -0.8732
 6071TIP3   OH239771   0.186   1.788   1.168  0.8756 -0.0070 -0.4884
 6071TIP3    H139772   0.099   1.747   1.173  0.9506 -0.2527 -1.1049
 6071TIP3    H239773   0.175   1.873   1.211  0.4632 -0.2520 -0.0977
 6072TIP3   OH239774   2.794   4.051   1.069  0.3015  0.1556  0.2100
 6072TIP3    H139775   2.863   4.075   1.131  0.9962 -3.0495  0.9028
 6072TIP3    H239776   2.715   4.046   1.123  0.8083 -2.1251  0.8712
 6073TIP3   OH239777   1.383   4.966   7.676 -0.2078 -0.5994 -0.5344
 6073TIP3    H139778   1.450   5.035   7.677 -0.0028 -0.7968 -0.3498
 6073TIP3    H239779   1.429   4.890   7.639 -0.0943 -0.9668  0.3367
 6074TIP3   OH239780   1.914   6.784   1.002  0.1676 -0.6435  0.0287
 6074TIP3    H139781   1.929   6.819   1.090  1.2666  3.2525 -1.4679
 6074TIP3    H239782   1.879   6.696   1.016 -1.0433  0.2959  4.3500
 6075TIP3   OH239783   3.410   3.320   8.332 -0.5671  0.6769 -0.3172
 6075TIP3    H139784   3.360   3.387   8.286 -2.5834  1.1740  2.3403
 6075TIP3    H239785   3.446   3.364   8.408  0.6881 -0.5955 -0.1310
 6076TIP3   OH239786   6.418   5.128   7.534 -0.3064 -0.2372 -0.1898
 6076TIP3    H139787   6.402   5.107   7.626  1.6589  1.2608  0.5730
 6076TIP3    H239788   6.505   5.168   7.534 -1.4884  2.6957 -2.1960
 6077TIP3   OH239789   5.548   0.377   7.693  0.0551 -0.3106  0.3672
 6077TIP3    H139790   5.491   0.352   7.765 -1.0565 -0.2205 -0.4590
 6077TIP3    H239791   5.558   0.472   7.702  2.4547 -0.6630  2.1883
 6078TIP3   OH239792   3.627   3.481   7.169  0.4899  0.2886 -0.1744
 6078TIP3    H139793   3.640   3.401   7.220 -1.2059  0.0161 -0.1160
 6078TIP3    H239794   3.700   3.481   7.106  0.9411 -0.8966  0.3068
 6079TIP3   OH239795   3.292   5.018   8.022  0.2785 -0.0169  0.9430
 6079TIP3    H139796   3.299   4.943   7.963  2.0153  1.0736 -0.3557
 6079TIP3    H239797   3.363   5.005   8.085  1.2120  0.9768  0.1285
 6080TIP3   OH239798   4.074   1.837   2.468  0.2548 -0.1682 -0.1082
 6080TIP3    H139799   4.165   1.805   2.467  0.5614  0.6564  0.3380
 6080TIP3    H239800   4.027   1.778   2.410  0.9980 -0.8535 -0.0255
 6081TIP3   OH239801   1.940   3.963   2.758  0.5738 -0.1278 -0.0244
 6081TIP3    H139802   1.976   3.906   2.690  1.1112 -0.6098  0.6524
 6081TIP3    H239803   2.015   3.982   2.815  0.1693  0.4279  0.3282
 6082TIP3   OH239804   3.257   5.230   0.211 -0.2103 -0.4202 -0.4527
 6082TIP3    H139805   3.325   5.274   0.261  0.0506 -1.4133  0.0870
 6082TIP3    H239806   3.228   5.158   0.266 -1.4145 -0.2756 -0.8519
 6083TIP3   OH239807   5.336   3.118   1.325 -0.6711  0.2578  0.1150
 6083TIP3    H139808   5.293   3.057   1.385 -0.2414  0.4725  0.6529
 6083TIP3    H239809   5.342   3.071   1.242 -1.2647 -0.0459  0.2459
 6084TIP3   OH239810   3.366   4.552   0.025 -0.0541 -0.1178  0.1917
 6084TIP3    H139811   3.272   4.566   0.014 -0.2856  0.5347  2.5592
 6084TIP3    H239812   3.384   4.473  -0.025 -2.0266 -0.7199  0.3562
 6085TIP3   OH239813   2.682   4.655   8.780 -0.1367 -0.0281  0.4164
 6085TIP3    H139814   2.643   4.679   8.696 -0.4394  0.1277  0.6011
 6085TIP3    H239815   2.735   4.578   8.760 -0.8020 -0.4445  0.2263
 6086TIP3   OH239816   3.903   4.775   2.931 -0.5535  0.2747  0.2755
 6086TIP3    H139817   3.845   4.726   2.989 -1.2634 -0.8852 -1.3395
 6086TIP3    H239818   3.975   4.803   2.987 -0.5993 -1.8230  1.4822
 6087TIP3   OH239819   2.938   6.221   1.444 -0.3208 -0.4569 -0.1854
 6087TIP3    H139820   2.998   6.220   1.369  0.7137  0.2184  0.6088
 6087TIP3    H239821   2.853   6.240   1.406  0.2583  0.2750 -1.1595
 6088TIP3   OH239822   2.020   3.367   0.092 -0.4149  0.4669 -0.3281
 6088TIP3    H139823   2.045   3.424   0.165  0.3626  0.6621 -0.7374
 6088TIP3    H239824   1.968   3.423   0.035  0.5306  0.8536 -0.8397
 6089TIP3   OH239825   4.991   0.949   7.751  0.4092  0.4936 -0.6672
 6089TIP3    H139826   5.071   0.993   7.722 -0.3432  2.5372  0.1432
 6089TIP3    H239827   4.924   1.017   7.746 -1.0391 -0.8585 -0.2472
 6090TIP3   OH239828   4.253   3.901   1.371 -0.2022 -0.0668  0.0301
 6090TIP3    H139829   4.267   3.960   1.445  0.2978  0.2513 -0.3114
 6090TIP3    H239830   4.273   3.954   1.294 -1.0863 -0.2845 -0.3613
 6091TIP3   OH239831   5.309   0.913   0.824 -0.0994 -0.3409 -0.2655
 6091TIP3    H139832   5.252   0.845   0.788 -1.3584  0.0601  0.8751
 6091TIP3    H239833   5.381   0.920   0.761  0.3579 -3.0634 -0.1675
 6092TIP3   OH239834   3.554   6.233   2.174 -0.4246  0.0291 -0.2066
 6092TIP3    H139835   3.635   6.182   2.186 -0.4275 -0.2550 -1.2881
 6092TIP3    H239836   3.484   6.173   2.199 -0.2999  0.4068  1.1246
 6093TIP3   OH239837   4.798   3.743   2.297 -0.1114  0.2579  0.2446
 6093TIP3    H139838   4.807   3.748   2.202 -1.5666  0.8003  0.1014
 6093TIP3    H239839   4.755   3.658   2.312 -1.4161  0.8855  0.2429
 6094TIP3   OH239840   1.288   2.936   1.125  0.2302  0.4162 -0.1212
 6094TIP3    H139841   1.328   2.998   1.186 -2.5055  2.6706 -0.3941
 6094TIP3    H239842   1.275   2.987   1.045 -1.2829 -0.7910 -0.6809
 6095TIP3   OH239843   4.449   4.719   8.387 -0.0335  0.3641  0.3689
 6095TIP3    H139844   4.428   4.778   8.460  0.2193  1.2504 -0.2689
 6095TIP3    H239845   4.383   4.649   8.394 -0.9692  1.2357  0.5479
 6096TIP3   OH239846   0.556   0.996   0.718  0.3261 -0.0771  0.0547
 6096TIP3    H139847   0.637   1.045   0.725  0.4879 -0.2792 -0.3812
 6096TIP3    H239848   0.493   1.058   0.681  0.3183  0.0320  0.2470
 6097TIP3   OH239849   0.893   4.943   0.332 -0.3319 -1.2154  0.4931
 6097TIP3    H139850   0.807   4.968   0.299 -0.1990  0.3228  1.2021
 6097TIP3    H239851   0.948   4.936   0.253 -0.8496 -1.1129  0.1207
 6098TIP3   OH239852   2.790   0.121   7.130  0.0851 -0.0941 -0.3467
 6098TIP3    H139853   2.879   0.146   7.104  0.2343  0.2864  0.5117
 6098TIP3    H239854   2.736   0.144   7.055  0.7094 -0.3547 -0.8927
 6099TIP3   OH239855   4.814   1.696   0.387 -0.4951  0.1815  0.0192
 6099TIP3    H139856   4.849   1.642   0.316 -0.8672 -1.2915  0.9112
 6099TIP3    H239857   4.719   1.689   0.377 -0.5493  0.8751  0.0089
 6100TIP3   OH239858   1.840   5.434   2.362 -0.1302 -0.3176  0.3116
 6100TIP3    H139859   1.913   5.449   2.422 -1.6525  2.6291  1.6379
 6100TIP3    H239860   1.762   5.434   2.418 -1.4596  0.5091 -1.4349
 6101TIP3   OH239861   4.402   3.617   2.793  0.0937  0.5964  0.3256
 6101TIP3    H139862   4.350   3.569   2.856  0.3009  1.5959  1.2917
 6101TIP3    H239863   4.408   3.559   2.717 -0.2217 -0.5967  1.1875
 6102TIP3   OH239864   5.259   6.795   0.066  0.1404 -0.3294 -0.2216
 6102TIP3    H139865   5.169   6.818   0.046  0.3664 -0.0463 -0.9703
 6102TIP3    H239866   5.310   6.872   0.041  0.3886  0.4102  2.3031
 6103TIP3   OH239867   2.384   6.709   0.458  0.3965 -0.1244  0.0625
 6103TIP3    H139868   2.417   6.717   0.369  1.2530  1.8553  0.5218
 6103TIP3    H239869   2.319   6.639   0.453 -1.7190  1.8275 -2.7725
 6104TIP3   OH239870   1.316   4.185   7.160 -0.5724  0.2691 -0.2661
 6104TIP3    H139871   1.221   4.170   7.170 -0.7183  1.6852  0.7480
 6104TIP3    H239872   1.324   4.238   7.081 -0.2733 -2.5946 -2.3293
 6105TIP3   OH239873   6.444   2.005   8.360  0.3224  0.0484 -0.3378
 6105TIP3    H139874   6.458   1.951   8.438  1.4113  0.0904 -0.4894
 6105TIP3    H239875   6.458   2.095   8.390  0.0140  0.1252 -0.4211
 6106TIP3   OH239876   5.010   0.981   0.669  0.4154 -0.0930 -0.2332
 6106TIP3    H139877   5.085   1.030   0.636 -0.5749  1.2707 -0.5370
 6106TIP3    H239878   4.978   0.931   0.594 -0.4152  1.1976 -0.7778
 6107TIP3   OH239879   2.100   2.135   1.743 -0.1890  0.7139 -0.3705
 6107TIP3    H139880   2.127   2.065   1.803 -1.8958 -0.4249 -0.8472
 6107TIP3    H239881   2.089   2.091   1.659 -1.1123  1.5907 -0.7299
 6108TIP3   OH239882   3.217   5.553   0.166 -0.3154  0.0979  0.2824
 6108TIP3    H139883   3.188   5.540   0.257  0.8053 -0.2976  0.5967
 6108TIP3    H239884   3.162   5.494   0.115 -1.6289  1.0227  0.5600
 6109TIP3   OH239885   6.641   1.120   7.667 -0.2335  0.3791 -0.0757
 6109TIP3    H139886   6.688   1.149   7.589  1.3538 -1.2352  0.2001
 6109TIP3    H239887   6.664   1.185   7.734 -0.9536  1.3208 -0.7105
 6110TIP3   OH239888   5.195   6.115   0.535  0.3022 -0.4733  0.5547
 6110TIP3    H139889   5.192   6.041   0.475 -1.4027  0.3402 -0.4310
 6110TIP3    H239890   5.170   6.078   0.620  2.4642 -1.5722  0.7956
 6111TIP3   OH239891   1.572   4.391   0.071 -0.0347  0.4809  0.0024
 6111TIP3    H139892   1.570   4.476   0.116 -0.7889 -0.8722  2.7703
 6111TIP3    H239893   1.546   4.411  -0.019 -1.0667  3.0560  0.7696
 6112TIP3   OH239894   0.850   4.180   0.573  0.1543  0.1965  0.8551
 6112TIP3    H139895   0.857   4.141   0.485 -1.5519 -0.3457  0.9328
 6112TIP3    H239896   0.855   4.274   0.558  1.0055  0.0777  0.3062
 6113TIP3   OH239897   2.815   0.765   1.507 -0.2591  0.3720  0.2851
 6113TIP3    H139898   2.753   0.722   1.448  0.4395 -0.0957 -0.1294
 6113TIP3    H239899   2.762   0.794   1.580 -0.8454 -0.8098  0.3611
 6114TIP3   OH239900   5.278   3.784   0.880 -0.4741 -0.2902 -0.5417
 6114TIP3    H139901   5.236   3.835   0.950  2.8994  0.6800  0.9848
 6114TIP3    H239902   5.215   3.785   0.808 -3.0946  0.7746  1.6104
 6115TIP3   OH239903   6.180   3.428   1.104  0.2994  0.4318  0.0880
 6115TIP3    H139904   6.253   3.401   1.159  1.1183 -2.0911 -2.0526
 6115TIP3    H239905   6.218   3.437   1.017 -1.3608  2.2840 -0.5367
 6116TIP3   OH239906   0.049   0.345   8.084  0.2084 -0.1577  0.7992
 6116TIP3    H139907   0.097   0.397   8.020  1.4124 -1.0775  0.9155
 6116TIP3    H239908   0.115   0.320   8.149 -0.1128 -2.5087  0.2968
 6117TIP3   OH239909   3.618   5.680   8.623 -0.6251 -0.2379 -0.2213
 6117TIP3    H139910   3.588   5.752   8.568  0.1994  0.0327 -0.3303
 6117TIP3    H239911   3.541   5.655   8.674 -0.4767  1.9584  1.1848
 6118TIP3   OH239912   2.093   4.314   0.035  0.8595  0.5454 -0.4983
 6118TIP3    H139913   2.153   4.272  -0.027  1.1868 -2.5939  1.6718
 6118TIP3    H239914   2.010   4.318  -0.012  1.6634  0.6476 -1.9869
 6119TIP3   OH239915   0.727   4.391   0.374 -0.2175 -0.4168  0.1775
 6119TIP3    H139916   0.768   4.441   0.304  0.4225 -0.3555  0.5946
 6119TIP3    H239917   0.774   4.417   0.454 -0.7929 -0.6488  0.5988
 6120TIP3   OH239918   1.507   2.212   2.054  0.0226 -0.4725  0.3484
 6120TIP3    H139919   1.519   2.195   1.960 -0.3938  0.1631  0.1702
 6120TIP3    H239920   1.413   2.199   2.068 -0.5226  2.3922  0.0073
 6121TIP3   OH239921   0.840   6.543   7.813 -0.0355  0.2997 -0.3415
 6121TIP3    H139922   0.774   6.485   7.775 -1.9010  0.0968  2.7958
 6121TIP3    H239923   0.809   6.632   7.793 -2.4721  0.2665  2.5480
 6122TIP3   OH239924   1.079   6.244   8.658  0.6705 -0.1581  0.0099
 6122TIP3    H139925   1.049   6.161   8.694 -0.3206 -0.1382 -0.7400
 6122TIP3    H239926   1.157   6.265   8.709  0.5975 -1.2511  0.6001
 6123TIP3   OH239927   2.073   1.405   1.246 -0.4451  0.1526  0.0669
 6123TIP3    H139928   2.166   1.422   1.231 -0.5995 -0.5958 -2.0213
 6123TIP3    H239929   2.069   1.377   1.338  1.0579  2.1834  0.8257
 6124TIP3   OH239930   6.022   0.222   0.155 -0.1190 -0.0712  0.0745
 6124TIP3    H139931   5.956   0.286   0.127 -0.0591  0.1843  0.5173
 6124TIP3    H239932   5.971   0.145   0.180 -0.1670 -0.3826 -0.9138
 6125TIP3   OH239933   0.476   4.738   8.092 -0.4330  0.3167 -0.3580
 6125TIP3    H139934   0.391   4.782   8.099 -0.3247  0.3595  0.9530
 6125TIP3    H239935   0.455   4.645   8.096 -0.5170  0.2802 -1.3968
 6126TIP3   OH239936   3.996   2.880   7.644 -0.2444  0.1265 -0.2465
 6126TIP3    H139937   3.914   2.888   7.595  0.2192 -0.3900 -1.1287
 6126TIP3    H239938   3.972   2.833   7.723 -0.5157 -1.5355 -1.2728
 6127TIP3   OH239939   2.280   4.748   8.303 -0.3004  0.3080 -0.7549
 6127TIP3    H139940   2.248   4.733   8.214 -1.4057  2.6026 -0.8400
 6127TIP3    H239941   2.277   4.844   8.313  1.4243  0.2304  1.1772
 6128TIP3   OH239942   1.511   2.833   2.112  0.5721 -0.1578  0.2104
 6128TIP3    H139943   1.545   2.748   2.087  0.0367 -0.0226 -1.0596
 6128TIP3    H239944   1.520   2.887   2.033 -0.1525  0.6296  0.6428
 6129TIP3   OH239945   2.356   5.445   0.734 -0.2533  0.3593  0.0009
 6129TIP3    H139946   2.339   5.398   0.815  2.0052  1.0905  0.9906
 6129TIP3    H239947   2.315   5.530   0.747 -0.4465  0.2516  0.1029
 6130TIP3   OH239948   0.729   0.221   8.331  0.2609  0.1330 -0.2306
 6130TIP3    H139949   0.822   0.237   8.321  0.3912 -0.9197 -0.8197
 6130TIP3    H239950   0.701   0.281   8.401  1.1020  1.3889 -0.9365
 6131TIP3   OH239951   2.978   2.974   6.823  0.5804  0.2870 -0.4042
 6131TIP3    H139952   2.918   2.903   6.800  0.6279  0.7499 -2.1275
 6131TIP3    H239953   2.953   3.000   6.911 -1.4372  0.1382 -0.8930
 6132TIP3   OH239954   4.294   2.463   1.616  0.1460  0.3515  0.0480
 6132TIP3    H139955   4.382   2.481   1.585 -0.3392 -0.5855 -2.0572
 6132TIP3    H239956   4.299   2.374   1.651 -0.0883  0.0581 -0.6526
 6133TIP3   OH239957   6.023   4.917   8.263 -0.0118 -0.2738 -0.2683
 6133TIP3    H139958   6.086   4.846   8.250 -0.2359 -0.7669  1.2144
 6133TIP3    H239959   6.064   4.993   8.221  1.9386 -0.3964  1.2977
 6134TIP3   OH239960   6.148   1.127   1.960  0.0538 -0.2060 -0.5316
 6134TIP3    H139961   6.201   1.149   2.037 -1.3687  2.4154 -0.1624
 6134TIP3    H239962   6.166   1.199   1.899 -1.1922 -0.5791 -1.3690
 6135TIP3   OH239963   6.221   5.353   1.224  0.0721  0.6565  0.2655
 6135TIP3    H139964   6.279   5.284   1.257 -0.5935  0.7221  1.6665
 6135TIP3    H239965   6.177   5.387   1.302 -1.5970  0.8440 -0.6916
 6136TIP3   OH239966   3.713   1.196   1.088  0.5195 -0.2651 -0.0905
 6136TIP3    H139967   3.665   1.278   1.089 -0.5367 -0.8669  0.1743
 6136TIP3    H239968   3.805   1.222   1.084  0.2580  0.9315  1.1550
 6137TIP3   OH239969   2.112   1.849   1.606 -0.5236 -0.1756 -0.1952
 6137TIP3    H139970   2.075   1.780   1.550 -0.0945 -0.8904  0.3836
 6137TIP3    H239971   2.202   1.821   1.621 -0.0644  0.9900 -0.6864
 6138TIP3   OH239972   4.333   5.175   2.481  0.5734  0.0859 -0.0245
 6138TIP3    H139973   4.396   5.134   2.541 -1.0170 -2.4651  0.0261
 6138TIP3    H239974   4.385   5.193   2.402  1.6481 -0.7975  0.4458
 6139TIP3   OH239975   4.002   2.619   3.303 -0.2222  0.0708 -0.1570
 6139TIP3    H139976   4.009   2.676   3.226 -0.2098 -0.0654 -0.2556
 6139TIP3    H239977   3.911   2.628   3.331 -0.1078  0.4839  0.0901
 6140TIP3   OH239978   5.545   6.647   2.568 -0.2362 -0.3214 -0.4571
 6140TIP3    H139979   5.629   6.602   2.558 -0.1079 -0.0490 -0.6233
 6140TIP3    H239980   5.479   6.578   2.564 -0.0566 -0.4635 -0.9662
 6141TIP3   OH239981   1.325   0.230   2.028 -0.2485 -0.3836 -0.3642
 6141TIP3    H139982   1.415   0.217   2.000 -0.1417 -1.8774  0.5495
 6141TIP3    H239983   1.318   0.324   2.045  1.4101 -0.3800  0.4255
 6142TIP3   OH239984   0.060   0.442   8.725  0.1074  0.3372  0.4726
 6142TIP3    H139985   0.147   0.410   8.700 -0.1435  1.3495 -2.0591
 6142TIP3    H239986   0.009   0.362   8.738  0.3975 -0.4126 -2.2314
 6143TIP3   OH239987   6.198   0.568   2.053  0.1744  0.3163  0.3478
 6143TIP3    H139988   6.147   0.625   1.995  1.0312  0.7099 -0.0496
 6143TIP3    H239989   6.254   0.628   2.102  2.7725 -0.2507 -1.7251
 6144TIP3   OH239990   1.337   3.264   1.652  0.1558  0.3634 -0.1139
 6144TIP3    H139991   1.341   3.307   1.566 -0.3100  0.4181 -0.1145
 6144TIP3    H239992   1.317   3.172   1.632 -1.1575  0.6028 -0.0331
 6145TIP3   OH239993   3.771   3.008   0.256 -0.1561  0.0473  0.1971
 6145TIP3    H139994   3.751   3.065   0.331 -2.3680 -0.9402  0.4641
 6145TIP3    H239995   3.822   3.062   0.197  0.5305  1.2756  1.8412
 6146TIP3   OH239996   0.702   2.315   1.296  0.6105 -0.0852  0.1821
 6146TIP3    H139997   0.791   2.351   1.285  1.4213 -1.7663  0.9065
 6146TIP3    H239998   0.703   2.274   1.382 -1.2672  0.8527  0.6878
 6147TIP3   OH239999   1.081   0.058   1.307 -0.3279 -0.1730 -0.5877
 6147TIP3    H140000   0.999   0.099   1.280 -0.5237 -0.4848 -0.4765
 6147TIP3    H240001   1.113   0.113   1.379  0.2636  0.7392 -1.5104
 6148TIP3   OH240002   0.267   2.426   7.975 -0.2704  0.5815 -0.6121
 6148TIP3    H140003   0.322   2.502   7.951 -0.0861  0.2332 -1.3226
 6148TIP3    H240004   0.266   2.372   7.896 -0.3947 -0.1664 -0.1022
 6149TIP3   OH240005   3.083   0.462   2.283  0.0439 -0.2105 -0.4958
 6149TIP3    H140006   3.071   0.534   2.221  0.1052 -1.2390 -1.7385
 6149TIP3    H240007   3.017   0.478   2.351 -1.0880  0.1099 -1.6326
 6150TIP3   OH240008   3.513   2.858   8.722  0.4274  0.3390 -0.3002
 6150TIP3    H140009   3.535   2.863   8.629  0.8000 -0.3135 -0.2559
 6150TIP3    H240010   3.427   2.817   8.724  0.9198 -0.7508 -0.3278
 6151TIP3   OH240011   1.008   3.727   7.668  0.2061 -0.2494  0.2219
 6151TIP3    H140012   1.095   3.762   7.682  0.9180 -0.4831 -2.8116
 6151TIP3    H240013   0.949   3.801   7.685  1.3766  1.2836 -1.8866
 6152TIP3   OH240014   1.915   5.217   1.151  0.2360  0.1682  0.5287
 6152TIP3    H140015   1.920   5.125   1.177  0.1174  0.0038 -0.0166
 6152TIP3    H240016   1.971   5.263   1.213 -0.5875 -0.1198  1.4989
 6153TIP3   OH240017   4.079   4.788   7.617 -0.3168 -0.3047 -0.2286
 6153TIP3    H140018   4.163   4.742   7.612  1.0380  1.9922 -0.4967
 6153TIP3    H240019   4.103   4.881   7.622 -2.7933  0.3543  2.2074
 6154TIP3   OH240020   5.295   4.795   1.088  0.2830  0.1977  0.0224
 6154TIP3    H140021   5.307   4.700   1.078 -0.1647  0.1548 -0.1250
 6154TIP3    H240022   5.263   4.805   1.177 -0.2075  0.1575 -0.1469
 6155TIP3   OH240023   2.383   6.208   1.399  0.0682  0.9742 -0.1905
 6155TIP3    H140024   2.348   6.119   1.408  0.5286  0.7494 -0.5501
 6155TIP3    H240025   2.391   6.220   1.305 -2.0280  2.2229 -0.2657
 6156TIP3   OH240026   5.732   1.484   7.849  0.4566 -0.1265 -0.1422
 6156TIP3    H140027   5.824   1.461   7.841  0.1227 -1.4040 -0.4801
 6156TIP3    H240028   5.712   1.530   7.767  0.6297 -0.4139 -0.3461
 6157TIP3   OH240029   5.042   5.876   0.001 -0.4643  0.7154  0.0703
 6157TIP3    H140030   5.111   5.811   0.016 -0.0546  0.6903 -1.6588
 6157TIP3    H240031   4.993   5.879   0.083  1.3997  0.5070  1.2565
 6158TIP3   OH240032   4.587   2.344   1.956 -0.1601  0.2231  0.4973
 6158TIP3    H140033   4.567   2.432   1.923  1.8488 -0.3253 -2.5884
 6158TIP3    H240034   4.658   2.312   1.900 -0.0933 -3.0060  2.1523
 6159TIP3   OH240035   2.964   1.596   6.850 -0.4493 -0.6463 -0.3865
 6159TIP3    H140036   2.935   1.561   6.934 -0.6815  1.6377  0.5505
 6159TIP3    H240037   3.058   1.584   6.850 -0.6045 -2.0004 -0.4826
 6160TIP3   OH240038   5.912   1.011   0.604 -0.2125  0.1749 -0.3758
 6160TIP3    H140039   5.818   1.000   0.591 -0.4358 -0.6942  1.6258
 6160TIP3    H240040   5.919   1.094   0.651 -0.0249  0.0024 -0.0989
 6161TIP3   OH240041   3.400   1.944   0.020  0.3781  0.0532 -0.0285
 6161TIP3    H140042   3.493   1.957  -0.001  0.8519 -2.0256  0.5174
 6161TIP3    H240043   3.360   2.030   0.007  2.6435  1.3908  1.1224
 6162TIP3   OH240044   1.529   6.028   0.162  0.5834  0.5177  0.2892
 6162TIP3    H140045   1.602   5.967   0.159 -0.4565 -0.9201  1.9938
 6162TIP3    H240046   1.457   5.982   0.119  0.3626  1.4669 -0.3979
 6163TIP3   OH240047   1.192   1.335   7.362  0.1938  0.7015  0.1687
 6163TIP3    H140048   1.202   1.302   7.273 -0.3576  2.4834 -0.5950
 6163TIP3    H240049   1.276   1.316   7.404  1.2943  1.8300 -1.4265
 6164TIP3   OH240050   3.327   5.761   2.410  0.5212 -0.0955  0.0417
 6164TIP3    H140051   3.256   5.700   2.433 -1.9995  1.5299 -2.6059
 6164TIP3    H240052   3.332   5.822   2.484  0.5784 -1.3872  1.1355
 6165TIP3   OH240053   6.323   5.750   8.149 -0.1658  0.2161 -0.1609
 6165TIP3    H140054   6.297   5.658   8.149  0.1549  0.1182 -1.0624
 6165TIP3    H240055   6.314   5.778   8.058  1.7017  0.5233 -0.2886
 6166TIP3   OH240056   1.698   0.550   1.775 -0.0521  0.4350  0.3092
 6166TIP3    H140057   1.784   0.583   1.752  0.1033 -0.1541  0.0260
 6166TIP3    H240058   1.672   0.495   1.701 -1.3024  1.7530 -0.2889
 6167TIP3   OH240059   2.045   6.307   2.242 -0.3866 -0.5122 -0.0513
 6167TIP3    H140060   2.052   6.402   2.235  0.6948 -0.3894  1.8821
 6167TIP3    H240061   1.958   6.292   2.279  0.5022 -0.0260  2.3889
 6168TIP3   OH240062   5.422   2.363   8.151  0.2739 -0.0484 -0.2237
 6168TIP3    H140063   5.359   2.375   8.079 -0.9682  1.0754  0.9884
 6168TIP3    H240064   5.385   2.413   8.224  1.3698 -1.3453  1.2960
 6169TIP3   OH240065   4.522   5.630   7.163 -0.2128  0.1494  0.5050
 6169TIP3    H140066   4.430   5.612   7.147 -0.1498 -0.6079  0.9698
 6169TIP3    H240067   4.544   5.578   7.240  0.2899  1.2583  1.1507
 6170TIP3   OH240068   2.347   0.237   7.693  0.9127  0.8375 -0.1072
 6170TIP3    H140069   2.337   0.198   7.606  2.1787 -1.2032  0.5738
 6170TIP3    H240070   2.426   0.196   7.729 -0.0198  0.9522  2.3199
 6171TIP3   OH240071   2.832   3.343   7.857  0.0750 -0.3683  0.7566
 6171TIP3    H140072   2.768   3.272   7.858  1.4030 -1.6026  0.7414
 6171TIP3    H240073   2.794   3.409   7.916 -1.6637 -0.6137 -0.0110
 6172TIP3   OH240074   3.168   4.897   0.954 -0.3632 -0.0024 -0.3146
 6172TIP3    H140075   3.138   4.987   0.965 -0.1958  0.0914 -0.6217
 6172TIP3    H240076   3.090   4.847   0.931 -0.4606  0.0573 -0.1173
 6173TIP3   OH240077   1.016   0.455   8.191  0.2369 -0.7281  0.1532
 6173TIP3    H140078   0.985   0.411   8.271  1.7599 -2.0488  0.0595
 6173TIP3    H240079   1.111   0.462   8.202  0.3105  0.3438 -0.9406
 6174TIP3   OH240080   4.110   6.252   2.429  0.1590  0.2638 -0.0008
 6174TIP3    H140081   4.112   6.158   2.448  1.6190  0.1559 -0.4951
 6174TIP3    H240082   4.144   6.294   2.508 -1.8123  0.5300  0.7636
 6175TIP3   OH240083   2.234   4.961   8.525  0.2233 -0.2087 -0.3428
 6175TIP3    H140084   2.237   4.960   8.621 -3.9242 -1.6390 -0.0267
 6175TIP3    H240085   2.228   5.054   8.502 -0.4207  0.0884  0.9431
 6176TIP3   OH240086   5.597   0.235   1.294  0.4745  0.4014  0.2570
 6176TIP3    H140087   5.633   0.207   1.210  0.5908 -0.6189  0.6230
 6176TIP3    H240088   5.502   0.234   1.281  0.5146  1.2295 -0.1471
 6177TIP3   OH240089   1.949   1.634   7.890  0.1670  0.6468 -0.1332
 6177TIP3    H140090   1.907   1.577   7.826 -0.3164  1.0925 -0.2197
 6177TIP3    H240091   2.037   1.648   7.856  0.4667 -0.4693  0.1582
 6178TIP3   OH240092   5.467   0.113   1.754 -0.4361 -0.2336  0.0293
 6178TIP3    H140093   5.530   0.129   1.684 -0.0141  0.1438  0.4817
 6178TIP3    H240094   5.383   0.141   1.718 -0.3885 -0.9708 -0.6686
 6179TIP3   OH240095   1.300   5.830   0.806 -0.1331 -0.0170  0.0584
 6179TIP3    H140096   1.369   5.778   0.766  1.6050  1.5583  0.8679
 6179TIP3    H240097   1.328   5.921   0.794 -1.9553  0.6795  0.6323
 6180TIP3   OH240098   5.995   3.146   0.468 -0.4162  0.2592  0.0953
 6180TIP3    H140099   5.982   3.195   0.387  1.4927  3.0192  1.3458
 6180TIP3    H240100   5.912   3.154   0.515 -0.5909  1.0489 -0.3452
 6181TIP3   OH240101   3.808   3.304   7.952 -0.6349 -0.2883 -0.5036
 6181TIP3    H140102   3.722   3.284   7.989 -2.0075  0.8383 -2.8626
 6181TIP3    H240103   3.836   3.384   7.996 -1.0938 -0.3005 -0.1903
 6182TIP3   OH240104   2.268   6.449   1.450  0.1985  0.7673 -0.4500
 6182TIP3    H140105   2.218   6.410   1.379 -0.3472  2.1754 -0.8743
 6182TIP3    H240106   2.350   6.400   1.452  0.9638  1.7590 -3.2024
 6183TIP3   OH240107   6.697   0.827   0.252  0.0627 -0.4500 -0.0022
 6183TIP3    H140108   6.699   0.749   0.307 -0.6335 -0.4249  0.0609
 6183TIP3    H240109   6.727   0.898   0.309 -1.6405 -0.2305  0.6812
 6184TIP3   OH240110   3.825   6.571   7.623  0.3200  0.2622  0.3966
 6184TIP3    H140111   3.820   6.575   7.527  2.2719  0.4320  0.2759
 6184TIP3    H240112   3.740   6.604   7.652  0.1514  1.4421 -1.2568
 6185TIP3   OH240113   5.355   4.335   8.709 -0.2772  0.1162 -0.0421
 6185TIP3    H140114   5.383   4.323   8.618 -0.3985 -1.9243  0.1480
 6185TIP3    H240115   5.436   4.352   8.757  0.0272 -0.6205 -0.2746
 6186TIP3   OH240116   0.933   2.921   7.777  0.0389 -0.5632  0.0961
 6186TIP3    H140117   0.925   2.834   7.818  0.2548 -0.0732  1.2260
 6186TIP3    H240118   0.977   2.904   7.694  1.1644 -1.4148  0.8267
 6187TIP3   OH240119   1.130   5.168   1.760  0.2002 -0.2726 -0.3161
 6187TIP3    H140120   1.137   5.104   1.689 -2.3450  0.8896 -1.7574
 6187TIP3    H240121   1.094   5.118   1.833 -3.0024 -0.3863 -1.8218
 6188TIP3   OH240122   6.537   5.850   6.679  0.3568 -0.2464  0.1732
 6188TIP3    H140123   6.562   5.922   6.738  0.3777  1.3121 -1.6248
 6188TIP3    H240124   6.541   5.772   6.734  0.9460  1.0295  2.0755
 6189TIP3   OH240125   0.976   3.030   8.410 -0.5977  0.2233  0.2353
 6189TIP3    H140126   1.060   3.052   8.371 -1.1444  2.7253  0.3224
 6189TIP3    H240127   0.913   3.042   8.339 -0.8268 -3.0299 -0.2517
 6190TIP3   OH240128   4.973   5.074   6.774 -0.4262 -0.4924  0.0401
 6190TIP3    H140129   4.957   5.149   6.831  0.3129 -0.0068 -0.3770
 6190TIP3    H240130   4.993   5.113   6.689 -1.5308 -1.2050 -0.5687
 6191TIP3   OH240131   1.108   0.368   7.621 -0.0092 -0.3027  0.6483
 6191TIP3    H140132   1.149   0.454   7.620  0.3393 -0.4711  0.1783
 6191TIP3    H240133   1.169   0.312   7.670  0.9233 -0.8272 -1.0129
 6192TIP3   OH240134   4.822   4.837   0.038  0.0211 -0.1355 -0.5330
 6192TIP3    H140135   4.780   4.901   0.096 -1.1476 -1.3591  0.0199
 6192TIP3    H240136   4.847   4.765   0.096  1.4804 -0.1283 -1.1121
 6193TIP3   OH240137   4.518   4.046   0.242  0.2931  0.1017  0.6961
 6193TIP3    H140138   4.571   3.978   0.284 -1.8246 -2.7504 -0.8592
 6193TIP3    H240139   4.434   4.042   0.289  0.6196  3.0214  1.7308
 6194TIP3   OH240140   6.151   6.769   1.284  0.0315  0.1692 -0.3813
 6194TIP3    H140141   6.077   6.830   1.274 -0.4400 -0.5301 -1.2730
 6194TIP3    H240142   6.111   6.683   1.287  0.6521 -0.1066  1.4674
 6195TIP3   OH240143   6.564   0.277   7.694 -0.1949  0.2081  0.3479
 6195TIP3    H140144   6.544   0.369   7.680 -1.3579  0.1921  1.6450
 6195TIP3    H240145   6.645   0.261   7.645 -0.6297  1.6070 -0.8740
 6196TIP3   OH240146   6.504   6.231   8.212 -0.1533 -0.1908  0.6137
 6196TIP3    H140147   6.549   6.233   8.296 -0.5694 -0.4415  0.8504
 6196TIP3    H240148   6.452   6.150   8.215 -0.9078  0.2810  0.5130
 6197TIP3   OH240149   5.025   4.747   2.050  0.0737 -0.3608 -0.1541
 6197TIP3    H140150   4.993   4.837   2.040  0.1604 -0.3910 -0.7583
 6197TIP3    H240151   5.107   4.757   2.099 -0.4259 -0.2065  0.6531
 6198TIP3   OH240152   5.729   5.643   1.648 -0.0071  0.5695  0.0226
 6198TIP3    H140153   5.673   5.659   1.724  1.0433  0.5046  0.8285
 6198TIP3    H240154   5.701   5.558   1.614  0.0427  0.2277  0.8190
 6199TIP3   OH240155   3.989   2.602   1.779 -0.0584  0.0001  0.6009
 6199TIP3    H140156   3.977   2.601   1.684 -0.9449  1.1250  0.6723
 6199TIP3    H240157   4.074   2.643   1.793  0.2291 -0.4888  0.2794
 6200TIP3   OH240158   2.402   0.208   8.430 -0.7560 -0.1901 -0.1656
 6200TIP3    H140159   2.391   0.156   8.510  0.5573 -0.2198  0.0133
 6200TIP3    H240160   2.360   0.292   8.450  2.2239  1.0066  1.8031
 6201TIP3   OH240161   1.474   1.412   8.345  0.5907  0.2510 -0.4650
 6201TIP3    H140162   1.408   1.427   8.413  0.8876  3.5612 -0.7431
 6201TIP3    H240163   1.548   1.466   8.372  1.2700  0.4891 -2.6466
 6202TIP3   OH240164   2.964   0.725   0.493  0.0446  0.3159 -0.4003
 6202TIP3    H140165   2.877   0.764   0.482  0.5926  1.8436  0.3750
 6202TIP3    H240166   3.022   0.800   0.508  1.0756 -0.7934  1.6691
 6203TIP3   OH240167   6.800   5.137   0.297 -0.2082  0.2534  0.1010
 6203TIP3    H140168   6.771   5.105   0.211 -0.1972 -3.0927  1.1848
 6203TIP3    H240169   6.769   5.071   0.358  0.6194  2.0415  2.6000
 6204TIP3   OH240170   4.047   3.207   1.892  0.1710  0.1444  0.3662
 6204TIP3    H140171   4.035   3.119   1.929  2.4674 -0.8140 -0.9143
 6204TIP3    H240172   4.071   3.191   1.801 -0.2104  2.1750 -0.1276
 6205TIP3   OH240173   6.416   4.389   1.617 -0.0688 -0.6447  0.0826
 6205TIP3    H140174   6.327   4.412   1.590 -0.9632 -2.7076  1.0142
 6205TIP3    H240175   6.441   4.458   1.678  0.4962  1.9702 -2.8589
 6206TIP3   OH240176   1.973   5.880   1.326 -0.3477  0.1309  0.7194
 6206TIP3    H140177   1.959   5.793   1.362 -0.5708  0.2414  0.9024
 6206TIP3    H240178   1.905   5.934   1.366 -0.3436  0.3432  0.4443
 6207TIP3   OH240179   4.197   4.272   0.639  0.0371  0.0102 -0.4808
 6207TIP3    H140180   4.219   4.236   0.725  0.4244  1.2905 -0.0327
 6207TIP3    H240181   4.121   4.220   0.611 -1.2477  0.7501  1.4398
 6208TIP3   OH240182   6.131   0.221   8.167 -0.2920  0.3849  0.7932
 6208TIP3    H140183   6.077   0.281   8.115  0.5282 -1.0378 -1.9176
 6208TIP3    H240184   6.204   0.199   8.109  0.8935 -1.0920  2.7286
 6209TIP3   OH240185   5.052   1.884   1.983 -0.0360  0.2391  0.5828
 6209TIP3    H140186   5.009   1.968   1.999 -0.9156 -0.3414  1.3993
 6209TIP3    H240187   5.106   1.870   2.061 -1.9335 -1.1516  1.7395
 6210TIP3   OH240188   1.175   3.079   8.226 -0.2072 -0.0738  0.2971
 6210TIP3    H140189   1.169   3.096   8.132 -0.3526  2.0484  0.6361
 6210TIP3    H240190   1.265   3.052   8.240 -0.3541 -1.0424 -0.5351
 6211TIP3   OH240191   3.823   0.693   2.456  0.2668 -0.0104 -0.1751
 6211TIP3    H140192   3.861   0.611   2.488 -2.0899 -1.1999 -0.1847
 6211TIP3    H240193   3.786   0.671   2.371  0.9948  1.5215 -0.9265
 6212TIP3   OH240194   3.961   6.472   8.809 -0.0046  0.2140  0.6514
 6212TIP3    H140195   4.032   6.504   8.753 -1.2303  0.5535 -0.7882
 6212TIP3    H240196   4.004   6.417   8.874  1.5282 -0.0570 -0.5333
 6213TIP3   OH240197   3.408   3.360   7.486  0.3441  0.1495  0.1262
 6213TIP3    H140198   3.357   3.407   7.420 -1.3997 -1.0529  0.5499
 6213TIP3    H240199   3.455   3.293   7.436 -1.4668 -1.1702  0.1207
 6214TIP3   OH240200   4.549   3.010   1.523  0.0413  0.5937 -0.4617
 6214TIP3    H140201   4.612   3.079   1.543  0.7569  0.3938 -1.9149
 6214TIP3    H240202   4.572   2.981   1.435 -0.8506 -0.8409 -0.2586
 6215TIP3   OH240203   0.156   2.419   1.854 -0.2396  0.2284 -0.0888
 6215TIP3    H140204   0.233   2.427   1.910 -0.9354  0.6122  0.8417
 6215TIP3    H240205   0.091   2.374   1.909 -0.4022 -0.8729 -1.1456
 6216TIP3   OH240206   0.652   3.836   3.072  0.3942  0.5421  0.4094
 6216TIP3    H140207   0.579   3.849   3.011 -0.8205  0.7478  1.8485
 6216TIP3    H240208   0.701   3.918   3.068 -0.3417  1.0038  0.5384
 6217TIP3   OH240209   0.489   5.494   7.870  0.0160  0.6258  0.1888
 6217TIP3    H140210   0.562   5.537   7.826 -1.8554  2.7524 -1.0456
 6217TIP3    H240211   0.438   5.565   7.908 -2.0371 -0.6804  0.0110
 6218TIP3   OH240212   4.723   0.479   0.509 -0.3958  0.5283  0.3497
 6218TIP3    H140213   4.746   0.391   0.539  0.6859  0.5473 -0.3590
 6218TIP3    H240214   4.674   0.465   0.428 -0.5173  0.5683  0.4162
 6219TIP3   OH240215   3.185   5.652   1.413 -0.2297 -0.1815 -0.2894
 6219TIP3    H140216   3.091   5.636   1.401 -0.3615  0.5885 -0.3250
 6219TIP3    H240217   3.206   5.718   1.348  0.1830  0.1724  0.1978
 6220TIP3   OH240218   2.014   1.391   0.038  0.4340 -0.2492  0.2448
 6220TIP3    H140219   2.018   1.362  -0.053  1.0899  0.0180  0.1755
 6220TIP3    H240220   1.978   1.480   0.033  1.1066  0.0307  0.1660
 6221TIP3   OH240221   5.662   6.361   7.536  0.2130  0.3688 -0.0772
 6221TIP3    H140222   5.755   6.354   7.559  0.6942 -0.6365 -2.0894
 6221TIP3    H240223   5.623   6.282   7.574  0.8036 -0.7543 -1.6812
 6222TIP3   OH240224   6.191   4.984   1.278  0.2016 -0.1306 -0.5273
 6222TIP3    H140225   6.264   5.008   1.220  0.5660 -0.0629 -0.0440
 6222TIP3    H240226   6.213   4.897   1.310  0.1632 -0.0320 -0.2325
 6223TIP3   OH240227   3.637   1.555   1.885  0.3657 -0.3859  0.1830
 6223TIP3    H140228   3.732   1.552   1.877  0.2968 -0.5762 -0.6096
 6223TIP3    H240229   3.618   1.497   1.959  0.7526 -1.6975 -0.7146
 6224TIP3   OH240230   4.375   2.020   1.321 -0.7897  0.2230 -0.2491
 6224TIP3    H140231   4.417   1.942   1.285 -1.3678 -0.5691  0.7363
 6224TIP3    H240232   4.442   2.060   1.376 -1.5435 -1.6603  2.2439
 6225TIP3   OH240233   2.705   5.315   7.917  0.2143  0.5120 -0.5197
 6225TIP3    H140234   2.625   5.285   7.875  0.1334  2.2109 -1.6686
 6225TIP3    H240235   2.758   5.350   7.845  1.2445  1.0083  0.4496
 6226TIP3   OH240236   6.256   3.217   7.780  0.2962 -0.0512 -0.0356
 6226TIP3    H140237   6.245   3.297   7.832 -0.3570 -0.8668  1.1207
 6226TIP3    H240238   6.173   3.171   7.788  0.4803 -0.6109 -1.1320
 6227TIP3   OH240239   5.971   4.546   2.596 -0.0015  0.1774  0.1596
 6227TIP3    H140240   5.911   4.478   2.626  1.2284 -0.6305  0.9072
 6227TIP3    H240241   6.057   4.516   2.626  0.5162  2.3405  1.0349
 6228TIP3   OH240242   5.449   0.172   7.853 -0.0209  0.0438 -0.2025
 6228TIP3    H140243   5.514   0.107   7.825  1.4433  0.7977  1.2702
 6228TIP3    H240244   5.365   0.134   7.828  0.8601 -1.8600 -0.4680
 6229TIP3   OH240245   4.954   6.796   1.079  0.3996  0.2191 -0.5000
 6229TIP3    H140246   4.867   6.757   1.089  1.1704 -1.6506 -0.5577
 6229TIP3    H240247   5.011   6.721   1.061  1.9617  1.4462 -0.8703
 6230TIP3   OH240248   1.943   3.985   7.787  0.5737 -0.4060  0.8160
 6230TIP3    H140249   1.892   4.063   7.808  1.6523  0.7487 -0.5863
 6230TIP3    H240250   2.034   4.014   7.797  1.0313 -0.9832 -1.2522
 6231TIP3   OH240251   5.587   4.896   1.805 -0.5856 -0.0723 -0.1075
 6231TIP3    H140252   5.653   4.934   1.746 -0.1234  0.0276  0.4708
 6231TIP3    H240253   5.503   4.922   1.766 -0.2845  0.8768 -0.1523
 6232TIP3   OH240254   6.003   4.426   8.502  0.3122 -0.5965 -0.3465
 6232TIP3    H140255   6.061   4.489   8.543  0.6857 -0.8079 -0.5423
 6232TIP3    H240256   5.948   4.393   8.573 -0.8407  0.9551 -0.4779
 6233TIP3   OH240257   1.482   4.222   2.029  0.3740  0.2450 -0.1128
 6233TIP3    H140258   1.410   4.164   2.057  1.3672 -0.4542  1.0790
 6233TIP3    H240259   1.439   4.306   2.012 -0.8108 -0.2984  0.0410
 6234TIP3   OH240260   4.174   3.115   0.900 -0.2085 -0.1554  0.4131
 6234TIP3    H140261   4.190   3.155   0.814 -0.8799  0.1281  0.4096
 6234TIP3    H240262   4.261   3.087   0.930  0.1300  0.3591 -0.0550
 6235TIP3   OH240263   5.611   6.424   8.194 -0.3722 -0.1685 -0.0986
 6235TIP3    H140264   5.537   6.388   8.146  0.8045 -2.2804 -0.4828
 6235TIP3    H240265   5.632   6.506   8.148 -1.8169 -0.0563 -0.5943
 6236TIP3   OH240266   4.054   0.855   7.821 -0.1319  0.0266  0.0300
 6236TIP3    H140267   4.018   0.810   7.897 -2.0470  0.0885 -0.7818
 6236TIP3    H240268   4.103   0.928   7.858 -1.9594  0.7254  1.2130
 6237TIP3   OH240269   5.197   0.732   0.568 -0.1195  0.1612 -0.1858
 6237TIP3    H140270   5.234   0.696   0.488 -2.4695  1.0431 -1.7774
 6237TIP3    H240271   5.108   0.697   0.571  0.0240 -0.1752  2.3045
 6238TIP3   OH240272   2.163   2.057   7.889  0.3360  0.2410 -0.4087
 6238TIP3    H140273   2.177   2.003   7.811 -1.3141 -0.7610 -0.0543
 6238TIP3    H240274   2.111   2.132   7.857  1.0436  0.6822 -0.5517
 6239TIP3   OH240275   1.229   3.434   0.454  0.3029 -1.2934 -0.7450
 6239TIP3    H140276   1.276   3.453   0.373  2.2942 -2.0157  0.1584
 6239TIP3    H240277   1.229   3.517   0.502 -0.1513 -1.0701 -1.1274
 6240TIP3   OH240278   4.077   6.094   0.349  0.0353  0.1381  0.4031
 6240TIP3    H140279   4.161   6.088   0.394  0.8441 -2.1569 -1.1979
 6240TIP3    H240280   4.018   6.037   0.398 -1.1456  2.8934  2.4093
 6241TIP3   OH240281   5.603   1.168   8.619 -0.0506 -0.6162 -0.3958
 6241TIP3    H140282   5.509   1.186   8.615  0.0478  0.3893  0.8682
 6241TIP3    H240283   5.643   1.255   8.625  0.7768 -1.0614  1.3175
 6242TIP3   OH240284   3.845   4.556   2.725 -0.4167  0.5022 -0.2946
 6242TIP3    H140285   3.874   4.489   2.786  0.0270  0.1291 -0.9112
 6242TIP3    H240286   3.888   4.636   2.756 -0.5109  0.3953  0.1160
 6243TIP3   OH240287   2.557   3.648   8.191  0.7044  0.0032  0.2185
 6243TIP3    H140288   2.474   3.636   8.143  0.3563 -0.4794  0.9135
 6243TIP3    H240289   2.529   3.666   8.281  1.3493  0.8818  0.2426
 6244TIP3   OH240290   3.794   4.079   0.899 -0.0578 -0.2260 -0.0710
 6244TIP3    H140291   3.844   4.128   0.964  0.1773  0.0197 -0.4342
 6244TIP3    H240292   3.775   3.995   0.941 -3.0624  1.2105  1.7936
 6245TIP3   OH240293   2.055   4.618   2.393  0.1502  0.1120 -0.8312
 6245TIP3    H140294   2.076   4.692   2.450 -0.6287 -0.5901  0.4130
 6245TIP3    H240295   2.129   4.558   2.403 -0.2898 -0.3084 -0.0191
 6246TIP3   OH240296   1.384   2.287   8.603 -0.3826 -0.0592 -0.1038
 6246TIP3    H140297   1.346   2.213   8.650  0.4268  0.5346  1.5817
 6246TIP3    H240298   1.365   2.363   8.659  0.5989  0.6968 -0.7587
 6247TIP3   OH240299   5.203   5.673   7.964  0.0447  0.1330  0.2353
 6247TIP3    H140300   5.295   5.699   7.960  0.2578 -0.6821 -0.5913
 6247TIP3    H240301   5.194   5.629   8.048  0.9970 -1.7688 -0.5901
 6248TIP3   OH240302   3.729   5.830   2.747 -0.5183  0.3913  0.3265
 6248TIP3    H140303   3.709   5.746   2.706 -0.1627  0.8090 -0.7497
 6248TIP3    H240304   3.650   5.882   2.736 -1.2416 -0.2152  2.2066
 6249TIP3   OH240305   2.915   4.790   0.315  0.2163  0.5354 -0.0339
 6249TIP3    H140306   2.910   4.700   0.347  1.1454  0.2563 -0.6391
 6249TIP3    H240307   2.955   4.783   0.229  2.1122  1.6736  0.6956
 6250TIP3   OH240308   0.621   1.578   0.052  0.0487  0.0654  0.6422
 6250TIP3    H140309   0.629   1.628   0.133 -1.4974 -0.3909  1.1113
 6250TIP3    H240310   0.564   1.505   0.074 -0.5793  0.0418 -0.8928
 6251TIP3   OH240311   2.151   1.387   8.374  0.2344 -0.5614 -0.2065
 6251TIP3    H140312   2.139   1.399   8.280  2.0396  2.8145 -0.1412
 6251TIP3    H240313   2.241   1.357   8.383  0.1031 -0.7616  0.4535
 6252TIP3   OH240314   5.455   5.092   2.495  0.1554  0.3363 -0.3406
 6252TIP3    H140315   5.491   5.074   2.408  0.0547 -1.8338  0.0003
 6252TIP3    H240316   5.528   5.131   2.543  1.3622 -1.7338 -0.3814
 6253TIP3   OH240317   3.535   0.066   2.277 -0.1518 -0.0144 -0.8483
 6253TIP3    H140318   3.489   0.122   2.214 -1.4670 -0.2361 -0.1274
 6253TIP3    H240319   3.487   0.079   2.359  1.8519  0.6961  0.2745
 6254TIP3   OH240320   0.723   2.867   8.102 -0.0363 -0.0886  0.3421
 6254TIP3    H140321   0.694   2.796   8.045 -0.0627 -0.3536  0.6829
 6254TIP3    H240322   0.787   2.827   8.160  0.6335  0.3791 -0.0670
 6255TIP3   OH240323   1.315   5.449   2.596  0.2006 -0.2023  0.1781
 6255TIP3    H140324   1.302   5.542   2.615  0.4044 -0.4443  1.6197
 6255TIP3    H240325   1.289   5.404   2.677  2.8531 -1.2163  0.5508
 6256TIP3   OH240326   0.857   6.423   2.307  0.3278 -0.1553  0.4934
 6256TIP3    H140327   0.822   6.363   2.372  0.3985  0.7448  1.4081
 6256TIP3    H240328   0.929   6.467   2.353  0.3901  0.4885 -0.2029
 6257TIP3   OH240329   3.689   1.526   0.581  0.1026  0.2675  0.0350
 6257TIP3    H140330   3.625   1.595   0.598 -0.3331 -0.1302  0.0143
 6257TIP3    H240331   3.769   1.556   0.625  0.1366  1.1377 -0.5884
 6258TIP3   OH240332   2.646   1.109   8.603  0.0348 -0.2299  0.5378
 6258TIP3    H140333   2.702   1.186   8.590  0.0224 -0.5026 -1.4999
 6258TIP3    H240334   2.569   1.142   8.648 -0.4312  1.1863 -1.2024
 6259TIP3   OH240335   3.656   0.177   1.475 -0.0427 -0.1829 -0.5073
 6259TIP3    H140336   3.565   0.203   1.460 -1.1359 -3.3105 -0.0082
 6259TIP3    H240337   3.653   0.082   1.487  3.2084 -0.3157  0.3695
 6260TIP3   OH240338   2.351   3.348   2.241  0.5946  0.6259 -0.6522
 6260TIP3    H140339   2.403   3.347   2.321  1.7170  1.0069 -1.3402
 6260TIP3    H240340   2.399   3.408   2.183 -1.2923  1.9716 -0.8978
 6261TIP3   OH240341   3.952   4.085   7.810 -0.0359  0.3609 -0.6483
 6261TIP3    H140342   3.906   4.063   7.730 -2.6633 -0.5568  0.9771
 6261TIP3    H240343   3.936   4.010   7.868  1.0342  1.3568  1.0087
 6262TIP3   OH240344   3.849   6.578   1.281  0.2641 -0.2064  0.8837
 6262TIP3    H140345   3.812   6.540   1.361 -0.5479 -1.8300 -0.2095
 6262TIP3    H240346   3.774   6.613   1.233  0.6035 -0.2278  0.3267
 6263TIP3   OH240347   1.993   4.888   8.448 -0.3408 -0.4611  0.2944
 6263TIP3    H140348   2.015   4.939   8.370 -0.9745 -1.9348 -0.8999
 6263TIP3    H240349   2.067   4.902   8.507  0.3267  0.4167 -0.7001
 6264TIP3   OH240350   6.032   0.379   0.492  0.3490 -0.3668 -0.7759
 6264TIP3    H140351   6.040   0.464   0.449 -0.4452  0.4277  0.5661
 6264TIP3    H240352   6.103   0.327   0.455 -0.0564  0.3864 -2.7101
 6265TIP3   OH240353   3.353   1.060   0.405  0.2554 -0.2768 -0.2170
 6265TIP3    H140354   3.412   1.069   0.330 -1.4769  1.7746 -1.4734
 6265TIP3    H240355   3.388   0.986   0.455  2.0838 -1.0771 -2.4915
 6266TIP3   OH240356   6.562   1.102   8.213  0.5372 -0.1114  0.2431
 6266TIP3    H140357   6.508   1.134   8.285  2.1298 -0.5374  1.6667
 6266TIP3    H240358   6.501   1.098   8.139 -0.7006  2.1800  1.0257
 6267TIP3   OH240359   1.499   2.124   8.161  0.3057 -0.3171 -0.1529
 6267TIP3    H140360   1.566   2.117   8.230 -0.4131  0.0939  0.6083
 6267TIP3    H240361   1.430   2.177   8.201  0.8202  1.8289 -1.9567
 6268TIP3   OH240362   6.004   6.340   0.583 -0.2260 -0.7969 -0.1326
 6268TIP3    H140363   6.036   6.349   0.493  2.0564  0.4348  0.7171
 6268TIP3    H240364   6.047   6.261   0.616  2.1191  0.7857  0.9681
 6269TIP3   OH240365   1.692   5.304   8.704 -0.7587 -0.2046 -0.1075
 6269TIP3    H140366   1.627   5.235   8.697 -1.0767  0.0654  0.1960
 6269TIP3    H240367   1.684   5.353   8.622  0.2327 -1.1827 -0.8300
 6270TIP3   OH240368   0.086   4.843   7.835 -0.1954  0.1073 -0.4608
 6270TIP3    H140369   0.075   4.936   7.817 -2.8151 -0.0394  0.0346
 6270TIP3    H240370   0.137   4.840   7.916  0.1712  1.0826 -0.6453
 6271TIP3   OH240371   3.552   4.114   7.841 -0.1853  0.4524 -0.0660
 6271TIP3    H140372   3.517   4.197   7.810 -1.9335 -0.2859 -0.1676
 6271TIP3    H240373   3.534   4.113   7.935 -2.3860 -0.7983 -0.4501
 6272TIP3   OH240374   0.932   4.714   8.274  0.0651 -0.5005 -0.0135
 6272TIP3    H140375   0.879   4.787   8.240  1.0994  0.6360  0.7544
 6272TIP3    H240376   0.979   4.681   8.197 -0.3817 -0.3410 -0.3582
 6273TIP3   OH240377   3.939   0.419   0.471 -0.0990  0.0217  0.1375
 6273TIP3    H140378   4.025   0.460   0.476  0.0343  0.3303 -2.9610
 6273TIP3    H240379   3.956   0.326   0.488  0.7986  0.1281 -0.1357
 6274TIP3   OH240380   5.245   1.795   2.187  0.0530  0.0927 -0.3270
 6274TIP3    H140381   5.246   1.830   2.276 -1.7087  0.0988 -0.2815
 6274TIP3    H240382   5.221   1.703   2.198 -0.6680  0.2114 -0.8154
 6275TIP3   OH240383   5.930   3.376   2.236  0.3078 -0.3011  0.6426
 6275TIP3    H140384   5.997   3.311   2.215 -0.9082 -0.7278 -2.3478
 6275TIP3    H240385   5.852   3.324   2.256 -0.0955  0.2242  0.4475
 6276TIP3   OH240386   6.334   3.940   8.455  0.3025  0.0672  0.2915
 6276TIP3    H140387   6.385   3.861   8.473  1.2593  0.7800  0.7800
 6276TIP3    H240388   6.377   4.008   8.506 -0.5114  0.9047 -0.1272
 6277TIP3   OH240389   3.466   0.601   0.020  0.2119 -0.0101 -0.2187
 6277TIP3    H140390   3.561   0.617   0.020  0.1357  0.4475  0.2476
 6277TIP3    H240391   3.458   0.507   0.003  0.7618 -0.0993 -0.0094
 6278TIP3   OH240392   1.613   3.006   1.521 -0.5968  0.2136 -0.3054
 6278TIP3    H140393   1.617   3.069   1.449 -1.3024  1.3369  0.6066
 6278TIP3    H240394   1.524   3.015   1.555  0.5407  1.8797  2.5790
 6279TIP3   OH240395   1.878   5.265   0.062  0.2174 -0.3796 -0.4514
 6279TIP3    H140396   1.809   5.305   0.009 -0.2544  1.7932  1.5894
 6279TIP3    H240397   1.849   5.176   0.077 -1.7743  0.2482 -0.3154
 6280TIP3   OH240398   4.515   6.346   0.857  0.8238  0.3830 -0.3178
 6280TIP3    H140399   4.600   6.358   0.899  1.8669  1.8386 -2.6851
 6280TIP3    H240400   4.453   6.386   0.918  2.0504  1.0149  0.5670
 6281TIP3   OH240401   6.424   5.924   0.675  0.0559 -0.0094 -0.4653
 6281TIP3    H140402   6.475   5.995   0.636 -0.9516  0.1612 -1.5463
 6281TIP3    H240403   6.410   5.952   0.766  1.7224  0.0012 -0.1749
 6282TIP3   OH240404   2.586   5.565   1.548 -0.3287 -0.1343 -0.3728
 6282TIP3    H140405   2.496   5.565   1.579 -0.5492  0.0838 -0.9914
 6282TIP3    H240406   2.594   5.647   1.499  0.3617  0.0994  0.1226
 6283TIP3   OH240407   0.375   5.081   7.466 -0.0825 -0.1153  0.1132
 6283TIP3    H140408   0.383   4.987   7.486  0.0707 -0.1321 -0.0297
 6283TIP3    H240409   0.370   5.123   7.552  1.3159 -0.1218  0.2170
 6284TIP3   OH240410   4.607   6.173   0.230 -0.2059 -0.0151 -0.3052
 6284TIP3    H140411   4.530   6.228   0.214 -0.1033  0.1695 -0.1569
 6284TIP3    H240412   4.610   6.115   0.153 -0.5757 -0.1207 -0.2445
 6285TIP3   OH240413   2.498   2.336   2.475 -0.0126  0.0045  0.2968
 6285TIP3    H140414   2.569   2.304   2.420 -1.9907 -3.6528 -0.4387
 6285TIP3    H240415   2.523   2.309   2.564 -0.0330 -0.4602  0.1653
 6286TIP3   OH240416   2.517   0.589   0.776  0.6064 -0.5467 -0.2980
 6286TIP3    H140417   2.546   0.499   0.787  0.7796 -0.4484  0.0505
 6286TIP3    H240418   2.592   0.642   0.804  0.3958 -0.2936 -0.2058
 6287TIP3   OH240419   4.227   2.345   0.301 -0.5254  0.2987 -0.0754
 6287TIP3    H140420   4.267   2.292   0.232 -0.0270  0.6684 -0.0822
 6287TIP3    H240421   4.219   2.432   0.262 -0.9066  0.3379  0.0922
 6288TIP3   OH240422   3.432   3.899   2.016  0.8364 -0.0262 -0.3579
 6288TIP3    H140423   3.502   3.835   2.021  0.6293 -0.3667 -1.6138
 6288TIP3    H240424   3.473   3.978   1.982  0.7812  0.0474 -0.2565
 6289TIP3   OH240425   5.201   0.920   7.214 -0.2999 -0.2643  0.0345
 6289TIP3    H140426   5.228   1.005   7.248 -0.1330 -0.2406 -0.1560
 6289TIP3    H240427   5.241   0.915   7.127 -1.0289 -0.1664 -0.3092
 6290TIP3   OH240428   0.006   4.944   8.406  0.4570 -0.3869  0.6480
 6290TIP3    H140429  -0.027   4.987   8.328 -0.3174  0.2253  1.2913
 6290TIP3    H240430  -0.040   4.860   8.408 -2.2159  0.9681  2.2222
 6291TIP3   OH240431   4.636   5.469   7.363 -0.0468  0.1767  0.1677
 6291TIP3    H140432   4.640   5.376   7.384  0.7254  0.0649 -0.4170
 6291TIP3    H240433   4.726   5.499   7.373 -0.4354  1.0606  1.1862
 6292TIP3   OH240434   1.416   4.076   0.147 -0.2824 -0.2858 -0.3725
 6292TIP3    H140435   1.337   4.077   0.093 -0.4619 -2.0582 -0.2150
 6292TIP3    H240436   1.480   4.127   0.098 -0.9150 -0.5417 -1.5114
 6293TIP3   OH240437   2.613   2.629   8.505  0.5291  0.9066 -0.0778
 6293TIP3    H140438   2.686   2.588   8.459  0.6391  1.5993 -0.5286
 6293TIP3    H240439   2.535   2.605   8.454 -0.1023 -2.6272  2.1524
 6294TIP3   OH240440   1.695   1.371   8.737 -0.5503  0.3831 -0.4470
 6294TIP3    H140441   1.664   1.355   8.648 -0.7067  1.3264 -0.5666
 6294TIP3    H240442   1.733   1.459   8.735  0.0888  0.1373  0.2487
 6295TIP3   OH240443   4.845   4.681   7.967 -0.1132  0.6083  0.0917
 6295TIP3    H140444   4.836   4.687   7.872  0.3020  1.7512  0.1027
 6295TIP3    H240445   4.926   4.633   7.981  0.4774  1.5098 -0.1611
 6296TIP3   OH240446   4.929   4.001   0.083 -0.0977 -0.1611  0.1326
 6296TIP3    H140447   4.878   4.004   0.164  0.5035 -2.2720  0.6466
 6296TIP3    H240448   4.977   4.084   0.081 -0.3685  0.0605  1.7749
 6297TIP3   OH240449   3.367   3.490   7.103 -0.1930 -0.2502 -0.2037
 6297TIP3    H140450   3.300   3.468   7.168 -1.0778 -2.0015 -1.6014
 6297TIP3    H240451   3.450   3.472   7.147 -0.6315  1.1962  1.2968
 6298TIP3   OH240452   2.452   6.038   2.117  0.3020  0.5217 -0.1842
 6298TIP3    H140453   2.522   6.064   2.177  0.7061  0.1595 -0.4886
 6298TIP3    H240454   2.376   6.090   2.144  0.9731  1.6994 -0.5050
 6299TIP3   OH240455   5.182   2.208   1.258 -0.5864 -0.0856 -0.3603
 6299TIP3    H140456   5.234   2.136   1.294  0.7658 -0.0681 -2.1770
 6299TIP3    H240457   5.098   2.168   1.236  0.2490 -1.2230 -1.6275
 6300TIP3   OH240458   2.796   3.636   8.354 -0.6654 -0.2747  0.2908
 6300TIP3    H140459   2.737   3.639   8.279  0.0377 -1.1247 -0.3202
 6300TIP3    H240460   2.882   3.619   8.316  0.2825  2.4206  1.0131
 6301TIP3   OH240461   4.884   0.479   1.601 -0.6959 -0.1746  0.2432
 6301TIP3    H140462   4.890   0.569   1.632 -2.1022  0.7393 -1.9720
 6301TIP3    H240463   4.975   0.448   1.599 -0.1720  1.2754  0.7146
 6302TIP3   OH240464   4.029   5.135   0.835 -0.4035  0.4481 -0.0979
 6302TIP3    H140465   3.937   5.162   0.830  0.1245  2.2481 -1.0868
 6302TIP3    H240466   4.031   5.070   0.905 -2.7870 -1.3056 -1.5027
 6303TIP3   OH240467   5.535   1.143   6.875  0.6926  0.2130  0.8477
 6303TIP3    H140468   5.626   1.170   6.891  0.6845 -0.6379  2.5498
 6303TIP3    H240469   5.488   1.224   6.859  0.9418  1.1889  4.3733
 6304TIP3   OH240470   2.097   2.106   1.149 -0.0850  0.3747  0.0922
 6304TIP3    H140471   2.183   2.076   1.179  0.1580  1.1081  0.1453
 6304TIP3    H240472   2.107   2.200   1.138 -0.6250  0.3450 -0.7774
 6305TIP3   OH240473   2.382   1.507   0.856  0.1016 -0.0177  0.7255
 6305TIP3    H140474   2.307   1.451   0.834 -0.1833  0.7531 -0.3589
 6305TIP3    H240475   2.435   1.454   0.914 -0.8761 -0.8911  0.8591
 6306TIP3   OH240476   3.060   4.555   1.707  0.5288  0.1414  0.0289
 6306TIP3    H140477   3.064   4.631   1.650 -0.0148 -0.2874 -0.5994
 6306TIP3    H240478   2.977   4.512   1.684 -0.1295  0.4176  1.7389
 6307TIP3   OH240479   6.510   5.541   7.778 -0.2405  0.1491 -0.3273
 6307TIP3    H140480   6.547   5.547   7.866  1.2718 -1.9247 -0.7285
 6307TIP3    H240481   6.417   5.561   7.790 -0.5065 -1.9264  2.1342
 6308TIP3   OH240482   0.852   3.092   7.984  0.0534 -0.0455  0.1446
 6308TIP3    H140483   0.793   3.031   8.028 -1.1405  0.5159 -0.6134
 6308TIP3    H240484   0.878   3.047   7.903 -0.5452  0.2856 -0.2423
 6309TIP3   OH240485   1.055   0.260   2.641  0.0914 -0.4242  0.1003
 6309TIP3    H140486   1.089   0.302   2.721 -1.0980  0.3055  0.2535
 6309TIP3    H240487   1.102   0.302   2.570  1.1710 -1.0865  0.4089
 6310TIP3   OH240488   4.441   6.143   2.434  0.4027 -0.0548  0.3850
 6310TIP3    H140489   4.462   6.050   2.438  0.7052 -0.0510 -0.7587
 6310TIP3    H240490   4.429   6.169   2.525  2.3743 -0.7421  0.8795
 6311TIP3   OH240491   5.630   2.362   1.913 -0.2300  0.9060 -0.1812
 6311TIP3    H140492   5.573   2.316   1.852  0.7423  0.6228 -0.9019
 6311TIP3    H240493   5.579   2.367   1.994 -0.9427 -0.0936 -0.5440
 6312TIP3   OH240494   4.828   4.397   0.759 -0.6679  0.3115  0.5193
 6312TIP3    H140495   4.868   4.337   0.696 -0.7676  0.1226  0.6353
 6312TIP3    H240496   4.863   4.370   0.844 -1.8072 -0.5094  0.7502
 6313TIP3   OH240497   3.562   1.867   2.607  0.0628 -0.1795 -0.3142
 6313TIP3    H140498   3.649   1.843   2.575 -0.5249 -3.2567  0.1680
 6313TIP3    H240499   3.566   1.962   2.618  4.2003 -0.4537  2.2007
 6314TIP3   OH240500   6.341   6.434   0.405 -0.4211 -0.1618 -0.3511
 6314TIP3    H140501   6.374   6.347   0.428 -0.9917 -0.4791 -0.7017
 6314TIP3    H240502   6.261   6.417   0.355  0.9680  0.4386 -3.0161
 6315TIP3   OH240503   5.090   5.266   8.071 -0.4560 -1.1981 -0.2914
 6315TIP3    H140504   5.018   5.303   8.122 -1.3365 -2.1717 -0.7656
 6315TIP3    H240505   5.121   5.338   8.016  0.0908 -0.3112  1.1432
 6316TIP3   OH240506   5.197   4.818   7.989 -0.3201 -0.6203 -0.2372
 6316TIP3    H140507   5.267   4.840   7.929 -1.0244  0.2280 -0.7772
 6316TIP3    H240508   5.216   4.729   8.018  2.4214  0.4521  1.6834
 6317TIP3   OH240509   1.862   5.265   0.462 -0.9280  0.1186 -0.7051
 6317TIP3    H140510   1.800   5.322   0.508 -1.6304 -0.3111 -1.1023
 6317TIP3    H240511   1.807   5.204   0.412 -0.1865 -0.3081 -1.0264
 6318TIP3   OH240512   5.591   6.547   7.080  0.4668 -0.5999  0.2985
 6318TIP3    H140513   5.615   6.635   7.050 -2.8483  0.7591  1.1449
 6318TIP3    H240514   5.595   6.493   7.001  1.7737  0.4695 -0.4042
 6319TIP3   OH240515   4.648   5.317   1.097  0.0272 -0.0083 -0.5994
 6319TIP3    H140516   4.645   5.408   1.070  0.6554  0.1528 -0.1428
 6319TIP3    H240517   4.564   5.281   1.069 -1.5046  1.4460  1.7509
 6320TIP3   OH240518   0.988   1.675   1.750 -0.1863 -0.8704 -0.0314
 6320TIP3    H140519   0.978   1.764   1.717  0.4088 -0.8599 -0.1938
 6320TIP3    H240520   0.922   1.667   1.819  0.0639 -0.1498  0.2932
 6321TIP3   OH240521   4.369   0.785   0.024  0.2562 -0.4293 -0.2907
 6321TIP3    H140522   4.410   0.866  -0.007  0.8880 -0.6498 -0.0521
 6321TIP3    H240523   4.307   0.814   0.091  1.5122 -0.2421  0.8201
 6322TIP3   OH240524   3.600   0.976   0.738  0.2925  0.8244 -0.2425
 6322TIP3    H140525   3.675   0.950   0.790  0.0183  0.1593 -0.1712
 6322TIP3    H240526   3.544   1.024   0.798  0.6151  1.2437 -0.2735
 6323TIP3   OH240527   6.441   5.236   2.115 -0.4729  0.0708  0.0584
 6323TIP3    H140528   6.506   5.289   2.162 -0.1884 -0.2129 -0.0106
 6323TIP3    H240529   6.357   5.279   2.133 -0.0335  1.7535 -1.6330
 6324TIP3   OH240530   0.054   0.649   0.106  0.2826  0.0095 -0.6149
 6324TIP3    H140531   0.075   0.571   0.055  0.5545 -0.4114  0.1345
 6324TIP3    H240532  -0.033   0.631   0.142 -0.4430  0.8067 -1.8721
 6325TIP3   OH240533   2.859   2.538   1.798  0.4835  0.0307  0.3201
 6325TIP3    H140534   2.898   2.456   1.827  0.4920 -0.5928 -1.3680
 6325TIP3    H240535   2.908   2.562   1.719 -0.5759  0.7991 -0.1345
 6326TIP3   OH240536   4.678   5.016   8.263  0.3101 -0.3616  0.5026
 6326TIP3    H140537   4.634   5.101   8.264 -0.6016 -0.8277  1.8217
 6326TIP3    H240538   4.643   4.973   8.185  0.6971  0.4138 -0.1181
 6327TIP3   OH240539   2.036   5.426   7.158  0.5106 -0.2886  0.2879
 6327TIP3    H140540   1.965   5.451   7.098  0.5638 -0.1723  0.2730
 6327TIP3    H240541   1.996   5.426   7.244  0.6854  0.5822  0.3827
 6328TIP3   OH240542   2.252   4.712   1.612 -0.3849 -0.4141 -0.1932
 6328TIP3    H140543   2.321   4.696   1.547 -0.3021  0.6009 -0.3827
 6328TIP3    H240544   2.212   4.794   1.584 -1.8629 -1.1205 -0.2225
 6329TIP3   OH240545   6.355   1.052   7.992 -0.1777 -0.3667 -0.5494
 6329TIP3    H140546   6.355   0.970   7.942  1.0266 -0.3136 -0.6685
 6329TIP3    H240547   6.349   1.120   7.925 -0.1528 -0.3403 -0.5249
 6330TIP3   OH240548   4.974   6.026   7.574  0.1345 -0.9745  0.2569
 6330TIP3    H140549   4.977   5.995   7.665  1.6075  1.9412  1.3213
 6330TIP3    H240550   4.888   6.069   7.567  0.6729  0.2673  0.8766
 6331TIP3   OH240551   2.372   1.114   1.274  0.1491  0.1290  0.3459
 6331TIP3    H140552   2.379   1.190   1.332 -1.1615  0.3556  0.2402
 6331TIP3    H240553   2.435   1.131   1.204  0.5894  0.6218  0.8518
 6332TIP3   OH240554   0.534   3.105   1.523 -0.4321  0.6756  0.2604
 6332TIP3    H140555   0.521   3.011   1.514 -0.5401  0.7744 -0.6397
 6332TIP3    H240556   0.536   3.119   1.618  4.4359 -0.8722  0.6669
 6333TIP3   OH240557   6.715   2.247   1.702 -0.2437  0.3483  0.4814
 6333TIP3    H140558   6.691   2.178   1.763 -0.6784  0.0962  0.0295
 6333TIP3    H240559   6.809   2.238   1.690 -0.0050  0.9417  1.7797
 6334TIP3   OH240560   4.344   1.045   1.995  0.0092  0.5553 -0.1916
 6334TIP3    H140561   4.263   1.059   2.043 -0.7701  2.0696 -1.8640
 6334TIP3    H240562   4.323   1.064   1.904  1.3920 -2.3499 -1.2720
 6335TIP3   OH240563   1.185   5.132   7.579 -0.1083  0.3230 -0.1707
 6335TIP3    H140564   1.140   5.115   7.496 -0.5546  2.1749 -0.3682
 6335TIP3    H240565   1.245   5.058   7.590 -0.5101 -0.2909 -1.8094
 6336TIP3   OH240566   0.833   5.668   0.830  0.3986  0.4424  0.2103
 6336TIP3    H140567   0.814   5.753   0.790  0.0444  0.5404  0.5752
 6336TIP3    H240568   0.882   5.620   0.763  0.6292  0.9443  0.0120
 6337TIP3   OH240569   3.201   6.087   1.245 -0.0530 -0.4275 -0.2753
 6337TIP3    H140570   3.148   6.137   1.183 -1.2859  0.2360  1.2314
 6337TIP3    H240571   3.248   6.153   1.296  1.1124 -0.9637 -0.6407
 6338TIP3   OH240572   2.821   2.679   7.077  0.2819  0.2773  0.8910
 6338TIP3    H140573   2.806   2.701   6.985 -0.2574 -2.8596  0.0955
 6338TIP3    H240574   2.805   2.760   7.125  0.6028  2.0139 -1.7677
 6339TIP3   OH240575   6.790   4.806   7.238 -0.3351 -0.3707  0.0190
 6339TIP3    H140576   6.782   4.854   7.156  0.7392 -1.8304 -0.9793
 6339TIP3    H240577   6.852   4.736   7.220 -0.1469 -0.8043  2.0542
 6340TIP3   OH240578   2.686   0.277   2.678  0.1700 -0.1116 -0.1002
 6340TIP3    H140579   2.728   0.267   2.763  1.2398 -0.0573 -0.6001
 6340TIP3    H240580   2.747   0.235   2.616 -0.3117  0.3447 -0.9071
 6341TIP3   OH240581   4.917   6.727   7.742 -0.4564  0.1021 -0.1467
 6341TIP3    H140582   4.905   6.819   7.717 -1.2339  0.4240  1.3035
 6341TIP3    H240583   4.964   6.731   7.825 -0.1399 -0.8360 -0.2735
 6342TIP3   OH240584   6.693   4.353   8.658  0.7047  0.4034  0.2417
 6342TIP3    H140585   6.603   4.324   8.674  1.3402 -1.5396  0.5779
 6342TIP3    H240586   6.727   4.374   8.745  1.0560 -0.4441  0.3206
 6343TIP3   OH240587   0.891   1.762   8.187 -0.1011 -0.1158 -0.1582
 6343TIP3    H140588   0.977   1.802   8.202  0.1141 -1.1394  1.6144
 6343TIP3    H240589   0.832   1.837   8.178  1.1126  0.6284 -2.7258
 6344TIP3   OH240590   4.573   1.220   2.069  0.2617 -0.0045  0.2234
 6344TIP3    H140591   4.549   1.173   1.989 -2.7676  0.3045  0.8398
 6344TIP3    H240592   4.543   1.163   2.140  1.8913  0.2404  1.1483
 6345TIP3   OH240593   0.872   1.908   1.255  0.5253  0.3644 -0.0517
 6345TIP3    H140594   0.937   1.949   1.198 -0.5324  1.4339 -0.5455
 6345TIP3    H240595   0.857   1.973   1.324  0.9410 -0.4372  0.8154
 6346TIP3   OH240596   1.762   6.059   8.273  0.1910 -0.5603  0.4634
 6346TIP3    H140597   1.680   6.063   8.323 -0.5158  1.4084 -0.7625
 6346TIP3    H240598   1.739   6.092   8.186  2.3937  0.4932  0.2253
 6347TIP3   OH240599   3.415   3.031   8.434 -0.7493 -0.1934  0.1222
 6347TIP3    H140600   3.404   3.112   8.385  0.0022 -0.9373 -1.3344
 6347TIP3    H240601   3.327   2.993   8.438 -0.8935  0.0969 -0.2550
 6348TIP3   OH240602   3.006   1.812   0.000 -0.4866  0.1718 -0.2754
 6348TIP3    H140603   3.068   1.867  -0.046  1.6393 -1.3313  0.6077
 6348TIP3    H240604   2.974   1.751  -0.066  0.0535  0.0941 -0.4753
 6349TIP3   OH240605   2.896   2.433   0.577 -0.4318  0.0608  0.0477
 6349TIP3    H140606   2.892   2.486   0.656 -0.3781  0.4369 -0.1988
 6349TIP3    H240607   2.969   2.372   0.591 -0.1974  0.3650  0.1374
 6350TIP3   OH240608   5.623   5.480   8.027  0.1960 -0.1108  0.4382
 6350TIP3    H140609   5.590   5.570   8.018 -0.9766 -0.5650 -0.1246
 6350TIP3    H240610   5.709   5.489   8.066  0.2051  1.2837  0.1397
 6351TIP3   OH240611   0.371   0.407   2.447  0.6820 -0.1145 -0.1652
 6351TIP3    H140612   0.432   0.469   2.409  1.1873 -0.0524  0.7115
 6351TIP3    H240613   0.304   0.462   2.489  0.8123 -0.1592  0.1066
 6352TIP3   OH240614   2.049   3.823   3.150 -0.3272 -0.7721 -0.2630
 6352TIP3    H140615   1.978   3.885   3.137 -0.9387 -0.5261  3.2649
 6352TIP3    H240616   2.007   3.737   3.144  0.0396 -0.8562 -2.6068
 6353TIP3   OH240617   2.128   6.252   7.581  0.5823 -0.0856 -0.1099
 6353TIP3    H140618   2.088   6.237   7.667  0.9326 -0.0994  0.0530
 6353TIP3    H240619   2.054   6.274   7.524  0.3495 -0.0546  0.1980
 6354TIP3   OH240620   6.238   3.666   0.635 -1.0683 -0.3603  0.3432
 6354TIP3    H140621   6.168   3.721   0.601 -1.0234 -1.7818 -2.2821
 6354TIP3    H240622   6.306   3.669   0.568  0.6260 -0.5160  1.9627
 6355TIP3   OH240623   6.011   1.566   1.727 -0.2279  0.1217 -0.8231
 6355TIP3    H140624   5.965   1.621   1.791 -0.5691 -0.2114 -0.7813
 6355TIP3    H240625   5.992   1.476   1.754  0.4426 -0.0234 -0.8118
 6356TIP3   OH240626   1.909   1.583   7.355  0.2479 -0.4088  0.1310
 6356TIP3    H140627   1.939   1.667   7.390 -0.1243 -0.8549  1.5888
 6356TIP3    H240628   1.952   1.575   7.270  1.0855  0.7880  0.4274
 6357TIP3   OH240629   6.659   4.065   1.565 -0.4540  0.3411 -0.6834
 6357TIP3    H140630   6.737   4.062   1.620  0.0996  0.7059 -1.4314
 6357TIP3    H240631   6.586   4.075   1.626  0.1713  1.0431 -0.0347
 6358TIP3   OH240632   1.209   0.222   1.537 -0.1882 -0.3033  0.5958
 6358TIP3    H140633   1.277   0.245   1.473 -1.9552 -0.9357 -1.6428
 6358TIP3    H240634   1.257   0.183   1.610  2.0592  1.9287  0.4439
 6359TIP3   OH240635   2.810   2.026   1.816 -0.1176  0.1455 -0.5089
 6359TIP3    H140636   2.805   1.932   1.832 -1.3373  0.4785  1.3741
 6359TIP3    H240637   2.757   2.040   1.738 -1.8343 -0.5097  0.4753
 6360TIP3   OH240638   5.882   5.439   1.970  0.5510 -0.3156  0.5002
 6360TIP3    H140639   5.808   5.389   2.004  0.9948 -0.7167  0.8882
 6360TIP3    H240640   5.954   5.419   2.030  1.4101 -1.1810 -0.7707
 6361TIP3   OH240641   6.569   1.200   0.462 -0.5808 -0.4688 -0.1159
 6361TIP3    H140642   6.491   1.256   0.463 -0.5464 -0.4091 -0.5892
 6361TIP3    H240643   6.613   1.222   0.380 -1.2643 -2.1597 -0.9848
 6362TIP3   OH240644   5.955   6.641   0.786  0.4939  0.1369  0.5918
 6362TIP3    H140645   5.891   6.576   0.814  0.3041 -0.6812 -1.5468
 6362TIP3    H240646   5.935   6.719   0.837 -2.6949  0.1577 -0.4972
 6363TIP3   OH240647   5.932   4.477   1.764  0.0836  0.1522  0.1023
 6363TIP3    H140648   5.990   4.460   1.838 -2.2121 -0.0631  1.9786
 6363TIP3    H240649   5.845   4.454   1.796 -0.8048 -2.5640 -3.5165
 6364TIP3   OH240650   3.142   0.920   0.512 -0.6843 -0.2170  0.2453
 6364TIP3    H140651   3.192   0.985   0.463  1.4477 -2.7490 -1.2093
 6364TIP3    H240652   3.147   0.950   0.603  0.3353  1.5545 -0.3400
 6365TIP3   OH240653   5.982   1.427   7.784  0.2495 -0.0793  0.2342
 6365TIP3    H140654   5.986   1.450   7.691  0.0552 -1.3323 -0.0998
 6365TIP3    H240655   6.021   1.340   7.789  0.5142  0.0932  1.3741
 6366TIP3   OH240656   1.534   3.218   2.899 -0.5946 -0.9033 -0.6315
 6366TIP3    H140657   1.616   3.187   2.861 -0.0370 -0.9279  0.5630
 6366TIP3    H240658   1.485   3.139   2.918  0.1928 -1.0306  1.0094
 6367TIP3   OH240659   0.220   4.634   8.421 -0.2294  0.1939  0.0395
 6367TIP3    H140660   0.144   4.605   8.470 -0.9022  0.5623 -0.7561
 6367TIP3    H240661   0.219   4.581   8.341 -0.1333  0.7720 -0.3539
 6368TIP3   OH240662   2.843   5.621   7.523 -0.0782  0.1582 -0.0751
 6368TIP3    H140663   2.814   5.614   7.432  1.8613 -0.6748 -0.6894
 6368TIP3    H240664   2.888   5.705   7.527 -0.2378  0.2335  0.1397
 6369TIP3   OH240665   3.738   2.584   7.393  0.0552 -0.0508 -0.1483
 6369TIP3    H140666   3.822   2.560   7.354 -0.4523 -2.3501  0.0289
 6369TIP3    H240667   3.694   2.635   7.325  0.9045 -0.3082 -0.9072
 6370TIP3   OH240668   6.255   3.413   8.098  0.0599  0.3172  0.0078
 6370TIP3    H140669   6.306   3.478   8.147 -0.5377 -0.3748  1.6212
 6370TIP3    H240670   6.304   3.332   8.109  0.2798  0.2725 -1.1715
 6371TIP3   OH240671   3.299   1.476   1.201 -0.1485 -0.1578  0.3946
 6371TIP3    H140672   3.244   1.397   1.199 -1.1528  0.5097  0.7128
 6371TIP3    H240673   3.341   1.473   1.287  1.1265 -1.1876 -0.2358
 6372TIP3   OH240674   3.929   5.329   2.174 -0.4686  0.0386 -0.2486
 6372TIP3    H140675   3.979   5.281   2.240 -0.3453  1.2677  0.5781
 6372TIP3    H240676   3.891   5.261   2.118  0.5883 -0.9737  0.2362
 6373TIP3   OH240677   4.763   5.047   0.382  0.2623  0.2511 -0.6891
 6373TIP3    H140678   4.850   5.055   0.344 -0.4364  1.2927 -2.1799
 6373TIP3    H240679   4.778   5.009   0.469  2.2158  0.7402 -0.7662
 6374TIP3   OH240680   0.303   4.640   0.166 -0.5514 -0.2630 -0.4177
 6374TIP3    H140681   0.384   4.667   0.211 -0.9373 -0.9860  0.7538
 6374TIP3    H240682   0.257   4.722   0.149  0.5545  0.1843 -1.3691
 6375TIP3   OH240683   3.035   5.170   0.944  0.3992  0.0652 -0.5243
 6375TIP3    H140684   2.997   5.117   1.013 -0.3635  1.8360  0.4807
 6375TIP3    H240685   2.975   5.161   0.870 -0.7160  0.9393  0.2519
 6376TIP3   OH240686   0.663   0.351   0.323 -0.0633  0.1995  0.0440
 6376TIP3    H140687   0.596   0.400   0.372  0.2882 -1.0401  1.8736
 6376TIP3    H240688   0.727   0.417   0.298 -2.7243  1.7996 -3.4105
 6377TIP3   OH240689   5.401   0.731   2.844 -0.0220 -0.3614 -0.6435
 6377TIP3    H140690   5.390   0.736   2.749 -0.8957  1.6366 -0.4905
 6377TIP3    H240691   5.312   0.733   2.879  0.3204 -0.1860  0.2536
 6378TIP3   OH240692   3.331   0.200   8.031  0.4528 -0.0552 -0.2919
 6378TIP3    H140693   3.425   0.183   8.022  0.2391 -0.8984 -1.0017
 6378TIP3    H240694   3.315   0.277   7.977  1.2165  1.8885  2.0478
 6379TIP3   OH240695   3.467   1.749   8.017 -0.1263 -0.3727 -0.2845
 6379TIP3    H140696   3.374   1.728   8.028 -0.2367  0.4849  0.6252
 6379TIP3    H240697   3.476   1.837   8.055  0.9343 -0.1815 -0.9455
 6380TIP3   OH240698   3.087   5.556   8.610  0.6941 -0.1521  0.1536
 6380TIP3    H140699   2.996   5.556   8.582  0.9936  0.6073 -0.8737
 6380TIP3    H240700   3.085   5.518   8.698 -0.4636 -1.1984 -0.2903
 6381TIP3   OH240701   4.943   2.905   0.728 -0.3438 -0.0735 -0.0033
 6381TIP3    H140702   4.915   2.816   0.750  3.0458 -0.8758  1.8643
 6381TIP3    H240703   4.995   2.932   0.804  1.5880  2.1111 -1.9614
 6382TIP3   OH240704   0.458   4.194   2.264 -0.1694  0.4617 -0.1448
 6382TIP3    H140705   0.374   4.155   2.242  0.0772  0.2095 -0.6492
 6382TIP3    H240706   0.518   4.120   2.271 -0.2671  0.4917  1.5914
 6383TIP3   OH240707   6.658   0.606   1.804  0.3508 -0.0624  1.2920
 6383TIP3    H140708   6.592   0.674   1.799 -0.1231 -0.6066 -0.4245
 6383TIP3    H240709   6.733   0.649   1.845 -0.5890  0.9242  2.0515
 6384TIP3   OH240710   1.102   1.768   3.116  0.0478  0.5415 -0.9507
 6384TIP3    H140711   1.007   1.761   3.104 -0.2633  2.0492  0.2688
 6384TIP3    H240712   1.115   1.857   3.148  1.5814 -0.4785  1.5242
 6385TIP3   OH240713   6.816   0.505   0.507 -0.4437  0.0989 -0.5495
 6385TIP3    H140714   6.749   0.571   0.526 -0.2813  0.0820  0.1143
 6385TIP3    H240715   6.844   0.524   0.418 -1.2648  0.1675 -0.8014
 6386TIP3   OH240716   4.021   5.185   1.235 -0.4985 -0.7379 -0.3087
 6386TIP3    H140717   4.113   5.188   1.261 -0.7623  0.4002  0.6113
 6386TIP3    H240718   4.005   5.094   1.211  0.2153 -1.5144  1.9707
 6387TIP3   OH240719   4.997   0.019   0.017  0.4194 -0.8360  0.0110
 6387TIP3    H140720   4.948   0.086   0.065  1.5040  0.6796 -0.9391
 6387TIP3    H240721   4.930  -0.044  -0.011 -0.6692  0.0284  0.5956
 6388TIP3   OH240722   0.696   3.526   1.510  0.1638 -0.0422 -0.4139
 6388TIP3    H140723   0.782   3.547   1.471  0.2418 -0.9964 -0.7812
 6388TIP3    H240724   0.658   3.611   1.530  0.0515  0.5160 -2.7526
 6389TIP3   OH240725   3.052   3.737   2.454 -0.3261 -0.4698  0.4717
 6389TIP3    H140726   3.004   3.712   2.375 -0.3090 -0.1642  0.3622
 6389TIP3    H240727   3.137   3.694   2.445  0.0811  0.4260 -0.2072
 6390TIP3   OH240728   3.904   2.403   2.414  0.3528 -0.4400  0.0140
 6390TIP3    H140729   3.902   2.498   2.404  0.5360 -0.4120  0.2157
 6390TIP3    H240730   3.966   2.388   2.486  1.0747 -0.7613 -0.6516
 6391TIP3   OH240731   5.285   1.304   7.668  0.2257 -0.4173  0.1776
 6391TIP3    H140732   5.352   1.329   7.733 -0.7854 -2.0810  1.9424
 6391TIP3    H240733   5.208   1.283   7.720 -1.1427 -0.3044 -1.7113
 6392TIP3   OH240734   1.262   0.228   0.476 -0.1091 -0.2756  0.3009
 6392TIP3    H140735   1.208   0.167   0.428  0.0696 -0.1112 -0.1139
 6392TIP3    H240736   1.352   0.207   0.450 -0.1195  1.1173 -1.0088
 6393TIP3   OH240737   1.264   6.521   1.072  0.3534  0.2457 -0.1070
 6393TIP3    H140738   1.294   6.431   1.084  1.6321  0.7486  0.7174
 6393TIP3    H240739   1.343   6.569   1.047 -0.4762  0.9987 -1.3943
 6394TIP3   OH240740   1.983   1.660   0.929  0.2539  0.3905 -0.1181
 6394TIP3    H140741   2.047   1.593   0.905  0.8879  0.9231  0.0431
 6394TIP3    H240742   2.019   1.699   1.009 -1.3951 -0.7966  1.2828
 6395TIP3   OH240743   3.652   0.821   8.177  0.0056 -0.5308 -0.1401
 6395TIP3    H140744   3.679   0.910   8.155 -2.7935  0.4302 -0.1039
 6395TIP3    H240745   3.629   0.781   8.093  0.0878 -0.8023 -0.0357
 6396TIP3   OH240746   2.167   3.271   7.875  0.2031 -0.0255  0.1972
 6396TIP3    H140747   2.108   3.244   7.805  0.5983 -3.1054  0.9318
 6396TIP3    H240748   2.109   3.294   7.948 -0.1337 -0.2068 -0.0126
 6397TIP3   OH240749   2.684   4.529   8.073  0.5441  0.1860  0.5711
 6397TIP3    H140750   2.729   4.497   8.151 -0.3279  0.6189  1.2733
 6397TIP3    H240751   2.622   4.459   8.051  0.5656  0.2038  0.4538
 6398TIP3   OH240752   1.143   0.195   2.245  0.2494 -0.3444 -1.0069
 6398TIP3    H140753   1.205   0.195   2.172  0.4117  0.3323 -0.8744
 6398TIP3    H240754   1.170   0.269   2.299 -0.4308 -0.2876 -0.7379
 6399TIP3   OH240755   1.442   2.572   3.067  0.2574 -0.0049 -0.7002
 6399TIP3    H140756   1.398   2.508   3.124 -0.6730 -0.8375 -2.2697
 6399TIP3    H240757   1.469   2.521   2.990 -0.8407  1.5214 -2.1725
 6400TIP3   OH240758   1.309   6.749   1.253  0.0354 -0.1774 -0.4348
 6400TIP3    H140759   1.224   6.786   1.276  0.0109 -1.0394  0.9947
 6400TIP3    H240760   1.290   6.658   1.227  0.5836 -0.6417  0.7129
 6401TIP3   OH240761   5.584   3.382   7.947  0.7542  0.6443  0.5562
 6401TIP3    H140762   5.580   3.401   8.040 -0.2347  0.2859  0.6091
 6401TIP3    H240763   5.521   3.443   7.907  0.3086  0.0173  0.2801
 6402TIP3   OH240764   2.640   5.878   0.148 -0.3972 -0.3005  0.0258
 6402TIP3    H140765   2.663   5.812   0.214  3.5563  0.2356 -0.5695
 6402TIP3    H240766   2.644   5.961   0.194  2.6558  0.1035 -0.7377
 6403TIP3   OH240767   0.920   6.532   1.284  0.8540  0.0712  0.8969
 6403TIP3    H140768   0.826   6.537   1.270  1.1006 -1.4100 -1.9728
 6403TIP3    H240769   0.959   6.571   1.206  2.5751 -1.0675  1.1078
 6404TIP3   OH240770   4.369   4.976   0.888 -0.0542  0.3878 -0.3487
 6404TIP3    H140771   4.315   4.897   0.892  2.2949 -1.3692 -1.0199
 6404TIP3    H240772   4.349   5.015   0.803 -0.6902  0.1389 -0.3190
 6405TIP3   OH240773   2.955   0.997   1.647  0.1393  0.5130 -0.0006
 6405TIP3    H140774   2.993   0.919   1.606  1.1918  1.0894 -0.1543
 6405TIP3    H240775   2.865   0.972   1.666  1.0021 -1.5113  1.9233
 6406TIP3   OH240776   6.684   6.817   8.682 -0.0008  0.1242 -0.3863
 6406TIP3    H140777   6.637   6.849   8.605  0.7434  1.6018 -0.2735
 6406TIP3    H240778   6.735   6.893   8.711 -1.7329  0.2797  2.7358
 6407TIP3   OH240779   5.173   1.473   1.058 -0.1470 -0.0825  0.6904
 6407TIP3    H140780   5.161   1.564   1.087  1.4698  0.2660  0.3505
 6407TIP3    H240781   5.265   1.468   1.032 -0.2991 -1.7377  0.3747
 6408TIP3   OH240782   4.438   3.891   2.823  0.5793 -0.3903 -0.4539
 6408TIP3    H140783   4.443   3.796   2.808  3.3979 -0.4064  0.0164
 6408TIP3    H240784   4.456   3.930   2.738  0.7096 -0.2908 -0.3805
 6409TIP3   OH240785   2.094   3.519   1.924 -0.4303  0.2007 -0.2011
 6409TIP3    H140786   2.162   3.537   1.859  0.6305  0.8326  1.0427
 6409TIP3    H240787   2.096   3.425   1.936  1.7441  0.3828  1.3527
 6410TIP3   OH240788   5.175   6.007   0.789 -0.2795 -0.5791 -0.0102
 6410TIP3    H140789   5.126   6.052   0.858 -1.0356 -0.9392 -0.3060
 6410TIP3    H240790   5.252   5.971   0.834 -0.4782 -0.3371  0.5329
 6411TIP3   OH240791   3.183   3.886   3.088 -0.2027 -0.4397 -0.4412
 6411TIP3    H140792   3.154   3.926   3.170  0.7395 -1.0642  0.2133
 6411TIP3    H240793   3.219   3.802   3.114  0.1650 -0.6203 -1.4976
 6412TIP3   OH240794   2.601   2.770   7.821  0.2410 -0.1780  0.6669
 6412TIP3    H140795   2.690   2.745   7.796  0.0290  0.5109 -0.8878
 6412TIP3    H240796   2.590   2.858   7.786 -1.0785 -0.2713  0.8077
 6413TIP3   OH240797   5.840   3.828   7.245  0.3365  0.9161  0.0472
 6413TIP3    H140798   5.823   3.734   7.248  1.0252  0.8043  1.3243
 6413TIP3    H240799   5.918   3.837   7.191  0.8076  0.6546  0.6764
 6414TIP3   OH240800   4.019   6.101   7.580 -0.0077  0.6808 -0.0878
 6414TIP3    H140801   4.061   6.136   7.502 -0.2031  0.2177 -0.4038
 6414TIP3    H240802   4.038   6.008   7.579 -3.2681 -0.1211 -1.7409
 6415TIP3   OH240803   0.520   0.612   1.090 -0.1374  0.0763 -0.1870
 6415TIP3    H140804   0.532   0.616   0.995  2.0035 -0.9984 -0.0242
 6415TIP3    H240805   0.469   0.533   1.105 -1.6765  0.9727 -0.4822
 6416TIP3   OH240806   0.647   0.958   7.714 -0.5578 -0.7404  0.5727
 6416TIP3    H140807   0.659   0.892   7.645  1.2653  0.4655 -0.3546
 6416TIP3    H240808   0.680   0.916   7.793  0.1609 -1.1174  0.0874
 6417TIP3   OH240809   1.351   4.576   0.192 -0.0394  0.0970  0.2242
 6417TIP3    H140810   1.273   4.588   0.140  0.3481 -1.7225 -0.8550
 6417TIP3    H240811   1.365   4.481   0.194  3.2322  0.3878 -1.3691
 6418TIP3   OH240812   3.904   1.471   1.225 -0.2113  0.4981  0.0471
 6418TIP3    H140813   3.966   1.519   1.280 -0.5882 -0.0882  0.9944
 6418TIP3    H240814   3.951   1.393   1.198 -0.5596  0.0020  0.8506
 6419TIP3   OH240815   0.231   3.346   0.334  0.3396 -0.3536 -0.1885
 6419TIP3    H140816   0.200   3.433   0.358  1.0152 -0.2405  0.3052
 6419TIP3    H240817   0.179   3.286   0.388  0.5626 -0.1967  0.2072
 6420TIP3   OH240818   6.180   4.700   1.389  0.3641  0.0998  0.1668
 6420TIP3    H140819   6.108   4.682   1.449  1.4740 -0.9064  1.2452
 6420TIP3    H240820   6.156   4.653   1.309  0.9815 -2.3867  1.3681
 6421TIP3   OH240821   0.880   6.403   1.849  0.7669 -0.0441  0.0647
 6421TIP3    H140822   0.795   6.377   1.883  0.5850  1.9036  1.2395
 6421TIP3    H240823   0.862   6.477   1.792  1.8390  2.6548  2.9464
 6422TIP3   OH240824   5.469   4.498   0.609  0.4822 -0.1078 -0.0437
 6422TIP3    H140825   5.460   4.403   0.611  2.0655 -0.4326 -3.1600
 6422TIP3    H240826   5.553   4.515   0.652  0.7107 -0.2249 -0.4425
 6423TIP3   OH240827   5.395   4.156   1.022  0.4572 -0.2648  0.1238
 6423TIP3    H140828   5.467   4.179   0.962  0.3114  1.8731  0.6890
 6423TIP3    H240829   5.434   4.092   1.082  1.8293  0.6081  0.2206
 6424TIP3   OH240830   5.578   2.253   6.816  0.4828  0.2711  0.4298
 6424TIP3    H140831   5.533   2.169   6.827  0.7425  0.1339  0.4456
 6424TIP3    H240832   5.670   2.233   6.829  0.3995  0.8723  2.2596
 6425TIP3   OH240833   1.410   3.058   3.513 -0.0186 -0.0548 -0.2132
 6425TIP3    H140834   1.487   3.114   3.509  0.2779 -0.5247 -1.3881
 6425TIP3    H240835   1.371   3.063   3.426 -0.9873 -0.2871  0.1918
 6426TIP3   OH240836   5.508   2.574   1.678 -0.1184 -0.2166 -0.1292
 6426TIP3    H140837   5.455   2.637   1.628  1.9760  1.1518 -0.7706
 6426TIP3    H240838   5.495   2.599   1.769  0.4731  1.0360 -0.3604
 6427TIP3   OH240839   2.021   4.449   1.268  0.0865 -0.0314 -0.7656
 6427TIP3    H140840   2.028   4.384   1.338  0.9524  0.6132 -0.2376
 6427TIP3    H240841   2.038   4.399   1.188 -0.6308 -0.7198 -0.4945
 6428TIP3   OH240842   0.447   5.859   1.482  0.1377 -0.3774  0.3687
 6428TIP3    H140843   0.505   5.782   1.485  1.0692  0.3058  0.3250
 6428TIP3    H240844   0.506   5.934   1.489 -0.7363  0.3521  0.1284
 6429TIP3   OH240845   5.206   2.208   8.035  0.4480 -0.2032 -0.2404
 6429TIP3    H140846   5.130   2.150   8.044  0.0101  0.4294  0.2323
 6429TIP3    H240847   5.264   2.163   7.974 -0.6561 -0.3410 -1.2135
 6430TIP3   OH240848   5.618   3.523   8.541  0.2568 -0.0681 -0.1321
 6430TIP3    H140849   5.553   3.536   8.472 -1.7253  0.0055  1.6440
 6430TIP3    H240850   5.645   3.612   8.566 -1.7499  0.1308  1.5666
 6431TIP3   OH240851   0.247   4.411   8.823  0.9837  0.0180 -0.7678
 6431TIP3    H140852   0.291   4.459   8.893  0.2270  0.2836 -0.4681
 6431TIP3    H240853   0.159   4.449   8.818  0.8010 -0.4587 -1.4019
 6432TIP3   OH240854   5.694   3.709   1.883 -0.4587 -0.1404 -0.1173
 6432TIP3    H140855   5.711   3.682   1.973  0.9840  0.0703 -0.3020
 6432TIP3    H240856   5.606   3.746   1.885 -0.0200  0.9500  1.4734
 6433TIP3   OH240857   4.486   5.870   2.426 -0.2094  0.1010  0.6938
 6433TIP3    H140858   4.447   5.783   2.429 -0.1846  0.0475 -0.1347
 6433TIP3    H240859   4.501   5.894   2.517  2.4051 -1.9361  0.9229
 6434TIP3   OH240860   0.471   3.884   2.856  0.0917 -0.4418 -0.2137
 6434TIP3    H140861   0.469   3.793   2.825  1.4537 -1.1357  1.5583
 6434TIP3    H240862   0.441   3.935   2.781 -2.5838 -2.4633 -0.6567
 6435TIP3   OH240863   5.437   0.912   8.669 -0.1095  0.7904 -0.2351
 6435TIP3    H140864   5.459   0.960   8.589 -0.1700 -0.2017 -0.8636
 6435TIP3    H240865   5.522   0.888   8.707 -0.0496  2.2291  0.6367
 6436TIP3   OH240866   5.576   6.809   8.526 -0.4811  0.1068 -0.1306
 6436TIP3    H140867   5.623   6.890   8.507 -2.1492  1.0787 -0.3548
 6436TIP3    H240868   5.604   6.748   8.458  1.7457  0.0421  0.7600
 6437TIP3   OH240869   2.624   0.992   0.714 -0.2249 -0.7830 -0.0888
 6437TIP3    H140870   2.535   0.983   0.681  0.5828 -2.2326 -2.0641
 6437TIP3    H240871   2.653   0.903   0.733  1.0394 -0.4135 -0.1665
 6438TIP3   OH240872   5.352   3.844   1.222 -0.1641  0.3662 -0.2309
 6438TIP3    H140873   5.403   3.909   1.270  0.8947  0.1882 -1.0740
 6438TIP3    H240874   5.408   3.766   1.220 -0.5560  0.0915 -0.9920
 6439TIP3   OH240875   4.199   0.006   2.104  0.0346  0.1403  0.0315
 6439TIP3    H140876   4.184  -0.055   2.176 -2.1206  1.8978  1.1954
 6439TIP3    H240877   4.131  -0.016   2.040 -0.3335  0.8315  0.1693
 6440TIP3   OH240878   1.528   1.225   1.588  0.6754  0.2498  0.2774
 6440TIP3    H140879   1.463   1.222   1.659  0.4625  0.8347  0.1082
 6440TIP3    H240880   1.609   1.197   1.630  0.3046 -0.5616  0.4758
 6441TIP3   OH240881   1.304   5.941   1.939  0.0905 -0.7479 -0.1153
 6441TIP3    H140882   1.389   5.975   1.969 -0.0676  0.8235 -1.3096
 6441TIP3    H240883   1.240   5.998   1.982 -0.2712 -0.6546 -0.7744
 6442TIP3   OH240884   6.444   2.984   8.644  0.5080  0.7385  0.3344
 6442TIP3    H140885   6.378   3.008   8.578 -0.7016 -1.7823  0.5295
 6442TIP3    H240886   6.527   2.987   8.597 -0.2441 -0.2260 -1.1103
 6443TIP3   OH240887   0.539   3.117   8.084  0.1703 -0.4916  0.4422
 6443TIP3    H140888   0.478   3.067   8.029  1.4902 -1.2203 -0.4052
 6443TIP3    H240889   0.607   3.053   8.108  0.5206  0.2591  1.5153
 6444TIP3   OH240890   5.477   5.678   1.492  0.1380  0.0435 -0.6537
 6444TIP3    H140891   5.458   5.609   1.555 -1.0055  1.4474  0.6145
 6444TIP3    H240892   5.539   5.735   1.538 -0.7932  1.1423 -0.7124
 6445TIP3   OH240893   5.469   0.964   7.062 -0.0792  0.0977 -0.1989
 6445TIP3    H140894   5.542   0.992   7.118 -0.6664 -0.0460  0.6506
 6445TIP3    H240895   5.473   1.024   6.987  0.5524  0.4734  0.1205
 6446TIP3   OH240896   3.725   1.537   7.665 -0.8155  0.6331 -0.1210
 6446TIP3    H140897   3.739   1.624   7.627 -0.9566  1.3209  1.3332
 6446TIP3    H240898   3.806   1.490   7.647 -0.2895  1.4508  0.0454
 6447TIP3   OH240899   3.320   2.499   2.043 -0.0136  0.0080 -0.5501
 6447TIP3    H140900   3.384   2.513   1.973 -0.3447 -1.5936 -1.2146
 6447TIP3    H240901   3.319   2.581   2.091  2.2760  0.2117 -0.7322
 6448TIP3   OH240902   1.858   1.715   2.082  0.6680 -0.7708  0.2830
 6448TIP3    H140903   1.926   1.700   2.016  1.0509 -1.9536  0.9145
 6448TIP3    H240904   1.842   1.809   2.079  2.2274 -0.4870  0.0141
 6449TIP3   OH240905   6.409   2.432   7.952  0.2236  0.2454  0.4598
 6449TIP3    H140906   6.347   2.361   7.967 -1.3002  1.4168 -0.0423
 6449TIP3    H240907   6.394   2.458   7.861  0.5182  1.4231  0.7338
 6450TIP3   OH240908   5.664   1.033   7.246  0.8162 -1.1469 -0.2641
 6450TIP3    H140909   5.704   1.106   7.199  0.9645 -0.8970  0.2426
 6450TIP3    H240910   5.738   0.984   7.281  0.7860 -2.4508 -1.9193
 6451TIP3   OH240911   6.035   1.451   7.489 -0.3385 -0.7759  0.0084
 6451TIP3    H140912   6.054   1.479   7.399 -1.2226 -0.9940 -0.2565
 6451TIP3    H240913   6.037   1.356   7.485 -2.1108 -0.8351 -0.1972
 6452TIP3   OH240914   5.206   6.636   0.549 -0.5573  0.2406 -0.4435
 6452TIP3    H140915   5.190   6.663   0.639  1.6096 -0.1996  0.1432
 6452TIP3    H240916   5.162   6.552   0.540 -1.6531  0.7722 -0.1332
 6453TIP3   OH240917   4.652   4.441   0.338  0.3969  0.0188  0.4605
 6453TIP3    H140918   4.579   4.493   0.372  0.3271 -0.6367  1.3293
 6453TIP3    H240919   4.688   4.397   0.415  0.6271 -1.0200 -0.2333
 6454TIP3   OH240920   3.784   2.126   1.424  0.3055 -0.1634 -0.2981
 6454TIP3    H140921   3.757   2.059   1.487 -0.8684 -0.4203 -1.0649
 6454TIP3    H240922   3.817   2.077   1.349 -0.5023  0.1000 -0.8397
 6455TIP3   OH240923   3.048   6.716   0.401 -0.2834  0.0780 -0.5395
 6455TIP3    H140924   3.005   6.726   0.486 -0.1305 -0.7859 -0.3507
 6455TIP3    H240925   3.141   6.729   0.419 -0.4612  2.9859 -1.1176
 6456TIP3   OH240926   5.001   1.541   8.625 -0.4397  0.3172 -0.0481
 6456TIP3    H140927   4.943   1.616   8.639  1.6629  1.6633  2.0837
 6456TIP3    H240928   5.008   1.534   8.530 -0.1509  3.3475 -0.3625
 6457TIP3   OH240929   6.213   0.746   0.820 -0.3048 -0.1489  0.1076
 6457TIP3    H140930   6.136   0.762   0.874  0.1283 -0.5542  0.8727
 6457TIP3    H240931   6.223   0.825   0.768  1.2213  1.8132  3.0909
 6458TIP3   OH240932   3.702   5.523   1.468 -0.3054  0.2290  0.1029
 6458TIP3    H140933   3.673   5.442   1.510 -0.0409  0.0098 -0.1301
 6458TIP3    H240934   3.630   5.584   1.481 -0.5870 -0.1023  0.1173
 6459TIP3   OH240935   1.511   1.576   7.888 -0.0336 -0.2531  0.1004
 6459TIP3    H140936   1.536   1.617   7.971  4.0239  0.8445 -1.3964
 6459TIP3    H240937   1.475   1.648   7.836 -2.2231 -0.8591  0.7133
 6460TIP3   OH240938   6.248   6.287   0.795  0.0049  0.1846 -0.2778
 6460TIP3    H140939   6.200   6.209   0.768 -0.2249  0.4185 -0.5603
 6460TIP3    H240940   6.339   6.269   0.772 -0.1697  0.3407 -1.1343
 6461TIP3   OH240941   3.869   3.905   8.512  0.0719  0.1482  0.3217
 6461TIP3    H140942   3.821   3.985   8.534  1.5039  2.1735 -2.9900
 6461TIP3    H240943   3.959   3.934   8.499  0.7459 -2.1091 -0.5851
 6462TIP3   OH240944   3.416   3.687   7.864 -0.2551 -0.3901 -0.1131
 6462TIP3    H140945   3.429   3.768   7.814 -0.2219 -0.7949 -0.7810
 6462TIP3    H240946   3.498   3.638   7.851 -0.3843 -0.6506  0.0506
 6463TIP3   OH240947   6.269   6.728   8.010 -0.1444  0.2288  0.2876
 6463TIP3    H140948   6.326   6.755   7.938 -0.0375  1.0480  0.6695
 6463TIP3    H240949   6.312   6.650   8.046  1.5330  1.6062  1.4498
 6464TIP3   OH240950   2.044   3.448   2.210  0.2809 -0.0350 -0.0962
 6464TIP3    H140951   2.001   3.528   2.241  2.2047  0.9156  0.2564
 6464TIP3    H240952   2.079   3.472   2.124  0.6692 -0.5831 -0.0957
 6465TIP3   OH240953   6.215   3.932   7.835  0.0563  0.4212  0.6099
 6465TIP3    H140954   6.295   3.982   7.855  0.1198 -0.4037  2.7344
 6465TIP3    H240955   6.244   3.862   7.777  0.3948  1.4774 -0.5401
 6466TIP3   OH240956   4.399   6.365   0.184 -0.0728 -0.2620 -0.6155
 6466TIP3    H140957   4.435   6.358   0.096  2.5821  0.3269  0.3473
 6466TIP3    H240958   4.388   6.459   0.199  1.2408 -0.2252  0.2934
 6467TIP3   OH240959   5.694   1.639   2.877 -0.4171 -0.0825  0.4229
 6467TIP3    H140960   5.686   1.725   2.836 -0.9266 -0.9354 -1.3722
 6467TIP3    H240961   5.769   1.598   2.834 -0.6227 -0.8040  0.7285
 6468TIP3   OH240962   2.290   2.403   1.929 -0.1968  0.3154 -0.2019
 6468TIP3    H140963   2.230   2.403   1.854 -1.1036 -0.4386  0.4968
 6468TIP3    H240964   2.273   2.320   1.974  1.0067  0.3230  0.3169
 6469TIP3   OH240965   0.681   4.120   2.931 -0.0259  0.1254 -1.0493
 6469TIP3    H140966   0.765   4.166   2.920 -0.0158  0.2018 -0.6710
 6469TIP3    H240967   0.628   4.181   2.983 -0.1560 -0.1221 -0.8947
 6470TIP3   OH240968   2.232   4.254   8.639  0.2030  0.8124  0.2782
 6470TIP3    H140969   2.202   4.338   8.606 -0.0302  0.6661  0.1131
 6470TIP3    H240970   2.263   4.207   8.561 -2.4741 -0.4338 -0.1333
 6471TIP3   OH240971   4.165   6.631   2.309  0.7154 -0.0221 -0.6900
 6471TIP3    H140972   4.252   6.593   2.308  0.1636 -1.3546 -0.4522
 6471TIP3    H240973   4.126   6.599   2.391 -0.4600 -0.6020 -1.4378
 6472TIP3   OH240974   1.313   1.123   6.780  0.2815 -0.3618 -0.2008
 6472TIP3    H140975   1.394   1.172   6.796 -0.4542  1.2257 -1.1103
 6472TIP3    H240976   1.244   1.180   6.813 -0.4771 -2.0239  1.2753
 6473TIP3   OH240977   1.718   3.256   8.672 -0.2368  0.4274  0.4173
 6473TIP3    H140978   1.705   3.180   8.615 -0.6665  0.1010  0.9344
 6473TIP3    H240979   1.786   3.307   8.630 -1.0541  0.5701 -0.7815
 6474TIP3   OH240980   1.424   1.882   0.256  0.2452 -0.5149  0.3052
 6474TIP3    H140981   1.398   1.951   0.316  0.5783  3.0509 -3.1968
 6474TIP3    H240982   1.341   1.844   0.226  0.0554 -1.7262  2.2472
 6475TIP3   OH240983   1.832   2.670   0.119  0.3872  0.2756 -0.6417
 6475TIP3    H140984   1.913   2.721   0.119 -0.2631  1.3408 -0.4905
 6475TIP3    H240985   1.777   2.711   0.186  0.6709 -2.0204  1.0904
 6476TIP3   OH240986   4.161   6.293   0.854  0.5168  0.1326 -0.0606
 6476TIP3    H140987   4.213   6.339   0.920  1.8368 -0.2465 -0.7963
 6476TIP3    H240988   4.071   6.317   0.874  0.9808  1.0385  1.0941
 6477TIP3   OH240989   2.631   4.110   0.574  0.3092 -0.5192  0.1998
 6477TIP3    H140990   2.666   4.021   0.579  2.3074  0.2855  1.5789
 6477TIP3    H240991   2.690   4.157   0.516 -0.4234  0.0756 -0.0881
 6478TIP3   OH240992   6.504   1.026   0.227  0.0197  0.2658  0.0081
 6478TIP3    H140993   6.575   0.976   0.186  0.6345  0.6697  0.5534
 6478TIP3    H240994   6.479   0.975   0.304 -0.0153  0.3050  0.0231
 6479TIP3   OH240995   2.837   1.186   8.080 -0.2226 -0.0658 -0.5653
 6479TIP3    H140996   2.812   1.100   8.115  0.3519 -0.1920 -0.4513
 6479TIP3    H240997   2.929   1.195   8.104 -0.1227  0.3318 -1.0893
 6480TIP3   OH240998   0.408   1.427   1.205 -0.2474 -0.1831  0.3007
 6480TIP3    H140999   0.431   1.517   1.183  0.7671 -0.0680  1.7071
 6480TIP3    H241000   0.465   1.374   1.150 -0.0054  0.0528  0.3214
 6481TIP3   OH241001   5.933   3.938   8.186  0.1222 -0.0153 -0.4896
 6481TIP3    H141002   5.947   3.873   8.255  2.1577  1.8254  0.9805
 6481TIP3    H241003   5.893   3.889   8.114 -0.2027 -2.4447  1.2284
 6482TIP3   OH241004   1.209   1.956   7.204  0.3695 -0.2102 -0.0316
 6482TIP3    H141005   1.277   2.018   7.178  0.7609  0.2739  1.9921
 6482TIP3    H241006   1.151   2.006   7.261 -1.5170 -0.7155 -1.4255
 6483TIP3   OH241007   5.668   4.783   7.843  0.2012  0.0942  0.1484
 6483TIP3    H141008   5.713   4.714   7.793  0.9560  0.4021  0.4039
 6483TIP3    H241009   5.681   4.862   7.791 -0.1480  0.1647  0.1667
 6484TIP3   OH241010   5.061   2.625   8.512 -0.1247 -0.6301  0.7204
 6484TIP3    H141011   5.081   2.532   8.507 -1.9793 -1.0177 -0.5347
 6484TIP3    H241012   4.965   2.630   8.511 -0.1927  1.3341 -3.1491
 6485TIP3   OH241013   3.454   0.561   1.127  0.0214  0.0018  0.0334
 6485TIP3    H141014   3.364   0.584   1.103  0.4565 -0.3743 -2.1921
 6485TIP3    H241015   3.508   0.621   1.076  1.0473 -1.5955 -0.8640
 6486TIP3   OH241016   2.960   4.448   2.648  0.1540  0.1755  0.8237
 6486TIP3    H141017   2.995   4.417   2.565  2.4010  3.4223  0.3955
 6486TIP3    H241018   3.031   4.435   2.711  0.7513  3.0393  0.8678
 6487TIP3   OH241019   5.322   6.701   6.793 -0.3057 -0.5008  0.0011
 6487TIP3    H141020   5.402   6.722   6.841  0.9191  1.9831 -2.8057
 6487TIP3    H241021   5.338   6.615   6.755  1.2205  0.0813 -0.7623
 6488TIP3   OH241022   3.020   6.505   8.159 -0.0695 -0.4250  0.1857
 6488TIP3    H141023   3.008   6.534   8.069 -0.0505 -0.1081  0.2851
 6488TIP3    H241024   3.056   6.581   8.205  0.6349 -0.8132  0.2945
 6489TIP3   OH241025   3.748   5.869   7.378  0.5549  0.0950 -0.2760
 6489TIP3    H141026   3.785   5.881   7.291  0.2798 -2.8442 -0.9289
 6489TIP3    H241027   3.714   5.779   7.377 -1.4611  0.7148  2.1535
 6490TIP3   OH241028   4.411   3.393   2.631  0.2802  0.0505 -0.5926
 6490TIP3    H141029   4.448   3.334   2.566  0.2940 -1.2888  0.5707
 6490TIP3    H241030   4.372   3.335   2.696 -0.5359  1.3626  0.1267
 6491TIP3   OH241031   5.560   3.994   0.542 -0.1654  0.6591 -0.2794
 6491TIP3    H141032   5.596   3.934   0.607 -0.2798  1.5208  0.6104
 6491TIP3    H241033   5.613   3.979   0.464  1.3590  1.0232  0.6278
 6492TIP3   OH241034   1.894   1.352   2.294  0.1619 -0.4474 -1.0088
 6492TIP3    H141035   1.829   1.411   2.256 -1.1062 -1.1220  0.0447
 6492TIP3    H241036   1.939   1.406   2.359 -0.4394 -0.4061 -0.6186
 6493TIP3   OH241037   5.641   5.958   0.584  0.3971 -0.2656  0.4341
 6493TIP3    H141038   5.731   5.951   0.552 -0.4239 -1.4785 -1.8436
 6493TIP3    H241039   5.605   5.870   0.575 -1.0887  0.2270  1.1271
 6494TIP3   OH241040   1.773   0.714   0.686 -0.0653 -0.0946  0.3336
 6494TIP3    H141041   1.791   0.622   0.668  0.0729 -0.0746  0.3646
 6494TIP3    H241042   1.721   0.713   0.766 -1.6106 -0.2437 -0.6470
 6495TIP3   OH241043   2.704   0.421   7.112  0.7935 -0.3029  1.2719
 6495TIP3    H141044   2.704   0.363   7.036  1.0407 -0.0556  1.0805
 6495TIP3    H241045   2.611   0.433   7.133  0.7534 -1.3437  1.7627
 6496TIP3   OH241046   1.217   1.081   2.685  0.1650  0.2810 -0.5378
 6496TIP3    H141047   1.206   1.081   2.590 -0.0082  0.1859 -0.5175
 6496TIP3    H241048   1.230   0.989   2.707  1.0579  0.3848 -0.5673
 6497TIP3   OH241049   3.769   4.225   8.222  0.6514 -0.0654  0.0913
 6497TIP3    H141050   3.863   4.213   8.235  0.9558  0.6902 -1.1927
 6497TIP3    H241051   3.754   4.318   8.242 -0.1784 -0.5819  2.0767
 6498TIP3   OH241052   5.541   6.405   2.369  0.6833  0.1744 -0.0020
 6498TIP3    H141053   5.483   6.422   2.444 -1.3419 -0.1912 -1.3861
 6498TIP3    H241054   5.534   6.483   2.315 -1.1851 -1.1058 -1.7699
 6499TIP3   OH241055   3.379   2.177   0.694  0.4072  0.7077 -0.1517
 6499TIP3    H141056   3.438   2.164   0.769  0.9801  0.6907 -0.6010
 6499TIP3    H241057   3.387   2.098   0.642  0.6462  1.0631 -0.6640
 6500TIP3   OH241058   5.061   5.676   2.474 -0.1840 -0.4240 -0.2816
 6500TIP3    H141059   5.141   5.639   2.437 -1.1208 -1.2263 -1.6665
 6500TIP3    H241060   5.051   5.761   2.431  0.0409 -0.2229  0.0637
 6501TIP3   OH241061   4.874   2.688   8.083  0.1434 -0.4644 -0.1642
 6501TIP3    H141062   4.919   2.627   8.026 -0.2193 -0.6519 -0.2567
 6501TIP3    H241063   4.934   2.762   8.092  0.7204 -0.9663  0.2103
 6502TIP3   OH241064   6.531   5.946   7.419 -0.3549 -0.5614  0.3007
 6502TIP3    H141065   6.536   5.915   7.329 -3.3688  0.0689 -0.1886
 6502TIP3    H241066   6.539   5.867   7.472 -0.3065 -1.1798 -0.6065
 6503TIP3   OH241067   5.579   3.824   7.521 -0.1624  0.4547  0.0933
 6503TIP3    H141068   5.518   3.871   7.577  0.8263  2.1975 -0.2298
 6503TIP3    H241069   5.665   3.858   7.545  0.5159 -0.5677 -0.7812
 6504TIP3   OH241070   2.998   1.553   2.072  0.7012  0.5939 -0.0811
 6504TIP3    H141071   2.988   1.627   2.132 -0.0348  0.2618  0.2299
 6504TIP3    H241072   2.913   1.548   2.028  0.4577 -0.5679  0.4973
 6505TIP3   OH241073   2.014   1.850   0.652 -0.0821 -0.1774 -0.3350
 6505TIP3    H141074   2.014   1.780   0.716  0.5246 -0.3735 -0.5438
 6505TIP3    H241075   2.106   1.866   0.633 -0.2583 -0.6977 -1.7784
 6506TIP3   OH241076   5.884   5.148   7.777 -0.2935  0.5923  0.3877
 6506TIP3    H141077   5.898   5.233   7.735 -0.4914 -0.5007 -2.0433
 6506TIP3    H241078   5.950   5.091   7.737 -1.6675 -0.9472  0.2226
 6507TIP3   OH241079   2.635   2.819   0.441  0.4018  0.8024  0.5479
 6507TIP3    H141080   2.693   2.744   0.426  0.6288  1.2252 -0.8771
 6507TIP3    H241081   2.557   2.782   0.481  0.0857 -0.3829 -1.0656
 6508TIP3   OH241082   3.865   5.809   0.251  0.3753  0.2019 -0.7275
 6508TIP3    H141083   3.788   5.819   0.195  0.8271  0.2933 -1.3537
 6508TIP3    H241084   3.861   5.719   0.282 -1.4689  0.9535  1.5321
 6509TIP3   OH241085   6.610   2.795   2.457 -0.2474 -0.0453  0.5771
 6509TIP3    H141086   6.531   2.847   2.445 -0.3270 -0.1655  0.5844
 6509TIP3    H241087   6.610   2.772   2.550  0.0793  0.4151  0.6960
 6510TIP3   OH241088   5.479   3.201   1.913 -0.2197  0.4624 -0.3370
 6510TIP3    H141089   5.390   3.229   1.934  0.0940  0.2138  1.4907
 6510TIP3    H241090   5.506   3.259   1.842 -2.1585 -0.1059 -1.6141
 6511TIP3   OH241091   4.361   1.362   3.050  0.4611  0.1819  0.9694
 6511TIP3    H141092   4.433   1.402   3.099  0.1645  1.3166  0.5055
 6511TIP3    H241093   4.402   1.326   2.972  0.6780 -0.1203  1.2198
 6512TIP3   OH241094   0.776   3.738   2.194 -0.0696  0.2657  0.3179
 6512TIP3    H141095   0.798   3.736   2.101  1.3595 -2.3608  0.6114
 6512TIP3    H241096   0.681   3.730   2.197 -0.1954  1.1276 -0.8903
 6513TIP3   OH241097   2.989   3.421   3.174  0.1873  0.7060  0.3838
 6513TIP3    H141098   2.901   3.445   3.144 -0.9743 -3.3829 -0.0603
 6513TIP3    H241099   3.044   3.432   3.097 -0.6387  0.2687 -0.2874
 6514TIP3   OH241100   2.454   5.080   2.205  0.1655 -0.4315  0.3902
 6514TIP3    H141101   2.424   5.169   2.225  0.3724 -0.4721  0.9086
 6514TIP3    H241102   2.469   5.081   2.111 -0.8688 -0.2363  0.2179
 6515TIP3   OH241103   6.504   5.559   6.767  0.5188  0.0155  0.2466
 6515TIP3    H141104   6.508   5.482   6.823 -1.2362 -1.3398 -1.3776
 6515TIP3    H241105   6.493   5.524   6.679  2.3538  2.0873 -0.9181
 6516TIP3   OH241106   6.378   6.598   8.706  0.3921 -0.2575 -0.1414
 6516TIP3    H141107   6.426   6.538   8.648  0.1151 -0.3601 -0.2625
 6516TIP3    H241108   6.436   6.608   8.782 -0.7089 -2.8118  1.1618
 6517TIP3   OH241109   4.016   1.646   7.733  0.3324 -0.0478  0.0660
 6517TIP3    H141110   3.944   1.705   7.755  0.0916 -0.6190  0.8304
 6517TIP3    H241111   3.985   1.559   7.756  0.6558 -0.5020 -1.1360
 6518TIP3   OH241112   2.934   3.780   1.828 -0.1101  0.0255  0.0247
 6518TIP3    H141113   2.969   3.741   1.748 -1.8403 -1.2113 -0.1988
 6518TIP3    H241114   3.008   3.826   1.867  0.6394  1.3141 -2.6532
 6519TIP3   OH241115   1.330   2.650   3.335 -0.1446 -0.0213 -0.1809
 6519TIP3    H141116   1.331   2.555   3.320 -0.6859 -0.4446  2.0929
 6519TIP3    H241117   1.265   2.662   3.404  0.3236  1.9600 -0.0398
 6520TIP3   OH241118   2.688   0.164   8.545 -0.5687 -0.5068 -0.2014
 6520TIP3    H141119   2.636   0.149   8.466 -0.4470  1.5000 -0.7177
 6520TIP3    H241120   2.623   0.163   8.616 -0.8773 -0.9780 -0.4825
 6521TIP3   OH241121   2.078   1.685   1.368 -0.8355 -0.4979  0.1302
 6521TIP3    H141122   2.102   1.736   1.290 -1.9599 -0.6115 -0.3238
 6521TIP3    H241123   2.093   1.594   1.343 -3.4155 -0.7482 -0.8974
 6522TIP3   OH241124   2.387   1.659   0.583 -0.2668 -0.0309  0.1902
 6522TIP3    H141125   2.328   1.605   0.530  1.9851 -1.8236 -0.6779
 6522TIP3    H241126   2.388   1.617   0.669  0.4492 -0.6331 -0.0934
 6523TIP3   OH241127   0.376   2.067   2.623 -0.0992 -0.5390  0.1173
 6523TIP3    H141128   0.413   2.007   2.688 -0.3242 -0.4157  0.3594
 6523TIP3    H241129   0.317   2.123   2.673  1.1225  0.7839  0.1502
 6524TIP3   OH241130   2.516   5.778   7.876  0.4497 -0.4703  0.1752
 6524TIP3    H141131   2.473   5.693   7.879 -1.2777  0.3269 -0.5988
 6524TIP3    H241132   2.571   5.774   7.798 -2.4780  0.3158 -2.0965
 6525TIP3   OH241133   0.053   2.728   0.164 -0.1685 -0.1230 -0.3016
 6525TIP3    H141134   0.001   2.764   0.092 -1.1375  1.0933  0.9672
 6525TIP3    H241135   0.101   2.803   0.199  1.9366 -1.0845 -0.9622
 6526TIP3   OH241136   5.588   5.314   2.051 -0.0972 -0.3499 -0.1987
 6526TIP3    H141137   5.633   5.304   2.135  0.2713  0.4627 -0.2840
 6526TIP3    H241138   5.496   5.326   2.074  0.0564  0.2951  0.1334
 6527TIP3   OH241139   2.994   1.526   1.221 -0.6853  0.1477  0.2396
 6527TIP3    H141140   2.970   1.433   1.217 -0.9351  0.0936  2.2531
 6527TIP3    H241141   3.073   1.532   1.167 -1.4793 -0.9257 -1.1155
 6528TIP3   OH241142   0.268   3.240   2.457 -0.5218 -0.6072 -0.2699
 6528TIP3    H141143   0.285   3.283   2.541 -2.8149  0.2553 -0.1980
 6528TIP3    H241144   0.243   3.150   2.481 -0.8998 -0.4446 -0.0483
 6529TIP3   OH241145   0.628   1.208   7.562  0.4616 -0.4225  0.7963
 6529TIP3    H141146   0.645   1.156   7.483  1.6983  0.6592  0.3035
 6529TIP3    H241147   0.595   1.291   7.529 -0.4355 -0.4818  1.5155
 6530TIP3   OH241148   6.507   4.773   1.144  0.0069 -0.0072 -0.2556
 6530TIP3    H141149   6.571   4.760   1.074  0.9022 -0.0323  0.5419
 6530TIP3    H241150   6.555   4.754   1.224 -1.0576 -0.1849  0.3598
 6531TIP3   OH241151   4.095   3.977   7.469  0.0499  0.0189  0.0177
 6531TIP3    H141152   4.063   3.954   7.382 -0.1840 -1.9714  0.5872
 6531TIP3    H241153   4.020   3.963   7.527  0.2665  1.0929  0.5880
 6532TIP3   OH241154   3.829   1.174   2.365  0.1740 -0.0251  0.0834
 6532TIP3    H141155   3.867   1.101   2.413  0.1241  0.7483  1.3479
 6532TIP3    H241156   3.759   1.135   2.312 -1.0010 -0.6918  2.0334
 6533TIP3   OH241157   6.454   1.999   1.964 -0.0499  0.0719 -0.8217
 6533TIP3    H141158   6.380   2.042   2.007  0.0197  1.9084 -2.3978
 6533TIP3    H241159   6.423   1.909   1.948 -1.4868  0.4641 -0.4111
 6534TIP3   OH241160   2.024   6.680   1.919  0.1629 -0.2643 -0.0983
 6534TIP3    H141161   2.112   6.715   1.903  0.7474 -1.6901 -0.1919
 6534TIP3    H241162   2.020   6.668   2.014  0.1165 -0.3158 -0.1069
 6535TIP3   OH241163   5.703   3.519   8.793 -0.0757 -0.1253 -0.3000
 6535TIP3    H141164   5.640   3.557   8.854  0.8089 -0.3204  0.7771
 6535TIP3    H241165   5.650   3.488   8.719 -1.0931  0.7961  0.0171
 6536TIP3   OH241166   5.350   1.883   8.508 -0.0697 -0.3767 -0.0690
 6536TIP3    H141167   5.428   1.936   8.524  1.0212 -1.8290 -0.4011
 6536TIP3    H241168   5.284   1.945   8.477 -0.3441  1.5990  3.8289
 6537TIP3   OH241169   5.763   4.960   7.092  0.3921  0.0676 -0.6566
 6537TIP3    H141170   5.821   5.036   7.091  0.1605  0.2498 -2.0262
 6537TIP3    H241171   5.675   4.996   7.082 -0.0611 -0.1826  1.7437
 6538TIP3   OH241172   1.719   1.474   2.822 -0.4099 -0.1739 -0.1105
 6538TIP3    H141173   1.626   1.498   2.824  0.2100  2.5107  0.1469
 6538TIP3    H241174   1.763   1.550   2.784  1.8386 -0.8141  1.0361
 6539TIP3   OH241175   0.259   2.681   0.454  0.0386  0.2031  0.4087
 6539TIP3    H141176   0.255   2.755   0.393 -1.0823  0.0284  0.2516
 6539TIP3    H241177   0.209   2.711   0.531 -0.9752 -0.5963  0.0927
 6540TIP3   OH241178   4.386   4.412   0.902 -0.4324 -0.1199 -0.8806
 6540TIP3    H141179   4.306   4.450   0.864  1.3110  0.8613 -3.9313
 6540TIP3    H241180   4.379   4.319   0.884 -1.4033 -0.2313 -0.0233
 6541TIP3   OH241181   0.800   4.830   7.221 -0.3744  0.4571 -0.4737
 6541TIP3    H141182   0.822   4.742   7.190  2.5531  0.5187  1.1090
 6541TIP3    H241183   0.864   4.887   7.179 -0.7532  1.4874  0.3170
 6542TIP3   OH241184   6.322   4.535   2.373  1.2007  0.1602 -0.1795
 6542TIP3    H141185   6.276   4.460   2.410  2.3635  0.0646  1.1487
 6542TIP3    H241186   6.272   4.611   2.403  1.1172  0.0046  0.0802
 6543TIP3   OH241187   5.990   3.523   8.169  0.1010  0.1834 -0.0538
 6543TIP3    H141188   6.011   3.596   8.111 -0.9059  0.8415  0.3832
 6543TIP3    H241189   6.074   3.482   8.188  0.5950  0.8032 -0.8703
 6544TIP3   OH241190   1.446   3.088   0.299  0.0059 -0.2219  0.5148
 6544TIP3    H141191   1.355   3.082   0.271  0.5009  0.1015 -1.2895
 6544TIP3    H241192   1.457   3.180   0.326  0.2985  0.3140 -1.2895
 6545TIP3   OH241193   4.927   5.407   1.656  0.1924 -0.0449 -0.0899
 6545TIP3    H141194   4.909   5.333   1.598  0.5178 -1.4425  1.5159
 6545TIP3    H241195   5.008   5.446   1.622  0.5856 -1.0714 -0.3401
 6546TIP3   OH241196   2.163   0.698   2.601  0.1178  0.4494 -0.0359
 6546TIP3    H141197   2.256   0.702   2.621  0.3623  0.0844 -1.0658
 6546TIP3    H241198   2.132   0.788   2.613  0.9754  0.9475 -1.3988
 6547TIP3   OH241199   1.531   5.914   1.009 -0.1533 -1.0512 -0.1246
 6547TIP3    H141200   1.461   5.850   1.015 -1.0023 -0.0381  3.4800
 6547TIP3    H241201   1.610   5.865   1.034 -0.4435 -1.1910  0.5550
 6548TIP3   OH241202   3.136   3.280   0.671 -0.3102 -0.1299 -0.7572
 6548TIP3    H141203   3.093   3.203   0.709 -1.3046  0.8344  0.1574
 6548TIP3    H241204   3.226   3.252   0.655 -1.2036 -2.2015 -2.6660
 6549TIP3   OH241205   1.229   3.157   0.109  0.2656 -0.0519 -0.3574
 6549TIP3    H141206   1.242   3.243   0.069  0.6782 -0.1550 -0.4479
 6549TIP3    H241207   1.231   3.095   0.036 -1.0328 -0.0579 -0.4167
 6550TIP3   OH241208   0.909   4.155   8.078  0.2854  0.0263 -0.0995
 6550TIP3    H141209   0.961   4.131   8.155  2.2692  0.7545 -1.1579
 6550TIP3    H241210   0.828   4.190   8.115  0.1476 -1.8754  1.5822
 6551TIP3   OH241211   6.311   6.030   8.216 -0.1758  0.4799 -0.1754
 6551TIP3    H141212   6.245   6.066   8.275 -1.0237 -0.7045 -0.3486
 6551TIP3    H241213   6.290   5.937   8.212  1.6251  0.0427 -0.1226
 6552TIP3   OH241214   2.192   1.858   0.360 -0.0514 -0.5680  0.1343
 6552TIP3    H141215   2.281   1.823   0.365  0.7529  0.6281 -3.1752
 6552TIP3    H241216   2.138   1.783   0.334  0.7272 -0.5730 -1.6234
 6553TIP3   OH241217   1.570   1.717   1.253 -0.3600  0.0164 -0.5517
 6553TIP3    H141218   1.660   1.747   1.263 -0.7736  1.1648 -0.0273
 6553TIP3    H241219   1.563   1.640   1.310  0.3530 -0.2312 -0.7939
 6554TIP3   OH241220   3.672   1.255   2.741 -0.5420 -0.5424 -0.4463
 6554TIP3    H141221   3.633   1.290   2.661 -0.2991 -0.8635 -0.7078
 6554TIP3    H241222   3.759   1.293   2.745 -0.3657 -0.9214 -0.6060
 6555TIP3   OH241223   0.098   3.321   0.652  0.1999 -0.1399 -0.6263
 6555TIP3    H141224   0.155   3.355   0.720  1.8169 -0.7908 -1.6027
 6555TIP3    H241225   0.058   3.399   0.613  1.9228  0.5135 -1.1808
 6556TIP3   OH241226   4.136   2.339   8.485  0.4260  0.1230 -0.5929
 6556TIP3    H141227   4.079   2.262   8.496  1.4869 -1.2219 -3.3401
 6556TIP3    H241228   4.225   2.304   8.491  0.9604  1.5061 -0.0428
 6557TIP3   OH241229   6.613   0.759   0.826  0.6549 -0.0358  0.4865
 6557TIP3    H141230   6.600   0.685   0.767  0.9674 -0.7342  1.2801
 6557TIP3    H241231   6.535   0.758   0.883  1.5012 -0.9028  1.6936
 6558TIP3   OH241232   3.020   2.552   8.179 -0.3963  0.1493  0.1111
 6558TIP3    H141233   2.970   2.619   8.132  1.0933  0.4196 -1.1922
 6558TIP3    H241234   3.103   2.595   8.198  0.1410 -0.9561  0.3054
 6559TIP3   OH241235   5.554   5.483   0.271  0.1390  0.1421  0.0668
 6559TIP3    H141236   5.593   5.490   0.184 -0.0926 -0.0957 -0.0577
 6559TIP3    H241237   5.470   5.441   0.256  0.1819 -0.0747  0.4319
 6560TIP3   OH241238   6.643   2.317   8.273  0.0997 -0.3091 -0.0974
 6560TIP3    H141239   6.643   2.255   8.200  1.4676 -0.5273  0.0577
 6560TIP3    H241240   6.721   2.294   8.323 -0.8986 -0.2777  1.5469
 6561TIP3   OH241241   6.228   6.656   2.112 -0.2324 -0.0126 -0.0887
 6561TIP3    H141242   6.241   6.749   2.131 -1.8759  0.4389 -0.9945
 6561TIP3    H241243   6.300   6.612   2.157 -0.2145  1.5634  1.5136
 6562TIP3   OH241244   2.455   3.194   8.077  0.2359  0.3206  0.0450
 6562TIP3    H141245   2.456   3.106   8.039  1.4315 -0.1745  1.1659
 6562TIP3    H241246   2.417   3.249   8.008  1.7125 -0.6355 -1.6252
 6563TIP3   OH241247   3.355   1.839   0.884 -0.1851 -0.2786 -0.0506
 6563TIP3    H141248   3.420   1.909   0.894 -0.5171  0.0729 -0.3440
 6563TIP3    H241249   3.301   1.866   0.810 -0.9206 -0.3770  0.4389
 6564TIP3   OH241250   0.102   4.239   8.329 -0.2397 -0.1072 -0.0445
 6564TIP3    H141251   0.147   4.241   8.414 -2.0481  1.1184  0.9501
 6564TIP3    H241252   0.173   4.241   8.265  1.1788  2.0932  1.4329
 6565TIP3   OH241253   3.011   6.678   8.415 -0.3230 -0.3883 -0.6012
 6565TIP3    H141254   2.936   6.625   8.444 -0.0731 -2.3993 -3.1623
 6565TIP3    H241255   3.087   6.626   8.441 -0.0340 -0.8002 -2.1758
 6566TIP3   OH241256   1.877   1.469   0.597 -0.7082  0.2723  0.3816
 6566TIP3    H141257   1.840   1.524   0.666 -1.7539  0.1616 -0.0725
 6566TIP3    H241258   1.802   1.449   0.540  0.3221  1.3470 -1.4541
 6567TIP3   OH241259   0.309   0.239   8.528 -0.4007 -0.3733  0.0205
 6567TIP3    H141260   0.232   0.267   8.479 -0.2619  1.6102  0.8284
 6567TIP3    H241261   0.340   0.319   8.571  3.2113 -0.6402 -1.7224
 6568TIP3   OH241262   6.663   5.062   8.161  0.6209  0.2061 -0.5614
 6568TIP3    H141263   6.612   4.990   8.125 -0.3283  0.0648  0.9805
 6568TIP3    H241264   6.715   5.094   8.088  1.2655 -2.2006 -1.2341
 6569TIP3   OH241265   4.161   5.948   7.144 -0.0808  0.3136 -0.4831
 6569TIP3    H141266   4.163   6.026   7.200  1.0857  0.2284 -0.3803
 6569TIP3    H241267   4.168   5.875   7.205 -1.9954  0.0713 -0.5143
 6570TIP3   OH241268   6.300   0.658   0.538  0.1301  0.5938  0.8364
 6570TIP3    H141269   6.256   0.623   0.615 -1.2291 -0.6827 -0.4308
 6570TIP3    H241270   6.351   0.585   0.504  0.3829  1.0056  0.3082
 6571TIP3   OH241271   4.417   4.526   7.566  0.5135 -0.3039  0.4775
 6571TIP3    H141272   4.478   4.588   7.527  1.0241 -0.2916  1.2793
 6571TIP3    H241273   4.412   4.454   7.503 -1.1052  1.1043 -1.1067
 6572TIP3   OH241274   1.286   5.669   1.545 -0.5225 -0.4053 -0.2393
 6572TIP3    H141275   1.297   5.728   1.471  1.1483  0.0454  0.3046
 6572TIP3    H241276   1.336   5.591   1.520 -0.9755 -0.7391 -0.1006
 6573TIP3   OH241277   5.669   4.190   7.164 -0.1106 -0.2703  0.1255
 6573TIP3    H141278   5.663   4.284   7.145 -0.8005 -0.2879  0.2041
 6573TIP3    H241279   5.593   4.152   7.118  0.6540 -0.9158 -0.6397
 6574TIP3   OH241280   3.285   0.206   7.607 -0.1043 -0.5494 -0.2596
 6574TIP3    H141281   3.356   0.216   7.544 -0.5215  0.5965 -0.5807
 6574TIP3    H241282   3.302   0.273   7.674 -0.8414 -0.2921 -0.3164
 6575TIP3   OH241283   0.014   3.227   7.295  0.4130  0.6299  0.0894
 6575TIP3    H141284  -0.003   3.304   7.241 -0.1600  0.7277  0.4113
 6575TIP3    H241285   0.086   3.182   7.249  1.0774  1.5906  0.1500
 6576TIP3   OH241286   2.972   4.581   8.507 -0.0460 -0.0297 -0.2444
 6576TIP3    H141287   2.960   4.675   8.511 -0.9972  0.1532 -3.7723
 6576TIP3    H241288   2.898   4.544   8.555 -2.2175  1.1047 -2.5210
 6577TIP3   OH241289   5.398   0.767   2.145 -0.2743 -0.2621  0.0658
 6577TIP3    H141290   5.431   0.837   2.202  0.6311 -2.2058  2.0980
 6577TIP3    H241291   5.309   0.794   2.123 -0.2874  1.1033  1.5664
 6578TIP3   OH241292   4.513   0.374   0.299 -0.5798 -0.0330  0.7723
 6578TIP3    H141293   4.482   0.437   0.233 -0.9423  2.2005  2.9312
 6578TIP3    H241294   4.433   0.345   0.342 -0.4104 -2.0564 -0.1686
 6579TIP3   OH241295   3.207   1.525   1.693  0.1048  0.1507  0.2336
 6579TIP3    H141296   3.130   1.565   1.653 -0.2643 -0.8931 -0.1287
 6579TIP3    H241297   3.176   1.494   1.778  0.4299  0.7569  0.5819
 6580TIP3   OH241298   3.411   0.826   1.499  0.5813  1.0610 -0.2013
 6580TIP3    H141299   3.325   0.864   1.480  0.6981  0.5802 -1.9071
 6580TIP3    H241300   3.424   0.762   1.429  1.8030  0.2347  0.7410
 6581TIP3   OH241301   6.179   1.202   2.737 -0.1429 -0.3627 -0.3511
 6581TIP3    H141302   6.095   1.236   2.767 -0.4911 -0.4824 -1.1385
 6581TIP3    H241303   6.175   1.210   2.641  0.0278 -1.9770 -0.5224
 6582TIP3   OH241304   0.247   6.191   2.598  0.2923  0.4507 -0.1048
 6582TIP3    H141305   0.323   6.235   2.560  0.2217 -0.3745 -1.2126
 6582TIP3    H241306   0.284   6.131   2.663  1.0295 -3.0223 -3.4590
 6583TIP3   OH241307   6.810   3.114   0.302 -0.2040  0.1464  0.3305
 6583TIP3    H141308   6.725   3.084   0.337 -0.2383  0.5837  0.6280
 6583TIP3    H241309   6.789   3.195   0.256 -0.3099 -0.8593 -1.4876
 6584TIP3   OH241310   6.790   3.686   1.176 -0.9656  0.4181  0.2899
 6584TIP3    H141311   6.834   3.673   1.092 -2.8001 -0.2798 -0.6387
 6584TIP3    H241312   6.846   3.643   1.240 -0.3461 -0.5282 -0.8458
 6585TIP3   OH241313   2.280   1.891   0.682 -0.3669 -0.0309  0.0861
 6585TIP3    H141314   2.324   1.874   0.599  0.3580  2.1274 -0.0600
 6585TIP3    H241315   2.327   1.837   0.745  0.3265 -0.2752 -0.6135
 6586TIP3   OH241316   6.004   3.431   8.439 -0.3440  0.0841  0.3375
 6586TIP3    H141317   5.992   3.484   8.518 -0.5862  0.6808 -0.0948
 6586TIP3    H241318   5.986   3.341   8.468  2.0257 -0.0868  1.5635
 6587TIP3   OH241319   4.444   0.530   8.078  0.2094 -0.0411 -0.2049
 6587TIP3    H141320   4.537   0.542   8.057 -0.0103  0.1917 -1.0949
 6587TIP3    H241321   4.406   0.494   7.998 -0.4061 -0.4801  0.2715
 6588TIP3   OH241322   3.831   2.089   2.593  0.1603 -0.6807  0.8737
 6588TIP3    H141323   3.767   2.160   2.601  1.3093  0.3452  1.0975
 6588TIP3    H241324   3.892   2.102   2.666  2.0538 -0.1497 -0.7207
 6589TIP3   OH241325   3.967   1.024   1.707 -0.2708  0.2271 -0.4638
 6589TIP3    H141326   3.982   0.932   1.729  0.5846  0.2459 -0.9018
 6589TIP3    H241327   4.043   1.048   1.654 -0.0036  1.4441  0.4252
 6590TIP3   OH241328   1.319   4.297   7.906 -0.2378  0.1841  0.5565
 6590TIP3    H141329   1.371   4.272   7.830  1.8082  0.9717  1.6358
 6590TIP3    H241330   1.382   4.333   7.968 -2.0385  0.9071  2.0680
 6591TIP3   OH241331   1.409   5.560   0.699  0.2676 -0.5743  0.0676
 6591TIP3    H141332   1.442   5.534   0.785 -0.4712 -0.7705  0.2979
 6591TIP3    H241333   1.349   5.489   0.674 -0.3162 -0.0176 -0.1441
 6592TIP3   OH241334   3.060   6.538   0.906  0.5755  0.4879 -0.5725
 6592TIP3    H141335   3.120   6.577   0.969  4.7549 -2.6091 -2.1253
 6592TIP3    H241336   3.059   6.445   0.928 -0.0502 -0.2725 -3.3407
 6593TIP3   OH241337   2.179   5.195   0.038 -0.1094 -0.6058 -0.2658
 6593TIP3    H141338   2.194   5.118   0.092  1.3632 -0.5971 -0.6334
 6593TIP3    H241339   2.092   5.226   0.063 -0.6849 -2.3277 -0.0576
 6594TIP3   OH241340   5.590   1.905   8.688 -0.4801  0.3449 -0.1864
 6594TIP3    H141341   5.607   1.973   8.623 -1.5185  0.1669 -0.6680
 6594TIP3    H241342   5.677   1.875   8.714 -0.0306  0.4753 -1.4363
 6595TIP3   OH241343   3.733   3.423   8.606  0.4493  0.4472 -0.0022
 6595TIP3    H141344   3.745   3.333   8.574 -1.2873  0.2164 -0.0776
 6595TIP3    H241345   3.779   3.477   8.543 -0.6141 -0.2181 -1.4073
 6596TIP3   OH241346   1.769   2.594   1.752 -0.4584  0.2392  0.4674
 6596TIP3    H141347   1.758   2.656   1.825 -0.0513  1.1299 -0.2100
 6596TIP3    H241348   1.731   2.512   1.785 -0.2563  0.6082  1.6887
 6597TIP3   OH241349   5.516   5.268   7.630  0.1364 -0.5853 -0.5030
 6597TIP3    H141350   5.511   5.359   7.660 -0.2466 -0.3717 -1.2006
 6597TIP3    H241351   5.525   5.217   7.711 -0.7025 -0.0148 -0.0343
 6598TIP3   OH241352   4.701   6.028   1.202  0.0748  0.3091  0.2738
 6598TIP3    H141353   4.636   6.002   1.267 -0.3949  0.4233 -0.1394
 6598TIP3    H241354   4.774   6.063   1.253 -0.2207  0.2464  0.7425
 6599TIP3   OH241355   5.613   4.721   0.774  0.3643 -0.0957 -0.2147
 6599TIP3    H141356   5.648   4.733   0.686  1.1868 -1.8615 -0.1833
 6599TIP3    H241357   5.524   4.755   0.769  0.6191  0.4404 -1.5442
 6600TIP3   OH241358   3.011   5.828   2.616  0.0984  0.0974  0.0995
 6600TIP3    H141359   3.104   5.850   2.614  0.0006  0.5742 -2.2741
 6600TIP3    H241360   2.966   5.912   2.604 -0.6345 -0.1601  0.9567
 6601TIP3   OH241361   6.119   2.298   7.938 -0.2456 -0.3383  0.2071
 6601TIP3    H141362   6.075   2.354   7.874  1.0472 -1.4388 -1.7271
 6601TIP3    H241363   6.092   2.209   7.915  0.2313 -0.7701  1.2229
 6602TIP3   OH241364   2.082   2.714   0.721  0.1900  0.0450  0.3936
 6602TIP3    H141365   2.063   2.695   0.629  0.7103  1.3743 -0.0083
 6602TIP3    H241366   2.168   2.755   0.720  0.0834  0.3229  1.4463
 6603TIP3   OH241367   0.113   3.934   0.776 -0.0584 -0.0055  0.0383
 6603TIP3    H141368   0.091   3.852   0.732 -0.1821 -0.1108  0.2942
 6603TIP3    H241369   0.054   3.999   0.737  0.5124  0.0987 -0.6502
 6604TIP3   OH241370   3.678   4.801   3.297 -0.6153 -0.1173  0.3869
 6604TIP3    H141371   3.618   4.870   3.328 -1.9428 -1.1588  0.2351
 6604TIP3    H241372   3.632   4.720   3.318  0.2832 -0.9289 -0.7231
 6605TIP3   OH241373   0.134   5.856   6.427 -0.8256  0.1000 -0.0211
 6605TIP3    H141374   0.176   5.938   6.452 -2.0340  0.8863 -0.4660
 6605TIP3    H241375   0.098   5.873   6.340  2.2365 -2.1736 -1.9363
 6606TIP3   OH241376   5.770   1.034   8.811  0.3783 -0.1488 -0.1269
 6606TIP3    H141377   5.733   0.946   8.816  1.5357 -0.7516 -1.4564
 6606TIP3    H241378   5.707   1.083   8.759  0.7474 -0.7954 -1.2161
 6607TIP3   OH241379   2.869   1.699   8.602  0.3842  0.5843  0.0654
 6607TIP3    H141380   2.817   1.761   8.552  0.8384 -1.1068 -2.7107
 6607TIP3    H241381   2.811   1.624   8.614  0.8744  0.2748  0.5305
 6608TIP3   OH241382   0.597   4.934   8.375 -0.0027  0.2179  0.2778
 6608TIP3    H141383   0.588   4.985   8.295  0.3256 -0.9132 -0.4971
 6608TIP3    H241384   0.553   4.851   8.356 -1.5209  0.5830  1.9012
 6609TIP3   OH241385   2.415   1.181   8.151  0.4377 -0.3794 -0.5013
 6609TIP3    H141386   2.381   1.239   8.220 -4.3572 -0.8717 -2.0913
 6609TIP3    H241387   2.427   1.238   8.075  5.8611  0.1952  0.3616
 6610TIP3   OH241388   1.744   2.115   0.270 -0.4773  0.3998  0.1033
 6610TIP3    H141389   1.825   2.069   0.250 -0.5057  0.4698 -0.1752
 6610TIP3    H241390   1.712   2.073   0.350 -0.3567  0.1288  0.0098
 6611TIP3   OH241391   1.330   6.627   8.740 -0.7692  0.2195 -0.2289
 6611TIP3    H141392   1.238   6.603   8.742 -1.0823  1.2438 -1.3650
 6611TIP3    H241393   1.377   6.545   8.759 -1.9019 -0.2555  0.6182
 6612TIP3   OH241394   3.634   0.005   0.926  0.1817  0.2691 -0.5578
 6612TIP3    H141395   3.546  -0.028   0.909  0.4582 -0.7503 -0.0997
 6612TIP3    H241396   3.623   0.099   0.941 -1.0303 -0.1014  1.0434
 6613TIP3   OH241397   3.358   0.184   2.029 -0.6170  0.1416  0.2998
 6613TIP3    H141398   3.325   0.207   1.942  0.6336 -0.0991 -0.2672
 6613TIP3    H241399   3.370   0.089   2.026 -0.9402  0.0761  0.8779
 6614TIP3   OH241400   2.354   0.941   0.610  0.4556  0.2552 -0.0686
 6614TIP3    H141401   2.282   0.881   0.631  1.7196 -1.0709  0.7408
 6614TIP3    H241402   2.317   1.028   0.620 -1.2844 -0.3824 -0.6492
 6615TIP3   OH241403   0.415   0.557   7.831 -0.1123 -0.0696  0.0877
 6615TIP3    H141404   0.499   0.526   7.796 -0.2858 -1.3867  0.7454
 6615TIP3    H241405   0.437   0.638   7.877  0.3158  1.0486 -1.9536
 6616TIP3   OH241406   5.519   3.692   2.122 -0.2230  0.5822  0.0682
 6616TIP3    H141407   5.574   3.615   2.111 -1.1064 -0.0146 -0.3622
 6616TIP3    H241408   5.564   3.745   2.187  0.4213 -0.2797  0.3489
 6617TIP3   OH241409   0.441   4.478   0.706  0.5516  0.4540 -0.0875
 6617TIP3    H141410   0.439   4.477   0.610  1.8670  0.1304 -0.1333
 6617TIP3    H241411   0.508   4.543   0.728  0.6857  0.0946  0.5961
 6618TIP3   OH241412   1.337   5.772   2.765 -0.1993  0.7279 -0.1091
 6618TIP3    H141413   1.263   5.787   2.706 -0.9028  0.1773  0.6146
 6618TIP3    H241414   1.383   5.855   2.768  0.7427  0.3834 -2.6331
 6619TIP3   OH241415   0.672   5.814   1.197 -0.1491 -0.4920 -0.3844
 6619TIP3    H141416   0.747   5.842   1.251  0.5280 -1.3171 -0.8724
 6619TIP3    H241417   0.686   5.721   1.184 -2.9330 -1.3888  2.0766
 6620TIP3   OH241418   6.742   2.299   7.002 -0.0571  0.3906 -0.9491
 6620TIP3    H141419   6.735   2.227   7.065  0.4831 -0.0192 -1.3471
 6620TIP3    H241420   6.836   2.318   6.999 -0.2879  1.7712 -0.1207
 6621TIP3   OH241421   2.869   5.942   2.174  0.0316  1.1445  0.4894
 6621TIP3    H141422   2.813   5.886   2.120  3.2780  1.2930 -3.5029
 6621TIP3    H241423   2.901   5.884   2.243 -0.4865 -0.5468 -0.6312
 6622TIP3   OH241424   2.401   0.218   8.036 -0.4356 -0.5777  0.3312
 6622TIP3    H141425   2.421   0.262   7.953 -0.8924 -1.5346 -0.3099
 6622TIP3    H241426   2.369   0.287   8.093  0.0523  0.1295 -0.2389
 6623TIP3   OH241427   0.829   3.664   0.831  0.3221 -0.4819  0.3692
 6623TIP3    H141428   0.794   3.667   0.742  0.8137  2.6095  0.1706
 6623TIP3    H241429   0.922   3.682   0.821  0.0445  2.0518  1.5600
 6624TIP3   OH241430   4.309   2.015   1.616 -0.1168 -0.4018 -0.2101
 6624TIP3    H141431   4.295   2.094   1.668  1.8153  0.3693 -0.7868
 6624TIP3    H241432   4.380   2.037   1.557 -0.2630 -2.2391 -1.1416
 6625TIP3   OH241433   6.484   5.340   6.915  0.1574 -0.4362  0.3584
 6625TIP3    H141434   6.440   5.387   6.986 -0.1525  0.4176 -0.3707
 6625TIP3    H241435   6.425   5.267   6.895  0.3493 -0.8110  1.1066
 6626TIP3   OH241436   5.752   2.564   7.595  0.1820  0.3391  0.1447
 6626TIP3    H141437   5.793   2.627   7.536  1.0273 -1.0242 -0.7944
 6626TIP3    H241438   5.770   2.597   7.683  1.7362  0.7470 -0.2997
 6627TIP3   OH241439   5.471   1.395   6.942  0.4338 -0.1330  0.4856
 6627TIP3    H141440   5.492   1.373   7.033 -0.7594 -3.1114  0.1626
 6627TIP3    H241441   5.398   1.457   6.948  0.5850 -0.0411  1.5558
 6628TIP3   OH241442   5.681   1.932   0.380 -0.0735 -0.1238 -0.1634
 6628TIP3    H141443   5.675   2.002   0.316  0.3116  0.5661  0.5461
 6628TIP3    H241444   5.591   1.918   0.410 -0.7629 -2.4248 -2.8903
 6629TIP3   OH241445   6.335   2.228   7.436 -0.1666  0.0957 -0.1192
 6629TIP3    H141446   6.382   2.154   7.398 -2.0674 -2.1119  1.5136
 6629TIP3    H241447   6.317   2.286   7.362  0.1362 -1.7760 -1.7429
 6630TIP3   OH241448   4.930   0.159   0.775 -0.7157  0.1780  0.2188
 6630TIP3    H141449   4.905   0.235   0.827 -0.7389 -0.1160  0.6464
 6630TIP3    H241450   5.004   0.189   0.722 -0.6159  0.4499  0.5118
 6631TIP3   OH241451   3.231   2.428   1.629  0.1032 -0.1156 -0.6178
 6631TIP3    H141452   3.172   2.503   1.641  1.5727  0.9156  0.4644
 6631TIP3    H241453   3.232   2.414   1.534 -2.0939 -0.3877 -0.6681
 6632TIP3   OH241454   6.717   1.990   3.126 -0.0931  0.4805 -0.2932
 6632TIP3    H141455   6.771   1.914   3.102  1.1715  1.3090 -0.1487
 6632TIP3    H241456   6.635   1.951   3.158  0.4896 -0.8239 -0.2965
 6633TIP3   OH241457   3.187   5.996   7.845  0.0329 -0.0224  0.4431
 6633TIP3    H141458   3.168   6.007   7.938  2.1720  0.2218  0.9036
 6633TIP3    H241459   3.184   6.085   7.809 -0.4531 -0.0780  0.3370
 6634TIP3   OH241460   5.109   4.798   7.705 -0.4089  0.0889 -0.0566
 6634TIP3    H141461   5.136   4.706   7.699 -0.5458  0.1058 -1.2067
 6634TIP3    H241462   5.119   4.820   7.797  0.6460 -0.7778  0.0607
 6635TIP3   OH241463   4.603   3.686   0.266  0.3597  0.0845 -0.2261
 6635TIP3    H141464   4.630   3.633   0.192  0.9104 -0.5174  0.3879
 6635TIP3    H241465   4.667   3.757   0.269  1.4912 -0.9063  0.7523
 6636TIP3   OH241466   0.182   4.212   0.363 -0.2605 -1.1742  0.3807
 6636TIP3    H141467   0.092   4.234   0.387  0.0541  1.4350 -0.4991
 6636TIP3    H241468   0.230   4.213   0.445 -0.5184  0.3008  0.5277
 6637TIP3   OH241469   5.278   3.771   1.684  0.1436  0.1654 -0.2989
 6637TIP3    H141470   5.347   3.787   1.749 -0.7502  0.6827  0.5486
 6637TIP3    H241471   5.280   3.849   1.628 -2.2001  2.1224  2.0190
 6638TIP3   OH241472   2.716   3.456   2.328 -0.5575 -0.5427  0.5689
 6638TIP3    H141473   2.735   3.374   2.284 -0.4631 -0.0887 -0.2617
 6638TIP3    H241474   2.648   3.435   2.391  1.2105 -1.7975  2.1751
 6639TIP3   OH241475   0.624   4.916   1.338 -0.1186 -0.3054 -0.2628
 6639TIP3    H141476   0.594   4.833   1.376  1.4107 -0.8355 -0.1553
 6639TIP3    H241477   0.603   4.908   1.244 -0.7844 -0.4224 -0.1104
 6640TIP3   OH241478   5.368   2.688   0.741  0.2633 -0.3515  0.0819
 6640TIP3    H141479   5.421   2.633   0.685 -0.5865  0.5440 -1.6840
 6640TIP3    H241480   5.334   2.757   0.683  0.4610  1.4526  1.9731
 6641TIP3   OH241481   3.182   1.914   0.686  0.0841 -0.0394  0.6692
 6641TIP3    H141482   3.222   1.928   0.600  2.0666 -0.0805  1.5290
 6641TIP3    H241483   3.152   1.824   0.684 -0.6018  0.1959 -0.2432
 6642TIP3   OH241484   2.224   4.289   0.417  0.6379 -0.5310  0.3055
 6642TIP3    H141485   2.180   4.374   0.426  0.9439 -0.2485 -0.7721
 6642TIP3    H241486   2.313   4.305   0.449  0.2684 -0.8530  1.5520
 6643TIP3   OH241487   0.364   4.963   0.254 -0.2343 -0.5407  0.0769
 6643TIP3    H141488   0.290   4.954   0.194  0.2922 -0.2090 -0.6307
 6643TIP3    H241489   0.329   5.015   0.326 -0.6248 -0.1644 -0.3711
 6644TIP3   OH241490   4.117   4.656   8.544 -0.3156  0.1809  0.5825
 6644TIP3    H141491   4.163   4.728   8.588 -1.9125  0.5835  1.6895
 6644TIP3    H241492   4.031   4.692   8.523 -0.8387 -1.1435  0.3700
 6645TIP3   OH241493   6.011   3.791   2.863  0.1504 -0.2609  0.1776
 6645TIP3    H141494   6.087   3.843   2.889  0.0068  0.1164 -0.1463
 6645TIP3    H241495   6.037   3.752   2.780  0.3210 -0.8515  0.5019
 6646TIP3   OH241496   3.616   3.966   1.075  0.4539 -0.1148 -0.4970
 6646TIP3    H141497   3.524   3.953   1.052  0.3734 -1.8197  0.5453
 6646TIP3    H241498   3.615   4.032   1.144 -0.0838 -0.6440  0.0156
 6647TIP3   OH241499   3.159   5.452   0.438 -0.0040 -0.1284 -0.6157
 6647TIP3    H141500   3.091   5.392   0.469 -1.6220  1.7499 -0.3405
 6647TIP3    H241501   3.159   5.523   0.502  0.9095  0.8474 -1.6516
 6648TIP3   OH241502   1.486   0.637   0.345 -0.2274  0.0518  0.2138
 6648TIP3    H141503   1.430   0.566   0.312  0.5825 -0.4966 -0.0296
 6648TIP3    H241504   1.512   0.685   0.266 -0.6005  0.4927  0.3579
 6649TIP3   OH241505   2.618   2.226   0.008 -0.3903 -0.6578 -0.2012
 6649TIP3    H141506   2.600   2.285   0.082  1.3926 -0.9773  0.5339
 6649TIP3    H241507   2.534   2.218  -0.037 -1.6442 -0.6980  1.9848
 6650TIP3   OH241508   1.422   4.163   0.843 -0.3304  0.2989  0.9307
 6650TIP3    H141509   1.451   4.208   0.764  1.6648 -2.6534 -0.2055
 6650TIP3    H241510   1.502   4.152   0.895 -1.0791 -0.3433  1.9921
 6651TIP3   OH241511   5.065   1.194   7.382 -0.6752 -0.4220 -0.3452
 6651TIP3    H141512   5.153   1.157   7.395  0.4165  1.5670 -1.6344
 6651TIP3    H241513   5.037   1.160   7.298 -1.9190 -2.3689  0.7791
 6652TIP3   OH241514   0.386   3.912   8.678  0.4603 -0.0525  0.1839
 6652TIP3    H141515   0.362   3.825   8.710  1.3717 -0.8904 -1.2632
 6652TIP3    H241516   0.304   3.950   8.648 -0.0356 -0.1627  1.3556
 6653TIP3   OH241517   3.682   3.743   8.626  0.0113  0.2750 -1.0442
 6653TIP3    H141518   3.752   3.797   8.591 -0.8700  2.2659  0.0975
 6653TIP3    H241519   3.612   3.747   8.561 -0.1233  0.6627 -0.8751
 6654TIP3   OH241520   5.332   1.301   8.681 -0.0950 -0.0665  0.2635
 6654TIP3    H141521   5.263   1.234   8.671  0.6494 -0.7543 -0.5430
 6654TIP3    H241522   5.286   1.379   8.710 -0.9996 -0.9335  1.2415
 6655TIP3   OH241523   4.200   5.372   3.329 -0.2298  0.0157  0.0863
 6655TIP3    H141524   4.235   5.341   3.246  0.5551  1.2742 -0.0848
 6655TIP3    H241525   4.269   5.354   3.393 -0.2405  0.3456  0.1946
 6656TIP3   OH241526   3.153   3.667   0.926  0.0474  0.4797 -0.0350
 6656TIP3    H141527   3.132   3.611   1.001  0.9980 -0.5938 -0.5358
 6656TIP3    H241528   3.135   3.612   0.850 -1.3569  1.7147 -0.6335
 6657TIP3   OH241529   2.909   3.220   0.006  0.1842  0.7291  0.1029
 6657TIP3    H141530   2.818   3.203  -0.018 -0.0163  0.9425  0.7163
 6657TIP3    H241531   2.927   3.159   0.077  0.7252  0.2361 -0.4407
 6658TIP3   OH241532   5.900   4.209   6.982 -0.0894 -0.5752  0.4139
 6658TIP3    H141533   5.829   4.195   7.046 -1.0415 -0.7599 -0.6507
 6658TIP3    H241534   5.855   4.237   6.902  0.7464 -3.3782 -1.1812
 6659TIP3   OH241535   3.752   6.184   8.005 -0.5990  0.4739 -0.2681
 6659TIP3    H141536   3.694   6.190   7.929 -1.7087 -1.3342  0.3611
 6659TIP3    H241537   3.829   6.137   7.972 -0.8438  0.1666 -0.4084
 6660TIP3   OH241538   1.053   5.377   7.548 -0.3608 -0.0575 -0.3113
 6660TIP3    H141539   0.978   5.333   7.507 -0.2533 -1.2625  0.7463
 6660TIP3    H241540   1.112   5.307   7.574  0.1741  0.7483  0.7529
 6661TIP3   OH241541   5.033   2.100   2.375  0.2901 -0.4635  0.3625
 6661TIP3    H141542   5.104   2.057   2.326 -0.3512 -1.4013  0.2369
 6661TIP3    H241543   5.072   2.120   2.460  0.9505 -0.2116  0.0159
 6662TIP3   OH241544   0.943   5.538   0.289 -0.2402  0.5984  0.2565
 6662TIP3    H141545   0.922   5.632   0.292 -1.0463  0.4030  0.9215
 6662TIP3    H241546   0.876   5.500   0.233  1.0312  0.6413 -1.3642
 6663TIP3   OH241547   5.178   5.781   7.666  0.0622  0.4392 -0.6980
 6663TIP3    H141548   5.179   5.730   7.585  1.2532  1.4038 -1.3344
 6663TIP3    H241549   5.246   5.741   7.720  0.1602  0.5982 -0.7032
 6664TIP3   OH241550   5.681   1.346   8.275 -0.5051 -0.3408 -0.1610
 6664TIP3    H141551   5.607   1.371   8.331 -0.8575  0.8229 -1.1108
 6664TIP3    H241552   5.758   1.361   8.329 -0.7022  2.6148 -0.5329
 6665TIP3   OH241553   5.417   5.917   1.701  0.0488 -0.6841  0.0909
 6665TIP3    H141554   5.416   5.828   1.736 -1.3052 -0.3774  0.9187
 6665TIP3    H241555   5.337   5.958   1.736  1.7649  1.5970  1.6529
 6666TIP3   OH241556   5.103   3.833   8.692 -0.3487  0.1486 -0.1262
 6666TIP3    H141557   5.170   3.771   8.719 -0.3335 -0.0922 -0.7088
 6666TIP3    H241558   5.137   3.919   8.720 -0.0905 -0.0351  0.1289
 6667TIP3   OH241559   4.066   1.284   1.419  0.5614 -0.2947  0.3691
 6667TIP3    H141560   4.069   1.313   1.510  0.9994 -0.3386  0.3721
 6667TIP3    H241561   4.105   1.356   1.369  1.3313 -0.7267  0.3383
 6668TIP3   OH241562   3.890   2.033   2.336  0.6372  0.1278  0.1297
 6668TIP3    H141563   3.965   1.974   2.323  0.2009 -0.1090 -1.6667
 6668TIP3    H241564   3.893   2.056   2.428  2.5121 -0.4373  0.2548
 6669TIP3   OH241565   4.755   5.469   7.721 -0.8013  0.2873 -0.5513
 6669TIP3    H141566   4.828   5.415   7.689 -0.5181  1.1998 -1.5149
 6669TIP3    H241567   4.778   5.558   7.694 -0.7326  1.0876  1.9483
 6670TIP3   OH241568   3.792   3.168   2.090  0.2309  0.1430 -0.3763
 6670TIP3    H141569   3.856   3.239   2.090  0.0159  0.3751 -1.6918
 6670TIP3    H241570   3.840   3.093   2.054  0.8806 -0.8399  2.3512
 6671TIP3   OH241571   3.854   5.991   8.310 -0.1767  0.4685  0.6585
 6671TIP3    H141572   3.848   5.971   8.404 -2.1034 -1.7241  0.1568
 6671TIP3    H241573   3.835   5.908   8.267  0.3169  1.5063 -1.7148
 6672TIP3   OH241574   5.696   5.101   1.524  0.7406  0.0070  0.4002
 6672TIP3    H141575   5.603   5.082   1.538  0.7594  0.1495  0.7319
 6672TIP3    H241576   5.735   5.017   1.501  0.5545 -0.0789  0.4011
 6673TIP3   OH241577   6.714   6.778   1.188  0.0846 -0.6274 -0.1414
 6673TIP3    H141578   6.663   6.729   1.123 -0.5122  0.2881 -0.3837
 6673TIP3    H241579   6.692   6.870   1.171  0.5625 -0.3258  0.8205
 6674TIP3   OH241580   3.135   4.084   7.515  0.5262 -0.2202  0.0009
 6674TIP3    H141581   3.174   4.113   7.597 -0.4230  1.5640 -0.1329
 6674TIP3    H241582   3.188   4.126   7.447 -0.3214  0.5064 -0.2236
 6675TIP3   OH241583   5.512   4.793   6.944  0.4606  0.0470 -0.2857
 6675TIP3    H141584   5.527   4.875   6.992  1.0659 -0.3260  0.1653
 6675TIP3    H241585   5.471   4.735   7.008 -1.0924  0.3615 -0.9268
 6676TIP3   OH241586   1.332   3.103   3.259  0.4322 -0.2687 -0.6970
 6676TIP3    H141587   1.376   3.171   3.209  0.8592  0.6605  0.8654
 6676TIP3    H241588   1.244   3.136   3.273  1.2136  0.9809  1.7792
 6677TIP3   OH241589   1.189   5.442   8.552  0.2261  0.3456  0.2163
 6677TIP3    H141590   1.220   5.353   8.535  0.1190 -0.2754  2.8423
 6677TIP3    H241591   1.131   5.433   8.628  0.3666  2.6833  0.6677
 6678TIP3   OH241592   5.723   6.245   2.507  0.0940  0.2359  0.2356
 6678TIP3    H141593   5.666   6.186   2.557  0.4674 -0.6080 -0.3152
 6678TIP3    H241594   5.664   6.290   2.447 -0.4166  1.5323  1.6631
 6679TIP3   OH241595   3.809   1.484   2.386 -0.1523  0.0950 -0.6303
 6679TIP3    H141596   3.743   1.501   2.453 -0.8688 -1.6177 -0.8681
 6679TIP3    H241597   3.800   1.391   2.366  2.7316 -0.3700 -0.2313
 6680TIP3   OH241598   6.407   4.168   1.417 -0.7545  0.0120  0.5554
 6680TIP3    H141599   6.441   4.228   1.484  2.1024  0.1776 -0.8872
 6680TIP3    H241600   6.355   4.224   1.359 -0.5878  0.4897  0.8597
 6681TIP3   OH241601   4.196   6.572   8.345  0.0420  0.2463 -0.4816
 6681TIP3    H141602   4.129   6.602   8.406 -0.2972  0.5779 -1.0089
 6681TIP3    H241603   4.277   6.612   8.378 -0.1799  0.6298 -0.3934
 6682TIP3   OH241604   4.478   0.865   1.552  0.1701 -0.9137  0.5769
 6682TIP3    H141605   4.549   0.817   1.510 -0.6537 -1.5396 -0.1695
 6682TIP3    H241606   4.482   0.840   1.644  1.3830 -0.3288  0.6925
 6683TIP3   OH241607   2.482   2.874   1.604  0.4700  0.1981 -0.4668
 6683TIP3    H141608   2.543   2.877   1.530 -0.8478  0.2265 -1.5984
 6683TIP3    H241609   2.434   2.957   1.598  0.1014  0.0369  0.2147
 6684TIP3   OH241610   1.741   1.388   8.415  0.1252 -0.2718  0.0362
 6684TIP3    H141611   1.751   1.306   8.367 -1.1316  0.1038 -0.9205
 6684TIP3    H241612   1.831   1.418   8.432  0.5861 -1.3010 -0.5398
 6685TIP3   OH241613   1.734   3.514   2.445  0.6573 -0.4112 -0.4707
 6685TIP3    H141614   1.789   3.443   2.475  0.6532 -0.1197  0.2412
 6685TIP3    H241615   1.794   3.572   2.397  0.4266 -1.5234 -2.2050
 6686TIP3   OH241616   1.216   0.385   2.445  0.8481 -0.4831 -0.2506
 6686TIP3    H141617   1.191   0.461   2.392  0.8456  0.3470  0.8754
 6686TIP3    H241618   1.256   0.424   2.524  1.2119 -1.6698  0.1703
 6687TIP3   OH241619   6.142   3.655   2.662 -0.0799  0.2990 -1.0250
 6687TIP3    H141620   6.224   3.608   2.648 -0.0404  0.0837 -0.1138
 6687TIP3    H241621   6.074   3.588   2.657 -0.0022  0.0509  0.5545
 6688TIP3   OH241622   2.391   2.331   2.843  0.2355 -0.2722 -0.0383
 6688TIP3    H141623   2.470   2.384   2.831  1.0921 -1.7175 -1.0660
 6688TIP3    H241624   2.330   2.364   2.777  0.0239  0.7092  0.6200
 6689TIP3   OH241625   3.849   3.753   0.052  0.7176  0.4309 -0.2946
 6689TIP3    H141626   3.799   3.746  -0.030 -0.6276 -1.3438  0.6104
 6689TIP3    H241627   3.903   3.674   0.053  0.3590  0.1891  0.7387
 6690TIP3   OH241628   2.002   2.618   1.984  0.0813 -0.0239 -0.1560
 6690TIP3    H141629   1.915   2.609   1.945  0.2904 -2.3489 -0.2351
 6690TIP3    H241630   1.993   2.691   2.045 -1.5037  0.7347 -1.2214
 6691TIP3   OH241631   4.895   5.663   7.558 -0.1814  0.5409  0.0666
 6691TIP3    H141632   4.983   5.698   7.549  0.3795 -0.5408  0.9985
 6691TIP3    H241633   4.869   5.640   7.469  0.5205  0.7911 -0.2085
 6692TIP3   OH241634   5.886   5.564   8.128  0.4420  0.1107 -0.6795
 6692TIP3    H141635   5.931   5.645   8.150  0.4916 -0.0119 -0.3232
 6692TIP3    H241636   5.933   5.531   8.051 -0.8830  1.4764 -2.1382
 6693TIP3   OH241637   2.275   5.963   1.425 -0.4956  0.6390  0.1815
 6693TIP3    H141638   2.229   5.955   1.509  1.7489 -2.2397  1.3377
 6693TIP3    H241639   2.250   5.885   1.376 -0.2857  1.3276 -1.0679
 6694TIP3   OH241640   5.527   4.818   2.061 -0.6712  0.1842 -0.5096
 6694TIP3    H141641   5.473   4.739   2.054 -1.1721  0.5240 -0.5543
 6694TIP3    H241642   5.529   4.854   1.973 -0.7298  0.4067 -0.4208
 6695TIP3   OH241643   5.736   0.075   8.005  0.1458  0.1884 -0.4017
 6695TIP3    H141644   5.796   0.031   8.065 -1.0408 -0.3975  0.3832
 6695TIP3    H241645   5.779   0.159   7.986 -0.5302  1.5090  3.2173
 6696TIP3   OH241646   3.775   4.033   3.327  0.0592 -0.0408 -0.5145
 6696TIP3    H141647   3.866   4.055   3.310  0.4418 -0.1294  1.2822
 6696TIP3    H241648   3.726   4.086   3.263  1.3376  0.0880 -1.4251
 6697TIP3   OH241649   5.614   0.580   2.854 -0.0028 -0.2850  0.5790
 6697TIP3    H141650   5.595   0.496   2.895  0.9626 -0.9529 -0.2710
 6697TIP3    H241651   5.534   0.631   2.864 -0.6096 -1.3160  1.0999
 6698TIP3   OH241652   1.747   4.899   8.573  0.0185  0.4285  0.2384
 6698TIP3    H141653   1.760   4.839   8.647  0.9522 -0.2435 -0.4520
 6698TIP3    H241654   1.822   4.883   8.516 -0.4978  1.2079 -0.6798
 6699TIP3   OH241655   2.849   4.126   0.392 -0.2886  0.0131 -0.0729
 6699TIP3    H141656   2.934   4.171   0.389 -0.0523 -0.4829 -1.1020
 6699TIP3    H241657   2.847   4.073   0.313 -1.8414  0.4869 -0.3735
 6700TIP3   OH241658   0.606   5.997   8.356  1.1941  0.2928 -0.1645
 6700TIP3    H141659   0.525   5.945   8.354  0.9551  0.6216  0.8526
 6700TIP3    H241660   0.672   5.939   8.318  0.8809 -0.6847  0.7448
 6701TIP3   OH241661   3.564   2.067   0.909  0.0380 -0.3985  0.3394
 6701TIP3    H141662   3.594   2.108   0.990  0.4921  2.5144 -1.1582
 6701TIP3    H241663   3.634   2.006   0.885  1.1433  0.6305  0.8382
 6702TIP3   OH241664   1.561   3.854   1.053 -0.0825 -0.0650 -0.3439
 6702TIP3    H141665   1.641   3.858   1.105 -0.6831  1.5750  0.5323
 6702TIP3    H241666   1.565   3.770   1.008  1.0520 -0.9999  1.4181
 6703TIP3   OH241667   5.080   1.897   7.184 -0.1725  0.2398  0.1758
 6703TIP3    H141668   5.003   1.948   7.159  0.2583  1.8218  1.8603
 6703TIP3    H241669   5.140   1.961   7.222  1.1435 -1.2653  0.7491
 6704TIP3   OH241670   4.820   4.095   1.130  0.9722  0.2333 -0.2589
 6704TIP3    H141671   4.850   4.017   1.083  1.0170  0.4015 -0.5085
 6704TIP3    H241672   4.746   4.064   1.183  0.2667  0.2600 -1.2063
 6705TIP3   OH241673   2.638   4.920   0.015 -0.1083 -0.4545  0.3009
 6705TIP3    H141674   2.722   4.955   0.044  0.1133 -1.9812  1.6744
 6705TIP3    H241675   2.657   4.829  -0.008 -1.4754 -1.0036  1.2152
 6706TIP3   OH241676   5.990   1.096   8.032 -0.1259  0.3315  0.7852
 6706TIP3    H141677   5.913   1.066   8.081 -2.0442  0.3154 -1.9700
 6706TIP3    H241678   5.978   1.191   8.025  0.1681  0.3409  0.3990
 6707TIP3   OH241679   2.183   0.940   7.565  0.0973  0.3323 -0.0679
 6707TIP3    H141680   2.114   1.006   7.558  1.5811  1.9734 -0.0115
 6707TIP3    H241681   2.209   0.942   7.658  0.6129  0.1611 -0.2038
 6708TIP3   OH241682   2.858   5.824   0.950  0.3194 -0.1257 -0.2495
 6708TIP3    H141683   2.943   5.843   0.990  0.2558  0.7317 -0.4862
 6708TIP3    H241684   2.858   5.878   0.870 -1.1829  1.3146  0.6787
 6709TIP3   OH241685   4.518   0.396   1.204  0.2175 -0.7137  0.3478
 6709TIP3    H141686   4.581   0.365   1.268  0.8447 -0.5977 -0.1977
 6709TIP3    H241687   4.447   0.331   1.206  1.4067 -2.0934 -0.6292
 6710TIP3   OH241688   3.363   1.446   1.494  0.2322  0.2350 -0.1725
 6710TIP3    H141689   3.300   1.457   1.565  1.2339  1.7006  0.5540
 6710TIP3    H241690   3.441   1.410   1.537  0.7247  0.7944 -0.5681
 6711TIP3   OH241691   4.981   4.198   7.108  0.0667  0.0260  0.3231
 6711TIP3    H141692   5.058   4.186   7.163  0.4085 -1.5158 -0.4325
 6711TIP3    H241693   5.014   4.241   7.029  0.0901 -0.2692  0.1700
 6712TIP3   OH241694   3.592   1.215   7.492  0.1331  0.0194  0.6423
 6712TIP3    H141695   3.664   1.228   7.430  0.7280 -0.4793  1.2129
 6712TIP3    H241696   3.520   1.179   7.439  0.2834  0.5655  0.0610
 6713TIP3   OH241697   4.197   5.611   0.181 -0.1956 -0.0870  0.4061
 6713TIP3    H141698   4.141   5.617   0.104 -0.1079  0.6877  0.4024
 6713TIP3    H241699   4.159   5.540   0.232  0.4334 -1.4146 -0.8939
 6714TIP3   OH241700   4.333   0.199   1.218 -0.1796  0.2223  0.8635
 6714TIP3    H141701   4.338   0.142   1.141 -0.5062  0.9168  0.3112
 6714TIP3    H241702   4.295   0.144   1.287  0.0970 -0.4021  0.5272
 6715TIP3   OH241703   3.761   6.815   7.985 -0.2955 -0.1223  0.2688
 6715TIP3    H141704   3.767   6.782   7.895  1.9909  1.6397 -0.3154
 6715TIP3    H241705   3.784   6.740   8.040 -0.5817 -0.9203 -0.6688
 6716TIP3   OH241706   6.623   3.389   1.154 -0.2537 -0.2496 -0.8491
 6716TIP3    H141707   6.588   3.478   1.150  0.9758  0.2345 -1.1990
 6716TIP3    H241708   6.546   3.333   1.146 -0.8199  0.7641 -3.2289
 6717TIP3   OH241709   1.097   0.652   2.560  0.2271  0.8424 -0.8788
 6717TIP3    H141710   1.051   0.651   2.645 -1.0515  0.5908 -1.5404
 6717TIP3    H241711   1.180   0.608   2.577  0.3458  1.4945  0.4260
 6718TIP3   OH241712   2.472   1.846   1.999 -0.6782 -0.3847 -0.5563
 6718TIP3    H141713   2.486   1.934   1.966 -1.3594  0.4767  1.3199
 6718TIP3    H241714   2.539   1.793   1.955  0.2347  1.2049 -1.1578
 6719TIP3   OH241715   0.149   6.279   8.060  0.4398  0.0096  0.0724
 6719TIP3    H141716   0.063   6.237   8.067  0.1981  0.7430  2.4818
 6719TIP3    H241717   0.141   6.338   7.985 -1.2276  0.1775  0.3416
 6720TIP3   OH241718   4.598   3.657   7.479 -0.7618 -0.1464  0.5504
 6720TIP3    H141719   4.596   3.645   7.574 -1.3259 -2.2723  0.3239
 6720TIP3    H241720   4.627   3.573   7.445  1.3803  1.1753 -1.1180
 6721TIP3   OH241721   2.107   2.332   2.756 -0.3917 -0.7942 -0.3023
 6721TIP3    H141722   2.129   2.291   2.839  0.7759  0.3753 -0.0023
 6721TIP3    H241723   2.142   2.421   2.763 -0.4109 -0.6217 -1.9778
 6722TIP3   OH241724   2.336   2.465   8.714  0.1711  0.2390 -0.5838
 6722TIP3    H141725   2.335   2.371   8.701  1.6642  0.3485 -1.8049
 6722TIP3    H241726   2.282   2.480   8.792  0.4912 -1.6744  0.0411
 6723TIP3   OH241727   0.805   2.966   0.076  0.2708 -1.1060  0.5925
 6723TIP3    H141728   0.865   2.941   0.145  0.2470  2.0012  1.9281
 6723TIP3    H241729   0.857   3.022   0.018 -0.8632  0.3565  0.9136
 6724TIP3   OH241730   5.167   4.037   7.268 -0.5271  0.6382 -0.2829
 6724TIP3    H141731   5.145   3.979   7.341  0.5792  0.9879  0.3535
 6724TIP3    H241732   5.260   4.055   7.279 -0.2816  0.5103 -1.9367
 6725TIP3   OH241733   1.616   1.254   0.818  0.2425  0.3160  0.4201
 6725TIP3    H141734   1.545   1.193   0.798 -1.2952  2.4195 -0.9026
 6725TIP3    H241735   1.692   1.198   0.831 -1.3927 -1.9745  0.8849
 6726TIP3   OH241736   4.888   1.224   0.799 -0.3778 -0.0449 -0.4076
 6726TIP3    H141737   4.794   1.242   0.796 -0.1461  1.0912 -2.2700
 6726TIP3    H241738   4.900   1.153   0.736 -0.2404 -1.7779  1.4632
 6727TIP3   OH241739   5.361   6.218   8.512  0.3400  0.0948  0.0022
 6727TIP3    H141740   5.445   6.237   8.472  0.6850 -1.3691 -0.0425
 6727TIP3    H241741   5.370   6.244   8.603  0.5991  0.5780 -0.1604
 6728TIP3   OH241742   1.975   3.183   7.737  0.3632 -0.4896  0.1662
 6728TIP3    H141743   1.920   3.105   7.730 -0.2834 -0.0617  0.3027
 6728TIP3    H241744   1.917   3.249   7.776  1.3946 -0.4366  1.7015
 6729TIP3   OH241745   4.351   6.303   2.243  0.4480 -0.0069 -0.2242
 6729TIP3    H141746   4.260   6.287   2.266  0.5523 -0.5722 -0.2043
 6729TIP3    H241747   4.402   6.257   2.310  0.8638  4.4852  2.9836
 6730TIP3   OH241748   0.219   4.491   0.872  0.2066  0.2133  0.4568
 6730TIP3    H141749   0.264   4.483   0.956 -0.3927  2.4486  1.0517
 6730TIP3    H241750   0.288   4.478   0.807  1.2116  0.9980  1.3215
 6731TIP3   OH241751   5.896   4.864   7.986  0.6178 -0.0128  0.7330
 6731TIP3    H141752   5.806   4.834   7.978  0.4481  0.3881  1.1047
 6731TIP3    H241753   5.889   4.953   8.019  1.0528  1.0216 -1.7428
 6732TIP3   OH241754   1.622   6.767   8.255  0.7455 -0.1220  0.4590
 6732TIP3    H141755   1.683   6.821   8.205  0.4973  0.2234  0.5280
 6732TIP3    H241756   1.587   6.826   8.322 -1.9467  0.5644 -1.4077
 6733TIP3   OH241757   0.220   0.170   1.756  0.0011  0.0047 -0.2494
 6733TIP3    H141758   0.151   0.128   1.807  1.1044 -0.7956  0.6541
 6733TIP3    H241759   0.227   0.258   1.793  0.0237 -0.1920  0.2207
 6734TIP3   OH241760   5.477   4.654   1.331 -0.1614 -0.4511  0.0472
 6734TIP3    H141761   5.402   4.712   1.340  0.8163  1.0751 -1.1276
 6734TIP3    H241762   5.474   4.599   1.410 -1.1349  1.1790  1.2210
 6735TIP3   OH241763   5.508   4.091   0.082  0.6726  0.5095  0.8626
 6735TIP3    H141764   5.603   4.090   0.076  0.6086 -1.8094 -1.2309
 6735TIP3    H241765   5.485   4.184   0.079  2.8113  1.1018  1.1337
 6736TIP3   OH241766   1.418   0.944   1.160  0.1280  0.3783 -0.2423
 6736TIP3    H141767   1.337   0.904   1.129 -1.0201  1.4025  1.3010
 6736TIP3    H241768   1.423   0.920   1.252  1.2862  0.8126 -0.1805
 6737TIP3   OH241769   5.906   4.468   2.059 -0.0990 -0.0012 -0.0996
 6737TIP3    H141770   5.945   4.383   2.081  0.3633 -0.4711 -2.5384
 6737TIP3    H241771   5.817   4.463   2.096 -0.5171 -2.0666 -1.1932
 6738TIP3   OH241772   3.924   3.307   1.428 -0.3664 -0.2794 -0.1201
 6738TIP3    H141773   3.829   3.320   1.428 -0.4751 -1.0074 -0.2019
 6738TIP3    H241774   3.945   3.287   1.519 -0.0042  1.6843  0.2775
 6739TIP3   OH241775   0.003   6.708   8.068 -0.5890 -0.7911 -0.5190
 6739TIP3    H141776   0.047   6.722   8.152 -0.8447 -1.0663 -0.3362
 6739TIP3    H241777   0.017   6.790   8.020 -0.2641 -0.7087 -0.2905
 6740TIP3   OH241778   1.389   5.917   0.414 -0.2924  0.0082  0.1730
 6740TIP3    H141779   1.350   5.871   0.340 -0.0065 -0.4658  0.3113
 6740TIP3    H241780   1.407   6.005   0.381  0.7357 -0.4848 -0.6228
 6741TIP3   OH241781   1.965   2.746   0.467  0.1078  0.0417  0.5767
 6741TIP3    H141782   1.923   2.830   0.489 -2.9306  0.0682 -3.9537
 6741TIP3    H241783   1.908   2.680   0.505 -0.1281  0.0589  0.2550
 6742TIP3   OH241784   4.094   4.841   1.851  0.2280 -0.2764  0.9801
 6742TIP3    H141785   4.085   4.787   1.929  2.0653  0.6623  1.9090
 6742TIP3    H241786   4.161   4.907   1.874 -1.1218  1.7318 -0.4487
 6743TIP3   OH241787   6.416   1.812   0.448 -0.1247  0.2493 -0.5333
 6743TIP3    H141788   6.352   1.835   0.381 -1.2674 -1.2389 -0.0234
 6743TIP3    H241789   6.482   1.761   0.402  1.8683  3.3650 -1.4588
 6744TIP3   OH241790   6.704   3.108   2.304  1.0122  0.0220 -0.3722
 6744TIP3    H141791   6.631   3.058   2.267  1.3313  0.0198 -1.0047
 6744TIP3    H241792   6.722   3.065   2.388  0.2043  0.1032 -0.1471
 6745TIP3   OH241793   2.152   6.067   8.005  0.1823 -0.2330  0.2521
 6745TIP3    H141794   2.131   6.129   8.075 -0.1421 -0.0580  0.0021
 6745TIP3    H241795   2.210   6.004   8.046  0.6716  0.3446  0.4629
 6746TIP3   OH241796   3.714   3.149   2.414  0.7800 -0.0408  0.3205
 6746TIP3    H141797   3.701   3.234   2.373 -0.4920 -0.1245  0.5054
 6746TIP3    H241798   3.709   3.166   2.508  0.3714 -0.3442  0.3550
 6747TIP3   OH241799   2.300   1.561   1.660  0.4896 -0.1381  0.2050
 6747TIP3    H141800   2.361   1.535   1.591  0.3134  0.5040 -0.2039
 6747TIP3    H241801   2.264   1.479   1.692  0.3145 -0.4265 -0.7099
 6748TIP3   OH241802   3.639   3.145   2.911 -0.1991  0.2226 -0.4575
 6748TIP3    H141803   3.716   3.191   2.944  0.8962 -1.2066 -0.9411
 6748TIP3    H241804   3.569   3.210   2.914  0.1717  0.6385  3.1523
 6749TIP3   OH241805   0.138   4.365   7.448 -0.0210  0.7819 -0.0216
 6749TIP3    H141806   0.100   4.401   7.367 -0.1352  1.1201  0.1803
 6749TIP3    H241807   0.163   4.276   7.425 -0.3983  0.7512 -0.3293
 6750TIP3   OH241808   2.792   6.238   8.730 -0.2078 -0.4717 -1.1213
 6750TIP3    H141809   2.808   6.274   8.818  0.6022  2.8230 -2.4547
 6750TIP3    H241810   2.744   6.158   8.746 -0.7085  0.3202  2.3164
 6751TIP3   OH241811   2.570   5.842   0.728  0.3080  0.2509  0.0867
 6751TIP3    H141812   2.603   5.920   0.683 -1.3603  1.0123  0.1241
 6751TIP3    H241813   2.599   5.853   0.818  1.1999  0.1523 -0.1734
 6752TIP3   OH241814   1.716   4.476   8.380 -0.1949  0.0518 -0.0085
 6752TIP3    H141815   1.666   4.554   8.359  1.9838  1.4924 -0.2448
 6752TIP3    H241816   1.684   4.447   8.465  0.0598  2.2273  0.8823
 6753TIP3   OH241817   0.963   5.097   7.379  0.1245 -0.3667  0.4146
 6753TIP3    H141818   0.917   5.028   7.427  0.7263 -1.4371 -0.5024
 6753TIP3    H241819   0.897   5.166   7.367 -0.5955 -0.9371  1.0094
 6754TIP3   OH241820   5.345   6.328   7.652 -0.3066 -0.2346 -0.1383
 6754TIP3    H141821   5.348   6.235   7.631 -0.3112 -0.3736  0.4633
 6754TIP3    H241822   5.324   6.331   7.745 -0.1306  0.3669 -0.1138
 6755TIP3   OH241823   5.939   1.042   0.929 -0.2951 -0.3177  0.1324
 6755TIP3    H141824   5.954   1.024   1.022  1.2705 -1.1706 -0.2573
 6755TIP3    H241825   5.992   1.119   0.910  0.0592 -0.6506 -0.2439
 6756TIP3   OH241826   5.205   3.155   7.691  0.3830  0.4258  0.0876
 6756TIP3    H141827   5.214   3.219   7.621 -1.6161  0.5391 -0.1255
 6756TIP3    H241828   5.125   3.106   7.670  0.1929 -0.1074  1.8169
 6757TIP3   OH241829   2.632   0.285   1.306 -0.2806  0.1472  0.5134
 6757TIP3    H141830   2.550   0.324   1.276 -0.2128  0.3102  0.5375
 6757TIP3    H241831   2.655   0.335   1.385 -1.9599 -2.0955  2.5724
 6758TIP3   OH241832   0.303   1.661   1.522  0.2816  0.3284 -0.2532
 6758TIP3    H141833   0.270   1.591   1.466 -0.3149 -0.0876  0.5981
 6758TIP3    H241834   0.252   1.738   1.498  2.2282  1.0280 -2.5531
 6759TIP3   OH241835   4.117   3.978   8.480 -0.0034 -0.2861  0.5829
 6759TIP3    H141836   4.147   4.022   8.560  1.5521 -0.2682  0.0157
 6759TIP3    H241837   4.143   3.887   8.492  1.8877  0.0508 -0.6464
 6760TIP3   OH241838   5.859   1.131   0.341 -0.1655 -0.3705 -0.3296
 6760TIP3    H141839   5.870   1.176   0.425 -0.3371 -1.7249  0.4375
 6760TIP3    H241840   5.792   1.065   0.357 -1.1455  0.1751 -1.8940
 6761TIP3   OH241841   3.447   4.930   3.332 -0.1302 -0.4072  0.4615
 6761TIP3    H141842   3.375   4.916   3.270 -1.0818 -0.2388  1.4762
 6761TIP3    H241843   3.441   4.856   3.392 -0.2621  0.2574  1.2930
 6762TIP3   OH241844   5.194   5.643   0.751 -0.0600  0.1206 -0.0181
 6762TIP3    H141845   5.282   5.642   0.787  0.3362 -1.4274 -0.9573
 6762TIP3    H241846   5.143   5.587   0.810 -0.5922  1.4116  0.8201
 6763TIP3   OH241847   0.571   2.117   1.077 -0.4186 -0.5935  0.1452
 6763TIP3    H141848   0.568   2.207   1.109  0.8899 -0.5943  0.3346
 6763TIP3    H241849   0.512   2.116   1.001 -2.2008 -0.1656  1.4596
 6764TIP3   OH241850   5.039   2.057   8.403  0.2662  0.3796 -0.2482
 6764TIP3    H141851   5.132   2.078   8.394  0.1929  0.3932 -1.1283
 6764TIP3    H241852   4.995   2.129   8.357 -0.2990  1.3948  1.7566
 6765TIP3   OH241853   2.433   2.479   0.380 -0.6021  0.1613 -0.1385
 6765TIP3    H141854   2.514   2.451   0.337 -0.2996  1.7328 -0.6653
 6765TIP3    H241855   2.401   2.401   0.425  2.3183  0.0067  1.8759
 6766TIP3   OH241856   5.242   0.525   0.763 -0.0353  0.0902 -0.0482
 6766TIP3    H141857   5.334   0.506   0.780  0.1427 -2.4601 -2.9149
 6766TIP3    H241858   5.242   0.587   0.691 -0.5501 -0.0998 -0.2221
 6767TIP3   OH241859   1.966   3.861   8.787 -0.6406  0.1619  0.4119
 6767TIP3    H141860   1.884   3.876   8.836 -0.5778  1.8136  0.0951
 6767TIP3    H241861   1.946   3.891   8.698  0.3017  0.5904  0.3346
 6768TIP3   OH241862   1.992   2.637   2.697  0.0409 -0.3390  0.2455
 6768TIP3    H141863   1.985   2.657   2.791  0.0185 -0.1013  0.1929
 6768TIP3    H241864   2.087   2.634   2.681  0.0443 -0.2003  0.2379
 6769TIP3   OH241865   0.614   6.341   7.744  0.2310 -0.5596  0.4494
 6769TIP3    H141866   0.520   6.362   7.743  0.5254  0.8870 -0.8679
 6769TIP3    H241867   0.617   6.246   7.751 -1.3895 -0.7577 -0.8430
 6770TIP3   OH241868   2.851   1.438   7.822  0.6527  0.4383 -0.1472
 6770TIP3    H141869   2.796   1.503   7.864 -0.8913  0.3012 -1.8447
 6770TIP3    H241870   2.838   1.358   7.874  0.8406  0.8936  0.6258
 6771TIP3   OH241871   1.884   5.734   8.763  0.3372  0.3167 -0.1830
 6771TIP3    H141872   1.901   5.732   8.669  0.2272  0.3347 -0.2029
 6771TIP3    H241873   1.941   5.666   8.799 -0.9471 -0.9636 -0.4752
 6772TIP3   OH241874   5.759   4.348   2.685  0.3735 -0.1030  0.1446
 6772TIP3    H141875   5.664   4.351   2.676  0.4730  1.4001 -0.7946
 6772TIP3    H241876   5.788   4.297   2.610  0.3327 -0.2535  0.2306
 6773TIP3   OH241877   6.316   4.266   0.809 -0.2149 -0.1623  0.3512
 6773TIP3    H141878   6.227   4.288   0.837  0.5272  1.4862  1.5352
 6773TIP3    H241879   6.317   4.170   0.805 -2.0731 -0.2069  0.1558
 6774TIP3   OH241880   0.195   3.830   7.798 -0.3667 -0.0415  0.1335
 6774TIP3    H141881   0.288   3.821   7.780 -0.3316  0.3696  0.1000
 6774TIP3    H241882   0.163   3.740   7.807  0.0873 -0.1723  0.4326
 6775TIP3   OH241883   3.925   1.518   1.858 -0.1795  0.1156  0.2310
 6775TIP3    H141884   3.915   1.429   1.823  1.7802 -0.5493  1.1992
 6775TIP3    H241885   4.001   1.513   1.916 -0.2650  2.3456  0.6437
 6776TIP3   OH241886   5.455   3.880   1.870 -0.1898  0.6456  0.1248
 6776TIP3    H141887   5.489   3.966   1.845  2.2175 -0.5218 -1.0214
 6776TIP3    H241888   5.402   3.896   1.948 -2.4173  3.5545 -1.7644
 6777TIP3   OH241889   5.016   5.136   7.305 -0.0461 -0.3129 -0.2223
 6777TIP3    H141890   4.928   5.159   7.275 -0.1940 -1.4427 -0.6968
 6777TIP3    H241891   5.005   5.056   7.356  0.8637 -1.3525 -1.5658
 6778TIP3   OH241892   0.985   1.255   8.177  0.2509 -0.0948  0.1240
 6778TIP3    H141893   0.890   1.250   8.175  0.1815  1.2102 -1.2572
 6778TIP3    H241894   1.014   1.186   8.117 -0.0379  2.2644 -2.9686
 6779TIP3   OH241895   1.448   5.836   8.766 -0.0117 -0.3051  0.0660
 6779TIP3    H141896   1.507   5.901   8.729 -0.7943  0.1983 -0.3096
 6779TIP3    H241897   1.503   5.758   8.777  0.5423 -0.0834 -0.9860
 6780TIP3   OH241898   4.545   3.090   2.744 -0.1677 -0.3214 -0.0169
 6780TIP3    H141899   4.482   3.139   2.797  1.6566  1.4651  0.6174
 6780TIP3    H241900   4.608   3.057   2.807 -0.6521 -2.4849 -0.5949
 6781TIP3   OH241901   5.440   2.743   1.279 -0.3400  0.1889 -0.0135
 6781TIP3    H141902   5.434   2.756   1.184 -0.0783  0.8124  0.0541
 6781TIP3    H241903   5.482   2.657   1.287 -1.5588 -0.4696 -0.4541
 6782TIP3   OH241904   0.860   6.484   8.075  0.4018 -0.4481 -0.2334
 6782TIP3    H141905   0.843   6.517   7.987  1.0227 -2.1163 -1.0341
 6782TIP3    H241906   0.925   6.544   8.112 -1.1073  1.2490 -0.2358
 6783TIP3   OH241907   0.595   0.886   0.054 -0.6748  0.6890 -0.3110
 6783TIP3    H141908   0.569   0.875  -0.037  3.6260 -0.1856 -1.6825
 6783TIP3    H241909   0.603   0.797   0.088 -0.3757  0.9321  0.2781
 6784TIP3   OH241910   0.126   1.205   2.117 -0.0548  0.6972  0.7030
 6784TIP3    H141911   0.123   1.247   2.203  1.5214 -0.5495  1.4109
 6784TIP3    H241912   0.209   1.235   2.079  0.7758 -1.1543  0.9433
 6785TIP3   OH241913   3.263   1.879   0.408  0.6540  0.8466  0.0547
 6785TIP3    H141914   3.248   1.813   0.340  0.6138 -0.4080  1.2323
 6785TIP3    H241915   3.357   1.875   0.426  0.9275  2.1903 -0.8801
 6786TIP3   OH241916   3.723   3.966   1.814  0.5260  0.3153  0.0677
 6786TIP3    H141917   3.657   4.036   1.822  0.5546  0.6451 -2.0989
 6786TIP3    H241918   3.692   3.912   1.741  0.4848 -2.0338  1.7122
 6787TIP3   OH241919   2.319   5.990   2.797 -0.1672 -0.3545  0.3703
 6787TIP3    H141920   2.270   5.915   2.830  0.1739 -1.0134 -0.5789
 6787TIP3    H241921   2.401   5.953   2.766 -1.1847 -0.1137 -2.9495
 6788TIP3   OH241922   2.935   0.411   1.092 -0.3921 -0.4135  0.4793
 6788TIP3    H141923   3.022   0.426   1.129 -0.7319 -2.3488  2.2106
 6788TIP3    H241924   2.947   0.337   1.032 -0.3505  1.1152 -1.4989
 6789TIP3   OH241925   1.252   3.430   1.408 -0.1885  0.6477 -0.0912
 6789TIP3    H141926   1.194   3.363   1.372  1.3883 -1.8191  1.6211
 6789TIP3    H241927   1.277   3.484   1.333 -2.3793  0.0188 -1.3499
 6790TIP3   OH241928   4.946   0.716   2.615  0.6119 -0.0668 -0.3780
 6790TIP3    H141929   4.922   0.699   2.707  0.3116  2.2630  0.0282
 6790TIP3    H241930   5.031   0.673   2.604  0.8996  0.0420  1.1611
 6791TIP3   OH241931   2.372   5.394   8.793 -0.1743  0.6225  0.3416
 6791TIP3    H141932   2.327   5.448   8.728 -0.1304 -0.5294 -0.6978
 6791TIP3    H241933   2.309   5.323   8.812  0.2363  0.3596  0.7433
 6792TIP3   OH241934   0.772   2.516   8.398  0.5746  0.4326 -0.1429
 6792TIP3    H141935   0.684   2.539   8.428 -0.0397 -1.7924 -0.0164
 6792TIP3    H241936   0.757   2.446   8.334  2.3093 -2.0396  1.9395
 6793TIP3   OH241937   5.387   5.918   1.342 -0.0447 -0.0550 -0.0669
 6793TIP3    H141938   5.392   5.834   1.387 -1.6490  0.8940  2.0387
 6793TIP3    H241939   5.459   5.915   1.278  0.1684 -2.8351  0.1862
 6794TIP3   OH241940   3.584   0.478   1.347 -0.3398  0.3061  0.1071
 6794TIP3    H141941   3.532   0.508   1.272 -0.0729 -2.0348 -1.0959
 6794TIP3    H241942   3.519   0.460   1.415 -0.9777 -0.7637 -0.7420
 6795TIP3   OH241943   6.637   1.527   1.023  0.9788  0.1681 -0.3837
 6795TIP3    H141944   6.636   1.455   0.960  2.1110 -0.7330  0.5767
 6795TIP3    H241945   6.652   1.485   1.108  0.3367  1.4255  0.3901
 6796TIP3   OH241946   0.766   4.859   8.621  0.9806  0.5303 -0.2883
 6796TIP3    H141947   0.822   4.927   8.585  0.4233  0.8435 -0.5676
 6796TIP3    H241948   0.719   4.823   8.545  0.8540  0.2222 -0.0691
 6797TIP3   OH241949   2.124   0.794   0.688  0.2397 -0.8266  0.0578
 6797TIP3    H141950   2.028   0.800   0.687  0.2624 -0.4679 -0.4981
 6797TIP3    H241951   2.142   0.701   0.693 -0.1569 -1.0888 -2.1465
 6798TIP3   OH241952   3.395   4.742   8.094  0.2835 -0.2599  0.0019
 6798TIP3    H141953   3.383   4.696   8.177 -2.7358  0.3238 -0.0126
 6798TIP3    H241954   3.458   4.811   8.114 -0.2436 -0.2408  1.7902
 6799TIP3   OH241955   0.167   1.383   0.254 -0.2491 -0.1576  0.0258
 6799TIP3    H141956   0.091   1.436   0.231 -0.9628 -1.8557 -1.7555
 6799TIP3    H241957   0.232   1.447   0.285 -1.5872  1.5651 -0.5612
 6800TIP3   OH241958   4.902   6.310   2.745 -0.0768 -0.0495 -0.0144
 6800TIP3    H141959   4.877   6.398   2.771  1.1360  1.0584 -2.2798
 6800TIP3    H241960   4.820   6.268   2.719 -0.3107  1.7691 -2.5395
 6801TIP3   OH241961   3.898   4.381   2.937  0.0689 -0.5653  0.4244
 6801TIP3    H141962   3.870   4.440   3.007 -1.4517 -0.1275 -0.5139
 6801TIP3    H241963   3.993   4.376   2.947 -0.0160  0.2157  1.9367
 6802TIP3   OH241964   1.688   3.152   7.300  0.2815 -0.6396  0.3383
 6802TIP3    H141965   1.628   3.090   7.259  1.0173 -0.1067 -1.6358
 6802TIP3    H241966   1.645   3.237   7.289  0.6289 -0.4526  0.4144
 6803TIP3   OH241967   1.322   4.054   0.400  0.3943 -0.2490  0.5197
 6803TIP3    H141968   1.245   4.000   0.382 -0.2123  0.5212  0.7036
 6803TIP3    H241969   1.366   4.062   0.316 -0.9172  1.0695 -0.0953
 6804TIP3   OH241970   0.932   0.033   0.912  0.3620  0.0498  0.0190
 6804TIP3    H141971   0.967  -0.047   0.951 -1.7338 -0.2182  1.5275
 6804TIP3    H241972   0.884   0.004   0.835  0.3847 -0.0296  0.0346
 6805TIP3   OH241973   2.230   1.926   7.664  0.2578  0.1807 -0.5483
 6805TIP3    H141974   2.322   1.951   7.657 -0.2052  1.6204 -2.3474
 6805TIP3    H241975   2.188   1.968   7.589 -1.5191 -2.1138 -0.9667
 6806TIP3   OH241976   5.779   3.772   8.052 -0.5505  0.0250  0.0349
 6806TIP3    H141977   5.722   3.767   7.976 -1.5272 -0.3689  0.7706
 6806TIP3    H241978   5.813   3.684   8.063  0.9534  0.4497 -0.9327
 6807TIP3   OH241979   3.115   4.526   1.997  0.4085  0.0117 -0.3260
 6807TIP3    H141980   3.055   4.541   2.071  0.7256  0.0175 -0.0710
 6807TIP3    H241981   3.057   4.526   1.920  0.2320  1.4077 -0.2264
 6808TIP3   OH241982   1.392   3.674   2.839 -0.2203  0.3500 -0.2128
 6808TIP3    H141983   1.432   3.690   2.924 -1.7725  0.4398  0.5442
 6808TIP3    H241984   1.300   3.697   2.851 -1.0078 -1.9497 -1.2077
 6809TIP3   OH241985   0.444   0.234   1.485 -0.5958 -0.0488 -0.2185
 6809TIP3    H141986   0.426   0.290   1.561 -1.8323 -0.7998  0.0725
 6809TIP3    H241987   0.518   0.179   1.513 -1.4849 -0.8057  0.7328
 6810TIP3   OH241988   0.345   5.800   1.904 -0.2091  0.3011  0.4542
 6810TIP3    H141989   0.332   5.814   1.810 -0.8554 -2.0407  0.1266
 6810TIP3    H241990   0.349   5.888   1.941 -2.1056  1.3117 -1.4916
 6811TIP3   OH241991   5.638   6.143   7.684  0.3053 -0.6784  0.3949
 6811TIP3    H141992   5.581   6.067   7.693 -0.6296  0.1219  1.4397
 6811TIP3    H241993   5.658   6.169   7.774  0.4018  0.4717  0.0552
 6812TIP3   OH241994   2.339   6.754   7.371 -1.0067 -0.5202  0.2045
 6812TIP3    H141995   2.402   6.791   7.309 -0.3562 -1.2001  0.4519
 6812TIP3    H241996   2.284   6.828   7.396 -2.1229 -0.4592 -2.1617
 6813TIP3   OH241997   1.575   5.177   7.687 -0.2674 -0.5632  0.3237
 6813TIP3    H141998   1.637   5.202   7.618  0.4537 -1.3550  0.6631
 6813TIP3    H241999   1.573   5.253   7.745 -2.4335  0.9778 -1.5584
 6814TIP3   OH242000   5.370   0.718   7.125 -0.3590  0.2284  0.0079
 6814TIP3    H142001   5.414   0.801   7.143 -1.5051  0.8008  0.2943
 6814TIP3    H242002   5.416   0.682   7.049 -0.2095  1.3977 -0.4728
 6815TIP3   OH242003   1.053   1.012   8.351 -0.0448 -0.1829  0.1246
 6815TIP3    H142004   1.079   1.098   8.381 -2.8756  1.0251 -0.6040
 6815TIP3    H242005   1.087   1.007   8.261  1.3515 -0.4832  0.6338
 6816TIP3   OH242006   4.881   1.157   7.597  0.1153 -0.1293  0.3839
 6816TIP3    H142007   4.878   1.240   7.550 -0.2610 -0.1104  0.4388
 6816TIP3    H242008   4.933   1.099   7.541 -2.0855 -0.7612 -1.1301
 6817TIP3   OH242009   6.278   2.179   2.059 -0.5149  0.5139 -0.6608
 6817TIP3    H142010   6.327   2.244   2.110  1.6562 -3.0970  2.3465
 6817TIP3    H242011   6.196   2.168   2.108  0.0847 -0.4939  0.1610
 6818TIP3   OH242012   5.213   1.028   7.575  0.2541  0.2914 -0.0715
 6818TIP3    H142013   5.263   1.109   7.580  0.3816  0.1922  0.2953
 6818TIP3    H242014   5.253   0.971   7.640 -0.2923  0.1881  0.1851
 6819TIP3   OH242015   0.270   5.376   0.539  0.8148  0.7962 -0.1971
 6819TIP3    H142016   0.229   5.435   0.602  2.8163  1.7811  0.2697
 6819TIP3    H242017   0.237   5.404   0.454 -1.2888 -0.0244  0.2724
 6820TIP3   OH242018   2.481   5.259   7.726  0.0403 -0.8806 -0.3050
 6820TIP3    H142019   2.471   5.346   7.685  3.1714 -0.6982 -0.9623
 6820TIP3    H242020   2.455   5.198   7.657  1.2843 -0.4829 -1.1733
 6821TIP3   OH242021   4.776   3.381   2.147  0.0779 -0.3953  0.2173
 6821TIP3    H142022   4.713   3.451   2.163  0.9709  0.5932 -0.4837
 6821TIP3    H242023   4.724   3.311   2.106 -1.0194 -0.5770  1.8322
 6822TIP3   OH242024   4.666   3.328   8.109  0.1488 -0.1029  0.1979
 6822TIP3    H142025   4.609   3.386   8.159  1.2927  1.5754 -0.3471
 6822TIP3    H242026   4.725   3.387   8.061  1.1249 -1.7121 -0.6959
 6823TIP3   OH242027   2.980   1.736   0.383  0.0383  0.5039 -0.2747
 6823TIP3    H142028   2.992   1.714   0.476 -0.2772  1.9327  0.1284
 6823TIP3    H242029   2.903   1.792   0.382  0.8867  1.7014 -1.2018
 6824TIP3   OH242030   5.129   6.717   1.505 -0.3758  0.3887 -0.2252
 6824TIP3    H142031   5.049   6.693   1.459  0.6912 -0.7032 -1.5905
 6824TIP3    H242032   5.132   6.658   1.580 -1.4875  1.3319  0.5978
 6825TIP3   OH242033   3.451   2.371   7.873 -0.0222 -0.3053  0.2599
 6825TIP3    H142034   3.456   2.334   7.785 -1.2053  0.6140 -0.2289
 6825TIP3    H242035   3.431   2.463   7.859 -0.1311 -0.1235  1.4964
 6826TIP3   OH242036   1.402   2.206   0.673  0.0765  0.1723 -0.2988
 6826TIP3    H142037   1.421   2.259   0.750  1.5145 -0.1747 -0.3999
 6826TIP3    H242038   1.446   2.123   0.689  0.7711  0.2439 -1.6833
 6827TIP3   OH242039   5.385   4.504   1.752  0.3684  0.0868 -0.0197
 6827TIP3    H142040   5.346   4.421   1.726 -0.0350  1.1441 -3.2170
 6827TIP3    H242041   5.479   4.489   1.746  0.2923  0.0646 -1.5752
 6828TIP3   OH242042   4.193   1.137   1.789 -0.5237  0.2695  0.0980
 6828TIP3    H142043   4.217   1.120   1.698 -1.3091  0.0241 -0.0630
 6828TIP3    H242044   4.206   1.231   1.799 -2.0266  0.5912 -0.7526
 6829TIP3   OH242045   3.618   0.456   8.038 -0.6329 -0.0186  0.0762
 6829TIP3    H142046   3.628   0.467   7.943  1.2145  0.1717  0.2509
 6829TIP3    H242047   3.623   0.361   8.051  1.5231  0.0432  0.1397
 6830TIP3   OH242048   3.235   4.655   7.905 -0.0438  0.0749  0.3205
 6830TIP3    H142049   3.289   4.700   7.970 -0.4880 -3.2463  3.2994
 6830TIP3    H242050   3.145   4.676   7.929 -0.2278  1.0189 -1.0571
 6831TIP3   OH242051   1.746   1.633   0.789  0.1487 -0.2395 -0.0646
 6831TIP3    H142052   1.676   1.588   0.836  0.2399 -1.0121 -0.6591
 6831TIP3    H242053   1.811   1.652   0.856 -0.3706 -0.0221  0.3904
 6832TIP3   OH242054   1.906   1.039   2.268 -0.3759  0.2578  0.0794
 6832TIP3    H142055   1.979   1.026   2.328 -0.7067  0.2367  0.4779
 6832TIP3    H242056   1.899   1.134   2.258 -0.9766  0.3062  0.8884
 6833TIP3   OH242057   6.706   4.375   8.379  0.6635  0.0412 -0.2831
 6833TIP3    H142058   6.786   4.331   8.350  0.7954  0.9036 -1.2520
 6833TIP3    H242059   6.717   4.384   8.474  1.0488 -1.1456 -0.1908
 6834TIP3   OH242060   2.018   0.236   8.531  0.4541  0.2617  0.2257
 6834TIP3    H142061   2.008   0.291   8.609 -0.4004 -0.5816  0.7350
 6834TIP3    H242062   1.971   0.283   8.462 -2.9338 -1.1302  1.3503
 6835TIP3   OH242063   5.471   0.665   1.344 -0.0119  0.3324  0.1769
 6835TIP3    H142064   5.531   0.592   1.330 -0.2632 -0.2748  2.0562
 6835TIP3    H242065   5.499   0.704   1.427 -1.3059  0.9590  0.3443
 6836TIP3   OH242066   4.778   0.807   1.343  0.5386 -0.4294 -0.2911
 6836TIP3    H142067   4.871   0.789   1.352  0.9269 -0.0472 -2.7929
 6836TIP3    H242068   4.774   0.893   1.302 -0.9754  0.1067  0.8855
 6837TIP3   OH242069   4.933   5.273   8.714  0.3207 -1.1097 -0.3864
 6837TIP3    H142070   4.980   5.354   8.733 -1.2613 -0.3606  0.5969
 6837TIP3    H242071   4.909   5.238   8.799  0.2295 -2.1638 -0.8269
 6838TIP3   OH242072   2.803   1.726   2.524 -0.1156 -0.3417 -0.5735
 6838TIP3    H142073   2.753   1.644   2.527 -0.9422  0.1681  0.4361
 6838TIP3    H242074   2.819   1.747   2.616 -0.6066  1.0300 -0.7825
 6839TIP3   OH242075   1.836   3.822   1.181  0.1060  0.2531 -0.7409
 6839TIP3    H142076   1.774   3.797   1.250  1.2738  0.3362  0.3950
 6839TIP3    H242077   1.887   3.742   1.164  1.7049  0.9238  0.5822
 6840TIP3   OH242078   2.934   6.251   0.400  0.4694 -0.5387  0.5094
 6840TIP3    H142079   2.850   6.280   0.365  1.0876 -0.2074 -0.7434
 6840TIP3    H242080   2.931   6.275   0.493  0.8769  3.5130 -0.3753
 6841TIP3   OH242081   4.249   1.764   1.579  0.7737 -0.0505  0.1965
 6841TIP3    H142082   4.252   1.859   1.591 -1.9754  0.2549 -0.7284
 6841TIP3    H242083   4.239   1.729   1.667  1.1937  0.5510  0.4914
 6842TIP3   OH242084   0.629   5.839   8.696 -0.1423 -0.2525 -0.1333
 6842TIP3    H142085   0.556   5.830   8.635  0.3009  0.1667 -0.7387
 6842TIP3    H242086   0.681   5.911   8.661  0.1024  0.0185  0.7647
 6843TIP3   OH242087   5.125   2.763   1.621  0.0879 -0.3022 -0.8743
 6843TIP3    H142088   5.110   2.801   1.708  1.5637  0.9521 -1.1212
 6843TIP3    H242089   5.111   2.669   1.634  2.5225 -0.4933  1.3409
 6844TIP3   OH242090   3.892   0.154   0.193  0.3149  0.2315 -0.0848
 6844TIP3    H142091   3.833   0.104   0.138 -2.8163  1.2927  2.0439
 6844TIP3    H242092   3.960   0.091   0.219  1.0505 -0.6735 -3.7000
 6845TIP3   OH242093   2.072   3.884   2.226  0.3692  0.0028 -0.2341
 6845TIP3    H142094   2.024   3.960   2.191 -0.8950 -0.3202  0.7350
 6845TIP3    H242095   2.133   3.861   2.156  1.2078  2.2630 -0.3345
 6846TIP3   OH242096   2.920   4.911   0.547 -0.5222  0.1455 -0.5541
 6846TIP3    H142097   2.891   4.907   0.456 -0.9998 -1.0987 -0.3650
 6846TIP3    H242098   3.014   4.894   0.543 -0.4407  0.6378 -0.8538
 6847TIP3   OH242099   4.320   5.304   7.015  0.0319 -0.3363 -0.7917
 6847TIP3    H142100   4.259   5.378   7.021 -0.1308 -0.4933 -0.4627
 6847TIP3    H242101   4.342   5.298   6.923  2.6692  2.2484 -0.4693
 6848TIP3   OH242102   2.034   2.073   0.430  0.0389 -0.0285  0.2817
 6848TIP3    H142103   2.087   2.011   0.380 -0.4415 -0.3508  0.1649
 6848TIP3    H242104   2.036   2.039   0.519  0.0063 -0.0556  0.2721
 6849TIP3   OH242105   6.571   0.405   7.399 -0.1154  0.9402  0.3597
 6849TIP3    H142106   6.628   0.331   7.421 -0.5843  0.7057  0.7868
 6849TIP3    H242107   6.630   0.481   7.400  1.4825  0.1437 -4.5334
 6850TIP3   OH242108   5.875   3.533   0.209  0.1248 -0.5437 -0.0781
 6850TIP3    H142109   5.828   3.498   0.133 -1.9980  2.9176 -0.6088
 6850TIP3    H242110   5.828   3.497   0.284 -0.0811 -1.1448 -0.4839
 6851TIP3   OH242111   2.091   3.582   0.239  0.6341  0.1034 -0.1910
 6851TIP3    H142112   2.135   3.642   0.179  0.8909  0.2247  0.1171
 6851TIP3    H242113   2.158   3.559   0.304  0.0070  1.0014  0.8095
 6852TIP3   OH242114   6.793   3.184   2.010 -0.6667 -0.1946 -0.0320
 6852TIP3    H142115   6.849   3.226   2.076 -1.6783  0.1407  0.6448
 6852TIP3    H242116   6.823   3.220   1.927 -0.6451  0.9135  0.4264
 6853TIP3   OH242117   6.578   3.482   0.813 -0.0412 -0.0570 -0.0696
 6853TIP3    H142118   6.669   3.511   0.804 -0.0492  0.0073  0.0611
 6853TIP3    H242119   6.534   3.553   0.858 -1.0184  1.5765 -3.3257
 6854TIP3   OH242120   1.336   0.192   8.214  0.1828 -0.0577  0.0578
 6854TIP3    H142121   1.349   0.254   8.286 -2.3429  0.6620 -0.0169
 6854TIP3    H242122   1.354   0.243   8.135 -0.1997  0.0800  0.0594
 6855TIP3   OH242123   6.121   4.035   1.770  0.3228 -0.3364  0.3051
 6855TIP3    H142124   6.050   3.976   1.792  0.5608 -0.5482  0.5176
 6855TIP3    H242125   6.117   4.043   1.675 -0.5742  0.4089  0.3894
 6856TIP3   OH242126   2.947   5.743   2.336 -0.0129 -0.0870 -0.3638
 6856TIP3    H142127   2.986   5.660   2.307 -0.7229 -0.9175  0.9418
 6856TIP3    H242128   2.966   5.747   2.430 -0.0998  1.1772 -0.3884
 6857TIP3   OH242129   6.363   1.257   7.803 -0.5685  0.0238 -0.1657
 6857TIP3    H142130   6.356   1.236   7.710 -0.0919  0.3114 -0.2695
 6857TIP3    H242131   6.442   1.310   7.810 -1.3811  1.2412  0.1809
 6858TIP3   OH242132   3.599   3.676   2.136 -0.5902  0.0134 -0.1997
 6858TIP3    H142133   3.619   3.644   2.048  0.3939 -2.3030  0.7872
 6858TIP3    H242134   3.640   3.762   2.140 -1.1685  0.4491 -2.1706
 6859TIP3   OH242135   0.081   0.376   2.890  0.3273 -0.1044 -0.8884
 6859TIP3    H142136   0.088   0.302   2.829  0.7175 -0.6462 -0.1994
 6859TIP3    H242137  -0.007   0.369   2.926  0.1648  0.1025 -1.2373
 6860TIP3   OH242138   3.082   6.724   2.096  0.1432 -0.3175 -0.0180
 6860TIP3    H142139   3.014   6.678   2.146 -0.9115  1.0680 -0.1150
 6860TIP3    H242140   3.037   6.800   2.059  2.0185  1.3407  0.9363
 6861TIP3   OH242141   4.545   6.084   8.373  0.1636 -0.2897 -0.9481
 6861TIP3    H142142   4.454   6.059   8.360 -0.0329 -0.8828  1.2728
 6861TIP3    H242143   4.574   6.112   8.286 -2.0753 -0.2034 -1.7367
 6862TIP3   OH242144   5.693   5.693   8.271 -0.0217 -0.6603  0.3016
 6862TIP3    H142145   5.721   5.784   8.281 -0.1412 -0.5571 -0.2405
 6862TIP3    H242146   5.773   5.645   8.249  0.0951 -0.7437  0.8886
 6863TIP3   OH242147   2.440   5.150   2.914 -0.3416  0.2440  0.0550
 6863TIP3    H142148   2.356   5.130   2.873 -0.5508  0.6063  0.3012
 6863TIP3    H242149   2.495   5.075   2.893 -0.1555  0.8104 -1.6633
 6864TIP3   OH242150   0.724   4.223   1.617 -0.1475 -0.3496 -0.0505
 6864TIP3    H142151   0.628   4.226   1.621 -0.2687 -0.3870 -1.8480
 6864TIP3    H242152   0.752   4.309   1.646 -0.7845 -0.0788 -0.2140
 6865TIP3   OH242153   2.097   5.171   2.417 -0.1740 -0.4612  0.6243
 6865TIP3    H142154   2.060   5.172   2.506 -0.9384  2.3593  0.3679
 6865TIP3    H242155   2.191   5.160   2.431 -0.2100  0.5567  1.8727
 6866TIP3   OH242156   6.505   6.725   2.017 -0.2456 -0.0747  0.2446
 6866TIP3    H142157   6.548   6.656   1.967 -1.8077 -1.9613  1.3868
 6866TIP3    H242158   6.413   6.719   1.994 -0.4484  1.5789  0.4750
 6867TIP3   OH242159   5.570   4.515   8.528 -0.3435  0.0501  0.2083
 6867TIP3    H142160   5.637   4.521   8.597 -0.2302  0.3586  0.0713
 6867TIP3    H242161   5.564   4.603   8.493 -0.8826  0.0363  0.2725
 6868TIP3   OH242162   1.409   0.435   1.800 -0.2929  0.2952 -0.4170
 6868TIP3    H142163   1.487   0.486   1.778 -0.3220  0.6575  0.2662
 6868TIP3    H242164   1.336   0.491   1.776 -0.3274  1.0512  1.2774
 6869TIP3   OH242165   3.381   1.142   1.587 -0.5536  0.2823  0.5864
 6869TIP3    H142166   3.396   1.212   1.651 -0.3873  2.6315 -1.8725
 6869TIP3    H242167   3.469   1.114   1.561 -0.4652  2.3586 -1.6401
 6870TIP3   OH242168   5.806   1.047   2.143  0.3384  0.3826  0.0794
 6870TIP3    H142169   5.840   1.010   2.224  0.3282  1.6428  0.6639
 6870TIP3    H242170   5.878   1.099   2.107  0.6932 -0.9345 -1.2549
 6871TIP3   OH242171   3.516   5.439   0.092  0.4166  0.1047  0.1816
 6871TIP3    H142172   3.432   5.477   0.065  0.4776  0.9865  1.1380
 6871TIP3    H242173   3.580   5.478   0.033  0.5024  1.7084  1.2679
 6872TIP3   OH242174   1.009   5.088   0.914 -0.0083 -0.0184 -0.1892
 6872TIP3    H142175   0.973   5.125   0.833 -1.8371  0.0812  0.6092
 6872TIP3    H242176   0.956   5.127   0.984  1.1622 -0.5280  1.0278
 6873TIP3   OH242177   1.250   3.117   8.610  1.0191 -0.1161 -0.8200
 6873TIP3    H142178   1.311   3.046   8.632  0.4098 -0.0930  1.1417
 6873TIP3    H242179   1.307   3.189   8.580  1.6660 -1.2386 -2.3995
 6874TIP3   OH242180   5.701   2.067   2.157  0.5267 -0.4759 -0.4228
 6874TIP3    H142181   5.645   2.118   2.214  1.4539 -0.9982  1.0205
 6874TIP3    H242182   5.772   2.036   2.214  0.1866 -3.0932 -1.2783
 6875TIP3   OH242183   3.100   3.574   0.672  0.0596  0.0998  0.4540
 6875TIP3    H142184   3.119   3.485   0.643 -0.1930  0.1727  0.0551
 6875TIP3    H242185   3.150   3.630   0.613  0.4937  0.2136  0.9254
 6876TIP3   OH242186   4.730   6.073   0.471  0.4851  0.2378 -0.3397
 6876TIP3    H142187   4.722   6.021   0.551 -1.0072  2.4125  1.0687
 6876TIP3    H242188   4.641   6.077   0.436  1.4177 -2.4919 -3.4863
 6877TIP3   OH242189   5.105   1.271   1.243  0.4510 -0.2208 -0.0957
 6877TIP3    H142190   5.128   1.335   1.174  0.8455 -0.3485 -0.0889
 6877TIP3    H242191   5.047   1.209   1.200  1.3284 -0.7591 -0.5504
 6878TIP3   OH242192   3.547   4.383   8.363 -0.3389  0.8157 -0.6652
 6878TIP3    H142193   3.505   4.298   8.369  0.3491  0.5112 -0.0266
 6878TIP3    H242194   3.537   4.408   8.271 -0.8807  0.2303 -0.7735
 6879TIP3   OH242195   4.052   6.754   1.899  0.3872 -0.4252  0.5262
 6879TIP3    H142196   4.059   6.659   1.891  0.8389 -0.4300  0.9199
 6879TIP3    H242197   4.052   6.786   1.809 -0.9210 -0.8692  0.3524
 6880TIP3   OH242198   1.241   0.960   2.080  0.4507  0.3394 -0.4054
 6880TIP3    H142199   1.298   0.983   2.153  0.6453  1.0867 -0.7875
 6880TIP3    H242200   1.206   0.874   2.104 -1.6841  1.7318  1.9119
 6881TIP3   OH242201   1.771   2.650   8.358  0.0227 -0.3428 -0.1794
 6881TIP3    H142202   1.849   2.701   8.339  1.0077 -1.5703  0.4003
 6881TIP3    H242203   1.802   2.578   8.413 -1.3395 -1.4362 -0.7664
 6882TIP3   OH242204   2.732   6.423   7.790 -0.1089  0.3923  0.3093
 6882TIP3    H142205   2.734   6.499   7.849  0.4828  0.1474  0.6069
 6882TIP3    H242206   2.639   6.411   7.771 -0.3001  0.5333  1.1171
 6883TIP3   OH242207   6.180   3.408   0.502 -0.2570  0.7926  0.3511
 6883TIP3    H142208   6.130   3.478   0.545  0.2254  0.5540  1.3262
 6883TIP3    H242209   6.249   3.454   0.454 -0.6160  1.0467  0.0698
 6884TIP3   OH242210   5.978   5.019   8.561 -0.2081 -0.6114  0.6598
 6884TIP3    H142211   5.927   5.032   8.482  1.1522  1.4648  0.0578
 6884TIP3    H242212   5.958   4.929   8.587  0.5963 -2.0207 -2.9821
 6885TIP3   OH242213   1.990   4.953   1.216  0.0655 -0.1026  0.4333
 6885TIP3    H142214   1.991   4.883   1.150  0.9759 -0.1645  0.5010
 6885TIP3    H242215   1.995   4.906   1.299 -2.8138 -0.1373  0.7031
 6886TIP3   OH242216   4.087   5.833   1.018  0.6372 -0.6464  0.4421
 6886TIP3    H142217   4.095   5.895   0.945  1.3773 -0.0352  1.0290
 6886TIP3    H242218   4.173   5.835   1.061  0.5427 -1.7815  0.7138
 6887TIP3   OH242219   2.501   4.555   1.181  0.6829  0.1937  0.1031
 6887TIP3    H142220   2.452   4.605   1.116 -2.7174 -0.1335  2.1807
 6887TIP3    H242221   2.438   4.491   1.215  2.9322 -1.1083  2.2018
 6888TIP3   OH242222   3.370   1.918   1.946 -0.1991 -0.3396  0.6158
 6888TIP3    H142223   3.395   2.006   1.974  1.2949 -0.5946  0.1561
 6888TIP3    H242224   3.277   1.926   1.923 -0.2768  0.9344  1.2820
 6889TIP3   OH242225   0.651   6.081   1.489 -0.5695  0.5198  0.6701
 6889TIP3    H142226   0.719   6.013   1.485 -1.0390  0.0669 -0.0642
 6889TIP3    H242227   0.665   6.133   1.410 -2.0046 -0.5349 -0.3554
 6890TIP3   OH242228   2.790   4.936   2.282  0.1193  0.3399  0.5421
 6890TIP3    H142229   2.703   4.898   2.292 -0.0345  0.1742 -1.1618
 6890TIP3    H242230   2.847   4.881   2.336 -0.6102 -0.3414  0.6363
 6891TIP3   OH242231   4.444   3.387   7.123  0.2287  0.3107 -0.4332
 6891TIP3    H142232   4.430   3.304   7.077  0.1532 -0.4789  0.9468
 6891TIP3    H242233   4.530   3.376   7.165  0.0444  0.7738  0.0746
 6892TIP3   OH242234   2.875   5.059   0.058 -0.4792 -0.3049 -0.4746
 6892TIP3    H142235   2.952   5.006   0.077  0.5560  1.6054  1.1003
 6892TIP3    H242236   2.895   5.104  -0.024  0.5416  0.8836  0.3920
 6893TIP3   OH242237   5.954   3.022   2.490  0.4189  0.1364 -0.7428
 6893TIP3    H142238   5.962   3.078   2.567  1.3422  0.7029 -1.2281
 6893TIP3    H242239   6.021   2.954   2.502 -0.5650 -0.7673 -0.2506
 6894TIP3   OH242240   2.247   0.553   0.714  0.5333 -0.3347  0.4410
 6894TIP3    H142241   2.239   0.469   0.669  0.8004  0.9139 -2.0816
 6894TIP3    H242242   2.339   0.559   0.738  0.5697 -0.6198  0.3753
 6895TIP3   OH242243   0.980   0.332   8.439  0.4677  0.7435 -0.8097
 6895TIP3    H142244   1.056   0.274   8.438 -0.6662 -0.8543  0.7977
 6895TIP3    H242245   1.012   0.412   8.481  0.6865 -0.9207  2.5199
 6896TIP3   OH242246   0.414   6.808   8.420  0.0816  0.1702 -0.0873
 6896TIP3    H142247   0.365   6.849   8.492 -0.2354  2.4678 -1.5128
 6896TIP3    H242248   0.478   6.752   8.464 -1.9220 -0.7266  1.8963
 6897TIP3   OH242249   0.728   4.305   8.685 -0.8842 -0.1953 -0.4849
 6897TIP3    H142250   0.732   4.398   8.662 -2.2898  0.2020  0.7405
 6897TIP3    H242251   0.709   4.260   8.602 -1.0553  0.6881 -0.9316
 6898TIP3   OH242252   2.859   5.173   2.979  0.4214 -0.1319 -0.0989
 6898TIP3    H142253   2.889   5.083   2.985 -1.4647 -0.8356 -0.5015
 6898TIP3    H242254   2.859   5.204   3.070 -0.0664 -0.9602  0.1983
 6899TIP3   OH242255   1.342   0.517   1.371  0.4657  0.1718 -0.2868
 6899TIP3    H142256   1.363   0.434   1.415  0.8711  0.2988 -0.2442
 6899TIP3    H242257   1.249   0.508   1.348  0.5477 -0.3572 -0.4233
 6900TIP3   OH242258   3.938   0.061   2.864 -0.5338 -0.4564 -0.2533
 6900TIP3    H142259   3.871   0.113   2.907  0.3770 -0.1243  0.8076
 6900TIP3    H242260   3.981   0.013   2.935  0.0246 -1.0428 -0.9644
 6901TIP3   OH242261   5.191   0.706   7.652 -0.2462 -0.4886  0.0122
 6901TIP3    H142262   5.285   0.697   7.641 -0.3280 -0.0581 -1.2404
 6901TIP3    H242263   5.180   0.749   7.737  0.7545  0.7131 -0.4440
 6902TIP3   OH242264   5.758   4.766   6.840 -0.5456 -0.6433  0.3484
 6902TIP3    H142265   5.798   4.837   6.789 -0.0225 -2.0456 -1.2645
 6902TIP3    H242266   5.672   4.800   6.864  0.1024  0.9557  0.6010
 6903TIP3   OH242267   0.261   0.542   7.303 -0.2428  0.4895  0.3145
 6903TIP3    H142268   0.210   0.521   7.225 -1.9683  0.7503  1.3240
 6903TIP3    H242269   0.293   0.631   7.287 -1.0863  0.7718  0.1377
 6904TIP3   OH242270   2.755   1.836   1.357  0.5064  0.0916 -0.1698
 6904TIP3    H142271   2.784   1.818   1.267 -0.2382 -1.1674 -0.1823
 6904TIP3    H242272   2.696   1.763   1.378 -1.5485  1.8116  0.3361
 6905TIP3   OH242273   0.613   6.613   7.448  0.5121 -0.4039 -0.2968
 6905TIP3    H142274   0.562   6.605   7.529  1.3691 -0.4677  0.2541
 6905TIP3    H242275   0.614   6.707   7.430  2.0031 -0.1564  0.9057
 6906TIP3   OH242276   3.341   4.308   8.730  0.2137 -0.0426  0.5438
 6906TIP3    H142277   3.350   4.215   8.751 -0.4363  0.0347  1.1988
 6906TIP3    H242278   3.261   4.314   8.677 -0.3940  0.2769  1.4678
 6907TIP3   OH242279   0.177   1.788   2.017 -0.0291  0.2695 -0.3919
 6907TIP3    H142280   0.223   1.806   1.935 -0.0320  0.1909 -0.4115
 6907TIP3    H242281   0.142   1.873   2.044  1.8683  0.7563  0.7193
 6908TIP3   OH242282   4.633   0.932   0.813 -0.3264 -0.4007  0.6019
 6908TIP3    H142283   4.551   0.883   0.813 -1.9220  2.0655 -1.0683
 6908TIP3    H242284   4.652   0.948   0.905 -1.3229 -1.6240  1.0392
 6909TIP3   OH242285   3.064   0.797   1.830  0.5958  0.0776  0.7114
 6909TIP3    H142286   3.145   0.836   1.797  0.1528  1.1116  0.7983
 6909TIP3    H242287   3.019   0.869   1.874 -1.9409  0.4503 -2.1643
 6910TIP3   OH242288   6.484   6.221   1.614  0.1827 -0.0536  0.2902
 6910TIP3    H142289   6.404   6.246   1.568  0.6722  2.5108  0.6716
 6910TIP3    H242290   6.457   6.213   1.705  0.0707 -0.8506  0.1985
 6911TIP3   OH242291   2.484   4.160   8.243 -0.1569 -0.0529  0.7877
 6911TIP3    H142292   2.492   4.232   8.305 -1.8886  0.0752  0.9180
 6911TIP3    H242293   2.472   4.082   8.297 -2.6963  0.1921  0.6914
 6912TIP3   OH242294   0.601   6.429   1.885  0.1134  0.1067 -0.0073
 6912TIP3    H142295   0.573   6.462   1.799 -0.7345 -1.4620 -0.3735
 6912TIP3    H242296   0.626   6.507   1.933 -0.8408  1.1854 -1.1744
 6913TIP3   OH242297   1.620   0.347   1.563  0.3592 -0.1605 -0.0208
 6913TIP3    H142298   1.612   0.373   1.472  0.8273  0.4238  0.1008
 6913TIP3    H242299   1.623   0.251   1.560 -1.4868 -0.2440 -0.4593
 6914TIP3   OH242300   0.872   5.513   1.682  0.6784  0.0553 -0.2518
 6914TIP3    H142301   0.820   5.458   1.625  1.1655 -0.5799 -0.1002
 6914TIP3    H242302   0.962   5.485   1.667  0.7707 -0.5134  1.2162
 6915TIP3   OH242303   1.064   4.956   7.133 -0.4399 -0.3427 -0.1159
 6915TIP3    H142304   1.143   4.917   7.095 -0.6710  0.1006 -1.1035
 6915TIP3    H242305   1.097   5.017   7.199  0.0881  0.3060 -0.9530
 6916TIP3   OH242306   6.324   4.957   0.498  0.0959  0.4226 -0.1860
 6916TIP3    H142307   6.282   5.043   0.496  0.4524  0.5942 -0.5272
 6916TIP3    H242308   6.260   4.900   0.540 -0.4385  0.7027 -0.5979
 6917TIP3   OH242309   3.596   0.189   8.112  0.1505 -0.5303 -0.0289
 6917TIP3    H142310   3.643   0.210   8.192 -1.1515 -3.9421  1.8473
 6917TIP3    H242311   3.647   0.119   8.071 -0.7209 -0.8905 -0.5565
 6918TIP3   OH242312   3.114   1.805   1.055 -0.1946  0.6685 -0.1812
 6918TIP3    H142313   3.155   1.754   0.985  1.1366  0.9669  0.3446
 6918TIP3    H242314   3.174   1.795   1.129 -1.2044  0.9499  0.6990
 6919TIP3   OH242315   5.783   5.919   1.786 -0.0941 -0.0325 -0.0922
 6919TIP3    H142316   5.739   5.875   1.714 -1.4245  2.3504 -0.8533
 6919TIP3    H242317   5.869   5.942   1.752  0.1913 -1.0161 -0.0610
 6920TIP3   OH242318   0.108   4.156   1.368  0.3527  0.1688  0.3474
 6920TIP3    H142319   0.017   4.146   1.341  0.1239  1.1389  0.7163
 6920TIP3    H242320   0.139   4.066   1.380 -0.0238 -0.2541 -1.4641
 6921TIP3   OH242321   5.708   4.643   1.895 -0.0793 -0.4425 -0.0465
 6921TIP3    H142322   5.648   4.672   1.964 -1.8004 -2.7704 -0.4492
 6921TIP3    H242323   5.694   4.705   1.823 -1.1897 -0.2810  0.2835
 6922TIP3   OH242324   3.205   5.670   2.115  0.1142 -0.6104 -0.4738
 6922TIP3    H142325   3.218   5.719   2.197 -0.5046  0.1455 -0.8121
 6922TIP3    H242326   3.183   5.581   2.143  2.6843 -1.1402  0.1569
 6923TIP3   OH242327   2.594   3.386   0.414 -0.3321 -0.1476  0.7465
 6923TIP3    H142328   2.626   3.452   0.475 -0.8300 -1.2852  2.3318
 6923TIP3    H242329   2.667   3.325   0.404  0.4176  1.0180 -1.3682
 6924TIP3   OH242330   0.061   2.201   8.351  0.1247  0.1877 -0.8886
 6924TIP3    H142331   0.069   2.105   8.357 -2.3384 -0.0029  0.4210
 6924TIP3    H242332   0.137   2.234   8.399  0.6477 -1.1109 -0.7637
 6925TIP3   OH242333   4.376   0.612   7.521  0.3850  0.1367  0.5420
 6925TIP3    H142334   4.449   0.674   7.534 -0.0623  0.3720  2.1849
 6925TIP3    H242335   4.327   0.616   7.603 -0.3337 -1.5363  0.2289
 6926TIP3   OH242336   4.326   2.248   1.165  0.2973  0.4901 -0.4946
 6926TIP3    H142337   4.355   2.165   1.205 -0.3096  0.6548  0.3158
 6926TIP3    H242338   4.310   2.306   1.240 -0.0868  1.0750 -1.0247
 6927TIP3   OH242339   2.346   0.478   7.488 -0.4011  0.0012  0.1878
 6927TIP3    H142340   2.438   0.501   7.503 -0.6486  0.2964  1.3254
 6927TIP3    H242341   2.327   0.412   7.555 -0.8497 -0.5080 -0.4338
 6928TIP3   OH242342   3.742   3.898   7.875  0.2072  0.3054 -0.2878
 6928TIP3    H142343   3.690   3.977   7.864 -1.0796 -0.6053 -0.9695
 6928TIP3    H242344   3.756   3.864   7.787  1.3261  0.1067 -0.0612
 6929TIP3   OH242345   4.521   4.865   1.122 -0.2163  0.3632 -0.7093
 6929TIP3    H142346   4.458   4.802   1.088 -1.4172  0.6221  0.9038
 6929TIP3    H242347   4.513   4.941   1.065 -1.7595  0.5803 -0.2396
 6930TIP3   OH242348   6.183   4.277   8.799  0.4054  0.0873  0.1624
 6930TIP3    H142349   6.115   4.236   8.745  2.1203 -1.9460 -0.5917
 6930TIP3    H242350   6.134   4.322   8.868 -1.7325 -0.7426 -0.7120
 6931TIP3   OH242351   5.402   3.293   2.550 -0.0135 -0.0357 -0.5613
 6931TIP3    H142352   5.383   3.204   2.580  1.7718  0.2025  1.5261
 6931TIP3    H242353   5.337   3.348   2.594  0.6283 -0.0399  0.4201
 6932TIP3   OH242354   3.356   2.291   2.336  0.2697  0.1761 -0.8489
 6932TIP3    H142355   3.422   2.342   2.383  1.7298 -1.5191 -0.9362
 6932TIP3    H242356   3.273   2.333   2.357  1.2185  1.4817  0.4954
 6933TIP3   OH242357   4.970   6.118   1.905 -0.3007 -0.0783  0.1838
 6933TIP3    H142358   4.902   6.153   1.963  0.5870 -0.0929  1.2769
 6933TIP3    H242359   5.049   6.168   1.928  0.3236 -0.8311 -0.2579
 6934TIP3   OH242360   3.822   0.872   7.669 -0.2418 -0.2616  0.8042
 6934TIP3    H142361   3.907   0.873   7.712  0.7164  1.9939 -0.9393
 6934TIP3    H242362   3.784   0.958   7.690 -0.3818  0.2993 -1.5132
 6935TIP3   OH242363   1.280   2.481   1.056 -0.0074  0.5134  0.1875
 6935TIP3    H142364   1.340   2.552   1.035  1.2212 -0.7356 -0.7493
 6935TIP3    H242365   1.336   2.410   1.087 -1.1537 -0.1988  0.7192
 6936TIP3   OH242366   5.825   0.681   7.958  0.1134  0.2489  0.1237
 6936TIP3    H142367   5.760   0.612   7.966 -1.7743  1.9646  0.2037
 6936TIP3    H242368   5.853   0.699   8.047  0.6313 -0.3825  0.1008
 6937TIP3   OH242369   5.469   6.654   7.307  0.3057 -0.3755 -0.5214
 6937TIP3    H142370   5.512   6.602   7.240 -0.6377  0.0252 -1.4643
 6937TIP3    H242371   5.541   6.700   7.352  1.0331 -1.4991 -0.4990
 6938TIP3   OH242372   0.057   5.561   1.350  0.1571  0.4371 -0.0549
 6938TIP3    H142373  -0.005   5.493   1.324 -0.7909  1.2371  0.0623
 6938TIP3    H242374   0.045   5.630   1.284  2.1481 -0.0856 -1.0346
 6939TIP3   OH242375   4.975   6.527   0.067 -0.6774  0.6029  0.1316
 6939TIP3    H142376   4.939   6.447   0.107  1.2356  0.0747  0.9295
 6939TIP3    H242377   4.965   6.594   0.135  1.6705 -0.0592  1.2282
 6940TIP3   OH242378   0.884   0.155   7.128  0.0336 -0.0918 -0.1656
 6940TIP3    H142379   0.791   0.173   7.117 -0.0557 -1.0836 -1.2938
 6940TIP3    H242380   0.897   0.150   7.222 -1.3663 -1.3814 -0.0070
 6941TIP3   OH242381   1.053   5.084   1.311 -0.0194  0.6923  0.8532
 6941TIP3    H142382   1.068   5.179   1.315  0.3188  0.6260  1.1909
 6941TIP3    H242383   1.098   5.049   1.388 -0.8915  0.3541  1.2241
 6942TIP3   OH242384   5.582   6.015   2.616  0.3186  0.1933  0.0775
 6942TIP3    H142385   5.523   5.964   2.561 -1.7203  1.4372  1.0077
 6942TIP3    H242386   5.630   5.950   2.667 -1.0031 -0.8369  0.0393
 6943TIP3   OH242387   5.837   5.018   6.770  0.0213  0.3803  0.5925
 6943TIP3    H142388   5.876   5.072   6.701 -1.9346 -1.1601 -1.8949
 6943TIP3    H242389   5.911   4.991   6.823  1.4133  3.0159  0.1495
 6944TIP3   OH242390   5.690   0.931   0.465  0.4572  0.5700 -0.2437
 6944TIP3    H142391   5.728   0.852   0.426 -0.2092 -0.6389  1.4193
 6944TIP3    H242392   5.606   0.902   0.501  1.3400  1.3144  2.7505
 6945TIP3   OH242393   1.088   3.604   1.060  0.2117  0.3424 -0.0419
 6945TIP3    H142394   1.110   3.678   1.117 -2.5006  0.6862  0.6826
 6945TIP3    H242395   1.082   3.642   0.972 -2.2877  1.3093  0.4854
 6946TIP3   OH242396   0.524   6.508   0.215  0.2161  0.1186  0.2122
 6946TIP3    H142397   0.557   6.583   0.166 -0.8859  0.9670  0.7334
 6946TIP3    H242398   0.553   6.523   0.305  0.4914 -0.3923  0.2145
 6947TIP3   OH242399   3.157   0.933   8.625  0.4398 -0.6157  0.2794
 6947TIP3    H142400   3.062   0.937   8.616  0.2705 -0.5748  1.8339
 6947TIP3    H242401   3.178   0.840   8.619  0.1003 -0.7895  1.5428
 6948TIP3   OH242402   0.512   4.248   0.010 -0.5583  0.0730 -0.5291
 6948TIP3    H142403   0.570   4.240  -0.066 -1.0555 -1.4310 -0.7893
 6948TIP3    H242404   0.492   4.341   0.015 -1.0098  0.1511 -2.6595
 6949TIP3   OH242405   3.031   3.189   1.164 -0.3661  0.4837  0.2680
 6949TIP3    H142406   3.023   3.181   1.069 -0.5969 -2.2399  0.4481
 6949TIP3    H242407   2.954   3.240   1.191 -1.0608  0.0676 -0.8748
 6950TIP3   OH242408   3.263   3.233   0.331 -0.3159  0.4737 -0.0266
 6950TIP3    H142409   3.244   3.315   0.378 -0.2190 -1.2660  3.3449
 6950TIP3    H242410   3.352   3.211   0.359  1.1414  0.9397 -3.7917
 6951TIP3   OH242411   5.110   6.805   6.619 -0.3460 -0.0160 -0.1701
 6951TIP3    H142412   5.187   6.781   6.671 -1.6544 -2.1611  0.8906
 6951TIP3    H242413   5.103   6.736   6.553 -1.6741 -0.1758  0.1161
 6952TIP3   OH242414   4.310   3.824   7.084  0.3234 -0.9474 -0.4715
 6952TIP3    H142415   4.298   3.880   7.008 -1.5348 -0.4637  0.1422
 6952TIP3    H242416   4.317   3.736   7.049  0.4178 -0.6370 -1.2447
 6953TIP3   OH242417   0.815   6.715   2.215  0.2210  0.8773  0.3883
 6953TIP3    H142418   0.768   6.747   2.138  0.2652  1.7816  0.7187
 6953TIP3    H242419   0.832   6.623   2.197  0.0586  1.0326 -0.5946
 6954TIP3   OH242420   1.435   6.812   2.198 -0.4222  0.0938 -0.3337
 6954TIP3    H142421   1.357   6.758   2.212  0.2971 -0.4976  1.7889
 6954TIP3    H242422   1.426   6.843   2.108 -1.7698 -2.0960 -1.0521
 6955TIP3   OH242423   1.928   2.964   2.378 -0.0475 -0.1182 -0.0311
 6955TIP3    H142424   1.890   2.945   2.464  2.3332  0.4736  1.2351
 6955TIP3    H242425   1.912   3.057   2.365  0.6015  0.0446  0.3186
 6956TIP3   OH242426   0.714   3.093   2.902 -0.2563  0.1542 -0.6968
 6956TIP3    H142427   0.651   3.132   2.842  0.9333  0.6165 -1.6798
 6956TIP3    H242428   0.685   3.002   2.910 -2.9122  1.0503  1.4294
 6957TIP3   OH242429   3.000   4.605   7.607  0.5804  0.5548 -0.0216
 6957TIP3    H142430   2.933   4.669   7.584 -0.8950 -1.3430 -1.2888
 6957TIP3    H242431   2.997   4.600   7.703  0.4971  2.1005  0.0775
 6958TIP3   OH242432   3.803   2.407   1.438 -0.1858  0.6697  0.5511
 6958TIP3    H142433   3.828   2.315   1.431 -0.2289  0.4638  2.4159
 6958TIP3    H242434   3.708   2.404   1.454  0.0346  0.9041  2.0888
 6959TIP3   OH242435   0.015   1.205   1.064 -0.1586 -0.4952  0.3062
 6959TIP3    H142436   0.088   1.145   1.051 -1.8470 -2.6465  0.0989
 6959TIP3    H242437  -0.009   1.233   0.976  0.3859  0.1971  0.3730
 6960TIP3   OH242438   2.897   0.917   8.598  0.6901  0.2256  0.9456
 6960TIP3    H142439   2.887   0.822   8.590  0.9810  0.2100  0.7470
 6960TIP3    H242440   2.809   0.952   8.584  0.8647  0.0889 -0.7461
 6961TIP3   OH242441   5.869   2.840   0.746 -0.1772  0.6951  0.4773
 6961TIP3    H142442   5.961   2.818   0.758 -0.0279  0.9164 -0.2176
 6961TIP3    H242443   5.841   2.871   0.832  0.5634  1.2003  0.5508
 6962TIP3   OH242444   4.539   1.412   7.531 -0.5058 -0.4156  0.5598
 6962TIP3    H142445   4.607   1.472   7.500  0.3100 -1.5901  0.0097
 6962TIP3    H242446   4.528   1.433   7.623  1.4323 -0.9381  0.9564
 6963TIP3   OH242447   5.059   4.520   7.884  0.1630  0.3074  0.0383
 6963TIP3    H142448   5.069   4.483   7.796  0.3501  1.2043 -0.3260
 6963TIP3    H242449   5.147   4.543   7.911 -0.0335  1.1609 -0.0410
 6964TIP3   OH242450   3.025   3.468   0.338 -0.6186  0.0621 -0.4992
 6964TIP3    H142451   3.034   3.557   0.373 -1.0955  0.2059 -0.7202
 6964TIP3    H242452   3.082   3.468   0.261  0.6312 -0.3370  0.3953
 6965TIP3   OH242453   5.439   3.144   7.857  0.5870 -0.0809  0.1938
 6965TIP3    H142454   5.452   3.224   7.906  0.0036 -2.0306  3.8911
 6965TIP3    H242455   5.360   3.160   7.805  1.6487  2.3273 -0.8033
 6966TIP3   OH242456   2.818   2.366   2.125 -0.7882 -0.0015  0.0649
 6966TIP3    H142457   2.842   2.366   2.032 -1.4895 -0.0886 -0.1183
 6966TIP3    H242458   2.839   2.277   2.155  1.1444  0.5335  0.4546
 6967TIP3   OH242459   4.738   2.565   8.310 -0.4827  0.2703  0.1647
 6967TIP3    H142460   4.775   2.618   8.240 -0.8717  1.5350  0.8700
 6967TIP3    H242461   4.643   2.577   8.301 -0.5364  0.5149  0.9227
 6968TIP3   OH242462   1.953   1.667   8.595 -0.1029  0.3294  0.1680
 6968TIP3    H142463   1.971   1.574   8.584 -1.3131  0.2817 -1.7122
 6968TIP3    H242464   1.950   1.680   8.690  3.2349 -0.8682  0.5400
 6969TIP3   OH242465   1.687   0.470   1.313 -0.0814 -0.5508  0.0794
 6969TIP3    H142466   1.648   0.469   1.226 -2.5494  0.5063  1.0866
 6969TIP3    H242467   1.770   0.422   1.303  0.2795  0.4945 -3.0644
 6970TIP3   OH242468   6.034   1.270   0.832 -0.3128  0.1010 -0.0780
 6970TIP3    H142469   5.999   1.359   0.825 -0.4218 -0.0626 -2.9672
 6970TIP3    H242470   6.114   1.272   0.778 -0.3541 -1.5417 -0.2317
 6971TIP3   OH242471   2.046   5.729   8.544 -0.0972  0.3444  0.0246
 6971TIP3    H142472   2.122   5.786   8.547  0.0227  0.3118 -1.4910
 6971TIP3    H242473   2.003   5.751   8.461 -1.2741 -0.2141  0.4688
 6972TIP3   OH242474   2.351   5.068   0.299  0.4783 -0.6218 -0.4161
 6972TIP3    H142475   2.282   5.128   0.325  1.7033 -0.0505  1.7645
 6972TIP3    H242476   2.411   5.122   0.248 -1.2563 -1.4385 -3.5806
 6973TIP3   OH242477   2.749   5.715   2.643  0.8496  0.3140 -0.0021
 6973TIP3    H142478   2.756   5.696   2.736 -0.1453 -2.8772 -0.4741
 6973TIP3    H242479   2.827   5.769   2.624  0.4392  2.0913  2.8073
 6974TIP3   OH242480   4.871   6.574   8.627 -0.2738  0.7370 -0.0797
 6974TIP3    H142481   4.915   6.557   8.710 -1.7458  2.9142  1.2626
 6974TIP3    H242482   4.923   6.528   8.562  1.6486 -0.0303  1.8904
 6975TIP3   OH242483   2.871   1.134   1.051  0.6587  0.1564 -0.1651
 6975TIP3    H142484   2.964   1.155   1.062  0.4090  0.8501  0.7433
 6975TIP3    H242485   2.838   1.200   0.990  0.7408 -0.0428 -0.4270
 6976TIP3   OH242486   0.280   2.784   7.909 -0.0295 -0.0901  0.2119
 6976TIP3    H142487   0.205   2.741   7.867 -1.4645  2.0780  0.4174
 6976TIP3    H242488   0.274   2.757   8.001  0.2239 -0.9227 -0.0021
 6977TIP3   OH242489   0.479   2.489   1.883  0.4969 -0.4143  0.1765
 6977TIP3    H142490   0.406   2.552   1.881 -0.2919 -1.2703  0.8610
 6977TIP3    H242491   0.538   2.519   1.814  0.1062  1.0242  0.4226
 6978TIP3   OH242492   0.532   3.988   0.897  1.2649  0.2039  0.1275
 6978TIP3    H142493   0.559   4.014   0.810  0.3282 -1.5272 -0.7397
 6978TIP3    H242494   0.614   3.977   0.946  1.7612  1.9055 -0.2729
 6979TIP3   OH242495   0.176   4.876   8.093 -0.5295 -0.3514 -0.0489
 6979TIP3    H142496   0.180   4.944   8.159  1.6532 -0.5120  0.0640
 6979TIP3    H242497   0.135   4.801   8.137 -0.1729 -0.0765  0.7587
 6980TIP3   OH242498   4.753   3.444   7.376  0.5504 -0.2882 -0.1218
 6980TIP3    H142499   4.715   3.369   7.331  2.6712 -1.8210  0.4686
 6980TIP3    H242500   4.793   3.497   7.306  1.7721 -1.4116 -0.3085
 6981TIP3   OH242501   3.164   3.222   2.865  0.2015 -0.1988  0.2961
 6981TIP3    H142502   3.172   3.279   2.788 -0.4043 -0.7827 -0.2159
 6981TIP3    H242503   3.249   3.227   2.908  0.0227  1.4314  0.5183
 6982TIP3   OH242504   1.395   1.779   7.771 -0.2098  0.0960 -0.7660
 6982TIP3    H142505   1.416   1.848   7.834  2.1717  1.1208 -2.5663
 6982TIP3    H242506   1.312   1.807   7.732  0.6263  1.8957 -1.3467
 6983TIP3   OH242507   4.395   2.584   0.425 -0.0875 -0.2644 -0.2429
 6983TIP3    H142508   4.368   2.577   0.516  0.7400  0.3379  0.0590
 6983TIP3    H242509   4.318   2.616   0.378  0.3140  2.4082  0.7500
 6984TIP3   OH242510   1.996   2.896   1.784  0.2065  0.1277 -0.7098
 6984TIP3    H142511   2.079   2.882   1.738  0.0223 -2.8093 -0.3282
 6984TIP3    H242512   2.019   2.950   1.860  1.5344  0.3104 -1.2190
 6985TIP3   OH242513   4.097   4.893   2.266  0.3557 -0.2400 -0.2668
 6985TIP3    H142514   4.087   4.830   2.195  1.2812 -0.2299 -0.4154
 6985TIP3    H242515   4.146   4.966   2.228 -0.1811  0.3043  0.0661
 6986TIP3   OH242516   2.970   5.176   7.939  0.4363  0.0205 -0.8469
 6986TIP3    H142517   2.887   5.218   7.916  0.3623  0.3966  0.0912
 6986TIP3    H242518   3.032   5.248   7.950  0.7038 -0.2117 -0.8082
 6987TIP3   OH242519   4.218   5.981   8.031 -0.1975  0.0822  0.4829
 6987TIP3    H142520   4.234   5.889   8.009 -0.8000 -0.4320  2.1256
 6987TIP3    H242521   4.259   6.029   7.959 -0.6313 -1.4758 -0.8663
 6988TIP3   OH242522   3.626   6.700   1.181  0.4836  0.5158  0.8692
 6988TIP3    H142523   3.609   6.618   1.134 -0.4648  0.3546  1.4715
 6988TIP3    H242524   3.682   6.751   1.121  0.2543 -0.1554  0.0666
 6989TIP3   OH242525   2.885   2.876   7.501  0.0126 -0.4744  0.0566
 6989TIP3    H142526   2.950   2.862   7.431 -1.0923 -0.8951 -0.9185
 6989TIP3    H242527   2.868   2.970   7.499 -0.2610 -0.5328 -0.4714
 6990TIP3   OH242528   2.670   4.923   1.559  0.3639  0.1382 -0.0335
 6990TIP3    H142529   2.593   4.974   1.535  0.7255  1.4735  1.5287
 6990TIP3    H242530   2.643   4.832   1.546 -1.5022  0.5658  0.5294
 6991TIP3   OH242531   4.579   5.976   0.022 -0.0586 -0.2700 -0.1436
 6991TIP3    H142532   4.591   5.988  -0.072 -0.1406 -0.8069 -0.2248
 6991TIP3    H242533   4.485   5.959   0.032 -0.4035  1.6418  0.2425
 6992TIP3   OH242534   5.967   6.547   6.774 -0.3009  0.3328 -0.5931
 6992TIP3    H142535   5.932   6.476   6.827  2.1444  0.1450  0.8853
 6992TIP3    H242536   5.907   6.620   6.789 -1.3366 -0.6178 -0.0103
 6993TIP3   OH242537   6.075   6.593   1.910  0.1250  0.2269 -0.0995
 6993TIP3    H142538   6.001   6.533   1.918  1.5879 -1.5090  1.2408
 6993TIP3    H242539   6.097   6.617   2.000 -0.4471  2.9302 -0.5922
 6994TIP3   OH242540   6.179   2.642   8.010 -0.7210 -0.4096  0.2849
 6994TIP3    H142541   6.115   2.706   7.979 -2.3512 -1.7111  0.7834
 6994TIP3    H242542   6.148   2.558   7.975  1.1250 -1.0109 -0.0238
 6995TIP3   OH242543   4.617   3.946   2.088 -0.8352 -0.1047 -0.1931
 6995TIP3    H142544   4.679   3.875   2.074 -0.3949  0.2866 -0.2545
 6995TIP3    H242545   4.667   4.026   2.070 -1.4520  0.2015 -0.5912
 6996TIP3   OH242546   0.999   3.682   7.995  0.5299  0.2801 -0.2837
 6996TIP3    H142547   1.051   3.681   8.075  0.3190  1.1538 -0.1205
 6996TIP3    H242548   0.908   3.680   8.025  0.4281  1.5602 -0.4398
 6997TIP3   OH242549   4.922   5.368   0.533 -0.4663 -0.0214 -0.3142
 6997TIP3    H142550   4.987   5.315   0.579 -1.5137 -0.3541  0.8436
 6997TIP3    H242551   4.841   5.316   0.537 -1.3617  1.3721  0.3015
 6998TIP3   OH242552   2.347   2.932   7.700  0.0072  0.7969  0.0937
 6998TIP3    H142553   2.265   2.952   7.745  0.8743  0.9802  1.6856
 6998TIP3    H242554   2.322   2.878   7.626 -1.7702  2.5669 -0.6767
 6999TIP3   OH242555   2.231   4.304   2.140  0.4046  0.0012  0.4471
 6999TIP3    H142556   2.202   4.286   2.051 -0.2167 -1.0293  0.8374
 6999TIP3    H242557   2.248   4.399   2.141  1.0212 -0.0787 -0.9156
 7000TIP3   OH242558   4.531   1.567   0.115 -0.3123  0.8445 -0.6811
 7000TIP3    H142559   4.593   1.503   0.151 -1.2399  0.8765  1.1125
 7000TIP3    H242560   4.559   1.650   0.153 -2.4513  0.6000  1.7003
 7001TIP3   OH242561   0.500   3.620   1.919  0.0260 -0.3525 -0.3682
 7001TIP3    H142562   0.485   3.526   1.911  1.0562 -0.5936  0.3283
 7001TIP3    H242563   0.537   3.646   1.834  0.2944 -0.6937 -0.3566
 7002TIP3   OH242564   1.593   0.252   8.412  0.7607 -0.2455  0.3728
 7002TIP3    H142565   1.636   0.317   8.357  1.0132  0.5249  1.4480
 7002TIP3    H242566   1.556   0.302   8.485 -0.6106 -1.0948  0.2931
 7003TIP3   OH242567   5.724   5.443   7.464  0.6328 -0.0266 -0.3999
 7003TIP3    H142568   5.652   5.466   7.404  0.9097  1.6026 -0.1735
 7003TIP3    H242569   5.685   5.382   7.526  0.3768 -1.9126 -2.3028
 7004TIP3   OH242570   2.326   2.915   1.219 -0.5650  0.1648  0.4229
 7004TIP3    H142571   2.401   2.925   1.278 -1.7138 -0.3365  2.0445
 7004TIP3    H242572   2.297   2.825   1.232 -0.5423 -0.1358 -1.3466
 7005TIP3   OH242573   0.730   3.384   0.913  0.7093  0.7943 -0.7760
 7005TIP3    H142574   0.730   3.338   0.997 -1.9186  0.1778 -1.0338
 7005TIP3    H242575   0.759   3.473   0.934 -0.5178  0.8372  0.9265
 7006TIP3   OH242576   5.531   1.344   0.591 -0.8742 -0.6223  0.1893
 7006TIP3    H142577   5.468   1.411   0.617  0.6583  1.2688 -0.6896
 7006TIP3    H242578   5.562   1.374   0.505  2.3825 -0.5568  1.2876
 7007TIP3   OH242579   5.313   1.535   0.613 -0.3081 -0.0340  0.2591
 7007TIP3    H142580   5.238   1.511   0.668  1.3619 -0.1459  2.6841
 7007TIP3    H242581   5.345   1.618   0.651  0.0452  0.6878 -1.5359
 7008TIP3   OH242582   0.428   5.335   7.240  0.3111  0.2785 -0.0345
 7008TIP3    H142583   0.452   5.307   7.152  0.2070  3.3310 -1.1582
 7008TIP3    H242584   0.376   5.415   7.226  1.8169  1.9095  2.8203
 7009TIP3   OH242585   0.779   2.879   2.056 -0.4920 -0.5128 -0.3525
 7009TIP3    H142586   0.870   2.889   2.083 -1.0049  1.4905  0.8971
 7009TIP3    H242587   0.742   2.816   2.118 -0.3379 -0.0978  0.1637
 7010TIP3   OH242588   6.299   6.462   8.085  0.2684 -0.4771 -0.3305
 7010TIP3    H142589   6.218   6.412   8.090  0.6479 -1.2791 -1.6914
 7010TIP3    H242590   6.327   6.473   8.176 -0.9457 -0.8574  0.1049
 7011TIP3   OH242591   6.430   5.104   8.590 -0.2112 -0.5445 -0.3033
 7011TIP3    H142592   6.428   5.111   8.494 -0.8404 -2.7574 -0.4957
 7011TIP3    H242593   6.339   5.109   8.617  0.0647  3.8553  0.6567
 7012TIP3   OH242594   6.445   4.598   8.738 -0.1709  0.1498  0.1652
 7012TIP3    H142595   6.470   4.552   8.657 -1.1539  1.3718 -0.8784
 7012TIP3    H242596   6.438   4.529   8.803 -0.5009 -1.0502 -1.0860
 7013TIP3   OH242597   1.853   2.005   7.857  0.2489  0.1993  0.6244
 7013TIP3    H142598   1.911   2.070   7.816 -0.1888  0.3079  0.1642
 7013TIP3    H242599   1.802   1.969   7.785 -1.1867  1.0503  1.1603
 7014TIP3   OH242600   0.182   0.981   1.032 -0.9162 -0.3930  0.0345
 7014TIP3    H142601   0.264   0.938   1.009  0.7508  2.0053  1.0687
 7014TIP3    H242602   0.118   0.945   0.971  1.1017 -1.6205 -1.4886
 7015TIP3   OH242603   2.083   0.863   1.917  0.0781 -0.1395  0.0906
 7015TIP3    H142604   2.119   0.801   1.853  2.2398  0.2963  0.7862
 7015TIP3    H242605   2.124   0.947   1.895 -0.5930  0.4281  0.9214
 7016TIP3   OH242606   2.976   2.357   0.876 -0.2016  0.6578 -0.0176
 7016TIP3    H142607   3.066   2.338   0.902 -1.2029 -0.6918  2.8947
 7016TIP3    H242608   2.948   2.427   0.935 -1.0586  1.1389 -0.9609
 7017TIP3   OH242609   4.339   3.513   0.244 -0.8735 -0.1103  0.2377
 7017TIP3    H142610   4.297   3.599   0.241  1.1985  0.9514 -1.2635
 7017TIP3    H242611   4.433   3.532   0.239 -0.2650 -2.4154  1.5466
 7018TIP3   OH242612   6.632   4.694   1.377  0.1345 -0.7760  0.2459
 7018TIP3    H142613   6.559   4.719   1.433  1.1754  0.3221  1.1593
 7018TIP3    H242614   6.611   4.605   1.348 -1.5177 -0.5069  0.5331
 7019TIP3   OH242615   4.315   2.228   0.075  0.1502  0.1150  0.5083
 7019TIP3    H142616   4.252   2.177   0.026  0.8031 -0.3401  0.1298
 7019TIP3    H242617   4.350   2.291   0.012  0.1858  0.2686  0.6783
 7020TIP3   OH242618   2.738   6.652   7.957  0.6708  0.5422 -0.0983
 7020TIP3    H142619   2.783   6.713   8.016  0.6971  1.0941 -0.6789
 7020TIP3    H242620   2.648   6.650   7.989  1.0736 -0.5273  1.0393
 7021TIP3   OH242621   3.650   1.079   1.479 -0.0897  0.2136  0.3248
 7021TIP3    H142622   3.714   1.150   1.469 -0.7077  1.3127  3.2195
 7021TIP3    H242623   3.704   1.002   1.498  0.4801  1.0688  2.4578
 7022TIP3   OH242624   1.267   3.432   7.590 -0.3653  0.0224  0.5853
 7022TIP3    H142625   1.227   3.441   7.676  0.1006  1.6844  0.6614
 7022TIP3    H242626   1.344   3.489   7.593  0.9009 -1.5733 -0.2203
 7023TIP3   OH242627   0.345   5.979   2.773 -0.6597 -0.5242 -0.2145
 7023TIP3    H142628   0.359   5.991   2.867  1.2832  0.1741 -0.5455
 7023TIP3    H242629   0.314   5.889   2.764  0.9506 -1.2213  0.9463
 7024TIP3   OH242630   3.413   0.545   7.485  0.0590 -0.4533  0.0803
 7024TIP3    H142631   3.480   0.605   7.452  0.7074 -0.1716  1.7902
 7024TIP3    H242632   3.456   0.459   7.486 -0.3531 -0.6811 -0.8952
 7025TIP3   OH242633   0.292   4.730   1.200 -0.4035 -0.1283 -0.0422
 7025TIP3    H142634   0.289   4.638   1.172 -1.0143  0.1692 -1.0175
 7025TIP3    H242635   0.200   4.757   1.202 -0.3936 -0.1084  2.2911
 7026TIP3   OH242636   3.774   4.769   1.485 -0.3739  0.3321 -0.0352
 7026TIP3    H142637   3.732   4.804   1.564 -1.0130  2.3423 -1.2077
 7026TIP3    H242638   3.861   4.809   1.484 -0.9158  1.5612 -1.1026
 7027TIP3   OH242639   5.484   1.979   2.019 -0.4202  0.6204 -0.4038
 7027TIP3    H142640   5.564   2.017   2.055  1.5596 -1.9996 -1.6923
 7027TIP3    H242641   5.486   2.005   1.926  0.7761 -2.0281 -1.2191
 7028TIP3   OH242642   5.025   4.678   1.790 -1.0899 -0.0973 -0.0689
 7028TIP3    H142643   5.038   4.697   1.883 -1.2544  0.9667 -0.2573
 7028TIP3    H242644   5.107   4.705   1.748 -0.8708 -0.9186 -0.2021
 7029TIP3   OH242645   1.466   6.610   8.478  0.4977  0.4526 -0.0598
 7029TIP3    H142646   1.400   6.590   8.412  0.0055 -0.4100  0.6749
 7029TIP3    H242647   1.415   6.638   8.555  0.9432 -0.5309  0.6176
 7030TIP3   OH242648   6.486   1.096   2.321 -0.6130 -0.0498  0.1674
 7030TIP3    H142649   6.567   1.131   2.358 -0.2624  1.5748 -1.9439
 7030TIP3    H242650   6.506   1.005   2.299  0.2790  0.0156  0.6964
 7031TIP3   OH242651   0.615   2.079   2.474  0.4143  0.5102 -0.5246
 7031TIP3    H142652   0.531   2.074   2.518  1.1696 -0.9867  0.8289
 7031TIP3    H242653   0.616   2.003   2.415  0.7660  0.5956 -0.6312
 7032TIP3   OH242654   1.820   5.516   3.129  0.3406  0.4908 -0.3352
 7032TIP3    H142655   1.906   5.493   3.091  0.0228  0.8049 -1.2830
 7032TIP3    H242656   1.769   5.435   3.123  0.9622 -0.0843  1.4572
 7033TIP3   OH242657   0.129   3.996   8.599  0.1504  0.6662 -0.1609
 7033TIP3    H142658   0.159   3.972   8.512 -0.0388  1.2703 -0.3951
 7033TIP3    H242659   0.143   4.090   8.605 -0.2345  0.7001  0.3017
 7034TIP3   OH242660   5.148   3.341   0.462 -0.5666 -1.2289 -0.3005
 7034TIP3    H142661   5.123   3.263   0.511 -1.0607 -1.1128 -0.3666
 7034TIP3    H242662   5.082   3.406   0.486 -1.3496 -1.4313 -1.8222
 7035TIP3   OH242663   1.459   3.546   3.069  0.1444  0.2525  0.6063
 7035TIP3    H142664   1.540   3.527   3.117  0.6553  1.4561  0.2713
 7035TIP3    H242665   1.395   3.566   3.137  0.6080  1.0009  0.8325
 7036TIP3   OH242666   6.809   2.862   2.205 -0.2513  0.5954 -0.1384
 7036TIP3    H142667   6.738   2.862   2.140  0.4898  1.1245 -0.9682
 7036TIP3    H242668   6.808   2.950   2.241 -0.4358  0.4045  0.3316
 7037TIP3   OH242669   3.601   5.118   7.418 -0.4882 -0.3943 -0.1012
 7037TIP3    H142670   3.696   5.107   7.405 -0.5452 -0.5433 -0.4131
 7037TIP3    H242671   3.565   5.119   7.329 -0.8729 -1.2168  0.0313
 7038TIP3   OH242672   3.554   1.244   2.186 -0.0877 -0.2955  0.5169
 7038TIP3    H142673   3.553   1.149   2.175 -1.1296 -0.4756  1.8682
 7038TIP3    H242674   3.633   1.273   2.141  1.0066 -1.9524  1.2636
 7039TIP3   OH242675   1.758   2.393   2.964  0.6579  0.2119  0.1077
 7039TIP3    H142676   1.803   2.316   2.928  0.6563  0.0012  0.5518
 7039TIP3    H242677   1.680   2.358   3.006 -0.1019  0.6092 -0.9369
 7040TIP3   OH242678   5.744   6.675   7.402 -0.2484 -0.8181 -0.1274
 7040TIP3    H142679   5.787   6.599   7.442 -0.5014 -0.6234  0.5390
 7040TIP3    H242680   5.772   6.749   7.456 -1.6217 -0.7214  0.5106
 7041TIP3   OH242681   6.388   4.927   7.340  0.4433  0.3530 -0.0923
 7041TIP3    H142682   6.410   4.988   7.411  1.9137 -0.9689  0.6660
 7041TIP3    H242683   6.417   4.842   7.373 -1.1973 -0.7060 -1.2778
 7042TIP3   OH242684   6.328   2.566   0.462 -0.1231  0.4141 -0.8336
 7042TIP3    H142685   6.257   2.626   0.438 -1.4051 -0.4437  0.6420
 7042TIP3    H242686   6.341   2.512   0.384 -2.0869 -0.3450 -0.6899
 7043TIP3   OH242687   5.297   4.569   7.986  0.2839 -0.1866  0.0754
 7043TIP3    H142688   5.375   4.554   7.932  1.9965  1.0073  2.0484
 7043TIP3    H242689   5.299   4.498   8.050  2.9382  2.5516  3.4262
 7044TIP3   OH242690   1.669   6.119   2.542  0.3675 -0.6025  0.3601
 7044TIP3    H142691   1.755   6.077   2.532  0.9682  0.6538  0.0865
 7044TIP3    H242692   1.671   6.156   2.630 -0.0149 -0.8042  0.4561
 7045TIP3   OH242693   3.211   6.365   7.701  0.1319  0.1230 -0.3767
 7045TIP3    H142694   3.264   6.434   7.662 -2.3047  2.1291 -0.4234
 7045TIP3    H242695   3.240   6.362   7.792  1.4809 -0.0728 -0.7910
 7046TIP3   OH242696   3.878   1.081   7.029 -0.1138 -0.1865  0.1736
 7046TIP3    H142697   3.932   1.124   7.096 -0.3289 -2.0575  1.6331
 7046TIP3    H242698   3.935   1.076   6.953  0.7476  0.4618  0.7506
 7047TIP3   OH242699   1.257   4.026   7.945  0.0633  0.4046 -0.0173
 7047TIP3    H142700   1.286   4.117   7.943 -0.0592  0.4333 -1.2270
 7047TIP3    H242701   1.161   4.031   7.944  0.0575  0.2655 -0.9873
 7048TIP3   OH242702   1.421   3.250   7.449 -0.0797  0.3866 -0.0608
 7048TIP3    H142703   1.411   3.279   7.358 -1.1619 -2.3335 -0.8940
 7048TIP3    H242704   1.347   3.291   7.495 -1.5173 -0.8545 -1.1704
 7049TIP3   OH242705   1.057   4.495   2.342  0.0805  0.3468  0.4695
 7049TIP3    H142706   0.987   4.437   2.373  1.4196 -1.3579  0.4255
 7049TIP3    H242707   1.102   4.524   2.421  0.7102 -0.3911  0.3932
 7050TIP3   OH242708   3.805   1.295   2.070 -0.8091 -0.0029  0.0194
 7050TIP3    H142709   3.860   1.220   2.093 -0.2045  0.8579  1.5432
 7050TIP3    H242710   3.849   1.336   1.996  0.0015  0.0417  0.5236
 7051TIP3   OH242711   3.822   4.469   2.456  0.0361 -0.0518 -0.1608
 7051TIP3    H142712   3.880   4.464   2.531  1.2068  0.1705 -1.0127
 7051TIP3    H242713   3.738   4.436   2.487  0.5966 -0.3044  1.1266
 7052TIP3   OH242714   3.521   4.359   2.268  0.4847 -0.0960  0.0135
 7052TIP3    H142715   3.446   4.342   2.211 -0.9511  0.0906  1.7566
 7052TIP3    H242716   3.590   4.388   2.208 -0.4971 -1.1836 -1.7597
 7053TIP3   OH242717   1.624   0.881   7.952  0.0104 -0.0690  0.4851
 7053TIP3    H142718   1.680   0.822   8.003  0.3974 -0.8322 -0.7780
 7053TIP3    H242719   1.601   0.831   7.874  1.0742  1.7392 -1.0629
 7054TIP3   OH242720   2.698   6.167   1.925 -0.1466  0.4852 -0.3916
 7054TIP3    H142721   2.646   6.123   1.993  2.9722  0.8893  2.5133
 7054TIP3    H242722   2.679   6.260   1.938  0.6223  0.5776  0.1244
 7055TIP3   OH242723   0.219   1.148   0.368 -0.0472 -0.4335 -0.0943
 7055TIP3    H142724   0.200   1.220   0.308  0.3686  0.0585  0.3657
 7055TIP3    H242725   0.270   1.086   0.316  0.2852 -0.0226 -0.2572
 7056TIP3   OH242726   0.210   1.660   0.006 -0.3002  0.5317  0.6900
 7056TIP3    H142727   0.281   1.719   0.031  1.4952 -1.3908  0.4168
 7056TIP3    H242728   0.191   1.681  -0.085  1.6325 -0.4626 -0.0028
 7057LIG     O142729   1.479   2.467   7.074  0.4395 -0.1495 -0.0467
 7057LIG     O242730   1.617   2.501   7.257  0.2287  0.5403  0.4229
 7057LIG     O342731   1.629   2.275   7.246 -0.1695 -0.5303  0.2738
 7057LIG     O442732   1.360   2.737   7.201 -0.0450 -0.2178 -0.4329
 7057LIG     O542733   1.184   2.517   7.281  0.3045  0.6827  0.9557
 7057LIG     O642734   1.902   2.512   7.232 -0.3682 -0.3084  0.2760
 7057LIG     O742735   1.780   2.469   7.493 -0.1026  0.5938 -0.4973
 7057LIG     O842736   1.744   2.210   7.589 -0.3664  0.6150  0.9374
 7057LIG     O942737   1.719   2.729   7.163  0.0757 -0.1656 -0.0880
 7057LIG    O1042738   1.388   2.194   7.141 -0.6559 -0.3446 -0.9980
 7057LIG    O1142739   1.510   2.092   7.543  0.4643  0.3644 -0.1821
 7057LIG     C142740   1.535   2.562   7.159 -0.3532 -0.1007  0.5630
 7057LIG     C242741   1.417   2.616   7.252 -0.4239  0.4785  0.7379
 7057LIG     C342742   1.320   2.495   7.243  0.5832  0.0356  0.9001
 7057LIG     C442743   1.341   2.437   7.104  0.3201  0.8386  0.1331
 7057LIG     C542744   1.693   2.390   7.208  0.2466 -0.0121  0.3291
 7057LIG     C642745   1.838   2.393   7.267 -0.4507 -0.3941  0.0038
 7057LIG     C742746   1.832   2.370   7.418 -0.3644  0.1919  0.5916
 7057LIG     C842747   1.752   2.241   7.446 -0.6813 -0.5105  0.1399
 7057LIG     C942748   1.616   2.250   7.387  0.4143 -0.0508 -0.4939
 7057LIG    C1042749   1.623   2.655   7.074 -0.2014 -0.8669 -0.3023
 7057LIG    C1142750   1.299   2.288   7.081  0.1970  0.2745 -0.1240
 7057LIG    C1242751   1.547   2.115   7.407 -0.0921  0.1045  0.1870
 7057LIG     H142752   1.457   2.634   7.353  0.0563 -0.8536  0.8025
 7057LIG     H242753   1.364   2.419   7.308  0.8711 -0.3512  0.2630
 7057LIG     H342754   1.286   2.504   7.037 -1.9103  0.0838  1.1098
 7057LIG     H442755   1.689   2.386   7.097 -2.0168  2.8429  0.1815
 7057LIG     H542756   1.898   2.309   7.226 -0.7310 -0.3366 -0.5216
 7057LIG     H642757   1.937   2.349   7.447  0.0674  1.7368  0.1945
 7057LIG     H742758   1.809   2.169   7.384 -0.4904  0.6179 -1.0444
 7057LIG     H842759   1.558   2.327   7.443  2.3747  0.0139  1.5879
 7057LIG     H942760   1.690   2.598   7.006  2.1233 -0.3490  1.4356
 7057LIG    H1042761   1.557   2.738   7.040  0.4172  1.6675  3.9740
 7057LIG    H1142762   1.194   2.285   7.117 -0.4408 -2.3939 -1.9666
 7057LIG    H1242763   1.301   2.275   6.971  1.7873  0.4637 -0.1527
 7057LIG    H1342764   1.450   2.104   7.355  0.9741 -2.4377 -1.4525
 7057LIG    H1442765   1.614   2.029   7.385 -1.8245 -1.1235 -0.4941
 7057LIG    H1542766   1.293   2.780   7.255 -0.8680 -1.4243 -0.4652
 7057LIG    H1642767   1.187   2.587   7.346  2.2048 -0.1522  1.8576
 7057LIG    H1742768   1.996   2.492   7.230 -0.6120 -2.1180  2.6484
 7057LIG    H1842769   1.778   2.426   7.578  0.0338  1.1324 -0.2203
 7057LIG    H1942770   1.700   2.125   7.588  2.6426 -1.0798 -0.1932
 7057LIG    H2042771   1.778   2.662   7.199  0.9303  0.3728 -0.4564
 7057LIG    H2142772   1.472   2.237   7.159 -0.7049 -0.8261  0.5117
 7057LIG    H2242773   1.435   2.032   7.547 -2.3682  3.4978 -1.1040
   6.82402   6.82402   8.82382
